G2Pncore-PETIM in water
136564
    1aaa     N1    1   1.373   4.441   4.488 -0.5879 -0.7182 -0.1521
    1aaa     C1    2   1.524   4.473   4.481  0.9404 -0.2597  0.3111
    1aaa     H1    3   1.564   4.372   4.476 -1.5587 -1.2622 -1.8544
    1aaa     H2    4   1.540   4.514   4.382  2.2020 -1.4192  0.0061
    1aaa     C2    5   1.325   4.390   4.357 -0.3588 -0.2001 -0.4780
    1aaa     H3    6   1.364   4.289   4.344 -2.4933 -1.1111 -0.2694
    1aaa     H4    7   1.216   4.394   4.357 -0.5159 -2.5940  1.0902
    1aaa     C3    8   1.344   4.346   4.602  0.3438 -0.2357  0.0058
    1aaa     H5    9   1.425   4.274   4.592  1.3998  0.8898  0.2311
    1aaa     H6   10   1.361   4.396   4.697 -0.8354  2.8271 -1.2811
    1aaa     C4   11   1.210   4.266   4.613 -0.0200  0.1932  0.0413
    1aaa     H7   12   1.202   4.184   4.541  1.7897  0.0611 -0.0635
    1aaa     H8   13   1.215   4.205   4.704 -1.5941 -0.3032 -0.1690
    1aaa     C5   14   1.586   4.541   4.595 -0.2090 -0.4012  0.0436
    1aaa     H9   15   1.577   4.489   4.691 -0.5710  1.9142  1.3334
    1aaa    H10   16   1.694   4.548   4.580 -0.3467  0.6051 -0.5673
    1aaa     C6   17   1.365   4.464   4.225  0.5893 -0.0920  0.2995
    1aaa    H11   18   1.469   4.432   4.214  0.1004 -1.4056 -0.6097
    1aaa    H12   19   1.325   4.422   4.132  1.2366 -0.3878  0.1553
    1aaa     C7   20   1.361   4.618   4.228  0.0007  0.3354  0.0086
    1aaa    H13   21   1.257   4.651   4.240  0.3703  0.7095  2.9329
    1aaa    H14   22   1.402   4.664   4.319  2.1937 -0.5342 -0.4900
    1aaa     C8   23   1.081   4.352   4.621  0.3379  0.2078 -0.0259
    1aaa    H15   24   1.103   4.406   4.714  1.4547 -0.7729  0.3154
    1aaa    H16   25   1.073   4.423   4.537  0.9360  0.1854 -0.1076
    1aaa     C9   26   1.531   4.689   4.610 -0.1450  0.8837 -0.0671
    1aaa    H17   27   1.552   4.750   4.522 -0.1387  1.2285  0.1723
    1aaa    H18   28   1.422   4.693   4.624 -0.0180  1.5633  0.7459
    1aaa    H19   29   1.318   4.527   4.506  0.1408 -0.1819 -0.4206
    2bbb     N1   30   1.549   5.056   3.815 -0.4098 -0.7261 -0.0213
    2bbb     C1   31   1.597   5.200   3.826  0.7252 -0.0985  0.0359
    2bbb     H1   32   1.699   5.206   3.787  1.8358 -0.0258  2.7198
    2bbb     H2   33   1.591   5.228   3.932 -2.6112  1.0720 -0.3468
    2bbb     C2   34   1.659   4.970   3.759 -0.2245  0.3552  0.3692
    2bbb     H3   35   1.706   5.007   3.668 -0.7470 -0.4516 -0.2500
    2bbb     H4   36   1.611   4.875   3.732  1.4032 -0.4875  0.3073
    2bbb     C3   37   1.476   5.021   3.941 -0.1795  0.3016  0.2083
    2bbb     H5   38   1.390   5.088   3.947 -0.5273 -0.0429 -0.6831
    2bbb     H6   39   1.538   5.046   4.027  0.6876 -0.4720 -0.1743
    2bbb     C4   40   1.429   4.872   3.946 -0.1110 -0.1172 -0.1316
    2bbb     H7   41   1.517   4.811   3.922  0.7867  0.4227  1.6467
    2bbb     H8   42   1.337   4.859   3.887 -0.7496  0.7868  0.6497
    2bbb     C5   43   1.501   5.298   3.752  0.4110  0.8489 -0.5921
    2bbb     H9   44   1.404   5.307   3.803  0.4327 -2.0921  0.1207
    2bbb    H10   45   1.480   5.267   3.649 -0.4962  0.5904 -0.3366
    2bbb     C6   46   1.773   4.942   3.866  0.3951 -0.1634  0.6937
    2bbb    H11   47   1.725   4.914   3.961 -0.5955  0.5604  0.4224
    2bbb    H12   48   1.814   5.042   3.884 -1.8878  1.0492 -0.4355
    2bbb     C7   49   1.398   4.820   4.088  0.5991  0.1522 -0.7734
    2bbb    H13   50   1.294   4.844   4.112 -0.1391 -2.1668 -1.3549
    2bbb    H14   51   1.464   4.869   4.160  1.6578 -2.3684  0.0848
    2bbb     C8   52   1.875   4.838   3.809 -0.2430 -0.3760 -0.3335
    2bbb    H15   53   1.943   4.806   3.889 -0.3560 -0.0073 -0.0851
    2bbb    H16   54   1.818   4.748   3.785 -0.2760 -1.3612  2.8911
    2bbb     C9   55   1.558   5.436   3.742  0.1201  0.0465 -0.4321
    2bbb    H17   56   1.574   5.476   3.842 -0.6104 -0.7186  0.0031
    2bbb    H18   57   1.488   5.501   3.688 -0.4402  0.3715  0.6719
    2bbb     O1   58   1.419   4.674   4.111 -0.3319 -0.7150  0.3752
    2bbb    H19   59   1.481   5.069   3.740  0.6397  0.7677 -0.7803
    3bbb     N1   60   0.591   4.048   4.586 -0.3604  0.1364 -0.1068
    3bbb     C1   61   0.473   4.124   4.530  0.5246 -0.3454  0.7883
    3bbb     H1   62   0.489   4.150   4.425 -1.1514 -0.3705  0.4905
    3bbb     H2   63   0.466   4.221   4.579  0.1966 -0.2909  0.6413
    3bbb     C2   64   0.627   3.913   4.523 -0.0044 -0.2327  0.0181
    3bbb     H3   65   0.692   3.945   4.442  0.2193  0.5714  0.4986
    3bbb     H4   66   0.536   3.864   4.488 -0.2511 -0.5891  1.1109
    3bbb     C3   67   0.714   4.141   4.568  0.7830  0.1472 -0.0934
    3bbb     H5   68   0.711   4.177   4.466 -1.9607  0.7328  0.1159
    3bbb     H6   69   0.799   4.074   4.580 -0.8383 -1.7912  1.3932
    3bbb     C4   70   0.723   4.257   4.670 -0.0224 -0.1153  0.3546
    3bbb     H7   71   0.744   4.215   4.769  1.0961 -0.6336 -0.0855
    3bbb     H8   72   0.627   4.310   4.670  0.0245 -0.0238 -0.4570
    3bbb     C5   73   0.342   4.048   4.538 -0.1303  0.4246  0.4470
    3bbb     H9   74   0.313   4.012   4.637  0.9167  0.7081  0.8741
    3bbb    H10   75   0.343   3.964   4.468  2.3328  1.4943 -0.9698
    3bbb     C6   76   0.697   3.821   4.629  0.1964  0.5719 -0.3744
    3bbb    H11   77   0.621   3.812   4.708  0.6515 -1.6476 -0.1326
    3bbb    H12   78   0.788   3.869   4.666  0.9501 -0.2244 -1.1576
    3bbb     C7   79   0.842   4.356   4.641  0.9528  0.2866  0.3108
    3bbb    H13   80   0.847   4.432   4.719 -2.1859  1.2133 -0.2484
    3bbb    H14   81   0.828   4.406   4.545 -1.3680  1.5248  1.2097
    3bbb     C8   82   0.732   3.677   4.572 -0.0441  0.2365  0.4914
    3bbb    H15   83   0.803   3.700   4.491  0.8401  0.3847  1.2918
    3bbb    H16   84   0.801   3.616   4.631  0.5678 -0.9674 -1.3843
    3bbb     C9   85   0.224   4.140   4.496  0.4873  0.2291 -0.0737
    3bbb    H17   86   0.238   4.158   4.388 -1.3885 -1.7723 -0.7227
    3bbb    H18   87   0.228   4.236   4.548  0.6555  0.9615 -1.3737
    3bbb     O1   88   0.965   4.269   4.645  0.0998 -0.2733  0.0144
    3bbb    H19   89   0.564   4.028   4.683 -0.8407  0.9416 -0.0698
    4bbb     N1   90   1.700   4.849   5.141 -0.7658  0.3694 -0.2474
    4bbb     C1   91   1.626   4.970   5.201 -0.0525  0.3628 -0.0514
    4bbb     H1   92   1.522   4.951   5.226  0.1834  0.4608  1.0929
    4bbb     H2   93   1.639   5.059   5.140 -2.2853 -0.0503 -1.2083
    4bbb     C2   94   1.703   4.729   5.231  0.1904  0.0148  0.5588
    4bbb     H3   95   1.603   4.687   5.226  0.5976 -0.8357 -1.5334
    4bbb     H4   96   1.718   4.774   5.329  0.4830  1.1112  0.0365
    4bbb     C3   97   1.627   4.808   5.016  0.1216 -0.1389  0.3366
    4bbb     H5   98   1.526   4.777   5.045  0.0956 -2.2951 -1.7341
    4bbb     H6   99   1.681   4.722   4.976  1.3797  0.8079 -0.0569
    4bbb     C4  100   1.632   4.912   4.903  0.0116 -0.6643  0.1514
    4bbb     H7  101   1.736   4.920   4.868 -0.5900  0.9777 -1.4472
    4bbb     H8  102   1.611   5.010   4.949  0.3895 -0.5565  0.1009
    4bbb     C5  103   1.689   5.032   5.330  0.0096 -0.1074  0.4703
    4bbb     H9  104   1.796   5.036   5.306 -0.0786  3.0439  0.1109
    4bbb    H10  105   1.662   4.970   5.416  0.6976  0.9912  1.4953
    4bbb     C6  106   1.807   4.616   5.202 -0.1216  0.9654  0.1864
    4bbb    H11  107   1.903   4.667   5.192  0.5586 -0.4809 -0.9738
    4bbb    H12  108   1.788   4.571   5.104 -1.6886 -0.1969  0.9706
    4bbb     C7  109   1.539   4.869   4.780 -0.5086 -0.4505  0.4198
    4bbb    H13  110   1.551   4.946   4.703  2.6898  2.2917  3.3353
    4bbb    H14  111   1.431   4.867   4.800 -1.1088  1.8587 -1.9845
    4bbb     C8  112   1.812   4.518   5.318  0.5409  0.2004 -0.7777
    4bbb    H15  113   1.710   4.498   5.354  1.5109  1.4422  3.2299
    4bbb    H16  114   1.852   4.424   5.279  3.3159  0.8986  0.1555
    4bbb     C9  115   1.636   5.177   5.354  0.1265  0.5482  0.4077
    4bbb    H17  116   1.529   5.163   5.374 -0.4630 -0.2290 -2.8698
    4bbb    H18  117   1.654   5.232   5.261  1.3974  0.6254  0.6784
    4bbb     O1  118   1.585   4.740   4.731 -0.4963 -0.0279  0.0329
    4bbb    H19  119   1.796   4.879   5.121 -0.9250  0.9234 -0.1756
    5bbb     N1  120   2.092   4.922   3.265 -0.9040 -0.4452 -0.0723
    5bbb     C1  121   1.998   4.912   3.149  0.3340  0.1234 -0.3215
    5bbb     H1  122   2.043   4.970   3.068  0.8455  3.5637  2.1778
    5bbb     H2  123   1.902   4.953   3.179 -1.0524 -1.8655 -1.7683
    5bbb     C2  124   2.152   5.059   3.293  0.6954 -0.5799 -0.0749
    5bbb     H3  125   2.193   5.053   3.394 -0.1277  0.1937  0.3197
    5bbb     H4  126   2.070   5.131   3.297  1.0165 -0.0392 -2.1002
    5bbb     C3  127   2.014   4.878   3.390  0.1995  0.5071  0.4826
    5bbb     H5  128   1.961   4.784   3.374  0.6583  0.0268  1.6764
    5bbb     H6  129   1.935   4.953   3.395 -0.0823  0.6657 -3.1685
    5bbb     C4  130   2.109   4.884   3.518 -0.2369 -0.2449 -0.9241
    5bbb     H7  131   2.144   4.985   3.543 -0.6383  0.0589 -1.5637
    5bbb     H8  132   2.198   4.829   3.484 -1.1842 -0.6815 -2.8564
    5bbb     C5  133   1.965   4.764   3.110  0.6509  0.8288 -0.2945
    5bbb     H9  134   1.907   4.722   3.193  1.0904  2.1666  0.7093
    5bbb    H10  135   2.056   4.705   3.097  1.4624  1.9352  0.1899
    5bbb     C6  136   2.266   5.081   3.187 -0.1050  0.1512 -0.3757
    5bbb    H11  137   2.299   5.185   3.192 -1.0902  0.4200  1.5267
    5bbb    H12  138   2.239   5.059   3.082  0.2135  0.7927 -0.5968
    5bbb     C7  139   2.053   4.818   3.649 -0.1749 -0.3876 -0.0060
    5bbb    H13  140   2.130   4.816   3.727 -1.4039 -1.1926  1.2408
    5bbb    H14  141   2.030   4.712   3.634  0.1444 -0.4570 -0.0214
    5bbb     C8  142   2.385   4.991   3.219 -0.1882 -0.1193  0.1527
    5bbb    H15  143   2.467   5.014   3.149 -1.0730 -1.1591 -1.2763
    5bbb    H16  144   2.402   5.010   3.326 -2.7291  0.8550  0.4403
    5bbb     C9  145   1.867   4.746   2.985  0.3628 -0.4094 -0.0791
    5bbb    H17  146   1.772   4.800   2.994  0.9534  0.5009  1.0381
    5bbb    H18  147   1.852   4.637   2.978  1.2538 -0.5731  0.3723
    5bbb     O1  148   1.936   4.892   3.692  0.3580 -0.4858 -0.3087
    5bbb    H19  149   2.174   4.861   3.259  0.2179  0.7437  2.0506
    6bbb     N1  150   1.845   5.726   3.427  0.4001  0.2929  0.0078
    6bbb     C1  151   1.988   5.768   3.433 -0.1724 -0.9229  0.0120
    6bbb     H1  152   2.048   5.690   3.385  0.0368 -0.8073  0.0841
    6bbb     H2  153   2.019   5.763   3.537 -0.3646  0.8226  0.1875
    6bbb     C2  154   1.787   5.761   3.296  0.4805  0.8496  0.3539
    6bbb     H3  155   1.808   5.675   3.232 -2.4632  0.5000 -0.2915
    6bbb     H4  156   1.834   5.845   3.245  0.8439 -0.2866 -1.2419
    6bbb     C3  157   1.835   5.575   3.452  0.3637 -0.6297  0.1481
    6bbb     H5  158   1.902   5.532   3.377  0.3881  0.6437 -0.5985
    6bbb     H6  159   1.731   5.546   3.438 -0.2024  0.2629  2.1615
    6bbb     C4  160   1.887   5.527   3.590  0.4023 -0.3291 -0.6599
    6bbb     H7  161   1.974   5.576   3.635 -0.4681 -0.6861  1.5396
    6bbb     H8  162   1.913   5.421   3.584  2.1167 -0.0932  1.4435
    6bbb     C5  163   2.037   5.907   3.387  0.2660 -0.3139  0.3708
    6bbb     H9  164   2.025   5.902   3.278 -2.7385  0.0140  0.5938
    6bbb    H10  165   2.144   5.909   3.409  0.3661 -1.3691  0.0301
    6bbb     C6  166   1.640   5.784   3.299 -0.0729  0.0330 -0.0280
    6bbb    H11  167   1.579   5.698   3.330  2.0064 -1.3324  0.4813
    6bbb    H12  168   1.607   5.787   3.195 -1.2569  0.7009  0.3519
    6bbb     C7  169   1.764   5.543   3.687 -0.1714 -0.0997 -0.2113
    6bbb    H13  170   1.705   5.633   3.666  2.0583  2.0918  2.1221
    6bbb    H14  171   1.799   5.549   3.791 -1.0996  2.1395  0.0317
    6bbb     C8  172   1.605   5.903   3.387 -0.2735  1.0246 -0.1224
    6bbb    H15  173   1.496   5.918   3.389 -0.5899 -0.9412 -0.7314
    6bbb    H16  174   1.647   5.883   3.486 -1.5507  1.2165  0.4886
    6bbb     C9  175   1.974   6.032   3.447  1.0196  0.4026  0.0809
    6bbb    H17  176   2.018   6.046   3.547  2.4860  0.4700 -0.5522
    6bbb    H18  177   1.865   6.022   3.456  0.9625 -0.7864 -1.5392
    6bbb     O1  178   1.686   5.425   3.671  0.6704  0.1921 -0.4564
    6bbb    H19  179   1.798   5.788   3.495 -0.5920  1.5384 -1.7389
    7bbb     N1  180   0.407   3.273   4.223  0.3586  0.4279 -0.2881
    7bbb     C1  181   0.469   3.148   4.163 -0.3790 -0.4811  0.1295
    7bbb     H1  182   0.394   3.084   4.116  0.0726  1.2082 -3.1423
    7bbb     H2  183   0.522   3.087   4.236 -0.4818  1.0020  1.5073
    7bbb     C2  184   0.309   3.217   4.328  0.1216 -0.0341  0.1825
    7bbb     H3  185   0.308   3.276   4.420 -0.9450 -1.0407  0.8452
    7bbb     H4  186   0.345   3.117   4.353  0.0887  0.4190  2.2673
    7bbb     C3  187   0.525   3.359   4.279  0.6403  0.1012  0.2156
    7bbb     H5  188   0.567   3.412   4.193 -0.2986 -0.7458 -0.8046
    7bbb     H6  189   0.596   3.297   4.333 -0.1365 -0.5393  0.5197
    7bbb     C4  190   0.496   3.466   4.381 -0.2766 -0.1620 -0.4442
    7bbb     H7  191   0.450   3.413   4.466  1.7422 -1.3475 -0.0259
    7bbb     H8  192   0.419   3.536   4.348  0.0418 -0.1945 -1.2678
    7bbb     C5  193   0.563   3.165   4.049  0.7403 -0.0033 -0.0437
    7bbb     H9  194   0.652   3.186   4.108 -0.0968  0.0741  1.2306
    7bbb    H10  195   0.547   3.253   3.985  1.8277  1.1942  1.2720
    7bbb     C6  196   0.171   3.193   4.267  0.2031  0.3184 -0.0090
    7bbb    H11  197   0.164   3.113   4.193 -3.3499  0.5986 -0.1563
    7bbb    H12  198   0.137   3.283   4.215 -0.6628 -0.3161 -0.5638
    7bbb     C7  199   0.632   3.529   4.426 -0.1679  0.0592  0.2549
    7bbb    H13  200   0.677   3.591   4.347  0.2317  0.8325  1.0664
    7bbb    H14  201   0.709   3.457   4.456  0.7583  1.4695  1.4267
    7bbb     C8  202   0.067   3.161   4.380  0.1672 -0.1380 -0.3017
    7bbb    H15  203   0.094   3.219   4.468  0.2600 -1.5734  0.6553
    7bbb    H16  204  -0.032   3.185   4.340 -0.3089 -1.1387  0.2445
    7bbb     C9  205   0.588   3.039   3.966 -0.1544  0.6113 -0.3920
    7bbb    H17  206   0.614   2.959   4.036 -2.7608  1.9732  2.3973
    7bbb    H18  207   0.660   3.061   3.887  0.2500 -1.5642 -0.6861
    7bbb     O1  208   0.611   3.611   4.545  0.3661  0.1601 -0.1103
    7bbb    H19  209   0.356   3.323   4.149  1.9072  0.0255 -1.7047
    8bbb     N1  210  -0.396   4.000   4.466  0.0233 -0.3870  0.8087
    8bbb     C1  211  -0.438   3.980   4.609 -1.0656  0.4318  0.2822
    8bbb     H1  212  -0.482   4.073   4.645  0.3706  1.4976 -0.6023
    8bbb     H2  213  -0.348   3.954   4.665 -0.6117 -1.0262 -1.0732
    8bbb     C2  214  -0.506   4.085   4.393 -1.0466  0.2478  0.0216
    8bbb     H3  215  -0.514   4.178   4.449 -0.5176  0.0189  0.4858
    8bbb     H4  216  -0.595   4.023   4.408 -0.5575 -1.3720 -2.9989
    8bbb     C3  217  -0.275   4.087   4.460 -0.3752 -0.1585 -0.3831
    8bbb     H5  218  -0.293   4.178   4.517  3.0097  0.1794  0.3272
    8bbb     H6  219  -0.260   4.124   4.359 -0.3736  3.0941  0.6899
    8bbb     C4  220  -0.141   4.020   4.500 -0.0174 -0.2861 -0.4054
    8bbb     H7  221  -0.123   3.938   4.429  1.7361  0.6318 -1.0735
    8bbb     H8  222  -0.139   3.971   4.598  0.5655 -2.1014 -1.2714
    8bbb     C5  223  -0.546   3.870   4.629  0.6044  0.6488  0.1249
    8bbb     H9  224  -0.509   3.775   4.588  1.5789  0.8906  0.4129
    8bbb    H10  225  -0.629   3.894   4.562  1.3917 -0.1671 -1.1899
    8bbb     C6  226  -0.491   4.109   4.246  0.3817  0.4370  0.0793
    8bbb    H11  227  -0.448   4.020   4.198 -0.1126 -0.5146  1.3681
    8bbb    H12  228  -0.416   4.186   4.221  0.9693 -0.4055 -0.8313
    8bbb     C7  229  -0.022   4.126   4.491 -0.4388  0.2190  0.7062
    8bbb    H13  230  -0.037   4.209   4.561 -0.5401 -0.6414  1.7274
    8bbb    H14  231  -0.014   4.163   4.388  1.3571 -0.7710  0.4489
    8bbb     C8  232  -0.632   4.142   4.169  0.5569  0.6406 -0.4082
    8bbb    H15  233  -0.667   4.237   4.211 -0.6075  0.2999 -0.5717
    8bbb    H16  234  -0.626   4.152   4.060 -0.9808 -1.7624 -0.7864
    8bbb     C9  235  -0.577   3.839   4.777 -0.5039 -0.1833 -0.7332
    8bbb    H17  236  -0.482   3.856   4.828 -0.8558  0.9838 -0.4254
    8bbb    H18  237  -0.612   3.739   4.803  0.2351 -0.5498 -1.1205
    8bbb     O1  238   0.100   4.066   4.526 -0.9881 -0.0328 -0.5031
    8bbb    H19  239  -0.391   3.905   4.427  2.3022 -0.3794  0.9816
    9bbb     N1  240   2.170   4.342   5.766  0.7493 -0.0873  0.4696
    9bbb     C1  241   2.146   4.245   5.885  0.1290 -0.9989  0.3232
    9bbb     H1  242   2.240   4.232   5.940 -0.1363 -1.1459  0.7399
    9bbb     H2  243   2.119   4.151   5.837  1.3627 -0.8302 -0.7817
    9bbb     C2  244   2.290   4.293   5.687  0.5501 -0.1347 -0.3295
    9bbb     H3  245   2.283   4.357   5.598 -2.8315  2.8674  1.8385
    9bbb     H4  246   2.265   4.195   5.646  1.7385 -0.6751  0.1879
    9bbb     C3  247   2.039   4.336   5.683 -0.5989  0.6174 -0.4172
    9bbb     H5  248   1.955   4.323   5.750 -0.3407  0.1189 -0.1877
    9bbb     H6  249   2.045   4.256   5.609 -1.0565 -1.2502  1.4667
    9bbb     C4  250   2.022   4.464   5.596 -0.9621 -0.7166  0.8522
    9bbb     H7  251   2.092   4.446   5.513 -1.4938  1.0324 -0.0355
    9bbb     H8  252   2.054   4.549   5.657  0.2906 -1.4237  1.2187
    9bbb     C5  253   2.044   4.291   5.993 -0.2103  0.1352 -0.0106
    9bbb     H9  254   2.030   4.195   6.044 -0.2985 -0.3639 -0.9521
    9bbb    H10  255   1.943   4.317   5.960 -0.2023 -0.1674 -0.2780
    9bbb     C6  256   2.435   4.296   5.746  0.1050  0.0393  0.0308
    9bbb    H11  257   2.418   4.266   5.850 -0.2997 -1.1849 -0.3733
    9bbb    H12  258   2.465   4.401   5.750 -0.3838  0.1803  0.1270
    9bbb     C7  259   1.884   4.486   5.538  0.1905 -0.4785  0.3336
    9bbb    H13  260   1.817   4.525   5.615 -0.2009  2.8268 -1.5099
    9bbb    H14  261   1.847   4.387   5.509 -1.5027  0.2774 -0.1974
    9bbb     C8  262   2.532   4.199   5.668 -0.1358  0.7027 -0.8376
    9bbb    H15  263   2.496   4.095   5.664  0.3919  0.4127  0.9992
    9bbb    H16  264   2.550   4.236   5.566 -0.7244  1.4224 -0.6854
    9bbb     C9  265   2.098   4.398   6.096 -0.3279  0.0493  0.0951
    9bbb    H17  266   2.100   4.499   6.054 -1.3613 -0.0090 -0.1232
    9bbb    H18  267   2.201   4.375   6.127 -0.7017  0.6249  1.9258
    9bbb     O1  268   1.896   4.576   5.421 -0.3385  0.1098  0.5479
    9bbb    H19  269   2.203   4.434   5.799 -0.2317 -0.2026  1.8438
   10bbb     N1  270   1.727   5.642   5.780 -0.2664 -0.4671 -1.3648
   10bbb     C1  271   1.627   5.750   5.821 -0.5553  0.4294 -0.3220
   10bbb     H1  272   1.682   5.797   5.903  1.3981 -1.9255 -0.1768
   10bbb     H2  273   1.532   5.714   5.861 -0.6806  0.1486 -0.8605
   10bbb     C2  274   1.755   5.548   5.895  0.7718 -0.4739 -0.1804
   10bbb     H3  275   1.806   5.461   5.852  2.8244  0.9185 -0.7067
   10bbb     H4  276   1.659   5.513   5.933  1.4721 -1.5752  0.6858
   10bbb     C3  277   1.676   5.565   5.663 -0.6764  0.3329  0.2421
   10bbb     H5  278   1.663   5.641   5.586 -1.8391  0.8780  0.9550
   10bbb     H6  279   1.580   5.520   5.688  1.3558 -3.8897  1.3973
   10bbb     C4  280   1.749   5.437   5.610 -0.2304 -0.1294 -0.5113
   10bbb     H7  281   1.777   5.367   5.689 -3.3255  0.4599  1.2815
   10bbb     H8  282   1.838   5.459   5.549  0.6520 -0.7502  0.5169
   10bbb     C5  283   1.606   5.869   5.725  0.5153  0.0707  0.4828
   10bbb     H9  284   1.540   5.844   5.640 -1.6097  4.3940  0.5869
   10bbb    H10  285   1.703   5.889   5.680  0.4989 -1.0495 -0.0931
   10bbb     C6  286   1.840   5.602   6.019 -0.0325  0.0429  0.1919
   10bbb    H11  287   1.850   5.521   6.091  1.9882 -0.9534 -1.1260
   10bbb    H12  288   1.791   5.687   6.069 -0.5734 -0.9156  1.3293
   10bbb     C7  289   1.653   5.370   5.503 -0.5284 -0.2646  0.5784
   10bbb    H13  290   1.642   5.440   5.420 -1.4866 -0.0530  0.8622
   10bbb    H14  291   1.561   5.357   5.562 -1.5973  1.7880 -0.5614
   10bbb     C8  292   1.983   5.650   5.977 -0.8965  0.3992 -0.6472
   10bbb    H15  293   2.035   5.660   6.073 -2.5654 -0.3793  0.3909
   10bbb    H16  294   2.039   5.579   5.915 -1.5183  0.0232 -0.7887
   10bbb     C9  295   1.540   5.985   5.797 -0.2116 -0.6030  0.2457
   10bbb    H17  296   1.523   6.065   5.725  1.8537 -0.6046 -0.3140
   10bbb    H18  297   1.601   6.015   5.883  1.7243 -0.6018 -1.0661
   10bbb     O1  298   1.706   5.238   5.459  0.1321  0.0718  0.1885
   10bbb    H19  299   1.817   5.683   5.753  0.1772 -1.5207 -1.5249
   11bbb     N1  300   2.377   4.415   3.061  0.4779 -0.1756  0.9977
   11bbb     C1  301   2.253   4.365   3.138  0.5767  0.5593  0.5613
   11bbb     H1  302   2.172   4.371   3.066  0.6912  0.0877  0.3891
   11bbb     H2  303   2.233   4.433   3.221  2.1479  0.7923  0.7758
   11bbb     C2  304   2.369   4.378   2.912 -0.2582  0.6285  0.7594
   11bbb     H3  305   2.439   4.450   2.871 -1.2363  1.7375  0.9649
   11bbb     H4  306   2.271   4.404   2.871 -0.8882 -0.3116  1.6116
   11bbb     C3  307   2.385   4.567   3.071 -0.6790  0.6878  0.2330
   11bbb     H5  308   2.304   4.618   3.018  0.3452  0.0675 -2.0752
   11bbb     H6  309   2.482   4.594   3.027  0.1403  1.3579  2.3326
   11bbb     C4  310   2.389   4.619   3.214 -0.0443  0.1245  0.0868
   11bbb     H7  311   2.443   4.546   3.274  1.1064  0.2668 -0.7461
   11bbb     H8  312   2.283   4.617   3.243 -0.1867  1.5934 -0.2405
   11bbb     C5  313   2.246   4.228   3.205  0.3275 -0.5012 -0.4149
   11bbb     H9  314   2.213   4.150   3.135 -0.9873  0.2789 -0.7088
   11bbb    H10  315   2.166   4.233   3.281 -0.6736  0.6102 -1.4890
   11bbb     C6  316   2.417   4.237   2.875 -0.0532 -0.4563 -0.3543
   11bbb    H11  317   2.351   4.161   2.917 -0.9971  0.8528  0.6182
   11bbb    H12  318   2.509   4.221   2.934 -0.1347  0.8790  0.1773
   11bbb     C7  319   2.441   4.762   3.232 -0.1972 -0.1081  0.5824
   11bbb    H13  320   2.537   4.776   3.181  0.0040  0.4101  1.0909
   11bbb    H14  321   2.464   4.764   3.340  0.1669 -1.5692  0.5432
   11bbb     C8  322   2.437   4.212   2.722  0.4146 -1.0618  0.0741
   11bbb    H15  323   2.396   4.114   2.693 -0.0644 -1.0332  0.6320
   11bbb    H16  324   2.384   4.299   2.681  1.0624 -0.4606  0.4847
   11bbb     C9  325   2.390   4.189   3.254  0.0916 -0.3520 -0.6691
   11bbb    H17  326   2.447   4.181   3.161  0.3706  0.9359 -0.6367
   11bbb    H18  327   2.381   4.095   3.309 -0.0669  0.5319  0.8742
   11bbb     O1  328   2.343   4.854   3.198 -0.1493 -0.3689 -0.4254
   11bbb    H19  329   2.458   4.363   3.098  1.2279  0.3743  0.1650
   12bbb     N1  330   2.070   4.932   2.468 -0.2858 -0.0749 -0.1155
   12bbb     C1  331   2.212   4.915   2.436 -0.3480 -0.1067 -0.0201
   12bbb     H1  332   2.272   4.888   2.523 -0.8891 -1.0186  0.0846
   12bbb     H2  333   2.237   5.008   2.385 -1.4622  1.3674  1.9984
   12bbb     C2  334   1.979   4.952   2.348 -0.0608  0.4639 -0.3822
   12bbb     H3  335   1.880   4.972   2.389 -0.1050  1.1412 -0.8023
   12bbb     H4  336   1.980   4.861   2.287 -0.6833 -1.2714  2.0197
   12bbb     C3  337   2.021   4.825   2.562 -0.7780 -0.4297  0.0415
   12bbb     H5  338   2.089   4.817   2.647 -2.6157  1.1698  1.7592
   12bbb     H6  339   2.020   4.732   2.504 -1.4540 -0.5504  0.2332
   12bbb     C4  340   1.884   4.854   2.625  0.6743  0.4204  0.8970
   12bbb     H7  341   1.808   4.844   2.546  1.4831 -0.5195  0.2119
   12bbb     H8  342   1.876   4.959   2.655 -0.4445 -0.0293  2.3267
   12bbb     C5  343   2.232   4.795   2.335  0.3291 -0.2329 -0.0378
   12bbb     H9  344   2.181   4.807   2.239  1.5153  1.5369 -0.4757
   12bbb    H10  345   2.177   4.708   2.373 -1.2087  1.5095  1.9789
   12bbb     C6  346   2.016   5.062   2.244  0.3454  0.2195 -0.2765
   12bbb    H11  347   2.098   5.024   2.183 -0.2965 -0.2980 -0.8254
   12bbb    H12  348   2.055   5.149   2.298 -1.1245  0.3571  0.6469
   12bbb     C7  349   1.852   4.757   2.740 -0.7847 -0.1006  0.1321
   12bbb    H13  350   1.897   4.659   2.719  2.0519  1.6270 -2.7753
   12bbb    H14  351   1.745   4.745   2.763 -0.8148 -1.3256 -0.5642
   12bbb     C8  352   1.900   5.100   2.155  0.1453 -0.6213 -0.7925
   12bbb    H15  353   1.807   5.116   2.212 -0.8237  1.1143 -2.6972
   12bbb    H16  354   1.911   5.202   2.117 -1.6044 -0.2345 -0.3788
   12bbb     C9  355   2.379   4.762   2.309  0.9275 -0.2392  0.0930
   12bbb    H17  356   2.376   4.656   2.283  0.3933 -0.6531  1.6997
   12bbb    H18  357   2.432   4.774   2.404  0.2229 -0.6560  0.5454
   12bbb     O1  358   1.925   4.796   2.863 -0.4152  0.5104 -0.0136
   12bbb    H19  359   2.064   5.016   2.527 -2.2744 -1.1084  1.2906
   13bbb     N1  360   1.426   6.206   3.043 -0.5845 -0.6757 -0.1231
   13bbb     C1  361   1.546   6.179   2.946  0.5929 -0.2614 -0.1685
   13bbb     H1  362   1.555   6.071   2.933  0.1970 -0.5473  1.6955
   13bbb     H2  363   1.633   6.227   2.992  0.1670  0.3039  0.0654
   13bbb     C2  364   1.293   6.158   2.989  0.3688  1.0242  0.4404
   13bbb     H3  365   1.280   6.050   3.004  0.2947  1.0147  0.3055
   13bbb     H4  366   1.285   6.170   2.881 -0.0651 -3.3482 -0.2238
   13bbb     C3  367   1.456   6.154   3.184 -0.3453  0.1203 -0.1797
   13bbb     H5  368   1.497   6.052   3.183  1.6754  0.7893  2.3545
   13bbb     H6  369   1.364   6.150   3.242  0.3796  1.3424  1.1187
   13bbb     C4  370   1.557   6.230   3.267  0.0212  0.4034  0.3913
   13bbb     H7  371   1.516   6.319   3.315 -1.8181  0.3404 -0.9454
   13bbb     H8  372   1.637   6.255   3.197 -0.3129 -1.8186 -0.8827
   13bbb     C5  373   1.528   6.259   2.816  0.1568  0.1284  1.6205
   13bbb     H9  374   1.431   6.246   2.766  0.4571  1.7672  0.5562
   13bbb    H10  375   1.610   6.228   2.750 -2.0061 -0.2831 -1.0366
   13bbb     C6  376   1.166   6.226   3.044 -0.6497  0.0374 -0.0905
   13bbb    H11  377   1.181   6.334   3.053  0.0585 -0.1585  1.3394
   13bbb    H12  378   1.157   6.199   3.150  1.6558 -0.0079  0.1288
   13bbb     C7  379   1.606   6.143   3.381  0.1278 -0.2065 -0.3289
   13bbb    H13  380   1.520   6.127   3.448  0.1259  2.8410  0.5598
   13bbb    H14  381   1.685   6.199   3.433 -0.0972 -1.1140  1.0262
   13bbb     C8  382   1.041   6.180   2.969  0.6862  0.8825 -0.3988
   13bbb    H15  383   1.063   6.110   2.888  0.7328 -1.3293  1.4274
   13bbb    H16  384   0.974   6.126   3.037  1.8773 -2.0796 -1.4129
   13bbb     C9  385   1.534   6.414   2.830  0.6810 -0.5728 -0.1701
   13bbb    H17  386   1.544   6.466   2.734  0.7562  1.0918  0.6959
   13bbb    H18  387   1.619   6.445   2.891 -1.3719 -0.1605  2.7288
   13bbb     O1  388   1.657   6.016   3.323  0.0808  0.0833  0.4398
   13bbb    H19  389   1.420   6.309   3.040  2.5657 -0.4310 -1.9632
   14bbb     N1  390   2.310   6.451   3.523  0.4343 -0.7290  0.0910
   14bbb     C1  391   2.417   6.532   3.446  0.7922 -0.2078 -0.2267
   14bbb     H1  392   2.493   6.562   3.519 -1.3159  1.0935  1.5794
   14bbb     H2  393   2.372   6.621   3.402 -1.3958 -1.0080  0.2541
   14bbb     C2  394   2.256   6.540   3.638  0.1316  0.1077 -0.4478
   14bbb     H3  395   2.166   6.490   3.675  0.1418  0.1055 -0.4251
   14bbb     H4  396   2.225   6.634   3.593 -0.2626  0.1826 -0.0218
   14bbb     C3  397   2.187   6.403   3.437  1.0669  0.0437 -0.0648
   14bbb     H5  398   2.214   6.323   3.367 -1.5431 -0.9941  0.0207
   14bbb     H6  399   2.154   6.480   3.367 -0.4426 -1.3760 -0.9722
   14bbb     C4  400   2.071   6.339   3.506  0.1880  0.6630  1.5692
   14bbb     H7  401   2.029   6.421   3.566 -1.9278  0.3661  0.5859
   14bbb     H8  402   2.090   6.269   3.587  0.8073  0.1002  0.9559
   14bbb     C5  403   2.465   6.453   3.326 -0.3364  0.0544 -0.1062
   14bbb     H9  404   2.379   6.414   3.271 -0.7123 -1.4085  1.4295
   14bbb    H10  405   2.519   6.362   3.358  1.3897  1.1118  0.1151
   14bbb     C6  406   2.357   6.574   3.755  0.1012  0.9728  0.4003
   14bbb    H11  407   2.432   6.643   3.716  0.7238  1.6073  2.5489
   14bbb    H12  408   2.390   6.476   3.791 -0.4513  0.8759  0.6671
   14bbb     C7  409   1.963   6.284   3.411  0.2622  0.2884  0.1046
   14bbb    H13  410   1.934   6.354   3.331 -1.2388  0.5038  0.7965
   14bbb    H14  411   1.875   6.278   3.476  1.0408 -1.2369  1.0623
   14bbb     C8  412   2.294   6.659   3.871 -0.3154 -0.2872 -0.3962
   14bbb    H15  413   2.247   6.749   3.831 -2.5124 -1.3609 -0.3758
   14bbb    H16  414   2.214   6.597   3.914 -0.9607 -0.1157 -1.3304
   14bbb     C9  415   2.550   6.533   3.235  0.2035  0.6540 -0.4056
   14bbb    H17  416   2.609   6.463   3.175  2.0960  1.1658  0.7549
   14bbb    H18  417   2.632   6.577   3.294  2.4422 -0.1903 -2.7341
   14bbb     O1  418   1.995   6.145   3.362  0.5443  0.0632  0.5155
   14bbb    H19  419   2.349   6.365   3.563 -1.2271 -1.9869 -0.8798
   15bbb     N1  420  -0.015   2.762   4.283 -0.0845  0.8269 -0.2069
   15bbb     C1  421   0.118   2.685   4.283  0.7253  0.4221  0.2174
   15bbb     H1  422   0.175   2.731   4.364  1.4483 -0.5034  0.2528
   15bbb     H2  423   0.172   2.701   4.190  1.5654  0.1207  0.6460
   15bbb     C2  424  -0.108   2.714   4.173  0.9876  0.3877 -0.2704
   15bbb     H3  425  -0.203   2.766   4.191  0.1420 -1.0401 -0.4383
   15bbb     H4  426  -0.116   2.607   4.189  1.3719  0.7618  3.3656
   15bbb     C3  427  -0.076   2.755   4.427 -0.0523 -0.2883 -0.6038
   15bbb     H5  428  -0.061   2.652   4.458 -0.3409 -0.6903 -1.7352
   15bbb     H6  429  -0.181   2.783   4.436  0.0494 -0.0502 -0.1134
   15bbb     C4  430  -0.004   2.839   4.535  0.4916  0.2577 -0.1407
   15bbb     H7  431   0.099   2.803   4.547  0.7368  0.8276 -0.4632
   15bbb     H8  432  -0.052   2.823   4.632 -2.1109  0.2709 -1.3207
   15bbb     C5  433   0.118   2.531   4.308  0.1525  0.2019  0.2583
   15bbb     H9  434   0.124   2.481   4.211 -0.7268  0.2732  0.1555
   15bbb    H10  435   0.021   2.508   4.354  0.2208  0.3343  0.4695
   15bbb     C6  436  -0.079   2.744   4.024 -0.1644  0.0816 -0.0164
   15bbb    H11  437  -0.021   2.836   4.016  1.3608 -0.5088  2.7256
   15bbb    H12  438  -0.176   2.759   3.976 -0.4754 -0.8239  0.3008
   15bbb     C7  439  -0.007   2.994   4.522 -0.2490  0.2071  0.0544
   15bbb    H13  440   0.041   3.016   4.618 -1.6150 -4.3150  2.0467
   15bbb    H14  441  -0.113   3.022   4.515 -1.4058 -2.9705  2.5559
   15bbb     C8  442   0.002   2.622   3.954  0.2372 -0.4926  0.0797
   15bbb    H15  443   0.025   2.652   3.852  0.2385 -1.0678 -0.0929
   15bbb    H16  444   0.099   2.605   4.002  1.0680 -0.4218 -1.5310
   15bbb     C9  445   0.243   2.488   4.396  0.0087 -0.0969 -0.0960
   15bbb    H17  446   0.271   2.578   4.453 -0.5867  0.2422 -0.3230
   15bbb    H18  447   0.332   2.480   4.333  0.5901 -0.0666  0.6961
   15bbb     O1  448   0.081   3.027   4.412 -0.3104  0.2677  0.1473
   15bbb    H19  449   0.005   2.861   4.261 -0.1888  0.2271 -3.6421
   16bbb     N1  450   0.492   2.993   3.416 -0.4007  0.0110  1.1657
   16bbb     C1  451   0.629   3.007   3.347  0.0859  0.2159  0.3242
   16bbb     H1  452   0.663   2.912   3.306 -1.8242 -0.2425 -0.3131
   16bbb     H2  453   0.706   3.047   3.412  0.9749  2.1148 -1.7870
   16bbb     C2  454   0.394   2.928   3.324  0.0711 -0.7602  0.6086
   16bbb     H3  455   0.421   2.822   3.331  1.9482 -0.4109 -0.6788
   16bbb     H4  456   0.410   2.969   3.224 -1.5944  1.3470  1.1492
   16bbb     C3  457   0.506   2.912   3.544  0.1735 -1.3313 -0.3145
   16bbb     H5  458   0.606   2.872   3.560  0.4892  0.4004  2.9199
   16bbb     H6  459   0.421   2.844   3.555 -1.1259  0.4317  1.0650
   16bbb     C4  460   0.474   3.001   3.664 -0.8534  0.2015 -1.0157
   16bbb     H7  461   0.381   3.057   3.651 -1.0129  0.1180 -0.2611
   16bbb     H8  462   0.555   3.075   3.667 -2.0352  1.5053  0.9540
   16bbb     C5  463   0.630   3.100   3.223 -0.8024 -0.2970  0.1349
   16bbb     H9  464   0.596   3.199   3.254 -1.4989 -0.0409 -1.3370
   16bbb    H10  465   0.569   3.077   3.134  0.5293  0.2192 -0.9549
   16bbb     C6  466   0.241   2.962   3.357  0.0009 -0.6114 -0.8330
   16bbb    H11  467   0.227   3.070   3.360 -0.1989 -0.6385 -0.8302
   16bbb    H12  468   0.212   2.930   3.458  1.5706  4.2453  1.4513
   16bbb     C7  469   0.472   2.914   3.795  0.2318  0.2456  0.0268
   16bbb    H13  470   0.558   2.846   3.798  0.6799  0.7374 -1.0638
   16bbb    H14  471   0.381   2.853   3.789 -2.1427  3.6600 -2.3356
   16bbb     C8  472   0.143   2.895   3.258 -0.1214  0.2713  0.1673
   16bbb    H15  473   0.149   2.786   3.268  0.8245  0.2168 -0.8121
   16bbb    H16  474   0.041   2.928   3.281 -0.4154  0.3520 -1.1528
   16bbb     C9  475   0.784   3.110   3.175 -0.2053  0.5845  0.4622
   16bbb    H17  476   0.841   3.170   3.247  0.0250 -0.7704  1.4494
   16bbb    H18  477   0.780   3.152   3.074 -2.3720  1.7870  0.9708
   16bbb     O1  478   0.459   3.007   3.906 -0.0275 -0.4687 -0.0999
   16bbb    H19  479   0.465   3.092   3.425  0.6807  0.2509  2.0205
   17bbb     N1  480  -1.169   4.208   4.035 -0.0999  0.3330 -0.5456
   17bbb     C1  481  -1.143   4.277   3.903  0.3900 -0.1523  0.4601
   17bbb     H1  482  -1.034   4.276   3.895  0.3735 -1.8462 -0.0093
   17bbb     H2  483  -1.182   4.377   3.922 -1.3118 -0.9589  1.5175
   17bbb     C2  484  -1.314   4.148   4.043 -0.4321 -0.2417 -0.2587
   17bbb     H3  485  -1.307   4.048   4.000 -0.0739 -0.7359  0.9094
   17bbb     H4  486  -1.386   4.206   3.984  0.1416 -1.6710 -2.4833
   17bbb     C3  487  -1.068   4.096   4.061  0.2526  0.3930 -0.2717
   17bbb     H5  488  -1.063   4.039   3.968 -2.0963 -1.7118  0.7612
   17bbb     H6  489  -1.107   4.030   4.140  1.6534 -1.7642 -1.2816
   17bbb     C4  490  -0.925   4.140   4.110  0.3642  0.2810  0.2631
   17bbb     H7  491  -0.927   4.191   4.206 -0.7562 -0.3268  0.5892
   17bbb     H8  492  -0.888   4.212   4.036 -0.1666 -1.0141 -1.3310
   17bbb     C5  493  -1.197   4.206   3.777 -0.1495 -0.0073 -0.6266
   17bbb     H9  494  -1.304   4.181   3.776  0.2326 -1.9272  0.6387
   17bbb    H10  495  -1.147   4.109   3.764  1.3072  0.4635  1.0149
   17bbb     C6  496  -1.367   4.131   4.185 -0.5505 -0.0612 -0.3860
   17bbb    H11  497  -1.308   4.071   4.255 -0.5552  0.5377  0.1463
   17bbb    H12  498  -1.461   4.075   4.176 -0.0703 -0.8167 -0.7594
   17bbb     C7  499  -0.834   4.013   4.123 -0.3389  0.1574 -0.6414
   17bbb    H13  500  -0.793   4.000   4.022 -0.3298  0.2523 -0.6507
   17bbb    H14  501  -0.893   3.926   4.155 -0.5235  0.7639  0.7807
   17bbb     C8  502  -1.406   4.272   4.238 -0.0860  0.4105  0.2754
   17bbb    H15  503  -1.481   4.326   4.179  1.0900  1.3965 -0.3503
   17bbb    H16  504  -1.450   4.256   4.338 -1.3710  0.9815 -0.1783
   17bbb     C9  505  -1.180   4.296   3.652  0.4598  0.6665  0.7040
   17bbb    H17  506  -1.078   4.334   3.637  0.2579  1.1149  0.4568
   17bbb    H18  507  -1.249   4.377   3.674  0.5434  0.7649  0.6033
   17bbb     O1  508  -0.723   4.044   4.212 -0.1861  0.1467 -0.0332
   17bbb    H19  509  -1.158   4.277   4.110  2.5674  1.0170 -1.4486
   18bbb     N1  510  -1.033   4.161   5.008 -0.3246  0.3641  0.3941
   18bbb     C1  511  -1.112   4.234   4.896  0.2791  0.4386 -0.6107
   18bbb     H1  512  -1.211   4.260   4.933  0.9301  0.9583  0.8467
   18bbb     H2  513  -1.132   4.168   4.811  0.4003  0.0437 -0.3333
   18bbb     C2  514  -1.126   4.080   5.098 -0.4669 -0.7876  0.8568
   18bbb     H3  515  -1.060   4.022   5.163  1.1251 -0.7692 -0.7079
   18bbb     H4  516  -1.179   4.010   5.033 -2.2817  0.5059  0.8452
   18bbb     C3  517  -0.920   4.080   4.940  0.0213 -0.3498  0.7520
   18bbb     H5  518  -0.868   4.155   4.880 -1.6134  1.7634  1.8322
   18bbb     H6  519  -0.976   4.009   4.881  1.4684 -0.6650 -0.2964
   18bbb     C4  520  -0.805   4.012   5.018  0.0198  0.0432 -0.3175
   18bbb     H7  521  -0.842   3.910   5.038 -0.5641  0.1882 -0.6544
   18bbb     H8  522  -0.793   4.061   5.115 -1.3748 -0.0103 -0.1073
   18bbb     C5  523  -1.034   4.356   4.842  1.1588  0.1938  0.0994
   18bbb     H9  524  -1.114   4.424   4.812 -0.3754 -0.6004  2.1832
   18bbb    H10  525  -0.976   4.314   4.758 -0.4828  0.2397 -1.1016
   18bbb     C6  526  -1.224   4.172   5.180 -0.1933 -0.4248 -0.2953
   18bbb    H11  527  -1.290   4.109   5.241 -1.5213 -0.4246 -1.6604
   18bbb    H12  528  -1.291   4.233   5.118 -2.3830 -1.6728  0.7177
   18bbb     C7  529  -0.671   3.984   4.951 -0.3363  0.0840 -0.6800
   18bbb    H13  530  -0.607   3.915   5.008  2.5816  1.0730 -2.5150
   18bbb    H14  531  -0.611   4.075   4.949 -0.1778  0.0445  1.1517
   18bbb     C8  532  -1.162   4.263   5.287 -0.2942  0.6452 -0.1741
   18bbb    H15  533  -1.092   4.338   5.249 -0.4533  0.3642 -1.0396
   18bbb    H16  534  -1.237   4.315   5.348  1.4617  1.3476  1.4774
   18bbb     C9  535  -0.952   4.441   4.938  0.0830 -0.0207  0.5223
   18bbb    H17  536  -0.912   4.530   4.888  0.6273 -0.6288 -0.1602
   18bbb    H18  537  -0.861   4.382   4.959  0.0704  0.0438  0.7532
   18bbb     O1  538  -0.679   3.930   4.821 -0.0789 -0.1783  0.6402
   18bbb    H19  539  -0.999   4.229   5.077 -0.4374  1.6906 -0.7990
   19bbb     N1  540   2.916   3.989   6.041 -0.4678  0.2249 -0.0084
   19bbb     C1  541   2.994   4.091   6.126  0.2643  0.3175  0.0358
   19bbb     H1  542   2.918   4.147   6.180  0.8142 -0.1884  1.3606
   19bbb     H2  543   3.039   4.157   6.051 -2.6043  4.5769  1.7012
   19bbb     C2  544   2.835   3.894   6.135  0.4677  0.2604  0.6241
   19bbb     H3  545   2.737   3.942   6.146  0.2499 -0.0816  0.2102
   19bbb     H4  546   2.890   3.895   6.229  0.5171  0.4996  0.5929
   19bbb     C3  547   2.815   4.045   5.935  0.4170  0.6638 -0.1356
   19bbb     H5  548   2.744   4.119   5.972  0.0208  0.5770 -0.7172
   19bbb     H6  549   2.752   3.966   5.894  0.8633  0.6197 -0.7437
   19bbb     C4  550   2.880   4.119   5.815 -0.8316 -0.6841 -0.2061
   19bbb     H7  551   2.955   4.048   5.777 -1.1136 -1.8851  1.3433
   19bbb     H8  552   2.933   4.210   5.848  0.6390 -1.2787 -0.8363
   19bbb     C5  553   3.104   4.044   6.227  0.7893 -0.2781  0.1619
   19bbb     H9  554   3.175   3.975   6.180  0.1963  0.1998 -1.5173
   19bbb    H10  555   3.057   3.989   6.309  2.0167 -2.2404 -0.3721
   19bbb     C6  556   2.820   3.749   6.096 -0.0089 -0.4300 -0.4122
   19bbb    H11  557   2.769   3.740   5.999 -0.9610 -0.5424  0.0925
   19bbb    H12  558   2.760   3.696   6.171  1.5404 -1.7368 -0.0398
   19bbb     C7  559   2.779   4.150   5.693 -0.8127  0.1777  0.2611
   19bbb    H13  560   2.759   4.048   5.658  0.8994 -0.7153  1.6784
   19bbb    H14  561   2.832   4.205   5.615 -1.7258 -0.3153 -0.7191
   19bbb     C8  562   2.953   3.684   6.104  0.0974 -0.2103 -0.3288
   19bbb    H15  563   3.000   3.710   6.200 -0.7054 -3.1208  0.9794
   19bbb    H16  564   2.946   3.575   6.113  0.6876 -0.4100 -2.0195
   19bbb     C9  565   3.168   4.167   6.295  0.1784 -0.6028 -0.0940
   19bbb    H17  566   3.204   4.151   6.398  0.2540 -2.9706 -0.4408
   19bbb    H18  567   3.078   4.230   6.300  0.0500 -0.8476  0.9318
   19bbb     O1  568   2.655   4.206   5.746 -0.5536 -0.2404  0.0529
   19bbb    H19  569   2.993   3.938   5.995  0.6979  0.5325  1.5168
   20bbb     N1  570   1.788   4.496   6.571 -0.2765  0.7184 -0.2921
   20bbb     C1  571   1.893   4.582   6.634 -0.3025  0.5079  0.1162
   20bbb     H1  572   1.879   4.685   6.599 -0.2914  0.3233 -0.4314
   20bbb     H2  573   1.988   4.554   6.589 -1.1245 -1.3305 -0.5304
   20bbb     C2  574   1.663   4.572   6.537 -0.1309  0.3306  0.5325
   20bbb     H3  575   1.638   4.618   6.633 -1.1430  0.3305  0.2854
   20bbb     H4  576   1.583   4.499   6.522  0.9112 -1.4432  2.9507
   20bbb     C3  577   1.847   4.445   6.439  0.7460  0.3270  0.0463
   20bbb     H5  578   1.878   4.527   6.375  0.5105 -0.4291 -1.0749
   20bbb     H6  579   1.768   4.404   6.376  0.8940  1.6252 -1.0291
   20bbb     C4  580   1.965   4.344   6.452 -0.0038  0.6947  0.6900
   20bbb     H7  581   1.946   4.253   6.510 -2.2286  0.2845 -0.6066
   20bbb     H8  582   2.053   4.396   6.494  0.0767 -0.6701  2.3392
   20bbb     C5  583   1.888   4.595   6.787 -0.4627 -0.2061  0.5548
   20bbb     H9  584   1.787   4.620   6.822 -0.3870 -2.2829  2.4196
   20bbb    H10  585   1.959   4.666   6.829  1.3917 -2.1070  0.7908
   20bbb     C6  586   1.660   4.681   6.423 -0.3752  0.7539  0.1474
   20bbb    H11  587   1.669   4.636   6.324  0.0277  0.4807  0.3051
   20bbb    H12  588   1.748   4.745   6.424  1.4320 -1.5982 -0.3047
   20bbb     C7  589   2.013   4.299   6.302 -0.0147 -0.0138 -0.4922
   20bbb    H13  590   1.938   4.227   6.268 -0.5958  0.0994  0.4866
   20bbb    H14  591   2.112   4.253   6.297  0.4748  1.0898 -1.1747
   20bbb     C8  592   1.532   4.765   6.423  0.0755 -0.1622 -0.0455
   20bbb    H15  593   1.538   4.838   6.342  1.9138 -3.3420 -3.0509
   20bbb    H16  594   1.441   4.707   6.403 -0.9841  1.6298 -0.6612
   20bbb     C9  595   1.937   4.465   6.847  0.1724  0.0682  0.5443
   20bbb    H17  596   1.917   4.471   6.955 -2.5410  1.5855  0.0607
   20bbb    H18  597   2.043   4.452   6.826  0.6626  1.6226  1.7807
   20bbb     O1  598   2.011   4.408   6.211  0.6924  0.4208 -0.8693
   20bbb    H19  599   1.767   4.419   6.636  2.6548 -0.6235 -0.7825
   21bbb     N1  600   1.969   6.108   6.061 -0.2435  0.6558 -0.4921
   21bbb     C1  601   1.880   6.230   6.093 -0.3843 -0.7539  0.5570
   21bbb     H1  602   1.904   6.253   6.197  1.6925 -0.5856  0.0828
   21bbb     H2  603   1.774   6.207   6.095 -0.6230  0.3418  1.9536
   21bbb     C2  604   1.912   5.991   6.142  0.4232 -0.1505  0.3983
   21bbb     H3  605   1.957   5.899   6.107  1.3906 -0.1879  1.6800
   21bbb     H4  606   1.805   5.987   6.122  0.4650 -1.5961  0.3934
   21bbb     C3  607   1.964   6.075   5.910  0.9241  0.2499  0.4124
   21bbb     H5  608   1.951   6.167   5.852  0.1559 -0.8194 -1.1930
   21bbb     H6  609   1.875   6.019   5.881  1.0489  0.4134 -0.3236
   21bbb     C4  610   2.081   5.995   5.844  0.6548  1.1204  0.9452
   21bbb     H7  611   2.164   6.054   5.883  1.3302 -0.7116  2.4678
   21bbb     H8  612   2.080   6.003   5.735  0.7623 -1.3177  0.7021
   21bbb     C5  613   1.899   6.360   6.011  0.3524  0.3839 -0.3524
   21bbb     H9  614   1.857   6.347   5.911 -1.0008 -1.5499  0.4138
   21bbb    H10  615   2.007   6.376   5.999  0.3282  1.1592  0.4002
   21bbb     C6  616   1.929   6.018   6.293 -0.0738 -0.0085  0.0318
   21bbb    H11  617   1.882   5.939   6.353 -1.6027  2.4474  2.2742
   21bbb    H12  618   1.872   6.102   6.335 -0.2097 -1.2006  2.4138
   21bbb     C7  619   2.101   5.850   5.898  0.1690 -0.6609  0.0346
   21bbb    H13  620   2.154   5.854   5.994  0.6219  1.7421 -0.2517
   21bbb    H14  621   2.168   5.796   5.830 -1.3811 -0.6095 -1.5983
   21bbb     C8  622   2.076   6.036   6.341  1.2488  0.2337  0.2733
   21bbb    H15  623   2.073   6.059   6.448 -2.5798  1.2986  0.0722
   21bbb    H16  624   2.125   5.938   6.334  0.6528 -0.0979  0.6767
   21bbb     C9  625   1.832   6.477   6.101 -0.1019  0.4800  0.2674
   21bbb    H17  626   1.724   6.463   6.109 -0.1220  0.3794 -0.1653
   21bbb    H18  627   1.845   6.572   6.048  0.6177  1.4570  2.1059
   21bbb     O1  628   1.969   5.783   5.915 -0.1545 -0.5497 -0.4985
   21bbb    H19  629   2.063   6.123   6.099 -0.5919 -1.9186  1.7795
   22bbb     N1  630   1.118   6.112   5.611 -0.0226  0.0607  0.5916
   22bbb     C1  631   1.022   6.023   5.528  0.2902  0.1161  0.4806
   22bbb     H1  632   1.004   6.083   5.438 -0.0386  0.4387  0.7543
   22bbb     H2  633   0.923   6.015   5.574 -0.4113  1.7472 -0.6255
   22bbb     C2  634   1.037   6.240   5.643 -0.2429 -0.7211  0.8695
   22bbb     H3  635   0.966   6.224   5.724 -0.5719 -0.8672  0.5561
   22bbb     H4  636   0.984   6.266   5.552  2.4569  1.3001 -0.2516
   22bbb     C3  637   1.164   6.031   5.734  0.0768  0.2952  0.2984
   22bbb     H5  638   1.231   5.952   5.702  1.5015  1.3790  0.4829
   22bbb     H6  639   1.077   5.991   5.786  0.4897  1.2439  1.8089
   22bbb     C4  640   1.257   6.113   5.832 -0.0351  0.5335 -0.2220
   22bbb     H7  641   1.192   6.173   5.897  0.2230  1.1083 -0.4876
   22bbb     H8  642   1.334   6.175   5.784 -0.2723  1.3735  0.4594
   22bbb     C5  643   1.078   5.887   5.482 -0.0888 -0.1362  0.1237
   22bbb     H9  644   1.018   5.849   5.398  2.3205  1.1312 -2.3274
   22bbb    H10  645   1.061   5.826   5.572  2.1609  3.6703  3.4771
   22bbb     C6  646   1.115   6.362   5.676  0.4309 -0.3056 -0.4616
   22bbb    H11  647   1.109   6.431   5.590 -0.8773  1.0039  0.6261
   22bbb    H12  648   1.220   6.332   5.687  2.0752  4.9346  1.3481
   22bbb     C7  649   1.344   6.021   5.921 -0.4239  0.0248  0.0607
   22bbb    H13  650   1.278   5.971   5.993  1.0724 -3.2660 -0.6558
   22bbb    H14  651   1.419   6.065   5.987  1.5805 -0.5424 -1.7277
   22bbb     C8  652   1.058   6.435   5.802  0.2283 -0.0450 -0.4409
   22bbb    H15  653   1.073   6.375   5.893  1.0980  0.6381 -0.1203
   22bbb    H16  654   1.108   6.533   5.811 -1.0181  0.6115 -0.4173
   22bbb     C9  655   1.218   5.880   5.421  0.2224 -0.2954 -0.7026
   22bbb    H17  656   1.228   5.779   5.379 -2.2392 -0.5815 -0.7915
   22bbb    H18  657   1.304   5.883   5.488  0.8802  1.1110 -1.5625
   22bbb     O1  658   1.422   5.927   5.847 -0.1526 -0.4592 -0.6469
   22bbb    H19  659   1.189   6.137   5.540 -1.1367 -0.2270 -0.6750
   23bbb     N1  660   3.006   4.229   2.616  0.3535  0.5585 -0.4583
   23bbb     C1  661   3.099   4.183   2.724 -0.0320 -0.4194 -0.0808
   23bbb     H1  662   3.185   4.250   2.715 -1.0372  1.5362  3.2358
   23bbb     H2  663   3.131   4.081   2.699  0.1615  0.0275 -1.7633
   23bbb     C2  664   3.068   4.194   2.481 -0.6871 -0.1583  0.4593
   23bbb     H3  665   2.989   4.216   2.410 -0.2482  2.2040  0.6179
   23bbb     H4  666   3.092   4.088   2.483 -1.7884 -0.5661 -2.6998
   23bbb     C3  667   2.866   4.180   2.638  0.4345  0.0403  0.8982
   23bbb     H5  668   2.844   4.210   2.741  1.2344 -1.5562  1.5792
   23bbb     H6  669   2.863   4.072   2.619 -0.0942 -0.2299  2.3106
   23bbb     C4  670   2.763   4.240   2.534 -0.1675  0.3526  0.4233
   23bbb     H7  671   2.800   4.214   2.434  0.1086 -0.4437  0.7232
   23bbb     H8  672   2.774   4.349   2.528  0.7275  0.2772  0.6262
   23bbb     C5  673   3.046   4.191   2.867 -0.3091  0.6773  0.0569
   23bbb     H9  674   2.967   4.117   2.886  1.1268 -1.0044 -0.1390
   23bbb    H10  675   3.006   4.292   2.874 -2.4622 -0.2103  1.6426
   23bbb     C6  676   3.191   4.284   2.434  0.5265  0.0223  0.1503
   23bbb    H11  677   3.278   4.264   2.498 -0.1008 -0.4049  0.9002
   23bbb    H12  678   3.169   4.391   2.436 -0.9117 -0.2457  0.1905
   23bbb     C7  679   2.619   4.196   2.558  0.1303 -0.2652  0.8202
   23bbb    H13  680   2.603   4.090   2.536 -0.7137  0.6985 -4.8457
   23bbb    H14  681   2.546   4.246   2.493  0.4532 -0.4022  0.3428
   23bbb     C8  682   3.232   4.261   2.289 -0.0098  0.0221  0.1926
   23bbb    H15  683   3.257   4.157   2.264 -1.6029  0.1690 -2.3447
   23bbb    H16  684   3.144   4.281   2.227 -0.2998 -0.7300  0.3468
   23bbb     C9  685   3.167   4.170   2.962  0.2029 -0.1201  0.3219
   23bbb    H17  686   3.205   4.067   2.960  0.1604 -0.1241 -0.8402
   23bbb    H18  687   3.136   4.190   3.066 -1.5826 -1.0591  0.0175
   23bbb     O1  688   2.576   4.221   2.693  0.4095 -0.1033  0.2764
   23bbb    H19  689   3.013   4.330   2.636 -0.4412  0.3596  0.8828
   24bbb     N1  690   2.776   4.472   3.638  0.5823  0.0960 -0.3575
   24bbb     C1  691   2.677   4.491   3.744 -0.0802  0.5360  0.5635
   24bbb     H1  692   2.657   4.395   3.793  2.0334 -0.0187  0.4491
   24bbb     H2  693   2.586   4.524   3.694  0.4572 -0.3138 -1.0400
   24bbb     C2  694   2.919   4.451   3.690  0.9655 -0.1406 -0.3907
   24bbb     H3  695   2.933   4.521   3.772 -1.1017  1.0614 -0.9933
   24bbb     H4  696   2.990   4.476   3.611 -1.2238 -1.0804 -2.7848
   24bbb     C3  697   2.739   4.352   3.556 -0.4288 -0.5703 -0.4555
   24bbb     H5  698   2.714   4.269   3.622 -3.3877  0.0524 -0.6312
   24bbb     H6  699   2.822   4.324   3.490 -0.0369 -1.3034  0.3302
   24bbb     C4  700   2.611   4.376   3.470 -0.3635 -0.7897 -0.2987
   24bbb     H7  701   2.626   4.458   3.399 -0.3430 -1.1723 -0.7412
   24bbb     H8  702   2.527   4.400   3.536 -2.3427 -0.6190 -2.7378
   24bbb     C5  703   2.716   4.587   3.859  0.0593 -0.3039  0.5546
   24bbb     H9  704   2.738   4.691   3.832  1.1880 -0.9371 -1.1360
   24bbb    H10  705   2.810   4.557   3.907  1.1645  1.0844 -0.6408
   24bbb     C6  706   2.953   4.307   3.744  0.3737 -0.2370  0.3216
   24bbb    H11  707   2.930   4.228   3.673  1.0798 -1.4518  1.3989
   24bbb    H12  708   2.884   4.296   3.829 -2.0764 -0.8964 -1.6236
   24bbb     C7  709   2.568   4.254   3.391  0.1827  0.0357  0.7724
   24bbb    H13  710   2.548   4.172   3.461  0.1899 -1.3151 -0.7320
   24bbb    H14  711   2.642   4.222   3.316 -1.1987  3.3905 -2.2779
   24bbb     C8  712   3.097   4.309   3.790 -0.6464 -0.3575 -0.1759
   24bbb    H15  713   3.117   4.212   3.837 -1.5699  0.3160  1.6956
   24bbb    H16  714   3.168   4.318   3.707  1.0746  2.6567  1.4340
   24bbb     C9  715   2.601   4.580   3.959  0.3197 -1.0735 -0.1798
   24bbb    H17  716   2.580   4.476   3.985  0.5815 -1.3144 -0.8883
   24bbb    H18  717   2.517   4.632   3.912  0.0215  0.3937  1.8425
   24bbb     O1  718   2.444   4.294   3.331 -0.1438 -0.1823 -0.4171
   24bbb    H19  719   2.772   4.560   3.585  1.0787 -0.6438 -1.6974
   25bbb     N1  720   1.904   4.893   1.605 -0.2496 -0.7179  0.2841
   25bbb     C1  721   1.919   4.740   1.625  0.3636  0.1400  0.1103
   25bbb     H1  722   1.897   4.692   1.529 -0.6122  1.9075 -0.6008
   25bbb     H2  723   1.831   4.701   1.677 -1.4981  0.8361 -2.2978
   25bbb     C2  724   1.784   4.924   1.511  0.1154 -0.3144 -0.8470
   25bbb     H3  725   1.692   4.910   1.568 -0.5200  0.2265 -1.7026
   25bbb     H4  726   1.784   4.865   1.419 -0.3990  0.0116 -1.0604
   25bbb     C3  727   1.900   4.972   1.742 -0.1769  1.1799  0.0729
   25bbb     H5  728   1.910   5.078   1.717  0.2419  1.1417  0.0754
   25bbb     H6  729   1.999   4.945   1.779 -0.9941  0.7862  2.0978
   25bbb     C4  730   1.792   4.934   1.841  0.2642 -0.2860 -0.5609
   25bbb     H7  731   1.795   4.832   1.882 -2.2619  0.4035  1.6138
   25bbb     H8  732   1.696   4.940   1.789  0.6569 -1.6418 -1.5000
   25bbb     C5  733   2.046   4.676   1.688 -0.3535  0.6371 -0.1534
   25bbb     H9  734   2.006   4.583   1.731  0.0085  0.6061  0.1206
   25bbb    H10  735   2.097   4.734   1.765 -0.8461  0.6035  0.2039
   25bbb     C6  736   1.791   5.071   1.470  0.5274  0.3852  0.3179
   25bbb    H11  737   1.876   5.092   1.404  0.4810  4.5497  1.3077
   25bbb    H12  738   1.819   5.140   1.551 -2.2977  0.0469  1.6893
   25bbb     C7  739   1.780   5.029   1.959 -0.2594 -0.5267  0.1040
   25bbb    H13  740   1.682   5.021   2.006  0.0418 -1.6626  0.5708
   25bbb    H14  741   1.806   5.130   1.924  0.4762 -0.0209  2.0242
   25bbb     C8  742   1.662   5.127   1.405  0.1811  0.2717  0.3370
   25bbb    H15  743   1.672   5.121   1.296  0.5380  0.9080  0.3351
   25bbb    H16  744   1.577   5.063   1.434 -1.7126  2.2525 -0.5425
   25bbb     C9  745   2.153   4.643   1.580  0.2057 -0.6418 -0.6626
   25bbb    H17  746   2.248   4.622   1.631 -0.1746 -0.9516 -0.0631
   25bbb    H18  747   2.161   4.739   1.527 -0.8676  0.4111  0.9757
   25bbb     O1  748   1.879   4.999   2.060 -0.1627  0.9367  0.7282
   25bbb    H19  749   1.987   4.924   1.553 -1.1348  1.3178  0.0081
   26bbb     N1  750   2.677   5.178   2.068 -0.6846  0.4289 -0.2678
   26bbb     C1  751   2.576   5.214   1.958 -0.4365  0.2036  0.3821
   26bbb     H1  752   2.482   5.253   1.998 -0.4075  1.2075 -0.5064
   26bbb     H2  753   2.555   5.116   1.915 -1.0720  0.1568  0.7850
   26bbb     C2  754   2.687   5.293   2.160 -0.0750 -0.2780 -0.1590
   26bbb     H3  755   2.607   5.289   2.233  1.6727 -0.0484  1.8691
   26bbb     H4  756   2.679   5.389   2.109  1.9195 -0.0487 -0.1373
   26bbb     C3  757   2.637   5.064   2.158  0.0767 -0.0057 -0.4754
   26bbb     H5  758   2.532   5.072   2.186 -0.0057 -1.6331 -0.1908
   26bbb     H6  759   2.703   5.061   2.245  0.4694 -1.0195 -0.7905
   26bbb     C4  760   2.644   4.921   2.100 -0.0363 -0.1439  0.1266
   26bbb     H7  761   2.751   4.905   2.086  0.2461  2.1639 -0.7630
   26bbb     H8  762   2.600   4.921   2.000  0.1678  3.3352 -0.0786
   26bbb     C5  763   2.622   5.311   1.844  0.4438  0.0377  0.0821
   26bbb     H9  764   2.731   5.305   1.838  0.6073 -0.1046  2.4404
   26bbb    H10  765   2.579   5.407   1.874  0.6941  0.3449 -0.5292
   26bbb     C6  766   2.811   5.288   2.253  0.1587 -0.4586 -0.1745
   26bbb    H11  767   2.809   5.203   2.322 -0.7213 -2.7570 -2.8510
   26bbb    H12  768   2.805   5.379   2.315  2.6755 -0.6211  0.3931
   26bbb     C7  769   2.584   4.823   2.198  0.5076 -0.0233 -0.9980
   26bbb    H13  770   2.632   4.827   2.297 -0.0589 -2.0434 -0.5787
   26bbb    H14  771   2.600   4.720   2.164  0.9401 -0.1389 -0.4725
   26bbb     C8  772   2.937   5.293   2.170 -0.0172  0.1798 -0.1757
   26bbb    H15  773   2.965   5.187   2.159  2.1156  0.3866  2.1920
   26bbb    H16  774   2.909   5.336   2.073  0.5249 -0.1951 -0.5056
   26bbb     C9  775   2.560   5.261   1.708  0.1678  0.6239 -0.0428
   26bbb    H17  776   2.452   5.273   1.722  0.2776  3.5637 -0.9850
   26bbb    H18  777   2.581   5.157   1.680  1.0663  0.9941 -0.8143
   26bbb     O1  778   2.433   4.843   2.204  0.4222  0.1709 -0.6465
   26bbb    H19  779   2.770   5.160   2.026 -2.2002  0.1232 -3.8780
   27bbb     N1  780   0.540   6.067   2.796 -0.1290 -0.2665 -0.1796
   27bbb     C1  781   0.593   5.926   2.831 -0.1637  0.1278  0.3375
   27bbb     H1  782   0.603   5.916   2.939  0.0990 -1.3805  0.1933
   27bbb     H2  783   0.688   5.907   2.780 -1.1679 -2.5858 -0.6996
   27bbb     C2  784   0.463   6.132   2.914 -0.6152  0.4097 -0.6945
   27bbb     H3  785   0.535   6.157   2.992 -0.3901 -2.1961  0.0438
   27bbb     H4  786   0.398   6.051   2.949 -1.0264  0.0115 -2.2787
   27bbb     C3  787   0.659   6.168   2.752  0.7966  0.1381 -0.0788
   27bbb     H5  788   0.619   6.267   2.728 -1.6118 -0.8835 -0.6591
   27bbb     H6  789   0.709   6.123   2.666 -1.2893 -2.0608 -0.2571
   27bbb     C4  790   0.763   6.189   2.861 -0.5518  0.0383 -0.2535
   27bbb     H7  791   0.798   6.097   2.908 -1.0650  0.4201  0.8990
   27bbb     H8  792   0.710   6.234   2.946 -2.4918 -0.1531 -1.2958
   27bbb     C5  793   0.511   5.800   2.788  1.1242  0.2615  0.0733
   27bbb     H9  794   0.577   5.715   2.810  2.3824  1.0421 -0.5883
   27bbb    H10  795   0.490   5.798   2.681 -1.5018 -1.3006  0.5325
   27bbb     C6  796   0.377   6.254   2.885  0.2697  0.5763 -0.3710
   27bbb    H11  797   0.296   6.228   2.816  0.2392 -1.4192  0.3543
   27bbb    H12  798   0.433   6.333   2.833  1.2692 -1.6191 -2.8644
   27bbb     C7  799   0.883   6.284   2.819 -0.4324 -0.0501 -0.4215
   27bbb    H13  800   0.846   6.383   2.787  1.4009  1.2506  1.2446
   27bbb    H14  801   0.935   6.247   2.730  2.4203  0.4644  0.9289
   27bbb     C8  802   0.303   6.307   3.014 -0.1790 -0.2372  0.8483
   27bbb    H15  803   0.235   6.237   3.066 -0.1228  0.5840  2.0734
   27bbb    H16  804   0.374   6.347   3.087  0.9118  0.2388 -0.4401
   27bbb     C9  805   0.384   5.784   2.877 -0.1052  0.8243 -0.7081
   27bbb    H17  806   0.413   5.802   2.981  1.2333  2.7431 -1.3405
   27bbb    H18  807   0.340   5.684   2.869  0.7232  0.5222 -1.6753
   27bbb     O1  808   0.978   6.303   2.924  0.3186 -0.2354  0.6458
   27bbb    H19  809   0.476   6.054   2.716 -0.2694  0.8701 -0.2744
   28bbb     N1  810   1.313   6.828   2.657  0.1310  0.0707 -0.6046
   28bbb     C1  811   1.459   6.847   2.602  1.1063  0.4012  0.3813
   28bbb     H1  812   1.473   6.765   2.532  2.2121 -1.0933  2.2489
   28bbb     H2  813   1.528   6.831   2.685  2.5227 -1.8018 -1.1209
   28bbb     C2  814   1.210   6.821   2.552  0.1918 -0.2175  0.3328
   28bbb     H3  815   1.223   6.722   2.508  3.0515  0.7569 -1.2454
   28bbb     H4  816   1.238   6.888   2.471  0.2108 -1.1251 -0.4396
   28bbb     C3  817   1.306   6.704   2.751  0.4818  0.2348  0.1618
   28bbb     H5  818   1.298   6.617   2.687 -1.1085  0.7837 -0.4366
   28bbb     H6  819   1.207   6.712   2.797 -1.3521  2.3127 -3.6206
   28bbb     C4  820   1.410   6.697   2.865  0.1254 -0.2043 -0.6504
   28bbb     H7  821   1.404   6.790   2.923  0.7600  0.4772 -1.6395
   28bbb     H8  822   1.512   6.705   2.825  0.9161  0.0302  1.2990
   28bbb     C5  823   1.473   6.991   2.541 -0.4020  0.9968 -0.0442
   28bbb     H9  824   1.432   7.063   2.613 -2.1533 -1.2758  1.3809
   28bbb    H10  825   1.414   7.002   2.449  1.5783 -0.1994 -1.5284
   28bbb     C6  826   1.068   6.848   2.597  0.0245 -0.1638  1.2218
   28bbb    H11  827   1.068   6.935   2.664  2.3800  1.2635 -0.4581
   28bbb    H12  828   1.030   6.760   2.649  2.0858 -0.3229  2.5802
   28bbb     C7  829   1.395   6.574   2.959 -0.3552  0.6472 -0.4604
   28bbb    H13  830   1.298   6.583   3.010 -0.6169 -0.2455 -0.7883
   28bbb    H14  831   1.470   6.571   3.038 -0.8588 -1.4460 -0.0050
   28bbb     C8  832   0.983   6.887   2.477  0.4211  0.2587 -0.1644
   28bbb    H15  833   0.969   6.803   2.407 -4.1412  1.4337 -0.9707
   28bbb    H16  834   0.885   6.912   2.518  0.4505 -1.1136  0.8119
   28bbb     C9  835   1.624   7.023   2.507  0.3164  0.9313 -0.6480
   28bbb    H17  836   1.676   7.026   2.604  1.0619  0.5388 -1.0313
   28bbb    H18  837   1.635   7.122   2.460  1.6399  0.0768 -2.2393
   28bbb     O1  838   1.407   6.442   2.889  0.5030 -0.3506 -1.0052
   28bbb    H19  839   1.298   6.914   2.711 -0.5750  1.6237 -3.1316
   29bbb     N1  840   2.661   6.747   4.329  0.1750 -0.4375 -0.0955
   29bbb     C1  841   2.668   6.668   4.453 -0.9063 -0.3541 -0.4035
   29bbb     H1  842   2.772   6.652   4.483 -0.4471 -1.2180 -2.3042
   29bbb     H2  843   2.635   6.565   4.439  3.1429 -1.8406 -0.4326
   29bbb     C2  844   2.782   6.704   4.248  0.0176  0.3283 -0.1469
   29bbb     H3  845   2.761   6.703   4.140 -1.0005 -1.3146  0.0262
   29bbb     H4  846   2.805   6.600   4.268  0.1708  0.5497  0.8633
   29bbb     C3  847   2.531   6.723   4.251  0.1925 -0.0497 -0.3552
   29bbb     H5  848   2.447   6.719   4.320  0.1065 -0.4986 -0.4827
   29bbb     H6  849   2.535   6.627   4.200  1.8727  0.1026 -0.5736
   29bbb     C4  850   2.494   6.836   4.154 -0.1564  0.4132  0.0439
   29bbb     H7  851   2.586   6.866   4.102  0.8096 -0.5316  1.1448
   29bbb     H8  852   2.461   6.918   4.219  0.7434  1.5420 -0.8485
   29bbb     C5  853   2.589   6.734   4.572  0.4921 -0.7911 -1.2072
   29bbb     H9  854   2.587   6.666   4.657  3.1211  0.4082 -0.0532
   29bbb    H10  855   2.485   6.760   4.550 -0.3721 -1.4001  1.7794
   29bbb     C6  856   2.908   6.785   4.277 -0.9031 -0.6833  0.6141
   29bbb    H11  857   2.873   6.879   4.322  0.0650  0.2108 -0.4455
   29bbb    H12  858   2.945   6.806   4.176  1.3731 -0.3911  1.4567
   29bbb     C7  859   2.371   6.795   4.064 -0.0491 -0.3571  0.1704
   29bbb    H13  860   2.333   6.881   4.007  0.3995 -1.0668 -1.2520
   29bbb    H14  861   2.299   6.764   4.141  0.3007 -0.0438  0.6230
   29bbb     C8  862   3.008   6.732   4.380  0.1221 -0.1681  0.0430
   29bbb    H15  863   3.095   6.798   4.393 -1.0846  1.3442  0.7492
   29bbb    H16  864   2.950   6.744   4.472 -1.1923 -0.0842 -0.7717
   29bbb     C9  865   2.664   6.856   4.617  0.3026 -0.0887  0.2640
   29bbb    H17  866   2.771   6.833   4.623  0.8308  1.5174 -1.8719
   29bbb    H18  867   2.631   6.897   4.714  0.0958  1.0299 -0.2608
   29bbb     O1  868   2.399   6.685   3.977 -0.2326 -0.3995  1.0956
   29bbb    H19  869   2.665   6.846   4.357  0.4587 -0.2158 -0.8913
   30bbb     N1  870   2.284   6.941   2.893  0.4507 -0.4773 -0.5508
   30bbb     C1  871   2.316   7.007   2.753 -0.1361  0.0078 -0.3236
   30bbb     H1  872   2.423   7.026   2.751  0.0806 -1.0445  0.2385
   30bbb     H2  873   2.262   7.101   2.762  0.6614  0.4674 -0.2140
   30bbb     C2  874   2.136   6.913   2.897 -0.4929  0.4799 -0.2118
   30bbb     H3  875   2.107   6.821   2.845 -1.5417  0.6748  0.0110
   30bbb     H4  876   2.078   6.988   2.843 -0.9959  0.4281  0.2551
   30bbb     C3  877   2.357   6.812   2.912 -0.0408  0.5445 -0.0244
   30bbb     H5  878   2.412   6.780   2.823 -0.0488  0.2225  0.0848
   30bbb     H6  879   2.293   6.728   2.941 -0.0562 -0.0346 -1.6127
   30bbb     C4  880   2.468   6.832   3.024 -0.3765 -0.1107  0.7112
   30bbb     H7  881   2.420   6.879   3.111 -1.6980 -0.9483  0.4632
   30bbb     H8  882   2.536   6.913   2.997 -1.8759  2.0200  2.9141
   30bbb     C5  883   2.269   6.926   2.631 -0.1610  0.4041 -0.1329
   30bbb     H9  884   2.160   6.915   2.630 -0.1306 -0.0224  0.7310
   30bbb    H10  885   2.316   6.827   2.632  2.2397  1.4158 -2.1999
   30bbb     C6  886   2.086   6.928   3.037  0.0262 -0.3864 -0.3577
   30bbb    H11  887   2.144   6.875   3.114  1.6623  0.2659 -1.1006
   30bbb    H12  888   1.988   6.882   3.053  0.3348 -1.1878 -0.6845
   30bbb     C7  889   2.546   6.709   3.062  0.2493  0.5580 -0.2570
   30bbb    H13  890   2.643   6.735   3.106  0.1266 -0.1163  0.4358
   30bbb    H14  891   2.562   6.654   2.968  2.0743 -0.5187  0.6342
   30bbb     C8  892   2.062   7.077   3.064 -0.7206 -0.3865  0.1407
   30bbb    H15  893   2.022   7.124   2.974  2.1844 -0.0104 -1.0542
   30bbb    H16  894   1.999   7.096   3.152 -1.2350  0.8484 -0.4736
   30bbb     C9  895   2.313   7.006   2.508  0.0817 -0.1562  0.4452
   30bbb    H17  896   2.288   7.112   2.518  1.7644  0.4277 -0.9545
   30bbb    H18  897   2.248   6.968   2.428  0.7666  0.5907 -0.4942
   30bbb     O1  898   2.472   6.633   3.166 -0.1751  0.4929 -0.0140
   30bbb    H19  899   2.306   7.003   2.972 -0.7774  0.9015 -1.2457
   31bbb     N1  900  -0.369   2.206   3.934 -0.1141  0.4078 -0.2677
   31bbb     C1  901  -0.456   2.283   4.023  0.0661 -0.5726 -0.1036
   31bbb     H1  902  -0.540   2.215   4.039  1.1500 -1.9067  0.0929
   31bbb     H2  903  -0.476   2.380   3.976  0.1115  1.2170  3.2401
   31bbb     C2  904  -0.446   2.149   3.809 -0.7452 -0.2550 -0.4637
   31bbb     H3  905  -0.487   2.233   3.753  0.1884 -0.2339 -1.1443
   31bbb     H4  906  -0.530   2.088   3.842 -0.7482 -0.1774 -0.3282
   31bbb     C3  907  -0.257   2.298   3.877  0.1927  0.4554  0.1418
   31bbb     H5  908  -0.283   2.389   3.931  4.4935  1.4642  0.8445
   31bbb     H6  909  -0.271   2.302   3.768 -0.8670 -0.3364  0.2256
   31bbb     C4  910  -0.117   2.269   3.925 -0.0131  0.5058  0.1279
   31bbb     H7  911  -0.079   2.174   3.885 -0.7059  0.8915 -1.5591
   31bbb     H8  912  -0.110   2.260   4.034 -0.8647 -1.8069  0.0361
   31bbb     C5  913  -0.403   2.331   4.155 -0.2653  0.0680  0.4624
   31bbb     H9  914  -0.319   2.401   4.147  0.5870 -0.9777 -0.1883
   31bbb    H10  915  -0.354   2.245   4.204  0.1394 -1.0807 -1.8128
   31bbb     C6  916  -0.358   2.076   3.706  0.2809  0.7156  0.5921
   31bbb    H11  917  -0.299   1.999   3.758 -0.6676  1.1644  2.4336
   31bbb    H12  918  -0.283   2.139   3.659  0.0460  0.7014  0.1972
   31bbb     C7  919  -0.027   2.385   3.877  0.0681 -0.2943 -0.5167
   31bbb    H13  920  -0.033   2.408   3.769  1.3809  0.2318 -0.4949
   31bbb    H14  921   0.074   2.351   3.899 -0.0681 -0.7740 -0.6144
   31bbb     C8  922  -0.458   2.007   3.609 -0.2853  0.0768 -0.0008
   31bbb    H15  923  -0.500   2.084   3.543 -1.4194  0.0848  0.7062
   31bbb    H16  924  -0.401   1.942   3.541  0.1306 -1.9123  2.1098
   31bbb     C9  925  -0.517   2.395   4.249 -0.0030 -0.4409 -0.0262
   31bbb    H17  926  -0.479   2.465   4.324 -2.1672  0.2566  0.4878
   31bbb    H18  927  -0.566   2.313   4.303  2.1710 -1.5807  0.3524
   31bbb     O1  928  -0.073   2.503   3.954  0.3188 -0.8809 -0.5662
   31bbb    H19  929  -0.336   2.129   3.993 -2.0022  0.3788  0.8315
   32bbb     N1  930   0.262   1.998   4.795  0.1711 -0.0954  0.3506
   32bbb     C1  931   0.367   1.888   4.789  0.7240  0.3072  0.1034
   32bbb     H1  932   0.462   1.935   4.818  1.8846 -2.2545  0.7918
   32bbb     H2  933   0.384   1.863   4.684  1.6212  1.1955  0.0181
   32bbb     C2  934   0.248   2.057   4.930  1.1311  0.3697  0.0445
   32bbb     H3  935   0.195   1.984   4.991  0.0003  0.7104 -0.4969
   32bbb     H4  936   0.168   2.131   4.917 -0.0891 -1.1702 -1.8252
   32bbb     C3  937   0.311   2.102   4.689 -0.4224  0.5645 -0.2504
   32bbb     H5  938   0.325   2.034   4.605  1.2374 -0.1807  0.6057
   32bbb     H6  939   0.409   2.143   4.715  0.2210 -1.1492  0.1455
   32bbb     C4  940   0.214   2.221   4.654 -0.2732  0.3019  0.1473
   32bbb     H7  941   0.181   2.280   4.740  1.1920  0.9088  0.3249
   32bbb     H8  942   0.127   2.190   4.595 -1.3484  2.3482  0.5648
   32bbb     C5  943   0.340   1.756   4.866  0.1375  1.1590  0.2407
   32bbb     H9  944   0.249   1.701   4.838  1.4221 -0.5385 -0.7690
   32bbb    H10  945   0.321   1.789   4.969 -1.1597 -0.0433  0.4233
   32bbb     C6  946   0.369   2.117   4.995  0.1832  0.1562  0.4341
   32bbb    H11  947   0.389   2.219   4.962 -1.6999  1.3171  2.5654
   32bbb    H12  948   0.456   2.053   4.975  0.4682  0.8748 -0.6877
   32bbb     C7  949   0.288   2.335   4.584 -0.4620 -0.1109  0.0002
   32bbb    H13  950   0.377   2.289   4.540  0.0675  1.7650 -1.0112
   32bbb    H14  951   0.321   2.416   4.650 -0.5728  0.4455 -0.6139
   32bbb     C8  952   0.344   2.114   5.144 -0.4490  0.0994 -0.6647
   32bbb    H15  953   0.259   2.177   5.172 -0.9923 -0.6751 -0.5764
   32bbb    H16  954   0.299   2.021   5.178  2.2039 -0.5994  1.1892
   32bbb     C9  955   0.459   1.656   4.865  0.3231  0.1856 -0.1802
   32bbb    H17  956   0.548   1.700   4.911 -1.7643  3.6525  0.9615
   32bbb    H18  957   0.478   1.644   4.758  1.0291 -1.5691  0.1099
   32bbb     O1  958   0.205   2.373   4.470 -0.2011  0.1421  0.9381
   32bbb    H19  959   0.174   1.955   4.763 -1.2253  3.9308 -1.9260
   33bbb     N1  960   0.245   3.142   2.743  0.2308  0.1701 -0.6245
   33bbb     C1  961   0.326   3.045   2.663 -0.4896  0.3398 -0.4907
   33bbb     H1  962   0.361   3.099   2.574  1.7642 -0.1857  0.0243
   33bbb     H2  963   0.256   2.963   2.642 -1.1047 -0.1146  2.8514
   33bbb     C2  964   0.122   3.176   2.661  0.6890 -0.3556  0.4077
   33bbb     H3  965   0.066   3.083   2.650  0.1897  0.0533 -0.5799
   33bbb     H4  966   0.150   3.197   2.558 -1.8575 -1.8418 -0.6951
   33bbb     C3  967   0.210   3.078   2.881  0.6581  0.4771 -0.1019
   33bbb     H5  968   0.139   3.140   2.935 -0.2336 -1.9461  1.7197
   33bbb     H6  969   0.301   3.082   2.941  1.6857 -0.9994 -1.4539
   33bbb     C4  970   0.143   2.939   2.884 -0.5053  0.1815  0.2332
   33bbb     H7  971   0.221   2.869   2.852  0.0246  0.5330  0.7359
   33bbb     H8  972   0.060   2.941   2.812 -1.6370  0.9857  1.5249
   33bbb     C5  973   0.452   3.003   2.728 -0.1697  0.0424  0.2027
   33bbb     H9  974   0.433   2.943   2.818  0.7167 -1.7184 -0.7134
   33bbb    H10  975   0.511   3.081   2.779 -0.3979  0.6892 -0.5115
   33bbb     C6  976   0.028   3.290   2.715 -0.0946  0.2764  0.2447
   33bbb    H11  977   0.013   3.272   2.822 -0.2034  0.4175  0.2530
   33bbb    H12  978  -0.073   3.297   2.671  0.0901 -1.3796 -0.5313
   33bbb     C7  979   0.093   2.890   3.018 -0.2752 -0.4445 -0.2335
   33bbb    H13  980   0.094   2.780   3.018  0.7039 -0.4552 -1.7271
   33bbb    H14  981  -0.014   2.912   3.025 -0.0412  0.8420 -0.4922
   33bbb     C8  982   0.097   3.426   2.702  0.5773 -0.1165  0.1273
   33bbb    H15  983   0.047   3.501   2.764  0.8774 -0.4178  0.7368
   33bbb    H16  984   0.202   3.416   2.734  1.4831  1.6836 -2.0175
   33bbb     C9  985   0.532   2.902   2.652 -0.9007 -0.4536 -0.3506
   33bbb    H17  986   0.460   2.830   2.611 -0.7534 -1.3413  0.8799
   33bbb    H18  987   0.606   2.853   2.716  0.3093  0.9964 -0.5906
   33bbb     O1  988   0.168   2.940   3.129 -0.2445  0.4138  0.0763
   33bbb    H19  989   0.307   3.224   2.746  1.0200 -0.2996 -2.5633
   34bbb     N1  990   1.068   2.592   3.214  0.4719  0.5404  0.0900
   34bbb     C1  991   1.125   2.535   3.346 -0.2268 -0.3722 -0.4313
   34bbb     H1  992   1.148   2.431   3.325 -3.1040 -0.6716 -2.6712
   34bbb     H2  993   1.045   2.543   3.419 -2.5471 -0.1638 -2.8584
   34bbb     C2  994   0.953   2.505   3.174  0.6344  0.4883  0.0087
   34bbb     H3  995   0.882   2.560   3.112  1.5105  2.5061  0.7256
   34bbb     H4  996   0.905   2.479   3.269 -0.6532  0.1495 -0.7069
   34bbb     C3  997   1.028   2.732   3.222 -0.2859 -0.4245 -0.2980
   34bbb     H5  998   1.110   2.787   3.269 -0.3684 -1.6939  1.4064
   34bbb     H6  999   0.941   2.738   3.287 -0.7936 -2.1575 -0.7573
   34bbb     C4 1000   0.986   2.800   3.087 -0.0921  0.1904  0.0232
   34bbb     H7 1001   0.896   2.747   3.051 -1.0224  0.8018  1.3598
   34bbb     H8 1002   1.065   2.784   3.013  1.1080  1.3458  1.0050
   34bbb     C5 1003   1.255   2.606   3.399  0.7379 -0.0465 -0.2632
   34bbb     H9 1004   1.240   2.712   3.422  3.2264  0.0053  1.5062
   34bbb    H10 1005   1.330   2.618   3.320  0.2774  1.9205 -0.4544
   34bbb     C6 1006   1.001   2.378   3.094 -0.2134  0.0662 -0.1820
   34bbb    H11 1007   0.921   2.303   3.084 -1.8384  1.7008  0.0181
   34bbb    H12 1008   1.087   2.330   3.142 -1.3440 -1.8224  0.0994
   34bbb     C7 1009   0.966   2.951   3.095 -0.1647  0.0409  0.5709
   34bbb    H13 1010   0.964   2.989   2.993 -0.0050 -1.2562  0.0574
   34bbb    H14 1011   1.051   2.994   3.149  1.2950 -3.2767  1.2202
   34bbb     C8 1012   1.023   2.411   2.946 -0.1380 -0.0227  0.3593
   34bbb    H15 1013   1.069   2.327   2.893 -0.0335 -1.8396  3.1147
   34bbb    H16 1014   0.926   2.429   2.899 -2.6602 -4.7023  3.0398
   34bbb     C9 1015   1.313   2.530   3.515  0.4177  0.7603 -0.1532
   34bbb    H17 1016   1.229   2.504   3.581  0.3815 -0.8498 -0.7772
   34bbb    H18 1017   1.379   2.594   3.575  1.8987  0.1913 -1.1181
   34bbb     O1 1018   0.838   2.974   3.163  0.0887  0.0358  0.2759
   34bbb    H19 1019   1.137   2.584   3.138 -1.2456  0.8545 -1.5681
   35bbb     N1 1020  -1.552   4.695   4.091 -0.8012  0.0247 -0.5041
   35bbb     C1 1021  -1.566   4.837   4.146 -0.6594  0.3162 -0.0643
   35bbb     H1 1022  -1.571   4.901   4.059  2.5576 -1.1776 -1.5142
   35bbb     H2 1023  -1.470   4.858   4.195 -0.3927 -0.2554 -0.3311
   35bbb     C2 1024  -1.583   4.705   3.937 -0.3594  0.7517 -0.4922
   35bbb     H3 1025  -1.682   4.752   3.936 -0.8942  0.3696  5.0372
   35bbb     H4 1026  -1.591   4.600   3.908  0.9133  0.2909  0.7217
   35bbb     C3 1027  -1.425   4.628   4.123 -0.4290 -0.4592 -0.3270
   35bbb     H5 1028  -1.334   4.679   4.091 -0.1509 -1.4756 -1.2476
   35bbb     H6 1029  -1.436   4.542   4.056  0.4740  0.0707 -1.1963
   35bbb     C4 1030  -1.412   4.576   4.273  0.3721  0.3127  0.0988
   35bbb     H7 1031  -1.507   4.525   4.292  1.3629 -1.2402  1.1949
   35bbb     H8 1032  -1.417   4.665   4.337  0.2292 -0.3427  1.0191
   35bbb     C5 1033  -1.685   4.866   4.239 -0.1531  0.2667 -0.3365
   35bbb     H9 1034  -1.779   4.869   4.183 -0.0094  3.7279 -0.6335
   35bbb    H10 1035  -1.687   4.968   4.280 -1.1939 -0.0698  0.5125
   35bbb     C6 1036  -1.469   4.779   3.853 -0.0965  0.2959  0.2044
   35bbb    H11 1037  -1.372   4.726   3.846  0.2500  1.0906 -2.3386
   35bbb    H12 1038  -1.450   4.877   3.899  0.7143  1.7921 -3.0154
   35bbb     C7 1039  -1.294   4.486   4.317 -0.7093  0.4945  0.4994
   35bbb    H13 1040  -1.309   4.459   4.422 -2.2213 -0.5752  0.0563
   35bbb    H14 1041  -1.203   4.543   4.297  0.0130 -1.2178 -1.4939
   35bbb     C8 1042  -1.496   4.797   3.704 -0.6132 -0.5965  0.0319
   35bbb    H15 1043  -1.409   4.847   3.659  0.8254 -1.9248  1.2654
   35bbb    H16 1044  -1.501   4.704   3.646 -1.1417  2.3096 -5.2251
   35bbb     C9 1045  -1.702   4.770   4.361  0.0496 -0.6182  0.1045
   35bbb    H17 1046  -1.791   4.810   4.410  0.5153  1.8072 -0.8887
   35bbb    H18 1047  -1.617   4.775   4.431 -0.7351 -1.9919  1.1936
   35bbb     O1 1048  -1.290   4.361   4.239  0.1151  0.2530  0.0923
   35bbb    H19 1049  -1.622   4.637   4.139  2.3081 -1.1511  3.0050
   36bbb     N1 1050  -1.254   4.187   3.046 -0.0743  0.7980 -0.4176
   36bbb     C1 1051  -1.256   4.279   2.926  0.9089 -0.0258 -0.0236
   36bbb     H1 1052  -1.225   4.219   2.840  0.3335  0.6225 -0.7025
   36bbb     H2 1053  -1.180   4.356   2.941  1.5436  0.1333 -3.1898
   36bbb     C2 1054  -1.138   4.097   3.033 -0.2342 -0.5891  0.6391
   36bbb     H3 1055  -1.092   4.078   3.131  3.7521 -1.0190 -1.1382
   36bbb     H4 1056  -1.061   4.146   2.973  1.0358 -1.1480  1.7460
   36bbb     C3 1057  -1.252   4.272   3.174  0.0585  0.1386 -0.0983
   36bbb     H5 1058  -1.338   4.339   3.171  0.7947  1.1187  0.0720
   36bbb     H6 1059  -1.164   4.336   3.179 -0.2812  0.5234  1.5450
   36bbb     C4 1060  -1.267   4.188   3.298  0.2088  0.2386  0.0235
   36bbb     H7 1061  -1.196   4.104   3.296 -0.3159 -0.2012 -0.8354
   36bbb     H8 1062  -1.367   4.144   3.300 -0.2150  1.2227  1.2819
   36bbb     C5 1063  -1.391   4.359   2.899 -0.7067  0.7022  0.4806
   36bbb     H9 1064  -1.378   4.463   2.870  0.2973  0.7137  0.9494
   36bbb    H10 1065  -1.453   4.363   2.989 -0.1927  0.2772  0.8574
   36bbb     C6 1066  -1.166   3.961   2.951 -0.2889 -0.8847 -0.3641
   36bbb    H11 1067  -1.069   3.910   2.946 -0.9063 -2.0480 -0.9501
   36bbb    H12 1068  -1.186   3.982   2.845 -1.4586 -4.0826 -0.8937
   36bbb     C7 1069  -1.256   4.279   3.421 -0.1615 -0.1800 -0.0831
   36bbb    H13 1070  -1.351   4.334   3.428  0.4988  0.8080  1.3259
   36bbb    H14 1071  -1.171   4.346   3.402  0.3600 -1.5015 -2.9474
   36bbb     C8 1072  -1.274   3.867   3.007  0.8087  0.5368 -0.1603
   36bbb    H15 1073  -1.274   3.772   2.952 -0.2211  0.8343 -0.6856
   36bbb    H16 1074  -1.249   3.848   3.112 -1.1734  0.6701  0.3739
   36bbb     C9 1075  -1.476   4.288   2.794 -0.0907  0.6050  0.5855
   36bbb    H17 1076  -1.575   4.335   2.787  1.0003  2.9925  0.4232
   36bbb    H18 1077  -1.485   4.180   2.813  2.1884  0.1423 -0.6059
   36bbb     O1 1078  -1.227   4.208   3.540 -0.0749  0.3766 -0.1880
   36bbb    H19 1079  -1.337   4.127   3.040 -0.1212  0.0799  4.0753
   37bbb     N1 1080  -0.792   3.938   5.590  0.2060  0.1052  0.2850
   37bbb     C1 1081  -0.850   3.815   5.660 -0.2237 -0.2158 -0.0572
   37bbb     H1 1082  -0.904   3.859   5.744 -1.4051  2.1726 -1.9602
   37bbb     H2 1083  -0.768   3.755   5.699 -1.4972 -0.8814  1.7412
   37bbb     C2 1084  -0.704   3.896   5.477 -0.0146  0.5346  0.4171
   37bbb     H3 1085  -0.773   3.844   5.411 -2.1265  0.6128  2.4224
   37bbb     H4 1086  -0.637   3.824   5.525  0.3261  0.4067 -0.2430
   37bbb     C3 1087  -0.907   4.020   5.530 -0.5560 -0.4762 -0.1739
   37bbb     H5 1088  -0.998   3.989   5.580 -1.3659  0.5228 -0.9883
   37bbb     H6 1089  -0.929   3.995   5.426 -0.7329  0.0962 -0.2795
   37bbb     C4 1090  -0.894   4.170   5.529  0.2793  0.1583  0.2290
   37bbb     H7 1091  -0.815   4.216   5.470 -0.9968  2.4801  0.2234
   37bbb     H8 1092  -0.859   4.200   5.629  3.0237 -3.0276  0.3973
   37bbb     C5 1093  -0.940   3.729   5.580  0.1473 -0.4566 -0.2056
   37bbb     H9 1094  -0.880   3.651   5.532 -0.8779  0.4435 -3.1620
   37bbb    H10 1095  -0.999   3.786   5.507 -0.7174  1.9129  2.1850
   37bbb     C6 1096  -0.627   4.002   5.400  0.0177 -0.0702  0.1596
   37bbb    H11 1097  -0.687   4.089   5.369 -0.6064  1.0644  4.0137
   37bbb    H12 1098  -0.581   3.945   5.318 -1.7193 -1.0226 -0.2183
   37bbb     C7 1099  -1.030   4.229   5.500 -0.0518 -0.6208  0.8112
   37bbb    H13 1100  -1.015   4.336   5.482 -0.8628 -0.4526  1.0748
   37bbb    H14 1101  -1.104   4.207   5.578 -0.7343 -2.9871 -0.4051
   37bbb     C8 1102  -0.506   4.062   5.473  0.1118  0.6628  0.3996
   37bbb    H15 1103  -0.447   4.127   5.407 -0.2968 -0.4118 -1.0730
   37bbb    H16 1104  -0.530   4.126   5.559 -0.1705  0.6055  0.3648
   37bbb     C9 1105  -1.045   3.667   5.669  0.4224 -0.2978 -0.0586
   37bbb    H17 1106  -1.122   3.740   5.698  1.7290  0.5942  1.3471
   37bbb    H18 1107  -0.999   3.628   5.761 -0.4449  1.1728  1.0517
   37bbb     O1 1108  -1.086   4.170   5.372  0.2645  0.2688 -0.0835
   37bbb    H19 1109  -0.736   3.993   5.658  0.3067 -0.7222  0.8769
   38bbb     N1 1110  -1.262   4.814   5.244  0.1034  0.3874 -0.8554
   38bbb     C1 1111  -1.351   4.884   5.142 -0.4141 -0.4643 -0.3268
   38bbb     H1 1112  -1.285   4.939   5.074  1.7150 -1.0869  1.1365
   38bbb     H2 1113  -1.408   4.964   5.189  0.8118  0.9306 -1.1224
   38bbb     C2 1114  -1.360   4.753   5.344  0.2910 -0.1744 -0.1062
   38bbb     H3 1115  -1.394   4.658   5.302 -0.8745 -0.0411  0.4790
   38bbb     H4 1116  -1.451   4.814   5.351  1.1573  0.9934  1.5556
   38bbb     C3 1117  -1.190   4.715   5.165  0.0102 -0.1417 -0.3810
   38bbb     H5 1118  -1.152   4.762   5.074  0.7768 -1.0241 -0.5352
   38bbb     H6 1119  -1.264   4.645   5.128 -1.9250  1.0184  1.0994
   38bbb     C4 1120  -1.068   4.645   5.233  0.4971  0.5954  0.0404
   38bbb     H7 1121  -1.109   4.574   5.305 -0.6742  0.2633 -0.9063
   38bbb     H8 1122  -1.025   4.732   5.284  0.6220  0.7259 -0.2808
   38bbb     C5 1123  -1.456   4.806   5.062  0.6060  0.6098  0.2722
   38bbb     H9 1124  -1.494   4.725   5.125 -1.5451  2.4012  1.4358
   38bbb    H10 1125  -1.404   4.764   4.975 -1.4993  1.2590 -1.3602
   38bbb     C6 1126  -1.303   4.722   5.483 -0.6059 -0.5197 -0.2772
   38bbb    H11 1127  -1.225   4.646   5.473 -0.3970 -0.3916  0.3323
   38bbb    H12 1128  -1.381   4.685   5.550 -1.0106  0.3799 -0.2368
   38bbb     C7 1129  -0.971   4.582   5.128  0.0861 -0.0516 -0.7610
   38bbb    H13 1130  -0.877   4.553   5.176  0.1968  0.6581 -0.5370
   38bbb    H14 1131  -0.940   4.663   5.062 -0.9371 -0.7976 -2.2131
   38bbb     C8 1132  -1.245   4.854   5.543 -0.0557  0.2992 -0.2990
   38bbb    H15 1133  -1.327   4.926   5.535  0.8953  1.4297 -0.2408
   38bbb    H16 1134  -1.232   4.830   5.650 -0.6293 -0.1979 -0.3384
   38bbb     C9 1135  -1.579   4.888   5.020  0.1245 -0.5144 -0.1283
   38bbb    H17 1136  -1.647   4.830   4.956 -0.1558  1.4435 -1.6934
   38bbb    H18 1137  -1.547   4.972   4.957  1.6868 -1.2409 -0.3554
   38bbb     O1 1138  -1.032   4.473   5.048  0.0586 -0.2968 -0.1825
   38bbb    H19 1139  -1.194   4.878   5.287  0.9692 -0.3974 -1.0166
   39bbb     N1 1140   3.330   3.835   5.685  0.0194  0.3724 -0.4209
   39bbb     C1 1141   3.294   3.953   5.601 -0.4158 -0.5397  0.2886
   39bbb     H1 1142   3.373   3.988   5.535 -0.2820  3.8718  2.4784
   39bbb     H2 1143   3.287   4.040   5.666  0.1060 -1.3649  1.4891
   39bbb     C2 1144   3.480   3.842   5.732 -0.1260 -0.6282 -0.0495
   39bbb     H3 1145   3.476   3.868   5.838 -0.1512  1.7599 -0.5757
   39bbb     H4 1146   3.537   3.914   5.674  3.4030 -1.4569  2.0949
   39bbb     C3 1147   3.234   3.815   5.802  0.0522 -0.3738 -0.0999
   39bbb     H5 1148   3.132   3.825   5.765  0.1028 -0.4565 -0.2633
   39bbb     H6 1149   3.258   3.897   5.870 -0.9307  1.8038 -2.2597
   39bbb     C4 1150   3.252   3.685   5.886  0.0434  0.8665 -0.1926
   39bbb     H7 1151   3.356   3.682   5.920  0.4735 -0.7320 -1.4727
   39bbb     H8 1152   3.237   3.596   5.823 -0.1899  0.0919  0.9265
   39bbb     C5 1153   3.165   3.931   5.520  0.0209 -0.2176  0.2993
   39bbb     H9 1154   3.149   4.030   5.475  1.7177  0.8632  1.9032
   39bbb    H10 1155   3.080   3.921   5.588 -1.0346  0.0128 -0.9390
   39bbb     C6 1156   3.552   3.709   5.699  0.0859  0.4972 -0.5624
   39bbb    H11 1157   3.559   3.680   5.594 -0.8891  0.9369 -0.7566
   39bbb    H12 1158   3.497   3.626   5.744  0.8957  0.2609  0.0296
   39bbb     C7 1159   3.166   3.669   6.009 -0.3792  0.2693  0.2324
   39bbb    H13 1160   3.217   3.731   6.084 -1.2885 -0.1278  1.1992
   39bbb    H14 1161   3.164   3.564   6.041 -1.1553  0.3619  0.4884
   39bbb     C8 1162   3.697   3.703   5.752 -0.4660 -0.0876 -0.0541
   39bbb    H15 1163   3.716   3.730   5.857  2.4046  0.0314 -0.5283
   39bbb    H16 1164   3.729   3.599   5.739 -0.3040  0.0268 -0.5953
   39bbb     C9 1165   3.166   3.817   5.414  0.3815  0.2069  0.3397
   39bbb    H17 1166   3.234   3.839   5.330  1.8380 -0.3310  1.3487
   39bbb    H18 1167   3.064   3.799   5.377  1.2149 -2.1169 -1.0252
   39bbb     O1 1168   3.036   3.712   5.989 -0.1461  0.0709  0.6413
   39bbb    H19 1169   3.325   3.757   5.618 -0.6575 -1.8657  2.0551
   40bbb     N1 1170   3.671   4.283   6.505  0.4986  0.3070  0.3404
   40bbb     C1 1171   3.739   4.144   6.484 -0.4266 -0.2125  0.2446
   40bbb     H1 1172   3.659   4.073   6.465  0.0728 -1.4971  2.6051
   40bbb     H2 1173   3.794   4.112   6.573  1.3013 -3.2716 -1.7532
   40bbb     C2 1174   3.773   4.388   6.546  0.2964  0.1098  0.0710
   40bbb     H3 1175   3.830   4.417   6.457 -3.2141  0.1898 -2.3833
   40bbb     H4 1176   3.836   4.353   6.628  0.1026  0.1408  0.2339
   40bbb     C3 1177   3.591   4.325   6.389 -0.2196 -1.2218 -0.0879
   40bbb     H5 1178   3.656   4.324   6.302 -0.9850  0.9077 -0.7656
   40bbb     H6 1179   3.555   4.427   6.403 -1.2412 -1.8955  3.3514
   40bbb     C4 1180   3.449   4.249   6.367  0.4345  1.1405 -0.5440
   40bbb     H7 1181   3.403   4.243   6.467 -1.8767  2.2758 -1.4477
   40bbb     H8 1182   3.478   4.149   6.333  0.3164  1.4455 -1.5724
   40bbb     C5 1183   3.828   4.137   6.358  0.9279 -0.0095  0.1255
   40bbb     H9 1184   3.928   4.178   6.376 -0.8966  4.7202  0.7439
   40bbb    H10 1185   3.793   4.200   6.276 -0.6621 -0.7056  0.2303
   40bbb     C6 1186   3.713   4.521   6.589  0.5249  0.0405  0.2945
   40bbb    H11 1187   3.738   4.552   6.691 -1.0038 -0.0648  0.7231
   40bbb    H12 1188   3.604   4.511   6.593  0.6562 -1.6580  0.4077
   40bbb     C7 1189   3.358   4.312   6.262 -0.3933 -0.1078 -0.4447
   40bbb    H13 1190   3.421   4.347   6.181 -0.2979 -0.7831 -0.6710
   40bbb    H14 1191   3.311   4.398   6.312 -0.9030  0.7274 -2.2805
   40bbb     C8 1192   3.762   4.629   6.495 -0.4031  0.6872 -1.0996
   40bbb    H15 1193   3.729   4.596   6.396 -2.5066  0.0921 -0.2678
   40bbb    H16 1194   3.712   4.724   6.521 -0.2900 -0.1061  2.4780
   40bbb     C9 1195   3.834   3.993   6.311 -0.0208 -0.4870  0.1288
   40bbb    H17 1196   3.864   3.999   6.206 -0.6916  1.9974  0.0245
   40bbb    H18 1197   3.731   3.954   6.314  0.4927 -1.8619  0.7450
   40bbb     O1 1198   3.265   4.225   6.204  0.0770  0.3899  0.0686
   40bbb    H19 1199   3.603   4.275   6.582 -0.7380  0.8142 -0.6705
   41bbb     N1 1200   1.423   4.934   6.958 -0.5301  0.1652 -0.2154
   41bbb     C1 1201   1.418   4.821   7.064 -0.2755 -0.0257  0.0427
   41bbb     H1 1202   1.393   4.877   7.155  0.0366 -0.0527  0.1447
   41bbb     H2 1203   1.514   4.772   7.078 -0.6250 -1.2774 -1.6651
   41bbb     C2 1204   1.520   5.047   7.004 -0.0023  0.4030  0.3248
   41bbb     H3 1205   1.569   5.095   6.919 -0.4007  0.7582  0.2946
   41bbb     H4 1206   1.604   4.995   7.051  0.6309 -0.9188 -2.0854
   41bbb     C3 1207   1.471   4.880   6.821 -0.3723 -0.1258  0.5975
   41bbb     H5 1208   1.404   4.795   6.807 -1.3948  0.7138  0.2396
   41bbb     H6 1209   1.573   4.844   6.838 -0.1996  0.0555 -0.0184
   41bbb     C4 1210   1.472   4.988   6.712  0.3921 -0.1125 -0.3457
   41bbb     H7 1211   1.567   5.043   6.706  0.6408 -0.2776  1.5026
   41bbb     H8 1212   1.403   5.071   6.736  2.6366  2.3202 -1.7281
   41bbb     C5 1213   1.302   4.724   7.055 -0.1410  0.4273 -0.8759
   41bbb     H9 1214   1.321   4.645   7.129  0.3464 -0.6272 -2.0869
   41bbb    H10 1215   1.301   4.664   6.963 -0.4175 -1.3586  0.2495
   41bbb     C6 1216   1.461   5.150   7.102  0.2433  0.0595 -0.4198
   41bbb    H11 1217   1.404   5.099   7.181 -1.3898  3.0679  0.5492
   41bbb    H12 1218   1.396   5.226   7.056 -0.8168  0.5351  1.7111
   41bbb     C7 1219   1.445   4.934   6.573  0.3303 -0.3595 -0.0581
   41bbb    H13 1220   1.456   5.016   6.502 -0.5620  1.7061  2.0408
   41bbb    H14 1221   1.338   4.906   6.570 -0.6464  2.8971  0.5099
   41bbb     C8 1222   1.583   5.231   7.169  0.3608  0.6483 -0.2649
   41bbb    H15 1223   1.637   5.266   7.080 -0.5404  3.5229  0.2259
   41bbb    H16 1224   1.548   5.320   7.223  1.9572  0.8428  0.5331
   41bbb     C9 1225   1.171   4.795   7.086 -0.0430  0.1891  0.4809
   41bbb    H17 1226   1.187   4.849   7.180  1.1146 -1.2747  1.1717
   41bbb    H18 1227   1.093   4.718   7.092  0.7054 -0.7677 -1.1194
   41bbb     O1 1228   1.527   4.824   6.553 -0.0919  0.3691 -0.1465
   41bbb    H19 1229   1.325   4.963   6.955 -0.8973 -1.0591 -0.7048
   42bbb     N1 1230   1.674   3.927   6.788  0.2169  0.4488  0.2587
   42bbb     C1 1231   1.529   3.908   6.836 -0.6057  0.3707 -0.2476
   42bbb     H1 1232   1.531   3.907   6.945 -0.5745 -1.1062 -0.2412
   42bbb     H2 1233   1.497   3.807   6.811  1.5596 -1.1669  2.6613
   42bbb     C2 1234   1.675   3.897   6.642 -0.0425  0.5985 -0.1591
   42bbb     H3 1235   1.772   3.927   6.602 -0.3212  1.5613 -0.1422
   42bbb     H4 1236   1.589   3.953   6.605 -1.0829  0.6650  2.1848
   42bbb     C3 1237   1.729   4.065   6.820  0.7851  0.1501  0.0871
   42bbb     H5 1238   1.719   4.083   6.927 -0.1847  0.7034 -0.0955
   42bbb     H6 1239   1.664   4.138   6.772 -1.2503 -0.8941  1.1278
   42bbb     C4 1240   1.858   4.102   6.767 -0.3082 -0.0037 -0.4584
   42bbb     H7 1241   1.839   4.133   6.663 -2.5876 -0.2928 -0.1657
   42bbb     H8 1242   1.927   4.016   6.770  0.6463  0.7742  2.5086
   42bbb     C5 1243   1.425   4.019   6.800  0.0581 -0.0345 -0.2084
   42bbb     H9 1244   1.420   4.025   6.690 -2.2997 -2.0159 -0.2898
   42bbb    H10 1245   1.450   4.123   6.827 -2.9520  1.1742 -1.6086
   42bbb     C6 1246   1.663   3.742   6.610  0.1609 -0.2993 -0.7685
   42bbb    H11 1247   1.647   3.740   6.502 -0.3135  1.5299 -0.7642
   42bbb    H12 1248   1.580   3.695   6.663  1.0651 -0.2588  0.7472
   42bbb     C7 1249   1.933   4.223   6.831 -0.1727  0.5164 -0.1328
   42bbb    H13 1250   2.036   4.227   6.796 -0.0668 -0.2510  0.0676
   42bbb    H14 1251   1.941   4.211   6.939 -1.4721  2.0420  0.1743
   42bbb     C8 1252   1.791   3.670   6.646  0.2937  0.2529 -0.0959
   42bbb    H15 1253   1.788   3.565   6.617  0.0530  0.0355  0.7030
   42bbb    H16 1254   1.877   3.718   6.597  0.3024 -0.1319 -0.4568
   42bbb     C9 1255   1.298   3.981   6.862  0.7355 -0.0804  0.0243
   42bbb    H17 1256   1.283   3.874   6.844  1.4193 -0.0388 -0.8055
   42bbb    H18 1257   1.219   4.043   6.818  1.7040  0.8771 -0.4074
   42bbb     O1 1258   1.863   4.354   6.799  0.8064  0.3295  0.7239
   42bbb    H19 1259   1.736   3.858   6.831 -0.9395 -1.1713 -0.5486
   43bbb     N1 1260   2.603   6.337   6.169 -0.3554  0.0260  0.1583
   43bbb     C1 1261   2.746   6.314   6.209  0.3948  0.7779 -0.6218
   43bbb     H1 1262   2.776   6.238   6.136 -0.1397 -1.0625  0.9860
   43bbb     H2 1263   2.753   6.272   6.309 -0.6649  0.0873 -0.8167
   43bbb     C2 1264   2.599   6.374   6.019  0.2567  0.1289  0.0032
   43bbb     H3 1265   2.574   6.288   5.957 -0.2201  0.7609 -0.7050
   43bbb     H4 1266   2.699   6.413   5.998  1.0758 -1.8460  0.0700
   43bbb     C3 1267   2.514   6.207   6.192 -0.1095  0.0126 -0.2878
   43bbb     H5 1268   2.535   6.167   6.292  1.3424  0.1363 -0.5135
   43bbb     H6 1269   2.536   6.118   6.133 -0.9708 -1.0838  0.9726
   43bbb     C4 1270   2.357   6.234   6.194  0.0252 -0.7284 -0.0154
   43bbb     H7 1271   2.317   6.230   6.092  0.4511 -0.1416 -0.2128
   43bbb     H8 1272   2.328   6.332   6.232 -0.7958 -1.5167  1.4777
   43bbb     C5 1273   2.833   6.441   6.219  0.4277 -0.2854 -0.2324
   43bbb     H9 1274   2.872   6.443   6.321  1.4553  3.5137 -0.5440
   43bbb    H10 1275   2.775   6.534   6.217  0.3099 -0.1177  3.5627
   43bbb     C6 1276   2.499   6.484   5.989 -0.2491  0.5280 -0.1832
   43bbb    H11 1277   2.403   6.434   6.009  0.6605 -1.7165 -1.0586
   43bbb    H12 1278   2.493   6.497   5.880 -0.7985 -1.4861 -0.4493
   43bbb     C7 1279   2.286   6.129   6.286  0.1856  0.0984 -0.1266
   43bbb    H13 1280   2.306   6.133   6.393  1.2422 -0.8175 -0.2778
   43bbb    H14 1281   2.325   6.033   6.252 -0.3568 -0.4764  0.8383
   43bbb     C8 1282   2.522   6.613   6.066 -0.5149 -0.7307 -0.8560
   43bbb    H15 1283   2.439   6.680   6.040 -0.9442 -1.2515 -0.8554
   43bbb    H16 1284   2.526   6.600   6.174  1.7726 -3.2065 -1.1262
   43bbb     C9 1285   2.945   6.446   6.117  0.2810  0.2634  0.4796
   43bbb    H17 1286   3.032   6.506   6.148  2.6172 -3.1503  1.0620
   43bbb    H18 1287   2.901   6.491   6.026  0.3858 -0.4185  0.0884
   43bbb     O1 1288   2.144   6.130   6.261  0.3450  0.1244 -0.4016
   43bbb    H19 1289   2.565   6.415   6.224 -1.4917 -0.0360 -0.4998
   44bbb     N1 1290   1.566   6.632   6.565 -0.0077  0.1010  0.6328
   44bbb     C1 1291   1.582   6.656   6.714 -0.4333  0.3806 -0.1674
   44bbb     H1 1292   1.482   6.687   6.743 -0.2766  2.1470 -1.3762
   44bbb     H2 1293   1.646   6.742   6.731 -0.5632  0.7057 -1.2139
   44bbb     C2 1294   1.488   6.751   6.502 -0.0606  0.1296 -0.0655
   44bbb     H3 1295   1.505   6.756   6.394  2.0227  0.7520  0.2485
   44bbb     H4 1296   1.527   6.841   6.549 -0.6771  0.4767 -0.1986
   44bbb     C3 1297   1.713   6.645   6.510 -0.5602 -0.1870 -0.0345
   44bbb     H5 1298   1.777   6.569   6.555 -0.8412 -1.7172 -2.0583
   44bbb     H6 1299   1.753   6.743   6.535  2.7620 -1.4161 -0.0267
   44bbb     C4 1300   1.726   6.603   6.361 -0.8743 -0.1176  0.1780
   44bbb     H7 1301   1.672   6.680   6.305  0.6481  0.8003 -0.1015
   44bbb     H8 1302   1.666   6.513   6.341 -1.3217  0.4653 -1.2534
   44bbb     C5 1303   1.645   6.537   6.792 -0.5279  0.4848 -0.0162
   44bbb     H9 1304   1.744   6.502   6.761 -0.0961  1.1748  0.5673
   44bbb    H10 1305   1.575   6.452   6.785  2.1668 -1.7623 -1.9409
   44bbb     C6 1306   1.337   6.761   6.537  0.1750  0.3078  0.0780
   44bbb    H11 1307   1.284   6.854   6.512 -2.1427 -0.4648  1.7414
   44bbb    H12 1308   1.331   6.761   6.646  1.6728 -1.3118  0.2052
   44bbb     C7 1309   1.879   6.592   6.322 -0.2542 -0.3832  0.4668
   44bbb    H13 1310   1.946   6.578   6.408  0.1125 -0.0749  0.2343
   44bbb    H14 1311   1.909   6.687   6.277  0.6689 -1.0809 -0.4197
   44bbb     C8 1312   1.260   6.641   6.470 -0.2060  0.0426 -0.5506
   44bbb    H15 1313   1.198   6.683   6.390  2.1831  0.3397 -2.3784
   44bbb    H16 1314   1.341   6.574   6.439  1.3673  0.7672  1.7229
   44bbb     C9 1315   1.645   6.567   6.948 -0.5441 -0.2757  0.7708
   44bbb    H17 1316   1.632   6.471   6.999 -0.5879  0.0420  1.3666
   44bbb    H18 1317   1.554   6.627   6.966 -0.0518  0.9225 -0.5530
   44bbb     O1 1318   1.894   6.477   6.236  0.1798  0.0404 -0.3592
   44bbb    H19 1319   1.526   6.541   6.539  0.1463  0.4277 -0.8178
   45bbb     N1 1320   0.457   6.532   5.927 -0.1912  0.3253  0.3209
   45bbb     C1 1321   0.356   6.420   5.957  0.0810 -0.0992  0.1536
   45bbb     H1 1322   0.264   6.457   6.003 -1.1022 -3.4346  0.7364
   45bbb     H2 1323   0.394   6.356   6.037 -0.0729 -0.8405 -0.3607
   45bbb     C2 1324   0.456   6.648   6.025  0.0736  0.0798  0.5124
   45bbb     H3 1325   0.514   6.727   5.976  0.0797  0.9798  1.9383
   45bbb     H4 1326   0.516   6.618   6.111  0.9897  1.8522  0.5416
   45bbb     C3 1327   0.600   6.475   5.924 -0.3501  0.0633  0.3063
   45bbb     H5 1328   0.599   6.373   5.884 -2.0248  0.7886 -1.7336
   45bbb     H6 1329   0.639   6.464   6.025 -1.7003  0.5511  0.8923
   45bbb     C4 1330   0.703   6.558   5.844  0.3910 -0.5865  0.0217
   45bbb     H7 1331   0.686   6.665   5.863 -4.1229 -0.8340 -1.6336
   45bbb     H8 1332   0.686   6.542   5.737 -0.6645 -0.5838  0.1774
   45bbb     C5 1333   0.315   6.338   5.829  0.0917  0.4338  0.1176
   45bbb     H9 1334   0.274   6.242   5.862  1.4546  0.4808  2.1617
   45bbb    H10 1335   0.405   6.317   5.769 -0.1414 -1.3482  0.3503
   45bbb     C6 1336   0.317   6.702   6.073  0.0344  0.5360  0.1349
   45bbb    H11 1337   0.262   6.622   6.123 -2.3257  1.1017 -1.3387
   45bbb    H12 1338   0.258   6.710   5.981  0.3019  0.7392 -0.0215
   45bbb     C7 1339   0.853   6.520   5.881  0.2685 -0.1132  0.0644
   45bbb    H13 1340   0.855   6.451   5.966 -2.1758 -3.0658 -2.0644
   45bbb    H14 1341   0.903   6.612   5.914  2.3401 -0.3101 -2.2586
   45bbb     C8 1342   0.322   6.829   6.164 -0.4752 -0.6231  0.2339
   45bbb    H15 1343   0.386   6.803   6.249  1.6647 -0.2882 -1.2087
   45bbb    H16 1344   0.377   6.909   6.114 -1.0613 -0.3124  0.0718
   45bbb     C9 1345   0.198   6.398   5.753 -0.0654  0.0799  0.0942
   45bbb    H17 1346   0.109   6.402   5.817 -0.4120  0.9105 -0.4312
   45bbb    H18 1347   0.189   6.334   5.665  1.1916  1.7838 -1.3521
   45bbb     O1 1348   0.921   6.459   5.768  0.4684  0.4474 -0.7426
   45bbb    H19 1349   0.425   6.564   5.834 -0.4059 -1.8147 -0.3910
   46bbb     N1 1350   1.125   6.204   4.952 -0.1060 -0.2794 -0.1942
   46bbb     C1 1351   0.983   6.234   4.901  0.0572  0.7441  0.7595
   46bbb     H1 1352   0.990   6.319   4.832  1.0471  0.4688  0.5076
   46bbb     H2 1353   0.924   6.255   4.990  1.5286 -1.1977  2.2828
   46bbb     C2 1354   1.171   6.334   5.003  0.3722  0.1609 -1.0809
   46bbb     H3 1355   1.144   6.349   5.108 -0.2915  1.2764 -1.3971
   46bbb     H4 1356   1.114   6.408   4.947  0.7823  0.1261 -1.5443
   46bbb     C3 1357   1.120   6.105   5.060 -0.5218 -0.3319  0.1406
   46bbb     H5 1358   1.035   6.038   5.049  0.1380 -1.3602  1.0297
   46bbb     H6 1359   1.098   6.152   5.156  1.2531 -0.9122  0.8665
   46bbb     C4 1360   1.245   6.019   5.079  0.5080 -0.1464  0.1453
   46bbb     H7 1361   1.326   6.091   5.099  0.3988 -0.3600  1.3764
   46bbb     H8 1362   1.273   5.970   4.985  1.0324  1.9320 -0.8603
   46bbb     C5 1363   0.914   6.111   4.832  0.0493  0.0899 -0.0832
   46bbb     H9 1364   0.890   6.036   4.909 -2.7994  1.5726  0.6314
   46bbb    H10 1365   0.979   6.057   4.762  0.2793  0.1441  0.0853
   46bbb     C6 1366   1.323   6.358   4.993  0.2227 -0.1969  0.3237
   46bbb    H11 1367   1.335   6.432   4.913  1.9126 -2.0893 -1.2892
   46bbb    H12 1368   1.383   6.278   4.949  2.0571  0.6577  1.1936
   46bbb     C7 1369   1.249   5.910   5.183  1.0716 -0.2860  0.8242
   46bbb    H13 1370   1.345   5.859   5.168  0.4895 -1.3125  0.4698
   46bbb    H14 1371   1.166   5.841   5.163  0.9895 -0.0547  0.3415
   46bbb     C8 1372   1.385   6.412   5.122  0.1228  0.1335 -0.3538
   46bbb    H15 1373   1.331   6.493   5.171 -0.6059 -0.5089 -0.0688
   46bbb    H16 1374   1.396   6.331   5.196  0.5598  1.3652  0.9797
   46bbb     C9 1375   0.779   6.138   4.766  0.4350 -0.4235  0.1262
   46bbb    H17 1376   0.704   6.176   4.836 -1.3690 -0.1847 -1.8155
   46bbb    H18 1377   0.733   6.045   4.729 -1.0859  1.1644 -2.2919
   46bbb     O1 1378   1.232   5.971   5.314  0.1764  0.2458  0.0930
   46bbb    H19 1379   1.174   6.159   4.873 -0.4849 -1.4630  0.2338
   47bbb     N1 1380   3.356   4.455   1.761  0.5672 -0.0496 -0.4363
   47bbb     C1 1381   3.359   4.608   1.775  0.4756  0.3280  0.1625
   47bbb     H1 1382   3.392   4.649   1.679  1.3090 -1.7492 -0.4909
   47bbb     H2 1383   3.438   4.641   1.844  0.7638  0.5706 -0.2757
   47bbb     C2 1384   3.423   4.422   1.635  0.2591  0.6530 -0.2980
   47bbb     H3 1385   3.371   4.468   1.551  1.2947  0.4702 -1.0525
   47bbb     H4 1386   3.405   4.314   1.630  0.4145  0.5906  0.3739
   47bbb     C3 1387   3.426   4.398   1.889  0.7908  0.1787 -0.3602
   47bbb     H5 1388   3.533   4.421   1.887  0.4848  1.8422  0.6170
   47bbb     H6 1389   3.420   4.289   1.878  1.6108  0.2416 -1.6011
   47bbb     C4 1390   3.380   4.440   2.031 -0.6726  0.5881 -0.1885
   47bbb     H7 1391   3.271   4.452   2.027 -0.5515  1.5351 -0.9127
   47bbb     H8 1392   3.424   4.535   2.063  0.9173 -0.0970 -0.2334
   47bbb     C5 1393   3.221   4.673   1.830  0.1907 -0.3171 -0.2908
   47bbb     H9 1394   3.182   4.608   1.910  0.7950 -0.4776 -0.1170
   47bbb    H10 1395   3.143   4.680   1.754 -1.1444  1.4764  1.1466
   47bbb     C6 1396   3.577   4.433   1.627 -0.7046 -0.1479  0.3697
   47bbb    H11 1397   3.627   4.397   1.718  1.1291 -0.1953 -0.6064
   47bbb    H12 1398   3.608   4.538   1.633  1.8724 -0.7279 -1.0092
   47bbb     C7 1399   3.423   4.332   2.134  0.4253  0.8224  0.5156
   47bbb    H13 1400   3.530   4.344   2.154  1.3215 -1.7709 -2.0551
   47bbb    H14 1401   3.410   4.240   2.076 -1.0741 -0.0115  2.0552
   47bbb     C8 1402   3.641   4.370   1.497 -0.1587  0.2939 -0.0170
   47bbb    H15 1403   3.607   4.422   1.407 -0.4674  1.0520  0.5248
   47bbb    H16 1404   3.748   4.393   1.505  0.2260 -1.3889 -0.0637
   47bbb     C9 1405   3.252   4.809   1.892  0.2598 -0.2740  0.2352
   47bbb    H17 1406   3.322   4.797   1.975 -0.2865  0.1394  0.7580
   47bbb    H18 1407   3.157   4.852   1.925 -0.3184 -1.7779  0.6280
   47bbb     O1 1408   3.343   4.351   2.257  0.0756 -0.3510 -0.1550
   47bbb    H19 1409   3.257   4.428   1.757  0.9703 -1.4638 -2.4618
   48bbb     N1 1410   3.609   3.985   2.803 -1.0751  0.1071  0.1896
   48bbb     C1 1411   3.524   3.863   2.815 -0.3540  0.3644  0.7127
   48bbb     H1 1412   3.459   3.872   2.728  1.1655  1.3992 -0.3701
   48bbb     H2 1413   3.466   3.887   2.904 -0.7076 -0.3210  0.6714
   48bbb     C2 1414   3.679   3.993   2.673 -0.0610  0.5980  0.1354
   48bbb     H3 1415   3.674   4.097   2.640 -2.7970  1.0877  1.8143
   48bbb     H4 1416   3.622   3.924   2.612  0.6434 -1.0662  1.2794
   48bbb     C3 1417   3.530   4.117   2.823 -0.2058  0.3457 -0.9360
   48bbb     H5 1418   3.439   4.120   2.761 -1.1406  2.2320  0.4171
   48bbb     H6 1419   3.595   4.198   2.789  0.2977 -1.0808 -3.6931
   48bbb     C4 1420   3.481   4.142   2.967 -0.5016 -0.6515  0.2228
   48bbb     H7 1421   3.573   4.153   3.027 -1.0817 -1.8326  1.3887
   48bbb     H8 1422   3.427   4.051   2.996 -1.2433  0.2165  1.6869
   48bbb     C5 1423   3.599   3.726   2.831  0.2444  0.1573 -0.1796
   48bbb     H9 1424   3.677   3.728   2.907 -0.3103  2.0886  0.3801
   48bbb    H10 1425   3.645   3.695   2.737  1.4015  1.2292  0.0134
   48bbb     C6 1426   3.828   3.947   2.677  0.7887 -0.1238  0.6485
   48bbb    H11 1427   3.835   3.840   2.699 -0.5872 -0.2431  0.6385
   48bbb    H12 1428   3.866   4.016   2.754 -0.9088  0.6046  0.8902
   48bbb     C7 1429   3.392   4.269   2.991  0.2273 -0.4419 -0.1256
   48bbb    H13 1430   3.438   4.363   2.959 -1.1671  0.4822  0.4729
   48bbb    H14 1431   3.368   4.284   3.097 -0.4603  0.5943 -0.4174
   48bbb     C8 1432   3.886   3.968   2.539  0.1343  0.0178  0.4352
   48bbb    H15 1433   3.824   3.901   2.478 -1.5451  0.8209  1.1995
   48bbb    H16 1434   3.879   4.074   2.512 -2.4928  0.0399  0.9306
   48bbb     C9 1435   3.503   3.614   2.863 -0.2716  0.3804 -0.5373
   48bbb    H17 1436   3.454   3.637   2.959 -0.3636 -0.5382 -0.3573
   48bbb    H18 1437   3.564   3.525   2.879 -0.3165  0.2406 -1.1299
   48bbb     O1 1438   3.275   4.258   2.915 -0.0251 -0.4336  0.0802
   48bbb    H19 1439   3.668   3.974   2.886  0.3997  0.0271 -0.8424
   49bbb     N1 1440   3.322   4.142   4.252 -0.0465  0.3811 -0.3405
   49bbb     C1 1441   3.462   4.188   4.236 -0.6384  0.3046 -0.1563
   49bbb     H1 1442   3.475   4.214   4.131  0.9982  1.3767  0.2846
   49bbb     H2 1443   3.523   4.098   4.248 -0.1929  0.3462 -1.8603
   49bbb     C2 1444   3.307   4.089   4.392 -0.5110  0.0068  0.1318
   49bbb     H3 1445   3.291   4.169   4.464 -1.0425 -1.1831  1.3719
   49bbb     H4 1446   3.401   4.047   4.429  0.9518  1.9464 -1.1675
   49bbb     C3 1447   3.222   4.255   4.226  0.0101  0.1579 -0.1598
   49bbb     H5 1448   3.223   4.343   4.290 -2.5092  1.1815 -1.3874
   49bbb     H6 1449   3.123   4.216   4.248 -0.1131 -0.7897 -2.1528
   49bbb     C4 1450   3.221   4.305   4.072 -0.1342  0.7269 -0.8828
   49bbb     H7 1451   3.241   4.221   4.004 -2.6615 -0.9684  0.2830
   49bbb     H8 1452   3.312   4.366   4.067  0.8649 -0.2739  2.2919
   49bbb     C5 1453   3.517   4.298   4.329 -0.6453  0.0245  0.4795
   49bbb     H9 1454   3.532   4.264   4.432 -2.0417  0.1888  0.7567
   49bbb    H10 1455   3.446   4.381   4.338 -3.4587 -2.0691 -0.7956
   49bbb     C6 1456   3.205   3.978   4.398  0.2107 -0.3549  0.6230
   49bbb    H11 1457   3.213   3.902   4.319  2.3091 -1.8759  2.2020
   49bbb    H12 1458   3.104   4.021   4.387  0.9439  0.9396 -1.6448
   49bbb     C7 1459   3.099   4.374   4.023  0.2153 -0.5911  0.1323
   49bbb    H13 1460   3.087   4.471   4.074 -1.0581 -1.1198  0.8684
   49bbb    H14 1461   3.009   4.318   4.050  0.4236 -0.9865  0.0162
   49bbb     C8 1462   3.221   3.914   4.534 -0.0743  0.4357 -0.3573
   49bbb    H15 1463   3.314   3.855   4.539  1.1435  2.1502 -1.6005
   49bbb    H16 1464   3.240   3.988   4.612  1.2778 -2.0729  1.8867
   49bbb     C9 1465   3.656   4.348   4.284  0.0550 -0.4751 -0.1867
   49bbb    H17 1466   3.729   4.268   4.266  0.9930  0.5192 -0.9582
   49bbb    H18 1467   3.697   4.400   4.371  0.6444  1.2257 -1.4105
   49bbb     O1 1468   3.112   4.409   3.882 -0.1864  0.5158  0.1458
   49bbb    H19 1469   3.304   4.068   4.183 -2.1865  0.1063  0.4454
   50bbb     N1 1470   2.668   4.816   4.494 -0.0061 -0.3718 -0.2435
   50bbb     C1 1471   2.761   4.737   4.591  0.1084  0.1650 -0.2472
   50bbb     H1 1472   2.862   4.756   4.553  1.2701 -1.0575  2.0338
   50bbb     H2 1473   2.744   4.630   4.589  0.5682  0.0736  0.2571
   50bbb     C2 1474   2.710   4.966   4.466 -0.7020 -0.1031 -0.1801
   50bbb     H3 1475   2.707   5.014   4.563  2.6328 -2.2065  1.1259
   50bbb     H4 1476   2.633   5.009   4.400 -0.7782  0.8397  0.5102
   50bbb     C3 1477   2.662   4.740   4.364  0.0269 -0.1146 -0.3565
   50bbb     H5 1478   2.638   4.640   4.400 -2.3220  1.1684  1.9774
   50bbb     H6 1479   2.760   4.744   4.315 -0.1414  1.0969 -0.6111
   50bbb     C4 1480   2.551   4.777   4.263  1.1055  0.3406  0.1872
   50bbb     H7 1481   2.584   4.861   4.201 -1.8436  0.5154 -1.2765
   50bbb     H8 1482   2.455   4.799   4.311  0.3999  1.5396 -1.6482
   50bbb     C5 1483   2.745   4.792   4.736 -0.2883 -0.5445 -0.0647
   50bbb     H9 1484   2.641   4.784   4.768 -0.6157  3.4029  0.4498
   50bbb    H10 1485   2.765   4.900   4.738  0.0320 -0.6091  2.2344
   50bbb     C6 1486   2.855   4.993   4.408 -0.4706 -0.0720  0.4410
   50bbb    H11 1487   2.868   4.929   4.320  0.1322 -0.7564  1.0087
   50bbb    H12 1488   2.930   4.964   4.482  0.7773  0.8041 -0.4501
   50bbb     C7 1489   2.533   4.660   4.166  0.1197  0.0323 -0.1312
   50bbb    H13 1490   2.435   4.667   4.118 -0.9051 -0.9107  1.7239
   50bbb    H14 1491   2.527   4.563   4.217 -3.1931  0.6429  0.8544
   50bbb     C8 1492   2.871   5.136   4.362  0.1542 -1.0691 -0.4660
   50bbb    H15 1493   2.975   5.150   4.332 -0.2625  2.8037 -0.6696
   50bbb    H16 1494   2.804   5.160   4.279 -0.2016 -0.0562  0.0880
   50bbb     C9 1495   2.837   4.725   4.839 -0.0413  0.3309  0.3766
   50bbb    H17 1496   2.801   4.760   4.936 -1.1740 -0.3879  0.2362
   50bbb    H18 1497   2.944   4.745   4.833 -0.2019  1.0722 -0.2046
   50bbb     O1 1498   2.641   4.662   4.071 -0.4095  0.0041 -0.0989
   50bbb    H19 1499   2.577   4.811   4.541  0.5456  1.3065  1.1036
   51bbb     N1 1500   1.403   5.394   1.103 -0.1246 -0.1244  0.2710
   51bbb     C1 1501   1.462   5.466   0.987  0.1017  1.2750 -0.0372
   51bbb     H1 1502   1.530   5.548   1.013  1.8720 -0.4793  1.1203
   51bbb     H2 1503   1.376   5.505   0.932 -0.2403  0.3344 -0.1874
   51bbb     C2 1504   1.308   5.281   1.068 -0.0482  0.2379 -0.2997
   51bbb     H3 1505   1.359   5.208   1.006 -0.1241  0.1404 -0.2495
   51bbb     H4 1506   1.232   5.324   1.003 -0.0392 -0.7996 -1.0346
   51bbb     C3 1507   1.514   5.341   1.194  0.3500 -0.2210 -1.1791
   51bbb     H5 1508   1.586   5.298   1.125  0.2313 -0.7196 -0.9985
   51bbb     H6 1509   1.468   5.260   1.252  0.8245  1.1973  1.3668
   51bbb     C4 1510   1.585   5.434   1.289  0.2966 -1.0701  0.1570
   51bbb     H7 1511   1.519   5.469   1.370  1.4697 -0.3506  0.8474
   51bbb     H8 1512   1.627   5.524   1.242 -2.6002  0.0665 -0.4544
   51bbb     C5 1513   1.535   5.368   0.879  0.1114  0.0659 -0.3852
   51bbb     H9 1514   1.466   5.292   0.838  0.3735 -0.6554  0.4899
   51bbb    H10 1515   1.610   5.299   0.921  0.6239  0.0759 -1.2621
   51bbb     C6 1516   1.226   5.208   1.174  0.2982  0.0565 -0.7307
   51bbb    H11 1517   1.150   5.270   1.221 -0.1781 -0.9455 -0.1469
   51bbb    H12 1518   1.275   5.152   1.255  0.6404  0.1752 -0.8543
   51bbb     C7 1519   1.696   5.367   1.366  0.8838  0.1195  0.1688
   51bbb    H13 1520   1.750   5.436   1.432 -0.8475  1.1484  0.5664
   51bbb    H14 1521   1.761   5.324   1.288  0.4391  0.1877 -0.2437
   51bbb     C8 1522   1.131   5.096   1.111  0.5440 -0.2853  0.2064
   51bbb    H15 1523   1.197   5.023   1.062  2.2500 -0.0643  2.0255
   51bbb    H16 1524   1.062   5.056   1.186  0.7275 -0.8860  0.0628
   51bbb     C9 1525   1.590   5.454   0.763  0.4082  0.2005 -0.1997
   51bbb    H17 1526   1.509   5.525   0.745 -0.2870  0.1086  2.1791
   51bbb    H18 1527   1.614   5.388   0.679  0.0636  0.6323 -0.6381
   51bbb     O1 1528   1.642   5.260   1.450  0.1049 -0.1186 -0.0845
   51bbb    H19 1529   1.347   5.466   1.150  0.8426  0.4510  0.5739
   52bbb     N1 1530   2.216   4.203   1.146  0.0459 -0.1952 -0.0612
   52bbb     C1 1531   2.229   4.240   0.996 -0.8908  0.3307  0.2497
   52bbb     H1 1532   2.231   4.152   0.931  0.5604  0.1551  0.4940
   52bbb     H2 1533   2.327   4.283   0.975  0.1394 -1.0692  1.9774
   52bbb     C2 1534   2.297   4.072   1.172  0.4685 -0.2434  0.1761
   52bbb     H3 1535   2.328   4.064   1.276  1.1337  2.6274  0.2668
   52bbb     H4 1536   2.389   4.079   1.114 -0.0897  2.3883 -0.5208
   52bbb     C3 1537   2.258   4.322   1.227 -0.0748  0.6270 -0.2165
   52bbb     H5 1538   2.333   4.375   1.169 -0.9300  0.2271 -1.7430
   52bbb     H6 1539   2.313   4.277   1.311  0.5391 -0.1877 -1.0279
   52bbb     C4 1540   2.147   4.403   1.295 -0.3360  0.6002  0.1735
   52bbb     H7 1541   2.073   4.339   1.344 -0.1907  1.9171  2.1918
   52bbb     H8 1542   2.099   4.462   1.216  2.0713  0.6703 -1.3448
   52bbb     C5 1543   2.116   4.329   0.938  0.4471 -0.0283 -0.2884
   52bbb     H9 1544   2.129   4.422   0.995 -1.9083  0.6755 -0.8239
   52bbb    H10 1545   2.019   4.288   0.968  0.4920 -0.5578 -0.8220
   52bbb     C6 1546   2.214   3.944   1.143 -0.1985 -0.1301  0.4183
   52bbb    H11 1547   2.182   3.947   1.038 -0.8854 -1.4883  0.5674
   52bbb    H12 1548   2.121   3.941   1.200 -0.6608  1.7659 -0.1595
   52bbb     C7 1549   2.205   4.503   1.393  0.1112 -0.1261  0.1171
   52bbb    H13 1550   2.243   4.589   1.336 -0.6801  0.6930  0.7865
   52bbb    H14 1551   2.293   4.462   1.443  0.6649  1.3418  0.4212
   52bbb     C8 1552   2.303   3.821   1.165  0.4316 -0.1024 -0.4849
   52bbb    H15 1553   2.380   3.814   1.086 -0.0727 -0.3104 -0.9618
   52bbb    H16 1554   2.354   3.827   1.262 -0.7007 -0.0444  0.1136
   52bbb     C9 1555   2.127   4.359   0.786  0.5261 -0.8412  0.1698
   52bbb    H17 1556   2.026   4.375   0.746 -0.0902 -1.8583  1.2743
   52bbb    H18 1557   2.163   4.274   0.728 -0.9784 -1.2678 -0.2011
   52bbb     O1 1558   2.106   4.540   1.494 -0.2187 -0.1113 -0.0255
   52bbb    H19 1559   2.117   4.183   1.167  0.4184  0.1742  2.2673
   53bbb     N1 1560   3.312   5.562   2.519  0.6585 -1.0343  0.4629
   53bbb     C1 1561   3.300   5.535   2.673 -0.1026  0.4333  0.9190
   53bbb     H1 1562   3.405   5.530   2.702  0.6293 -0.9084 -1.6783
   53bbb     H2 1563   3.243   5.447   2.700 -0.1957  0.0479 -0.4386
   53bbb     C2 1564   3.431   5.490   2.456 -0.0501  0.3908 -0.5202
   53bbb     H3 1565   3.431   5.511   2.349  1.7933 -0.3765 -0.7087
   53bbb     H4 1566   3.411   5.386   2.483 -0.9054  0.9641  1.2057
   53bbb     C3 1567   3.187   5.520   2.446  0.9875  0.1544  0.0765
   53bbb     H5 1568   3.103   5.564   2.501  1.4185 -0.5576  1.3603
   53bbb     H6 1569   3.173   5.413   2.461  0.1858  0.1974 -0.3172
   53bbb     C4 1570   3.169   5.562   2.302  0.6169  0.4506  0.6153
   53bbb     H7 1571   3.256   5.524   2.247  1.3776  0.8700  1.4807
   53bbb     H8 1572   3.186   5.670   2.294  2.7107  0.1713  0.6966
   53bbb     C5 1573   3.240   5.649   2.747 -0.5936 -0.6277 -0.4076
   53bbb     H9 1574   3.139   5.671   2.709 -1.9989  0.0954  3.3134
   53bbb    H10 1575   3.292   5.741   2.719 -1.8324  0.1570 -0.2116
   53bbb     C6 1576   3.571   5.543   2.508  0.8773  0.1377 -0.1742
   53bbb    H11 1577   3.619   5.463   2.566  0.3107  0.2436  0.4549
   53bbb    H12 1578   3.566   5.629   2.577 -0.4603 -0.4946  0.5567
   53bbb     C7 1579   3.042   5.511   2.236  0.0941  0.1355  0.7588
   53bbb    H13 1580   3.029   5.562   2.140  1.0621 -2.1594 -0.6621
   53bbb    H14 1581   2.962   5.558   2.295  0.8744  1.8530  0.5208
   53bbb     C8 1582   3.657   5.588   2.390 -0.0259 -0.4714  0.9691
   53bbb    H15 1583   3.614   5.672   2.334  1.2090 -0.6530 -0.3211
   53bbb    H16 1584   3.748   5.632   2.432  0.5121  0.0818 -0.6751
   53bbb     C9 1585   3.246   5.645   2.898  0.8466 -0.1898 -0.3323
   53bbb    H17 1586   3.191   5.559   2.937 -0.8841  0.9665 -0.0906
   53bbb    H18 1587   3.203   5.740   2.932  1.3573 -0.1043  0.0928
   53bbb     O1 1588   3.044   5.364   2.233  0.1971  0.0683 -0.2691
   53bbb    H19 1589   3.322   5.663   2.501  1.7884 -1.4296 -1.3885
   54bbb     N1 1590   2.847   5.394   1.238 -0.2894 -0.5745 -0.4334
   54bbb     C1 1591   3.005   5.379   1.257 -0.1134 -0.3232 -0.3935
   54bbb     H1 1592   3.062   5.436   1.185  0.1531  0.3315  0.3236
   54bbb     H2 1593   3.032   5.273   1.258  0.4853 -0.1728  0.1930
   54bbb     C2 1594   2.802   5.365   1.095  0.0265 -0.2867  0.0246
   54bbb     H3 1595   2.693   5.361   1.094  0.0534 -1.6700 -2.2061
   54bbb     H4 1596   2.812   5.260   1.067 -1.4054 -0.8821  1.5526
   54bbb     C3 1597   2.772   5.323   1.345 -0.0426  0.4431  0.4030
   54bbb     H5 1598   2.828   5.354   1.433  2.6761 -1.5111 -0.5268
   54bbb     H6 1599   2.790   5.216   1.334 -1.3697  0.3744 -1.6740
   54bbb     C4 1600   2.619   5.355   1.355  0.2225 -0.0887  0.3830
   54bbb     H7 1601   2.572   5.311   1.266  0.8142 -0.6266  0.3284
   54bbb     H8 1602   2.617   5.464   1.364  0.7270  0.1623 -2.0205
   54bbb     C5 1603   3.061   5.433   1.391  0.1597  0.1466 -0.3149
   54bbb     H9 1604   3.170   5.421   1.393 -0.1028 -2.9157 -0.1332
   54bbb    H10 1605   3.029   5.369   1.474 -2.0022  0.8122 -0.5586
   54bbb     C6 1606   2.868   5.451   0.985  0.3419  0.8141 -0.4939
   54bbb    H11 1607   2.974   5.425   0.974 -0.2239 -1.4044 -1.2822
   54bbb    H12 1608   2.860   5.557   1.011 -1.3499  0.1812  1.8086
   54bbb     C7 1609   2.553   5.287   1.477  0.7371 -1.0817  0.8174
   54bbb    H13 1610   2.577   5.180   1.471 -0.9746 -1.4913  0.5780
   54bbb    H14 1611   2.444   5.303   1.478  1.0919  2.0362 -0.3784
   54bbb     C8 1612   2.803   5.434   0.847 -0.0238  0.2046 -0.0610
   54bbb    H15 1613   2.791   5.334   0.805  1.2242 -0.5229  1.2053
   54bbb    H16 1614   2.701   5.472   0.858 -0.0379  0.2420 -0.3040
   54bbb     C9 1615   3.041   5.581   1.419 -0.3524 -0.2543 -0.4375
   54bbb    H17 1616   3.080   5.603   1.520 -1.4473  1.5570 -0.3649
   54bbb    H18 1617   2.935   5.609   1.422 -0.3698 -0.1998 -1.3954
   54bbb     O1 1618   2.599   5.342   1.598 -0.1395 -0.2761 -0.5652
   54bbb    H19 1619   2.817   5.492   1.245 -0.2982 -0.6654  1.3392
   55bbb     N1 1620  -0.186   6.718   3.079 -0.1121 -0.7152  0.1873
   55bbb     C1 1621  -0.115   6.855   3.078 -0.3348 -0.2117  0.3220
   55bbb     H1 1622  -0.179   6.922   3.020  1.1749  0.2555 -0.8813
   55bbb     H2 1623  -0.026   6.841   3.016 -0.6033  0.9200 -0.3408
   55bbb     C2 1624  -0.261   6.703   2.944 -0.3398  0.0635  0.3499
   55bbb     H3 1625  -0.195   6.751   2.871  1.1260 -0.5907  1.1956
   55bbb     H4 1626  -0.343   6.772   2.967  0.2811  0.1240  2.6169
   55bbb     C3 1627  -0.087   6.603   3.111  0.3184  0.1345 -0.0811
   55bbb     H5 1628  -0.145   6.511   3.122 -1.4570  1.2663  0.4992
   55bbb     H6 1629  -0.041   6.623   3.207 -0.5307  1.3404  0.0899
   55bbb     C4 1630   0.036   6.577   3.013  0.1259  0.6866 -0.5476
   55bbb     H7 1631   0.090   6.671   2.996  1.1165  0.6475  1.8432
   55bbb     H8 1632  -0.012   6.540   2.923 -1.8051  3.5835 -0.8407
   55bbb     C5 1633  -0.088   6.909   3.222 -0.3476  0.1741 -0.5607
   55bbb     H9 1634  -0.021   6.994   3.206 -1.3524  1.0574 -0.1644
   55bbb    H10 1635  -0.041   6.834   3.287 -0.7883 -0.1605 -0.6268
   55bbb     C6 1636  -0.318   6.558   2.905  0.5032  0.3711  0.6044
   55bbb    H11 1637  -0.374   6.513   2.989  0.8149  0.5424  0.9034
   55bbb    H12 1638  -0.239   6.489   2.874  0.8021 -0.0114  2.1458
   55bbb     C7 1639   0.126   6.467   3.073 -0.2240 -0.4592 -0.4673
   55bbb    H13 1640   0.061   6.388   3.112 -0.3391 -1.3010 -2.2906
   55bbb    H14 1641   0.188   6.501   3.158 -1.1334  1.1320 -0.3997
   55bbb     C8 1642  -0.415   6.561   2.793  0.3865 -0.7634  0.4600
   55bbb    H15 1643  -0.360   6.574   2.699  0.1802 -0.4573  0.3776
   55bbb    H16 1644  -0.470   6.467   2.791  0.1358 -0.6185 -1.7625
   55bbb     C9 1645  -0.220   6.951   3.293  0.0466 -0.2614 -0.8111
   55bbb    H17 1646  -0.200   6.978   3.397 -1.5659  1.7540 -0.9785
   55bbb    H18 1647  -0.299   6.876   3.284  0.1383 -0.2041 -2.5127
   55bbb     O1 1648   0.219   6.419   2.969 -0.7319 -0.1239 -0.0685
   55bbb    H19 1649  -0.260   6.717   3.150 -0.2234 -1.6411  0.0723
   56bbb     N1 1650   0.114   5.808   2.653 -0.2763  0.6276  0.1855
   56bbb     C1 1651   0.129   5.667   2.610 -0.6652 -0.2464 -0.3757
   56bbb     H1 1652   0.152   5.608   2.699  1.2099  0.8652 -0.0610
   56bbb     H2 1653   0.224   5.667   2.556 -1.0422 -0.7820 -1.0618
   56bbb     C2 1654   0.088   5.897   2.532  0.0263 -0.7106 -0.2329
   56bbb     H3 1655  -0.015   5.887   2.495  0.0238 -0.6459 -0.2442
   56bbb     H4 1656   0.159   5.867   2.455  1.5322  0.0402  0.8301
   56bbb     C3 1657   0.005   5.813   2.757 -0.0975 -0.0458  0.1327
   56bbb     H5 1658  -0.052   5.721   2.748 -0.5506  0.4035 -2.2544
   56bbb     H6 1659  -0.057   5.901   2.740  0.0974  0.5324  2.1622
   56bbb     C4 1660   0.076   5.811   2.899  0.6146 -0.4736  0.1651
   56bbb     H7 1661   0.124   5.716   2.927 -0.5796 -0.3264  3.0608
   56bbb     H8 1662  -0.011   5.828   2.964 -0.2780  0.7555 -1.2842
   56bbb     C5 1663   0.016   5.601   2.531 -0.3041 -0.2873 -0.1608
   56bbb     H9 1664  -0.013   5.675   2.455  1.8282  0.9907  0.1916
   56bbb    H10 1665  -0.062   5.582   2.606 -0.5373  0.4360 -0.2090
   56bbb     C6 1666   0.107   6.050   2.550 -0.1556 -0.2789  0.1752
   56bbb    H11 1667   0.203   6.070   2.598  0.6328 -0.8763 -1.1080
   56bbb    H12 1668   0.034   6.084   2.625 -2.1841 -1.5739 -1.1110
   56bbb     C7 1669   0.181   5.926   2.908  0.0623 -0.0682 -1.1393
   56bbb    H13 1670   0.210   5.920   3.014 -0.8463  1.9353 -0.7431
   56bbb    H14 1671   0.143   6.025   2.882  0.6295  0.6467  0.5716
   56bbb     C8 1672   0.080   6.138   2.426 -0.0173 -0.3774 -0.1093
   56bbb    H15 1673  -0.025   6.130   2.396 -0.8667  0.7694  2.3229
   56bbb    H16 1674   0.102   6.243   2.450 -0.7791 -0.2625  0.1216
   56bbb     C9 1675   0.059   5.469   2.470 -0.2615  0.2822  0.5428
   56bbb    H17 1676  -0.025   5.442   2.404  0.3259  0.8474 -0.4525
   56bbb    H18 1677   0.077   5.395   2.549 -0.2270 -0.6345 -0.3137
   56bbb     O1 1678   0.301   5.889   2.829  0.2129  0.1389 -0.3797
   56bbb    H19 1679   0.202   5.846   2.691  0.9181  0.5786 -2.3246
   57bbb     N1 1680   1.126   7.490   2.317  0.6873  0.6596 -0.0230
   57bbb     C1 1681   1.127   7.621   2.388  0.2422 -0.4652  1.0943
   57bbb     H1 1682   1.031   7.627   2.439  0.5882  0.4750  1.6666
   57bbb     H2 1683   1.118   7.702   2.315 -1.1258  0.9308  2.7320
   57bbb     C2 1684   1.248   7.476   2.231 -0.0646  0.0967  0.0303
   57bbb     H3 1685   1.247   7.368   2.211 -0.6733 -0.1596  1.3291
   57bbb     H4 1686   1.333   7.506   2.292 -0.8261  1.4743  0.4491
   57bbb     C3 1687   1.102   7.374   2.420 -0.6002 -0.2550 -0.0512
   57bbb     H5 1688   1.017   7.393   2.486 -0.0374  1.1683  0.2878
   57bbb     H6 1689   1.194   7.377   2.479 -0.4722  1.8004 -0.2786
   57bbb     C4 1690   1.089   7.237   2.353  0.6325 -0.0934 -0.8510
   57bbb     H7 1691   1.175   7.199   2.297  1.9645 -0.5080  1.3565
   57bbb     H8 1692   1.018   7.260   2.272 -0.7194  0.2964  0.4009
   57bbb     C5 1693   1.237   7.647   2.492 -0.8218  0.0326 -0.2902
   57bbb     H9 1694   1.328   7.675   2.438 -0.7262  0.6569  0.1912
   57bbb    H10 1695   1.263   7.561   2.555  1.7402  0.9940  0.0864
   57bbb     C6 1696   1.250   7.555   2.096  0.2002  0.2703 -0.5863
   57bbb    H11 1697   1.355   7.583   2.085  1.1513 -0.9343  3.6172
   57bbb    H12 1698   1.200   7.652   2.109 -1.5590 -0.6931  0.2144
   57bbb     C7 1699   1.037   7.124   2.449 -0.0023  0.9060 -0.5560
   57bbb    H13 1700   0.935   7.145   2.482 -0.5013 -3.1913  0.9973
   57bbb    H14 1701   1.103   7.124   2.536 -0.4779 -2.4180 -0.0940
   57bbb     C8 1702   1.177   7.466   1.991  0.0714  0.4189 -0.4075
   57bbb    H15 1703   1.243   7.382   1.969  0.1958  0.3856  0.0718
   57bbb    H16 1704   1.084   7.423   2.030 -0.5528 -0.0745 -2.3506
   57bbb     C9 1705   1.197   7.762   2.583  0.5648 -0.3338  0.2665
   57bbb    H17 1706   1.270   7.783   2.663 -0.6329  1.9310  0.8607
   57bbb    H18 1707   1.100   7.735   2.626  0.6080 -0.9262  0.0026
   57bbb     O1 1708   1.051   6.995   2.401 -0.7136 -0.2941  0.0932
   57bbb    H19 1709   1.045   7.491   2.254 -0.6793  0.0436  1.6587
   58bbb     N1 1710   1.818   6.579   2.232 -0.6232  0.0369 -0.0349
   58bbb     C1 1711   1.731   6.463   2.240  0.2717 -0.0230  0.1727
   58bbb     H1 1712   1.721   6.424   2.139 -0.9531  0.7373 -0.0209
   58bbb     H2 1713   1.630   6.493   2.268  0.4629 -0.1057  0.9732
   58bbb     C2 1714   1.781   6.665   2.107 -0.3299 -0.3841 -0.3880
   58bbb     H3 1715   1.826   6.764   2.108 -0.6155 -0.2511  1.3168
   58bbb     H4 1716   1.674   6.688   2.113  0.0576  1.4928 -0.2932
   58bbb     C3 1717   1.816   6.653   2.367 -0.2765  0.3435 -0.0755
   58bbb     H5 1718   1.870   6.591   2.439  1.2496  0.6796 -0.9004
   58bbb     H6 1719   1.712   6.657   2.399 -0.3758  1.0463 -0.4638
   58bbb     C4 1720   1.882   6.798   2.376  0.1689 -0.6446  0.6465
   58bbb     H7 1721   1.893   6.839   2.275 -2.6595 -2.4227 -0.5033
   58bbb     H8 1722   1.989   6.806   2.399  0.3869  3.6176 -0.9755
   58bbb     C5 1723   1.774   6.355   2.343 -0.8204 -0.8584  0.1437
   58bbb     H9 1724   1.779   6.403   2.442  1.8737 -1.0585  0.1851
   58bbb    H10 1725   1.880   6.326   2.333 -0.5032  0.2191  0.3212
   58bbb     C6 1726   1.824   6.593   1.979 -0.2250 -0.6331 -0.4157
   58bbb    H11 1727   1.766   6.501   1.964 -2.0340  0.4668 -0.3914
   58bbb    H12 1728   1.930   6.563   1.980  0.4629  1.6292  0.8044
   58bbb     C7 1729   1.809   6.889   2.471 -0.4577  0.0189 -0.6042
   58bbb    H13 1730   1.868   6.980   2.487  0.7218 -0.9092  0.5535
   58bbb    H14 1731   1.812   6.838   2.568 -0.8656 -0.4234 -0.8219
   58bbb     C8 1732   1.799   6.680   1.856  0.1494 -0.5186  0.2155
   58bbb    H15 1733   1.886   6.745   1.842 -1.4141  1.5771 -0.4334
   58bbb    H16 1734   1.790   6.607   1.775  1.1476  1.5969 -1.9059
   58bbb     C9 1735   1.679   6.240   2.351 -0.3714  0.0197  0.5555
   58bbb    H17 1736   1.711   6.171   2.272 -2.0370 -1.1930  0.8995
   58bbb    H18 1737   1.572   6.262   2.347 -0.5144 -0.4258  1.7061
   58bbb     O1 1738   1.679   6.917   2.423  0.0142 -0.2694  0.0275
   58bbb    H19 1739   1.913   6.545   2.209 -0.5606 -1.5902  2.2214
   59bbb     N1 1740   3.167   6.148   4.387  0.1696 -0.1530  0.1948
   59bbb     C1 1741   3.108   6.039   4.474  0.7552  0.0007  0.3234
   59bbb     H1 1742   3.107   5.944   4.420 -0.5790  0.3228 -0.2531
   59bbb     H2 1743   3.007   6.070   4.502  0.4329 -0.0540 -0.7375
   59bbb     C2 1744   3.094   6.143   4.248  0.5525 -0.0816  0.0081
   59bbb     H3 1745   3.141   6.218   4.185  0.8692  0.7221  1.1662
   59bbb     H4 1746   2.988   6.165   4.256  0.2979 -1.5074  0.8946
   59bbb     C3 1747   3.141   6.286   4.452 -0.3635 -0.0346  0.3032
   59bbb     H5 1748   3.182   6.269   4.551 -0.9703 -1.7101  0.3056
   59bbb     H6 1749   3.034   6.305   4.461 -0.5033 -1.0940  1.1012
   59bbb     C4 1750   3.214   6.412   4.397  0.9896  0.4693 -0.2236
   59bbb     H7 1751   3.194   6.409   4.289 -1.9571 -0.0065  0.2519
   59bbb     H8 1752   3.321   6.408   4.421  0.7541 -1.5515  0.6910
   59bbb     C5 1753   3.182   6.004   4.603 -0.5847 -0.3353 -0.2259
   59bbb     H9 1754   3.201   6.094   4.663  1.4394 -1.5636  1.0986
   59bbb    H10 1755   3.282   5.966   4.577  1.2060  3.0970  0.8859
   59bbb     C6 1756   3.121   6.010   4.178 -0.0282  0.2642  0.5622
   59bbb    H11 1757   3.084   5.925   4.237 -2.6644  2.3244  2.0835
   59bbb    H12 1758   3.229   5.997   4.165  0.1378  0.7306  1.4117
   59bbb     C7 1759   3.152   6.554   4.432  0.2625 -0.4106 -0.1419
   59bbb    H13 1760   3.231   6.628   4.415  1.2136 -1.6268 -1.1828
   59bbb    H14 1761   3.126   6.568   4.538 -1.8081  1.0350 -0.7745
   59bbb     C8 1762   3.060   5.989   4.040 -0.4156  0.2422  0.0976
   59bbb    H15 1763   3.111   5.908   3.987 -0.8291  0.8742 -1.3149
   59bbb    H16 1764   2.951   5.974   4.050 -0.9680  1.9790 -2.4466
   59bbb     C9 1765   3.108   5.916   4.697  0.1979 -0.7460 -0.1198
   59bbb    H17 1766   3.156   5.918   4.796 -0.3876 -1.4271  0.1900
   59bbb    H18 1767   3.123   5.813   4.662  1.6446 -0.1805 -1.2888
   59bbb     O1 1768   3.032   6.591   4.361 -0.2813  0.7320  0.2807
   59bbb    H19 1769   3.269   6.134   4.374  0.1064  0.4725 -1.2133
   60bbb     N1 1770   2.599   7.416   4.454 -0.4008  0.2932  0.4428
   60bbb     C1 1771   2.467   7.477   4.470 -0.3584 -0.3794 -0.2284
   60bbb     H1 1772   2.484   7.580   4.501 -3.1865 -0.1455  0.8174
   60bbb     H2 1773   2.424   7.423   4.554  0.9943 -2.3414 -0.7199
   60bbb     C2 1774   2.692   7.450   4.571  0.1561 -0.3186 -0.3896
   60bbb     H3 1775   2.725   7.554   4.560  0.3099  0.0808  2.9169
   60bbb     H4 1776   2.782   7.390   4.560  1.5985  1.2605  1.7933
   60bbb     C3 1777   2.587   7.264   4.430  0.1325 -0.3164 -0.4994
   60bbb     H5 1778   2.526   7.253   4.341  0.5049  0.8925 -0.9204
   60bbb     H6 1779   2.532   7.225   4.516 -0.1682  2.1388  0.4850
   60bbb     C4 1780   2.713   7.178   4.408 -0.1160  0.0219 -0.1834
   60bbb     H7 1781   2.796   7.247   4.391 -0.8777  0.9319 -0.3123
   60bbb     H8 1782   2.698   7.115   4.319  0.5952 -0.9175  0.3438
   60bbb     C5 1783   2.379   7.482   4.347 -0.1730 -0.7412 -0.4694
   60bbb     H9 1784   2.353   7.382   4.309 -0.5956  0.0853 -2.4574
   60bbb    H10 1785   2.442   7.523   4.267  0.4447  0.4995  0.6261
   60bbb     C6 1786   2.628   7.444   4.714 -0.3435  0.9052  0.6070
   60bbb    H11 1787   2.598   7.342   4.737  0.6840 -0.2073 -2.4392
   60bbb    H12 1788   2.540   7.508   4.730  1.3946  3.6244  0.0853
   60bbb     C7 1789   2.734   7.089   4.535 -0.0039  0.7773  0.3592
   60bbb    H13 1790   2.706   7.143   4.626  1.5989  1.6421  0.3630
   60bbb    H14 1791   2.838   7.068   4.562 -0.0448  0.6534  0.4205
   60bbb     C8 1792   2.733   7.489   4.820  0.3586  0.0152 -0.3154
   60bbb    H15 1793   2.698   7.451   4.917 -0.2547  1.0413 -0.1235
   60bbb    H16 1794   2.832   7.452   4.792  0.1845 -0.2203 -0.6411
   60bbb     C9 1795   2.260   7.576   4.351 -0.4924 -0.7925 -0.1871
   60bbb    H17 1796   2.173   7.535   4.403 -0.3398 -2.2779 -1.0499
   60bbb    H18 1797   2.236   7.618   4.252 -0.7675 -0.0834  0.1746
   60bbb     O1 1798   2.651   6.965   4.519  0.1427  0.1484  0.0380
   60bbb    H19 1799   2.635   7.470   4.373  0.8512  0.1577  0.8896
   61bbb     N1 1800   2.595   7.338   3.056 -0.4801 -0.1403  0.2429
   61bbb     C1 1801   2.667   7.316   2.933  0.0589  0.7125 -0.2651
   61bbb     H1 1802   2.762   7.368   2.942  0.5006 -0.0690 -0.2366
   61bbb     H2 1803   2.606   7.369   2.860 -2.3292 -0.0848  1.0604
   61bbb     C2 1804   2.603   7.490   3.075  0.2228  0.9872  0.3285
   61bbb     H3 1805   2.711   7.508   3.078  0.5554 -0.8155  0.3179
   61bbb     H4 1806   2.568   7.509   3.176  2.8199 -3.5382  2.3407
   61bbb     C3 1807   2.444   7.295   3.030 -0.6757 -0.1159 -0.6013
   61bbb     H5 1808   2.451   7.186   3.028 -0.4438 -0.2575  2.4267
   61bbb     H6 1809   2.418   7.326   2.929  0.1259 -2.8649 -1.7664
   61bbb     C4 1810   2.338   7.323   3.129  1.2762  0.5492 -0.4798
   61bbb     H7 1811   2.333   7.432   3.140  2.7742  0.8127 -2.0386
   61bbb     H8 1812   2.364   7.282   3.228  1.4271 -2.4842 -1.6776
   61bbb     C5 1813   2.691   7.166   2.904 -0.4123  0.6461  0.3984
   61bbb     H9 1814   2.599   7.110   2.888  0.5485 -0.2606 -2.6857
   61bbb    H10 1815   2.742   7.112   2.984 -2.0658 -2.0046 -0.2464
   61bbb     C6 1816   2.531   7.586   2.986 -0.0625  0.3717  0.0242
   61bbb    H11 1817   2.423   7.568   2.983 -0.3011  0.7376  3.2955
   61bbb    H12 1818   2.569   7.569   2.884  0.7710  1.5096  0.1257
   61bbb     C7 1819   2.194   7.268   3.097 -0.9694 -0.6835  0.0721
   61bbb    H13 1820   2.161   7.312   3.003  0.1519 -1.6477 -0.8034
   61bbb    H14 1821   2.126   7.290   3.180 -0.0137  1.2635  0.3899
   61bbb     C8 1822   2.547   7.734   3.028  0.5361  0.2024 -0.1825
   61bbb    H15 1823   2.483   7.792   2.960  1.3164  0.8755 -0.3647
   61bbb    H16 1824   2.507   7.760   3.127  1.9774 -0.9336  0.7435
   61bbb     C9 1825   2.774   7.143   2.779 -0.0537 -0.4882  0.6068
   61bbb    H17 1826   2.717   7.173   2.691 -0.3738 -0.1578  0.9192
   61bbb    H18 1827   2.789   7.036   2.765  0.4937 -0.1909 -1.4253
   61bbb     O1 1828   2.199   7.125   3.091  0.5807  0.1536  0.2554
   61bbb    H19 1829   2.634   7.284   3.134 -0.7560 -1.1716 -0.3142
   62bbb     N1 1830   2.664   7.027   2.042  0.0090 -0.2827 -0.2848
   62bbb     C1 1831   2.549   6.995   1.940 -0.7996 -0.1077  0.8759
   62bbb     H1 1832   2.519   7.089   1.892 -2.0037 -0.4404  0.9343
   62bbb     H2 1833   2.467   6.969   2.008 -1.2248 -1.4560 -0.1113
   62bbb     C2 1834   2.769   7.098   1.969 -0.2021  0.3917 -0.5261
   62bbb     H3 1835   2.736   7.202   1.971 -0.1393  0.4058 -0.1967
   62bbb     H4 1836   2.756   7.072   1.864 -0.9747 -0.8843 -0.1379
   62bbb     C3 1837   2.616   7.098   2.165 -0.2504  0.2345 -0.0898
   62bbb     H5 1838   2.578   7.189   2.120 -1.5863 -1.2860 -2.2691
   62bbb     H6 1839   2.705   7.121   2.223 -0.9607  1.2952  0.6048
   62bbb     C4 1840   2.519   7.024   2.256 -0.2869  0.6071 -1.3444
   62bbb     H7 1841   2.547   6.918   2.264 -0.8627  0.3967 -1.9970
   62bbb     H8 1842   2.416   7.031   2.219 -0.8654  1.0248  0.2992
   62bbb     C5 1843   2.570   6.866   1.852 -0.0574  0.0500 -0.2278
   62bbb     H9 1844   2.578   6.786   1.928  1.6535 -0.3706 -0.7942
   62bbb    H10 1845   2.661   6.877   1.792  0.4565 -1.3336  0.2483
   62bbb     C6 1846   2.918   7.080   2.017 -0.6918 -0.7028  0.3082
   62bbb    H11 1847   2.943   6.974   2.030 -1.6059 -1.1934 -1.5991
   62bbb    H12 1848   2.939   7.128   2.114  1.0972 -2.0182  0.6310
   62bbb     C7 1849   2.508   7.088   2.397  0.3851 -0.0700  0.7324
   62bbb    H13 1850   2.443   7.176   2.387  0.3914  0.1593  2.4447
   62bbb    H14 1851   2.609   7.113   2.431  0.0177  0.2063  1.6626
   62bbb     C8 1852   3.012   7.139   1.917 -0.4846 -0.5295  0.3859
   62bbb    H15 1853   3.111   7.128   1.962 -0.8784  0.7150  1.6197
   62bbb    H16 1854   3.003   7.085   1.822 -0.0139  0.2966 -0.1330
   62bbb     C9 1855   2.451   6.834   1.755  0.1379  0.5801  0.1627
   62bbb    H17 1856   2.356   6.829   1.809  0.1059 -2.8147  0.0453
   62bbb    H18 1857   2.460   6.730   1.721 -2.3012 -0.1606  1.5215
   62bbb     O1 1858   2.452   6.987   2.477 -0.3274  0.2586  0.0347
   62bbb    H19 1859   2.696   6.934   2.071  1.0955 -0.2293 -1.2651
   63bbb     N1 1860  -0.881   1.634   3.694  0.3528 -0.2716  0.3699
   63bbb     C1 1861  -0.991   1.721   3.754  0.6268 -0.1286  0.1861
   63bbb     H1 1862  -0.968   1.743   3.858  2.2424  0.9797 -0.3839
   63bbb     H2 1863  -1.082   1.660   3.757  0.7843 -0.4934 -1.4434
   63bbb     C2 1864  -0.924   1.557   3.581 -0.5074 -0.6090 -0.5147
   63bbb     H3 1865  -0.916   1.612   3.487  1.8168  0.9488  0.4920
   63bbb     H4 1866  -1.026   1.522   3.600  0.0771 -2.4069 -0.4690
   63bbb     C3 1867  -0.752   1.698   3.661  0.8380 -0.7114  0.7025
   63bbb     H5 1868  -0.776   1.781   3.595  0.1939  0.9367  2.8843
   63bbb     H6 1869  -0.695   1.618   3.614 -2.6945 -2.7301 -0.4242
   63bbb     C4 1870  -0.673   1.746   3.782 -0.9224  0.3417  1.4397
   63bbb     H7 1871  -0.659   1.654   3.840  0.3402 -0.0930  0.5078
   63bbb     H8 1872  -0.723   1.824   3.840  1.1861  1.2356  2.1676
   63bbb     C5 1873  -1.025   1.862   3.687 -0.6048  0.3284 -0.0017
   63bbb     H9 1874  -1.074   1.856   3.589 -0.4868  0.5922 -0.0780
   63bbb    H10 1875  -0.925   1.903   3.670  0.5035 -1.6479  1.2770
   63bbb     C6 1876  -0.843   1.426   3.551 -0.3696 -0.2135  0.7778
   63bbb    H11 1877  -0.844   1.354   3.634 -0.6335 -3.5152 -1.8574
   63bbb    H12 1878  -0.736   1.449   3.543 -0.5746  0.6184  0.2561
   63bbb     C7 1879  -0.543   1.802   3.732 -0.2735  0.1788  0.3756
   63bbb    H13 1880  -0.495   1.734   3.662 -1.2609  0.2622 -0.4014
   63bbb    H14 1881  -0.476   1.812   3.819 -1.3910 -0.1944  1.3179
   63bbb     C8 1882  -0.893   1.353   3.425  0.0742  0.2429 -0.1972
   63bbb    H15 1883  -0.894   1.422   3.340  2.3570  1.4737  0.6712
   63bbb    H16 1884  -0.824   1.268   3.410  0.5954  0.8992 -1.7062
   63bbb     C9 1885  -1.108   1.946   3.783  0.0936 -0.2166  0.2642
   63bbb    H17 1886  -1.109   2.049   3.745 -3.4052 -0.5194 -0.8211
   63bbb    H18 1887  -1.070   1.949   3.886 -1.1503 -0.6352  0.7591
   63bbb     O1 1888  -0.568   1.938   3.679  0.0357  0.6882  0.6371
   63bbb    H19 1889  -0.864   1.570   3.773 -0.7421 -0.8352  0.1735
   64bbb     N1 1890  -0.912   2.717   4.004  0.0863  0.1170  0.0256
   64bbb     C1 1891  -0.916   2.854   4.057  0.5630  0.2437  0.3422
   64bbb     H1 1892  -0.965   2.836   4.153 -0.0977 -0.7554 -0.1632
   64bbb     H2 1893  -0.994   2.900   3.995  0.0146  2.5052  2.5497
   64bbb     C2 1894  -0.830   2.707   3.877  0.1955  0.1448 -0.0755
   64bbb     H3 1895  -0.833   2.602   3.847  1.8621  0.1414 -0.3422
   64bbb     H4 1896  -0.728   2.732   3.906  0.1887  0.2501 -0.1436
   64bbb     C3 1897  -0.853   2.629   4.109 -0.4388 -0.4286  0.1964
   64bbb     H5 1898  -0.908   2.652   4.200  0.7330 -0.1598  0.8536
   64bbb     H6 1899  -0.750   2.661   4.128 -0.3387 -0.8170  0.3015
   64bbb     C4 1900  -0.853   2.477   4.083 -0.2186 -0.3513  0.1571
   64bbb     H7 1901  -0.839   2.453   3.976  0.5245  0.2114  0.1154
   64bbb     H8 1902  -0.953   2.445   4.113 -0.2869  1.8722  2.6541
   64bbb     C5 1903  -0.782   2.938   4.078 -0.3971  0.5473  0.2691
   64bbb     H9 1904  -0.737   2.968   3.982 -0.4958  1.3485  0.4663
   64bbb    H10 1905  -0.702   2.895   4.139  0.1468  2.3565  0.8883
   64bbb     C6 1906  -0.880   2.797   3.760  0.2446  0.5367 -0.4631
   64bbb    H11 1907  -0.874   2.904   3.783  0.4926  0.0228  2.2165
   64bbb    H12 1908  -0.988   2.786   3.744 -0.1394  1.1125  1.4656
   64bbb     C7 1909  -0.752   2.400   4.173 -0.1508  0.6852 -0.2749
   64bbb    H13 1910  -0.737   2.294   4.150  1.8360  0.9371 -0.3319
   64bbb    H14 1911  -0.787   2.414   4.276 -2.0311 -2.0081 -0.4594
   64bbb     C8 1912  -0.793   2.777   3.641  0.4181  0.3730 -0.0829
   64bbb    H15 1913  -0.798   2.678   3.595  0.7361  1.0601 -1.6603
   64bbb    H16 1914  -0.833   2.848   3.567  2.1525  3.1829  1.4819
   64bbb     C9 1915  -0.822   3.062   4.160 -0.3618  0.4682 -0.2486
   64bbb    H17 1916  -0.892   3.125   4.104 -0.6128  0.3954 -0.0198
   64bbb    H18 1917  -0.730   3.117   4.182  0.7778 -1.7757  0.9036
   64bbb     O1 1918  -0.616   2.449   4.160  0.3088 -0.2750 -0.0918
   64bbb    H19 1919  -1.008   2.693   3.974  0.0837  1.0740 -0.8040
   65bbb     N1 1920   0.823   2.183   5.456 -1.3385 -0.1306 -0.1271
   65bbb     C1 1921   0.960   2.126   5.393  0.2532 -0.0655 -0.6902
   65bbb     H1 1922   1.035   2.155   5.466  1.1687 -2.5947 -0.5370
   65bbb     H2 1923   0.987   2.186   5.306  0.8722  0.3232 -0.2327
   65bbb     C2 1924   0.849   2.337   5.475  0.3147  0.4960 -0.9715
   65bbb     H3 1925   0.955   2.348   5.496  0.1567 -1.1069  0.9290
   65bbb     H4 1926   0.791   2.374   5.559  0.2390  0.5139 -1.0320
   65bbb     C3 1927   0.699   2.145   5.380  0.3573 -0.4860  0.5604
   65bbb     H5 1928   0.698   2.036   5.370  0.5602 -0.4338 -0.0274
   65bbb     H6 1929   0.693   2.201   5.287  0.8146 -0.2107  0.6980
   65bbb     C4 1930   0.564   2.190   5.446 -0.3216  0.3294  0.4300
   65bbb     H7 1931   0.564   2.300   5.454 -0.4645  0.3467  0.1999
   65bbb     H8 1932   0.554   2.156   5.549  0.9268 -0.3150  0.3560
   65bbb     C5 1933   0.951   1.974   5.361  0.5884  0.2952 -0.4296
   65bbb     H9 1934   0.878   1.958   5.281 -0.4239 -1.7437  0.8124
   65bbb    H10 1935   0.919   1.925   5.454 -1.4603  0.2245 -1.1233
   65bbb     C6 1936   0.826   2.422   5.354  0.4991  0.2138 -0.1703
   65bbb    H11 1937   0.722   2.454   5.339  1.3214  2.6022 -1.2838
   65bbb    H12 1938   0.853   2.377   5.258  1.2335 -0.6227  0.4173
   65bbb     C7 1939   0.448   2.131   5.364  0.3607 -0.4839  1.0557
   65bbb    H13 1940   0.353   2.168   5.405  0.3635  0.8657 -0.0751
   65bbb    H14 1941   0.443   2.023   5.384 -0.6691 -0.3387  1.6790
   65bbb     C8 1942   0.905   2.556   5.365 -0.4387 -0.0930  0.1048
   65bbb    H15 1943   0.849   2.622   5.432 -1.4963  1.0988 -1.8705
   65bbb    H16 1944   1.006   2.544   5.406 -0.0947  2.0043 -0.0626
   65bbb     C9 1945   1.081   1.909   5.316  0.0413 -0.2965 -0.2066
   65bbb    H17 1946   1.163   1.937   5.383  0.3079 -1.3817 -0.0556
   65bbb    H18 1947   1.107   1.938   5.213 -0.2484 -2.2931 -0.8906
   65bbb     O1 1948   0.464   2.150   5.221  0.2562  0.2089 -0.0213
   65bbb    H19 1949   0.822   2.138   5.548  0.8173  0.1801  0.0981
   66bbb     N1 1950   0.365   1.090   5.054  0.5708 -0.0490 -0.0642
   66bbb     C1 1951   0.294   1.134   5.180  0.4900 -0.3553  0.3633
   66bbb     H1 1952   0.206   1.180   5.134  1.1875 -0.2601 -0.9182
   66bbb     H2 1953   0.352   1.215   5.226  1.7103 -1.5926  1.0526
   66bbb     C2 1954   0.293   0.978   4.984 -0.7050 -0.4451  0.5530
   66bbb     H3 1955   0.200   1.023   4.948 -1.4671 -0.9841  1.7386
   66bbb     H4 1956   0.272   0.904   5.062 -0.8236 -1.5985 -0.5483
   66bbb     C3 1957   0.368   1.208   4.961 -0.0731  0.1024 -0.1698
   66bbb     H5 1958   0.266   1.246   4.946 -0.3915 -0.6535  0.0445
   66bbb     H6 1959   0.408   1.188   4.862  0.4401  0.5714 -0.0639
   66bbb     C4 1960   0.465   1.318   5.022  0.0810  1.0120  0.2177
   66bbb     H7 1961   0.554   1.266   5.059  0.6778  0.0918 -2.2783
   66bbb     H8 1962   0.429   1.374   5.109  1.7597  1.7934  0.4422
   66bbb     C5 1963   0.241   1.031   5.283 -0.1898 -0.3516 -0.0494
   66bbb     H9 1964   0.323   0.973   5.328  0.0005  0.2676  0.4280
   66bbb    H10 1965   0.185   0.950   5.234 -0.0840 -0.3123 -0.2351
   66bbb     C6 1966   0.367   0.900   4.870 -0.0587  0.0065 -0.0313
   66bbb    H11 1967   0.447   0.836   4.910 -0.3462  0.4030  1.2227
   66bbb    H12 1968   0.413   0.962   4.793  0.9952 -0.8458 -0.1112
   66bbb     C7 1969   0.521   1.427   4.922  0.0323  0.4161  0.1288
   66bbb    H13 1970   0.532   1.382   4.823 -0.7221  0.3548  0.0685
   66bbb    H14 1971   0.617   1.463   4.962 -0.0302  0.0621  0.6228
   66bbb     C8 1972   0.279   0.793   4.806 -0.3622  0.9309  0.2946
   66bbb    H15 1973   0.340   0.734   4.736 -0.4131  0.7145  0.4292
   66bbb    H16 1974   0.245   0.725   4.885  0.1653  0.7735  0.3956
   66bbb     C9 1975   0.161   1.078   5.399  0.1078  0.0420 -0.9507
   66bbb    H17 1976   0.224   1.121   5.477 -0.6231  1.5685 -1.1717
   66bbb    H18 1977   0.116   0.992   5.450  0.3284  1.0676  1.0405
   66bbb     O1 1978   0.417   1.532   4.922  0.0457 -0.3775  0.5788
   66bbb    H19 1979   0.458   1.055   5.081  0.2046 -1.7564 -0.8464
   67bbb     N1 1980   0.026   3.653   2.194  0.1677  0.4897 -0.1188
   67bbb     C1 1981  -0.036   3.555   2.099 -1.6832  0.1186  0.2044
   67bbb     H1 1982  -0.115   3.602   2.040 -1.4488  1.4283  0.8977
   67bbb     H2 1983  -0.088   3.485   2.165  0.0053 -0.3807  1.0623
   67bbb     C2 1984  -0.088   3.746   2.222  0.6865 -0.2220 -0.4441
   67bbb     H3 1985  -0.066   3.796   2.316 -0.9638 -2.3727  1.1919
   67bbb     H4 1986  -0.183   3.691   2.225  0.0338  0.7137 -2.1871
   67bbb     C3 1987   0.069   3.588   2.321 -0.2051 -0.2068  0.1717
   67bbb     H5 1988   0.141   3.512   2.290  2.0104  1.8384  0.0298
   67bbb     H6 1989  -0.021   3.549   2.369 -1.5410  1.4928 -0.8419
   67bbb     C4 1990   0.144   3.673   2.425  0.3980 -0.0713  0.6096
   67bbb     H7 1991   0.093   3.767   2.449  0.0568 -0.1192  0.0973
   67bbb     H8 1992   0.237   3.703   2.376 -0.4645 -1.0664 -1.8428
   67bbb     C5 1993   0.065   3.483   2.008  0.2333 -0.2270  0.4969
   67bbb     H9 1994   0.112   3.399   2.061  2.9358  0.6841 -0.2392
   67bbb    H10 1995   0.152   3.547   1.985  0.1084  0.9609  3.0247
   67bbb     C6 1996  -0.104   3.868   2.126 -0.3013  0.0621 -0.6857
   67bbb    H11 1997  -0.139   3.847   2.025  1.9369 -0.1164 -1.4924
   67bbb    H12 1998  -0.005   3.914   2.113 -0.5375  0.8767  0.2760
   67bbb     C7 1999   0.178   3.589   2.548  0.3559  0.3571 -0.1262
   67bbb    H13 2000   0.165   3.662   2.629  0.6653  0.0806  0.1775
   67bbb    H14 2001   0.283   3.559   2.535  0.7711  2.3488 -1.7791
   67bbb     C8 2002  -0.203   3.982   2.176  0.2764 -0.4259 -0.0912
   67bbb    H15 2003  -0.217   3.987   2.285  1.7110 -1.7663  0.1818
   67bbb    H16 2004  -0.157   4.080   2.156  0.7331 -0.7819 -0.7968
   67bbb     C9 2005  -0.011   3.440   1.890 -0.7829 -0.1012 -0.0232
   67bbb    H17 2006  -0.032   3.529   1.830 -0.2895 -0.1777 -0.3130
   67bbb    H18 2007  -0.107   3.395   1.918 -0.7156 -0.0857  0.2393
   67bbb     O1 2008   0.093   3.468   2.566  0.4257  0.3552 -0.4859
   67bbb    H19 2009   0.106   3.702   2.152  0.1304  1.4336  0.8616
   68bbb     N1 2010   0.963   3.167   2.404  0.3215 -0.2116  0.5490
   68bbb     C1 2011   0.908   3.273   2.312 -0.6657  0.4195  0.4147
   68bbb     H1 2012   0.832   3.331   2.363 -0.9427  1.9283 -1.6094
   68bbb     H2 2013   0.869   3.218   2.226 -0.0967 -0.4178  0.6729
   68bbb     C2 2014   1.039   3.233   2.511 -0.1361  0.1330  0.0422
   68bbb     H3 2015   1.121   3.283   2.460  0.7452  2.6901  3.6383
   68bbb     H4 2016   1.079   3.151   2.571  0.6648 -0.8987 -1.8240
   68bbb     C3 2017   0.858   3.087   2.477 -0.6302 -0.3298  0.0905
   68bbb     H5 2018   0.786   3.162   2.510  0.2081  0.5121  0.0472
   68bbb     H6 2019   0.901   3.035   2.563  0.0441 -1.2443 -0.7893
   68bbb     C4 2020   0.788   2.987   2.386 -0.7816  0.4171 -0.6664
   68bbb     H7 2021   0.857   2.919   2.336 -1.7198 -0.1460 -1.2180
   68bbb     H8 2022   0.723   3.045   2.319 -2.2031 -1.5643 -1.0922
   68bbb     C5 2023   1.017   3.372   2.249 -0.4389  0.1008  0.1500
   68bbb     H9 2024   1.105   3.321   2.210 -0.2445  1.4789 -1.3064
   68bbb    H10 2025   1.055   3.443   2.324  3.6504  1.2617 -2.7288
   68bbb     C6 2026   0.979   3.341   2.601 -0.4643  0.1706 -0.4099
   68bbb    H11 2027   0.871   3.333   2.619 -0.0545 -1.4231  1.5994
   68bbb    H12 2028   0.986   3.439   2.552 -0.8888  0.4805  0.1394
   68bbb     C7 2029   0.692   2.900   2.469  0.5562  0.6553  0.0220
   68bbb    H13 2030   0.737   2.811   2.514  1.2933 -0.2319 -2.3015
   68bbb    H14 2031   0.616   2.856   2.403  1.3698 -0.2321 -0.3603
   68bbb     C8 2032   1.064   3.337   2.727  0.6550  0.1094  0.0427
   68bbb    H15 2033   1.013   3.393   2.806  0.3636 -0.8412  0.5364
   68bbb    H16 2034   1.081   3.232   2.752 -0.3160 -0.4796 -1.6334
   68bbb     C9 2035   0.971   3.464   2.132 -0.4800  0.2544  0.4662
   68bbb    H17 2036   0.953   3.398   2.046 -1.6364  1.3917 -0.1983
   68bbb    H18 2037   1.053   3.532   2.108  0.6159 -0.3840  2.2534
   68bbb     O1 2038   0.614   2.979   2.565  0.4738 -0.3026 -0.0025
   68bbb    H19 2039   1.028   3.102   2.358 -0.1795 -0.4138  0.1116
   69bbb     N1 2040   1.416   2.337   2.646 -0.3563  0.6427 -0.1896
   69bbb     C1 2041   1.331   2.213   2.608  0.8115 -0.3672  1.2132
   69bbb     H1 2042   1.304   2.234   2.505 -0.5179  3.6734  2.2016
   69bbb     H2 2043   1.233   2.198   2.655  0.1522  2.5137  0.9143
   69bbb     C2 2044   1.469   2.418   2.534 -0.3936  0.0933  0.0572
   69bbb     H3 2045   1.382   2.444   2.473 -0.3849 -1.2686 -0.5657
   69bbb     H4 2046   1.535   2.353   2.478  1.0130  1.4886  0.0421
   69bbb     C3 2047   1.338   2.423   2.743 -0.2912  0.9851 -0.4972
   69bbb     H5 2048   1.395   2.514   2.760  1.2706 -0.2359  1.2185
   69bbb     H6 2049   1.327   2.377   2.842 -1.1073 -0.4985 -1.2430
   69bbb     C4 2050   1.196   2.469   2.699  0.8096 -0.1394 -0.2714
   69bbb     H7 2051   1.132   2.381   2.684  1.8487 -0.6335 -2.1137
   69bbb     H8 2052   1.193   2.517   2.600  1.8473  2.2444  0.7857
   69bbb     C5 2053   1.425   2.088   2.613 -0.3982  0.0981  0.3559
   69bbb     H9 2054   1.451   2.062   2.717 -0.2038 -2.0051 -0.1797
   69bbb    H10 2055   1.518   2.113   2.560 -1.7494  1.2958 -1.5623
   69bbb     C6 2056   1.551   2.540   2.571  0.2243  0.0927 -0.0621
   69bbb    H11 2057   1.606   2.535   2.666 -0.3485 -0.0381  0.2669
   69bbb    H12 2058   1.475   2.619   2.570 -1.3126 -1.3427 -0.3307
   69bbb     C7 2059   1.133   2.575   2.794 -0.1649 -0.3237  0.4521
   69bbb    H13 2060   1.038   2.603   2.746 -0.8893 -2.6087  0.4356
   69bbb    H14 2061   1.196   2.664   2.797 -0.0513 -0.3161 -1.2941
   69bbb     C8 2062   1.673   2.556   2.472 -0.7847  0.8396  0.0400
   69bbb    H15 2063   1.648   2.611   2.380 -0.6528 -0.0804 -0.5636
   69bbb    H16 2064   1.751   2.616   2.520  2.7817 -2.9658 -0.4538
   69bbb     C9 2065   1.371   1.957   2.552 -0.2201 -0.1671  0.4122
   69bbb    H17 2066   1.439   1.871   2.556 -2.7473 -2.5137 -1.8750
   69bbb    H18 2067   1.334   1.961   2.449 -1.3835  0.9383  0.8373
   69bbb     O1 2068   1.111   2.525   2.932 -0.5664  0.2442  0.4398
   69bbb    H19 2069   1.502   2.307   2.695 -0.1818  0.1791 -0.7663
   70bbb     N1 2070   1.703   2.104   3.404  0.1930 -0.0874 -0.1009
   70bbb     C1 2071   1.840   2.151   3.448 -0.0804 -0.2721 -0.4895
   70bbb     H1 2072   1.908   2.075   3.409 -2.0026 -2.8068  0.7610
   70bbb     H2 2073   1.838   2.144   3.557 -0.3806  0.0367 -0.4725
   70bbb     C2 2074   1.682   1.957   3.443 -0.7334 -0.0676 -0.6715
   70bbb     H3 2075   1.575   1.948   3.427 -0.7234  0.8684 -1.3448
   70bbb     H4 2076   1.718   1.941   3.545  2.1858  1.4590 -1.3350
   70bbb     C3 2077   1.605   2.195   3.484 -0.2200  0.5091  0.4347
   70bbb     H5 2078   1.624   2.295   3.447 -0.1588  0.5127  0.4768
   70bbb     H6 2079   1.636   2.187   3.588  1.5825 -0.8715 -0.1577
   70bbb     C4 2080   1.451   2.172   3.468 -0.5712  0.0390 -0.8470
   70bbb     H7 2081   1.423   2.074   3.508 -2.4740  0.5358 -0.8917
   70bbb     H8 2082   1.419   2.171   3.363 -1.3627 -0.9419 -0.6106
   70bbb     C5 2083   1.871   2.298   3.412 -0.0335 -0.0887 -0.1256
   70bbb     H9 2084   1.808   2.369   3.468 -0.5724  0.6695 -1.6514
   70bbb    H10 2085   1.843   2.317   3.308  0.3531  0.3261 -0.1579
   70bbb     C6 2086   1.728   1.838   3.360  0.2604 -0.1536 -0.2470
   70bbb    H11 2087   1.837   1.849   3.354  0.0323  1.9285 -1.9353
   70bbb    H12 2088   1.690   1.851   3.258 -1.9147  1.4466  0.6998
   70bbb     C7 2089   1.368   2.289   3.542  0.1638  0.4646  0.6112
   70bbb    H13 2090   1.396   2.296   3.648 -0.8139 -2.8810  1.2001
   70bbb    H14 2091   1.261   2.268   3.549  0.3079 -0.2332  0.7135
   70bbb     C8 2092   1.682   1.703   3.421  0.1375  0.1547  0.3280
   70bbb    H15 2093   1.577   1.712   3.449 -0.4350 -1.8752 -0.9414
   70bbb    H16 2094   1.679   1.630   3.339  1.1148  1.6773 -1.1270
   70bbb     C9 2095   2.023   2.323   3.439  0.0866 -0.2769  0.5665
   70bbb    H17 2096   2.042   2.431   3.435 -2.5459  0.3476  2.2909
   70bbb    H18 2097   2.086   2.268   3.368 -0.9594 -1.0513  0.1969
   70bbb     O1 2098   1.381   2.415   3.458  0.4835 -0.1417  0.0607
   70bbb    H19 2099   1.689   2.112   3.302  0.7401 -0.6342 -0.2255
   71bbb     N1 2100  -1.663   5.313   3.556  0.2182  0.0296  0.3902
   71bbb     C1 2101  -1.722   5.371   3.683 -0.3830  0.0425  0.1623
   71bbb     H1 2102  -1.732   5.477   3.658 -0.9668 -0.0710 -0.1024
   71bbb     H2 2103  -1.652   5.354   3.764  0.0511  2.1660  0.2938
   71bbb     C2 2104  -1.538   5.398   3.520 -0.6693 -0.6709  0.3556
   71bbb     H3 2105  -1.460   5.325   3.497 -0.0234  0.7810 -2.4690
   71bbb     H4 2106  -1.504   5.443   3.613 -0.3853 -1.3745  0.5980
   71bbb     C3 2107  -1.615   5.171   3.586  0.6807  0.4986 -0.4936
   71bbb     H5 2108  -1.586   5.166   3.691 -0.2102  1.4407 -0.1900
   71bbb     H6 2109  -1.531   5.159   3.517 -1.3758  0.4323 -3.1234
   71bbb     C4 2110  -1.715   5.058   3.553  0.6222  0.3404  0.9176
   71bbb     H7 2111  -1.749   5.062   3.449  2.8870 -2.2444 -0.0308
   71bbb     H8 2112  -1.807   5.058   3.612  0.2710 -1.7737  0.4457
   71bbb     C5 2113  -1.867   5.321   3.715 -0.4151 -0.0508 -0.8615
   71bbb     H9 2114  -1.861   5.217   3.749 -1.9888  0.1021 -0.0551
   71bbb    H10 2115  -1.931   5.315   3.626 -0.5027  2.3055 -1.0118
   71bbb     C6 2116  -1.560   5.498   3.401  0.5817  0.0327  0.0844
   71bbb    H11 2117  -1.654   5.553   3.412  0.7997  0.6253 -0.9563
   71bbb    H12 2118  -1.586   5.435   3.315 -0.3887 -0.6999  0.8898
   71bbb     C7 2119  -1.650   4.920   3.554 -0.8542  0.8703 -0.0241
   71bbb    H13 2120  -1.561   4.906   3.491  0.4559  0.1567  1.9192
   71bbb    H14 2121  -1.726   4.846   3.524 -0.1853 -0.1860  0.8038
   71bbb     C8 2122  -1.442   5.580   3.366  0.0304 -0.8702  0.3563
   71bbb    H15 2123  -1.358   5.512   3.347  0.0263 -0.7785  0.0020
   71bbb    H16 2124  -1.469   5.640   3.278 -1.6235 -1.6987  0.2603
   71bbb     C9 2125  -1.934   5.407   3.831  0.2884 -0.6266 -0.4715
   71bbb    H17 2126  -1.874   5.406   3.923  0.2748  0.6445 -0.4176
   71bbb    H18 2127  -2.029   5.364   3.863  0.8806 -2.5217 -1.1221
   71bbb     O1 2128  -1.615   4.882   3.692 -0.1578  0.7007 -0.6147
   71bbb    H19 2129  -1.732   5.317   3.480  0.4812 -0.0775  0.1436
   72bbb     N1 2130  -2.103   4.498   4.333  0.1889  0.2766  0.2567
   72bbb     C1 2131  -2.156   4.630   4.288 -0.5112  0.3579  0.6068
   72bbb     H1 2132  -2.263   4.634   4.310 -0.7093 -0.3262 -0.2001
   72bbb     H2 2133  -2.138   4.628   4.181  4.2581 -3.7448  1.1028
   72bbb     C2 2134  -2.205   4.397   4.281  1.3355 -0.5969 -0.3405
   72bbb     H3 2135  -2.287   4.392   4.352 -0.2710  0.1460 -2.0736
   72bbb     H4 2136  -2.160   4.300   4.302  0.8583 -0.8830 -0.6170
   72bbb     C3 2137  -1.965   4.461   4.278 -0.1201 -0.5369  0.2859
   72bbb     H5 2138  -1.936   4.545   4.215 -1.2485  0.2870  0.8175
   72bbb     H6 2139  -1.971   4.379   4.207  1.9218  0.6345 -1.3197
   72bbb     C4 2140  -1.851   4.428   4.384 -0.2623 -0.3976  0.7006
   72bbb     H7 2141  -1.770   4.372   4.336  0.0500  1.1002 -0.6135
   72bbb     H8 2142  -1.893   4.377   4.471 -0.5508  1.0944  1.4663
   72bbb     C5 2143  -2.082   4.755   4.339 -0.5312 -0.5234  0.6966
   72bbb     H9 2144  -1.975   4.734   4.323 -1.0609 -2.4895 -0.7126
   72bbb    H10 2145  -2.091   4.759   4.449 -0.2116  2.5320  0.6850
   72bbb     C6 2146  -2.250   4.402   4.130 -0.7410  0.1471 -0.0196
   72bbb    H11 2147  -2.159   4.409   4.069  0.4943 -1.5319  1.5101
   72bbb    H12 2148  -2.310   4.492   4.110 -1.5787 -0.1231  1.2095
   72bbb     C7 2149  -1.781   4.557   4.436  0.0599  0.3046 -0.2915
   72bbb    H13 2150  -1.702   4.533   4.508  1.1129 -1.5435 -1.9666
   72bbb    H14 2151  -1.863   4.612   4.484 -0.1210  1.4954 -1.9032
   72bbb     C8 2152  -2.336   4.276   4.103 -0.0474  0.6660  0.0554
   72bbb    H15 2153  -2.363   4.278   3.997 -0.4078 -0.7747  0.1052
   72bbb    H16 2154  -2.277   4.185   4.120  0.2530  0.3546 -2.3754
   72bbb     C9 2155  -2.116   4.888   4.271 -0.2474  0.0969 -0.7617
   72bbb    H17 2156  -2.080   4.896   4.168  1.9439  3.2498  0.0756
   72bbb    H18 2157  -2.064   4.971   4.321  1.0090 -1.9002  1.4484
   72bbb     O1 2158  -1.736   4.631   4.323 -0.0794 -0.1926  0.5551
   72bbb    H19 2159  -2.091   4.484   4.434  2.3848 -1.5833 -0.1686
   73bbb     N1 2160  -1.821   3.838   3.155 -0.9487 -0.7293  0.1662
   73bbb     C1 2161  -1.891   3.765   3.262 -0.2045  0.0566  0.1332
   73bbb     H1 2162  -1.933   3.835   3.334  1.3790  0.2079  0.9619
   73bbb     H2 2163  -1.811   3.720   3.322 -0.0443  1.0128  0.6502
   73bbb     C2 2164  -1.920   3.919   3.061  0.2659  0.2879  0.2461
   73bbb     H3 2165  -1.971   3.837   3.012  3.1221 -1.2532 -0.3840
   73bbb     H4 2166  -1.862   3.963   2.979  0.2996  0.6263  0.4472
   73bbb     C3 2167  -1.716   3.930   3.223  1.0693 -0.2271 -0.1176
   73bbb     H5 2168  -1.669   3.890   3.313  0.9447  0.5937  0.3263
   73bbb     H6 2169  -1.770   4.020   3.253  1.6997  0.5413 -1.2534
   73bbb     C4 2170  -1.610   3.981   3.123 -0.1914  0.5222  0.6103
   73bbb     H7 2171  -1.551   4.048   3.187 -1.0979 -0.1297  2.1937
   73bbb     H8 2172  -1.652   4.038   3.039 -0.4010  2.1149  1.7443
   73bbb     C5 2173  -1.989   3.655   3.221  0.3342  0.0406 -0.1452
   73bbb     H9 2174  -1.945   3.582   3.151 -0.9046 -1.4135  0.5203
   73bbb    H10 2175  -2.076   3.702   3.174 -2.2633 -0.3807  3.7561
   73bbb     C6 2176  -2.023   4.013   3.117  0.1225  0.3481  0.0140
   73bbb    H11 2177  -1.975   4.111   3.127  1.9407 -0.5042 -0.0278
   73bbb    H12 2178  -2.048   3.989   3.221 -1.3909 -0.6667 -0.5456
   73bbb     C7 2179  -1.515   3.872   3.068  0.0873  0.0114 -0.4222
   73bbb    H13 2180  -1.575   3.818   2.993  1.1253  1.0954 -2.1149
   73bbb    H14 2181  -1.475   3.804   3.144  0.9750  2.1012  1.0985
   73bbb     C8 2182  -2.156   4.029   3.043 -0.2130 -0.2174  0.3300
   73bbb    H15 2183  -2.216   4.093   3.110  1.5458  0.6468  1.1298
   73bbb    H16 2184  -2.151   4.080   2.946 -3.2268  0.6454  0.5240
   73bbb     C9 2185  -2.056   3.575   3.335  0.2067  0.5547  0.4017
   73bbb    H17 2186  -2.112   3.494   3.287 -1.3592  0.9807  1.4453
   73bbb    H18 2187  -2.135   3.640   3.373 -2.4084 -1.9811 -0.2944
   73bbb     O1 2188  -1.402   3.939   3.002 -0.0528  0.4623 -0.1511
   73bbb    H19 2189  -1.777   3.775   3.087  0.2468  0.2347  0.0185
   74bbb     N1 2190  -1.441   4.345   2.167  0.2316  0.5631 -0.3305
   74bbb     C1 2191  -1.394   4.216   2.101  0.4617  0.3652  0.3185
   74bbb     H1 2192  -1.426   4.216   1.997 -1.2893  0.3057  0.8223
   74bbb     H2 2193  -1.436   4.130   2.154  1.7940  0.7619  2.1554
   74bbb     C2 2194  -1.554   4.400   2.071  0.1896  0.2513 -0.7413
   74bbb     H3 2195  -1.502   4.416   1.976 -1.5358  2.3851 -1.4162
   74bbb     H4 2196  -1.583   4.501   2.099  0.8432  0.4862 -0.8758
   74bbb     C3 2197  -1.512   4.302   2.297  0.0036  0.1806  0.0845
   74bbb     H5 2198  -1.564   4.209   2.277 -2.1423  1.2275  0.5369
   74bbb     H6 2199  -1.577   4.387   2.316  3.3380  3.4816 -1.7153
   74bbb     C4 2200  -1.422   4.311   2.419 -0.2489  0.2238 -0.0728
   74bbb     H7 2201  -1.387   4.415   2.420  2.5648 -0.6134 -1.5148
   74bbb     H8 2202  -1.324   4.267   2.401 -0.5848  0.0355 -1.6548
   74bbb     C5 2203  -1.244   4.194   2.100  0.2076  0.3999 -0.2616
   74bbb     H9 2204  -1.211   4.214   2.203  1.1460 -0.5005 -0.3633
   74bbb    H10 2205  -1.200   4.267   2.031 -0.9293  1.4204  0.0595
   74bbb     C6 2206  -1.680   4.309   2.050 -0.7808  0.0778  0.0680
   74bbb    H11 2207  -1.736   4.299   2.144  0.3958  0.2819  0.8048
   74bbb    H12 2208  -1.655   4.213   2.003  1.0234  0.8560 -0.6516
   74bbb     C7 2209  -1.491   4.277   2.552  0.1552 -0.3670  0.4839
   74bbb    H13 2210  -1.533   4.176   2.543  2.2883 -1.1177 -2.1363
   74bbb    H14 2211  -1.579   4.342   2.554  0.6015  0.3193 -1.0750
   74bbb     C8 2212  -1.778   4.375   1.948 -0.2192  0.4970  0.3502
   74bbb    H15 2213  -1.724   4.394   1.855 -1.4035 -2.0126 -0.9488
   74bbb    H16 2214  -1.849   4.295   1.923 -0.0667  0.3814  0.2820
   74bbb     C9 2215  -1.190   4.052   2.067 -0.6475  0.1802  0.2700
   74bbb    H17 2216  -1.082   4.045   2.080 -0.7073 -0.4055  0.4854
   74bbb    H18 2217  -1.211   4.033   1.961  0.1928 -0.2246  0.1660
   74bbb     O1 2218  -1.407   4.303   2.666 -0.5556  0.3473  0.1061
   74bbb    H19 2219  -1.362   4.410   2.179  0.2970  0.4447 -0.1121
   75bbb     N1 2220  -0.145   3.752   5.866 -0.4940  0.0446 -0.5134
   75bbb     C1 2221  -0.065   3.809   5.986  0.1431  0.1162  1.0259
   75bbb     H1 2222   0.019   3.863   5.943 -0.4749 -0.3302 -0.8249
   75bbb     H2 2223  -0.038   3.725   6.051 -2.1964 -0.8916  0.7943
   75bbb     C2 2224  -0.243   3.655   5.926  0.1111  0.3521  0.6400
   75bbb     H3 2225  -0.329   3.638   5.860  0.3650  1.5156 -0.0210
   75bbb     H4 2226  -0.295   3.694   6.013 -1.2717  0.0160 -0.0007
   75bbb     C3 2227  -0.214   3.865   5.791 -0.1188  0.6582 -0.5267
   75bbb     H5 2228  -0.159   3.957   5.809  1.0449 -0.1589  0.2554
   75bbb     H6 2229  -0.313   3.879   5.836  0.3874  0.1717  0.7951
   75bbb     C4 2230  -0.244   3.842   5.635  0.4542  0.7735 -0.5440
   75bbb     H7 2231  -0.326   3.770   5.628  2.3366 -1.5473  0.0915
   75bbb     H8 2232  -0.159   3.794   5.586  1.1092 -0.9764  2.0719
   75bbb     C5 2233  -0.136   3.914   6.072  0.0113 -0.3025 -0.5678
   75bbb     H9 2234  -0.233   3.874   6.105  0.0828  0.0725  0.1261
   75bbb    H10 2235  -0.148   4.011   6.023  0.5184  0.1015  0.0923
   75bbb     C6 2236  -0.181   3.520   5.971 -0.2819  0.0501 -0.4637
   75bbb    H11 2237  -0.135   3.546   6.067  0.3127 -1.8377 -0.1927
   75bbb    H12 2238  -0.095   3.502   5.905  0.0599 -0.8484  0.2111
   75bbb     C7 2239  -0.288   3.973   5.563 -0.3998  0.4072  0.0639
   75bbb    H13 2240  -0.217   3.988   5.481  1.7102 -2.6519  1.1611
   75bbb    H14 2241  -0.291   4.061   5.628 -0.6343  0.9853 -0.7060
   75bbb     C8 2242  -0.261   3.391   5.968  1.0333  0.7820 -0.5339
   75bbb    H15 2243  -0.347   3.393   6.036  1.9792 -2.4033  0.9501
   75bbb    H16 2244  -0.310   3.367   5.873 -0.9950  2.1568  0.0907
   75bbb     C9 2245  -0.062   3.941   6.203 -0.0563 -0.1873  0.3637
   75bbb    H17 2246  -0.065   3.842   6.251 -1.1342  0.6051  2.0442
   75bbb    H18 2247  -0.108   4.014   6.271 -0.8499  0.6308 -1.0257
   75bbb     O1 2248  -0.426   3.946   5.519  0.5974 -0.0786 -0.3142
   75bbb    H19 2249  -0.077   3.708   5.802  2.4503  0.2516  2.2156
   76bbb     N1 2250  -1.034   3.229   5.845 -0.1172 -0.5796 -0.2725
   76bbb     C1 2251  -1.135   3.153   5.928  0.0643 -0.6090 -0.5540
   76bbb     H1 2252  -1.212   3.227   5.952  0.3626 -0.8000  1.0805
   76bbb     H2 2253  -1.096   3.118   6.023 -0.7328 -2.3341 -0.8207
   76bbb     C2 2254  -0.938   3.127   5.781  0.3203  0.4905 -0.2971
   76bbb     H3 2255  -0.990   3.075   5.701  0.9903  0.3085 -0.6200
   76bbb     H4 2256  -0.915   3.052   5.856 -1.9025 -0.5443 -0.5593
   76bbb     C3 2257  -1.101   3.297   5.730  0.2551  0.4186  0.1652
   76bbb     H5 2258  -1.146   3.214   5.675  1.7692  0.7815 -1.7093
   76bbb     H6 2259  -1.023   3.342   5.669 -1.2174  2.3003 -0.4189
   76bbb     C4 2260  -1.188   3.416   5.768  0.1867 -0.0990 -0.9533
   76bbb     H7 2261  -1.140   3.481   5.842  0.7354 -1.6787  0.1346
   76bbb     H8 2262  -1.282   3.378   5.809 -0.1048  1.3543 -0.2363
   76bbb     C5 2263  -1.209   3.031   5.867  0.3614 -0.6366  0.0426
   76bbb     H9 2264  -1.133   2.956   5.843  1.6573 -0.0615  2.0818
   76bbb    H10 2265  -1.262   3.070   5.780  0.2283 -1.1634 -0.1173
   76bbb     C6 2266  -0.804   3.177   5.732  0.9700 -0.5692  0.1793
   76bbb    H11 2267  -0.759   3.214   5.826  1.1889 -2.6839  0.9554
   76bbb    H12 2268  -0.816   3.267   5.671 -0.8676 -0.8843  0.0381
   76bbb     C7 2269  -1.222   3.501   5.643 -0.2054  0.3485  0.3599
   76bbb    H13 2270  -1.306   3.569   5.661  0.0374  0.8046 -0.1766
   76bbb    H14 2271  -1.257   3.425   5.571 -0.3948  0.2919  0.5129
   76bbb     C8 2272  -0.729   3.065   5.664 -0.7082  0.0872 -0.0316
   76bbb    H15 2273  -0.623   3.089   5.669 -0.8350  0.4791  1.3343
   76bbb    H16 2274  -0.740   2.974   5.725  2.2434 -0.0340  0.4326
   76bbb     C9 2275  -1.302   2.964   5.974  1.1423 -0.2237  0.6053
   76bbb    H17 2276  -1.362   2.881   5.934 -0.9554  0.6171  1.8511
   76bbb    H18 2277  -1.363   3.042   6.021  2.7621  2.2452 -1.1156
   76bbb     O1 2278  -1.097   3.558   5.588  0.1911  0.4745 -0.1246
   76bbb    H19 2279  -0.976   3.296   5.898  1.1003 -0.5295 -1.6065
   77bbb     N1 2280  -0.749   5.046   5.481  0.0219  0.0246 -0.2547
   77bbb     C1 2281  -0.641   4.939   5.461  0.0989 -0.9075 -0.1984
   77bbb     H1 2282  -0.547   4.990   5.483 -0.0469  0.3359 -2.1741
   77bbb     H2 2283  -0.636   4.910   5.356 -0.8990 -1.6866 -0.0460
   77bbb     C2 2284  -0.712   5.176   5.409 -0.5792 -0.0594 -0.2941
   77bbb     H3 2285  -0.613   5.203   5.445 -0.0537 -0.8083 -1.1502
   77bbb     H4 2286  -0.789   5.245   5.444  0.1525  0.4038  0.4386
   77bbb     C3 2287  -0.889   5.008   5.432 -0.4188 -0.1102 -0.2014
   77bbb     H5 2288  -0.908   4.911   5.478  0.4603  0.6427  1.8761
   77bbb     H6 2289  -0.884   5.000   5.323  1.5054 -1.6056 -0.0622
   77bbb     C4 2290  -0.992   5.108   5.475 -1.0267 -0.3385 -0.1971
   77bbb     H7 2291  -0.982   5.206   5.426  3.2120 -1.2152 -1.5279
   77bbb     H8 2292  -0.985   5.124   5.583 -0.2448  0.6362 -0.3802
   77bbb     C5 2293  -0.664   4.823   5.558  0.1008  0.6421  0.6537
   77bbb     H9 2294  -0.756   4.779   5.517  0.5724  0.8006 -0.6351
   77bbb    H10 2295  -0.685   4.853   5.661 -2.0077 -1.1043  0.8005
   77bbb     C6 2296  -0.711   5.180   5.251 -0.1313 -0.0866 -0.1579
   77bbb    H11 2297  -0.811   5.157   5.212  0.2138  0.1909 -1.2501
   77bbb    H12 2298  -0.648   5.106   5.201  3.2372  2.4358  0.0084
   77bbb     C7 2299  -1.133   5.050   5.464 -0.1771  0.0760 -0.4796
   77bbb    H13 2300  -1.189   5.083   5.376 -2.7880 -0.5452  0.8403
   77bbb    H14 2301  -1.188   5.093   5.548  0.2414  1.6836 -0.9956
   77bbb     C8 2302  -0.659   5.318   5.205  0.0837 -0.0369  0.6524
   77bbb    H15 2303  -0.555   5.333   5.235 -0.2917  3.6549  0.4961
   77bbb    H16 2304  -0.666   5.331   5.096  0.9131  0.1288  0.6127
   77bbb     C9 2305  -0.545   4.726   5.558 -1.1421 -0.0657  0.6461
   77bbb    H17 2306  -0.543   4.672   5.462  2.8717 -1.0869  1.1179
   77bbb    H18 2307  -0.562   4.645   5.631  0.2967  0.9567  2.1620
   77bbb     O1 2308  -1.134   4.905   5.464 -0.2343  0.4027 -0.2473
   77bbb    H19 2309  -0.752   5.077   5.579 -0.3274 -0.9341  0.0502
   78bbb     N1 2310  -2.103   4.847   5.187  0.0278 -0.4122 -0.5921
   78bbb     C1 2311  -2.209   4.953   5.159 -0.1779 -0.4598  0.5144
   78bbb     H1 2312  -2.307   4.916   5.189 -1.7435  3.1418  0.3318
   78bbb     H2 2313  -2.216   4.970   5.052 -0.7752 -0.2864  0.5784
   78bbb     C2 2314  -2.097   4.736   5.092  0.4628  0.3933  0.1677
   78bbb     H3 2315  -2.051   4.778   5.002  0.9757  1.5724  0.9410
   78bbb     H4 2316  -2.201   4.713   5.074  0.8075 -0.9287 -0.2015
   78bbb     C3 2317  -1.957   4.903   5.200 -0.3270  0.0463  0.4918
   78bbb     H5 2318  -1.893   4.827   5.244 -0.6909  1.0981  3.0477
   78bbb     H6 2319  -1.970   4.972   5.284 -1.8017  0.0137  0.3255
   78bbb     C4 2320  -1.892   4.958   5.066  0.0729 -0.5429  0.0964
   78bbb     H7 2321  -1.970   5.025   5.028  1.2326  1.3729  0.9328
   78bbb     H8 2322  -1.876   4.876   4.995 -1.3312 -1.0539  0.3369
   78bbb     C5 2323  -2.194   5.090   5.232 -0.4057 -0.2225 -0.7824
   78bbb     H9 2324  -2.096   5.138   5.217 -0.6057  0.6337  0.4616
   78bbb    H10 2325  -2.219   5.065   5.336 -1.8564 -0.9267 -1.2752
   78bbb     C6 2326  -2.038   4.598   5.127  0.0241  0.0456  0.1470
   78bbb    H11 2327  -2.085   4.561   5.220  1.2994 -0.1890  0.7232
   78bbb    H12 2328  -1.930   4.612   5.143  0.2053  0.3726 -1.2841
   78bbb     C7 2329  -1.763   5.034   5.097  0.3937 -0.0902 -0.6131
   78bbb    H13 2330  -1.769   5.111   5.175  0.5534 -1.1158  0.4337
   78bbb    H14 2331  -1.733   5.105   5.019  0.0540 -1.0274 -1.6194
   78bbb     C8 2332  -2.060   4.500   5.009  0.1157 -0.4646  0.0250
   78bbb    H15 2333  -2.166   4.486   4.984  0.0078  2.0851 -1.2072
   78bbb    H16 2334  -2.007   4.541   4.922 -2.9957 -0.1201 -1.8519
   78bbb     C9 2335  -2.297   5.196   5.190  0.5625  0.7025  0.5518
   78bbb    H17 2336  -2.277   5.219   5.085  0.4668 -0.1337  0.3437
   78bbb    H18 2337  -2.271   5.283   5.252  0.0543 -0.1829  2.0492
   78bbb     O1 2338  -1.655   4.942   5.139  0.4711  0.1331 -0.0991
   78bbb    H19 2339  -2.139   4.813   5.277 -1.2069  0.3672 -0.7577
   79bbb     N1 2340   4.066   3.771   5.374  0.3277  0.4326 -1.0150
   79bbb     C1 2341   4.058   3.636   5.303 -0.2177 -0.0146  0.4521
   79bbb     H1 2342   3.953   3.621   5.277 -0.1826  0.1829  0.1850
   79bbb     H2 2343   4.084   3.562   5.378 -0.1022  1.2414  1.6928
   79bbb     C2 2344   3.984   3.876   5.303 -0.1641 -0.0130  0.4801
   79bbb     H3 2345   4.015   3.886   5.199 -0.9536 -0.9141  0.1478
   79bbb     H4 2346   4.002   3.970   5.356  1.0658 -0.4910  0.9526
   79bbb     C3 2347   4.006   3.740   5.509  0.2480  0.4342 -0.1832
   79bbb     H5 2348   4.043   3.645   5.547  1.0103 -0.2464 -2.4612
   79bbb     H6 2349   3.899   3.729   5.490  0.2319  1.2778 -0.6200
   79bbb     C4 2350   4.016   3.850   5.615 -0.4455  0.1609  0.2648
   79bbb     H7 2351   3.993   3.949   5.575  1.0743  0.5461  0.2774
   79bbb     H8 2352   4.115   3.854   5.662 -1.2917  1.8714  2.0371
   79bbb     C5 2353   4.129   3.625   5.162  0.4618 -0.0458  0.0654
   79bbb     H9 2354   4.105   3.717   5.106 -1.9935  0.7651  2.2501
   79bbb    H10 2355   4.105   3.537   5.102  0.6238  0.2855 -0.4966
   79bbb     C6 2356   3.832   3.861   5.298  0.0083 -0.1702  0.4517
   79bbb    H11 2357   3.794   3.933   5.372  2.6460  1.0909  0.6849
   79bbb    H12 2358   3.801   3.758   5.320  2.3277 -1.8629 -3.2223
   79bbb     C7 2359   3.912   3.798   5.718  0.2595 -0.0593  0.1897
   79bbb    H13 2360   3.909   3.865   5.805  0.6488 -1.2982  1.1873
   79bbb    H14 2361   3.956   3.702   5.748 -0.6773 -0.4508  0.3474
   79bbb     C8 2362   3.768   3.892   5.163 -0.3828 -0.5857  0.2195
   79bbb    H15 2363   3.660   3.877   5.173 -0.3794 -0.7917 -0.0331
   79bbb    H16 2364   3.770   3.999   5.143  3.5249 -0.4774  0.3900
   79bbb     C9 2365   4.280   3.633   5.187 -0.5049  0.2695  0.5706
   79bbb    H17 2366   4.317   3.566   5.266  0.4955 -1.3495 -1.1820
   79bbb    H18 2367   4.318   3.734   5.205  0.8367 -0.4684  2.1686
   79bbb     O1 2368   3.775   3.789   5.669 -0.3015  0.2535 -0.5735
   79bbb    H19 2369   4.164   3.801   5.385 -0.1945  1.4917  1.5444
   80bbb     N1 2370   3.332   3.207   5.487 -0.6298 -0.4080  0.3746
   80bbb     C1 2371   3.210   3.172   5.575 -0.6174 -0.0681  0.2583
   80bbb     H1 2372   3.184   3.261   5.632 -3.0346 -0.9036  0.6128
   80bbb     H2 2373   3.247   3.098   5.646  5.1824 -0.3451 -2.4885
   80bbb     C2 2374   3.393   3.094   5.409  0.1061 -0.2134 -0.0383
   80bbb     H3 2375   3.358   3.085   5.306  1.0566  0.9850 -0.4913
   80bbb     H4 2376   3.355   3.006   5.460 -2.8586  1.7922  1.5421
   80bbb     C3 2377   3.304   3.322   5.392 -0.4502 -0.9159  0.4652
   80bbb     H5 2378   3.210   3.310   5.337 -0.1022  0.1725 -0.4095
   80bbb     H6 2379   3.386   3.322   5.320 -0.9868 -0.3295 -0.1707
   80bbb     C4 2380   3.302   3.458   5.468 -0.5977  0.4359  0.2700
   80bbb     H7 2381   3.407   3.476   5.494  0.2822 -0.4092 -2.3768
   80bbb     H8 2382   3.248   3.447   5.563 -2.3310 -0.2266 -0.7375
   80bbb     C5 2383   3.084   3.127   5.497 -0.7191 -0.0622  0.4859
   80bbb     H9 2384   3.043   3.207   5.434 -0.4420 -2.0765 -2.4601
   80bbb    H10 2385   2.997   3.114   5.563 -1.1034  0.1742  0.0257
   80bbb     C6 2386   3.548   3.102   5.397  0.0412 -0.0938 -0.0882
   80bbb    H11 2387   3.578   3.110   5.502 -2.1979 -1.1528  0.6799
   80bbb    H12 2388   3.582   3.187   5.336 -1.9676  0.3351 -0.6993
   80bbb     C7 2389   3.239   3.578   5.391  0.5474 -0.2465  0.3312
   80bbb    H13 2390   3.154   3.552   5.326  0.3607  1.3049 -0.0893
   80bbb    H14 2391   3.316   3.621   5.326  0.6215 -0.8889 -0.0101
   80bbb     C8 2392   3.611   2.974   5.332  0.2733 -0.0781 -0.1002
   80bbb    H15 2393   3.567   2.960   5.232  1.6119  0.9006 -0.8594
   80bbb    H16 2394   3.719   2.991   5.326  0.2085  0.4653  0.2469
   80bbb     C9 2395   3.104   3.012   5.403  0.0464 -0.3480 -0.1872
   80bbb    H17 2396   3.175   3.043   5.326 -0.6973  1.1129 -0.3078
   80bbb    H18 2397   3.014   2.986   5.346 -0.4462  0.1407  0.3552
   80bbb     O1 2398   3.199   3.686   5.482 -0.5617 -0.0661  0.1070
   80bbb    H19 2399   3.410   3.246   5.541 -0.1693  1.8356 -1.7020
   81bbb     N1 2400   4.292   4.822   6.649 -0.5084  0.2686 -0.0462
   81bbb     C1 2401   4.282   4.961   6.717  0.3603 -0.2413 -0.3383
   81bbb     H1 2402   4.361   4.960   6.792 -0.8572  1.0772  1.0307
   81bbb     H2 2403   4.188   4.959   6.772  0.7006 -0.8605  0.2294
   81bbb     C2 2404   4.345   4.726   6.757  0.4767 -0.1416  0.3688
   81bbb     H3 2405   4.262   4.720   6.828 -0.5613 -0.0607 -0.8022
   81bbb     H4 2406   4.433   4.774   6.800 -1.5758  0.8473  3.8396
   81bbb     C3 2407   4.151   4.775   6.615 -0.0783 -0.1021  0.9147
   81bbb     H5 2408   4.086   4.861   6.630 -1.1858 -0.6888 -0.3225
   81bbb     H6 2409   4.117   4.693   6.678  0.0658 -1.0595 -0.2229
   81bbb     C4 2410   4.127   4.740   6.462 -0.0026 -0.8580 -0.2485
   81bbb     H7 2411   4.189   4.658   6.424  0.9526  0.7243 -2.2432
   81bbb     H8 2412   4.164   4.827   6.408 -1.0171  0.6674  1.4032
   81bbb     C5 2413   4.283   5.077   6.620 -0.2876 -0.4248 -0.3516
   81bbb     H9 2414   4.193   5.060   6.559 -1.5795 -1.0218  1.6422
   81bbb    H10 2415   4.373   5.072   6.557 -1.1266  0.0654 -1.6298
   81bbb     C6 2416   4.375   4.573   6.714 -0.6890  0.8428  0.3967
   81bbb    H11 2417   4.445   4.563   6.630 -0.0024  2.0870  0.7900
   81bbb    H12 2418   4.280   4.529   6.681 -0.9837  1.5873  0.2096
   81bbb     C7 2419   3.978   4.724   6.428 -0.9178 -0.1125  0.6067
   81bbb    H13 2420   3.975   4.699   6.322 -2.4310 -0.5841  0.7366
   81bbb    H14 2421   3.940   4.826   6.441 -1.3815 -0.1699 -0.2735
   81bbb     C8 2422   4.419   4.485   6.827  0.0068 -0.5802  0.3281
   81bbb    H15 2423   4.406   4.386   6.784  0.9044 -0.1652 -0.9485
   81bbb    H16 2424   4.524   4.496   6.858  0.5286 -0.2544 -1.4826
   81bbb     C9 2425   4.274   5.214   6.698  0.1936  0.8357  0.1174
   81bbb    H17 2426   4.307   5.302   6.641 -0.0703  0.5601 -0.4683
   81bbb    H18 2427   4.345   5.211   6.781 -1.1826  3.3940  1.5206
   81bbb     O1 2428   3.910   4.633   6.509 -0.4637 -0.4956  0.4245
   81bbb    H19 2429   4.361   4.830   6.573 -0.2535  0.5099  0.2101
   82bbb     N1 2430   4.251   3.753   6.665  0.4169 -0.4184 -0.3196
   82bbb     C1 2431   4.259   3.605   6.662  0.6414  0.5952 -0.1842
   82bbb     H1 2432   4.348   3.585   6.722 -0.5545  1.6616  2.1060
   82bbb     H2 2433   4.272   3.574   6.558 -0.3287 -0.9431  0.1126
   82bbb     C2 2434   4.396   3.798   6.651 -0.4929  0.1877 -0.5853
   82bbb     H3 2435   4.398   3.900   6.612  1.0123 -0.3169 -1.9547
   82bbb     H4 2436   4.447   3.741   6.573  1.1217 -0.4719  0.8680
   82bbb     C3 2437   4.166   3.780   6.540 -0.1838  0.6235  0.5050
   82bbb     H5 2438   4.067   3.738   6.560 -0.4690  0.0081 -1.8347
   82bbb     H6 2439   4.213   3.726   6.458 -0.9892 -1.7997  1.5514
   82bbb     C4 2440   4.151   3.926   6.500  0.8623  0.0348  0.3153
   82bbb     H7 2441   4.251   3.970   6.488  0.6525  0.7778  1.1671
   82bbb     H8 2442   4.093   3.982   6.574 -0.1146 -0.8920  0.2873
   82bbb     C5 2443   4.132   3.527   6.717 -0.8226  0.5119  0.3279
   82bbb     H9 2444   4.060   3.525   6.635  1.5229 -3.2978 -1.9125
   82bbb    H10 2445   4.079   3.575   6.801 -0.3670 -0.4438  1.1821
   82bbb     C6 2446   4.487   3.792   6.778  0.3382 -0.7265 -0.4623
   82bbb    H11 2447   4.489   3.695   6.829 -0.2291 -0.2549  0.4865
   82bbb    H12 2448   4.436   3.858   6.849 -0.7019 -1.4459 -0.5256
   82bbb     C7 2449   4.067   3.939   6.370 -0.0209  0.0981 -0.1059
   82bbb    H13 2450   4.099   3.871   6.290 -1.3880 -1.0156  0.2533
   82bbb    H14 2451   4.073   4.041   6.329 -0.4983 -0.1953 -0.9379
   82bbb     C8 2452   4.635   3.833   6.771  0.0873 -1.2218 -0.2778
   82bbb    H15 2453   4.694   3.761   6.713 -1.2591 -2.6739  0.0638
   82bbb    H16 2454   4.644   3.932   6.724 -0.9126 -0.4414  1.0962
   82bbb     C9 2455   4.165   3.382   6.738  0.2419 -0.4014 -0.0929
   82bbb    H17 2456   4.244   3.377   6.814 -0.0332 -1.4914  0.1437
   82bbb    H18 2457   4.209   3.335   6.649  1.2751 -0.5367  0.4723
   82bbb     O1 2458   3.924   3.918   6.402  0.1241 -0.0510  0.4458
   82bbb    H19 2459   4.212   3.792   6.752  0.0761 -0.3803 -0.4871
   83bbb     N1 2460   2.102   5.061   7.506  0.0148  0.1941 -0.0390
   83bbb     C1 2461   2.250   5.105   7.535 -0.3103 -0.0695  0.3603
   83bbb     H1 2462   2.290   5.033   7.607 -0.7839  0.0027  0.7019
   83bbb     H2 2463   2.260   5.210   7.562  0.3570  0.2877 -1.1416
   83bbb     C2 2464   2.036   5.047   7.645  0.3427 -0.3618 -0.0007
   83bbb     H3 2465   1.928   5.049   7.631  0.4922  1.4352 -1.2990
   83bbb     H4 2466   2.066   5.136   7.701 -1.7598 -0.3306  1.1651
   83bbb     C3 2467   2.023   5.164   7.419 -0.2260 -0.1211  0.1967
   83bbb     H5 2468   2.079   5.177   7.326  0.4861  1.4194  0.8083
   83bbb     H6 2469   2.021   5.257   7.475 -0.7206 -1.7096  2.9937
   83bbb     C4 2470   1.877   5.117   7.389 -0.0450 -0.4167  0.7300
   83bbb     H7 2471   1.801   5.122   7.468 -0.6848  1.1057  0.0577
   83bbb     H8 2472   1.877   5.010   7.366 -1.8880 -0.3340  0.2192
   83bbb     C5 2473   2.334   5.089   7.402  0.3512  0.0478  0.8259
   83bbb     H9 2474   2.286   5.137   7.316 -0.5697 -0.9696  0.7519
   83bbb    H10 2475   2.350   4.985   7.372  0.4058  0.2887  0.0106
   83bbb     C6 2476   2.072   4.907   7.710  0.5131  0.0935 -0.0525
   83bbb    H11 2477   2.180   4.886   7.717  0.1570 -1.8431  0.1064
   83bbb    H12 2478   2.030   4.822   7.655  0.4222 -0.2841  0.5934
   83bbb     C7 2479   1.798   5.190   7.276 -0.4841 -0.3040  0.2557
   83bbb    H13 2480   1.847   5.168   7.181  0.6869 -1.4828  1.0979
   83bbb    H14 2481   1.798   5.297   7.301 -1.7945  0.7917 -3.7126
   83bbb     C8 2482   2.018   4.907   7.856 -0.5115  0.7722 -0.3455
   83bbb    H15 2483   1.913   4.940   7.862  0.2605  3.1447  1.6214
   83bbb    H16 2484   2.027   4.804   7.894 -1.6897 -0.1050 -2.2815
   83bbb     C9 2485   2.466   5.172   7.418 -0.0759  0.3279  0.0115
   83bbb    H17 2486   2.462   5.281   7.434  3.8785  0.4861  0.9037
   83bbb    H18 2487   2.523   5.158   7.325  2.1674  0.0082  1.3581
   83bbb     O1 2488   1.659   5.150   7.259  0.0886 -0.8445 -0.1594
   83bbb    H19 2489   2.111   4.973   7.453 -1.9882 -0.2457  0.2926
   84bbb     N1 2490   0.847   5.211   7.015 -0.3489 -0.3414  0.2321
   84bbb     C1 2491   0.718   5.278   7.069 -0.3971  0.3431  0.2184
   84bbb     H1 2492   0.646   5.293   6.988 -1.5591  0.2037  1.1923
   84bbb     H2 2493   0.749   5.370   7.120  0.3585  0.0595  0.2817
   84bbb     C2 2494   0.911   5.305   6.915 -0.6348 -0.7373 -0.5005
   84bbb     H3 2495   1.001   5.255   6.879  0.8823  0.7791  1.0307
   84bbb     H4 2496   0.943   5.391   6.973  0.3760 -0.3814 -1.5483
   84bbb     C3 2497   0.949   5.174   7.123  0.0417  0.3087  0.3686
   84bbb     H5 2498   0.895   5.134   7.208  1.7065  1.5035  2.0806
   84bbb     H6 2499   0.986   5.269   7.161 -2.5568  2.0920 -1.2604
   84bbb     C4 2500   1.068   5.085   7.092 -0.7427 -0.0991 -0.2937
   84bbb     H7 2501   1.113   5.053   7.187  0.6363  2.3105 -0.0635
   84bbb     H8 2502   1.149   5.141   7.045 -0.2164  1.0161  1.8281
   84bbb     C5 2503   0.646   5.196   7.180  0.3943 -0.1445 -0.0112
   84bbb     H9 2504   0.572   5.268   7.216  0.7402  2.3391 -3.7440
   84bbb    H10 2505   0.715   5.174   7.262  0.6916  4.8297  1.3640
   84bbb     C6 2506   0.830   5.336   6.791  0.1935  0.5994 -0.4227
   84bbb    H11 2507   0.763   5.416   6.824 -0.9526 -2.1186  4.7237
   84bbb    H12 2508   0.778   5.249   6.749 -1.1650  1.8104 -1.3264
   84bbb     C7 2509   1.031   4.968   6.996 -1.1750  0.5299  0.5428
   84bbb    H13 2510   0.996   5.007   6.899 -0.5783 -0.0147  0.0982
   84bbb    H14 2511   0.953   4.899   7.032 -1.7188  0.4131 -0.7816
   84bbb     C8 2512   0.915   5.378   6.671 -0.0768 -0.2125 -0.9274
   84bbb    H15 2513   0.955   5.478   6.692 -2.1119  0.8569 -1.8772
   84bbb    H16 2514   1.007   5.321   6.657  0.1780  0.7725 -3.7592
   84bbb     C9 2515   0.588   5.062   7.128  0.5300 -0.0824 -0.9204
   84bbb    H17 2516   0.663   4.990   7.092 -1.7285 -2.9044 -0.3889
   84bbb    H18 2517   0.526   5.075   7.039  2.8828 -0.4294 -2.7115
   84bbb     O1 2518   1.146   4.879   6.973  0.0943  0.1101  0.9491
   84bbb    H19 2519   0.814   5.129   6.962 -0.2711 -0.8006  0.8766
   85bbb     N1 2520   1.996   3.358   7.032  0.0705  0.1753  0.4954
   85bbb     C1 2521   2.097   3.329   6.919  0.7348  0.2895  0.0839
   85bbb     H1 2522   2.067   3.380   6.827  0.7272 -2.6047 -1.6327
   85bbb     H2 2523   2.107   3.221   6.910  2.1092  0.3515  0.5930
   85bbb     C2 2524   2.042   3.264   7.140 -0.4394 -0.0353 -0.2629
   85bbb     H3 2525   2.140   3.303   7.169  0.2396 -2.0767  0.3782
   85bbb     H4 2526   2.053   3.166   7.095  1.6170  0.3694 -0.7246
   85bbb     C3 2527   2.001   3.506   7.073 -0.7079  0.7655  0.4226
   85bbb     H5 2528   2.103   3.541   7.056 -0.7778 -0.1150 -2.3392
   85bbb     H6 2529   1.992   3.514   7.182 -2.2216  0.0512  0.3632
   85bbb     C4 2530   1.901   3.599   7.003  0.1483  0.0012  0.8323
   85bbb     H7 2531   1.906   3.699   7.049 -1.5278  0.1583  0.7519
   85bbb     H8 2532   1.801   3.557   7.016 -0.0854  0.5035  0.6980
   85bbb     C5 2533   2.245   3.376   6.941  0.5408  0.7962 -0.1648
   85bbb     H9 2534   2.285   3.332   7.033  1.3503  2.7647  0.4737
   85bbb    H10 2535   2.254   3.485   6.949  1.6629  0.8261 -1.4303
   85bbb     C6 2536   1.951   3.268   7.267  0.2900  0.3839 -0.3734
   85bbb    H11 2537   1.853   3.219   7.256  0.0878  0.3263  1.3909
   85bbb    H12 2538   1.932   3.371   7.301 -0.2544  0.7176 -1.6507
   85bbb     C7 2539   1.913   3.616   6.853 -0.4969  0.8214 -0.4765
   85bbb    H13 2540   1.927   3.520   6.802 -0.2474  0.6853 -0.1538
   85bbb    H14 2541   2.006   3.673   6.843 -1.1873  1.7533 -2.0884
   85bbb     C8 2542   2.029   3.198   7.382  0.6737 -0.4213 -0.1801
   85bbb    H15 2543   2.015   3.089   7.384 -2.3500 -0.1164 -0.7729
   85bbb    H16 2544   2.135   3.227   7.375  0.5634  1.0087  2.7769
   85bbb     C9 2545   2.347   3.332   6.820  0.8157  0.7661 -0.0228
   85bbb    H17 2546   2.448   3.350   6.858  1.3549 -4.5853  1.8734
   85bbb    H18 2547   2.333   3.404   6.738  0.5047  0.5535 -0.1598
   85bbb     O1 2548   1.794   3.674   6.794 -0.3096  0.3348  0.5228
   85bbb    H19 2549   1.903   3.331   6.996  0.7079  0.1686 -1.2660
   86bbb     N1 2550   1.340   4.124   7.424 -0.4354  0.0166  0.3860
   86bbb     C1 2551   1.235   4.101   7.528  0.8068 -0.1954  0.6430
   86bbb     H1 2552   1.153   4.088   7.457  2.1431 -3.3322 -0.4967
   86bbb     H2 2553   1.231   4.189   7.592 -1.0616  0.9041 -0.8538
   86bbb     C2 2554   1.477   4.134   7.494  0.0897 -0.4022  0.1214
   86bbb     H3 2555   1.500   4.037   7.539  1.2722  0.5771  1.7433
   86bbb     H4 2556   1.471   4.209   7.573 -0.2632  0.1992 -0.4783
   86bbb     C3 2557   1.334   4.028   7.309  1.8796  0.5337 -0.0999
   86bbb     H5 2558   1.352   3.927   7.347  0.0737  0.2720  0.1191
   86bbb     H6 2559   1.412   4.050   7.235  0.9715  0.5645 -1.0711
   86bbb     C4 2560   1.202   4.025   7.224  0.3530 -0.5924 -0.0981
   86bbb     H7 2561   1.170   4.130   7.221 -1.0888 -1.0115 -0.2181
   86bbb     H8 2562   1.124   3.974   7.281 -1.3084  1.5528 -0.3059
   86bbb     C5 2563   1.252   3.976   7.610 -0.1415  1.2684  0.2559
   86bbb     H9 2564   1.329   4.001   7.683 -1.2591  1.3576  1.4322
   86bbb    H10 2565   1.277   3.891   7.545 -0.6456  0.8968  0.5352
   86bbb     C6 2566   1.594   4.172   7.409 -0.1224 -0.2615  0.3487
   86bbb    H11 2567   1.570   4.249   7.335  0.7765  0.5285  0.8622
   86bbb    H12 2568   1.618   4.078   7.358 -1.3850 -0.8560  0.8035
   86bbb     C7 2569   1.208   3.954   7.085 -0.5814 -0.0667  0.3327
   86bbb    H13 2570   1.108   3.972   7.045 -0.6515  0.9544  0.9247
   86bbb    H14 2571   1.227   3.848   7.105 -1.0972  0.0573  1.5746
   86bbb     C8 2572   1.712   4.223   7.495  0.6879  0.5915 -0.1778
   86bbb    H15 2573   1.765   4.298   7.435  0.2533 -0.7306 -2.3351
   86bbb    H16 2574   1.678   4.254   7.595 -1.7397 -2.5271  0.1255
   86bbb     C9 2575   1.121   3.948   7.681  0.4413  0.6338  0.0646
   86bbb    H17 2576   1.123   3.865   7.752 -3.4581 -0.9172 -1.3645
   86bbb    H18 2577   1.047   3.918   7.605  1.2894  1.7325 -1.2524
   86bbb     O1 2578   1.313   4.012   7.004  0.7046  0.1603  0.1821
   86bbb    H19 2579   1.330   4.215   7.376 -0.0054 -0.4038 -0.5324
   87bbb     N1 2580   2.911   6.942   5.788 -0.5129 -0.2094  0.0665
   87bbb     C1 2581   2.913   7.089   5.832  0.5222 -0.1312  0.0013
   87bbb     H1 2582   2.940   7.086   5.938  3.0394 -1.7411 -0.6134
   87bbb     H2 2583   2.810   7.121   5.818 -0.1112 -1.1042  2.0336
   87bbb     C2 2584   3.039   6.874   5.814  0.1085 -0.9773 -0.1787
   87bbb     H3 2585   3.070   6.893   5.917  0.4500  0.7392 -0.5577
   87bbb     H4 2586   3.110   6.922   5.746 -0.0497  0.3325  0.5374
   87bbb     C3 2587   2.792   6.872   5.856  0.3626 -0.2069 -0.7019
   87bbb     H5 2588   2.777   6.771   5.818  0.8811 -0.4638 -0.2315
   87bbb     H6 2589   2.703   6.931   5.833  0.8891  0.8996  0.0016
   87bbb     C4 2590   2.794   6.865   6.011  0.7820  0.3289  0.6300
   87bbb     H7 2591   2.797   6.965   6.058  2.6656  0.5634  0.1243
   87bbb     H8 2592   2.870   6.792   6.040  2.0528  1.5468  0.4890
   87bbb     C5 2593   3.016   7.181   5.764  0.5733  0.1237 -0.1520
   87bbb     H9 2594   3.028   7.159   5.657 -1.2515  1.6754 -0.7385
   87bbb    H10 2595   3.114   7.165   5.812  0.4342 -1.2451 -0.2893
   87bbb     C6 2596   3.033   6.720   5.785  0.4829  0.4654 -0.2799
   87bbb    H11 2597   3.003   6.720   5.679  0.7519 -2.2639 -0.4272
   87bbb    H12 2598   2.953   6.664   5.835 -1.8960  2.4375 -1.6160
   87bbb     C7 2599   2.659   6.805   6.055  0.2319 -1.0942  0.3694
   87bbb    H13 2600   2.591   6.879   6.011  0.8833 -1.0540 -0.5947
   87bbb    H14 2601   2.644   6.818   6.163  1.1437  0.0228  0.3782
   87bbb     C8 2602   3.163   6.650   5.792  0.4441  0.0900  0.3966
   87bbb    H15 2603   3.148   6.545   5.761 -1.4605  0.8445 -1.5034
   87bbb    H16 2604   3.227   6.693   5.714 -0.6127  0.3710 -0.3285
   87bbb     C9 2605   2.974   7.324   5.774 -0.1599 -1.1759  0.4838
   87bbb    H17 2606   2.989   7.363   5.875  0.7216  0.1728 -0.1394
   87bbb    H18 2607   2.870   7.344   5.743  1.0796  1.2377 -2.7000
   87bbb     O1 2608   2.648   6.670   6.015  1.1610 -0.5299  0.3700
   87bbb    H19 2609   2.896   6.950   5.686  0.7342  2.2600 -0.0051
   88bbb     N1 2610   3.212   5.973   5.917  0.3846  0.3259 -0.1516
   88bbb     C1 2611   3.202   5.997   5.768 -0.2309 -0.5287  0.0311
   88bbb     H1 2612   3.281   5.939   5.718  0.6557 -0.3521  1.1823
   88bbb     H2 2613   3.237   6.098   5.747 -0.8701  0.3041  2.6526
   88bbb     C2 2614   3.355   5.949   5.957 -0.9942 -0.1114  0.1134
   88bbb     H3 2615   3.380   5.846   5.932 -0.0794 -0.0261  0.6402
   88bbb     H4 2616   3.354   5.959   6.065  0.3872  0.1235  0.1170
   88bbb     C3 2617   3.165   6.104   5.983  0.4966 -0.0958  0.0049
   88bbb     H5 2618   3.070   6.131   5.937  0.9397 -0.1219 -0.9400
   88bbb     H6 2619   3.235   6.182   5.955  0.5511 -0.8727 -2.1844
   88bbb     C4 2620   3.131   6.114   6.132  0.5137  0.6076  0.2099
   88bbb     H7 2621   3.221   6.071   6.179  0.1855 -0.4707 -0.1077
   88bbb     H8 2622   3.043   6.050   6.147  0.9908 -0.3023 -0.7689
   88bbb     C5 2623   3.063   5.970   5.707 -0.1842  0.1170  0.9160
   88bbb     H9 2624   2.980   6.011   5.766 -1.7231 -3.8167  1.8080
   88bbb    H10 2625   3.039   5.863   5.698 -0.1002  0.2347 -1.2399
   88bbb     C6 2626   3.465   6.047   5.904  0.0894 -0.0078  0.3281
   88bbb    H11 2627   3.436   6.148   5.935 -0.1903 -0.1541  0.5408
   88bbb    H12 2628   3.460   6.037   5.795 -0.3737  1.2251  0.2140
   88bbb     C7 2629   3.090   6.259   6.180 -0.3357  0.6076 -0.0236
   88bbb    H13 2630   3.176   6.327   6.185 -1.0385  1.4389  1.1172
   88bbb    H14 2631   3.056   6.257   6.284  0.0084  1.2617  0.1086
   88bbb     C8 2632   3.601   6.010   5.955 -0.5428 -0.1836  0.2133
   88bbb    H15 2633   3.591   5.996   6.063  1.8285 -1.4470  0.3407
   88bbb    H16 2634   3.627   5.912   5.914  2.3233  1.4965 -2.4381
   88bbb     C9 2635   3.066   6.026   5.559  1.2310 -0.0765  0.0923
   88bbb    H17 2636   3.111   6.126   5.551 -0.4839  0.8026  0.9201
   88bbb    H18 2637   2.961   6.037   5.528  1.0374  1.5392  1.2030
   88bbb     O1 2638   2.991   6.310   6.090 -0.2245 -0.0712 -0.5744
   88bbb    H19 2639   3.162   5.890   5.951  0.5348  0.0046 -0.7106
   89bbb     N1 2640   0.901   6.668   6.674 -0.6225 -0.0243 -0.5200
   89bbb     C1 2641   0.844   6.790   6.603 -0.1024 -0.6521  0.4732
   89bbb     H1 2642   0.770   6.840   6.665 -1.5169 -1.0230 -0.8638
   89bbb     H2 2643   0.799   6.752   6.511  1.5239  0.0228 -0.6584
   89bbb     C2 2644   0.834   6.658   6.819  0.0399 -0.1214  0.4795
   89bbb     H3 2645   0.729   6.628   6.816 -0.1607  0.4771  1.3601
   89bbb     H4 2646   0.833   6.761   6.852  2.6030  0.8347 -2.0328
   89bbb     C3 2647   0.859   6.544   6.598 -0.4843 -0.1294 -0.2197
   89bbb     H5 2648   0.756   6.561   6.564 -0.1943  0.6113 -0.7631
   89bbb     H6 2649   0.855   6.452   6.657  1.6777 -1.2363 -1.6981
   89bbb     C4 2650   0.953   6.511   6.473  0.3922  0.3400 -0.1335
   89bbb     H7 2651   0.949   6.591   6.398  1.8342  0.9796  0.4198
   89bbb     H8 2652   0.920   6.419   6.425 -1.6391  1.2105 -0.5038
   89bbb     C5 2653   0.952   6.884   6.547 -0.6678 -0.6485  0.7084
   89bbb     H9 2654   1.042   6.835   6.506  0.0699  3.1328 -2.9167
   89bbb    H10 2655   0.987   6.954   6.624 -1.3757  0.4341  0.0803
   89bbb     C6 2656   0.928   6.568   6.914  0.1665  0.1749 -0.2818
   89bbb    H11 2657   1.030   6.593   6.883  0.9608 -2.6974 -0.3068
   89bbb    H12 2658   0.914   6.461   6.891  0.1209 -0.4787  2.4597
   89bbb     C7 2659   1.102   6.466   6.508 -0.6227 -0.2023 -0.2845
   89bbb    H13 2660   1.154   6.430   6.418  2.7653  1.5709  0.7525
   89bbb    H14 2661   1.114   6.386   6.582 -1.6950  0.4995  0.6766
   89bbb     C8 2662   0.907   6.604   7.061 -0.0586 -0.3191  0.1351
   89bbb    H15 2663   0.994   6.584   7.125 -0.1510 -1.0347  0.0396
   89bbb    H16 2664   0.907   6.714   7.071 -0.8063 -0.1012 -1.7215
   89bbb     C9 2665   0.883   6.971   6.431  0.5244 -0.5167 -0.3620
   89bbb    H17 2666   0.834   6.912   6.353  2.1327 -1.6127 -0.6045
   89bbb    H18 2667   0.961   7.040   6.397 -0.6428  2.2761  2.1285
   89bbb     O1 2668   1.177   6.576   6.571 -0.0279  0.4701  0.0962
   89bbb    H19 2669   1.004   6.668   6.676 -0.4852  1.5001 -2.9364
   90bbb     N1 2670   2.078   6.788   7.334  0.1320  0.5029  0.3150
   90bbb     C1 2671   2.098   6.848   7.473  0.5747  0.4365 -0.7433
   90bbb     H1 2672   2.201   6.885   7.474  0.8559 -0.2913  1.1187
   90bbb     H2 2673   2.106   6.762   7.539  0.2928 -0.4477 -1.8365
   90bbb     C2 2674   2.142   6.650   7.324 -0.1614  0.0875 -0.5180
   90bbb     H3 2675   2.237   6.673   7.374 -2.1494  1.2167  3.1020
   90bbb     H4 2676   2.159   6.622   7.220 -0.4657 -2.3802  0.0458
   90bbb     C3 2677   1.932   6.775   7.287 -0.5871  0.2563 -0.2066
   90bbb     H5 2678   1.887   6.872   7.308 -2.1544 -1.0635  3.4868
   90bbb     H6 2679   1.880   6.704   7.351  0.7098 -0.0627  0.5280
   90bbb     C4 2680   1.914   6.732   7.140 -0.0990 -0.4721  1.0974
   90bbb     H7 2681   1.986   6.655   7.112  0.0108 -0.1788  0.5622
   90bbb     H8 2682   1.932   6.821   7.078  0.7349 -0.0770  1.8782
   90bbb     C5 2683   2.003   6.963   7.520 -0.6234 -0.2156 -0.3058
   90bbb     H9 2684   1.901   6.924   7.514 -0.1612 -1.4524 -0.2434
   90bbb    H10 2685   2.007   7.051   7.454 -0.9175  0.7071  0.8568
   90bbb     C6 2686   2.084   6.526   7.396  0.2636 -0.5189  0.5284
   90bbb    H11 2687   1.986   6.498   7.355 -0.3183  1.7213  0.2972
   90bbb    H12 2688   2.069   6.544   7.503 -1.4944 -1.3540  0.4621
   90bbb     C7 2689   1.770   6.695   7.114 -0.6026 -0.2808  0.1946
   90bbb    H13 2690   1.706   6.783   7.115  0.2721  0.4441 -2.0847
   90bbb    H14 2691   1.732   6.620   7.184 -1.2212 -2.0902 -1.9501
   90bbb     C8 2692   2.170   6.404   7.377 -0.6842  0.0351 -0.1359
   90bbb    H15 2693   2.272   6.437   7.403 -0.1546  0.2136 -2.2972
   90bbb    H16 2694   2.142   6.324   7.446 -1.6665 -0.4639 -1.0905
   90bbb     C9 2695   2.027   6.997   7.667 -0.2252 -0.0085 -0.2309
   90bbb    H17 2696   2.002   6.915   7.735 -1.5375  1.2059  0.8097
   90bbb    H18 2697   1.979   7.091   7.694  1.0896  0.1252  1.7637
   90bbb     O1 2698   1.766   6.634   6.980 -0.3114 -0.0152  0.4588
   90bbb    H19 2699   2.128   6.858   7.278  0.1830  0.9434  0.9018
   91bbb     N1 2700  -0.192   6.962   6.335  0.7510 -0.5166 -0.0303
   91bbb     C1 2701  -0.269   6.831   6.374  0.4028  0.4180  0.1802
   91bbb     H1 2702  -0.254   6.749   6.303 -1.5997 -1.6141  1.9811
   91bbb     H2 2703  -0.374   6.856   6.362 -0.2658 -1.7372  1.0961
   91bbb     C2 2704  -0.236   7.089   6.407  0.8307 -0.3383 -0.5477
   91bbb     H3 2705  -0.175   7.171   6.368 -0.0023  0.6063  0.0756
   91bbb     H4 2706  -0.214   7.066   6.511 -1.1577 -2.2875 -0.4966
   91bbb     C3 2707  -0.043   6.938   6.347  0.0293  0.1490  0.4180
   91bbb     H5 2708  -0.019   6.855   6.280  3.1065  0.3117  1.1719
   91bbb     H6 2709  -0.015   6.906   6.447  0.7573  0.6957  0.3941
   91bbb     C4 2710   0.043   7.056   6.287  0.8935  0.6091 -0.5306
   91bbb     H7 2711   0.044   7.135   6.363  0.7198 -0.0934  0.2177
   91bbb     H8 2712  -0.002   7.089   6.192  0.7065 -1.1291 -1.0843
   91bbb     C5 2713  -0.248   6.774   6.519  0.6988 -0.3982  0.5114
   91bbb     H9 2714  -0.238   6.853   6.593 -0.4303  2.8506 -2.5205
   91bbb    H10 2715  -0.145   6.737   6.527  0.7545 -0.2661  0.4117
   91bbb     C6 2716  -0.382   7.131   6.406 -1.1710  0.4228  0.1970
   91bbb    H11 2717  -0.448   7.052   6.444 -1.3960  0.5764  0.1276
   91bbb    H12 2718  -0.414   7.154   6.304  2.1314 -1.3405 -1.3746
   91bbb     C7 2719   0.187   7.011   6.259 -0.8572 -0.6327 -0.2322
   91bbb    H13 2720   0.239   7.004   6.355 -2.1938  0.4161  0.6045
   91bbb    H14 2721   0.235   7.088   6.198  0.5471 -1.7042 -0.5251
   91bbb     C8 2722  -0.393   7.243   6.505 -0.1605 -0.0281 -0.2522
   91bbb    H15 2723  -0.496   7.281   6.503  0.0764  0.9510  2.0542
   91bbb    H16 2724  -0.379   7.196   6.603  0.4494  1.7532  0.5644
   91bbb     C9 2725  -0.342   6.656   6.547  0.0604  0.1398  0.4414
   91bbb    H17 2726  -0.320   6.600   6.638  3.1376 -1.0156 -0.8548
   91bbb    H18 2727  -0.321   6.582   6.468 -1.6575 -0.4324  0.4635
   91bbb     O1 2728   0.193   6.880   6.193  0.3210  0.5023 -0.1251
   91bbb    H19 2729  -0.212   6.978   6.235 -1.6926 -1.4323  0.2441
   92bbb     N1 2730   0.071   6.992   5.569 -0.1580  1.4057  0.1947
   92bbb     C1 2731   0.165   7.016   5.451 -0.2257 -0.0170 -0.3030
   92bbb     H1 2732   0.099   7.026   5.364 -1.2206  2.5308  0.6352
   92bbb     H2 2733   0.242   6.940   5.439  1.4117  1.4038  0.7205
   92bbb     C2 2734  -0.052   7.088   5.562 -0.7234 -0.3985  0.6828
   92bbb     H3 2735  -0.111   7.038   5.486 -0.1289  0.9516 -0.7211
   92bbb     H4 2736  -0.008   7.185   5.537  0.0227 -0.5920  1.2081
   92bbb     C3 2737   0.035   6.846   5.573  0.5931  0.3843  0.2364
   92bbb     H5 2738   0.019   6.811   5.471 -1.2112 -0.8208  0.8940
   92bbb     H6 2739  -0.051   6.824   5.636  2.9164 -0.0890  3.4818
   92bbb     C4 2740   0.147   6.768   5.644  0.9243 -0.1347  0.1024
   92bbb     H7 2741   0.174   6.823   5.735  1.0725 -0.0107 -0.0170
   92bbb     H8 2742   0.239   6.768   5.585 -0.7561  2.7440 -2.8233
   92bbb     C5 2743   0.255   7.150   5.469 -0.4112  0.2339  0.0027
   92bbb     H9 2744   0.325   7.120   5.547 -0.0702 -0.0146 -0.3958
   92bbb    H10 2745   0.193   7.236   5.499 -1.6149 -0.9574  1.0483
   92bbb     C6 2746  -0.131   7.102   5.696  0.1223 -0.0069 -0.1140
   92bbb    H11 2747  -0.058   7.127   5.774 -0.7853  1.5434  0.2865
   92bbb    H12 2748  -0.174   7.003   5.719 -2.5623  1.1260  0.1407
   92bbb     C7 2749   0.114   6.618   5.678  0.5534 -0.3980  0.0808
   92bbb    H13 2750   0.067   6.576   5.588  0.2330 -2.0355  0.9671
   92bbb    H14 2751   0.034   6.605   5.751  0.1421 -1.5422 -0.5523
   92bbb     C8 2752  -0.248   7.208   5.687 -0.1251  0.0508  0.0783
   92bbb    H15 2753  -0.335   7.159   5.640  1.1507 -1.9636 -0.3147
   92bbb    H16 2754  -0.272   7.240   5.789 -0.6995  1.2642 -0.4159
   92bbb     C9 2755   0.327   7.171   5.330  0.1405 -0.3536 -0.5671
   92bbb    H17 2756   0.390   7.082   5.315 -0.1971 -0.8444  0.8004
   92bbb    H18 2757   0.381   7.266   5.340  0.5366 -0.5422 -0.8341
   92bbb     O1 2758   0.227   6.538   5.720  0.3264  0.2583 -0.3167
   92bbb    H19 2759   0.130   7.011   5.651 -2.2777 -1.0424  2.4840
   93bbb     N1 2760   1.616   6.705   4.987  0.0356 -0.4239 -0.1351
   93bbb     C1 2761   1.547   6.838   4.967 -0.0287 -0.7186  0.8088
   93bbb     H1 2762   1.487   6.859   5.056  0.0770  1.2941  0.4530
   93bbb     H2 2763   1.484   6.840   4.878  0.2555  0.2173  0.6176
   93bbb     C2 2764   1.719   6.688   4.883  0.1687 -0.3683 -0.1406
   93bbb     H3 2765   1.785   6.610   4.921 -1.6952 -1.2945  1.3904
   93bbb     H4 2766   1.769   6.785   4.884  0.2627 -0.4261  0.9344
   93bbb     C3 2767   1.689   6.708   5.120 -0.0439 -0.2798 -0.0948
   93bbb     H5 2768   1.643   6.774   5.194 -1.2994 -1.4186  0.1849
   93bbb     H6 2769   1.788   6.744   5.091 -0.1252  0.4593  0.5290
   93bbb     C4 2770   1.703   6.575   5.196 -0.4600 -0.9539 -0.1722
   93bbb     H7 2771   1.755   6.597   5.289  2.8540  1.1217 -2.3365
   93bbb     H8 2772   1.775   6.514   5.140  0.8223  0.0384  0.3439
   93bbb     C5 2773   1.633   6.968   4.949 -0.5686 -0.6640 -0.4874
   93bbb     H9 2774   1.695   6.970   4.859  0.0786 -0.3659 -0.0470
   93bbb    H10 2775   1.704   6.963   5.033  0.2372  1.1688 -1.0102
   93bbb     C6 2776   1.650   6.642   4.749 -0.5594  0.4993  0.6194
   93bbb    H11 2777   1.590   6.724   4.709 -1.2658 -0.5995 -0.6262
   93bbb    H12 2778   1.583   6.557   4.767  0.9760 -0.6780  1.0212
   93bbb     C7 2779   1.576   6.498   5.226  0.1296  0.1596  0.5965
   93bbb    H13 2780   1.502   6.554   5.285 -0.1776 -1.6726  2.0452
   93bbb    H14 2781   1.597   6.406   5.282 -0.1536 -1.0813 -1.2722
   93bbb     C8 2782   1.758   6.607   4.637  0.3905  0.4467 -0.5973
   93bbb    H15 2783   1.699   6.571   4.552 -3.4939  1.0622  1.5874
   93bbb    H16 2784   1.811   6.693   4.595 -0.5700  1.0826 -0.5383
   93bbb     C9 2785   1.555   7.103   4.943 -0.2782 -0.8908  0.4360
   93bbb    H17 2786   1.626   7.187   4.945  0.2575 -1.3327  0.1959
   93bbb    H18 2787   1.478   7.114   5.019 -1.5054 -1.5897 -0.6656
   93bbb     O1 2788   1.515   6.458   5.096  0.4458  0.6282  0.4618
   93bbb    H19 2789   1.541   6.635   4.992 -0.8972  0.6248  1.3412
   94bbb     N1 2790   0.603   5.957   4.442 -0.3637 -0.3109 -0.3765
   94bbb     C1 2791   0.463   5.964   4.383  0.4326  0.2706  0.3034
   94bbb     H1 2792   0.410   5.989   4.475  0.7252 -0.7118  0.7456
   94bbb     H2 2793   0.433   5.865   4.346  0.7791  1.2676 -3.0338
   94bbb     C2 2794   0.699   5.879   4.348  0.1579  0.1574 -0.6014
   94bbb     H3 2795   0.708   5.937   4.257  0.3510 -0.3857 -0.9364
   94bbb     H4 2796   0.645   5.786   4.327  0.9686 -0.2645 -0.8630
   94bbb     C3 2797   0.648   6.102   4.456 -0.5584  0.4970 -0.1837
   94bbb     H5 2798   0.642   6.150   4.359  0.2751  0.6966 -0.1458
   94bbb     H6 2799   0.754   6.097   4.482 -0.5686 -1.3731 -0.3146
   94bbb     C4 2800   0.572   6.190   4.555  0.8610  0.0335  0.2606
   94bbb     H7 2801   0.535   6.127   4.637  0.9483 -1.7222 -0.9899
   94bbb     H8 2802   0.479   6.227   4.510  1.7750  3.8918  1.1491
   94bbb     C5 2803   0.435   6.067   4.272 -0.6929  0.0200  0.0966
   94bbb     H9 2804   0.529   6.081   4.218 -0.0999 -0.4344  1.0015
   94bbb    H10 2805   0.406   6.165   4.313 -1.6226 -0.8997  1.7571
   94bbb     C6 2806   0.835   5.846   4.414  0.5899  0.0692 -0.5061
   94bbb    H11 2807   0.818   5.785   4.504  1.9549 -0.9816 -0.9356
   94bbb    H12 2808   0.884   5.939   4.445 -0.6635  0.8042 -0.6631
   94bbb     C7 2809   0.661   6.296   4.619 -0.2556 -0.0502  0.6568
   94bbb    H13 2810   0.608   6.344   4.703 -1.6009 -2.6376  1.3852
   94bbb    H14 2811   0.680   6.371   4.541 -0.1328 -0.4532  0.2996
   94bbb     C8 2812   0.923   5.773   4.315 -0.2029  0.3240 -0.7114
   94bbb    H15 2813   1.024   5.770   4.357 -0.0657  0.8259 -1.0050
   94bbb    H16 2814   0.894   5.667   4.306  1.9571 -0.4029  0.2322
   94bbb     C9 2815   0.325   6.014   4.177 -0.6423 -0.0853 -0.5711
   94bbb    H17 2816   0.266   6.096   4.135 -0.1895  0.8333  0.5479
   94bbb    H18 2817   0.252   5.963   4.241 -1.5410  1.3703 -0.3843
   94bbb     O1 2818   0.785   6.241   4.665 -1.1897 -0.2795 -0.1596
   94bbb    H19 2819   0.600   5.913   4.535 -1.6415  1.9705  0.7386
   95ccc     C1 2820   3.527   3.974   1.331  0.0239  0.6161 -0.0257
   95ccc     H1 2821   3.521   3.866   1.341  2.1566  0.4300 -0.2148
   95ccc     H2 2822   3.528   4.010   1.228  0.9408 -1.3126 -0.7408
   95ccc     C2 2823   3.661   4.010   1.398  0.4919 -0.1661 -0.7226
   95ccc     H3 2824   3.657   3.982   1.504 -1.4863  1.3797 -0.3385
   95ccc     H4 2825   3.739   3.949   1.350  0.4345  0.2887 -1.4101
   95ccc     C3 2826   3.703   4.157   1.407 -0.0029  0.2677 -0.1696
   95ccc     H5 2827   3.691   4.201   1.307 -1.0248  1.3495  0.4123
   95ccc     H6 2828   3.803   4.163   1.452  0.5048  3.5521 -1.4852
   95ccc     N1 2829   3.395   4.026   1.390 -0.6083  0.1834  0.0410
   95ccc     H7 2830   3.311   3.990   1.342 -1.3774 -0.1068  1.5444
   95ccc     H8 2831   3.388   3.988   1.486 -0.7123 -4.2920 -1.5264
   95ccc     O1 2832   3.620   4.230   1.500 -0.4803  0.0740  0.4210
   95ccc    H17 2833   3.388   4.129   1.388  1.0664  0.3268  0.0457
   96ccc     C1 2834   3.500   4.982   1.601 -0.1595  0.6123  0.2383
   96ccc     H1 2835   3.528   5.020   1.503  1.9417  2.3973  1.4259
   96ccc     H2 2836   3.474   4.877   1.585  2.4838 -0.0465 -0.1769
   96ccc     C2 2837   3.392   5.071   1.653  0.1482  0.3418 -0.4896
   96ccc     H3 2838   3.434   5.172   1.659  1.4924 -0.2587  0.8663
   96ccc     H4 2839   3.313   5.057   1.578  1.5898  0.6046 -2.1359
   96ccc     C3 2840   3.322   5.025   1.792  0.1099  0.2987  0.6910
   96ccc     H5 2841   3.228   5.079   1.808  0.0647  0.4807 -0.1447
   96ccc     H6 2842   3.390   5.056   1.873  0.7513 -2.1781  1.1904
   96ccc     N1 2843   3.632   4.996   1.683 -0.1241  0.2913 -0.6792
   96ccc     H7 2844   3.676   5.088   1.699  0.0887  0.0013  0.5046
   96ccc     H8 2845   3.618   4.970   1.781 -2.6314 -1.0380 -1.3225
   96ccc     O1 2846   3.310   4.883   1.782 -0.1217 -0.0278 -0.4794
   96ccc    H17 2847   3.707   4.933   1.651  0.0563 -0.2508  0.7626
   97ccc     C1 2848   4.311   3.795   2.347  0.6177  0.1092 -0.3796
   97ccc     H1 2849   4.351   3.863   2.272  0.7887 -1.0302 -1.3655
   97ccc     H2 2850   4.252   3.719   2.296 -2.1835  1.4698  0.5958
   97ccc     C2 2851   4.221   3.841   2.462  0.3004 -0.2028  0.5181
   97ccc     H3 2852   4.204   3.752   2.523  0.5029 -1.4760 -1.1978
   97ccc     H4 2853   4.273   3.915   2.524 -0.9289  0.8661  0.3412
   97ccc     C3 2854   4.088   3.909   2.419 -0.4207 -0.0461  0.0394
   97ccc     H5 2855   4.038   3.838   2.352 -1.8801 -0.9760  2.0118
   97ccc     H6 2856   4.100   4.009   2.378  0.7592  0.4348  1.4702
   97ccc     N1 2857   4.437   3.736   2.396  0.1590 -0.7641 -0.7043
   97ccc     H7 2858   4.482   3.801   2.462  1.9168 -2.1864 -0.4185
   97ccc     H8 2859   4.417   3.648   2.447  3.0767 -2.2069 -1.8080
   97ccc     O1 2860   4.018   3.915   2.543 -0.7335 -0.3844  0.2586
   97ccc    H17 2861   4.505   3.717   2.321  0.8379 -0.3099 -0.2216
   98ccc     C1 2862   3.296   3.470   2.512  0.4648 -0.7696  0.3720
   98ccc     H1 2863   3.378   3.397   2.515 -0.2399 -1.5573  1.8245
   98ccc     H2 2864   3.343   3.566   2.489  1.4243 -1.2634  0.1965
   98ccc     C2 2865   3.223   3.480   2.645  0.5662  0.6713 -0.5151
   98ccc     H3 2866   3.148   3.560   2.640  0.6660  0.8901  0.9711
   98ccc     H4 2867   3.167   3.386   2.654  0.1435  0.7466 -2.1246
   98ccc     C3 2868   3.310   3.489   2.773  0.0970  0.0511 -0.0409
   98ccc     H5 2869   3.350   3.392   2.804 -0.3856  1.3450  5.6963
   98ccc     H6 2870   3.248   3.526   2.855 -1.0448  0.2647 -0.9736
   98ccc     N1 2871   3.203   3.432   2.393 -0.3847 -0.0021  0.3322
   98ccc     H7 2872   3.116   3.486   2.405  0.1413  0.4867  2.3726
   98ccc     H8 2873   3.256   3.440   2.305  4.1308  0.5415  2.8166
   98ccc     O1 2874   3.409   3.588   2.751  0.0775  0.1317  0.0787
   98ccc    H17 2875   3.172   3.333   2.393 -3.0279  0.6729 -2.3047
   99ccc     C1 2876   3.031   3.584   4.844  0.0985  0.3702 -0.3796
   99ccc     H1 2877   3.013   3.662   4.919  0.3762 -0.3865  0.4938
   99ccc     H2 2878   3.132   3.546   4.865  0.1347  0.0145 -1.1703
   99ccc     C2 2879   3.021   3.639   4.709  0.2440 -1.1887  0.6418
   99ccc     H3 2880   3.032   3.561   4.633 -2.4786  0.2812 -1.4447
   99ccc     H4 2881   2.926   3.690   4.691 -0.4650 -2.8227 -0.4772
   99ccc     C3 2882   3.140   3.744   4.686  0.4403 -0.5980  0.3422
   99ccc     H5 2883   3.234   3.692   4.664 -0.3479 -1.7795 -0.3851
   99ccc     H6 2884   3.149   3.809   4.774 -2.6498 -0.3142  0.5657
   99ccc     N1 2885   2.932   3.478   4.883  0.1793 -0.5176 -0.5284
   99ccc     H7 2886   2.945   3.429   4.973 -1.4046 -3.4496 -1.7368
   99ccc     H8 2887   2.832   3.499   4.865 -0.1403 -1.3632  0.1871
   99ccc     O1 2888   3.103   3.830   4.575 -0.6071 -0.1046  0.7627
   99ccc    H17 2889   2.946   3.402   4.815 -1.8967 -0.3323 -1.2361
  100ccc     C1 2890   3.675   4.619   3.908  0.6391  0.3065  0.4047
  100ccc     H1 2891   3.758   4.586   3.846  0.4645  1.4721 -0.4897
  100ccc     H2 2892   3.647   4.720   3.877  1.5616  0.1262 -1.0875
  100ccc     C2 2893   3.725   4.630   4.047 -0.5081  0.2180 -0.4510
  100ccc     H3 2894   3.802   4.708   4.045 -2.3886  2.1709 -0.2515
  100ccc     H4 2895   3.644   4.683   4.099 -0.6402  2.1067 -2.4212
  100ccc     C3 2896   3.766   4.505   4.125  0.2540  0.7732  0.5916
  100ccc     H5 2897   3.824   4.538   4.212  0.2344  2.2753  0.0596
  100ccc     H6 2898   3.829   4.439   4.064 -1.2419 -3.2548  2.9809
  100ccc     N1 2899   3.552   4.531   3.886 -0.3551 -0.9791 -0.6535
  100ccc     H7 2900   3.575   4.439   3.925  2.4300  0.5460  1.6850
  100ccc     H8 2901   3.473   4.567   3.941  1.0202  1.5632 -0.1838
  100ccc     O1 2902   3.644   4.431   4.169 -0.0175  0.1865  0.2244
  100ccc    H17 2903   3.528   4.524   3.786 -0.1395 -1.2749 -0.6853
  101ccc     C1 2904   2.678   5.461   4.633 -0.2796  0.0543  0.4172
  101ccc     H1 2905   2.622   5.530   4.570 -1.5692  0.1915  1.6459
  101ccc     H2 2906   2.695   5.508   4.730 -0.3246  0.7659  0.0866
  101ccc     C2 2907   2.819   5.457   4.565 -0.0559  0.3589 -0.1122
  101ccc     H3 2908   2.852   5.560   4.544  2.3086  0.0584  1.6693
  101ccc     H4 2909   2.898   5.427   4.635 -0.3058  0.5896  0.2777
  101ccc     C3 2910   2.825   5.364   4.435  0.0822  0.4893 -0.4050
  101ccc     H5 2911   2.920   5.383   4.384  0.2495 -3.1977 -1.7596
  101ccc     H6 2912   2.744   5.372   4.363  0.4526 -0.1706 -0.9069
  101ccc     N1 2913   2.607   5.330   4.643  0.3735  0.4192 -0.1530
  101ccc     H7 2914   2.661   5.260   4.695  0.7464  2.2229  2.0347
  101ccc     H8 2915   2.523   5.347   4.701  0.6334 -0.5640  0.5241
  101ccc     O1 2916   2.832   5.222   4.471  0.0836  0.0097  0.5158
  101ccc    H17 2917   2.569   5.291   4.555  0.4321  1.5327 -0.6952
  102ccc     C1 2918   2.763   4.283   4.854 -0.1063  0.4821 -0.0463
  102ccc     H1 2919   2.796   4.181   4.831  1.1677  0.3452  2.1250
  102ccc     H2 2920   2.724   4.323   4.760 -0.7157 -1.3560 -0.6251
  102ccc     C2 2921   2.890   4.357   4.887 -0.5203  0.5377 -0.3376
  102ccc     H3 2922   2.950   4.294   4.954 -0.0353 -0.3531 -1.5570
  102ccc     H4 2923   2.957   4.361   4.799 -0.2850 -0.5984 -0.2300
  102ccc     C3 2924   2.875   4.503   4.940 -0.2553  0.3081 -0.5572
  102ccc     H5 2925   2.976   4.542   4.957 -0.0694  0.1651 -1.3024
  102ccc     H6 2926   2.809   4.511   5.027  1.1892  0.5247  0.5652
  102ccc     N1 2927   2.669   4.277   4.969 -0.2168 -0.6536  0.2724
  102ccc     H7 2928   2.611   4.360   4.985  0.0280 -0.5792  0.7939
  102ccc     H8 2929   2.609   4.193   4.970 -0.9011 -0.1761  1.8916
  102ccc     O1 2930   2.820   4.580   4.832  0.0168 -0.0606 -0.2775
  102ccc    H17 2931   2.723   4.269   5.056  0.4352 -0.6532 -0.1252
  103ccc     C1 2932   0.772   5.148   0.751  0.2047 -0.5793 -0.0645
  103ccc     H1 2933   0.672   5.160   0.792  0.2508  2.0046 -0.5225
  103ccc     H2 2934   0.802   5.046   0.730 -1.4628 -0.9596 -0.7572
  103ccc     C2 2935   0.868   5.200   0.856 -0.7477  0.2216 -0.3414
  103ccc     H3 2936   0.950   5.252   0.805 -0.2764  0.2238  0.4196
  103ccc     H4 2937   0.811   5.270   0.918 -1.6361 -1.3244  0.6645
  103ccc     C3 2938   0.929   5.097   0.964 -0.3726 -0.1980 -0.6088
  103ccc     H5 2939   0.963   5.008   0.910 -0.9093 -1.5945  1.2800
  103ccc     H6 2940   0.855   5.070   1.040  2.8535 -4.6058  1.4220
  103ccc     N1 2941   0.779   5.230   0.628  0.1981 -0.0601 -0.7370
  103ccc     H7 2942   0.708   5.205   0.557  0.8456  1.5100 -1.9914
  103ccc     H8 2943   0.754   5.325   0.657  1.8164  0.6111 -1.4377
  103ccc     O1 2944   1.044   5.167   1.026 -0.1926  0.2479 -0.4622
  103ccc    H17 2945   0.871   5.230   0.582  0.3667 -0.0846 -0.4040
  104ccc     C1 2946   1.990   5.732   0.655 -0.4402 -0.0454 -0.0424
  104ccc     H1 2947   2.074   5.785   0.700 -1.7287  1.6637  0.4166
  104ccc     H2 2948   1.924   5.808   0.613  0.9047  0.8593 -0.5975
  104ccc     C2 2949   1.919   5.639   0.755  0.7875  0.0860 -0.0570
  104ccc     H3 2950   1.981   5.549   0.761  3.0933  1.6684  1.5652
  104ccc     H4 2951   1.933   5.688   0.853  1.2720 -0.2793  0.0580
  104ccc     C3 2952   1.771   5.611   0.724  0.2149  0.3890  0.5434
  104ccc     H5 2953   1.775   5.572   0.621 -0.9315  0.5125  0.4428
  104ccc     H6 2954   1.716   5.705   0.737  0.5844  0.3694  2.6078
  104ccc     N1 2955   2.048   5.660   0.537  0.3053 -0.2380 -0.0499
  104ccc     H7 2956   1.977   5.596   0.497 -2.3447  1.7039  1.2457
  104ccc     H8 2957   2.060   5.737   0.470  2.1052  0.6443  1.2266
  104ccc     O1 2958   1.714   5.514   0.813 -0.2688  0.0388  0.0272
  104ccc    H17 2959   2.129   5.603   0.564  0.3221  0.6757  1.9861
  105ccc     C1 2960   2.091   3.489   1.298  0.0407  0.0068 -0.8773
  105ccc     H1 2961   2.012   3.564   1.288  0.7201  1.0068  0.8379
  105ccc     H2 2962   2.149   3.531   1.381 -2.1147 -1.9795  1.8344
  105ccc     C2 2963   2.186   3.474   1.179  0.4224 -0.3260 -0.2643
  105ccc     H3 2964   2.235   3.376   1.185 -1.3047 -1.1990  0.0022
  105ccc     H4 2965   2.120   3.472   1.091 -2.6227  1.6232  1.7780
  105ccc     C3 2966   2.287   3.586   1.180 -0.0350  0.7338  0.0688
  105ccc     H5 2967   2.363   3.566   1.103 -0.2908  0.2534 -0.0664
  105ccc     H6 2968   2.334   3.592   1.279 -0.5531 -1.3843  0.4970
  105ccc     N1 2969   2.028   3.353   1.347  0.2048 -0.2309 -0.2514
  105ccc     H7 2970   1.994   3.348   1.444 -0.4664 -2.1885 -0.5551
  105ccc     H8 2971   1.966   3.313   1.275  1.8714 -1.7711 -0.9230
  105ccc     O1 2972   2.218   3.708   1.160  0.5864  0.1954 -0.1051
  105ccc    H17 2973   2.111   3.292   1.352  1.1620  1.1366  1.2912
  106ccc     C1 2974   2.274   4.729   0.656  0.3637  0.4241  0.0594
  106ccc     H1 2975   2.204   4.707   0.736 -0.1784  0.5766 -0.3631
  106ccc     H2 2976   2.236   4.737   0.554  1.6678  1.2966 -0.3821
  106ccc     C2 2977   2.375   4.612   0.656  0.2699  0.0754 -0.1731
  106ccc     H3 2978   2.438   4.612   0.566  0.5797  1.3476  0.0286
  106ccc     H4 2979   2.436   4.629   0.745  1.2144 -1.5844 -0.4681
  106ccc     C3 2980   2.306   4.476   0.665 -0.2875  0.3535  0.1670
  106ccc     H5 2981   2.379   4.400   0.693  1.6098  2.4087  1.1643
  106ccc     H6 2982   2.258   4.453   0.569 -1.9441 -4.0268  1.8269
  106ccc     N1 2983   2.338   4.859   0.694  0.0234  0.0854  0.3613
  106ccc     H7 2984   2.268   4.934   0.690 -0.2199 -0.1832 -0.8797
  106ccc     H8 2985   2.381   4.861   0.787 -0.1399  3.1971  0.4751
  106ccc     O1 2986   2.202   4.477   0.766 -0.5966 -0.3201  0.3333
  106ccc    H17 2987   2.406   4.880   0.620  0.7470 -2.2795  0.2704
  107ccc     C1 2988   3.969   5.404   2.239  0.2752  0.6323  0.2797
  107ccc     H1 2989   3.925   5.326   2.176  0.5838 -0.2636  1.1375
  107ccc     H2 2990   3.939   5.373   2.340  0.0320  0.6200  0.2057
  107ccc     C2 2991   3.901   5.536   2.194 -0.5539 -0.4514 -0.3167
  107ccc     H3 2992   3.918   5.609   2.273  0.9077 -2.5495  1.4202
  107ccc     H4 2993   3.952   5.583   2.109 -0.6323  0.7718  0.2987
  107ccc     C3 2994   3.755   5.518   2.166  0.2933  0.4874  0.3163
  107ccc     H5 2995   3.743   5.437   2.093 -0.6244 -0.2763  1.2857
  107ccc     H6 2996   3.716   5.614   2.130  0.8297  0.8473  0.6717
  107ccc     N1 2997   4.115   5.407   2.223  0.0304 -0.1234  0.2486
  107ccc     H7 2998   4.151   5.311   2.220  0.3979  0.0234 -0.2574
  107ccc     H8 2999   4.126   5.447   2.128 -3.5771  1.5355  0.3683
  107ccc     O1 3000   3.688   5.484   2.294 -0.1656 -0.0241 -0.1855
  107ccc    H17 3001   4.157   5.457   2.302 -1.1035 -0.6018  1.1756
  108ccc     C1 3002   3.638   5.761   3.014 -0.1577  0.2247  0.2051
  108ccc     H1 3003   3.601   5.863   3.022 -1.6146 -0.2982  0.3572
  108ccc     H2 3004   3.628   5.736   2.909  2.8745  0.1063 -0.1512
  108ccc     C2 3005   3.553   5.661   3.101  0.7686  0.3802 -0.4423
  108ccc     H3 3006   3.578   5.555   3.091  1.2686  0.4529 -0.0014
  108ccc     H4 3007   3.573   5.681   3.207 -1.0823  0.0733  0.0056
  108ccc     C3 3008   3.402   5.676   3.078 -0.0346  0.7976  0.1228
  108ccc     H5 3009   3.369   5.777   3.104  0.8255  0.7484  1.4821
  108ccc     H6 3010   3.345   5.614   3.149 -0.3257 -0.3009 -1.0292
  108ccc     N1 3011   3.786   5.772   3.048  0.1328 -0.5112 -0.2222
  108ccc     H7 3012   3.795   5.802   3.146 -0.1252  0.6493 -0.5447
  108ccc     H8 3013   3.829   5.678   3.040 -0.5825 -0.9210  0.5192
  108ccc     O1 3014   3.383   5.645   2.939  0.1838  0.4938  0.4450
  108ccc    H17 3015   3.831   5.843   2.988 -0.3227  0.4703  0.5683
  109ccc     C1 3016   2.838   5.656   0.417  0.0554  0.8716  0.1930
  109ccc     H1 3017   2.731   5.678   0.422 -0.1961  0.7916 -2.7474
  109ccc     H2 3018   2.835   5.572   0.347 -0.5353  2.0427 -1.2534
  109ccc     C2 3019   2.908   5.632   0.556  0.0700  1.4570 -0.3382
  109ccc     H3 3020   3.005   5.585   0.537 -0.8729 -0.5735 -0.3269
  109ccc     H4 3021   2.913   5.728   0.609  2.1162  1.0501  0.2917
  109ccc     C3 3022   2.813   5.531   0.628 -0.3118 -0.5850 -0.6873
  109ccc     H5 3023   2.808   5.438   0.570 -3.1385 -0.1587 -1.2501
  109ccc     H6 3024   2.714   5.576   0.643 -0.1301 -0.8200  1.6391
  109ccc     N1 3025   2.886   5.773   0.335  0.3380  0.3891 -0.2133
  109ccc     H7 3026   2.847   5.859   0.376  0.6363  0.4539 -0.0634
  109ccc     H8 3027   2.989   5.778   0.340  0.4164 -1.1888  4.6781
  109ccc     O1 3028   2.875   5.512   0.757  0.0780 -0.1727  0.7242
  109ccc    H17 3029   2.853   5.767   0.237 -0.8688  0.8960  0.1463
  110ccc     C1 3030   3.298   5.847   1.304 -0.8955  0.0699  0.4217
  110ccc     H1 3031   3.332   5.744   1.289 -1.7213 -0.3498  1.3443
  110ccc     H2 3032   3.277   5.879   1.407  1.2965  0.6611  0.7450
  110ccc     C2 3033   3.171   5.858   1.214 -0.0876 -0.6241 -0.0535
  110ccc     H3 3034   3.141   5.963   1.202  1.0602 -0.6013 -4.2758
  110ccc     H4 3035   3.182   5.825   1.110 -0.7056 -2.4129  0.4162
  110ccc     C3 3036   3.059   5.778   1.282 -0.7007 -0.0929  0.8211
  110ccc     H5 3037   2.974   5.774   1.213  0.1010  1.8427 -0.3751
  110ccc     H6 3038   3.025   5.822   1.377 -0.0812 -0.8464  1.4131
  110ccc     N1 3039   3.409   5.933   1.250 -0.3990  0.3523 -0.2600
  110ccc     H7 3040   3.435   5.910   1.153  0.9057  1.5257 -0.2137
  110ccc     H8 3041   3.374   6.029   1.261 -1.4102 -0.0941  0.6406
  110ccc     O1 3042   3.104   5.646   1.314 -0.0472 -0.2441  0.2486
  110ccc    H17 3043   3.492   5.922   1.310 -0.3858 -0.9539 -0.4897
  111ccc     C1 3044  -0.772   6.712   2.900  0.9013 -0.3009 -0.3566
  111ccc     H1 3045  -0.691   6.695   2.971 -0.5999 -1.3985  1.1909
  111ccc     H2 3046  -0.821   6.617   2.880 -0.4990  0.4342 -0.5457
  111ccc     C2 3047  -0.711   6.764   2.771  0.2826 -0.4966 -0.2840
  111ccc     H3 3048  -0.789   6.789   2.698  0.2425 -0.8222 -0.3544
  111ccc     H4 3049  -0.663   6.863   2.770 -1.8289  0.5850 -2.0550
  111ccc     C3 3050  -0.619   6.665   2.714 -0.3348  0.7150  0.4537
  111ccc     H5 3051  -0.589   6.681   2.610 -1.0997  2.0017  0.4037
  111ccc     H6 3052  -0.660   6.564   2.724 -2.2610  1.4425  0.3476
  111ccc     N1 3053  -0.875   6.804   2.977  0.3643  0.3617  0.0204
  111ccc     H7 3054  -0.970   6.768   2.959  1.6297 -2.1605 -2.2900
  111ccc     H8 3055  -0.852   6.799   3.077  1.1227  0.8597 -0.1151
  111ccc     O1 3056  -0.502   6.669   2.804  0.8390 -0.5835  0.1664
  111ccc    H17 3057  -0.862   6.903   2.950  1.9451 -0.0173 -0.7302
  112ccc     C1 3058  -0.471   7.207   3.063 -0.2512 -0.3327  0.1807
  112ccc     H1 3059  -0.550   7.132   3.057 -1.6404  1.1991 -3.7790
  112ccc     H2 3060  -0.383   7.174   3.008 -0.0443  2.8127 -1.6310
  112ccc     C2 3061  -0.438   7.238   3.208  0.5360  0.3948  1.1444
  112ccc     H3 3062  -0.357   7.311   3.208  1.4167 -0.5149  3.2068
  112ccc     H4 3063  -0.528   7.278   3.256 -0.9095 -0.1304 -0.9778
  112ccc     C3 3064  -0.384   7.116   3.284 -0.4859  0.3241  0.3218
  112ccc     H5 3065  -0.462   7.040   3.296 -1.3757  1.3704  1.3985
  112ccc     H6 3066  -0.376   7.150   3.388 -4.0502 -0.6755  1.0362
  112ccc     N1 3067  -0.530   7.328   2.986  0.2822  0.4872 -0.1940
  112ccc     H7 3068  -0.471   7.411   3.002  1.6269 -0.2737 -1.0347
  112ccc     H8 3069  -0.525   7.306   2.886  0.0203  1.1125 -0.3491
  112ccc     O1 3070  -0.264   7.061   3.220 -0.6683 -0.4776  0.6030
  112ccc    H17 3071  -0.627   7.338   3.018 -0.0807  1.3130 -1.5102
  113ccc     C1 3072   0.406   6.109   2.162 -0.8343 -0.5304 -0.0085
  113ccc     H1 3073   0.383   6.035   2.239 -0.1755 -0.0473  0.6593
  113ccc     H2 3074   0.459   6.198   2.194  0.6975 -0.4285 -2.5469
  113ccc     C2 3075   0.265   6.163   2.109  0.1693  0.0031 -0.5908
  113ccc     H3 3076   0.272   6.247   2.040 -1.5998  0.8999  0.2596
  113ccc     H4 3077   0.201   6.082   2.071 -1.1272 -1.0459  3.2867
  113ccc     C3 3078   0.187   6.207   2.233 -0.2717 -0.7167  0.2311
  113ccc     H5 3079   0.093   6.254   2.201 -0.2776 -0.5786  0.4466
  113ccc     H6 3080   0.251   6.282   2.282  1.1199 -1.2631 -0.6790
  113ccc     N1 3081   0.495   6.041   2.058  0.1786 -0.3034  0.1000
  113ccc     H7 3082   0.459   5.952   2.020  0.6897 -0.5213  0.1282
  113ccc     H8 3083   0.504   6.102   1.976  0.1483  0.2818  0.5222
  113ccc     O1 3084   0.165   6.102   2.323 -0.3653  0.3813  0.7684
  113ccc    H17 3085   0.591   6.026   2.091  1.2356  0.0900 -2.5928
  114ccc     C1 3086   0.274   5.314   2.060  0.3074 -0.6069  0.6769
  114ccc     H1 3087   0.179   5.329   2.007  0.2197  1.8084  1.4129
  114ccc     H2 3088   0.270   5.214   2.104  0.7585 -0.7037  0.5030
  114ccc     C2 3089   0.279   5.418   2.171  0.5665  0.2090  0.2021
  114ccc     H3 3090   0.375   5.405   2.224 -1.0786 -1.0425  3.1373
  114ccc     H4 3091   0.278   5.517   2.125 -0.5234  0.6204  1.0692
  114ccc     C3 3092   0.157   5.402   2.265  0.4335 -0.1953  0.3647
  114ccc     H5 3093   0.137   5.294   2.272  1.9594 -0.7723 -2.6202
  114ccc     H6 3094   0.083   5.440   2.193  0.9035 -0.3199 -0.1871
  114ccc     N1 3095   0.389   5.308   1.960  0.5608 -0.0377 -0.2671
  114ccc     H7 3096   0.387   5.391   1.899  2.8027 -0.0072 -0.3659
  114ccc     H8 3097   0.479   5.297   2.009 -0.0769 -1.1443  0.7306
  114ccc     O1 3098   0.170   5.484   2.385 -0.4741  0.4237 -0.1868
  114ccc    H17 3099   0.372   5.225   1.901  0.2888  0.9762 -1.6675
  115ccc     C1 3100   1.163   7.626   1.603  0.0753 -0.3642 -0.0680
  115ccc     H1 3101   1.248   7.577   1.556  0.1502  2.2893 -3.0676
  115ccc     H2 3102   1.190   7.687   1.689  1.1620 -0.3263 -0.4262
  115ccc     C2 3103   1.046   7.522   1.642  0.0420 -0.2334 -0.8933
  115ccc     H3 3104   0.957   7.585   1.654 -1.1988 -1.9118 -0.8427
  115ccc     H4 3105   1.027   7.454   1.558 -0.8425  0.1170 -0.9873
  115ccc     C3 3106   1.080   7.446   1.772  0.6936  0.5898  0.3970
  115ccc     H5 3107   1.153   7.372   1.737 -0.8872 -0.6742 -0.3706
  115ccc     H6 3108   0.989   7.397   1.811  1.3994 -1.5510 -0.4828
  115ccc     N1 3109   1.126   7.731   1.505 -0.3560  0.1120  0.1592
  115ccc     H7 3110   1.209   7.790   1.491  0.0048 -0.5729 -0.7192
  115ccc     H8 3111   1.093   7.688   1.417 -2.3403  2.1428 -0.1830
  115ccc     O1 3112   1.136   7.537   1.870  0.0603 -0.0688  0.4440
  115ccc    H17 3113   1.057   7.800   1.538 -0.0942  0.5282 -0.1561
  116ccc     C1 3114   1.247   8.162   2.423  0.0652 -1.1701 -0.5416
  116ccc     H1 3115   1.329   8.134   2.490 -0.5093  2.3930  1.9791
  116ccc     H2 3116   1.236   8.269   2.409 -1.8966 -1.2494  0.0717
  116ccc     C2 3117   1.116   8.111   2.481 -0.1515 -0.1089 -1.1170
  116ccc     H3 3118   1.076   8.195   2.540  0.2825 -0.7682  0.1602
  116ccc     H4 3119   1.039   8.086   2.408 -3.0160  0.4761  1.4640
  116ccc     C3 3120   1.130   7.988   2.577 -0.2483  0.4051 -0.6103
  116ccc     H5 3121   1.033   7.970   2.625 -0.6326  0.8946 -1.1924
  116ccc     H6 3122   1.201   8.013   2.656 -1.4371 -0.6913  0.8613
  116ccc     N1 3123   1.273   8.118   2.278  0.3311  0.0192 -0.0749
  116ccc     H7 3124   1.335   8.186   2.233 -2.2440  2.8794  0.3668
  116ccc     H8 3125   1.311   8.022   2.274  0.9031  0.2772 -1.1380
  116ccc     O1 3126   1.184   7.880   2.500  0.1377  0.1730 -0.0376
  116ccc    H17 3127   1.188   8.121   2.220 -0.5836  1.7443  1.2693
  117ccc     C1 3128   1.413   6.733   1.720 -0.2720  0.4243  0.3989
  117ccc     H1 3129   1.354   6.820   1.749  0.3869  1.0280 -0.0437
  117ccc     H2 3130   1.432   6.683   1.815  0.2306  1.3267  0.7847
  117ccc     C2 3131   1.545   6.788   1.662  0.5079 -1.2124 -0.7328
  117ccc     H3 3132   1.603   6.703   1.625  2.9075 -1.1520  2.4743
  117ccc     H4 3133   1.528   6.846   1.571  2.4204 -0.3926 -0.6088
  117ccc     C3 3134   1.635   6.853   1.769  1.0419  0.4920 -0.1226
  117ccc     H5 3135   1.594   6.937   1.827  1.4982  0.0646  0.8312
  117ccc     H6 3136   1.726   6.885   1.717  1.4907  0.1058  0.4116
  117ccc     N1 3137   1.322   6.643   1.643 -0.7006  0.3520  0.6697
  117ccc     H7 3138   1.306   6.683   1.550 -0.6985  1.5383  1.1532
  117ccc     H8 3139   1.348   6.544   1.655  0.9549  0.6628 -0.0859
  117ccc     O1 3140   1.675   6.751   1.862  0.2628 -0.0144 -0.5166
  117ccc    H17 3141   1.231   6.648   1.691 -0.5519 -0.1624  1.0136
  118ccc     C1 3142   1.797   5.926   2.587 -0.3050 -0.2661  0.1431
  118ccc     H1 3143   1.847   6.020   2.609  1.5940 -1.5521  1.6946
  118ccc     H2 3144   1.839   5.886   2.494 -1.2954 -1.2424  0.0914
  118ccc     C2 3145   1.646   5.942   2.579  0.7539  0.1046 -0.5723
  118ccc     H3 3146   1.597   5.844   2.566 -1.2241  1.1464 -1.3923
  118ccc     H4 3147   1.604   5.981   2.673 -0.0073  0.0832 -0.8981
  118ccc     C3 3148   1.617   6.042   2.469 -0.2644 -0.2809  0.4313
  118ccc     H5 3149   1.515   6.081   2.479  0.2734  1.0765  0.8930
  118ccc     H6 3150   1.616   5.992   2.371 -2.0669  0.3256  0.1010
  118ccc     N1 3151   1.842   5.830   2.698 -0.3615  0.1281  0.3204
  118ccc     H7 3152   1.944   5.822   2.687 -0.5100  0.0799 -1.2804
  118ccc     H8 3153   1.821   5.864   2.793 -4.9444  1.4734 -0.9072
  118ccc     O1 3154   1.711   6.153   2.461 -0.2207  0.1600 -0.5440
  118ccc    H17 3155   1.808   5.733   2.689 -0.3663  0.2213 -0.7679
  119ccc     C1 3156   3.125   6.326   3.774  0.2705  0.3336 -0.0854
  119ccc     H1 3157   3.177   6.347   3.868  0.4658  0.7168 -0.2745
  119ccc     H2 3158   3.099   6.412   3.711 -0.1770  0.5165  0.3484
  119ccc     C2 3159   2.990   6.279   3.807  0.4175  0.3171 -0.0141
  119ccc     H3 3160   2.939   6.350   3.873  1.3546 -0.6135  1.7595
  119ccc     H4 3161   2.935   6.289   3.712  0.6594  1.6282 -0.0352
  119ccc     C3 3162   2.979   6.133   3.862  0.6135 -0.0514  0.1039
  119ccc     H5 3163   2.979   6.052   3.789 -0.2124  0.8527 -0.9451
  119ccc     H6 3164   2.879   6.120   3.904  0.3891 -0.6956 -0.6125
  119ccc     N1 3165   3.198   6.232   3.688  0.4644  0.2218  0.0237
  119ccc     H7 3166   3.294   6.263   3.668 -0.2997  1.0509 -2.9194
  119ccc     H8 3167   3.209   6.138   3.730  0.0114  0.1898  0.0820
  119ccc     O1 3168   3.070   6.114   3.969 -0.6384 -0.3909 -0.7742
  119ccc    H17 3169   3.159   6.217   3.593  1.3318  3.6127 -1.0019
  120ccc     C1 3170   2.730   5.902   4.893  0.1030 -0.0409 -0.9154
  120ccc     H1 3171   2.794   5.987   4.918  0.1582 -0.3345 -0.0138
  120ccc     H2 3172   2.758   5.815   4.953  1.3464  0.8357 -0.1859
  120ccc     C2 3173   2.747   5.860   4.747  0.5165  0.6007 -0.2456
  120ccc     H3 3174   2.686   5.772   4.727  0.6374  0.3709  0.3706
  120ccc     H4 3175   2.714   5.945   4.687 -2.7995  0.0174  0.5448
  120ccc     C3 3176   2.891   5.819   4.728 -0.0705 -0.6066  0.1725
  120ccc     H5 3177   2.902   5.760   4.636  2.8005 -0.9252  0.6086
  120ccc     H6 3178   2.932   5.767   4.815 -0.6066  1.1769  1.5428
  120ccc     N1 3179   2.585   5.939   4.932  0.3582  0.2487  0.1145
  120ccc     H7 3180   2.516   5.879   4.886  1.3611  0.1681 -1.3546
  120ccc     H8 3181   2.580   5.933   5.035  1.5319 -0.5838  0.1499
  120ccc     O1 3182   2.962   5.941   4.706 -0.3597 -0.1763  0.1326
  120ccc    H17 3183   2.566   6.037   4.907 -2.8948  0.3950  2.4680
  121ccc     C1 3184   2.972   7.917   4.931  0.5323  0.0677  0.0299
  121ccc     H1 3185   3.014   7.870   5.021 -1.0925 -0.3268  0.6051
  121ccc     H2 3186   2.945   8.019   4.958 -1.2596 -0.8541  1.9752
  121ccc     C2 3187   2.843   7.842   4.894  0.3638 -0.1837 -0.2535
  121ccc     H3 3188   2.772   7.853   4.977 -1.0163  0.0727 -1.4236
  121ccc     H4 3189   2.795   7.889   4.807 -0.2002  0.0788  0.1890
  121ccc     C3 3190   2.865   7.692   4.882 -0.0879  0.2334  0.4992
  121ccc     H5 3191   2.881   7.646   4.981 -2.7493 -0.6721  0.5869
  121ccc     H6 3192   2.954   7.662   4.826 -0.3194 -3.8775  2.0139
  121ccc     N1 3193   3.084   7.935   4.824 -0.0524  0.4800  0.2836
  121ccc     H7 3194   3.165   7.985   4.863  1.4021 -1.4440 -0.0952
  121ccc     H8 3195   3.117   7.844   4.789 -1.9161  0.2857 -1.1271
  121ccc     O1 3196   2.742   7.637   4.832  0.0724  0.6214 -0.0933
  121ccc    H17 3197   3.046   7.986   4.743  0.0907 -1.1870 -0.8773
  122ccc     C1 3198   1.979   7.887   4.516  0.1755 -0.6197  0.2871
  122ccc     H1 3199   1.893   7.876   4.582 -0.1230  1.4083  0.3201
  122ccc     H2 3200   1.954   7.905   4.411 -0.3202  1.0939  0.6588
  122ccc     C2 3201   2.072   7.763   4.508  0.1032 -0.3184 -0.2832
  122ccc     H3 3202   2.100   7.740   4.612 -1.1067  0.5631  0.2642
  122ccc     H4 3203   2.018   7.682   4.459  0.7236 -0.1060 -1.3373
  122ccc     C3 3204   2.196   7.800   4.433 -0.3066  0.4094  0.4118
  122ccc     H5 3205   2.239   7.889   4.479  0.2122  0.0371  0.6556
  122ccc     H6 3206   2.160   7.807   4.330  1.6915 -0.7427 -0.4083
  122ccc     N1 3207   2.042   8.021   4.554  0.7769  0.4184  0.2244
  122ccc     H7 3208   2.081   8.030   4.649 -0.4928 -0.9339  0.9197
  122ccc     H8 3209   2.122   8.040   4.491  0.9289 -1.5736 -0.2498
  122ccc     O1 3210   2.292   7.691   4.426 -0.1934 -0.2103 -0.0819
  122ccc    H17 3211   1.972   8.095   4.539 -0.3030 -0.5933  0.0964
  123ccc     C1 3212   2.926   7.911   3.081 -0.0183 -0.1296 -0.0248
  123ccc     H1 3213   2.916   7.811   3.123 -1.7085 -0.9272 -2.1127
  123ccc     H2 3214   2.886   7.989   3.145 -1.8902 -2.1099  1.3461
  123ccc     C2 3215   2.851   7.923   2.949  0.2975 -0.1206  0.0795
  123ccc     H3 3216   2.872   8.021   2.905 -0.8120 -0.2388 -0.7666
  123ccc     H4 3217   2.879   7.850   2.872  0.0784  1.5548 -1.6682
  123ccc     C3 3218   2.702   7.908   2.978  0.1280  0.6582 -0.2245
  123ccc     H5 3219   2.655   7.942   2.885 -0.2588 -0.6110 -0.5106
  123ccc     H6 3220   2.673   7.966   3.066 -0.8029 -0.2863  0.1055
  123ccc     N1 3221   3.070   7.938   3.054  0.1655  0.2780 -0.2970
  123ccc     H7 3222   3.115   7.845   3.047 -2.1659 -1.0783  1.2326
  123ccc     H8 3223   3.086   7.997   2.971  0.3422  2.4717  1.1969
  123ccc     O1 3224   2.681   7.768   2.995  0.2697  0.7076  0.4337
  123ccc    H17 3225   3.108   7.983   3.139 -2.5100 -1.4282  1.9674
  124ccc     C1 3226   3.189   7.127   2.860  0.5252 -0.1242  0.1903
  124ccc     H1 3227   3.160   7.022   2.856  0.7940 -0.1695 -0.8638
  124ccc     H2 3228   3.138   7.175   2.944 -0.8788 -1.8294  0.3588
  124ccc     C2 3229   3.142   7.200   2.727 -0.6802  0.0566 -0.5473
  124ccc     H3 3230   3.161   7.308   2.737  3.0810 -0.2505 -2.5437
  124ccc     H4 3231   3.200   7.165   2.641 -0.0823 -0.8467  0.1976
  124ccc     C3 3232   3.000   7.161   2.694  0.8218  0.1671  0.2098
  124ccc     H5 3233   2.985   7.053   2.679 -0.7716  0.5718 -1.3981
  124ccc     H6 3234   2.983   7.207   2.596  2.2070  0.8702  0.2684
  124ccc     N1 3235   3.335   7.120   2.873  0.1301  0.2249 -0.2675
  124ccc     H7 3236   3.367   7.213   2.903 -0.9597  0.1437  1.2519
  124ccc     H8 3237   3.362   7.045   2.937 -0.0521  0.2371 -0.1753
  124ccc     O1 3238   2.905   7.201   2.794 -0.0606 -0.0275 -0.5691
  124ccc    H17 3239   3.382   7.102   2.783  0.4998 -1.0851  0.1728
  125ccc     C1 3240   3.079   7.561   1.661  0.3407  0.5216  0.1842
  125ccc     H1 3241   3.077   7.495   1.573  1.0064 -0.7922  1.1197
  125ccc     H2 3242   3.176   7.602   1.689  0.8073 -0.2337 -0.2973
  125ccc     C2 3243   3.009   7.486   1.781 -0.0750  0.8411 -0.2422
  125ccc     H3 3244   3.025   7.544   1.872 -1.8119  0.1611  0.5353
  125ccc     H4 3245   2.902   7.466   1.765 -0.1319  2.4204 -2.2374
  125ccc     C3 3246   3.075   7.345   1.807 -0.2179  0.6108 -1.2276
  125ccc     H5 3247   3.180   7.338   1.841 -0.8196 -0.3358  0.5304
  125ccc     H6 3248   3.071   7.280   1.719  2.1023  0.2641 -1.1484
  125ccc     N1 3249   2.998   7.688   1.622 -0.2967  0.1582 -0.3890
  125ccc     H7 3250   2.968   7.745   1.703 -0.7364  1.9688 -1.7634
  125ccc     H8 3251   3.054   7.746   1.558  0.4918 -0.4834 -0.2928
  125ccc     O1 3252   3.000   7.278   1.905  0.4864  0.1631  0.7030
  125ccc    H17 3253   2.914   7.660   1.570  0.1538  0.4256 -1.2890
  126ccc     C1 3254   2.556   7.053   1.420  0.2471 -0.6345  0.1719
  126ccc     H1 3255   2.621   6.973   1.383 -1.0326 -0.9213 -1.6005
  126ccc     H2 3256   2.581   7.080   1.522  0.4073  0.2455 -0.0936
  126ccc     C2 3257   2.416   6.989   1.413 -0.1208 -0.0379  0.4373
  126ccc     H3 3258   2.355   7.080   1.416  1.3968  1.0154  0.8803
  126ccc     H4 3259   2.392   6.935   1.320 -2.5474 -0.1518  1.0592
  126ccc     C3 3260   2.384   6.896   1.529 -0.1618 -0.2278  0.1511
  126ccc     H5 3261   2.403   6.795   1.493 -0.8324  0.3110 -1.8596
  126ccc     H6 3262   2.277   6.905   1.554 -0.4225 -0.1216 -0.9363
  126ccc     N1 3263   2.578   7.181   1.340 -0.2680 -0.1442  0.0943
  126ccc     H7 3264   2.659   7.235   1.373 -0.1877 -0.9506  1.3115
  126ccc     H8 3265   2.588   7.150   1.243  1.3688  3.2496 -0.9890
  126ccc     O1 3266   2.458   6.935   1.647 -0.1336 -0.1027 -0.4222
  126ccc    H17 3267   2.499   7.247   1.351 -1.0327 -1.1188  0.5805
  127ccc     C1 3268  -1.189   1.063   3.459  0.1795  0.3819 -0.2401
  127ccc     H1 3269  -1.178   1.094   3.563 -0.1722 -1.1068  0.2565
  127ccc     H2 3270  -1.091   1.034   3.421 -0.1086 -0.3439 -0.4442
  127ccc     C2 3271  -1.221   1.179   3.367 -0.3335  0.0915  0.5159
  127ccc     H3 3272  -1.282   1.147   3.282 -1.1222 -1.0720  1.4762
  127ccc     H4 3273  -1.289   1.248   3.418 -0.7567 -0.3486  0.5581
  127ccc     C3 3274  -1.092   1.258   3.339  0.1325  0.2334 -0.1442
  127ccc     H5 3275  -1.117   1.346   3.278 -0.2559  0.2351  0.0129
  127ccc     H6 3276  -1.028   1.193   3.279 -1.0248 -0.7462 -0.3529
  127ccc     N1 3277  -1.285   0.941   3.455  0.3147  0.0691  0.1563
  127ccc     H7 3278  -1.383   0.966   3.475 -0.9783 -2.9171 -1.7522
  127ccc     H8 3279  -1.288   0.886   3.368 -1.8772  1.3382 -0.6420
  127ccc     O1 3280  -1.028   1.306   3.458  0.2282  0.0627  0.7410
  127ccc    H17 3281  -1.261   0.872   3.528  1.4781 -0.6392 -0.8496
  128ccc     C1 3282  -1.504   1.881   3.975 -0.7397 -0.2124  0.2660
  128ccc     H1 3283  -1.478   1.971   4.031  0.0643  0.5477 -1.2730
  128ccc     H2 3284  -1.420   1.813   3.991  2.1265  3.0102 -0.0468
  128ccc     C2 3285  -1.478   1.941   3.829 -0.3001 -0.1792  0.3919
  128ccc     H3 3286  -1.493   1.858   3.760  1.7663 -0.6103  0.4058
  128ccc     H4 3287  -1.551   2.021   3.811  0.4997  0.4893  0.0223
  128ccc     C3 3288  -1.337   1.990   3.812 -0.5987 -1.1337  0.2246
  128ccc     H5 3289  -1.302   2.040   3.903 -0.5877  0.0812 -0.4252
  128ccc     H6 3290  -1.339   2.063   3.730  2.3464 -1.8832 -0.6259
  128ccc     N1 3291  -1.630   1.828   4.018  0.1767  0.3206 -0.6184
  128ccc     H7 3292  -1.710   1.890   3.998  0.4429  0.6652 -0.6116
  128ccc     H8 3293  -1.648   1.733   3.982  0.4172 -0.1636  0.5054
  128ccc     O1 3294  -1.239   1.888   3.775  0.2699 -0.6170 -0.5860
  128ccc    H17 3295  -1.631   1.815   4.120  1.1286 -1.4762 -0.7906
  129ccc     C1 3296  -0.347   2.921   3.460  0.1845 -0.2777 -0.1761
  129ccc     H1 3297  -0.395   3.015   3.432  0.7239  0.0666  0.0326
  129ccc     H2 3298  -0.355   2.857   3.372 -1.6510  0.7059 -0.7979
  129ccc     C2 3299  -0.435   2.850   3.574  0.2192  0.0413  0.4562
  129ccc     H3 3300  -0.387   2.754   3.596  0.1558 -0.2385 -0.6004
  129ccc     H4 3301  -0.433   2.909   3.667 -2.3269 -0.7926  1.1406
  129ccc     C3 3302  -0.584   2.827   3.538 -0.5869  0.2815  0.2099
  129ccc     H5 3303  -0.599   2.736   3.478 -0.0145  0.2239  0.1543
  129ccc     H6 3304  -0.629   2.912   3.483  0.0023  0.3698 -0.1385
  129ccc     N1 3305  -0.209   2.944   3.500  0.8645 -0.1940  0.1341
  129ccc     H7 3306  -0.203   3.004   3.583  0.8576 -0.0325  0.0174
  129ccc     H8 3307  -0.168   2.850   3.509  0.8068 -0.2651 -0.3096
  129ccc     O1 3308  -0.661   2.822   3.656  0.1087 -0.0064  0.2317
  129ccc    H17 3309  -0.164   3.000   3.426 -1.3169  0.7841 -0.5196
  130ccc     C1 3310  -1.120   3.007   4.428  0.0467  0.0848  0.0351
  130ccc     H1 3311  -1.091   2.902   4.443  1.0305  0.6857  3.1125
  130ccc     H2 3312  -1.120   3.009   4.319 -0.1968  0.6984  0.0454
  130ccc     C2 3313  -1.004   3.092   4.487  0.8340  0.7481  0.6052
  130ccc     H3 3314  -1.048   3.177   4.540 -1.2136  1.4513 -2.0058
  130ccc     H4 3315  -0.944   3.038   4.561 -1.2783  0.1980  2.0034
  130ccc     C3 3316  -0.921   3.137   4.367  0.6219  1.0702  0.9276
  130ccc     H5 3317  -0.830   3.189   4.399  1.2501  1.2319 -1.0041
  130ccc     H6 3318  -0.973   3.213   4.307  0.2248  0.1710  0.1077
  130ccc     N1 3319  -1.265   3.032   4.481 -0.0804  1.0445  0.0487
  130ccc     H7 3320  -1.270   2.997   4.578 -2.7979 -0.0180 -0.3816
  130ccc     H8 3321  -1.296   3.130   4.482  1.4861  1.6000 -1.0854
  130ccc     O1 3322  -0.880   3.024   4.285 -0.0722  0.0194 -0.1854
  130ccc    H17 3323  -1.332   2.970   4.434 -1.8855  3.3772 -0.6158
  131ccc     C1 3324   1.091   2.932   5.222  0.5824 -0.0880  0.3353
  131ccc     H1 3325   1.155   2.910   5.137  0.0056 -0.8877  0.0935
  131ccc     H2 3326   1.165   2.946   5.301 -0.1451  0.4210  0.9408
  131ccc     C2 3327   0.981   2.825   5.228  0.0660  0.3394 -0.3223
  131ccc     H3 3328   0.933   2.845   5.325 -2.2751  0.6811 -1.4979
  131ccc     H4 3329   0.904   2.833   5.151 -0.0790 -0.3252 -0.2551
  131ccc     C3 3330   1.040   2.686   5.211  0.0786  0.1464  0.0571
  131ccc     H5 3331   1.128   2.666   5.274  0.1858  0.8569  0.1351
  131ccc     H6 3332   1.077   2.678   5.109 -0.0954 -2.5408  0.1390
  131ccc     N1 3333   1.031   3.068   5.205 -0.0375  0.0202 -0.3044
  131ccc     H7 3334   0.988   3.104   5.291  2.8296  2.8416  0.1410
  131ccc     H8 3335   1.102   3.142   5.212 -1.6172  1.4763  1.3971
  131ccc     O1 3336   0.926   2.595   5.229  0.2089 -0.7161 -0.2103
  131ccc    H17 3337   0.977   3.084   5.119  0.4477 -0.4102 -0.6986
  132ccc     C1 3338   1.128   1.483   5.359 -0.7917  0.0457  0.7497
  132ccc     H1 3339   1.099   1.379   5.342 -0.4914  0.0888 -0.0382
  132ccc     H2 3340   1.047   1.533   5.412 -1.8206  0.1647 -0.8720
  132ccc     C2 3341   1.155   1.551   5.228 -0.1776 -0.4939  0.9352
  132ccc     H3 3342   1.242   1.510   5.175  0.1951  0.2360  0.9688
  132ccc     H4 3343   1.075   1.521   5.160  2.6956 -1.0769 -2.5058
  132ccc     C3 3344   1.179   1.701   5.243  0.3620  0.0977  0.2396
  132ccc     H5 3345   1.205   1.764   5.157 -0.0740 -0.5553 -0.3871
  132ccc     H6 3346   1.259   1.707   5.317  2.0701  0.0642 -1.5360
  132ccc     N1 3347   1.248   1.461   5.447  0.4702 -0.3660 -0.7749
  132ccc     H7 3348   1.332   1.438   5.391  1.6328 -0.6064  0.9732
  132ccc     H8 3349   1.282   1.534   5.512 -1.2482 -0.2931  0.1155
  132ccc     O1 3350   1.065   1.764   5.307  0.1157  0.0984 -0.3993
  132ccc    H17 3351   1.224   1.379   5.504  0.9683  0.5969  0.8888
  133ccc     C1 3352   0.030   0.814   4.410 -0.2215 -0.6169  0.2592
  133ccc     H1 3353  -0.014   0.714   4.407  0.1351 -0.8035  1.0930
  133ccc     H2 3354   0.134   0.817   4.378 -0.2770 -0.2792  0.1046
  133ccc     C2 3355   0.014   0.853   4.559 -0.6492  0.2753  0.0812
  133ccc     H3 3356   0.039   0.959   4.568 -0.6679  0.3565 -0.7281
  133ccc     H4 3357  -0.092   0.846   4.587 -0.7118  0.0570 -0.2013
  133ccc     C3 3358   0.103   0.758   4.646  0.5056 -0.2339  0.6235
  133ccc     H5 3359   0.177   0.715   4.577 -0.8483 -1.0682 -0.3740
  133ccc     H6 3360   0.032   0.685   4.687 -1.8605  0.3914 -2.0375
  133ccc     N1 3361  -0.051   0.902   4.316  0.1510  0.2065 -0.3309
  133ccc     H7 3362  -0.038   0.869   4.219 -1.4188  1.2931 -0.9512
  133ccc     H8 3363  -0.152   0.907   4.336 -0.3243  1.5546 -2.7159
  133ccc     O1 3364   0.165   0.847   4.738 -0.0678 -0.4276  0.4093
  133ccc    H17 3365  -0.021   1.000   4.322 -2.3267  0.9481  1.7550
  134ccc     C1 3366  -0.088   1.414   5.311  0.0067 -0.4226 -0.4333
  134ccc     H1 3367  -0.161   1.406   5.230  1.4913 -0.4980 -1.8272
  134ccc     H2 3368   0.013   1.389   5.277  0.0658 -1.1377  0.2467
  134ccc     C2 3369  -0.130   1.310   5.423 -0.4674 -0.4839 -0.4788
  134ccc     H3 3370  -0.190   1.359   5.500 -1.7811  0.4576 -2.0194
  134ccc     H4 3371  -0.198   1.243   5.369 -0.5358 -0.3521 -0.5573
  134ccc     C3 3372  -0.004   1.235   5.465  0.0924 -0.2104 -0.2807
  134ccc     H5 3373  -0.027   1.168   5.549 -0.9912  1.2127  0.6078
  134ccc     H6 3374   0.064   1.312   5.503  0.2411 -0.3123 -0.3419
  134ccc     N1 3375  -0.081   1.553   5.367 -0.5424 -0.7270  0.0715
  134ccc     H7 3376  -0.047   1.620   5.297 -0.5597 -0.4887  0.2873
  134ccc     H8 3377  -0.172   1.578   5.409 -0.6678 -1.2810  0.1425
  134ccc     O1 3378   0.060   1.172   5.350 -0.0566  0.3398 -0.1613
  134ccc    H17 3379  -0.013   1.566   5.444 -0.4429  0.4757 -0.1996
  135ccc     C1 3380  -0.408   4.166   1.894 -0.1217  0.3236 -0.5655
  135ccc     H1 3381  -0.333   4.087   1.888  0.7395  1.2015 -1.7056
  135ccc     H2 3382  -0.368   4.253   1.843  1.4676  1.3162  2.1299
  135ccc     C2 3383  -0.421   4.204   2.041  0.3065  0.1447  0.1524
  135ccc     H3 3384  -0.328   4.254   2.072 -0.2287  0.8290  0.7063
  135ccc     H4 3385  -0.501   4.277   2.055 -1.8088 -1.9015 -0.7623
  135ccc     C3 3386  -0.442   4.080   2.133 -0.1423 -0.7948 -0.5650
  135ccc     H5 3387  -0.538   4.035   2.104 -0.7672  1.3169 -1.9549
  135ccc     H6 3388  -0.446   4.114   2.237  0.8695  0.7786 -1.0130
  135ccc     N1 3389  -0.539   4.128   1.816 -0.2318 -0.2663  0.1251
  135ccc     H7 3390  -0.579   4.035   1.837 -1.3338 -0.1067 -1.1579
  135ccc     H8 3391  -0.608   4.196   1.848  1.0600  0.2590  1.9391
  135ccc     O1 3392  -0.336   3.977   2.119  0.2388 -0.1077  0.0839
  135ccc    H17 3393  -0.516   4.136   1.715 -1.0511 -4.4327 -0.5952
  136ccc     C1 3394   0.149   3.259   1.515  0.8693 -0.3053  0.5054
  136ccc     H1 3395   0.053   3.235   1.561  1.0667  1.5536  1.9763
  136ccc     H2 3396   0.199   3.176   1.465 -1.7884 -1.7464 -0.0066
  136ccc     C2 3397   0.236   3.311   1.623 -0.5144 -0.0090 -0.0678
  136ccc     H3 3398   0.261   3.223   1.684 -1.3582  0.1850  0.5668
  136ccc     H4 3399   0.320   3.367   1.580 -1.5493  0.7457 -1.1558
  136ccc     C3 3400   0.165   3.407   1.727  0.4440 -0.5274 -0.2649
  136ccc     H5 3401   0.113   3.483   1.669 -0.3562 -0.8502  0.0149
  136ccc     H6 3402   0.238   3.454   1.795 -0.3713 -0.9388  0.9371
  136ccc     N1 3403   0.113   3.354   1.409  0.4424  0.2507 -0.0563
  136ccc     H7 3404   0.192   3.405   1.367  0.7179  0.2719  0.4782
  136ccc     H8 3405   0.069   3.296   1.335  0.3197  1.0991 -0.6636
  136ccc     O1 3406   0.062   3.349   1.806  0.6476  0.2271 -0.1426
  136ccc    H17 3407   0.046   3.422   1.447 -1.7059 -1.5142 -0.4239
  137ccc     C1 3408   1.350   3.650   2.921  0.4178 -0.3220  0.0411
  137ccc     H1 3409   1.344   3.612   3.023  0.6280 -2.0493 -0.5643
  137ccc     H2 3410   1.259   3.701   2.892 -0.1964 -0.6002  1.3944
  137ccc     C2 3411   1.373   3.538   2.823 -0.2708 -0.4566  1.0506
  137ccc     H3 3412   1.393   3.577   2.722  0.8033  0.5342  1.6297
  137ccc     H4 3413   1.472   3.497   2.845  0.1688  0.6070  1.1256
  137ccc     C3 3414   1.264   3.434   2.828  0.3844 -0.9631  0.9118
  137ccc     H5 3415   1.190   3.463   2.904 -1.6396 -0.2881 -1.1865
  137ccc     H6 3416   1.303   3.341   2.869 -0.8178 -1.0106  1.9813
  137ccc     N1 3417   1.456   3.752   2.917 -0.0491  0.2304 -0.3474
  137ccc     H7 3418   1.472   3.790   2.822  4.4071 -2.1558 -0.8385
  137ccc     H8 3419   1.438   3.836   2.974  0.5234 -1.2851  2.1860
  137ccc     O1 3420   1.192   3.407   2.709  0.0993 -0.1475  0.1454
  137ccc    H17 3421   1.547   3.723   2.954  0.0510 -0.4863 -1.1075
  138ccc     C1 3422   0.712   3.819   2.198 -0.2985 -0.3868 -0.0841
  138ccc     H1 3423   0.611   3.858   2.215 -0.2661  0.3291 -1.3480
  138ccc     H2 3424   0.772   3.897   2.151  0.0364 -1.2586 -1.1385
  138ccc     C2 3425   0.694   3.710   2.091 -0.5917  0.1970  0.1075
  138ccc     H3 3426   0.612   3.645   2.124 -0.6010  0.7829  1.3175
  138ccc     H4 3427   0.667   3.757   1.996  1.2738 -1.4762 -1.3263
  138ccc     C3 3428   0.814   3.617   2.057 -0.3720  0.1072 -0.6544
  138ccc     H5 3429   0.897   3.683   2.030 -0.4590  0.3924 -0.2320
  138ccc     H6 3430   0.779   3.555   1.974  1.4596 -1.4898 -0.3168
  138ccc     N1 3431   0.767   3.778   2.332  0.0006 -0.4717  0.2715
  138ccc     H7 3432   0.714   3.704   2.381  1.3997 -2.1515 -0.6535
  138ccc     H8 3433   0.864   3.748   2.315 -1.0948 -2.5960 -3.6644
  138ccc     O1 3434   0.849   3.528   2.163  0.0578  0.5574 -0.1495
  138ccc    H17 3435   0.769   3.852   2.403 -2.9693  0.1294 -0.1084
  139ccc     C1 3436   2.053   2.295   2.271 -0.4656 -0.4407 -0.1870
  139ccc     H1 3437   2.132   2.360   2.310 -0.5512 -0.8264  0.6438
  139ccc     H2 3438   2.022   2.339   2.176  1.8216 -1.7110 -1.6197
  139ccc     C2 3439   1.940   2.301   2.370  0.5299  0.3945 -0.7750
  139ccc     H3 3440   1.875   2.215   2.350 -0.3977  0.8877  0.0098
  139ccc     H4 3441   1.972   2.291   2.475 -0.0832 -2.0131 -0.7593
  139ccc     C3 3442   1.847   2.424   2.362  0.0066 -0.2889 -0.0675
  139ccc     H5 3443   1.824   2.426   2.255  3.3333 -0.1181 -0.8810
  139ccc     H6 3444   1.913   2.509   2.381 -0.2688  0.5355 -2.5274
  139ccc     N1 3445   2.118   2.161   2.252 -0.5699  0.5113 -0.4912
  139ccc     H7 3446   2.046   2.091   2.226 -0.1110  0.2990 -1.2090
  139ccc     H8 3447   2.184   2.162   2.173 -1.6134  0.2700 -1.3891
  139ccc     O1 3448   1.730   2.422   2.446  0.4261  0.0993 -0.1134
  139ccc    H17 3449   2.175   2.131   2.333 -0.9136 -3.0231 -1.3946
  140ccc     C1 3450   1.124   1.742   2.833  0.5959  0.4770 -0.0154
  140ccc     H1 3451   1.058   1.771   2.915  2.3511  0.4775  1.4615
  140ccc     H2 3452   1.210   1.805   2.855 -0.3418  1.3071  1.4481
  140ccc     C2 3453   1.069   1.784   2.696  0.5112 -0.2396  0.8412
  140ccc     H3 3454   1.005   1.708   2.652 -1.5343  1.6948  0.3189
  140ccc     H4 3455   1.001   1.868   2.716  0.8827 -0.0706  1.4410
  140ccc     C3 3456   1.185   1.809   2.605 -0.5219 -0.0436 -0.1858
  140ccc     H5 3457   1.150   1.803   2.501  2.8840 -0.7162 -1.4132
  140ccc     H6 3458   1.262   1.731   2.610  0.7857  1.0860 -1.7877
  140ccc     N1 3459   1.163   1.598   2.856 -0.4284  1.3739  0.3171
  140ccc     H7 3460   1.214   1.557   2.776 -1.2623 -4.4032  2.2562
  140ccc     H8 3461   1.237   1.596   2.928 -0.6580 -1.1984  0.5904
  140ccc     O1 3462   1.257   1.923   2.630  0.0769 -0.3839 -0.1159
  140ccc    H17 3463   1.089   1.531   2.883  1.6012 -1.1278  0.1181
  141ccc     C1 3464   2.010   1.475   3.628  0.2864  0.2465 -0.1298
  141ccc     H1 3465   2.041   1.565   3.575 -0.0567  0.2547 -0.3179
  141ccc     H2 3466   2.014   1.391   3.558 -0.7500 -0.6128  0.7996
  141ccc     C2 3467   1.858   1.489   3.682  0.6763  0.3398 -0.6045
  141ccc     H3 3468   1.837   1.391   3.726  2.1164  0.0827 -0.4263
  141ccc     H4 3469   1.853   1.563   3.762  1.6378 -1.1602  0.9117
  141ccc     C3 3470   1.760   1.522   3.567 -0.0579  0.1269  0.0279
  141ccc     H5 3471   1.657   1.505   3.599 -0.3798 -1.7904 -1.8022
  141ccc     H6 3472   1.768   1.454   3.481 -2.0281 -0.3165  0.1598
  141ccc     N1 3473   2.112   1.437   3.736 -0.2218 -0.6976  0.2568
  141ccc     H7 3474   2.115   1.513   3.805  0.9716  1.9705 -2.5001
  141ccc     H8 3475   2.078   1.355   3.789 -0.9932 -0.0598  0.7582
  141ccc     O1 3476   1.771   1.653   3.522 -0.0219 -0.3517 -0.5636
  141ccc    H17 3477   2.204   1.425   3.691  0.6122  2.8805  0.7529
  142ccc     C1 3478   2.348   2.350   3.800 -0.0927  0.1354 -0.7192
  142ccc     H1 3479   2.432   2.321   3.737  0.3291 -2.7268  1.0014
  142ccc     H2 3480   2.373   2.298   3.892 -2.7280  1.1466  0.6731
  142ccc     C2 3481   2.213   2.298   3.746  0.5226  0.3162 -0.2261
  142ccc     H3 3482   2.198   2.194   3.778 -2.3637  0.3189 -1.2732
  142ccc     H4 3483   2.133   2.352   3.798  0.3116 -1.3878  1.3444
  142ccc     C3 3484   2.197   2.310   3.594 -0.6753  0.3350 -0.0276
  142ccc     H5 3485   2.264   2.242   3.541  1.0710  1.6285  0.4349
  142ccc     H6 3486   2.230   2.409   3.558  0.3357  0.2738  0.7026
  142ccc     N1 3487   2.366   2.499   3.823  0.1404  0.2448  0.2102
  142ccc     H7 3488   2.459   2.510   3.865 -0.1183 -0.0410  0.8776
  142ccc     H8 3489   2.360   2.550   3.734 -2.7217  1.3326  0.9126
  142ccc     O1 3490   2.063   2.281   3.570 -0.1398 -0.3305  0.2578
  142ccc    H17 3491   2.300   2.545   3.887  0.2401 -0.6292  0.9692
  143ccc     C1 3492  -1.164   5.922   3.584  0.6831  0.7198 -0.3557
  143ccc     H1 3493  -1.152   5.968   3.485 -1.7445  0.4685 -0.8343
  143ccc     H2 3494  -1.085   5.848   3.596 -0.2085 -0.2286 -0.2075
  143ccc     C2 3495  -1.294   5.849   3.573  0.0185 -0.5786 -0.1732
  143ccc     H3 3496  -1.309   5.790   3.665 -1.3054  0.7313  0.5013
  143ccc     H4 3497  -1.374   5.924   3.570  0.8013  0.3160  0.4892
  143ccc     C3 3498  -1.304   5.754   3.457  0.3268  0.8103  0.4426
  143ccc     H5 3499  -1.219   5.685   3.444 -1.5938 -1.4598 -0.7253
  143ccc     H6 3500  -1.323   5.813   3.367 -2.9007  1.5840  1.5172
  143ccc     N1 3501  -1.165   6.017   3.694  0.0429 -0.1999 -0.5708
  143ccc     H7 3502  -1.184   5.990   3.792  0.5268  4.5383  1.1003
  143ccc     H8 3503  -1.069   6.055   3.700 -0.0293 -0.2452  1.8290
  143ccc     O1 3504  -1.426   5.678   3.475 -0.1681  0.1948  0.2373
  143ccc    H17 3505  -1.222   6.100   3.673  1.3769  0.8332 -0.2905
  144ccc     C1 3506  -2.037   5.828   3.724 -0.5277  0.4916 -0.9474
  144ccc     H1 3507  -2.005   5.806   3.826  1.4724  0.8335 -1.4619
  144ccc     H2 3508  -2.146   5.825   3.729 -0.4675  0.3320  1.6230
  144ccc     C2 3509  -1.983   5.729   3.617  0.0133  0.1142 -0.6227
  144ccc     H3 3510  -2.028   5.764   3.524  0.8184  1.6155 -0.4792
  144ccc     H4 3511  -1.874   5.743   3.609  0.0112  0.3065 -0.3582
  144ccc     C3 3512  -2.011   5.582   3.656 -0.3499  0.6319 -0.8270
  144ccc     H5 3513  -1.974   5.522   3.573  1.8184  0.7624 -0.0180
  144ccc     H6 3514  -2.115   5.558   3.678  0.1946 -0.4215  0.7545
  144ccc     N1 3515  -2.013   5.972   3.710  0.3040  0.6849 -0.0229
  144ccc     H7 3516  -1.915   5.996   3.690  1.6135 -3.1752  0.9018
  144ccc     H8 3517  -2.080   6.002   3.637  0.5736 -0.6006 -0.8484
  144ccc     O1 3518  -1.940   5.548   3.783  0.3828  0.6450 -0.0691
  144ccc    H17 3519  -2.041   6.010   3.801  0.5067  0.7101  0.0304
  145ccc     C1 3520  -2.794   4.082   4.145 -0.1498  0.0135  0.3881
  145ccc     H1 3521  -2.894   4.115   4.115 -0.7204 -0.6148  1.5265
  145ccc     H2 3522  -2.784   4.058   4.251 -0.0756 -0.8775  0.1875
  145ccc     C2 3523  -2.685   4.189   4.121  0.6323 -0.8376  0.7835
  145ccc     H3 3524  -2.677   4.230   4.019  0.7181  1.2592  1.6074
  145ccc     H4 3525  -2.708   4.276   4.183  0.7287  1.4674 -2.1661
  145ccc     C3 3526  -2.540   4.146   4.158 -0.2353 -0.3204  0.0847
  145ccc     H5 3527  -2.495   4.079   4.084  1.6086  0.7914  0.1295
  145ccc     H6 3528  -2.549   4.091   4.252 -0.3061 -0.5252 -0.0419
  145ccc     N1 3529  -2.792   3.948   4.069 -0.1940 -0.2024  0.6165
  145ccc     H7 3530  -2.818   3.965   3.971 -0.3897  2.7628  1.0972
  145ccc     H8 3531  -2.700   3.901   4.075  0.5670  0.5433 -2.7465
  145ccc     O1 3532  -2.465   4.268   4.180 -0.0865  0.1235 -0.8491
  145ccc    H17 3533  -2.861   3.878   4.099 -0.2963 -0.0866  0.6485
  146ccc     C1 3534  -2.512   5.041   4.338  0.2497 -0.2741  0.2764
  146ccc     H1 3535  -2.478   5.133   4.385  0.5790  0.2931 -1.0313
  146ccc     H2 3536  -2.478   4.954   4.394 -0.1283  0.7417  2.1767
  146ccc     C2 3537  -2.456   5.044   4.201 -0.0947 -0.2644  0.3053
  146ccc     H3 3538  -2.501   4.973   4.130 -2.1235  2.0650 -0.8883
  146ccc     H4 3539  -2.474   5.140   4.151 -0.8746 -1.0939 -1.0667
  146ccc     C3 3540  -2.300   5.032   4.214  0.3320 -0.3499 -0.1970
  146ccc     H5 3541  -2.267   5.111   4.282  0.1715 -1.9771  1.8691
  146ccc     H6 3542  -2.252   5.063   4.120  0.5824 -1.2552 -0.3821
  146ccc     N1 3543  -2.662   5.024   4.344 -0.5430  0.4995 -0.2883
  146ccc     H7 3544  -2.687   4.936   4.297 -2.4806  1.2174 -0.7098
  146ccc     H8 3545  -2.691   5.022   4.443 -3.2801  0.4593 -1.0111
  146ccc     O1 3546  -2.255   4.901   4.267  0.3924  0.1422  0.2444
  146ccc    H17 3547  -2.717   5.099   4.299 -0.1478  0.7918 -0.2820
  147ccc     C1 3548  -2.519   3.715   2.927  0.2045 -0.1398  0.8107
  147ccc     H1 3549  -2.541   3.767   2.834  0.5261  0.5683  1.1197
  147ccc     H2 3550  -2.577   3.750   3.012 -1.6631 -2.1204  0.4338
  147ccc     C2 3551  -2.371   3.744   2.954  0.2831  0.3592  0.2862
  147ccc     H3 3552  -2.355   3.700   3.053 -1.7043 -1.5864 -0.1763
  147ccc     H4 3553  -2.303   3.701   2.881 -0.9799 -0.8179 -0.2359
  147ccc     C3 3554  -2.337   3.894   2.973 -0.7156 -0.1299 -0.3735
  147ccc     H5 3555  -2.396   3.956   3.041 -1.2962 -0.5829 -0.4518
  147ccc     H6 3556  -2.335   3.946   2.877 -1.1773 -0.5492 -0.6147
  147ccc     N1 3557  -2.548   3.572   2.892  0.4768 -0.5448  0.0175
  147ccc     H7 3558  -2.465   3.511   2.879  1.0787  0.1674  0.4429
  147ccc     H8 3559  -2.605   3.534   2.969 -0.4337  0.5458 -0.0909
  147ccc     O1 3560  -2.208   3.894   3.030  0.0814  0.1862 -0.4042
  147ccc    H17 3561  -2.600   3.579   2.803 -0.1533  1.0843  0.4854
  148ccc     C1 3562  -2.145   3.300   3.678 -0.1733  0.1757 -0.4206
  148ccc     H1 3563  -2.182   3.363   3.758 -1.3770  0.1380 -0.9273
  148ccc     H2 3564  -2.056   3.248   3.715  0.1890  0.7677 -0.4522
  148ccc     C2 3565  -2.112   3.360   3.541 -0.2013  0.2372 -0.0317
  148ccc     H3 3566  -2.099   3.283   3.464  0.1477  1.4443 -1.2363
  148ccc     H4 3567  -2.201   3.416   3.507  0.2301  1.1318  0.2758
  148ccc     C3 3568  -1.997   3.462   3.547  0.3663 -0.3123  0.1004
  148ccc     H5 3569  -1.911   3.416   3.597 -0.3297  1.4406  3.2358
  148ccc     H6 3570  -2.024   3.535   3.625 -0.9351 -1.9651  1.2730
  148ccc     N1 3571  -2.255   3.195   3.667  0.2074  0.1057 -0.4642
  148ccc     H7 3572  -2.337   3.238   3.622 -1.1686  0.5365  2.2238
  148ccc     H8 3573  -2.227   3.104   3.626  0.4238  0.2610 -0.6596
  148ccc     O1 3574  -1.962   3.518   3.421 -0.4557  0.3319  0.2300
  148ccc    H17 3575  -2.292   3.173   3.761 -1.6667 -2.1568 -1.6177
  149ccc     C1 3576  -2.036   4.747   2.078 -0.7453  0.0642  0.5466
  149ccc     H1 3577  -2.032   4.839   2.136 -0.1738  0.2868  0.1620
  149ccc     H2 3578  -2.142   4.735   2.055 -1.2223  1.2575  1.9767
  149ccc     C2 3579  -1.975   4.628   2.153  0.7627 -0.0613 -0.2940
  149ccc     H3 3580  -1.891   4.658   2.216 -0.0141  0.6125  0.4453
  149ccc     H4 3581  -2.056   4.602   2.223  2.3406 -1.2706  1.1756
  149ccc     C3 3582  -1.944   4.496   2.084  0.0339 -0.1537  0.1283
  149ccc     H5 3583  -2.033   4.474   2.024  0.1823  3.2664 -1.5411
  149ccc     H6 3584  -1.922   4.416   2.156  0.1862 -1.2235 -1.0606
  149ccc     N1 3585  -1.953   4.784   1.957 -0.1408 -0.8462  0.6430
  149ccc     H7 3586  -1.975   4.722   1.878  1.2121 -0.7929  0.2072
  149ccc     H8 3587  -1.979   4.879   1.927 -0.8937 -0.7731  1.4827
  149ccc     O1 3588  -1.827   4.498   2.001  0.0109 -0.5584  0.0806
  149ccc    H17 3589  -1.851   4.795   1.969 -0.2422  1.0269  0.0791
  150ccc     C1 3590  -1.466   3.726   2.100 -0.5179 -0.3596  0.5145
  150ccc     H1 3591  -1.431   3.709   1.998  1.7834  0.3291  1.1295
  150ccc     H2 3592  -1.512   3.825   2.106  1.4856  1.2545 -4.7780
  150ccc     C2 3593  -1.336   3.736   2.181  0.1634  0.2063 -0.0988
  150ccc     H3 3594  -1.358   3.753   2.287  1.6313  1.8044  0.0010
  150ccc     H4 3595  -1.294   3.635   2.175  1.4439  0.7880 -3.9456
  150ccc     C3 3596  -1.219   3.825   2.131 -0.0199  0.1493 -0.1260
  150ccc     H5 3597  -1.205   3.796   2.026  1.3697  1.4702 -0.3271
  150ccc     H6 3598  -1.122   3.816   2.180  0.8415 -1.4392 -1.9759
  150ccc     N1 3599  -1.567   3.625   2.148  1.2950  0.0863  0.2528
  150ccc     H7 3600  -1.520   3.535   2.132  1.0553 -0.1875  1.0735
  150ccc     H8 3601  -1.588   3.638   2.248  0.0697 -0.0705  0.0296
  150ccc     O1 3602  -1.264   3.959   2.154 -0.8505  0.3544  0.4759
  150ccc    H17 3603  -1.662   3.629   2.109  0.1399  0.1400  2.8656
  151ccc     C1 3604  -0.148   3.073   5.811 -1.4276 -0.2413  0.1724
  151ccc     H1 3605  -0.107   3.170   5.784 -1.3876 -0.3614 -0.2001
  151ccc     H2 3606  -0.189   3.039   5.716 -1.3046 -0.4797  0.2046
  151ccc     C2 3607  -0.262   3.080   5.909 -0.6306  0.4663 -0.2191
  151ccc     H3 3608  -0.353   3.135   5.881 -1.4633 -1.0400 -0.5669
  151ccc     H4 3609  -0.309   2.981   5.914 -2.1051  1.1983  1.6427
  151ccc     C3 3610  -0.222   3.156   6.045 -0.2902  0.3876  0.4274
  151ccc     H5 3611  -0.145   3.095   6.094 -0.5572 -0.2835  0.0274
  151ccc     H6 3612  -0.307   3.157   6.114 -0.3723 -2.0283  0.4320
  151ccc     N1 3613  -0.022   2.982   5.840 -0.2176  0.2969  0.3863
  151ccc     H7 3614   0.031   3.018   5.921  1.5833 -1.9604  0.3316
  151ccc     H8 3615  -0.051   2.890   5.875  0.0146 -0.5644 -1.5677
  151ccc     O1 3616  -0.171   3.287   6.011  0.3759 -0.2003 -0.6241
  151ccc    H17 3617   0.034   2.975   5.754 -2.0985  0.7244 -0.9258
  152ccc     C1 3618   0.371   4.073   6.175  0.4214  0.2830 -0.1945
  152ccc     H1 3619   0.411   4.038   6.270  0.3631  0.0822 -0.2432
  152ccc     H2 3620   0.449   4.139   6.138  1.4010 -0.7607 -0.0482
  152ccc     C2 3621   0.246   4.164   6.194 -0.1463  0.1223  0.3446
  152ccc     H3 3622   0.275   4.256   6.247 -0.6442  0.4504  0.0604
  152ccc     H4 3623   0.197   4.193   6.100  1.5318  0.2342 -0.5235
  152ccc     C3 3624   0.137   4.083   6.269 -0.0336 -0.1476  0.1858
  152ccc     H5 3625   0.052   4.145   6.301  0.0909  0.5162 -0.7101
  152ccc     H6 3626   0.178   4.039   6.360 -2.1851 -1.9730  0.3591
  152ccc     N1 3627   0.345   3.961   6.077 -0.2194 -0.5187 -0.0131
  152ccc     H7 3628   0.282   3.891   6.119  2.0975 -2.0218  1.2354
  152ccc     H8 3629   0.310   4.003   5.990  0.6198 -2.0027 -1.1192
  152ccc     O1 3630   0.077   3.982   6.176 -0.1741  0.1247 -0.1430
  152ccc    H17 3631   0.432   3.908   6.059  0.3847  1.0837 -2.2752
  153ccc     C1 3632  -0.688   2.821   5.239  0.6732  0.7250  0.1136
  153ccc     H1 3633  -0.585   2.852   5.253  1.0419 -0.8743  1.1389
  153ccc     H2 3634  -0.715   2.830   5.134  0.5432  0.0093  0.0817
  153ccc     C2 3635  -0.777   2.924   5.318 -0.7281  0.3232 -0.6166
  153ccc     H3 3636  -0.788   3.015   5.258 -1.4086  0.1757 -0.7163
  153ccc     H4 3637  -0.882   2.896   5.326 -0.2097 -1.3705  0.7374
  153ccc     C3 3638  -0.707   2.945   5.462 -0.4393  0.1572  0.1157
  153ccc     H5 3639  -0.601   2.965   5.443 -0.3295 -1.1663 -0.7931
  153ccc     H6 3640  -0.727   2.852   5.515 -0.7047 -0.2037 -0.6070
  153ccc     N1 3641  -0.710   2.670   5.275 -0.3047 -0.7820  0.4502
  153ccc     H7 3642  -0.809   2.642   5.289 -0.3505 -0.5488  0.5904
  153ccc     H8 3643  -0.679   2.606   5.200 -0.3591 -1.5849  1.0957
  153ccc     O1 3644  -0.767   3.049   5.529 -0.2613 -0.7080 -0.3211
  153ccc    H17 3645  -0.655   2.639   5.356 -0.8259 -2.1359  0.3248
  154ccc     C1 3646  -1.335   2.929   6.438 -0.4154 -0.3985  0.0166
  154ccc     H1 3647  -1.228   2.911   6.451 -0.2126  1.1322  0.6248
  154ccc     H2 3648  -1.396   2.839   6.447  1.5593 -1.7239  0.7643
  154ccc     C2 3649  -1.339   2.977   6.291  0.0805  0.2223  0.4223
  154ccc     H3 3650  -1.435   3.018   6.255  0.9703  2.0518  0.0259
  154ccc     H4 3651  -1.271   3.063   6.290  1.3787 -0.7157  2.1341
  154ccc     C3 3652  -1.287   2.865   6.192 -0.4665  0.2311 -0.5646
  154ccc     H5 3653  -1.372   2.807   6.153 -0.8148  0.8134 -0.6838
  154ccc     H6 3654  -1.220   2.796   6.244  0.1357  2.4720  1.8091
  154ccc     N1 3655  -1.391   3.023   6.542  0.1234  0.3576 -0.2752
  154ccc     H7 3656  -1.339   3.112   6.544  0.5659  0.1057 -0.2743
  154ccc     H8 3657  -1.491   3.043   6.533 -0.0603  1.6416  3.1902
  154ccc     O1 3658  -1.222   2.917   6.080 -0.1266 -0.1767 -0.2524
  154ccc    H17 3659  -1.375   2.985   6.637 -0.3408 -0.7879 -0.6397
  155ccc     C1 3660  -0.776   5.653   5.458  0.1258 -0.6094 -0.2943
  155ccc     H1 3661  -0.674   5.674   5.493 -0.2023 -0.2522  0.4589
  155ccc     H2 3662  -0.807   5.551   5.483 -2.0817 -0.2726 -1.4092
  155ccc     C2 3663  -0.788   5.664   5.315  0.6020 -0.0253  0.0884
  155ccc     H3 3664  -0.890   5.640   5.284 -0.4641  3.1820  0.8453
  155ccc     H4 3665  -0.769   5.768   5.288 -1.7554  0.7646  1.2645
  155ccc     C3 3666  -0.700   5.560   5.244  0.0774  0.2193  0.3305
  155ccc     H5 3667  -0.598   5.572   5.280 -0.1962  1.4026  0.7585
  155ccc     H6 3668  -0.693   5.575   5.135  0.0260 -0.9394  0.1540
  155ccc     N1 3669  -0.863   5.749   5.536 -0.0714 -0.2973 -0.4184
  155ccc     H7 3670  -0.833   5.847   5.527  0.8823 -0.6054 -0.6748
  155ccc     H8 3671  -0.965   5.748   5.518 -0.6285  3.2138  1.6518
  155ccc     O1 3672  -0.744   5.423   5.257  0.4502  0.1948 -0.0228
  155ccc    H17 3673  -0.850   5.723   5.635 -2.4672 -1.7799 -0.4028
  156ccc     C1 3674  -0.047   4.718   5.631  0.3393  0.6723  0.1298
  156ccc     H1 3675   0.041   4.780   5.616  0.3932  0.4995 -0.2817
  156ccc     H2 3676  -0.034   4.631   5.567 -2.6963  1.2090 -1.4080
  156ccc     C2 3677  -0.173   4.794   5.572  0.0932  0.4268  0.0696
  156ccc     H3 3678  -0.201   4.879   5.635  0.4070  1.3705 -1.0391
  156ccc     H4 3679  -0.140   4.839   5.478  0.3866  0.9325  0.4118
  156ccc     C3 3680  -0.305   4.706   5.562 -0.2966  0.1051 -0.5201
  156ccc     H5 3681  -0.319   4.648   5.654  3.3707 -0.6086 -0.2563
  156ccc     H6 3682  -0.307   4.643   5.472  1.5309  0.6914 -1.0138
  156ccc     N1 3683  -0.046   4.673   5.771 -0.1600 -0.2656 -0.0553
  156ccc     H7 3684  -0.109   4.594   5.793  0.9999 -0.8090  1.4716
  156ccc     H8 3685   0.053   4.658   5.796  0.7464  3.0709 -1.1229
  156ccc     O1 3686  -0.417   4.796   5.556  0.3241 -0.1397 -0.2297
  156ccc    H17 3687  -0.085   4.747   5.830  1.8880  1.9712 -1.3420
  157ccc     C1 3688  -1.936   4.082   5.107  0.8839 -0.5564 -0.1018
  157ccc     H1 3689  -1.890   4.151   5.179  1.9033  1.1111 -2.2355
  157ccc     H2 3690  -1.874   3.992   5.100 -0.1292 -1.2430 -0.4717
  157ccc     C2 3691  -1.931   4.156   4.965  0.2291  0.1629 -0.4013
  157ccc     H3 3692  -1.828   4.195   4.960  1.5671 -3.1905 -1.5841
  157ccc     H4 3693  -1.947   4.091   4.879  0.2514 -0.9079  0.3901
  157ccc     C3 3694  -2.023   4.280   4.945 -0.2621  0.6326  0.2477
  157ccc     H5 3695  -2.131   4.259   4.938 -0.2138  0.4219  0.1251
  157ccc     H6 3696  -1.989   4.315   4.847 -1.4494 -0.9593 -0.7922
  157ccc     N1 3697  -2.081   4.045   5.149 -0.3718  0.1718 -0.8797
  157ccc     H7 3698  -2.129   3.970   5.096 -2.1253  0.9751 -0.4808
  157ccc     H8 3699  -2.080   4.024   5.249 -0.4320 -0.1531 -0.9475
  157ccc     O1 3700  -1.997   4.373   5.047 -0.3075 -0.6041  0.0697
  157ccc    H17 3701  -2.145   4.125   5.142 -0.5053 -0.0435 -2.7960
  158ccc     C1 3702  -2.677   5.218   5.382  0.2534 -0.2355 -0.6911
  158ccc     H1 3703  -2.697   5.320   5.414  1.1343  0.3682 -1.9856
  158ccc     H2 3704  -2.595   5.186   5.446 -0.6741 -2.6483 -0.5895
  158ccc     C2 3705  -2.663   5.186   5.231 -0.0210 -0.9250  0.6242
  158ccc     H3 3706  -2.665   5.080   5.202  3.1142 -0.7041 -0.7683
  158ccc     H4 3707  -2.747   5.242   5.187  0.7508  0.5605  0.9847
  158ccc     C3 3708  -2.532   5.230   5.170  0.0432 -0.0579  1.1743
  158ccc     H5 3709  -2.509   5.336   5.184 -0.3697  0.7628 -3.0751
  158ccc     H6 3710  -2.536   5.205   5.064  0.7199 -0.6069  1.2779
  158ccc     N1 3711  -2.788   5.136   5.445 -0.0181 -0.2833  0.2719
  158ccc     H7 3712  -2.880   5.149   5.402  0.3228 -3.6648 -1.9035
  158ccc     H8 3713  -2.759   5.038   5.458 -1.3703 -0.5295  1.6857
  158ccc     O1 3714  -2.429   5.151   5.219 -0.0717  0.0226  0.3242
  158ccc    H17 3715  -2.794   5.162   5.544 -0.1662 -0.6070  0.3486
  159ccc     C1 3716   3.909   3.680   4.821  0.4894  0.2969  0.3659
  159ccc     H1 3717   3.833   3.602   4.820 -0.9205  1.5051  2.9988
  159ccc     H2 3718   3.964   3.662   4.913  1.9265 -2.0931 -0.8641
  159ccc     C2 3719   3.849   3.824   4.823  0.1099 -0.1375  0.3033
  159ccc     H3 3720   3.928   3.899   4.830  0.3421 -0.5305  3.5764
  159ccc     H4 3721   3.799   3.848   4.728 -0.5276 -0.3251  0.5827
  159ccc     C3 3722   3.753   3.851   4.938  0.0063  0.1810 -0.4710
  159ccc     H5 3723   3.665   3.786   4.931  1.6911 -2.4288  0.9165
  159ccc     H6 3724   3.731   3.959   4.940 -0.1612  0.1425 -0.2153
  159ccc     N1 3725   4.014   3.656   4.718  0.7297 -0.3313 -0.6394
  159ccc     H7 3726   4.046   3.558   4.723  0.2685 -0.4518  0.0865
  159ccc     H8 3727   3.984   3.681   4.623  0.9329 -0.0937 -0.6419
  159ccc     O1 3728   3.817   3.807   5.061  0.8288 -0.3283  0.4674
  159ccc    H17 3729   4.088   3.722   4.747 -0.5969  0.9902 -0.1622
  160ccc     C1 3730   4.494   3.318   4.937  0.5736 -0.2878 -0.6475
  160ccc     H1 3731   4.581   3.351   4.880  0.1204  0.1072 -1.1213
  160ccc     H2 3732   4.399   3.352   4.895  0.0252  0.3528  1.0245
  160ccc     C2 3733   4.492   3.392   5.071  0.9183  0.0500  0.3207
  160ccc     H3 3734   4.409   3.351   5.130  0.5876 -1.9449 -1.4004
  160ccc     H4 3735   4.586   3.365   5.119  1.2553  1.0269  0.2441
  160ccc     C3 3736   4.479   3.543   5.052 -0.4342 -0.6105 -0.1469
  160ccc     H5 3737   4.530   3.574   4.960  1.0671  1.8536  1.3993
  160ccc     H6 3738   4.533   3.592   5.134 -0.3289  0.7543 -0.9966
  160ccc     N1 3739   4.487   3.170   4.946  0.9192 -0.0512  0.1868
  160ccc     H7 3740   4.390   3.136   4.955  0.1263  1.0913 -2.6491
  160ccc     H8 3741   4.528   3.122   4.865  2.1852 -0.8013  1.2417
  160ccc     O1 3742   4.337   3.583   5.060  0.2963 -0.2730 -0.2254
  160ccc    H17 3743   4.542   3.145   5.029  0.0421 -0.7048  0.5892
  161ccc     C1 3744   3.681   2.664   5.618  0.2453  0.4206 -0.0437
  161ccc     H1 3745   3.610   2.721   5.679 -0.4915  1.6470 -1.9641
  161ccc     H2 3746   3.771   2.720   5.595  0.1768  1.6087  2.2312
  161ccc     C2 3747   3.600   2.635   5.491  0.5104  0.3271  0.2190
  161ccc     H3 3748   3.633   2.535   5.458  2.6106  1.3468 -0.9898
  161ccc     H4 3749   3.498   2.602   5.517  1.5895 -3.0705  0.7073
  161ccc     C3 3750   3.616   2.738   5.374 -0.4542  0.7350 -0.0969
  161ccc     H5 3751   3.562   2.706   5.283  0.1836  0.2353 -0.3063
  161ccc     H6 3752   3.723   2.728   5.353 -0.5879  1.5649 -1.3125
  161ccc     N1 3753   3.728   2.545   5.707  0.7059  0.3263 -0.0614
  161ccc     H7 3754   3.765   2.589   5.792 -0.2552  0.0002  0.5437
  161ccc     H8 3755   3.654   2.476   5.728  1.7072 -0.4320  1.2057
  161ccc     O1 3756   3.574   2.866   5.421  0.2393 -0.3753  0.2318
  161ccc    H17 3757   3.809   2.494   5.668  1.3341  1.3317 -0.1177
  162ccc     C1 3758   2.966   2.687   5.406  0.0001 -0.1174  0.0317
  162ccc     H1 3759   3.017   2.595   5.435 -1.2037 -0.7436  0.2403
  162ccc     H2 3760   3.015   2.738   5.323  0.0114 -0.0310  0.0920
  162ccc     C2 3761   2.953   2.779   5.532  0.3443 -0.0643 -0.2449
  162ccc     H3 3762   2.882   2.861   5.514  1.0254  0.9845  1.6083
  162ccc     H4 3763   2.897   2.726   5.610  1.2417  0.2351  0.6112
  162ccc     C3 3764   3.091   2.831   5.585  0.1186 -0.5153  0.0357
  162ccc     H5 3765   3.154   2.749   5.621  0.8328 -0.3202 -0.7377
  162ccc     H6 3766   3.072   2.899   5.669 -2.5736  0.0021 -0.8889
  162ccc     N1 3767   2.840   2.637   5.346 -0.2804  0.5968 -0.0054
  162ccc     H7 3768   2.841   2.579   5.261  1.1906 -0.0039  0.3961
  162ccc     H8 3769   2.796   2.574   5.415  1.0669  1.3294  1.6139
  162ccc     O1 3770   3.155   2.897   5.472 -0.2033 -0.3671  0.1711
  162ccc    H17 3771   2.776   2.715   5.324 -2.4083 -0.1915  2.7074
  163ccc     C1 3772   4.140   4.499   7.169 -0.4160 -0.6119 -0.2168
  163ccc     H1 3773   4.119   4.393   7.153  3.9670 -1.1275 -6.2875
  163ccc     H2 3774   4.100   4.553   7.083  1.7270  1.0933 -0.2530
  163ccc     C2 3775   4.294   4.494   7.176  0.0109  0.3397 -0.2273
  163ccc     H3 3776   4.338   4.590   7.206  0.4678 -0.0698  0.4408
  163ccc     H4 3777   4.320   4.419   7.252  1.1625  0.2958 -0.6550
  163ccc     C3 3778   4.358   4.436   7.051  0.4750  0.4266 -0.4103
  163ccc     H5 3779   4.311   4.338   7.033 -0.8803  0.9800 -0.0140
  163ccc     H6 3780   4.462   4.408   7.069  0.5295  1.2117  0.5748
  163ccc     N1 3781   4.075   4.549   7.294  0.1251 -0.4262 -0.0970
  163ccc     H7 3782   3.972   4.555   7.287 -0.2580 -2.1498  2.6132
  163ccc     H8 3783   4.099   4.487   7.373 -0.0314  2.0857  2.0496
  163ccc     O1 3784   4.336   4.511   6.933  0.0631  0.0438 -0.1214
  163ccc    H17 3785   4.110   4.640   7.328  0.5744 -0.9628  0.9235
  164ccc     C1 3786   4.001   5.537   6.960 -0.0848  0.2041 -0.4972
  164ccc     H1 3787   4.037   5.613   6.890 -2.3364  0.3231 -1.6054
  164ccc     H2 3788   4.072   5.537   7.043 -0.7156 -2.3123  0.1381
  164ccc     C2 3789   4.013   5.399   6.887  0.3271 -0.8284 -0.3443
  164ccc     H3 3790   3.985   5.318   6.955  0.7228 -0.2872  0.4822
  164ccc     H4 3791   3.936   5.387   6.810 -0.8900 -1.1057  0.8912
  164ccc     C3 3792   4.156   5.367   6.827  0.3361 -0.3759  0.4173
  164ccc     H5 3793   4.236   5.372   6.901 -0.0027  0.8255  0.7265
  164ccc     H6 3794   4.177   5.450   6.758 -2.0042  0.7289  0.9106
  164ccc     N1 3795   3.863   5.587   6.996  0.7711  0.4046  0.3337
  164ccc     H7 3796   3.824   5.527   7.071 -1.3680  1.3486  0.0495
  164ccc     H8 3797   3.866   5.687   7.018  0.8874  0.7274 -1.0962
  164ccc     O1 3798   4.152   5.242   6.764  0.0318  0.5415 -0.0405
  164ccc    H17 3799   3.792   5.577   6.922 -1.5410 -0.0232  2.4368
  165ccc     C1 3800   4.907   3.779   7.133  0.0198 -0.2949 -0.6149
  165ccc     H1 3801   4.959   3.719   7.058 -2.9316 -2.2887 -1.2660
  165ccc     H2 3802   4.818   3.718   7.151 -0.4485  0.6273  0.3025
  165ccc     C2 3803   4.873   3.914   7.063 -0.1167  0.7566 -0.2563
  165ccc     H3 3804   4.822   3.994   7.119 -0.3845  0.7956 -0.5482
  165ccc     H4 3805   4.975   3.954   7.054  0.0817  0.5129  0.8212
  165ccc     C3 3806   4.825   3.903   6.918  0.2211  0.2020  0.4049
  165ccc     H5 3807   4.897   3.844   6.859 -2.3195  0.6020 -3.4443
  165ccc     H6 3808   4.828   4.001   6.868 -0.1449 -0.9292 -1.9661
  165ccc     N1 3809   4.993   3.796   7.253 -0.3494  0.0310 -0.0139
  165ccc     H7 3810   4.935   3.845   7.322  0.0995  0.7284 -0.1201
  165ccc     H8 3811   5.027   3.707   7.291  0.0276 -0.3509 -1.2102
  165ccc     O1 3812   4.688   3.851   6.909 -0.2631 -0.3218  0.2180
  165ccc    H17 3813   5.074   3.854   7.224 -2.7636  3.0153 -1.2933
  166ccc     C1 3814   3.927   3.056   7.019 -0.0598  0.2252 -0.6442
  166ccc     H1 3815   4.018   3.000   6.994  0.2693  1.9679 -3.8684
  166ccc     H2 3816   3.835   2.998   7.011 -0.0844 -0.0501  1.2038
  166ccc     C2 3817   3.928   3.171   6.919  0.1731 -0.6916  0.0907
  166ccc     H3 3818   3.879   3.140   6.826  0.3670  0.2268 -0.3309
  166ccc     H4 3819   3.869   3.257   6.955 -0.9783 -1.7655  0.8722
  166ccc     C3 3820   4.069   3.207   6.882  0.5715  0.4965 -0.1888
  166ccc     H5 3821   4.111   3.116   6.836 -0.2358  0.6710 -1.3229
  166ccc     H6 3822   4.124   3.235   6.973  0.4574  0.8574 -0.2335
  166ccc     N1 3823   3.924   3.092   7.162 -0.3247 -0.1033 -0.0616
  166ccc     H7 3824   3.837   3.141   7.186 -0.5326 -0.9005  0.8951
  166ccc     H8 3825   3.924   3.004   7.217 -0.1725  0.1295  0.3144
  166ccc     O1 3826   4.046   3.315   6.790 -0.4146  0.4307  1.0974
  166ccc    H17 3827   4.010   3.141   7.189 -0.6740  0.9779 -0.8731
  167ccc     C1 3828   2.125   5.087   8.305 -0.5500 -0.5531  0.8326
  167ccc     H1 3829   2.117   4.983   8.335  0.5051 -0.5369  1.2190
  167ccc     H2 3830   2.032   5.142   8.322 -0.4199  0.6724 -1.8700
  167ccc     C2 3831   2.154   5.093   8.152 -0.1400  0.0570  0.8454
  167ccc     H3 3832   2.139   5.195   8.114  0.5481 -0.1575 -0.0377
  167ccc     H4 3833   2.257   5.059   8.136 -0.4068 -0.6985  0.6546
  167ccc     C3 3834   2.051   4.998   8.074 -0.0020 -0.3429 -0.2535
  167ccc     H5 3835   1.949   5.035   8.092  0.0992 -0.8608  1.5633
  167ccc     H6 3836   2.069   4.899   8.117  0.3957 -0.3826 -0.5084
  167ccc     N1 3837   2.238   5.164   8.373 -0.1864 -0.1752  0.3579
  167ccc     H7 3838   2.236   5.262   8.342  0.7530 -0.8175 -2.0269
  167ccc     H8 3839   2.229   5.155   8.475  0.0444 -0.7430  0.3354
  167ccc     O1 3840   2.088   4.996   7.939 -0.2426  0.0117  1.0339
  167ccc    H17 3841   2.327   5.122   8.343  0.4489  1.9603 -0.9865
  168ccc     C1 3842   2.746   4.987   7.707  0.5919  0.5664 -0.7019
  168ccc     H1 3843   2.810   4.963   7.622  0.2580  1.8276 -1.3368
  168ccc     H2 3844   2.658   4.923   7.700  1.5583 -0.8018 -0.6050
  168ccc     C2 3845   2.709   5.132   7.687 -0.2885 -0.2409 -0.2487
  168ccc     H3 3846   2.634   5.170   7.758  0.9898  2.7537 -0.3294
  168ccc     H4 3847   2.798   5.192   7.710  0.1311 -1.8496  2.8572
  168ccc     C3 3848   2.663   5.161   7.544 -0.3289 -0.2418  0.3528
  168ccc     H5 3849   2.735   5.117   7.474  0.8294 -0.3689  1.5773
  168ccc     H6 3850   2.670   5.270   7.529  1.6534 -0.1961  1.2802
  168ccc     N1 3851   2.826   4.953   7.829  0.0956  0.7023 -0.7247
  168ccc     H7 3852   2.762   4.966   7.909 -0.6978  1.2678 -1.4312
  168ccc     H8 3853   2.873   4.862   7.822  0.3319  0.6005  1.4537
  168ccc     O1 3854   2.535   5.113   7.526  0.8285  0.6484 -0.5290
  168ccc    H17 3855   2.897   5.026   7.843 -0.7055  1.4508 -0.4521
  169ccc     C1 3856   0.795   5.468   6.281  0.7250 -0.3581 -0.0557
  169ccc     H1 3857   0.866   5.544   6.315  0.5966  0.9562 -2.5210
  169ccc     H2 3858   0.753   5.504   6.188  3.0045  0.1710 -0.9416
  169ccc     C2 3859   0.679   5.446   6.384  0.6846  0.0101  0.7845
  169ccc     H3 3860   0.603   5.524   6.369  0.4554 -0.4098 -0.3056
  169ccc     H4 3861   0.629   5.350   6.368  1.5706 -0.2590 -0.4949
  169ccc     C3 3862   0.726   5.447   6.531 -0.0181  0.1068 -0.0315
  169ccc     H5 3863   0.655   5.407   6.604  0.6676  1.2775  1.3329
  169ccc     H6 3864   0.755   5.550   6.555 -0.5269  0.6080 -1.5369
  169ccc     N1 3865   0.862   5.335   6.247 -0.2584  0.5312  0.4003
  169ccc     H7 3866   0.947   5.336   6.189 -0.4729 -4.3493 -0.4603
  169ccc     H8 3867   0.901   5.290   6.331 -0.2349 -0.2883 -0.0358
  169ccc     O1 3868   0.842   5.364   6.544  0.2200  0.3032  0.3594
  169ccc    H17 3869   0.793   5.269   6.208  0.5996 -0.4915  0.5699
  170ccc     C1 3870   0.233   4.770   7.314 -0.0005 -0.2934  0.0543
  170ccc     H1 3871   0.309   4.692   7.323 -0.0596 -0.8848 -3.3096
  170ccc     H2 3872   0.192   4.736   7.219  0.6930  1.1147 -0.7739
  170ccc     C2 3873   0.318   4.896   7.310 -0.4893  0.1337 -0.1640
  170ccc     H3 3874   0.257   4.980   7.275 -0.7066 -0.3010 -0.8484
  170ccc     H4 3875   0.358   4.906   7.412  1.5654  0.6436 -0.9599
  170ccc     C3 3876   0.447   4.882   7.224 -0.4400  0.9145  0.1949
  170ccc     H5 3877   0.408   4.868   7.122 -1.0781 -0.2419  0.5816
  170ccc     H6 3878   0.501   4.789   7.244 -1.6696  0.3052  0.7617
  170ccc     N1 3879   0.139   4.740   7.423 -0.3070 -0.0352 -0.2528
  170ccc     H7 3880   0.098   4.646   7.422 -0.2443 -0.0652 -0.1047
  170ccc     H8 3881   0.197   4.749   7.508 -0.6201 -1.1045  0.0823
  170ccc     O1 3882   0.515   5.008   7.243  0.3257 -0.2947  0.4138
  170ccc    H17 3883   0.060   4.806   7.424 -1.0128 -0.8463  1.6171
  171ccc     C1 3884   2.004   3.052   7.838  0.0733 -1.0744  0.2891
  171ccc     H1 3885   1.917   3.016   7.894 -1.0214  0.5281 -0.3120
  171ccc     H2 3886   2.049   3.137   7.889  0.2013  0.8505 -2.7732
  171ccc     C2 3887   1.966   3.101   7.697  0.1768 -0.3225 -0.3634
  171ccc     H3 3888   1.952   3.016   7.629  1.8976  0.3503 -1.6386
  171ccc     H4 3889   1.868   3.149   7.706  1.3322  2.0318  0.7408
  171ccc     C3 3890   2.061   3.209   7.625  0.0571  0.2822 -0.6776
  171ccc     H5 3891   2.158   3.165   7.600  0.8028  0.2752  1.9414
  171ccc     H6 3892   2.077   3.293   7.693 -0.3457 -0.0106 -0.2101
  171ccc     N1 3893   2.112   2.945   7.835  0.5119 -0.3308 -0.1860
  171ccc     H7 3894   2.193   2.991   7.791  1.4965 -0.9175  0.9462
  171ccc     H8 3895   2.125   2.912   7.932  0.2301 -1.5285 -0.5505
  171ccc     O1 3896   1.986   3.257   7.509 -0.1873  0.0304 -0.0508
  171ccc    H17 3897   2.082   2.866   7.776 -2.3244  0.9165 -0.6037
  172ccc     C1 3898   2.405   2.919   6.548 -0.0405  0.4826  0.3902
  172ccc     H1 3899   2.513   2.918   6.563  0.0485 -1.1476 -0.1852
  172ccc     H2 3900   2.392   2.966   6.451  3.5057 -0.3353 -0.6219
  172ccc     C2 3901   2.333   2.995   6.661  0.1188  0.1998  0.1075
  172ccc     H3 3902   2.225   2.982   6.644  0.0801  1.0535 -0.3162
  172ccc     H4 3903   2.357   2.944   6.755  1.1760 -1.6497 -1.1012
  172ccc     C3 3904   2.377   3.142   6.672  1.0513  0.3083  0.4822
  172ccc     H5 3905   2.352   3.199   6.582 -1.4135  1.0286  1.5438
  172ccc     H6 3906   2.485   3.136   6.694  0.4532 -3.0369  3.2954
  172ccc     N1 3907   2.354   2.777   6.523 -0.1264 -0.4481 -0.4564
  172ccc     H7 3908   2.253   2.768   6.542  0.0350  1.3939  1.6482
  172ccc     H8 3909   2.369   2.751   6.424 -2.7087 -1.3948 -0.6828
  172ccc     O1 3910   2.321   3.194   6.790  0.0714 -0.1212  0.1104
  172ccc    H17 3911   2.397   2.715   6.593 -0.2102 -0.0531 -0.0538
  173ccc     C1 3912   1.988   3.880   7.632 -0.7602  0.3819 -0.1813
  173ccc     H1 3913   1.887   3.851   7.602 -0.3100 -1.5037  0.0124
  173ccc     H2 3914   1.999   3.901   7.739  0.4467  0.1671 -0.2451
  173ccc     C2 3915   2.030   3.997   7.539  0.0881 -0.2673 -0.7054
  173ccc     H3 3916   2.134   4.016   7.569 -0.5944  1.0289  0.9918
  173ccc     H4 3917   2.016   3.957   7.437 -3.9978  1.1757 -0.9175
  173ccc     C3 3918   1.940   4.125   7.564  0.0794 -0.4590 -0.2828
  173ccc     H5 3919   1.995   4.208   7.516  0.9442  0.3534  1.9871
  173ccc     H6 3920   1.941   4.151   7.670 -1.7264  2.0717 -0.7847
  173ccc     N1 3921   2.058   3.744   7.600  0.3642 -0.3262 -0.2106
  173ccc     H7 3922   2.159   3.745   7.619  0.4580 -1.2943 -0.6111
  173ccc     H8 3923   2.013   3.671   7.656  1.9395 -1.0019  0.2231
  173ccc     O1 3924   1.806   4.111   7.516  0.3671  0.5701  0.7124
  173ccc    H17 3925   2.041   3.720   7.501  1.0351 -0.1560 -0.3738
  174ccc     C1 3926   0.782   4.161   7.962  0.2481  0.3541  0.2583
  174ccc     H1 3927   0.803   4.104   8.053  1.2739  1.3689  0.6700
  174ccc     H2 3928   0.720   4.104   7.892  0.6103 -0.3734  0.5227
  174ccc     C2 3929   0.911   4.177   7.880  0.4131  0.2453  0.4475
  174ccc     H3 3930   0.892   4.240   7.792 -0.9462 -0.7121  0.0251
  174ccc     H4 3931   0.990   4.231   7.935  0.3871  1.1730 -0.4045
  174ccc     C3 3932   0.952   4.043   7.822  0.0486 -0.6558  0.7559
  174ccc     H5 3933   0.867   3.999   7.769 -0.1551  2.6133 -1.9455
  174ccc     H6 3934   0.977   3.978   7.907  1.0925 -2.1018 -0.5946
  174ccc     N1 3935   0.711   4.296   8.001 -0.1275  0.4188 -0.0503
  174ccc     H7 3936   0.702   4.367   7.927  1.1329  0.2350 -0.4017
  174ccc     H8 3937   0.625   4.273   8.053 -0.7765 -3.3944 -2.3733
  174ccc     O1 3938   1.073   4.060   7.746  0.4539 -0.0141  0.2325
  174ccc    H17 3939   0.776   4.341   8.067 -0.1664 -1.1399  1.0869
  175ccc     C1 3940   3.423   6.881   5.973  0.0570 -0.3575  0.2406
  175ccc     H1 3941   3.331   6.920   5.929 -0.3625 -0.0755  1.3442
  175ccc     H2 3942   3.496   6.850   5.897  1.3117 -0.0311  1.2756
  175ccc     C2 3943   3.367   6.763   6.049 -0.4694  0.1539 -0.6884
  175ccc     H3 3944   3.442   6.727   6.120  0.1696 -0.8755 -1.8549
  175ccc     H4 3945   3.291   6.800   6.119  1.7117  1.4794  1.1228
  175ccc     C3 3946   3.329   6.644   5.970 -0.4036  0.3549  0.1217
  175ccc     H5 3947   3.319   6.544   6.014 -1.7403 -0.5478 -2.0023
  175ccc     H6 3948   3.394   6.630   5.882 -0.2211 -0.9584  0.4463
  175ccc     N1 3949   3.484   6.991   6.055 -0.0001  0.1005  0.0594
  175ccc     H7 3950   3.579   6.964   6.083  0.6929  2.0192 -0.3067
  175ccc     H8 3951   3.491   7.078   6.002  0.0976 -0.1952 -0.4206
  175ccc     O1 3952   3.200   6.675   5.926  0.0007  0.3856  0.8579
  175ccc    H17 3953   3.431   7.001   6.143 -2.8681 -1.7037 -1.2916
  176ccc     C1 3954   3.256   7.602   5.559  0.2050  0.5528  0.0805
  176ccc     H1 3955   3.272   7.496   5.541 -2.4266 -0.2956  2.1952
  176ccc     H2 3956   3.313   7.616   5.651  0.8643  1.4971 -0.4399
  176ccc     C2 3957   3.103   7.619   5.576 -0.4617  0.1342 -0.4319
  176ccc     H3 3958   3.087   7.727   5.566  1.0148  0.4747  0.5820
  176ccc     H4 3959   3.055   7.579   5.486 -1.7041  0.6358 -0.0142
  176ccc     C3 3960   3.048   7.558   5.705 -0.0391  0.0985 -0.0398
  176ccc     H5 3961   2.939   7.568   5.712 -0.0317 -0.1445  0.5095
  176ccc     H6 3962   3.098   7.590   5.797  1.2358 -0.7923 -0.4092
  176ccc     N1 3963   3.329   7.667   5.449 -0.9597  0.9376 -0.2741
  176ccc     H7 3964   3.426   7.633   5.439 -1.8102 -1.1384 -2.6790
  176ccc     H8 3965   3.296   7.644   5.355 -0.2184 -0.3849 -0.2366
  176ccc     O1 3966   3.056   7.413   5.691 -0.1505  0.3296 -0.5155
  176ccc    H17 3967   3.337   7.768   5.463  0.3815  0.7347  0.7032
  177ccc     C1 3968   3.902   6.101   5.677  0.2082  0.3526 -0.3402
  177ccc     H1 3969   3.811   6.044   5.657  0.2930  0.3565 -0.7601
  177ccc     H2 3970   3.984   6.028   5.677  2.0359  2.1162 -4.0951
  177ccc     C2 3971   3.903   6.181   5.821 -0.2050  0.5124  0.5830
  177ccc     H3 3972   4.007   6.197   5.853 -0.6398  2.5036  1.1416
  177ccc     H4 3973   3.856   6.277   5.797 -1.3414 -0.4447 -1.2614
  177ccc     C3 3974   3.825   6.106   5.933  0.5449 -0.2626 -0.5430
  177ccc     H5 3975   3.843   6.143   6.035 -2.8572  2.3929 -0.7273
  177ccc     H6 3976   3.854   6.000   5.935  1.4242 -0.0179  0.9097
  177ccc     N1 3977   3.922   6.200   5.570 -0.2778 -0.6641 -0.1747
  177ccc     H7 3978   3.853   6.277   5.563  0.8952  0.4892  0.4526
  177ccc     H8 3979   4.013   6.246   5.588 -0.9361 -0.0078  1.6614
  177ccc     O1 3980   3.685   6.122   5.905 -0.5404 -0.2611  0.2528
  177ccc    H17 3981   3.928   6.149   5.480  0.1332 -0.9335  0.0016
  178ccc     C1 3982   3.386   6.082   5.244  0.5891 -0.6569  1.0028
  178ccc     H1 3983   3.329   6.156   5.188 -0.4633 -0.0410  2.8154
  178ccc     H2 3984   3.395   5.992   5.184 -3.5960 -0.4008 -0.2536
  178ccc     C2 3985   3.316   6.049   5.380 -0.4483  1.0319  0.1261
  178ccc     H3 3986   3.387   5.996   5.444 -1.6697 -0.3265  0.4099
  178ccc     H4 3987   3.301   6.143   5.434 -0.0727  0.7201  0.7806
  178ccc     C3 3988   3.185   5.963   5.361 -0.5200 -0.8879 -0.0469
  178ccc     H5 3989   3.208   5.876   5.297  0.5520 -0.7210  0.0811
  178ccc     H6 3990   3.113   6.031   5.314  0.4196  0.0161 -0.2201
  178ccc     N1 3991   3.526   6.135   5.264 -0.2411  0.6072  0.0431
  178ccc     H7 3992   3.581   6.057   5.302 -1.4081  0.4202  1.4525
  178ccc     H8 3993   3.570   6.171   5.178  0.9472 -0.4976  0.1542
  178ccc     O1 3994   3.130   5.923   5.485 -0.1062 -0.5324 -0.9665
  178ccc    H17 3995   3.527   6.209   5.335  0.2602  0.2774  0.3864
  179ccc     C1 3996   0.571   6.428   7.352 -0.5374 -0.2868 -0.2023
  179ccc     H1 3997   0.562   6.451   7.458 -2.6194 -1.1187 -0.1578
  179ccc     H2 3998   0.637   6.344   7.330 -3.0142 -2.2321 -0.5886
  179ccc     C2 3999   0.601   6.557   7.276  0.6639 -0.3115  0.4298
  179ccc     H3 4000   0.544   6.565   7.183  0.2616 -3.0573  0.3615
  179ccc     H4 4001   0.562   6.632   7.346  3.1980  0.3989  1.1863
  179ccc     C3 4002   0.750   6.584   7.249 -0.3131  0.3325  1.3870
  179ccc     H5 4003   0.815   6.532   7.321  1.2036 -0.3547 -0.3907
  179ccc     H6 4004   0.762   6.692   7.265 -0.5832  0.1530  2.9108
  179ccc     N1 4005   0.425   6.379   7.325 -0.3840  0.0653 -0.6008
  179ccc     H7 4006   0.413   6.281   7.355  0.8300 -0.2890 -1.2455
  179ccc     H8 4007   0.360   6.447   7.369 -0.6096 -0.5913  0.1139
  179ccc     O1 4008   0.789   6.555   7.113  0.1334  0.2219  0.2784
  179ccc    H17 4009   0.401   6.376   7.225 -1.2910  1.3851 -0.4541
  180ccc     C1 4010   0.626   7.388   6.409 -0.0629 -0.4308 -0.4805
  180ccc     H1 4011   0.580   7.340   6.322 -2.1690 -1.5752  1.1549
  180ccc     H2 4012   0.708   7.453   6.380 -0.4292 -0.2463 -1.1112
  180ccc     C2 4013   0.676   7.270   6.497  0.1542 -0.1133  0.2317
  180ccc     H3 4014   0.732   7.297   6.587  1.3896  0.7091 -0.7596
  180ccc     H4 4015   0.589   7.217   6.538  0.9328 -0.2291  1.7794
  180ccc     C3 4016   0.745   7.164   6.413 -0.3692  0.9551  0.1098
  180ccc     H5 4017   0.837   7.218   6.388  0.9574 -0.1866  2.2438
  180ccc     H6 4018   0.679   7.134   6.331 -1.1526  0.9162  0.7455
  180ccc     N1 4019   0.519   7.474   6.472 -0.2676  0.4637  0.7805
  180ccc     H7 4020   0.440   7.414   6.499 -0.4862 -1.5506 -3.5633
  180ccc     H8 4021   0.551   7.535   6.549  3.1268  1.6626 -1.3756
  180ccc     O1 4022   0.776   7.051   6.491 -0.7268  0.5616 -0.1006
  180ccc    H17 4023   0.492   7.537   6.395  4.3576  0.1271 -1.4343
  181ccc     C1 4024   2.272   6.396   6.984 -0.0375 -0.8637  0.0247
  181ccc     H1 4025   2.356   6.434   7.042 -0.4542  2.1648 -1.1702
  181ccc     H2 4026   2.185   6.460   6.999  1.2374  1.2872 -1.3026
  181ccc     C2 4027   2.244   6.261   7.035  0.6484 -0.6663  0.0451
  181ccc     H3 4028   2.147   6.237   6.990  0.6133  0.4020 -0.4937
  181ccc     H4 4029   2.302   6.175   7.000  0.1965 -1.9647  2.3040
  181ccc     C3 4030   2.251   6.256   7.190 -0.2820 -0.4663  0.1230
  181ccc     H5 4031   2.355   6.255   7.225  0.2999 -3.1135 -1.4007
  181ccc     H6 4032   2.203   6.162   7.218 -3.4071  1.1174  0.4520
  181ccc     N1 4033   2.321   6.413   6.841  1.0650  0.2208 -0.2275
  181ccc     H7 4034   2.370   6.324   6.822  1.0142 -0.0343  0.7579
  181ccc     H8 4035   2.251   6.417   6.766  0.1721  0.1080  0.5716
  181ccc     O1 4036   2.169   6.362   7.242 -0.3058 -0.0086  0.8085
  181ccc    H17 4037   2.380   6.496   6.835  1.0085  0.3277  0.5548
  182ccc     C1 4038   2.426   7.210   7.671 -0.4700 -0.9634  0.1916
  182ccc     H1 4039   2.534   7.196   7.681 -0.0177  1.8529 -0.0814
  182ccc     H2 4040   2.406   7.314   7.695  1.0037 -0.3230 -1.1700
  182ccc     C2 4041   2.365   7.119   7.775  0.8811  0.0373  0.3336
  182ccc     H3 4042   2.406   7.017   7.776 -2.9614 -1.7328 -0.4884
  182ccc     H4 4043   2.397   7.150   7.875  1.1239 -1.4519  0.7510
  182ccc     C3 4044   2.214   7.113   7.781 -0.6079  0.1852  0.1151
  182ccc     H5 4045   2.164   7.208   7.760  0.9281  0.2682 -4.2299
  182ccc     H6 4046   2.185   7.079   7.882  0.8394 -0.9285  0.1857
  182ccc     N1 4047   2.381   7.198   7.521  0.1017 -0.3401 -0.5541
  182ccc     H7 4048   2.414   7.111   7.479 -0.8158 -0.4026 -1.1781
  182ccc     H8 4049   2.279   7.210   7.514  0.0397 -1.4739 -2.1249
  182ccc     O1 4050   2.170   7.018   7.685  0.7999 -0.2490  0.8728
  182ccc    H17 4051   2.413   7.280   7.467  1.4205 -2.4995 -3.2549
  183ccc     C1 4052  -0.288   7.631   6.372  0.1024  0.2652 -0.0663
  183ccc     H1 4053  -0.394   7.640   6.396  0.2134 -0.7854  0.8819
  183ccc     H2 4054  -0.279   7.558   6.292 -2.6105  0.7217 -0.8910
  183ccc     C2 4055  -0.226   7.574   6.500 -0.6005  0.6299 -0.5589
  183ccc     H3 4056  -0.123   7.539   6.488 -1.3855 -1.5213 -1.4945
  183ccc     H4 4057  -0.243   7.656   6.571  0.7208  0.7654 -0.3727
  183ccc     C3 4058  -0.311   7.456   6.553  1.0421  0.1342 -0.4848
  183ccc     H5 4059  -0.414   7.492   6.558  0.8607 -0.5226  1.0312
  183ccc     H6 4060  -0.288   7.438   6.659 -1.4244 -0.5831 -0.0156
  183ccc     N1 4061  -0.247   7.769   6.326 -0.4462 -0.2096 -0.1166
  183ccc     H7 4062  -0.262   7.841   6.399  0.1181 -0.5206  0.3201
  183ccc     H8 4063  -0.146   7.766   6.308  0.1533 -0.1045  2.6780
  183ccc     O1 4064  -0.299   7.340   6.468 -0.1615 -0.1739  0.2424
  183ccc    H17 4065  -0.302   7.795   6.243  0.2876  1.8515 -0.0271
  184ccc     C1 4066  -0.762   6.774   6.567 -0.4930 -0.1657 -0.0341
  184ccc     H1 4067  -0.713   6.823   6.482 -1.6221  2.0858  0.5442
  184ccc     H2 4068  -0.742   6.838   6.653  0.3327  0.2034 -0.4841
  184ccc     C2 4069  -0.709   6.630   6.592  0.0732  0.5894  0.5487
  184ccc     H3 4070  -0.704   6.617   6.701  0.1669 -2.1222  0.2811
  184ccc     H4 4071  -0.780   6.550   6.568  1.3075 -1.3277  2.8483
  184ccc     C3 4072  -0.577   6.597   6.520 -0.0636  0.3596 -0.1027
  184ccc     H5 4073  -0.605   6.567   6.418 -1.1453  1.5398 -0.1860
  184ccc     H6 4074  -0.531   6.516   6.577  2.4862  1.5376 -0.3679
  184ccc     N1 4075  -0.910   6.758   6.529 -0.2312  0.2768  0.4948
  184ccc     H7 4076  -0.966   6.739   6.614 -0.1724 -0.0145  0.4712
  184ccc     H8 4077  -0.945   6.841   6.479 -0.3475  0.8816  1.5545
  184ccc     O1 4078  -0.482   6.703   6.522 -0.1069 -0.1410  0.1460
  184ccc    H17 4079  -0.910   6.681   6.460  1.8425  1.2292 -0.6846
  185ccc     C1 4080  -0.115   7.596   5.604 -0.6343  0.2099 -0.3105
  185ccc     H1 4081  -0.034   7.523   5.610  1.2862  2.2332  0.1377
  185ccc     H2 4082  -0.153   7.611   5.705  2.0695 -0.6749  0.9377
  185ccc     C2 4083  -0.230   7.542   5.519  0.5334 -0.0324  0.9136
  185ccc     H3 4084  -0.309   7.617   5.501  0.4375 -0.4054 -0.2552
  185ccc     H4 4085  -0.202   7.505   5.421  1.6607  0.1054  1.1760
  185ccc     C3 4086  -0.303   7.425   5.588  0.2274 -0.5623 -0.3963
  185ccc     H5 4087  -0.386   7.397   5.521 -0.1610  0.5464 -0.3921
  185ccc     H6 4088  -0.350   7.466   5.678 -0.4479  0.3832 -1.1542
  185ccc     N1 4089  -0.058   7.725   5.562  0.2410 -0.4078 -0.4338
  185ccc     H7 4090  -0.133   7.796   5.564 -0.6493 -1.3591  0.8377
  185ccc     H8 4091   0.015   7.755   5.628  1.1126 -3.3309  0.0607
  185ccc     O1 4092  -0.205   7.318   5.610 -0.4155 -0.9280 -0.3249
  185ccc    H17 4093  -0.012   7.720   5.470  1.3335  1.0299 -0.0088
  186ccc     C1 4094   0.215   7.253   4.857  0.0466  0.1001  0.9048
  186ccc     H1 4095   0.244   7.167   4.795  2.5884  2.1208 -0.9408
  186ccc     H2 4096   0.307   7.311   4.858 -0.2355  0.5509  1.9320
  186ccc     C2 4097   0.173   7.216   4.997  0.0984  0.3437  0.3655
  186ccc     H3 4098   0.105   7.293   5.036  1.6200  2.3370 -0.7007
  186ccc     H4 4099   0.130   7.115   4.989  2.3819 -0.8541  2.0581
  186ccc     C3 4100   0.295   7.201   5.086  0.8406  0.0290 -1.1548
  186ccc     H5 4101   0.350   7.295   5.070  0.2905 -0.0542 -4.1576
  186ccc     H6 4102   0.340   7.111   5.043 -2.1931 -1.8120 -0.7733
  186ccc     N1 4103   0.110   7.331   4.786 -0.9870  0.8266  0.7100
  186ccc     H7 4104   0.022   7.279   4.788 -0.2277 -0.8185 -2.5532
  186ccc     H8 4105   0.100   7.425   4.829  2.0641  2.3049 -1.4034
  186ccc     O1 4106   0.239   7.178   5.219 -0.5369 -0.0952 -0.6451
  186ccc    H17 4107   0.145   7.346   4.690 -1.1539  4.3274  1.0640
  187ccc     C1 4108   1.929   6.211   4.657 -0.3921  0.5541  0.4715
  187ccc     H1 4109   1.843   6.234   4.721 -0.5193  0.9815  0.1533
  187ccc     H2 4110   1.995   6.143   4.709  1.2773  1.0082 -0.9659
  187ccc     C2 4111   2.015   6.338   4.642 -0.2223 -0.2497  0.0884
  187ccc     H3 4112   2.071   6.357   4.735 -0.7506  0.0227  0.3553
  187ccc     H4 4113   2.093   6.318   4.567  0.0222 -1.9671  0.7390
  187ccc     C3 4114   1.946   6.465   4.594 -0.1791 -0.2858  0.5818
  187ccc     H5 4115   1.906   6.455   4.492  0.7634  0.8289  0.0756
  187ccc     H6 4116   2.026   6.537   4.573 -0.5056 -0.2351 -0.5589
  187ccc     N1 4117   1.886   6.142   4.527 -0.2738 -0.1750 -0.0391
  187ccc     H7 4118   1.823   6.064   4.550 -3.6204  1.5723 -2.4710
  187ccc     H8 4119   1.834   6.211   4.471 -1.1416 -0.4925  0.3611
  187ccc     O1 4120   1.846   6.505   4.689 -0.5568 -0.2367 -0.6667
  187ccc    H17 4121   1.967   6.119   4.468  0.5522  0.0456  0.9775
  188ccc     C1 4122   1.194   7.035   4.701  1.0325  0.3192  0.5839
  188ccc     H1 4123   1.126   7.060   4.783 -0.2167  1.6585 -0.7875
  188ccc     H2 4124   1.253   6.948   4.730  2.2279  0.6475 -0.7309
  188ccc     C2 4125   1.290   7.153   4.662 -0.3551 -0.4867 -0.3820
  188ccc     H3 4126   1.346   7.134   4.570  1.1722 -2.7646  0.9402
  188ccc     H4 4127   1.231   7.241   4.631 -0.1936  0.2002  1.1806
  188ccc     C3 4128   1.382   7.193   4.783  0.3970 -0.4925  0.5414
  188ccc     H5 4129   1.316   7.216   4.868  0.4129 -0.4447  0.5406
  188ccc     H6 4130   1.434   7.289   4.770  0.4813 -0.5512  0.4490
  188ccc     N1 4131   1.108   7.005   4.580 -0.1674 -0.0786  0.3097
  188ccc     H7 4132   1.026   6.949   4.608 -0.7006  1.3168  1.6608
  188ccc     H8 4133   1.059   7.089   4.547  0.5096  0.8536  1.5813
  188ccc     O1 4134   1.489   7.090   4.814  0.3664 -0.0718 -0.6351
  188ccc    H17 4135   1.157   6.956   4.503 -2.6555  0.1326 -1.5104
  189ccc     C1 4136   1.062   5.989   3.975  0.4879  0.6380  0.2368
  189ccc     H1 4137   1.167   6.009   3.998  0.0227  1.0450  2.2301
  189ccc     H2 4138   0.999   6.023   4.057 -0.7166 -2.9480  0.9817
  189ccc     C2 4139   1.025   5.841   3.971  0.1898 -0.1011 -0.3758
  189ccc     H3 4140   0.925   5.831   3.929  0.1213 -1.9643  0.1204
  189ccc     H4 4141   1.088   5.783   3.902 -0.0418  0.7042 -1.2805
  189ccc     C3 4142   1.028   5.766   4.107 -0.1250  0.3633 -0.7949
  189ccc     H5 4143   1.128   5.763   4.152 -0.7395 -1.5408  0.5744
  189ccc     H6 4144   1.002   5.660   4.094 -0.7709  0.4535 -0.2591
  189ccc     N1 4145   1.038   6.058   3.843 -0.0659  0.7943  0.3648
  189ccc     H7 4146   1.024   6.160   3.851 -0.3108  0.7321  0.7570
  189ccc     H8 4147   1.113   6.042   3.774 -0.9219 -1.8875 -0.0537
  189ccc     O1 4148   0.928   5.837   4.191  0.0437  0.3270  0.0600
  189ccc    H17 4149   0.947   6.023   3.809  1.2476 -3.5412  0.8218
  190ccc     C1 4150   0.512   5.709   3.984 -0.1630  0.1095  0.7555
  190ccc     H1 4151   0.458   5.697   4.078 -0.1015 -1.6117  0.6016
  190ccc     H2 4152   0.599   5.768   4.013  0.1537 -0.1163  0.2725
  190ccc     C2 4153   0.424   5.793   3.892  0.2326 -0.4110 -0.5329
  190ccc     H3 4154   0.480   5.864   3.830 -2.3806  0.9434 -1.4769
  190ccc     H4 4155   0.364   5.740   3.817 -0.0160 -1.0865  0.1305
  190ccc     C3 4156   0.333   5.871   3.982 -0.5666  0.9360  0.6614
  190ccc     H5 4157   0.259   5.802   4.026 -0.5864  2.3022  2.9478
  190ccc     H6 4158   0.278   5.941   3.918 -1.6575 -1.7449 -1.5427
  190ccc     N1 4159   0.531   5.560   3.957  0.2715  0.4902 -0.1330
  190ccc     H7 4160   0.614   5.527   4.007  0.2822 -0.6040 -0.8291
  190ccc     H8 4161   0.450   5.499   3.976  0.6687  0.0602  0.1923
  190ccc     O1 4162   0.399   5.932   4.088  0.0159 -0.2035 -0.0484
  190ccc    H17 4163   0.551   5.547   3.856 -1.2042 -0.6704 -0.3068
  191SOL     OW 4164   2.162   1.360   4.136 -0.1602  0.0152  0.2119
  191SOL    HW1 4165   2.235   1.302   4.113  1.1838  1.4746  0.6015
  191SOL    HW2 4166   2.115   1.312   4.205  0.4388 -0.9493 -0.0297
  192SOL     OW 4167   9.734  10.883   5.712 -0.8690  0.2013  0.6013
  192SOL    HW1 4168   9.772  10.958   5.667 -2.0514 -0.4530 -1.6466
  192SOL    HW2 4169   9.646  10.912   5.738 -0.4159  0.3734  2.0788
  193SOL     OW 4170   7.041   1.689  10.064  0.0435 -0.1750 -0.0519
  193SOL    HW1 4171   6.948   1.696  10.086 -0.0122 -0.3246 -0.2312
  193SOL    HW2 4172   7.050   1.736   9.981 -0.0633 -0.9732 -0.5295
  194SOL     OW 4173   5.737   2.599   2.766  0.0801  0.0825  0.2111
  194SOL    HW1 4174   5.829   2.619   2.778  0.0755 -0.0070  0.3878
  194SOL    HW2 4175   5.694   2.685   2.765  0.4628  0.3371 -2.5010
  195SOL     OW 4176  10.305   9.655   4.325 -0.2529  0.1187  0.1365
  195SOL    HW1 4177  10.383   9.599   4.332 -0.3190  0.0994  0.7311
  195SOL    HW2 4178  10.243   9.603   4.273 -0.2227 -0.2691  0.4800
  196SOL     OW 4179   4.663   5.325   7.745  0.2185 -0.4858  0.1008
  196SOL    HW1 4180   4.710   5.313   7.662  0.6065 -0.3594  0.2946
  196SOL    HW2 4181   4.640   5.237   7.773  1.3045 -0.6552  0.5379
  197SOL     OW 4182   3.853   0.428   8.362 -0.1177  0.6570 -0.3517
  197SOL    HW1 4183   3.890   0.401   8.446 -0.0144  3.3870  0.5837
  197SOL    HW2 4184   3.916   0.397   8.297  1.4497  1.2120  0.8467
  198SOL     OW 4185   5.354   3.142   2.464  0.1067  0.2757  0.1935
  198SOL    HW1 4186   5.431   3.186   2.500 -0.4122  1.6592 -0.3040
  198SOL    HW2 4187   5.282   3.167   2.523 -0.3500  0.8288 -0.5716
  199SOL     OW 4188   8.962  11.059   5.454  0.0188 -0.1987 -1.3482
  199SOL    HW1 4189   8.950  10.995   5.384 -0.7504 -1.8899  0.2339
  199SOL    HW2 4190   8.886  11.045   5.512  2.0204 -0.8735  1.3001
  200SOL     OW 4191   3.627   4.558   7.459  0.0871  0.0115  0.0669
  200SOL    HW1 4192   3.721   4.555   7.477  0.1401  2.4484  0.4696
  200SOL    HW2 4193   3.620   4.534   7.367  0.8745 -1.9771  0.4610
  201SOL     OW 4194   1.906   4.858   0.176  0.3019  0.1037 -0.0873
  201SOL    HW1 4195   1.947   4.928   0.227  1.5505  0.0419 -0.9574
  201SOL    HW2 4196   1.953   4.858   0.093 -1.1417 -0.3325 -0.9527
  202SOL     OW 4197   6.744   2.660   4.830 -0.6252 -0.5711  0.3206
  202SOL    HW1 4198   6.774   2.751   4.833 -1.3373 -0.3106 -0.2934
  202SOL    HW2 4199   6.791   2.617   4.902  1.6787 -0.3288 -0.9507
  203SOL     OW 4200   1.146   6.751   8.073  0.4434 -0.4414  0.1908
  203SOL    HW1 4201   1.241   6.767   8.070  0.2942  0.3898 -0.3594
  203SOL    HW2 4202   1.136   6.663   8.035  1.0045 -0.5990  0.3944
  204SOL     OW 4203   7.948   5.605   5.297 -0.4121  0.0212  0.1394
  204SOL    HW1 4204   7.983   5.570   5.215 -1.0463  1.6040 -0.8642
  204SOL    HW2 4205   7.897   5.533   5.334 -0.7073 -0.5172 -1.2409
  205SOL     OW 4206  10.594   6.391   5.829  0.1434 -0.4303  0.2248
  205SOL    HW1 4207  10.613   6.332   5.902  0.5613  0.0377  0.5036
  205SOL    HW2 4208  10.499   6.402   5.831  0.1754 -0.2425  0.8423
  206SOL     OW 4209   3.627   9.270   5.086 -0.6615  0.1281 -0.0218
  206SOL    HW1 4210   3.553   9.330   5.092 -1.1048  0.1190 -3.3651
  206SOL    HW2 4211   3.598   9.192   5.133 -2.1158  0.7447  0.1662
  207SOL     OW 4212   2.295   2.842   3.693 -0.2919  0.9132 -0.5352
  207SOL    HW1 4213   2.240   2.916   3.666 -0.9839  0.8966  0.7617
  207SOL    HW2 4214   2.274   2.829   3.785  2.3490  1.2790  0.1706
  208SOL     OW 4215   6.865   2.312   4.174 -0.2524  0.0255  0.5274
  208SOL    HW1 4216   6.838   2.285   4.262 -1.6620  0.2806  0.2066
  208SOL    HW2 4217   6.799   2.376   4.148 -1.1522 -1.6477 -1.5614
  209SOL     OW 4218   3.379   6.579   2.667  0.0101  0.0575  0.6099
  209SOL    HW1 4219   3.459   6.538   2.700 -0.1076  0.2714  1.1668
  209SOL    HW2 4220   3.309   6.520   2.696 -0.0106 -0.3627 -0.2504
  210SOL     OW 4221   9.363   1.193   3.990  0.2157  0.0307 -0.0247
  210SOL    HW1 4222   9.296   1.242   4.038 -0.7989 -1.1050 -0.2293
  210SOL    HW2 4223   9.328   1.186   3.901  1.1994  0.4877 -0.4580
  211SOL     OW 4224   7.782   9.016   8.371  0.1305  0.0755 -0.1127
  211SOL    HW1 4225   7.778   9.074   8.294 -3.3060  2.1372  1.3803
  211SOL    HW2 4226   7.709   8.956   8.359  0.7997 -0.9123  0.6485
  212SOL     OW 4227   9.584   6.209   9.856 -0.0140  0.0532 -0.4110
  212SOL    HW1 4228   9.508   6.180   9.908 -0.3125 -1.2977 -1.5481
  212SOL    HW2 4229   9.657   6.206   9.918 -0.9311  1.9547  0.8687
  213SOL     OW 4230   1.521  10.669   6.049 -0.2412 -0.3823 -0.1719
  213SOL    HW1 4231   1.582  10.650   5.978 -0.1927  1.4943 -0.6864
  213SOL    HW2 4232   1.491  10.758   6.032 -1.1415 -0.3152  1.5191
  214SOL     OW 4233   8.369   5.527   3.048 -0.0839 -0.1736 -0.3224
  214SOL    HW1 4234   8.336   5.534   3.138  0.1064 -1.1680 -0.1717
  214SOL    HW2 4235   8.441   5.465   3.053  1.0966  1.0969 -0.8656
  215SOL     OW 4236   5.800  10.097   7.968 -0.1218  0.2541 -0.1731
  215SOL    HW1 4237   5.887  10.088   7.930 -0.3588 -0.1305 -0.6399
  215SOL    HW2 4238   5.742  10.052   7.906 -0.6832  0.7181  0.0079
  216SOL     OW 4239   8.991   0.094  10.843  0.2983 -0.4619  0.2435
  216SOL    HW1 4240   9.078   0.131  10.856 -0.5726  1.2292  1.8599
  216SOL    HW2 4241   8.933   0.153  10.891 -1.5794 -2.3197  0.4039
  217SOL     OW 4242   6.575   0.947   9.460 -0.2859 -0.4278 -0.2960
  217SOL    HW1 4243   6.547   1.032   9.494 -0.4455 -0.5423 -0.1398
  217SOL    HW2 4244   6.670   0.949   9.465 -0.3249 -0.8484  1.1622
  218SOL     OW 4245   8.226   7.679   1.988 -0.4622 -0.0598  0.1941
  218SOL    HW1 4246   8.314   7.716   1.994 -1.2095  1.7588  0.6715
  218SOL    HW2 4247   8.237   7.588   2.016  1.2802  0.0814  0.1017
  219SOL     OW 4248   4.214   1.953   1.862 -0.0568 -0.1845 -0.0073
  219SOL    HW1 4249   4.288   2.000   1.824  0.5503 -0.4537  0.8078
  219SOL    HW2 4250   4.230   1.861   1.840  0.2545 -0.3322  0.8105
  220SOL     OW 4251   6.368   7.215   4.691 -0.3485 -0.1602  0.0680
  220SOL    HW1 4252   6.314   7.152   4.643 -0.5642  1.2126 -1.6046
  220SOL    HW2 4253   6.445   7.166   4.718 -0.5784 -1.1887 -1.0531
  221SOL     OW 4254   9.583   0.271   4.887  0.4763  0.4263  1.1261
  221SOL    HW1 4255   9.546   0.277   4.975 -1.9013 -2.0003  0.4485
  221SOL    HW2 4256   9.510   0.294   4.828  1.4951  0.3305 -0.2332
  222SOL     OW 4257   9.238   3.991   1.027  0.2670  0.0391  0.0593
  222SOL    HW1 4258   9.296   3.941   0.969 -0.0477  0.6179 -0.7742
  222SOL    HW2 4259   9.178   3.926   1.063  2.0149 -0.7476  1.7261
  223SOL     OW 4260   7.461   9.929   9.741 -0.2982 -0.0659 -0.4546
  223SOL    HW1 4261   7.502   9.913   9.826 -0.5412  0.5686 -0.2118
  223SOL    HW2 4262   7.370   9.951   9.761 -0.6018 -0.8277 -0.9477
  224SOL     OW 4263   9.779   4.050  10.142 -0.6120  0.3187  0.1748
  224SOL    HW1 4264   9.872   4.072  10.135 -0.8616  1.0757 -1.0178
  224SOL    HW2 4265   9.777   3.954  10.142  0.1154  0.2784 -1.0451
  225SOL     OW 4266   1.746   5.808   1.027  0.2133 -0.3004 -0.5095
  225SOL    HW1 4267   1.765   5.902   1.027  1.1761 -0.3976  2.0881
  225SOL    HW2 4268   1.658   5.801   1.065  0.6479 -0.4761  0.4936
  226SOL     OW 4269   2.579   8.212  10.425  0.7234  0.0855  0.3061
  226SOL    HW1 4270   2.585   8.255  10.340  2.9778 -0.8031 -0.0455
  226SOL    HW2 4271   2.645   8.255  10.479  0.5585 -0.5665  1.0471
  227SOL     OW 4272   5.079  10.256   9.723 -0.7277 -0.6212 -0.2959
  227SOL    HW1 4273   5.058  10.170   9.759 -0.3074 -1.0264 -0.9858
  227SOL    HW2 4274   4.994  10.298   9.709 -1.2039 -2.2020 -2.9907
  228SOL     OW 4275   0.295   0.115   8.081  0.1296 -0.6603  0.5803
  228SOL    HW1 4276   0.338   0.197   8.056  0.7121 -0.3043  2.6096
  228SOL    HW2 4277   0.215   0.142   8.125 -0.8033 -1.2719 -0.6560
  229SOL     OW 4278  10.825   1.854   5.140  0.1573  0.5098 -0.0861
  229SOL    HW1 4279  10.852   1.802   5.064 -0.3248  0.0789  0.0367
  229SOL    HW2 4280  10.777   1.928   5.103  0.7593  0.8260 -0.2538
  230SOL     OW 4281   0.716   2.152   3.953 -0.2892  0.5395  0.2033
  230SOL    HW1 4282   0.788   2.200   3.992 -1.0280  0.5753  1.5887
  230SOL    HW2 4283   0.722   2.170   3.859  0.6380  1.6835  0.4701
  231SOL     OW 4284   9.845   0.253   5.462  0.0870 -0.1006  0.0150
  231SOL    HW1 4285   9.934   0.265   5.428  0.5697 -2.0203  0.5115
  231SOL    HW2 4286   9.854   0.190   5.533 -1.4621  0.9098  1.1720
  232SOL     OW 4287   7.605   2.874   4.335  0.0257 -0.0761 -0.0698
  232SOL    HW1 4288   7.588   2.919   4.252  0.8549 -3.5938 -2.3641
  232SOL    HW2 4289   7.696   2.845   4.328  0.8433  1.2816  3.1253
  233SOL     OW 4290   5.803   9.267   5.180 -0.5318 -1.0982 -0.1606
  233SOL    HW1 4291   5.709   9.268   5.196 -0.7252 -0.2126 -1.1828
  233SOL    HW2 4292   5.814   9.322   5.102  0.9161 -0.5347  0.4075
  234SOL     OW 4293   7.721  10.353  10.842  0.0497 -0.7750 -0.0489
  234SOL    HW1 4294   7.756  10.382  10.758  0.5517  0.5100  0.5610
  234SOL    HW2 4295   7.767  10.407  10.906 -1.1447 -0.9210  0.9682
  235SOL     OW 4296   3.950  10.945  10.715 -0.3543 -0.5924 -0.4274
  235SOL    HW1 4297   3.936  11.030  10.673  0.6282 -0.6058 -0.7895
  235SOL    HW2 4298   3.909  10.955  10.802  0.8513  0.6857  0.0343
  236SOL     OW 4299   2.623   4.723   6.185 -0.1541 -0.2527 -0.4484
  236SOL    HW1 4300   2.594   4.648   6.134 -1.5519  0.1131 -0.2353
  236SOL    HW2 4301   2.674   4.775   6.124  0.6974 -1.2864 -0.6385
  237SOL     OW 4302   2.708   3.751  10.292 -0.3515  0.5630  0.6181
  237SOL    HW1 4303   2.657   3.681  10.333  0.8095 -0.9254 -0.3773
  237SOL    HW2 4304   2.668   3.762  10.205 -0.4853  1.1091  0.7433
  238SOL     OW 4305   3.535   7.537   9.425  0.0252 -0.1250 -0.4823
  238SOL    HW1 4306   3.467   7.473   9.447 -0.9335  1.3855  1.2001
  238SOL    HW2 4307   3.613   7.504   9.469 -0.6040  0.1190  0.8811
  239SOL     OW 4308   3.472   3.923  10.554 -0.2017 -0.4880  0.0190
  239SOL    HW1 4309   3.525   3.877  10.490  0.8738  0.8952 -0.1283
  239SOL    HW2 4310   3.533   3.950  10.622 -1.1366 -0.9586  1.0869
  240SOL     OW 4311   5.712   5.631   2.211  0.3933  0.5346 -0.1857
  240SOL    HW1 4312   5.800   5.641   2.174  0.4666 -0.5693 -0.3634
  240SOL    HW2 4313   5.705   5.537   2.229 -0.4758  0.7277  0.5358
  241SOL     OW 4314  10.351   6.953   5.871 -0.0209 -0.1265 -1.1069
  241SOL    HW1 4315  10.358   7.042   5.835  1.0061 -0.7675 -2.5608
  241SOL    HW2 4316  10.394   6.959   5.956 -3.9005  1.8114  1.0402
  242SOL     OW 4317   5.657   2.659   8.644 -0.3611  0.2870  0.4346
  242SOL    HW1 4318   5.674   2.753   8.655 -1.4869  0.6781 -0.9387
  242SOL    HW2 4319   5.640   2.627   8.732 -2.0413  1.8078  0.7074
  243SOL     OW 4320   4.601   3.254   5.910  0.5004  0.6881  0.6004
  243SOL    HW1 4321   4.626   3.346   5.914  0.9234  0.7159 -1.5248
  243SOL    HW2 4322   4.684   3.206   5.904  0.2455  0.3188 -0.1183
  244SOL     OW 4323   6.905   6.050  10.530  0.4470  0.0952 -0.8917
  244SOL    HW1 4324   6.948   6.134  10.547 -2.5228  1.6220 -0.2167
  244SOL    HW2 4325   6.888   6.014  10.616 -1.9993  0.9252 -0.9494
  245SOL     OW 4326   2.771  10.405   8.207 -0.2194 -0.2829 -0.1029
  245SOL    HW1 4327   2.735  10.355   8.133  1.4512 -1.7527  0.0021
  245SOL    HW2 4328   2.836  10.346   8.245  1.1075  1.6276  0.6868
  246SOL     OW 4329   8.175   6.470  10.977  0.2090  0.1734 -0.2545
  246SOL    HW1 4330   8.081   6.486  10.984  0.1882 -0.1460  0.2801
  246SOL    HW2 4331   8.214   6.529  11.042  0.4200  0.6504 -0.8070
  247SOL     OW 4332   3.159   5.414   4.040 -0.4241  0.4472  0.2013
  247SOL    HW1 4333   3.223   5.480   4.062 -0.2023  0.0367  0.8100
  247SOL    HW2 4334   3.208   5.348   3.991 -0.4324  0.2555  0.4487
  248SOL     OW 4335  10.073   1.107   0.338 -0.5770  0.6193  0.4919
  248SOL    HW1 4336  10.125   1.081   0.262 -0.5232  0.0219  0.7257
  248SOL    HW2 4337  10.126   1.079   0.413 -1.1504  0.1606  0.7339
  249SOL     OW 4338   0.545   1.480   2.499 -0.0938 -0.1038 -0.3217
  249SOL    HW1 4339   0.629   1.465   2.542 -1.0560 -1.8840  1.0779
  249SOL    HW2 4340   0.547   1.423   2.422 -1.3036 -3.0359  1.6386
  250SOL     OW 4341   3.216   6.538   1.240  0.1993  0.2517 -0.1816
  250SOL    HW1 4342   3.200   6.595   1.165  1.8235 -0.1635 -0.8787
  250SOL    HW2 4343   3.183   6.453   1.214  0.3664  0.2097 -0.2573
  251SOL     OW 4344   8.966  10.841   6.178  0.1642 -0.3353  0.3062
  251SOL    HW1 4345   9.025  10.873   6.246 -1.9817 -0.2428  2.2311
  251SOL    HW2 4346   8.989  10.893   6.101  2.2439 -0.0035  1.0714
  252SOL     OW 4347   8.793   3.694   9.474  0.2129  0.9254  0.1389
  252SOL    HW1 4348   8.837   3.659   9.397 -0.2780  0.2052  0.1725
  252SOL    HW2 4349   8.750   3.773   9.443 -1.3906 -0.2461 -0.7770
  253SOL     OW 4350   6.972  10.489   1.005  0.0639  0.3823 -0.0600
  253SOL    HW1 4351   6.914  10.449   1.069 -2.4361  1.6847 -1.3924
  253SOL    HW2 4352   6.914  10.533   0.943  2.4613  1.3590 -1.7805
  254SOL     OW 4353   0.020   3.289   0.586 -0.0932  0.3260 -0.1263
  254SOL    HW1 4354  -0.013   3.320   0.670 -0.4807 -0.1653 -0.0957
  254SOL    HW2 4355  -0.049   3.233   0.552  0.6263 -0.5663 -0.1443
  255SOL     OW 4356   8.137   2.726   2.621  0.3768 -0.5558 -0.1971
  255SOL    HW1 4357   8.060   2.770   2.657 -0.9680 -0.9140 -2.4708
  255SOL    HW2 4358   8.182   2.794   2.571  1.8623 -0.2385  1.4447
  256SOL     OW 4359   4.118   6.517   1.514  0.0160  0.5041 -0.4848
  256SOL    HW1 4360   4.054   6.446   1.501 -1.0554  0.9537  1.8414
  256SOL    HW2 4361   4.067   6.597   1.506 -0.0907  0.8589  2.5217
  257SOL     OW 4362   8.534   7.164   7.349  0.3854  0.1230  0.1588
  257SOL    HW1 4363   8.598   7.172   7.278 -1.2347  0.9274 -1.2968
  257SOL    HW2 4364   8.549   7.077   7.386 -0.4548 -1.4884 -2.9749
  258SOL     OW 4365   4.320   8.723   0.539 -0.0142  0.3901 -0.0718
  258SOL    HW1 4366   4.280   8.671   0.608  0.2535  2.2361  1.5547
  258SOL    HW2 4367   4.260   8.713   0.464 -1.8821  0.5687  1.3187
  259SOL     OW 4368   5.409   4.109   7.187 -0.4881  0.2061  0.3361
  259SOL    HW1 4369   5.440   4.039   7.130 -0.0073  0.2270  0.5709
  259SOL    HW2 4370   5.333   4.071   7.231 -1.0952  0.3157 -0.5835
  260SOL     OW 4371   6.159   6.279  10.494 -0.5127 -0.3150 -0.6538
  260SOL    HW1 4372   6.178   6.235  10.577  2.5365 -1.0952 -1.6207
  260SOL    HW2 4373   6.064   6.287  10.492 -0.7216  0.6565  3.3470
  261SOL     OW 4374   8.225   6.155   7.140  0.0142  0.3119  0.0376
  261SOL    HW1 4375   8.179   6.140   7.223  0.8547 -0.7437  0.3327
  261SOL    HW2 4376   8.158   6.194   7.083 -0.6228  0.8953  1.1444
  262SOL     OW 4377   0.500   7.229   1.932  0.1306  0.3327 -0.1484
  262SOL    HW1 4378   0.517   7.319   1.960  0.3025  0.3077 -0.1716
  262SOL    HW2 4379   0.486   7.181   2.014  1.3629  0.1085 -0.0555
  263SOL     OW 4380   9.847   1.658   7.474  0.0170 -0.1514 -0.1254
  263SOL    HW1 4381   9.756   1.632   7.469  0.3799 -1.4628 -0.1875
  263SOL    HW2 4382   9.892   1.604   7.409  0.8622  0.3479  0.0216
  264SOL     OW 4383  10.022   9.895   4.469 -0.3346  0.4961  0.5775
  264SOL    HW1 4384   9.934   9.918   4.440 -0.3243 -0.1794  0.0021
  264SOL    HW2 4385  10.010   9.821   4.529 -0.0876 -0.2950 -0.3230
  265SOL     OW 4386   8.284   9.362   1.571 -0.7881  0.4929 -0.0180
  265SOL    HW1 4387   8.294   9.444   1.619  2.8129 -1.4781  3.1545
  265SOL    HW2 4388   8.258   9.298   1.638 -1.6062 -1.3842 -1.9858
  266SOL     OW 4389  10.157   6.705   2.466  0.3492 -0.2064 -0.4139
  266SOL    HW1 4390  10.147   6.610   2.461 -0.0626 -0.2571  1.1229
  266SOL    HW2 4391  10.101   6.732   2.538  0.5301  1.2043 -0.7701
  267SOL     OW 4392   8.728   3.823   2.564 -0.3102  0.3683 -0.8258
  267SOL    HW1 4393   8.676   3.758   2.611  1.5960 -0.6764 -0.0585
  267SOL    HW2 4394   8.725   3.796   2.473 -2.1352  1.0870 -1.0271
  268SOL     OW 4395   5.527   2.586   6.647 -0.1111  0.2552  0.7266
  268SOL    HW1 4396   5.496   2.540   6.569 -3.1159  0.0450  1.8971
  268SOL    HW2 4397   5.616   2.555   6.660  0.1223 -0.4591 -2.0131
  269SOL     OW 4398   8.834   7.305  10.418  0.5792  0.1555 -0.0851
  269SOL    HW1 4399   8.795   7.337  10.337 -0.0503  1.2948  0.6391
  269SOL    HW2 4400   8.761   7.265  10.466  0.5755  0.9877  0.6346
  270SOL     OW 4401   0.163   6.461   2.668 -1.4213  0.4370 -0.3611
  270SOL    HW1 4402   0.199   6.463   2.757 -0.1407  1.6939 -0.8762
  270SOL    HW2 4403   0.218   6.399   2.621 -1.6118  0.3561 -0.4786
  271SOL     OW 4404   6.751  10.586   8.897 -0.1830 -0.2989  0.5004
  271SOL    HW1 4405   6.688  10.556   8.963 -1.0274  0.9972  0.3258
  271SOL    HW2 4406   6.811  10.642   8.946 -0.3333  0.0212  0.3237
  272SOL     OW 4407   5.348   1.554   8.862  0.0061 -0.5131  0.4618
  272SOL    HW1 4408   5.300   1.620   8.912 -0.6408 -1.4036  1.0425
  272SOL    HW2 4409   5.413   1.604   8.812 -0.5410  0.5658  0.8040
  273SOL     OW 4410   5.331   5.785   2.762 -0.2835 -0.2572 -0.2156
  273SOL    HW1 4411   5.325   5.880   2.748  0.2552  0.0314  1.3038
  273SOL    HW2 4412   5.251   5.763   2.810  0.7666 -0.0736  1.7219
  274SOL     OW 4413   5.533   7.719   9.778 -0.0629  0.1937 -0.3044
  274SOL    HW1 4414   5.455   7.736   9.724 -0.4231 -0.9020 -0.1553
  274SOL    HW2 4415   5.539   7.624   9.781  1.0293  0.2670  0.0723
  275SOL     OW 4416   4.851   4.208   8.395 -0.3032 -0.4649 -0.2631
  275SOL    HW1 4417   4.829   4.272   8.327 -0.6269 -0.9776 -0.6566
  275SOL    HW2 4418   4.924   4.158   8.357  0.1394 -0.1449  0.1596
  276SOL     OW 4419   7.717  10.012   0.861  0.3650  0.6593 -0.9392
  276SOL    HW1 4420   7.633  10.015   0.815  0.8740  1.3364 -1.8610
  276SOL    HW2 4421   7.723   9.923   0.895 -0.4325  0.4015 -1.4494
  277SOL     OW 4422   3.187   9.419   2.998  0.5263  0.1734  0.3438
  277SOL    HW1 4423   3.202   9.476   3.073  1.3072  0.9528 -0.3789
  277SOL    HW2 4424   3.156   9.337   3.036  2.0223  0.1413  1.6238
  278SOL     OW 4425   8.255   9.152   0.568 -0.4633 -0.5871  0.0668
  278SOL    HW1 4426   8.313   9.210   0.618 -0.2169  0.8102 -1.6984
  278SOL    HW2 4427   8.168   9.170   0.603 -0.3403  0.6096 -0.1708
  279SOL     OW 4428   6.799   5.646   3.096  0.0633 -0.2004  0.3263
  279SOL    HW1 4429   6.724   5.608   3.051  0.2881 -1.3520  0.8686
  279SOL    HW2 4430   6.790   5.615   3.186  1.9311 -1.5636  0.0944
  280SOL     OW 4431   6.885   4.239   8.888  0.0022 -0.2976 -0.6489
  280SOL    HW1 4432   6.892   4.144   8.895  0.0329 -0.2776 -0.3701
  280SOL    HW2 4433   6.806   4.261   8.937 -1.2262 -0.3771 -2.5021
  281SOL     OW 4434   2.837   0.968   3.805 -0.0587 -0.1530 -0.6964
  281SOL    HW1 4435   2.783   0.953   3.883 -0.4274  0.4585 -0.8330
  281SOL    HW2 4436   2.821   0.891   3.750 -0.6284 -0.0754 -0.6441
  282SOL     OW 4437   9.977   3.138  10.952  0.0338 -0.1825  0.2901
  282SOL    HW1 4438   9.976   3.129  11.047  0.0613  0.8908  0.3968
  282SOL    HW2 4439   9.984   3.048  10.920 -1.5977 -0.7024  1.2663
  283SOL     OW 4440   7.196   9.708   3.462  0.0321 -0.7053 -0.6703
  283SOL    HW1 4441   7.264   9.760   3.420  0.0939 -0.9428 -0.8626
  283SOL    HW2 4442   7.240   9.626   3.488  0.0876 -0.4197  0.1776
  284SOL     OW 4443   1.868   9.805   9.202 -0.1318 -0.4517  0.0587
  284SOL    HW1 4444   1.875   9.715   9.169 -0.3301 -0.3066 -0.3872
  284SOL    HW2 4445   1.790   9.803   9.258 -0.5044 -0.4126 -0.4487
  285SOL     OW 4446   8.455   6.497   9.136  0.2399  0.2124  0.0889
  285SOL    HW1 4447   8.462   6.523   9.228  0.3581 -0.1086  0.1718
  285SOL    HW2 4448   8.370   6.454   9.129 -1.5027  3.4536 -0.7570
  286SOL     OW 4449   6.943   0.618   4.408  0.1573  0.4558  0.4211
  286SOL    HW1 4450   6.856   0.604   4.447  0.4915  3.2433  2.4008
  286SOL    HW2 4451   7.004   0.604   4.479  1.0555  2.2000  0.0316
  287SOL     OW 4452   9.698   6.854   7.085 -0.5131 -0.1557 -0.2866
  287SOL    HW1 4453   9.661   6.942   7.096 -2.0756 -0.7541 -0.4640
  287SOL    HW2 4454   9.764   6.864   7.016 -0.3471  0.9539  0.0096
  288SOL     OW 4455   1.477   1.165   0.853  0.0939 -0.3437  0.5162
  288SOL    HW1 4456   1.455   1.233   0.917  0.1860 -0.3655  0.5703
  288SOL    HW2 4457   1.492   1.087   0.906 -0.1026 -0.4288  0.4474
  289SOL     OW 4458   3.132   4.184  10.881 -0.6574 -0.3573  0.2633
  289SOL    HW1 4459   3.197   4.188  10.951 -0.2799 -0.7783 -0.0624
  289SOL    HW2 4460   3.074   4.258  10.899 -1.0926 -0.9824  1.5331
  290SOL     OW 4461   6.779   7.769   0.785 -0.0217 -0.4109  0.2519
  290SOL    HW1 4462   6.750   7.780   0.695  1.5975  2.0366 -0.0779
  290SOL    HW2 4463   6.844   7.699   0.781 -1.3989 -1.7049 -0.0720
  291SOL     OW 4464   1.146   4.097   1.478 -0.3844  0.1680 -0.9071
  291SOL    HW1 4465   1.087   4.167   1.507 -1.5332 -1.5381  1.0877
  291SOL    HW2 4466   1.229   4.117   1.521 -0.2382  1.1334 -1.6052
  292SOL     OW 4467   5.976   8.118   5.293 -0.6732 -0.3370 -0.4798
  292SOL    HW1 4468   6.002   8.179   5.224 -0.7772  0.6879  0.3717
  292SOL    HW2 4469   5.942   8.042   5.245 -1.2242  0.5614 -1.5656
  293SOL     OW 4470   5.381   6.400   4.707  0.0232  0.1374  0.4782
  293SOL    HW1 4471   5.441   6.439   4.644  1.0295 -0.5109  1.0000
  293SOL    HW2 4472   5.419   6.421   4.792 -0.2629 -0.6301  0.8037
  294SOL     OW 4473   9.576   3.850   7.332  0.7434  0.1744  0.2941
  294SOL    HW1 4474   9.666   3.826   7.309  1.6765  1.4380  2.2839
  294SOL    HW2 4475   9.577   3.852   7.428 -1.8964 -1.4443  0.4442
  295SOL     OW 4476   6.933   1.384   0.946 -0.5010  0.3561 -0.7247
  295SOL    HW1 4477   6.971   1.297   0.961 -2.0242 -0.2307 -0.0676
  295SOL    HW2 4478   6.989   1.443   0.997  0.8964 -0.1314 -1.6341
  296SOL     OW 4479  10.492   3.797   4.158 -0.2486 -0.4346 -0.3433
  296SOL    HW1 4480  10.484   3.751   4.074 -1.1136  0.2438 -0.6471
  296SOL    HW2 4481  10.472   3.888   4.137  0.9426  0.0053  0.3517
  297SOL     OW 4482   9.142   3.050   0.840  0.1264  0.0376  0.8086
  297SOL    HW1 4483   9.156   3.089   0.753  3.0384 -1.2182  0.5878
  297SOL    HW2 4484   9.058   3.004   0.833 -0.2360  0.8822 -0.9663
  298SOL     OW 4485   7.260   1.145   9.261 -0.0010  0.4798 -0.2269
  298SOL    HW1 4486   7.259   1.229   9.305 -3.0474  0.1431  0.5966
  298SOL    HW2 4487   7.292   1.083   9.327 -1.6714  0.4399  0.6000
  299SOL     OW 4488   0.880  10.132   9.259 -0.1505  0.1274 -0.6995
  299SOL    HW1 4489   0.902  10.089   9.176  0.1742 -0.3750 -0.3518
  299SOL    HW2 4490   0.785  10.123   9.266  0.0792 -2.2435  0.2947
  300SOL     OW 4491  10.783   6.547   1.726  0.5774  0.2914 -0.4392
  300SOL    HW1 4492  10.707   6.579   1.678  0.5332  0.0184 -0.5459
  300SOL    HW2 4493  10.756   6.550   1.818 -0.4119 -2.0503 -0.6043
  301SOL     OW 4494   5.746  10.073   3.509 -0.8378 -0.9382 -0.2935
  301SOL    HW1 4495   5.652  10.088   3.524 -0.8097 -1.6115  0.6674
  301SOL    HW2 4496   5.758   9.980   3.526 -0.1565 -1.0554 -1.3670
  302SOL     OW 4497   3.321   8.259   6.313  0.5141  1.0547  0.3815
  302SOL    HW1 4498   3.381   8.188   6.290  0.2178  0.4090  1.5368
  302SOL    HW2 4499   3.301   8.301   6.229  1.3953  0.3423 -0.2068
  303SOL     OW 4500  10.912  11.092   6.865  0.3952  0.4927  0.0020
  303SOL    HW1 4501  10.881  11.130   6.947  0.1285 -1.7283  0.9843
  303SOL    HW2 4502  11.002  11.067   6.882 -0.1453 -1.4625  0.1974
  304SOL     OW 4503   1.063   2.740   6.529  0.0008 -0.0230  0.2321
  304SOL    HW1 4504   1.062   2.738   6.433 -0.4105  1.1975  0.2033
  304SOL    HW2 4505   1.125   2.809   6.552 -0.1852 -0.0518  0.8426
  305SOL     OW 4506   4.094   9.161   6.378  0.0796  0.3348  0.2428
  305SOL    HW1 4507   4.088   9.147   6.472 -0.2063  0.8257  0.3042
  305SOL    HW2 4508   4.188   9.158   6.359  0.1140 -0.1460  0.4771
  306SOL     OW 4509   2.889   2.191   8.222 -0.1818  0.1995  0.8135
  306SOL    HW1 4510   2.912   2.259   8.284 -0.3084  0.1986  0.8609
  306SOL    HW2 4511   2.939   2.212   8.143  1.1078 -0.5991  1.3753
  307SOL     OW 4512   6.652   7.810   0.548 -0.1934  0.2812  0.8802
  307SOL    HW1 4513   6.618   7.720   0.546 -0.8113  0.4558  2.4608
  307SOL    HW2 4514   6.705   7.817   0.469  1.7689 -2.2190  1.8534
  308SOL     OW 4515   3.176   2.999   4.759 -0.2384  0.1044 -0.0531
  308SOL    HW1 4516   3.263   3.032   4.736  0.3378 -0.5399  1.1119
  308SOL    HW2 4517   3.154   3.046   4.839 -0.1427 -1.0715  0.6806
  309SOL     OW 4518   6.981   5.028   0.875  0.5289 -0.5092 -0.3558
  309SOL    HW1 4519   7.061   4.994   0.836  1.0536 -0.7047  0.8394
  309SOL    HW2 4520   6.921   4.954   0.875  1.2675 -1.1563  1.1573
  310SOL     OW 4521   6.823   8.236   5.559  0.2655 -0.0972  0.4240
  310SOL    HW1 4522   6.783   8.300   5.500 -1.0712 -1.2848 -0.0357
  310SOL    HW2 4523   6.752   8.211   5.618  0.5692 -1.5969  0.1899
  311SOL     OW 4524   7.074   9.163   2.401 -0.3124 -0.2164 -0.0751
  311SOL    HW1 4525   7.135   9.092   2.380  0.6117  0.5078  0.1249
  311SOL    HW2 4526   7.094   9.231   2.337 -1.6977 -0.4039 -0.7397
  312SOL     OW 4527   9.034  11.038   9.413 -0.7974  0.0190  0.3907
  312SOL    HW1 4528   8.953  11.001   9.378 -0.8594  0.1209  0.4240
  312SOL    HW2 4529   9.094  10.964   9.417 -1.5909 -0.5846  2.5192
  313SOL     OW 4530   6.251   9.380   2.811 -0.5656 -0.4611  0.8047
  313SOL    HW1 4531   6.313   9.308   2.803  2.0047  1.7007 -0.0575
  313SOL    HW2 4532   6.189   9.365   2.739  2.5796  0.4840 -2.3743
  314SOL     OW 4533   5.157   6.735   6.451 -0.4361 -0.2988 -0.1909
  314SOL    HW1 4534   5.165   6.829   6.463 -0.9665 -0.2494 -0.2203
  314SOL    HW2 4535   5.178   6.698   6.536  1.6397 -0.2670 -0.6309
  315SOL     OW 4536   6.749   7.416   4.391 -0.7319 -0.4745 -0.3525
  315SOL    HW1 4537   6.656   7.437   4.378 -0.8456 -0.2045  0.7492
  315SOL    HW2 4538   6.794   7.499   4.377 -0.8151 -0.2727  0.5250
  316SOL     OW 4539   8.053   8.985   6.350  0.2344  0.5124 -0.6335
  316SOL    HW1 4540   7.980   8.924   6.356  0.1953  0.5318 -0.9237
  316SOL    HW2 4541   8.027   9.058   6.406 -0.0770  0.6301 -0.9284
  317SOL     OW 4542   6.940   0.419   8.281 -0.1353 -0.3242  0.2218
  317SOL    HW1 4543   6.997   0.467   8.221 -0.3527  0.2331  0.4520
  317SOL    HW2 4544   6.918   0.483   8.349  0.5363 -1.0852  1.1947
  318SOL     OW 4545   9.519   7.636   8.853  0.5990  0.2159  0.5560
  318SOL    HW1 4546   9.517   7.541   8.849  1.1016  0.2279 -0.6287
  318SOL    HW2 4547   9.607   7.657   8.884  1.0745  0.2888 -0.7611
  319SOL     OW 4548   0.006   2.723   8.271  0.4549 -0.1188  0.1219
  319SOL    HW1 4549   0.007   2.819   8.272  0.5235 -0.1205  0.6236
  319SOL    HW2 4550  -0.046   2.699   8.348  2.1231 -0.5112  1.1563
  320SOL     OW 4551   5.706  10.512   1.542  0.0622  0.1129  0.3553
  320SOL    HW1 4552   5.758  10.434   1.521 -1.2613 -0.8267  0.4698
  320SOL    HW2 4553   5.667  10.538   1.459 -1.9552 -1.2171  0.8240
  321SOL     OW 4554   3.952   6.149   2.040  0.3967 -0.2192 -0.6920
  321SOL    HW1 4555   3.859   6.166   2.050  0.4570 -0.8490  1.4578
  321SOL    HW2 4556   3.985   6.225   1.992 -0.7849  1.4264  0.9443
  322SOL     OW 4557  11.037   9.603   1.840  0.7993  0.0606  0.9215
  322SOL    HW1 4558  11.107   9.549   1.803  1.5778  0.4504  1.7831
  322SOL    HW2 4559  10.968   9.600   1.774  0.7078 -2.1582  1.0168
  323SOL     OW 4560   5.907   0.230   7.365  0.2035  0.0425 -0.7960
  323SOL    HW1 4561   5.841   0.237   7.433 -0.8940 -1.8176 -1.5833
  323SOL    HW2 4562   5.989   0.216   7.412  0.1483  2.5698  0.2055
  324SOL     OW 4563   4.050  10.937   2.628 -0.0307  0.3263  0.0483
  324SOL    HW1 4564   3.973  10.928   2.684  0.0876  0.8928  0.3141
  324SOL    HW2 4565   4.019  10.911   2.541 -0.0027 -1.3673  0.5090
  325SOL     OW 4566   1.019   1.110   2.874 -0.8105 -0.1598  0.4909
  325SOL    HW1 4567   0.969   1.031   2.896 -3.6015  1.2632 -0.3509
  325SOL    HW2 4568   1.056   1.090   2.787  0.5453 -1.3788  1.2933
  326SOL     OW 4569  10.544   6.833  10.805 -0.7497  0.0309  0.2931
  326SOL    HW1 4570  10.469   6.781  10.831 -1.2040 -0.8543 -2.5175
  326SOL    HW2 4571  10.560   6.810  10.714  2.0372  1.2853  0.3462
  327SOL     OW 4572  10.940   1.733   9.213  0.2977 -0.1532 -0.7139
  327SOL    HW1 4573  10.901   1.731   9.125  0.1372  3.0303 -0.8082
  327SOL    HW2 4574  11.023   1.778   9.201  1.5071 -1.9632  0.4238
  328SOL     OW 4575   6.252   6.807   2.433  0.0046 -0.2014  0.3947
  328SOL    HW1 4576   6.247   6.823   2.339  0.0900  1.0023  0.5778
  328SOL    HW2 4577   6.336   6.846   2.460 -0.9008  1.2503  1.2684
  329SOL     OW 4578   7.387   5.131   3.156 -0.2780  0.3304 -0.5476
  329SOL    HW1 4579   7.311   5.106   3.104 -0.0622  1.0358 -1.2254
  329SOL    HW2 4580   7.357   5.208   3.206 -0.1959  0.2282 -0.3378
  330SOL     OW 4581   9.037   9.731   2.799  0.6375  0.1982  0.0068
  330SOL    HW1 4582   9.102   9.674   2.758 -1.6304 -0.4343 -3.0844
  330SOL    HW2 4583   8.987   9.767   2.726 -2.2736  0.8774  2.1622
  331SOL     OW 4584   6.213  10.916   4.407 -0.3508 -0.3903 -0.0478
  331SOL    HW1 4585   6.163  10.835   4.422  0.1004 -0.7450 -0.4258
  331SOL    HW2 4586   6.304  10.890   4.415 -0.1651 -0.1418 -1.1888
  332SOL     OW 4587   3.654   7.490   2.386  0.3681 -0.0151 -0.3912
  332SOL    HW1 4588   3.646   7.524   2.297 -3.2947 -0.8516 -0.5664
  332SOL    HW2 4589   3.742   7.453   2.391  0.9105  0.6496 -3.4451
  333SOL     OW 4590   8.031   3.395   0.208  0.0281 -0.3417  0.2285
  333SOL    HW1 4591   8.007   3.308   0.177  0.4802 -0.1964 -0.5641
  333SOL    HW2 4592   7.986   3.455   0.147 -0.6017 -0.0120  1.0059
  334SOL     OW 4593   4.156   0.895   6.330  0.5681 -0.0790 -0.1756
  334SOL    HW1 4594   4.164   0.979   6.285  1.2872 -0.9500 -1.7630
  334SOL    HW2 4595   4.061   0.879   6.334  0.4186  0.8638  0.2834
  335SOL     OW 4596   3.213   5.949   8.569  0.0254 -0.1324  0.5143
  335SOL    HW1 4597   3.182   5.863   8.542 -1.7151  0.3844  0.7870
  335SOL    HW2 4598   3.206   5.949   8.664 -0.4423  0.4819  0.4808
  336SOL     OW 4599   9.381   5.655   1.002  0.4621 -0.1293 -0.2944
  336SOL    HW1 4600   9.399   5.661   0.908  0.6377 -1.1679 -0.3357
  336SOL    HW2 4601   9.309   5.593   1.009 -0.6112  1.1252  0.1633
  337SOL     OW 4602   8.145  10.877   4.862 -0.7391 -0.5493 -0.0409
  337SOL    HW1 4603   8.148  10.813   4.933  3.1319 -1.6266 -0.9301
  337SOL    HW2 4604   8.121  10.826   4.784 -1.9109  0.0005 -0.0569
  338SOL     OW 4605   6.272   0.270   5.958  0.4794  0.1243  0.5199
  338SOL    HW1 4606   6.189   0.245   5.917  0.7868 -1.7094  0.9333
  338SOL    HW2 4607   6.255   0.263   6.052  1.4533 -1.6446  0.6060
  339SOL     OW 4608  10.946   8.691   7.940 -0.8691  0.1631  0.6258
  339SOL    HW1 4609  10.919   8.652   7.857  2.1262  1.9251 -1.3282
  339SOL    HW2 4610  10.863   8.711   7.985 -2.5761 -1.3767 -1.6256
  340SOL     OW 4611  11.075   0.688   1.246 -0.2408  0.0213  0.1738
  340SOL    HW1 4612  10.996   0.638   1.224 -0.6250  0.2704  0.9596
  340SOL    HW2 4613  11.133   0.676   1.170 -1.9992  1.9008 -1.5876
  341SOL     OW 4614   9.013   4.164   0.308  0.7521  0.3030 -0.4441
  341SOL    HW1 4615   9.049   4.250   0.286 -0.2898  1.5023  2.1059
  341SOL    HW2 4616   8.942   4.151   0.245  1.3940  0.9573 -1.3286
  342SOL     OW 4617  10.274   2.404   9.502 -0.2956  0.1004 -0.2205
  342SOL    HW1 4618  10.333   2.370   9.435  0.0802 -1.4841  0.8490
  342SOL    HW2 4619  10.313   2.487   9.530  1.1081 -0.6202  0.0396
  343SOL     OW 4620  10.307   5.359   1.521 -0.2250 -0.4574 -0.0820
  343SOL    HW1 4621  10.365   5.434   1.505  0.1836 -0.4296  1.3315
  343SOL    HW2 4622  10.270   5.376   1.608 -0.6758 -1.5512 -0.0462
  344SOL     OW 4623   5.185   7.779   2.980 -0.7030 -0.1869  0.2402
  344SOL    HW1 4624   5.145   7.757   2.896 -0.9378  1.1048 -0.0154
  344SOL    HW2 4625   5.276   7.800   2.959 -0.5618 -0.6000  0.4290
  345SOL     OW 4626   2.040   6.358   0.936  0.1597 -0.3386  0.2616
  345SOL    HW1 4627   2.134   6.366   0.921  0.1078 -0.3955 -0.0899
  345SOL    HW2 4628   2.011   6.447   0.955  0.3033 -0.3389  0.4894
  346SOL     OW 4629   9.776   5.593  10.923  0.3144 -0.1565 -0.1372
  346SOL    HW1 4630   9.740   5.626  10.841  1.1781  0.3954 -0.2959
  346SOL    HW2 4631   9.858   5.641  10.936  1.5646 -2.1218 -0.3215
  347SOL     OW 4632   1.310   9.350  11.012  0.3563 -0.4617 -0.1832
  347SOL    HW1 4633   1.299   9.377  10.920 -0.6383  0.1825  0.1074
  347SOL    HW2 4634   1.258   9.413  11.061  1.4623 -0.3523  0.9037
  348SOL     OW 4635   5.616   2.474   4.837  0.5031  0.3358  0.8112
  348SOL    HW1 4636   5.539   2.422   4.858  0.0722  0.8665  0.5788
  348SOL    HW2 4637   5.687   2.411   4.829  0.0539 -0.1778  0.8568
  349SOL     OW 4638   6.734   1.969   7.473  0.2834  0.0458  0.3166
  349SOL    HW1 4639   6.820   2.010   7.486  0.7317 -0.7252 -0.1408
  349SOL    HW2 4640   6.671   2.034   7.505  1.1334 -0.2788  2.8623
  350SOL     OW 4641   6.036   6.258   0.522  0.6249  0.0791  0.0845
  350SOL    HW1 4642   5.972   6.287   0.457 -0.4128 -1.2177  0.4749
  350SOL    HW2 4643   5.985   6.244   0.602  1.3748 -1.0189  0.3950
  351SOL     OW 4644   9.386   3.529   0.893 -0.5260 -0.7499 -0.3450
  351SOL    HW1 4645   9.379   3.498   0.983 -0.0037 -1.7544 -0.6324
  351SOL    HW2 4646   9.451   3.471   0.853  1.2595  1.3165 -0.6658
  352SOL     OW 4647   5.859   1.056   7.122 -0.1554 -0.0641 -0.1448
  352SOL    HW1 4648   5.841   0.967   7.092 -0.3115  0.3248 -1.2605
  352SOL    HW2 4649   5.841   1.054   7.216 -1.5163 -0.8599 -0.3929
  353SOL     OW 4650   5.706   8.163   5.610 -0.1160  0.4153  0.0665
  353SOL    HW1 4651   5.776   8.110   5.648 -0.4382 -0.8190 -1.0096
  353SOL    HW2 4652   5.750   8.243   5.581  0.3550  0.8407  1.8248
  354SOL     OW 4653   8.530   3.210   1.344 -0.5078 -0.2515 -0.5661
  354SOL    HW1 4654   8.530   3.289   1.397  1.8418  0.0633 -0.9303
  354SOL    HW2 4655   8.489   3.237   1.261 -1.2418  0.1089 -0.0971
  355SOL     OW 4656   0.410   3.858  10.236  0.1552 -0.6998  0.7648
  355SOL    HW1 4657   0.388   3.941  10.276  0.7025 -1.0688  1.8645
  355SOL    HW2 4658   0.486   3.877  10.180  0.8544 -0.6245  1.7207
  356SOL     OW 4659   4.937   0.592   2.446  0.1096 -0.1156 -0.5088
  356SOL    HW1 4660   4.985   0.558   2.371 -1.1059 -1.1505 -0.8599
  356SOL    HW2 4661   4.916   0.682   2.422  1.2014  0.1180 -0.6541
  357SOL     OW 4662   4.419   3.384   1.230  0.3716 -0.1906 -0.6336
  357SOL    HW1 4663   4.502   3.357   1.192  2.3505  0.4770  2.8454
  357SOL    HW2 4664   4.380   3.442   1.164  2.2163 -1.1412 -2.6753
  358SOL     OW 4665   1.605   4.593   8.418  0.0280 -0.1947  0.3886
  358SOL    HW1 4666   1.656   4.626   8.344 -2.9128  1.2168 -1.1653
  358SOL    HW2 4667   1.576   4.671   8.465 -1.6357 -0.8476  0.5129
  359SOL     OW 4668   3.969   3.073  10.550  0.0819  0.0142 -0.0449
  359SOL    HW1 4669   3.875   3.069  10.535 -0.0303  4.2548 -1.8802
  359SOL    HW2 4670   4.004   2.995  10.507 -2.3485  0.0336 -2.2775
  360SOL     OW 4671   9.463   3.270  10.261  0.3606 -0.4417 -0.0076
  360SOL    HW1 4672   9.558   3.280  10.251  0.1991  1.3720 -0.1868
  360SOL    HW2 4673   9.452   3.206  10.331  1.7014 -1.3606 -0.6131
  361SOL     OW 4674   9.315  10.133   3.484 -0.1354 -0.6002 -0.1282
  361SOL    HW1 4675   9.274  10.113   3.400 -1.5211  0.0213  0.3699
  361SOL    HW2 4676   9.290  10.059   3.541 -1.2149  0.1161  0.3709
  362SOL     OW 4677   1.298   2.298   4.088 -0.1493 -0.2086 -0.8169
  362SOL    HW1 4678   1.241   2.290   4.165  2.4437 -2.2754  1.0842
  362SOL    HW2 4679   1.321   2.207   4.067  2.1922  0.5079 -1.6209
  363SOL     OW 4680   7.645   6.940   6.816 -0.3713 -0.1184  0.1940
  363SOL    HW1 4681   7.665   6.864   6.762  0.5116  0.9350 -1.0096
  363SOL    HW2 4682   7.564   6.916   6.861 -0.2024 -1.6927 -0.2787
  364SOL     OW 4683   9.139   0.362   5.472  0.3549  0.1801 -0.2334
  364SOL    HW1 4684   9.212   0.408   5.430  0.3361  0.4449  0.0187
  364SOL    HW2 4685   9.171   0.340   5.559  0.9900 -1.8472 -0.9335
  365SOL     OW 4686   3.638   0.304   3.368 -0.3490  0.1000 -0.2752
  365SOL    HW1 4687   3.680   0.385   3.340 -1.1624  0.3762 -0.7204
  365SOL    HW2 4688   3.685   0.280   3.448  1.5378 -0.3326 -1.4538
  366SOL     OW 4689   2.573   7.389   0.675 -0.2807  0.1936 -0.1751
  366SOL    HW1 4690   2.484   7.423   0.673 -0.3813  0.0795  1.2501
  366SOL    HW2 4691   2.582   7.338   0.594 -1.9166 -0.7843  0.2174
  367SOL     OW 4692   6.636   8.237   9.313 -0.1186  0.1068  0.0051
  367SOL    HW1 4693   6.602   8.289   9.240  0.5350 -0.9956 -1.0999
  367SOL    HW2 4694   6.676   8.161   9.273 -0.2812 -0.8426  1.5536
  368SOL     OW 4695   3.120  10.592   8.409  0.1198 -0.1532  0.2480
  368SOL    HW1 4696   3.208  10.609   8.440 -0.0585 -1.7205  1.7431
  368SOL    HW2 4697   3.103  10.501   8.434 -0.9305 -0.7805 -2.4047
  369SOL     OW 4698   3.825   5.380   6.454  0.0541 -0.2524 -0.0783
  369SOL    HW1 4699   3.776   5.343   6.380 -0.7494  0.9351 -0.1546
  369SOL    HW2 4700   3.905   5.413   6.415  0.8791 -2.0108  0.0133
  370SOL     OW 4701   3.971   9.171   1.293 -0.3501 -0.0014 -0.2401
  370SOL    HW1 4702   3.881   9.182   1.263  0.4722  0.8153 -2.6632
  370SOL    HW2 4703   3.994   9.081   1.269 -0.8771 -0.6692  1.5881
  371SOL     OW 4704   8.081   9.393   6.632 -0.0456 -0.1304  0.6641
  371SOL    HW1 4705   8.112   9.416   6.720 -0.3575  0.4725  0.6186
  371SOL    HW2 4706   7.998   9.440   6.623 -0.5863 -1.0945  0.4750
  372SOL     OW 4707   6.794   0.992   6.683 -0.0992  0.0871 -0.6599
  372SOL    HW1 4708   6.883   0.994   6.719 -0.1406  0.0009 -0.5546
  372SOL    HW2 4709   6.791   0.911   6.633 -0.3447 -0.2555 -0.0949
  373SOL     OW 4710   5.005  10.444   2.002  0.3893  0.3519  0.3375
  373SOL    HW1 4711   4.923  10.486   2.026 -0.0986 -0.3648 -0.0496
  373SOL    HW2 4712   5.043  10.501   1.936  0.4852  0.9817  0.9246
  374SOL     OW 4713   1.102  10.241   3.705  0.7699  0.3281  0.2495
  374SOL    HW1 4714   1.164  10.312   3.688  1.9819 -0.8834 -0.6168
  374SOL    HW2 4715   1.146  10.187   3.772  1.4250 -1.3942 -1.4851
  375SOL     OW 4716   7.378   1.613   5.375 -0.6104 -0.4081 -0.2546
  375SOL    HW1 4717   7.422   1.531   5.395  0.7859  0.4152  0.2169
  375SOL    HW2 4718   7.427   1.679   5.423 -1.4824  0.7551 -0.8954
  376SOL     OW 4719   1.805   9.293   4.695 -0.3444 -0.0774 -0.2763
  376SOL    HW1 4720   1.819   9.219   4.636 -0.3612 -0.8404  0.6583
  376SOL    HW2 4721   1.711   9.295   4.709 -0.3474  0.1457 -0.3257
  377SOL     OW 4722   0.998   1.844   0.345 -0.0418  0.1075 -0.1444
  377SOL    HW1 4723   0.918   1.886   0.315 -0.8062 -0.1611  1.4380
  377SOL    HW2 4724   1.005   1.868   0.438  1.1736 -0.6891 -0.0047
  378SOL     OW 4725   7.565   7.624   8.254 -0.2288  0.3304  0.3447
  378SOL    HW1 4726   7.594   7.691   8.192 -1.9817 -1.0251 -2.1146
  378SOL    HW2 4727   7.508   7.671   8.315  1.2258  1.6291  0.7663
  379SOL     OW 4728   7.670   8.372   2.425 -0.0318  0.2493  0.3127
  379SOL    HW1 4729   7.647   8.287   2.387  1.7144 -0.5261  0.8607
  379SOL    HW2 4730   7.603   8.387   2.492 -1.0482 -0.1026 -0.5963
  380SOL     OW 4731   2.280   4.533   3.875  0.0156  0.1450  0.0884
  380SOL    HW1 4732   2.310   4.466   3.936  0.8099 -0.2541 -0.7090
  380SOL    HW2 4733   2.231   4.595   3.928 -0.2447 -0.7751  0.9338
  381SOL     OW 4734   8.442   5.386   6.564  0.1740  0.0501 -0.3221
  381SOL    HW1 4735   8.421   5.476   6.588  2.1255  0.3566  0.4205
  381SOL    HW2 4736   8.416   5.334   6.640  2.1221  0.4427  0.6551
  382SOL     OW 4737   0.445   5.085   9.592  0.3914 -0.1703  0.5626
  382SOL    HW1 4738   0.515   5.020   9.582  0.8693  0.5107 -0.8474
  382SOL    HW2 4739   0.365   5.033   9.601  0.9542 -0.9545  1.2683
  383SOL     OW 4740   8.706   8.117   5.130 -0.3314 -0.0269  0.6607
  383SOL    HW1 4741   8.691   8.049   5.196 -0.0663 -0.1928  0.5497
  383SOL    HW2 4742   8.801   8.120   5.119 -0.4516 -1.5109 -1.2857
  384SOL     OW 4743   8.668   6.819  10.974  0.0301 -0.1701  0.1434
  384SOL    HW1 4744   8.638   6.825  10.883  0.2778  0.4700  0.0955
  384SOL    HW2 4745   8.587   6.811  11.025 -0.1379 -0.0723 -0.1021
  385SOL     OW 4746  10.683   0.808   4.162 -0.4401  0.9577  0.5152
  385SOL    HW1 4747  10.588   0.795   4.166 -0.2816 -1.4040 -1.2433
  385SOL    HW2 4748  10.699   0.837   4.071  0.6860 -0.9214  0.0632
  386SOL     OW 4749   7.720   5.791   5.133 -0.1222  0.3046 -0.0189
  386SOL    HW1 4750   7.739   5.830   5.218  1.4239 -2.7057  1.1641
  386SOL    HW2 4751   7.792   5.820   5.077  0.8677 -0.5431  0.7624
  387SOL     OW 4752   8.209   7.570   2.276 -0.5205 -0.0731  0.1896
  387SOL    HW1 4753   8.248   7.496   2.229  1.3007  0.5604  0.6216
  387SOL    HW2 4754   8.164   7.621   2.208  1.1170  0.2271 -0.7377
  388SOL     OW 4755   5.424   6.511   2.398  0.1565  0.8991  0.7889
  388SOL    HW1 4756   5.395   6.593   2.358 -0.5056  0.2352 -0.1385
  388SOL    HW2 4757   5.517   6.504   2.375 -0.4058  0.1087 -1.4369
  389SOL     OW 4758   3.785   4.457   3.377  0.1497  0.0560 -0.0360
  389SOL    HW1 4759   3.814   4.486   3.464 -0.2780  0.7563 -0.1195
  389SOL    HW2 4760   3.690   4.445   3.385  0.0118  0.7331 -0.5677
  390SOL     OW 4761   3.801   7.702   8.959  0.2057  0.0671  0.7711
  390SOL    HW1 4762   3.854   7.775   8.991 -0.9209  1.3072 -0.0780
  390SOL    HW2 4763   3.757   7.669   9.038  0.5168  0.4754  1.1262
  391SOL     OW 4764   5.543   1.274   0.801 -0.2823  0.6150 -0.1092
  391SOL    HW1 4765   5.568   1.183   0.789 -2.1984  0.1175 -0.7036
  391SOL    HW2 4766   5.518   1.280   0.894 -1.2636  0.2134 -0.3349
  392SOL     OW 4767   8.636   4.687   8.117  0.1068  0.2133  0.4225
  392SOL    HW1 4768   8.598   4.771   8.142  2.0421  1.4794 -0.6250
  392SOL    HW2 4769   8.584   4.658   8.043 -0.3693  0.6369  0.5804
  393SOL     OW 4770   7.064   0.897   5.974 -0.1357 -0.1065  0.2310
  393SOL    HW1 4771   7.064   0.811   6.016  0.0388  0.3271  1.1472
  393SOL    HW2 4772   6.976   0.907   5.938 -0.6518 -0.0355  1.4793
  394SOL     OW 4773   2.339   4.267   5.002  0.1428 -0.2922  0.0644
  394SOL    HW1 4774   2.380   4.192   5.044 -0.5486 -0.4950  0.3928
  394SOL    HW2 4775   2.278   4.301   5.068 -0.7964 -0.4817 -0.6813
  395SOL     OW 4776   4.790   3.501   9.831 -0.0242  0.0458 -0.4074
  395SOL    HW1 4777   4.782   3.585   9.877 -0.9646 -0.3976  0.2759
  395SOL    HW2 4778   4.879   3.501   9.797 -0.2337  1.6479 -1.0609
  396SOL     OW 4779   5.672  10.799   2.680  0.4627  0.5268 -0.0796
  396SOL    HW1 4780   5.744  10.747   2.714 -0.7106 -0.6974  0.6459
  396SOL    HW2 4781   5.673  10.784   2.586  1.3301  0.7684 -0.1115
  397SOL     OW 4782   3.565   3.776   7.457 -0.5555 -0.3974  0.0521
  397SOL    HW1 4783   3.620   3.720   7.402 -0.8011 -2.5741  1.8659
  397SOL    HW2 4784   3.589   3.752   7.546 -1.5375  1.6200  0.9165
  398SOL     OW 4785   8.168   4.112   7.537  0.4650  0.7994  0.3369
  398SOL    HW1 4786   8.119   4.101   7.618  1.3605 -0.4320  0.7433
  398SOL    HW2 4787   8.136   4.042   7.480  2.9764 -1.2940  1.2848
  399SOL     OW 4788   8.663   7.530   4.097 -0.0825  0.3234  0.2604
  399SOL    HW1 4789   8.569   7.532   4.082 -0.0807  1.1025  0.3168
  399SOL    HW2 4790   8.698   7.601   4.043  0.4656  0.1020  0.3095
  400SOL     OW 4791   9.947   7.169   0.503  0.4351 -0.6399  0.1717
  400SOL    HW1 4792  10.014   7.202   0.442 -0.2870 -1.1854 -0.9395
  400SOL    HW2 4793   9.883   7.240   0.509 -0.7235 -1.4597 -1.6208
  401SOL     OW 4794  11.060   5.970   6.825  0.4263  0.7924 -0.1513
  401SOL    HW1 4795  11.082   5.894   6.771  0.0440  1.1168 -0.7763
  401SOL    HW2 4796  11.139   6.023   6.826  1.0770 -0.1545  1.2398
  402SOL     OW 4797   3.678   1.890   5.377  0.0391  0.0512  0.0275
  402SOL    HW1 4798   3.643   1.906   5.290  1.0135 -0.2118 -0.4290
  402SOL    HW2 4799   3.604   1.857   5.428 -0.7870  1.2242 -0.3953
  403SOL     OW 4800   3.075   9.174   4.607 -0.7230  0.2195 -0.0083
  403SOL    HW1 4801   2.984   9.172   4.575 -1.1925  0.0826  1.2772
  403SOL    HW2 4802   3.069   9.215   4.693  1.0285  4.6930 -1.7119
  404SOL     OW 4803   3.021   5.235   0.573  0.5061 -0.2267 -1.0441
  404SOL    HW1 4804   3.028   5.166   0.639 -0.1976 -0.1318 -0.8638
  404SOL    HW2 4805   3.056   5.195   0.493 -0.1419 -0.8875 -1.0034
  405SOL     OW 4806   3.804   5.124   7.982 -0.2400  0.8079  0.0934
  405SOL    HW1 4807   3.873   5.133   8.048 -1.1550  0.2304  1.1719
  405SOL    HW2 4808   3.815   5.200   7.926  2.4901 -0.2359 -0.9677
  406SOL     OW 4809  10.928   0.827   7.715  0.5303  0.2235  0.1742
  406SOL    HW1 4810  10.842   0.852   7.747  0.0030 -1.2688 -0.0092
  406SOL    HW2 4811  10.965   0.907   7.679 -0.6112  0.9634  0.6214
  407SOL     OW 4812   8.567   1.553   1.884 -0.2597 -0.6187 -0.0441
  407SOL    HW1 4813   8.519   1.579   1.805  0.2996 -0.5327 -0.3582
  407SOL    HW2 4814   8.584   1.636   1.929 -0.8085 -0.6914  0.3022
  408SOL     OW 4815   0.758   1.779   6.628 -0.3900  0.1906 -0.0062
  408SOL    HW1 4816   0.762   1.848   6.694  0.3743  0.2542 -0.1056
  408SOL    HW2 4817   0.819   1.808   6.560 -0.1646 -0.5158 -0.1135
  409SOL     OW 4818   2.948   6.067  11.088  0.4958 -0.2116 -0.4812
  409SOL    HW1 4819   3.010   6.098  11.022 -0.3206  0.7149 -0.8379
  409SOL    HW2 4820   2.880   6.022  11.038  1.0900 -1.6414 -0.0560
  410SOL     OW 4821   9.727  10.965   0.282  0.2480  0.0956  0.4156
  410SOL    HW1 4822   9.699  10.921   0.362 -1.0853 -1.4117 -0.7854
  410SOL    HW2 4823   9.738  10.894   0.219  0.4893  1.2995 -0.9455
  411SOL     OW 4824   5.106   3.362   3.248 -0.3397 -0.1577 -0.1512
  411SOL    HW1 4825   5.154   3.344   3.328  1.3353  1.5058 -0.7124
  411SOL    HW2 4826   5.044   3.289   3.240  0.5941 -1.2239  1.7461
  412SOL     OW 4827   3.976   0.924   7.680 -0.4972  0.0510  0.3347
  412SOL    HW1 4828   3.927   1.006   7.672 -0.0187  0.2165 -1.3415
  412SOL    HW2 4829   3.942   0.869   7.609 -0.5529 -1.0914  1.2002
  413SOL     OW 4830   8.540   4.913  10.509  0.0291  0.5004  0.2693
  413SOL    HW1 4831   8.635   4.923  10.507  0.1791 -0.6643 -1.9820
  413SOL    HW2 4832   8.511   4.944  10.423 -1.6584  0.9685  0.9748
  414SOL     OW 4833   5.391   5.885  10.502  0.6387 -0.2973 -0.2330
  414SOL    HW1 4834   5.403   5.913  10.412  2.0877  0.0034  0.0297
  414SOL    HW2 4835   5.480   5.878  10.537  0.1457 -1.4230  0.8656
  415SOL     OW 4836  10.023  10.299   3.224 -0.4487  0.0024  0.5287
  415SOL    HW1 4837   9.930  10.316   3.243 -0.7337 -0.9299  0.0495
  415SOL    HW2 4838  10.023  10.214   3.181  0.4701  0.6768 -0.8830
  416SOL     OW 4839   3.543   6.277   5.496 -0.3210 -0.1775  0.6600
  416SOL    HW1 4840   3.474   6.286   5.562  1.5513  1.9027  2.5138
  416SOL    HW2 4841   3.620   6.317   5.536  1.2910  0.0259 -2.3311
  417SOL     OW 4842   3.520   6.284   9.056 -0.3155 -0.2404 -0.1049
  417SOL    HW1 4843   3.527   6.219   9.126 -3.5044 -0.3339  0.2807
  417SOL    HW2 4844   3.531   6.369   9.101  1.0327 -0.3762 -0.1339
  418SOL     OW 4845   1.516   2.636   6.953  0.5573 -0.1629 -0.2073
  418SOL    HW1 4846   1.582   2.622   6.885  0.6915 -0.5621  0.0044
  418SOL    HW2 4847   1.462   2.706   6.918  0.7484 -0.2218 -0.6396
  419SOL     OW 4848   7.059  11.098   6.224  0.4235  0.0360  0.2036
  419SOL    HW1 4849   7.121  11.061   6.287  0.9845  1.3710  0.4846
  419SOL    HW2 4850   6.974  11.065   6.251  0.6342  0.6648  1.7682
  420SOL     OW 4851   3.608   0.630   6.028 -0.5207  0.4370 -0.6521
  420SOL    HW1 4852   3.550   0.576   6.081  0.1679  0.2098 -0.1027
  420SOL    HW2 4853   3.551   0.670   5.962 -0.7760 -2.3691 -2.2667
  421SOL     OW 4854   5.575   2.027   5.287 -0.1273  0.2851  0.3615
  421SOL    HW1 4855   5.627   1.951   5.262 -0.9144 -0.2182  0.2435
  421SOL    HW2 4856   5.615   2.057   5.369  0.7547  0.3053 -0.0642
  422SOL     OW 4857  10.340  10.202   1.199 -0.3049 -0.8428 -0.2287
  422SOL    HW1 4858  10.302  10.147   1.130 -0.4809  0.1652 -0.9530
  422SOL    HW2 4859  10.432  10.211   1.175 -0.8753  1.6548 -1.8540
  423SOL     OW 4860   8.148   2.692   6.144 -0.2042 -0.1173 -0.1785
  423SOL    HW1 4861   8.086   2.621   6.161 -0.4303  0.4926  1.8285
  423SOL    HW2 4862   8.232   2.658   6.177  0.0763 -0.1153 -0.8729
  424SOL     OW 4863   8.434   2.746   2.892 -0.1675  0.0537 -0.2253
  424SOL    HW1 4864   8.371   2.809   2.927 -0.5867 -0.2475 -0.4274
  424SOL    HW2 4865   8.487   2.798   2.831  1.1679  0.7936  1.4924
  425SOL     OW 4866  11.086   8.339   6.319  0.1270 -0.0610  0.8992
  425SOL    HW1 4867  11.059   8.281   6.389 -1.4816 -0.4884 -0.0297
  425SOL    HW2 4868  11.005   8.372   6.282  0.9361  0.2908 -0.6526
  426SOL     OW 4869   5.821   6.359   8.007 -0.5851 -0.5928 -0.2126
  426SOL    HW1 4870   5.825   6.448   8.041  2.2118 -0.5687 -0.3525
  426SOL    HW2 4871   5.829   6.369   7.912  0.3925 -0.9938 -0.1852
  427SOL     OW 4872   5.998   2.008   4.534  0.2301 -0.4350  0.0756
  427SOL    HW1 4873   5.924   1.950   4.518 -0.8777  0.8029  0.5430
  427SOL    HW2 4874   5.961   2.096   4.530  2.2854  0.4641 -3.1161
  428SOL     OW 4875   9.112  10.877   5.093 -0.1297  0.6275 -0.3154
  428SOL    HW1 4876   9.051  10.846   5.160  1.1231  1.1456  1.1297
  428SOL    HW2 4877   9.085  10.968   5.077  0.1990  0.8352  0.2717
  429SOL     OW 4878   6.031   1.854   3.960  0.3670  0.0622 -0.0034
  429SOL    HW1 4879   5.997   1.829   3.874 -0.0027 -1.1944  0.4859
  429SOL    HW2 4880   6.122   1.824   3.960 -0.3452 -2.3066  0.9334
  430SOL     OW 4881   9.089  10.445   7.904 -0.0334 -0.4782  0.3307
  430SOL    HW1 4882   9.007  10.475   7.944  0.3310 -2.7523  3.1076
  430SOL    HW2 4883   9.157  10.486   7.957  0.5496 -1.1805  0.1371
  431SOL     OW 4884   6.367   9.002   4.682 -0.5078 -0.0485  0.3780
  431SOL    HW1 4885   6.444   9.016   4.628 -1.0593  0.2967 -0.3499
  431SOL    HW2 4886   6.299   9.056   4.640 -1.3977 -1.1016  0.4286
  432SOL     OW 4887   3.514   5.523   8.639 -0.4517  0.5996 -0.0418
  432SOL    HW1 4888   3.588   5.464   8.652  0.0517  1.4568  1.3210
  432SOL    HW2 4889   3.465   5.519   8.722 -3.7426 -2.2130 -1.8458
  433SOL     OW 4890   2.626   9.317   5.483 -0.3691 -0.0089  0.3496
  433SOL    HW1 4891   2.710   9.297   5.442 -0.6381  0.3620 -0.4088
  433SOL    HW2 4892   2.566   9.250   5.449 -0.2222 -0.7372  1.4813
  434SOL     OW 4893   2.279   2.186   6.217  0.0114 -0.3663 -0.4416
  434SOL    HW1 4894   2.249   2.244   6.147 -2.3324  1.0760  1.5795
  434SOL    HW2 4895   2.211   2.119   6.223  0.4739 -0.7969  0.0964
  435SOL     OW 4896   2.041   0.371   1.939  0.2483  0.1585 -0.3193
  435SOL    HW1 4897   2.053   0.400   2.029 -3.3174 -0.2674  0.4311
  435SOL    HW2 4898   1.974   0.429   1.903  0.7908 -0.3800 -2.3264
  436SOL     OW 4899  10.925   7.350   3.420 -0.3784 -0.2861  0.1589
  436SOL    HW1 4900  10.969   7.411   3.361  0.1537 -0.1029  0.7392
  436SOL    HW2 4901  10.996   7.312   3.472 -0.8968  0.0297  1.1179
  437SOL     OW 4902   7.193   4.300   5.082  0.4371  0.0261 -0.5624
  437SOL    HW1 4903   7.195   4.266   5.172  0.2207 -1.8996 -1.2593
  437SOL    HW2 4904   7.259   4.249   5.036  0.8515  1.3026 -1.4284
  438SOL     OW 4905   0.274   6.769   6.549 -0.1818  0.4115  0.5609
  438SOL    HW1 4906   0.235   6.856   6.548 -0.0683  0.4608  0.1387
  438SOL    HW2 4907   0.263   6.738   6.639 -0.7452  0.6246  0.5653
  439SOL     OW 4908   5.770   6.221  10.270  0.4003  0.4272 -0.3891
  439SOL    HW1 4909   5.741   6.139  10.311 -0.4922 -0.5539 -2.7858
  439SOL    HW2 4910   5.689   6.267  10.249  0.7948  0.7337 -1.3074
  440SOL     OW 4911  10.807   7.884   4.276 -0.7796  0.2946  0.5579
  440SOL    HW1 4912  10.893   7.927   4.277 -0.6831  0.1019  1.6057
  440SOL    HW2 4913  10.825   7.795   4.304 -1.5279  0.7096  2.5240
  441SOL     OW 4914  10.092   7.727   1.237 -0.4563  0.0454  0.3672
  441SOL    HW1 4915  10.117   7.645   1.194  0.8762 -0.1031  1.3613
  441SOL    HW2 4916  10.148   7.793   1.197 -0.7622  0.2786  0.3264
  442SOL     OW 4917   7.230   1.093   5.583 -0.4362  0.2357  0.6148
  442SOL    HW1 4918   7.191   1.170   5.625 -0.1770 -0.0535  1.4136
  442SOL    HW2 4919   7.155   1.045   5.547 -0.7327  0.1759  1.2937
  443SOL     OW 4920   8.715   5.841   4.163  0.6984  0.6271  0.9027
  443SOL    HW1 4921   8.670   5.762   4.131 -1.6258  1.5212  1.7297
  443SOL    HW2 4922   8.731   5.892   4.084 -0.3666  0.5542  0.6171
  444SOL     OW 4923   9.317  10.941  10.469  0.4208 -0.1816 -0.1038
  444SOL    HW1 4924   9.303  10.862  10.416  1.0077  0.8321 -1.8469
  444SOL    HW2 4925   9.371  10.997  10.414  1.3112  0.8237  1.7344
  445SOL     OW 4926   2.167   1.528   2.983 -0.7046  0.1131 -0.0788
  445SOL    HW1 4927   2.113   1.572   2.917 -0.6381 -0.1792 -0.3342
  445SOL    HW2 4928   2.165   1.436   2.957  2.3249  0.4265 -1.8858
  446SOL     OW 4929   1.834   5.876   3.680 -0.0269 -0.9084  0.1489
  446SOL    HW1 4930   1.781   5.935   3.733 -1.1034 -1.3667 -0.3750
  446SOL    HW2 4931   1.908   5.853   3.736 -0.6157 -0.5940  1.0815
  447SOL     OW 4932   6.674   5.397   9.329 -0.7416 -0.1242  0.3095
  447SOL    HW1 4933   6.666   5.304   9.307  0.6618  0.0737 -1.2620
  447SOL    HW2 4934   6.744   5.400   9.394  0.0120 -0.1031 -0.4749
  448SOL     OW 4935   9.878   0.984   1.435  0.8460 -0.1267 -0.2152
  448SOL    HW1 4936   9.925   0.994   1.518 -0.0635  2.1329  0.1089
  448SOL    HW2 4937   9.904   1.060   1.383  0.9995 -1.2416 -1.8279
  449SOL     OW 4938   4.667   8.890   5.238 -0.4732 -0.3622 -0.1927
  449SOL    HW1 4939   4.668   8.966   5.295  0.7487 -0.3462 -0.2175
  449SOL    HW2 4940   4.598   8.908   5.175 -2.1607 -0.5728  1.4967
  450SOL     OW 4941   7.539  10.184   6.004 -0.0984  0.1361  0.6860
  450SOL    HW1 4942   7.487  10.230   6.070  1.5987  1.1990  1.3249
  450SOL    HW2 4943   7.506  10.218   5.920 -0.5006  0.7220  1.0733
  451SOL     OW 4944  11.111   4.711   2.595 -0.1449  0.1407 -0.3134
  451SOL    HW1 4945  11.183   4.656   2.628  0.7647  2.5392  1.9824
  451SOL    HW2 4946  11.066   4.654   2.532  1.8056 -2.5808  0.5222
  452SOL     OW 4947   8.509   2.247   9.883  0.0662  0.0340 -0.8319
  452SOL    HW1 4948   8.584   2.188   9.896 -0.2625 -0.6086 -1.7683
  452SOL    HW2 4949   8.485   2.273   9.972  0.4593 -0.9534 -0.4127
  453SOL     OW 4950   1.420   4.045   4.517  0.2596 -0.1742  0.2776
  453SOL    HW1 4951   1.493   4.070   4.573  0.9685 -1.4383 -0.0643
  453SOL    HW2 4952   1.403   3.953   4.538 -0.1029 -0.3863 -0.8871
  454SOL     OW 4953   1.341   0.404   2.402 -0.1016 -0.4605 -0.1313
  454SOL    HW1 4954   1.264   0.365   2.361 -0.3428  0.2217 -0.3526
  454SOL    HW2 4955   1.404   0.413   2.330 -0.3494  0.2964 -0.2644
  455SOL     OW 4956   6.145   7.489   9.662 -0.6671  0.4270  0.2478
  455SOL    HW1 4957   6.093   7.569   9.650  1.2639  1.6278 -0.5472
  455SOL    HW2 4958   6.235   7.516   9.644 -0.0372 -2.1007 -0.7414
  456SOL     OW 4959   9.258   1.039   7.203 -0.3344 -0.5512 -0.5391
  456SOL    HW1 4960   9.190   1.106   7.194  1.0062  0.8478 -0.6687
  456SOL    HW2 4961   9.280   1.015   7.113 -0.6065 -0.9672 -0.4982
  457SOL     OW 4962   1.733   9.000   1.464 -0.4878  0.6016  0.3477
  457SOL    HW1 4963   1.749   9.031   1.375  0.5497  0.9414  0.6360
  457SOL    HW2 4964   1.741   8.905   1.458 -0.8396  0.5890  0.0081
  458SOL     OW 4965   2.244   1.851  10.189 -0.0237 -0.3287  0.4256
  458SOL    HW1 4966   2.332   1.861  10.154 -0.0800  0.3832  0.4880
  458SOL    HW2 4967   2.249   1.773  10.244  0.5765 -0.2671  0.4605
  459SOL     OW 4968   8.428   3.573   4.369 -0.2077  0.1137  0.1992
  459SOL    HW1 4969   8.390   3.555   4.282 -1.3377  0.2916  0.6294
  459SOL    HW2 4970   8.518   3.542   4.363 -1.1183 -2.7319 -0.0859
  460SOL     OW 4971   2.927   3.742   0.690  0.2553 -0.2172  0.4544
  460SOL    HW1 4972   2.910   3.666   0.745  2.7350 -0.8500  0.4821
  460SOL    HW2 4973   2.900   3.817   0.743 -3.8378 -0.9721 -0.1994
  461SOL     OW 4974   3.079   0.786  10.749 -0.4207 -0.0193  0.0555
  461SOL    HW1 4975   3.057   0.693  10.744 -3.2088  0.4956  1.2824
  461SOL    HW2 4976   3.122   0.796  10.834  0.7155 -0.2935 -0.4661
  462SOL     OW 4977   0.099   9.002   1.078  0.1294  0.2056 -0.4241
  462SOL    HW1 4978   0.088   9.092   1.109 -2.7726  0.6203 -2.1843
  462SOL    HW2 4979   0.144   9.011   0.994 -0.2736  0.0748 -0.6618
  463SOL     OW 4980   2.411   6.799   6.571 -0.0695 -0.3178 -0.4755
  463SOL    HW1 4981   2.462   6.771   6.647 -0.2171 -0.8118 -0.5498
  463SOL    HW2 4982   2.409   6.894   6.576 -1.1467 -0.3660  0.8515
  464SOL     OW 4983   5.360   6.210   7.625 -0.0696 -0.2812 -0.2793
  464SOL    HW1 4984   5.341   6.142   7.560  0.3412 -1.9331  1.2637
  464SOL    HW2 4985   5.361   6.291   7.574 -2.1335 -1.1969 -1.9297
  465SOL     OW 4986   0.361   1.456   9.358  0.4613  0.0724 -0.0090
  465SOL    HW1 4987   0.281   1.412   9.330  0.1186  1.2477 -0.9479
  465SOL    HW2 4988   0.360   1.449   9.453  0.1555 -1.4561 -0.0995
  466SOL     OW 4989   8.095   7.618   8.571  0.2812 -0.0890  0.0134
  466SOL    HW1 4990   8.160   7.681   8.540  0.0514 -0.9903 -2.5885
  466SOL    HW2 4991   8.041   7.667   8.633  0.4098  2.1349 -1.5283
  467SOL     OW 4992  11.086   3.813   0.535 -0.5623  0.4380  0.1593
  467SOL    HW1 4993  11.098   3.809   0.629  0.9653 -0.1641 -0.0277
  467SOL    HW2 4994  11.138   3.889   0.507  0.0230 -0.1177 -0.3117
  468SOL     OW 4995   8.212   2.145   9.948 -0.0424 -0.1134 -0.2148
  468SOL    HW1 4996   8.249   2.103  10.026  0.9762  2.2353  0.6873
  468SOL    HW2 4997   8.264   2.111   9.875  1.0842 -0.0443  0.5324
  469SOL     OW 4998   2.557   3.709   7.472 -0.1191  0.5809 -0.3553
  469SOL    HW1 4999   2.612   3.776   7.512  1.5176 -0.2906 -1.0539
  469SOL    HW2 5000   2.489   3.691   7.537  1.3622  0.5473  1.2407
  470SOL     OW 5001   4.493   2.098   8.350  0.1598  0.1683 -0.3588
  470SOL    HW1 5002   4.436   2.135   8.418 -0.6952  1.2778 -1.6266
  470SOL    HW2 5003   4.481   2.003   8.357 -0.2496  0.2908  0.7312
  471SOL     OW 5004   3.292   9.355   4.723  0.4486  0.2130 -0.1306
  471SOL    HW1 5005   3.333   9.290   4.781  1.1113  0.5222 -0.2386
  471SOL    HW2 5006   3.198   9.347   4.741  0.5941 -0.1118  0.5526
  472SOL     OW 5007  11.011   2.687   8.521  0.4620  0.1696  0.0115
  472SOL    HW1 5008  11.014   2.647   8.608 -1.0225 -2.4996 -1.0376
  472SOL    HW2 5009  10.918   2.693   8.500  0.7860  0.7538 -1.4027
  473SOL     OW 5010   9.227   1.213   9.086  0.5156  0.4180  0.1887
  473SOL    HW1 5011   9.252   1.121   9.078  2.1115  0.9719 -3.4406
  473SOL    HW2 5012   9.288   1.249   9.149  0.1779 -0.8676  1.3058
  474SOL     OW 5013   4.477  10.358   1.425 -0.1663  0.4866  0.1039
  474SOL    HW1 5014   4.521  10.437   1.456 -1.9645  1.2083  0.8935
  474SOL    HW2 5015   4.511  10.289   1.481  0.6428  0.8493  0.0853
  475SOL     OW 5016   8.133   9.223   8.070  0.3006  0.0001  1.0577
  475SOL    HW1 5017   8.058   9.220   8.130  0.3524  0.7643  1.1711
  475SOL    HW2 5018   8.097   9.260   7.989  0.9810  2.3841  1.7887
  476SOL     OW 5019  10.554   8.588   8.844  0.1071 -0.0487 -0.2631
  476SOL    HW1 5020  10.552   8.515   8.782 -1.3872 -1.2540  1.1204
  476SOL    HW2 5021  10.479   8.643   8.819 -0.5725 -0.6010  0.5032
  477SOL     OW 5022   0.635   9.476   7.979  0.3157 -0.2918 -0.4227
  477SOL    HW1 5023   0.557   9.432   8.013  0.2212  0.4196  0.2984
  477SOL    HW2 5024   0.708   9.432   8.021  0.2689 -0.4157 -0.4701
  478SOL     OW 5025   7.681   5.686   9.101 -0.4026 -0.3274 -0.0995
  478SOL    HW1 5026   7.592   5.681   9.067 -0.2835 -2.0802 -0.1987
  478SOL    HW2 5027   7.736   5.659   9.028  0.0889 -0.9139  0.4768
  479SOL     OW 5028   3.434   2.133   9.125 -0.2882  0.4501  0.4939
  479SOL    HW1 5029   3.483   2.065   9.171  0.8618  1.1654  0.3809
  479SOL    HW2 5030   3.430   2.104   9.034  0.9225  0.9034  0.2823
  480SOL     OW 5031  10.963   0.885   1.555  0.4095  0.4021 -0.9806
  480SOL    HW1 5032  10.874   0.922   1.552  0.4635  0.4484 -2.0620
  480SOL    HW2 5033  10.957   0.804   1.504  0.1743 -1.4324  1.7178
  481SOL     OW 5034   8.691   1.397   7.748 -0.5255 -0.3243 -0.2610
  481SOL    HW1 5035   8.639   1.346   7.809 -0.8693  0.4338  0.0957
  481SOL    HW2 5036   8.780   1.363   7.758 -0.7861 -0.9871 -0.1854
  482SOL     OW 5037   3.742   5.364  10.542 -0.1671  0.1016  0.0421
  482SOL    HW1 5038   3.737   5.269  10.547 -1.2431  0.1983  2.1604
  482SOL    HW2 5039   3.716   5.385  10.453  1.0155 -1.5914 -0.7742
  483SOL     OW 5040   0.436   1.630   7.121 -0.1680  0.2423  0.4662
  483SOL    HW1 5041   0.385   1.640   7.202 -1.7679  1.9066 -0.6664
  483SOL    HW2 5042   0.518   1.676   7.139 -0.8413  1.3276  0.9030
  484SOL     OW 5043   3.286   6.265   6.775  0.6119  0.2308 -0.3032
  484SOL    HW1 5044   3.234   6.324   6.829 -0.1224  0.2003 -0.9542
  484SOL    HW2 5045   3.238   6.182   6.777  2.8936 -1.2027  2.6425
  485SOL     OW 5046   4.070   0.184   9.891 -0.0237  0.1611  0.8108
  485SOL    HW1 5047   4.060   0.187   9.795  2.1820 -3.4516  0.3010
  485SOL    HW2 5048   3.996   0.131   9.921  0.6137 -0.7739  0.7656
  486SOL     OW 5049   6.938   6.323   2.040 -0.3947 -0.0540  0.6018
  486SOL    HW1 5050   6.845   6.348   2.032  0.1111  1.3595 -2.1536
  486SOL    HW2 5051   6.977   6.393   2.092 -0.1833  1.7282 -1.7761
  487SOL     OW 5052   7.197   9.994   9.757 -0.8761  0.5456 -0.4203
  487SOL    HW1 5053   7.180  10.006   9.664  2.5317  0.2630 -1.2262
  487SOL    HW2 5054   7.177   9.902   9.774  1.4014 -0.2638 -1.7360
  488SOL     OW 5055   1.050   2.447   9.355  0.2890 -0.0834  0.2970
  488SOL    HW1 5056   1.091   2.361   9.340 -0.1419 -0.0394 -1.3207
  488SOL    HW2 5057   0.978   2.429   9.416 -0.5536 -1.1270 -0.9418
  489SOL     OW 5058   4.040   8.863   3.034 -0.0127 -0.4056 -0.4668
  489SOL    HW1 5059   3.957   8.816   3.038 -1.6314  2.1185 -1.9850
  489SOL    HW2 5060   4.074   8.859   3.124 -1.8842 -1.2716  0.2515
  490SOL     OW 5061   4.250   7.933   2.707 -0.0709  0.3675 -0.3940
  490SOL    HW1 5062   4.291   8.019   2.693 -0.5875  1.1101  2.0765
  490SOL    HW2 5063   4.317   7.883   2.754 -0.0443 -0.3395 -1.1753
  491SOL     OW 5064  10.351   0.745   9.312  0.4008  0.3390  0.2824
  491SOL    HW1 5065  10.374   0.762   9.221  1.5833 -0.5084  0.4034
  491SOL    HW2 5066  10.391   0.661   9.332  1.8019  1.3783  2.1369
  492SOL     OW 5067   4.810   8.050   1.491 -0.5868 -0.1061  0.4414
  492SOL    HW1 5068   4.727   8.096   1.503 -0.1585  0.6229  0.7162
  492SOL    HW2 5069   4.877   8.117   1.509  0.0580 -0.6309  0.0551
  493SOL     OW 5070   5.725   1.784   5.218  0.7304 -1.1071 -0.0895
  493SOL    HW1 5071   5.653   1.722   5.218 -1.3512  1.1481  0.1712
  493SOL    HW2 5072   5.758   1.782   5.128 -1.5614 -0.2167 -1.0165
  494SOL     OW 5073   0.356   6.163   4.917  0.5226 -0.4794 -0.3844
  494SOL    HW1 5074   0.368   6.256   4.936 -1.5851  0.1121 -1.6452
  494SOL    HW2 5075   0.356   6.121   5.003 -0.1525  0.9155  0.3264
  495SOL     OW 5076   6.810   2.159   7.960  1.0894  0.0869  0.1931
  495SOL    HW1 5077   6.826   2.179   8.052  2.0514 -0.3878  0.1476
  495SOL    HW2 5078   6.822   2.064   7.954  0.0948 -0.0229 -0.2505
  496SOL     OW 5079   0.990   2.177   2.643 -0.6781 -0.0159  0.0503
  496SOL    HW1 5080   0.977   2.153   2.552 -1.2829 -1.7762  0.5509
  496SOL    HW2 5081   0.903   2.172   2.682 -0.2321 -0.7061  1.0157
  497SOL     OW 5082   9.577   0.925   5.602 -0.1848 -0.2628 -0.0795
  497SOL    HW1 5083   9.657   0.968   5.634 -0.1589  0.9251 -1.6666
  497SOL    HW2 5084   9.601   0.832   5.599  0.6357 -0.1117  0.8525
  498SOL     OW 5085   3.246  10.534   8.721  0.2766 -0.4359  0.2875
  498SOL    HW1 5086   3.269  10.503   8.808  2.2830  1.0229  0.3585
  498SOL    HW2 5087   3.328  10.568   8.685 -1.2967  3.0097 -0.4609
  499SOL     OW 5088   6.257   6.210   8.061  0.2866 -0.0921 -0.0466
  499SOL    HW1 5089   6.217   6.157   7.992  1.5659 -0.2332 -0.7146
  499SOL    HW2 5090   6.183   6.243   8.111 -0.6235 -1.0440 -0.6999
  500SOL     OW 5091   4.687   2.641   1.661 -0.2886  0.6512  0.2563
  500SOL    HW1 5092   4.674   2.641   1.756 -1.3202  0.0182  0.1353
  500SOL    HW2 5093   4.600   2.662   1.625  0.3968  2.4203 -0.5328
  501SOL     OW 5094   9.723   7.419   2.130 -0.2423 -0.1336  0.7889
  501SOL    HW1 5095   9.661   7.358   2.091  0.2029  0.5753 -1.1323
  501SOL    HW2 5096   9.770   7.367   2.196 -0.7453 -1.5097  0.0863
  502SOL     OW 5097   4.835   0.061   1.662 -0.3145 -0.0876 -0.0870
  502SOL    HW1 5098   4.816   0.126   1.730  1.5430 -1.0380  1.4335
  502SOL    HW2 5099   4.763  -0.002   1.669 -0.8723  0.5404  0.0286
  503SOL     OW 5100   4.266  10.509   3.895  0.0858  0.2570  0.0226
  503SOL    HW1 5101   4.224  10.426   3.873 -0.4437  0.9674 -1.9138
  503SOL    HW2 5102   4.359  10.490   3.896 -0.0798 -0.5617  0.6018
  504SOL     OW 5103   8.977   0.254   7.915 -0.2439 -0.3995  0.2320
  504SOL    HW1 5104   9.036   0.216   7.980  0.4147  1.2139  0.6002
  504SOL    HW2 5105   9.034   0.277   7.842 -1.0229 -2.6137 -1.2105
  505SOL     OW 5106  10.131   0.353   9.810  0.6197  0.4787 -0.6144
  505SOL    HW1 5107  10.170   0.342   9.897 -0.3543  0.9435 -0.1016
  505SOL    HW2 5108  10.111   0.264   9.781  0.2078  0.3711 -0.0087
  506SOL     OW 5109   8.443   6.901   7.516  0.0314  0.4348 -0.2591
  506SOL    HW1 5110   8.366   6.845   7.529  0.5882 -0.1641  0.5597
  506SOL    HW2 5111   8.427   6.977   7.571  0.6705 -0.3669  1.0836
  507SOL     OW 5112   2.260   9.503   1.196  0.0332  0.2164  0.1811
  507SOL    HW1 5113   2.247   9.432   1.259 -1.7249  2.0519  2.0627
  507SOL    HW2 5114   2.204   9.480   1.122  0.8921 -1.1946 -0.0720
  508SOL     OW 5115   3.841  10.287   7.031  0.0290  0.1751  0.1792
  508SOL    HW1 5116   3.840  10.331   6.946  1.4087 -0.8310 -0.3876
  508SOL    HW2 5117   3.832  10.358   7.094  0.6119  1.1212 -0.7582
  509SOL     OW 5118   3.607   3.042   0.133  0.6814 -0.4351  0.6781
  509SOL    HW1 5119   3.699   3.014   0.131 -0.0395 -3.0657 -0.7661
  509SOL    HW2 5120   3.595   3.090   0.052  0.7550 -0.2252  0.7924
  510SOL     OW 5121   4.755   4.498   5.285 -1.0223  0.1427  0.3028
  510SOL    HW1 5122   4.760   4.594   5.289 -0.0390  0.0753  1.6679
  510SOL    HW2 5123   4.843   4.471   5.261 -1.3427 -0.4162 -0.2377
  511SOL     OW 5124   4.751   5.999   6.314  0.8384  0.1889 -0.1596
  511SOL    HW1 5125   4.690   5.987   6.387  0.4037 -0.2132 -0.5916
  511SOL    HW2 5126   4.704   6.053   6.252  1.3664  0.8920  0.0362
  512SOL     OW 5127   0.919   7.366   7.755  0.4229 -0.2883  0.2742
  512SOL    HW1 5128   0.856   7.337   7.689  0.2443  0.6332  0.0219
  512SOL    HW2 5129   0.983   7.295   7.760  1.4405  0.3399 -2.1893
  513SOL     OW 5130   9.942   8.682   6.991  0.1601  0.1379 -0.4831
  513SOL    HW1 5131   9.955   8.738   7.067  0.0161 -0.4965  0.0207
  513SOL    HW2 5132   9.864   8.717   6.949  0.7116  1.0006 -0.8143
  514SOL     OW 5133   5.951   9.526   4.829 -0.2875  0.0727 -0.0497
  514SOL    HW1 5134   5.914   9.520   4.741 -1.0541  0.7112  0.2071
  514SOL    HW2 5135   6.004   9.606   4.827 -0.3663  0.1299  0.0793
  515SOL     OW 5136   5.902  11.111   6.110 -0.3035  0.2096 -0.3023
  515SOL    HW1 5137   5.933  11.022   6.130  0.8662  0.9513  1.4943
  515SOL    HW2 5138   5.811  11.111   6.139 -0.4048 -0.4769 -0.5864
  516SOL     OW 5139   3.466   8.990  10.335 -0.1113  0.5665  0.7207
  516SOL    HW1 5140   3.381   9.008  10.296  0.5228 -2.2110 -2.4345
  516SOL    HW2 5141   3.528   9.042  10.284  0.4122 -0.4543  0.2815
  517SOL     OW 5142   9.599   9.541   6.484 -0.1995  0.1265  0.1606
  517SOL    HW1 5143   9.562   9.583   6.562  0.4128  1.0464 -0.0233
  517SOL    HW2 5144   9.694   9.541   6.500 -0.2224 -2.2119  0.6439
  518SOL     OW 5145   1.772  10.604   1.171  0.2829  0.0088  0.1144
  518SOL    HW1 5146   1.734  10.616   1.258 -0.0304 -1.4084  0.1935
  518SOL    HW2 5147   1.845  10.543   1.185  1.4754  1.2821 -0.3207
  519SOL     OW 5148   9.274   4.645   6.291  0.1785 -0.0297  0.8098
  519SOL    HW1 5149   9.276   4.618   6.200  0.5238  0.9366  0.5200
  519SOL    HW2 5150   9.284   4.563   6.341 -1.4905 -0.7448  0.0263
  520SOL     OW 5151   6.541   0.044   2.589  0.5155  0.2533  0.3656
  520SOL    HW1 5152   6.584   0.084   2.513 -0.5220 -0.1429 -0.4456
  520SOL    HW2 5153   6.528   0.117   2.650  1.4722  0.5499  0.2300
  521SOL     OW 5154   1.688   6.767  11.030 -0.3170  0.0597  0.1129
  521SOL    HW1 5155   1.596   6.744  11.023 -0.4565  0.8272 -0.8207
  521SOL    HW2 5156   1.734   6.702  10.978 -0.4333  0.2100 -0.1832
  522SOL     OW 5157   1.416   8.439   8.612  0.0958 -0.1911 -0.1945
  522SOL    HW1 5158   1.418   8.473   8.702 -0.2786  0.6842 -0.5053
  522SOL    HW2 5159   1.501   8.399   8.600  0.9433  1.4753 -0.1131
  523SOL     OW 5160   9.863  10.402   7.375 -0.1606  0.4010  0.6964
  523SOL    HW1 5161   9.857  10.466   7.446  0.1862  0.0464  1.0413
  523SOL    HW2 5162   9.957  10.392   7.359 -0.1902 -0.4061  0.9900
  524SOL     OW 5163   4.488   2.310   6.077 -0.3013 -0.2956  0.2257
  524SOL    HW1 5164   4.506   2.354   6.159 -1.3044  0.7395 -0.0849
  524SOL    HW2 5165   4.531   2.224   6.085  0.3785  0.1451  1.4416
  525SOL     OW 5166  10.298   0.087   9.474 -0.4216 -0.2572 -0.2711
  525SOL    HW1 5167  10.338   0.062   9.558  0.9802  2.1865 -0.1164
  525SOL    HW2 5168  10.236   0.017   9.455  0.6648 -1.8917  1.8134
  526SOL     OW 5169   7.067   4.636   9.586  0.4140  0.4604 -0.1800
  526SOL    HW1 5170   7.090   4.596   9.502  1.5052 -2.5443  1.4119
  526SOL    HW2 5171   7.114   4.720   9.586 -0.7694  1.2439 -3.0852
  527SOL     OW 5172   8.279   8.660   9.021  0.3616  0.0705 -0.3685
  527SOL    HW1 5173   8.352   8.654   9.083  0.6702 -1.9201 -0.8436
  527SOL    HW2 5174   8.269   8.571   8.987 -2.1148  0.3305 -0.5403
  528SOL     OW 5175   7.168   6.733   3.401  0.1727 -0.0538 -0.1316
  528SOL    HW1 5176   7.225   6.729   3.478  1.0060  3.6394 -0.3403
  528SOL    HW2 5177   7.212   6.680   3.335  1.1973 -0.5898  0.9565
  529SOL     OW 5178   8.635   1.846   9.896  0.3510  0.1625 -0.0220
  529SOL    HW1 5179   8.658   1.822   9.986 -0.4584  0.8488  0.3819
  529SOL    HW2 5180   8.547   1.811   9.884  0.0472  0.9602 -0.1872
  530SOL     OW 5181  10.369   1.067   5.363  0.5874  0.0063 -0.2323
  530SOL    HW1 5182  10.400   1.011   5.434 -0.1036  0.3264  0.3329
  530SOL    HW2 5183  10.446   1.081   5.308  1.0545 -0.5030  0.2776
  531SOL     OW 5184   5.011   6.147   9.566 -0.1699  0.1183  0.3172
  531SOL    HW1 5185   5.056   6.223   9.530 -1.8811  1.4765  0.9329
  531SOL    HW2 5186   4.918   6.165   9.555 -0.6437 -1.8105  0.6536
  532SOL     OW 5187   6.325   9.941   6.674  0.3857 -0.3333  0.2745
  532SOL    HW1 5188   6.321   9.875   6.605 -0.9088  0.8728 -0.8784
  532SOL    HW2 5189   6.415   9.974   6.672  0.5677 -0.8676 -0.3027
  533SOL     OW 5190   0.501   7.036   8.034 -0.4028 -0.3500 -0.2026
  533SOL    HW1 5191   0.549   7.044   8.116  0.4677 -1.2040 -0.6064
  533SOL    HW2 5192   0.481   6.943   8.027 -2.7376  0.0640  0.2625
  534SOL     OW 5193   3.810   4.726   6.903 -0.1307 -0.0491  0.0931
  534SOL    HW1 5194   3.744   4.738   6.971  0.0969 -0.5526  0.4115
  534SOL    HW2 5195   3.761   4.726   6.821 -0.4782 -0.0370  0.3008
  535SOL     OW 5196   8.917   4.834   2.420  0.8049  0.2912  0.0939
  535SOL    HW1 5197   8.897   4.926   2.402  0.4802  0.3550  0.7607
  535SOL    HW2 5198   8.876   4.817   2.505  1.0703 -0.4030  0.0849
  536SOL     OW 5199  10.092   1.312  10.816  0.1661  0.1034  0.2262
  536SOL    HW1 5200  10.046   1.295  10.897  0.4004  0.9107  0.5387
  536SOL    HW2 5201  10.139   1.395  10.831  0.8835 -0.1642 -0.4315
  537SOL     OW 5202   1.545  10.615   0.387  0.4641  0.0404 -0.2366
  537SOL    HW1 5203   1.490  10.693   0.402 -0.6104 -0.1870 -2.5164
  537SOL    HW2 5204   1.620  10.648   0.338 -0.4337 -0.4214 -2.0045
  538SOL     OW 5205   2.886   3.393   5.584 -0.2182  0.1349  0.2248
  538SOL    HW1 5206   2.838   3.366   5.506  0.3858  0.0618 -0.1291
  538SOL    HW2 5207   2.835   3.357   5.657 -0.5004 -0.2578 -0.1578
  539SOL     OW 5208  10.677   6.996   6.760 -0.2946 -0.2624  0.5758
  539SOL    HW1 5209  10.695   7.033   6.847  1.5776 -0.5725  0.3685
  539SOL    HW2 5210  10.759   7.006   6.712 -1.0729 -0.7464 -0.9390
  540SOL     OW 5211   0.363   5.346   6.511  0.4054  0.7310 -0.1086
  540SOL    HW1 5212   0.381   5.255   6.536  1.1831  0.2008 -2.3835
  540SOL    HW2 5213   0.373   5.395   6.593 -0.1875 -1.2185  1.2149
  541SOL     OW 5214   2.424   0.493   7.829  0.0603  0.3747  0.0927
  541SOL    HW1 5215   2.471   0.572   7.856  0.1747  0.8584 -1.4233
  541SOL    HW2 5216   2.456   0.475   7.740 -1.2742 -0.3585 -0.2662
  542SOL     OW 5217   1.153   3.096   1.700  0.0705 -0.1414 -0.1830
  542SOL    HW1 5218   1.233   3.100   1.752  0.3837  0.5411 -0.7024
  542SOL    HW2 5219   1.084   3.128   1.758  0.3548  0.2480 -0.0548
  543SOL     OW 5220   8.717   0.554  10.707 -0.1287 -0.3635  1.0117
  543SOL    HW1 5221   8.625   0.554  10.733 -1.2433 -0.9214 -2.3546
  543SOL    HW2 5222   8.729   0.639  10.663  0.1913 -1.2428 -0.6924
  544SOL     OW 5223  10.195   2.157   0.164 -0.3415 -0.4317  0.0278
  544SOL    HW1 5224  10.110   2.176   0.204 -0.5998 -2.1460  0.3488
  544SOL    HW2 5225  10.253   2.140   0.238  0.5091  1.4405 -0.1539
  545SOL     OW 5226   3.300   1.810  10.851  0.1486 -0.3532  0.1689
  545SOL    HW1 5227   3.207   1.807  10.870 -0.0950 -0.7693 -1.0197
  545SOL    HW2 5228   3.333   1.724  10.877  0.3796  0.0841  1.3819
  546SOL     OW 5229   2.240   4.555   6.336  0.0639 -0.0495 -0.6188
  546SOL    HW1 5230   2.306   4.514   6.280  0.5020 -2.1623  1.2934
  546SOL    HW2 5231   2.156   4.522   6.304  0.3646 -1.9540  0.4026
  547SOL     OW 5232   6.602   2.369   1.694  0.0858  0.4196  0.4718
  547SOL    HW1 5233   6.548   2.304   1.648 -2.0307  1.9035  0.7189
  547SOL    HW2 5234   6.611   2.334   1.783  1.4963 -0.9145 -0.1458
  548SOL     OW 5235   3.826   9.236   3.456 -0.2294  0.0336  0.3936
  548SOL    HW1 5236   3.736   9.259   3.479 -0.1624  1.1892 -0.3843
  548SOL    HW2 5237   3.864   9.205   3.538 -0.8426  1.2001  1.1486
  549SOL     OW 5238   1.176   9.514   3.006  0.2780 -0.3407  0.2605
  549SOL    HW1 5239   1.165   9.537   2.914 -1.6005  0.9489  0.7437
  549SOL    HW2 5240   1.120   9.437   3.018  0.8881 -0.7952  0.2403
  550SOL     OW 5241   8.798   7.513   9.871 -0.0861 -0.0445 -0.3930
  550SOL    HW1 5242   8.889   7.541   9.862  0.1517 -0.5993  0.2088
  550SOL    HW2 5243   8.802   7.417   9.872 -0.5504 -0.0705  0.7796
  551SOL     OW 5244  11.035   6.726   9.007  0.0155 -0.7312  0.0243
  551SOL    HW1 5245  11.001   6.741   8.919  0.4975 -0.4515 -0.1220
  551SOL    HW2 5246  10.960   6.739   9.064 -0.5138 -1.8003 -0.4048
  552SOL     OW 5247   5.366   8.360   4.053 -0.3562  0.0491  0.1334
  552SOL    HW1 5248   5.323   8.278   4.076 -1.3022  0.7321  0.8685
  552SOL    HW2 5249   5.331   8.424   4.115  0.2880  1.0323 -0.4886
  553SOL     OW 5250  10.689  10.541   9.527 -0.3126  0.2579 -0.2405
  553SOL    HW1 5251  10.741  10.575   9.454  0.2197 -1.6862 -0.8097
  553SOL    HW2 5252  10.607  10.512   9.487  0.5835 -2.2568 -0.3969
  554SOL     OW 5253   5.739   5.751   7.347  0.3611  0.4141 -0.6232
  554SOL    HW1 5254   5.779   5.668   7.321  0.4595  0.5054 -0.7634
  554SOL    HW2 5255   5.787   5.817   7.298  1.3216  0.6905  0.6375
  555SOL     OW 5256   5.705   3.129   8.441 -0.2585  0.4081  0.2770
  555SOL    HW1 5257   5.746   3.112   8.356 -0.9546 -0.2886  0.0700
  555SOL    HW2 5258   5.631   3.185   8.421  0.2783  1.2558  0.5922
  556SOL     OW 5259   0.782   7.572   8.524 -0.0040  0.1496 -0.0047
  556SOL    HW1 5260   0.808   7.595   8.435 -1.6276  2.4710  0.0496
  556SOL    HW2 5261   0.865   7.568   8.572  1.0907 -2.6800 -1.8088
  557SOL     OW 5262   3.101   6.706   1.959 -0.3571 -0.2171  0.3729
  557SOL    HW1 5263   3.175   6.646   1.949 -0.1117  0.3085 -1.1515
  557SOL    HW2 5264   3.036   6.675   1.896  0.8719  2.6808 -2.5615
  558SOL     OW 5265   0.737   4.586   5.234 -0.2334 -0.2335 -0.7765
  558SOL    HW1 5266   0.716   4.576   5.141  4.1134  0.6641 -2.0862
  558SOL    HW2 5267   0.722   4.678   5.252  0.8365  0.0589 -1.2603
  559SOL     OW 5268   9.828   3.317   4.377 -0.2414  0.9172 -0.2370
  559SOL    HW1 5269   9.874   3.381   4.431 -0.9681  0.7246  0.6336
  559SOL    HW2 5270   9.739   3.352   4.369 -1.0327 -0.6041  1.3714
  560SOL     OW 5271   3.698   6.488   1.099 -0.1793  0.1373  0.1733
  560SOL    HW1 5272   3.626   6.528   1.051  0.0414 -0.6369 -0.8271
  560SOL    HW2 5273   3.737   6.426   1.037  0.3675 -0.5856  1.2167
  561SOL     OW 5274   8.232   7.701   6.813 -0.1927  0.1951 -1.2484
  561SOL    HW1 5275   8.266   7.765   6.750 -1.7820  1.0224 -1.2958
  561SOL    HW2 5276   8.304   7.638   6.823  0.6459  0.8541 -2.7513
  562SOL     OW 5277   0.115   7.151  11.071  0.2557 -0.3170 -0.1203
  562SOL    HW1 5278   0.103   7.071  11.121  1.1470 -0.2706  0.1899
  562SOL    HW2 5279   0.197   7.188  11.105  0.0092  0.5657 -0.4644
  563SOL     OW 5280   8.987   1.832   0.218 -0.1974 -0.2287  0.0227
  563SOL    HW1 5281   9.080   1.823   0.242  0.4729  3.2300 -0.7839
  563SOL    HW2 5282   8.949   1.882   0.291 -1.1471 -0.5604 -0.2366
  564SOL     OW 5283   3.687  10.891   8.006 -0.4755  0.3227  0.0816
  564SOL    HW1 5284   3.651  10.913   7.920 -1.1412 -1.2813 -0.0881
  564SOL    HW2 5285   3.781  10.880   7.990 -0.9188 -2.5270 -1.0662
  565SOL     OW 5286   2.752  10.960   0.720  0.4239  0.5708 -0.5194
  565SOL    HW1 5287   2.807  11.039   0.722  0.9348  0.2617 -1.5544
  565SOL    HW2 5288   2.679  10.983   0.661  1.0185  0.0080 -1.4994
  566SOL     OW 5289   9.575   1.616   8.173  0.0343 -0.6114  0.2921
  566SOL    HW1 5290   9.603   1.621   8.265 -0.8135  1.4492  0.4911
  566SOL    HW2 5291   9.653   1.585   8.126  1.2230  0.5537  1.4167
  567SOL     OW 5292   5.444   9.310   0.001  0.2512  0.4682 -0.5274
  567SOL    HW1 5293   5.522   9.341  -0.046  0.3901 -0.6913 -1.0911
  567SOL    HW2 5294   5.471   9.308   0.093  1.1196 -0.5255 -0.7802
  568SOL     OW 5295   9.875   0.669   7.160  0.0160  0.1475  0.0865
  568SOL    HW1 5296   9.791   0.704   7.191  0.4343  1.2420  0.0572
  568SOL    HW2 5297   9.874   0.577   7.185 -0.7026  0.4229  1.1502
  569SOL     OW 5298   5.241   1.336   8.708  0.3995 -0.3684 -0.5046
  569SOL    HW1 5299   5.303   1.385   8.761 -0.1420 -0.1287 -0.0829
  569SOL    HW2 5300   5.222   1.393   8.633  0.3231 -0.2377 -0.3863
  570SOL     OW 5301   1.405   6.236   0.039  0.1259 -0.4509  0.6971
  570SOL    HW1 5302   1.334   6.277   0.087  0.1518 -0.0991  0.4368
  570SOL    HW2 5303   1.363   6.166  -0.011  0.1397 -1.0101  1.4443
  571SOL     OW 5304   0.309  10.173   2.757 -0.1036 -0.0213 -1.0258
  571SOL    HW1 5305   0.225  10.218   2.765 -0.3071 -0.7468  3.1822
  571SOL    HW2 5306   0.288  10.087   2.721 -1.3183 -0.3389  0.3492
  572SOL     OW 5307   9.346   1.705   8.824 -0.2525  0.0464  0.1666
  572SOL    HW1 5308   9.418   1.713   8.886  0.2209 -1.7221 -0.0908
  572SOL    HW2 5309   9.270   1.681   8.878 -0.7461  2.1362  0.4664
  573SOL     OW 5310   3.378  10.514   8.965 -0.1162 -0.3757  0.0028
  573SOL    HW1 5311   3.385  10.609   8.959 -2.1145 -0.1598  0.1455
  573SOL    HW2 5312   3.467  10.482   8.957  0.4838  1.4480 -1.1846
  574SOL     OW 5313   8.567   6.393   4.927 -0.1002 -0.0770  0.0788
  574SOL    HW1 5314   8.619   6.313   4.926 -0.8199 -0.5787 -1.7975
  574SOL    HW2 5315   8.629   6.463   4.907  0.2571 -0.3783  0.1371
  575SOL     OW 5316   6.256   9.619   5.766 -0.8427 -0.3493  0.1912
  575SOL    HW1 5317   6.231   9.570   5.688  0.8880  0.4804 -0.9356
  575SOL    HW2 5318   6.251   9.711   5.740 -1.5422  0.0099  1.4898
  576SOL     OW 5319   2.022  10.885   4.715  0.0220 -0.3803  0.1318
  576SOL    HW1 5320   1.934  10.913   4.739 -0.1618  1.1758 -2.0804
  576SOL    HW2 5321   2.078  10.917   4.785 -1.1822 -2.0749  1.9902
  577SOL     OW 5322   1.572   0.094   6.151  0.7989 -0.7257  0.3723
  577SOL    HW1 5323   1.610   0.182   6.156  0.4751 -0.5636  0.0010
  577SOL    HW2 5324   1.648   0.036   6.149  1.1342 -0.3209 -2.3172
  578SOL     OW 5325   8.687   0.944   1.557  0.8417 -0.0725 -0.2239
  578SOL    HW1 5326   8.599   0.962   1.524 -0.4418 -2.0754  1.8752
  578SOL    HW2 5327   8.720   0.874   1.500  0.8214  0.2246 -0.6037
  579SOL     OW 5328   3.550   5.155   2.861 -0.1574  0.6183  0.1365
  579SOL    HW1 5329   3.486   5.100   2.816  1.1519 -0.8364 -0.0099
  579SOL    HW2 5330   3.559   5.116   2.948  0.7150  0.6421  0.0661
  580SOL     OW 5331   4.255   7.088   7.218  0.2306  0.4052 -0.6692
  580SOL    HW1 5332   4.209   7.159   7.263 -0.9805 -0.2982 -0.7769
  580SOL    HW2 5333   4.287   7.031   7.288 -0.3399  0.1143 -0.6456
  581SOL     OW 5334   9.932   0.155   1.717 -0.2975  0.1040  0.6943
  581SOL    HW1 5335   9.883   0.145   1.798 -1.8093 -0.0162 -0.2136
  581SOL    HW2 5336   9.926   0.070   1.674 -1.6244  0.8644 -0.6840
  582SOL     OW 5337   4.508   4.408   1.737  0.2768  0.1958  0.8669
  582SOL    HW1 5338   4.559   4.406   1.656  0.6351 -1.3260  1.1069
  582SOL    HW2 5339   4.473   4.497   1.741  1.3863  0.7088 -0.2510
  583SOL     OW 5340   1.740   7.855   4.185 -0.0203 -0.4403  0.3010
  583SOL    HW1 5341   1.777   7.767   4.187 -1.1819 -1.0318 -1.5517
  583SOL    HW2 5342   1.722   7.871   4.092 -1.5443  1.0223  0.8037
  584SOL     OW 5343   2.417   1.643   1.681 -0.1048  0.1542  0.2775
  584SOL    HW1 5344   2.381   1.597   1.757 -0.2503  1.8371  1.2605
  584SOL    HW2 5345   2.415   1.735   1.705  1.4413  0.5944 -1.1229
  585SOL     OW 5346   0.916   6.452  10.155  0.2663  0.7139 -0.3763
  585SOL    HW1 5347   0.827   6.473  10.182 -0.0894 -0.9665 -0.1611
  585SOL    HW2 5348   0.906   6.402  10.075  0.8063 -1.7527  0.9969
  586SOL     OW 5349   4.430   9.905   3.134 -0.1788 -0.4523 -0.8119
  586SOL    HW1 5350   4.373   9.838   3.172  1.1931 -1.0365  0.2812
  586SOL    HW2 5351   4.414   9.983   3.187  0.2684 -0.7109 -0.2879
  587SOL     OW 5352   6.782   2.432   3.650 -0.3083  0.7390  0.4259
  587SOL    HW1 5353   6.739   2.488   3.715  1.0228  2.3326  0.0001
  587SOL    HW2 5354   6.720   2.431   3.576 -1.4166 -0.3425  1.3330
  588SOL     OW 5355   3.507   0.832   5.805 -0.0415 -0.0086  0.2459
  588SOL    HW1 5356   3.587   0.883   5.792 -0.2320  0.2263 -0.0136
  588SOL    HW2 5357   3.437   0.898   5.810 -0.1987 -0.1968  0.6632
  589SOL     OW 5358   6.738   3.232   7.627  0.6245 -0.2983  0.0874
  589SOL    HW1 5359   6.789   3.234   7.708  0.7338 -2.4732  0.1332
  589SOL    HW2 5360   6.800   3.259   7.559  0.5199  1.5838  0.6659
  590SOL     OW 5361   0.427   2.212   8.221 -0.5149 -0.1423  0.6603
  590SOL    HW1 5362   0.340   2.242   8.195  0.0204  0.0827 -0.9474
  590SOL    HW2 5363   0.418   2.117   8.229 -0.8401 -0.1546  0.2113
  591SOL     OW 5364   9.856   3.041   7.359  0.1694  0.1011  0.2353
  591SOL    HW1 5365   9.865   2.963   7.414 -0.1166  0.1998  0.4235
  591SOL    HW2 5366   9.791   3.016   7.293 -2.0055  1.0420  1.8860
  592SOL     OW 5367   6.173   7.205   3.665 -0.1935  0.1793  0.0417
  592SOL    HW1 5368   6.259   7.234   3.697  0.0319 -0.0627 -0.3356
  592SOL    HW2 5369   6.188   7.180   3.574 -0.7350  0.4232 -0.1201
  593SOL     OW 5370  10.358   2.212   2.325 -0.5775 -0.0279 -0.0547
  593SOL    HW1 5371  10.360   2.127   2.281  0.5818 -0.0253 -0.0513
  593SOL    HW2 5372  10.306   2.268   2.268  1.5359  0.1926 -1.9094
  594SOL     OW 5373   9.654   5.049   0.034  0.1047 -0.4225  0.1749
  594SOL    HW1 5374   9.663   5.109  -0.041 -0.1283 -0.8369 -0.1910
  594SOL    HW2 5375   9.574   5.078   0.077  0.5700  0.2131  0.6337
  595SOL     OW 5376   7.165   2.894   2.106 -0.2039  0.2815 -0.0428
  595SOL    HW1 5377   7.150   2.982   2.140 -0.9300  0.4327 -0.7288
  595SOL    HW2 5378   7.125   2.895   2.019  1.1534 -0.2396 -0.7117
  596SOL     OW 5379   2.237   3.647   1.876 -0.0430 -0.2236  0.2885
  596SOL    HW1 5380   2.179   3.717   1.845  0.9710 -0.2933 -2.0058
  596SOL    HW2 5381   2.277   3.683   1.956 -1.2749  0.8658  0.4513
  597SOL     OW 5382   0.633   8.345   7.973  0.9148 -0.0540  0.2528
  597SOL    HW1 5383   0.618   8.414   8.039 -1.3989  0.3077 -0.5260
  597SOL    HW2 5384   0.596   8.266   8.013 -1.5202  0.3975 -0.9302
  598SOL     OW 5385   4.311   7.003   9.087 -0.2017 -0.1113 -0.1125
  598SOL    HW1 5386   4.248   7.048   9.030  0.5795  0.4058 -0.5811
  598SOL    HW2 5387   4.365   7.073   9.123  2.4637 -0.7229 -2.5494
  599SOL     OW 5388   2.711   7.868   9.516 -0.3714 -0.6025  0.3971
  599SOL    HW1 5389   2.762   7.950   9.515 -0.3145 -0.6026  1.7138
  599SOL    HW2 5390   2.737   7.824   9.435 -0.5387  0.7533 -0.4340
  600SOL     OW 5391   7.449   9.622   6.005 -0.2445  0.0217  0.1805
  600SOL    HW1 5392   7.384   9.568   5.960 -0.8745  0.1215  0.9531
  600SOL    HW2 5393   7.409   9.642   6.089  0.5381  0.6017  0.4208
  601SOL     OW 5394  10.805   0.736   4.385 -0.3075 -0.4538  0.3165
  601SOL    HW1 5395  10.760   0.743   4.301  0.0592  0.2120  0.1615
  601SOL    HW2 5396  10.880   0.679   4.367  1.1513  1.5618 -0.4658
  602SOL     OW 5397   7.937   7.208   5.207 -0.6919 -0.0794  0.6956
  602SOL    HW1 5398   7.952   7.234   5.298 -0.7982  0.4673  0.5634
  602SOL    HW2 5399   7.898   7.121   5.213 -1.1149  0.1387  1.1918
  603SOL     OW 5400   7.848   8.209   4.633  0.6593 -0.0868 -0.5330
  603SOL    HW1 5401   7.845   8.264   4.554  2.5071  1.2677  0.2563
  603SOL    HW2 5402   7.934   8.229   4.672  0.5217 -2.0498  0.8843
  604SOL     OW 5403   2.239   4.217   7.783  0.3602  0.0628  0.4832
  604SOL    HW1 5404   2.165   4.230   7.842 -0.3895  2.0147 -0.7774
  604SOL    HW2 5405   2.258   4.123   7.788 -2.6362 -0.6537  0.3993
  605SOL     OW 5406   9.793   9.578   6.215  0.4562  0.3830  0.4136
  605SOL    HW1 5407   9.721   9.524   6.182 -0.1553  1.3475  0.1103
  605SOL    HW2 5408   9.820   9.535   6.296 -0.5167  0.0286  0.5637
  606SOL     OW 5409   4.322   2.562   3.243 -0.2159 -0.4328 -0.0250
  606SOL    HW1 5410   4.366   2.606   3.170  0.9659 -2.4390 -0.5903
  606SOL    HW2 5411   4.334   2.468   3.226 -0.0215 -0.9886  2.6811
  607SOL     OW 5412   1.219   3.716   5.871  0.0808 -0.6995  0.1875
  607SOL    HW1 5413   1.208   3.795   5.922 -0.2523  0.2430 -1.2890
  607SOL    HW2 5414   1.169   3.649   5.918  0.2401 -0.0107  1.3605
  608SOL     OW 5415   8.508   6.381   3.412 -0.0274  0.3734 -0.2869
  608SOL    HW1 5416   8.514   6.400   3.318  1.5314  0.3154 -0.2293
  608SOL    HW2 5417   8.415   6.364   3.427 -0.6714  2.5510 -1.3815
  609SOL     OW 5418   3.876   8.073   3.796  0.5235  0.0648 -0.2536
  609SOL    HW1 5419   3.913   8.001   3.744  1.5014 -0.6787  1.4258
  609SOL    HW2 5420   3.933   8.147   3.779  1.6503 -0.5396  0.7651
  610SOL     OW 5421   2.332   0.189   0.202 -0.0117  0.0444  0.0519
  610SOL    HW1 5422   2.390   0.226   0.268 -0.4606 -0.6683  0.8742
  610SOL    HW2 5423   2.375   0.108   0.175 -0.2732 -0.1251  0.1418
  611SOL     OW 5424   9.959   9.044   3.359 -0.3620  0.3450  0.5773
  611SOL    HW1 5425   9.865   9.026   3.360 -0.6138  1.3632  2.7904
  611SOL    HW2 5426   9.999   8.961   3.383 -0.5965 -0.3246 -1.2161
  612SOL     OW 5427   3.833   6.480   2.373  0.5578  0.5098 -0.1656
  612SOL    HW1 5428   3.901   6.546   2.388 -0.2046  1.2614  0.0455
  612SOL    HW2 5429   3.782   6.480   2.454  0.2887 -0.0356 -0.3334
  613SOL     OW 5430   0.983   9.889   0.623 -0.2693  0.1476  0.3586
  613SOL    HW1 5431   1.029   9.825   0.568 -0.0072 -0.6722  1.4892
  613SOL    HW2 5432   1.039   9.900   0.700 -0.9762  0.7085  0.8096
  614SOL     OW 5433   1.531   1.471   1.423  0.2162 -0.1969  0.1755
  614SOL    HW1 5434   1.480   1.538   1.376 -1.0106 -0.0092  1.6608
  614SOL    HW2 5435   1.503   1.388   1.384 -0.4149 -0.0164  0.2226
  615SOL     OW 5436   5.844   1.581   8.802  0.6038 -0.3413 -0.1864
  615SOL    HW1 5437   5.830   1.504   8.747 -1.9486 -0.3355  0.3426
  615SOL    HW2 5438   5.811   1.555   8.888 -1.0339  1.5385 -0.1759
  616SOL     OW 5439   5.353   3.127   5.194  0.0557 -0.4638  0.3640
  616SOL    HW1 5440   5.258   3.125   5.210 -0.4537  1.7846 -1.7613
  616SOL    HW2 5441   5.361   3.115   5.100  1.7722  0.8655  0.3014
  617SOL     OW 5442   3.644   9.586  10.140 -0.2219 -0.3970 -0.1412
  617SOL    HW1 5443   3.713   9.522  10.155 -0.4585 -0.6644 -0.1978
  617SOL    HW2 5444   3.645   9.600  10.046 -1.5047 -1.8222 -0.4006
  618SOL     OW 5445   0.218   5.872   9.498 -0.5944  0.2476 -0.1774
  618SOL    HW1 5446   0.151   5.908   9.557 -1.3919 -0.6610 -0.5096
  618SOL    HW2 5447   0.190   5.901   9.411 -1.8764 -1.9876 -0.5969
  619SOL     OW 5448   5.732   9.457   4.999 -0.4985 -0.1105  0.2625
  619SOL    HW1 5449   5.806   9.448   4.938  1.2166  4.4032  1.2689
  619SOL    HW2 5450   5.655   9.435   4.947  1.2365 -1.2463 -2.0240
  620SOL     OW 5451   5.931   8.741   1.992  0.2847  0.1120  0.2165
  620SOL    HW1 5452   5.847   8.754   1.947 -0.5636 -0.0665  1.6711
  620SOL    HW2 5453   5.947   8.824   2.037  1.1290  0.2929 -0.3928
  621SOL     OW 5454   8.849   6.001   9.819  0.3851  0.6043  0.0061
  621SOL    HW1 5455   8.835   5.972   9.729  0.8982 -0.7575  0.3452
  621SOL    HW2 5456   8.934   5.965   9.843 -0.6513 -0.8713  1.7238
  622SOL     OW 5457   3.752   1.333  10.586 -0.2488 -0.4364  0.7049
  622SOL    HW1 5458   3.716   1.278  10.517  1.7979 -1.0859  0.0806
  622SOL    HW2 5459   3.676   1.365  10.634 -1.7396 -0.0341 -1.7861
  623SOL     OW 5460   7.302   8.303   8.683  0.3316  0.4510  0.2791
  623SOL    HW1 5461   7.297   8.275   8.592 -0.8178  0.2403  0.3930
  623SOL    HW2 5462   7.372   8.250   8.721  1.6613  1.3862 -0.7555
  624SOL     OW 5463   5.906   2.076   7.182 -0.5202 -0.1526  0.0222
  624SOL    HW1 5464   5.918   2.071   7.277 -0.5413 -0.6735 -0.0011
  624SOL    HW2 5465   5.982   2.030   7.146 -0.7974 -0.4380 -0.2006
  625SOL     OW 5466   7.540   7.380   8.993  0.5084 -0.4859  0.2925
  625SOL    HW1 5467   7.577   7.468   8.995  0.0064 -0.2764  1.7206
  625SOL    HW2 5468   7.454   7.391   8.954  0.4778 -0.3607  0.3947
  626SOL     OW 5469   6.606   9.017   1.327  0.8380  0.4818  0.1756
  626SOL    HW1 5470   6.577   9.054   1.244 -0.9328 -1.3089 -0.0872
  626SOL    HW2 5471   6.526   8.983   1.368  1.7841  0.5551  2.2271
  627SOL     OW 5472   8.512  10.865   5.432  0.6739 -0.9099 -0.1837
  627SOL    HW1 5473   8.485  10.775   5.416 -3.2337  0.3446 -1.7268
  627SOL    HW2 5474   8.584  10.879   5.371 -0.8696 -2.0893 -2.4107
  628SOL     OW 5475   3.827   0.948   4.625 -0.1370 -0.3415  0.2115
  628SOL    HW1 5476   3.822   1.005   4.702 -1.2385 -0.0734 -0.0425
  628SOL    HW2 5477   3.920   0.923   4.620 -0.1023 -0.7083  1.8666
  629SOL     OW 5478   1.050   1.369   9.426 -0.2004  0.3318 -0.0322
  629SOL    HW1 5479   1.107   1.424   9.372 -0.1956  0.2054 -0.1571
  629SOL    HW2 5480   0.965   1.372   9.382  0.5941 -2.5945 -2.1219
  630SOL     OW 5481   6.286   9.318   6.483 -0.1428 -1.1361  0.1277
  630SOL    HW1 5482   6.273   9.379   6.411  0.2760 -0.0394  0.9645
  630SOL    HW2 5483   6.246   9.360   6.559 -0.4325 -2.1996  0.5911
  631SOL     OW 5484   0.748   9.900   1.110 -0.4469  0.4396  0.1395
  631SOL    HW1 5485   0.722   9.835   1.044 -0.1212  1.4732 -1.0524
  631SOL    HW2 5486   0.818   9.950   1.068 -1.1397  2.0009  0.7442
  632SOL     OW 5487   2.637   0.610   0.728 -0.0135 -0.3554 -0.0788
  632SOL    HW1 5488   2.577   0.536   0.727 -0.6689  0.1662 -1.2432
  632SOL    HW2 5489   2.689   0.600   0.648  0.4887 -0.0381  0.2018
  633SOL     OW 5490   3.595   3.520   4.937 -0.2208 -0.1434 -0.1865
  633SOL    HW1 5491   3.678   3.483   4.966  0.3556  1.2338 -0.0503
  633SOL    HW2 5492   3.603   3.526   4.842 -0.1699  0.0078 -0.1714
  634SOL     OW 5493   2.047   1.922   7.849 -0.2819 -0.7289 -0.0678
  634SOL    HW1 5494   2.051   2.018   7.857 -1.7437 -0.7008  0.5200
  634SOL    HW2 5495   2.091   1.890   7.928  1.1632 -0.5860 -0.7704
  635SOL     OW 5496   0.222   2.495   5.964 -0.6859 -0.2173  0.8892
  635SOL    HW1 5497   0.273   2.475   5.885 -1.9163  0.7034 -0.1739
  635SOL    HW2 5498   0.280   2.470   6.036  0.8193 -0.2757 -0.2817
  636SOL     OW 5499  10.168  10.906  10.896  0.0019 -0.1307  0.4852
  636SOL    HW1 5500  10.091  10.949  10.933 -0.0185 -0.5656  0.9737
  636SOL    HW2 5501  10.241  10.960  10.924 -0.1819  0.8139 -0.7742
  637SOL     OW 5502   6.042   2.179   6.794  0.0640 -0.0765 -0.4805
  637SOL    HW1 5503   6.046   2.091   6.832 -0.1850 -1.4115 -3.3455
  637SOL    HW2 5504   5.948   2.197   6.785  0.0071  1.5664  2.1833
  638SOL     OW 5505   8.950   8.343   1.940 -0.3479  0.0944 -0.1635
  638SOL    HW1 5506   8.912   8.280   2.002  0.2226 -0.3500 -0.2598
  638SOL    HW2 5507   9.019   8.294   1.895  2.1883  1.5660  1.8240
  639SOL     OW 5508   1.104   8.080   1.038 -0.0243  0.2880 -0.3452
  639SOL    HW1 5509   1.110   8.147   0.970 -0.2365 -0.2154 -0.8703
  639SOL    HW2 5510   1.010   8.067   1.052  0.0087 -0.2514 -0.6060
  640SOL     OW 5511   7.694   6.660   9.286  0.0815  0.7228 -0.0666
  640SOL    HW1 5512   7.696   6.756   9.281 -0.4469  0.6886 -2.0063
  640SOL    HW2 5513   7.601   6.639   9.292  0.0976  0.3202 -1.0569
  641SOL     OW 5514   5.121   6.245   3.048  0.7152 -0.0468  0.0591
  641SOL    HW1 5515   5.177   6.316   3.018  1.0056 -0.9070 -1.5470
  641SOL    HW2 5516   5.053   6.288   3.099  1.8062  1.2019  0.4988
  642SOL     OW 5517   0.690   2.927   0.913 -0.3416 -0.6012  0.3145
  642SOL    HW1 5518   0.730   2.840   0.915 -0.6101 -0.7136  1.3648
  642SOL    HW2 5519   0.758   2.984   0.876 -0.1647 -1.2454 -0.3830
  643SOL     OW 5520   4.511   4.861   0.256  0.5010  0.3414 -0.0146
  643SOL    HW1 5521   4.460   4.860   0.176  0.6275  2.5205 -0.1813
  643SOL    HW2 5522   4.486   4.781   0.302 -2.8935  1.1518 -0.2002
  644SOL     OW 5523   9.199   9.072   2.022  0.3376  0.0118  0.6634
  644SOL    HW1 5524   9.244   8.997   2.062 -2.2227 -1.9380  0.1854
  644SOL    HW2 5525   9.134   9.097   2.087 -1.2544 -0.6342 -0.6094
  645SOL     OW 5526   6.139   7.060   9.053 -0.0610  0.2278 -0.0986
  645SOL    HW1 5527   6.065   7.119   9.046 -1.0165 -0.8855  0.3219
  645SOL    HW2 5528   6.116   7.000   9.123  0.9778 -0.5086 -0.3556
  646SOL     OW 5529   1.269   1.035   5.010 -0.1244 -0.5255 -0.6449
  646SOL    HW1 5530   1.303   1.008   5.095 -0.4966  0.7298 -0.0781
  646SOL    HW2 5531   1.346   1.035   4.953  0.6005  0.8877  0.2657
  647SOL     OW 5532   2.821   2.431   5.134 -0.1281  0.0820 -0.0330
  647SOL    HW1 5533   2.835   2.416   5.041  0.0391 -0.0428  0.0130
  647SOL    HW2 5534   2.741   2.383   5.155 -0.6581  0.8151 -0.2999
  648SOL     OW 5535   4.410   6.728   9.112  0.7531 -0.7077 -0.1150
  648SOL    HW1 5536   4.493   6.740   9.158  0.8588  2.2884 -0.8598
  648SOL    HW2 5537   4.365   6.812   9.121 -2.0952 -2.1144 -0.0268
  649SOL     OW 5538   9.873   2.600   1.760  0.1957  0.1077 -0.4778
  649SOL    HW1 5539   9.943   2.654   1.724  1.3713 -0.5629  0.7362
  649SOL    HW2 5540   9.792   2.646   1.736  1.1163  1.9280 -0.2313
  650SOL     OW 5541  11.013   1.560   3.293 -0.7157 -0.6302  0.0203
  650SOL    HW1 5542  10.929   1.578   3.336 -1.7274 -0.5957 -1.8587
  650SOL    HW2 5543  11.061   1.642   3.298  0.3660 -1.3052  3.3559
  651SOL     OW 5544   4.022  10.030   7.543  0.1928  0.0579 -0.1316
  651SOL    HW1 5545   4.092  10.063   7.600 -0.2434  1.7800 -0.5355
  651SOL    HW2 5546   4.012  10.097   7.476 -1.0011 -0.7632 -0.8117
  652SOL     OW 5547   6.400   1.677   0.039  0.2861  0.0103  0.1130
  652SOL    HW1 5548   6.366   1.701   0.125  0.7807  1.3599 -0.0497
  652SOL    HW2 5549   6.337   1.714  -0.023 -0.1229 -1.0440 -0.1211
  653SOL     OW 5550   8.385   5.392   6.844  0.3769 -0.3021  0.2093
  653SOL    HW1 5551   8.293   5.385   6.869  0.2128  0.6737 -0.0876
  653SOL    HW2 5552   8.417   5.302   6.846 -1.1788 -0.9997 -1.9445
  654SOL     OW 5553  10.084   7.441   2.066  0.2615 -0.0596 -0.0551
  654SOL    HW1 5554   9.993   7.466   2.053 -0.0930 -0.4131  1.5475
  654SOL    HW2 5555  10.083   7.345   2.067  0.0510 -0.1312  3.2742
  655SOL     OW 5556   9.250   9.541   0.038  0.7038  0.2659  0.1609
  655SOL    HW1 5557   9.221   9.539   0.129  0.1293 -0.9322 -0.0303
  655SOL    HW2 5558   9.299   9.460   0.026 -0.2636 -0.1873 -0.9180
  656SOL     OW 5559   9.302   8.098   1.161  0.3457  0.7493  0.0150
  656SOL    HW1 5560   9.306   8.172   1.221  0.1487  0.5332  0.2988
  656SOL    HW2 5561   9.232   8.042   1.196  0.5825  0.3639 -0.1170
  657SOL     OW 5562   2.531   9.829   6.410 -0.4959  0.7423  0.2177
  657SOL    HW1 5563   2.509   9.920   6.429 -0.6114  0.5838  0.8686
  657SOL    HW2 5564   2.447   9.788   6.390 -0.2624  1.1444 -1.7172
  658SOL     OW 5565   7.054   8.333   1.825 -0.0450  0.2305  0.5525
  658SOL    HW1 5566   7.000   8.379   1.760  0.6293  0.3209  0.0420
  658SOL    HW2 5567   7.092   8.259   1.776  2.1156  1.4577  0.2493
  659SOL     OW 5568   8.439   7.172  10.730  0.2928  0.4339  0.1786
  659SOL    HW1 5569   8.410   7.118  10.803  0.7158 -1.9041 -1.2727
  659SOL    HW2 5570   8.362   7.179  10.674  0.8874 -0.8826 -0.8629
  660SOL     OW 5571   2.614  10.415   0.155 -0.3044 -0.1914  0.2528
  660SOL    HW1 5572   2.683  10.481   0.168 -1.4797  1.2799 -0.6978
  660SOL    HW2 5573   2.539  10.449   0.203 -0.8291 -1.0621  0.0696
  661SOL     OW 5574   3.932  10.918   4.655  0.1213  0.4285  0.0614
  661SOL    HW1 5575   4.025  10.904   4.633  0.4917  0.6113  1.4230
  661SOL    HW2 5576   3.910  10.846   4.714 -1.3189 -0.9827 -2.0386
  662SOL     OW 5577   2.046   5.780   1.908 -0.3282 -0.0879 -0.0272
  662SOL    HW1 5578   1.989   5.814   1.839 -0.1902  1.6544  0.6476
  662SOL    HW2 5579   2.117   5.844   1.913 -0.2475 -0.2555  1.5854
  663SOL     OW 5580   8.821  10.728   5.972  0.1494  0.1980  0.0501
  663SOL    HW1 5581   8.861  10.738   6.058 -1.9391  1.6984  0.9323
  663SOL    HW2 5582   8.728  10.714   5.989 -0.0782 -1.3225 -1.9496
  664SOL     OW 5583   9.174   2.365   8.049 -0.0146  0.1916 -0.1155
  664SOL    HW1 5584   9.264   2.397   8.043 -0.4312  1.2546 -1.0464
  664SOL    HW2 5585   9.176   2.300   8.119  1.5320  0.0023 -0.3021
  665SOL     OW 5586  10.460   4.621   3.151 -0.1725 -0.1468  0.0112
  665SOL    HW1 5587  10.541   4.574   3.170 -0.3917 -0.0503  1.2690
  665SOL    HW2 5588  10.445   4.676   3.228 -1.4793 -0.2229 -0.1628
  666SOL     OW 5589   9.372   9.750   7.590  0.1284 -0.4280  0.3187
  666SOL    HW1 5590   9.340   9.828   7.636  0.9257 -1.2641  2.4518
  666SOL    HW2 5591   9.307   9.734   7.522 -0.2802  1.8275  0.1034
  667SOL     OW 5592   3.458   7.615   7.446 -0.5191 -0.1265 -0.1699
  667SOL    HW1 5593   3.551   7.595   7.454 -0.1028  2.3264  2.9672
  667SOL    HW2 5594   3.448   7.649   7.357  1.4858 -0.6242 -0.6352
  668SOL     OW 5595   9.424   4.321   4.609 -0.3506 -0.0867  0.0406
  668SOL    HW1 5596   9.445   4.381   4.680 -1.4184  0.2412  0.1013
  668SOL    HW2 5597   9.385   4.245   4.652 -0.4709 -0.1313 -0.1455
  669SOL     OW 5598   3.414   0.762   4.061 -0.1991 -0.0211  0.0965
  669SOL    HW1 5599   3.340   0.703   4.072 -1.6795  1.7175 -0.1897
  669SOL    HW2 5600   3.409   0.822   4.135 -0.1408  1.2148 -0.8796
  670SOL     OW 5601   6.511   8.763   7.863  0.4495 -0.2146  0.1692
  670SOL    HW1 5602   6.587   8.774   7.805  1.6931  0.4192  1.8239
  670SOL    HW2 5603   6.513   8.671   7.888  0.3892 -0.3084 -0.1712
  671SOL     OW 5604   5.348   9.176   4.415 -0.4605 -0.0394 -0.1208
  671SOL    HW1 5605   5.424   9.135   4.457 -0.9183  1.7869  2.7683
  671SOL    HW2 5606   5.324   9.115   4.345  3.3425 -0.8914 -0.8998
  672SOL     OW 5607   4.488   7.830   2.107  0.7886  1.2759 -0.4078
  672SOL    HW1 5608   4.488   7.864   2.197 -2.3174  2.2660 -0.6458
  672SOL    HW2 5609   4.512   7.905   2.053  2.6462  0.6830 -0.4716
  673SOL     OW 5610   7.222   7.691   5.802  0.0093 -0.3191  0.0587
  673SOL    HW1 5611   7.221   7.748   5.725  0.8677 -0.4522 -0.0632
  673SOL    HW2 5612   7.214   7.751   5.876  1.0980 -0.0053 -0.0591
  674SOL     OW 5613   3.142   8.147  10.669 -0.1195 -0.4022 -0.8913
  674SOL    HW1 5614   3.101   8.226  10.704  1.2373  0.1584 -0.5272
  674SOL    HW2 5615   3.175   8.174  10.583  1.2381 -0.2685 -0.3449
  675SOL     OW 5616   5.255   6.693  10.432 -0.3287 -0.4568  0.2882
  675SOL    HW1 5617   5.161   6.674  10.438 -0.6114  1.1939  1.6429
  675SOL    HW2 5618   5.284   6.702  10.523  0.6947  1.1033 -0.1540
  676SOL     OW 5619   1.712   7.775   6.939 -0.5446  0.3348  0.2128
  676SOL    HW1 5620   1.739   7.822   7.017 -1.6637  0.0454  0.7849
  676SOL    HW2 5621   1.719   7.839   6.868  0.1566  0.6876  0.5950
  677SOL     OW 5622   4.157   3.991   8.789 -0.2057 -0.3966 -0.1096
  677SOL    HW1 5623   4.239   3.951   8.759  0.2328  1.1186 -1.0378
  677SOL    HW2 5624   4.181   4.035   8.871 -0.0992 -0.0239 -0.3383
  678SOL     OW 5625   0.085   4.475   0.610  0.6386 -0.1105  1.0630
  678SOL    HW1 5626   0.082   4.537   0.683 -3.4200 -1.0484  1.9070
  678SOL    HW2 5627   0.101   4.531   0.533  0.2635  1.5574  2.1365
  679SOL     OW 5628   1.774   1.681   7.569  0.2841 -0.1596  0.3477
  679SOL    HW1 5629   1.752   1.629   7.492 -1.8480  1.8777 -0.5754
  679SOL    HW2 5630   1.779   1.771   7.536  1.2343  0.5465  2.2751
  680SOL     OW 5631   4.268   6.059  10.641 -0.5900  0.0222 -0.3046
  680SOL    HW1 5632   4.310   6.010  10.713 -2.1481 -0.5867  0.2540
  680SOL    HW2 5633   4.340   6.103  10.596  0.4897  0.0783  1.3797
  681SOL     OW 5634   5.866   6.632   8.411 -0.6471  0.5128  0.0596
  681SOL    HW1 5635   5.962   6.621   8.411 -0.6206  0.7211  0.5144
  681SOL    HW2 5636   5.835   6.569   8.476 -0.9611 -0.6590 -1.1929
  682SOL     OW 5637   5.063   1.692   4.910  0.3375 -0.1324 -0.2272
  682SOL    HW1 5638   5.007   1.701   4.987  0.2109  0.6666 -0.4069
  682SOL    HW2 5639   5.121   1.618   4.931 -2.2977 -2.5896 -0.9815
  683SOL     OW 5640   2.760   0.918   4.117  0.5747 -0.4836 -0.0741
  683SOL    HW1 5641   2.802   0.941   4.200  1.5931  1.1417 -0.9828
  683SOL    HW2 5642   2.763   0.822   4.115  1.0575 -0.5298  1.4962
  684SOL     OW 5643   4.343   5.867   0.548 -0.0914 -0.3643 -0.1834
  684SOL    HW1 5644   4.428   5.912   0.544 -0.7945  1.2480  1.6040
  684SOL    HW2 5645   4.363   5.777   0.522  2.0480  0.1143 -0.4240
  685SOL     OW 5646   7.205   5.127  10.394  0.2015  0.1509  0.1752
  685SOL    HW1 5647   7.294   5.136  10.360  0.0626  0.1516 -0.1904
  685SOL    HW2 5648   7.193   5.203  10.451  0.3905  0.2173  0.1250
  686SOL     OW 5649   8.138   0.013   1.665  0.2465  0.4814 -0.0096
  686SOL    HW1 5650   8.144  -0.077   1.696 -1.5062  0.4470  0.2992
  686SOL    HW2 5651   8.225   0.032   1.630  1.0607 -0.8573  1.1788
  687SOL     OW 5652   1.637   4.971   2.876 -0.3399 -0.1402  0.1536
  687SOL    HW1 5653   1.715   5.024   2.894 -0.5945 -0.1763  1.4224
  687SOL    HW2 5654   1.573   5.000   2.941 -0.5847 -1.8137  0.6952
  688SOL     OW 5655   1.767  10.398  11.092 -0.3087 -0.1866 -0.3572
  688SOL    HW1 5656   1.845  10.343  11.088 -0.8848 -1.2084  1.4973
  688SOL    HW2 5657   1.767  10.435  11.181 -2.2359 -0.6974 -0.0888
  689SOL     OW 5658   4.419   2.994   5.856  0.0599  0.2019  0.1426
  689SOL    HW1 5659   4.502   2.976   5.813  0.5663  1.0341  0.7386
  689SOL    HW2 5660   4.432   3.079   5.899 -0.5074 -0.4581  1.6970
  690SOL     OW 5661   8.858   3.690   4.694  0.6955  0.6660  0.3368
  690SOL    HW1 5662   8.772   3.651   4.678  0.5605  1.4008 -0.8029
  690SOL    HW2 5663   8.842   3.753   4.764 -0.0451  1.8967 -0.8866
  691SOL     OW 5664   4.677   5.538   0.653  0.0620 -0.2322 -0.3539
  691SOL    HW1 5665   4.618   5.582   0.714 -0.5560  1.2617 -1.9469
  691SOL    HW2 5666   4.762   5.538   0.698 -0.8593 -1.4860  1.5270
  692SOL     OW 5667   4.786   9.047   1.743 -0.4269 -0.6147 -0.5317
  692SOL    HW1 5668   4.844   9.123   1.744 -0.6109 -0.4655  1.3493
  692SOL    HW2 5669   4.700   9.082   1.718 -0.2999 -0.3762 -0.6352
  693SOL     OW 5670   3.809   3.106   2.622 -0.1216  0.3122  0.0802
  693SOL    HW1 5671   3.854   3.038   2.572  3.5900  2.8360 -0.4556
  693SOL    HW2 5672   3.787   3.172   2.557 -1.7074  0.5899  0.8607
  694SOL     OW 5673   4.280   9.184   5.208 -0.2324 -0.4046  0.3614
  694SOL    HW1 5674   4.207   9.194   5.147  0.3344 -0.0606 -0.2759
  694SOL    HW2 5675   4.282   9.265   5.258  0.4617  0.1054 -0.4679
  695SOL     OW 5676   4.244   0.692   0.069 -0.2409  0.5862 -0.2247
  695SOL    HW1 5677   4.165   0.651   0.033  0.8170 -1.5166 -0.3360
  695SOL    HW2 5678   4.314   0.660   0.012  0.8612  1.1843  0.7725
  696SOL     OW 5679   7.842   2.798   2.729 -0.5456 -0.1980  0.0132
  696SOL    HW1 5680   7.796   2.868   2.682  0.0206 -0.1259 -0.4480
  696SOL    HW2 5681   7.818   2.810   2.820  1.4707  2.1415  0.3207
  697SOL     OW 5682   0.046   9.898   6.655 -0.4316  0.5053  0.0959
  697SOL    HW1 5683   0.083   9.884   6.743 -1.5049  0.8628  0.6249
  697SOL    HW2 5684  -0.032   9.951   6.671 -1.2524 -0.3649 -0.9781
  698SOL     OW 5685   0.145   3.429   6.749  0.0371 -0.2881 -0.2300
  698SOL    HW1 5686   0.192   3.478   6.816  0.4549  0.3044 -0.9435
  698SOL    HW2 5687   0.052   3.446   6.767  0.1426 -0.1923  0.2354
  699SOL     OW 5688   2.389   4.930   5.120  0.5097 -0.0465  0.5102
  699SOL    HW1 5689   2.360   4.932   5.211  1.5011  1.6670  0.8256
  699SOL    HW2 5690   2.365   5.016   5.085 -0.8691 -1.0431 -1.2110
  700SOL     OW 5691   9.868   5.884   9.887 -0.1438  0.4730  0.2396
  700SOL    HW1 5692   9.904   5.973   9.881  0.8703 -0.0018 -1.4678
  700SOL    HW2 5693   9.784   5.890   9.840 -0.6790  0.7925  1.2146
  701SOL     OW 5694   2.043   9.416   6.301 -0.1867  0.6632 -0.6770
  701SOL    HW1 5695   2.027   9.325   6.276  1.8470  0.1588 -0.3564
  701SOL    HW2 5696   2.031   9.466   6.220  2.3800 -0.4302 -1.8449
  702SOL     OW 5697   4.969   6.450   2.468 -0.2180  0.4109 -0.0368
  702SOL    HW1 5698   5.040   6.513   2.482 -0.2388  0.3264  0.4918
  702SOL    HW2 5699   5.010   6.379   2.419  0.4786 -0.3397  1.5475
  703SOL     OW 5700   3.985   8.447   8.085 -0.4957 -0.2031  0.3766
  703SOL    HW1 5701   4.070   8.427   8.046 -0.8212 -2.2478  0.6243
  703SOL    HW2 5702   3.925   8.456   8.011 -0.4865 -0.9333  0.2784
  704SOL     OW 5703   4.789   4.854   8.938  0.2249  0.2485  0.3620
  704SOL    HW1 5704   4.827   4.912   9.004  0.6853 -1.0956  1.3330
  704SOL    HW2 5705   4.708   4.897   8.912  1.0116  1.7835  0.3418
  705SOL     OW 5706  10.594   8.913   1.378  0.0842  0.2112 -0.3202
  705SOL    HW1 5707  10.679   8.868   1.386 -0.0194 -0.4615 -2.5213
  705SOL    HW2 5708  10.576   8.944   1.467  1.7532 -1.2267  0.5966
  706SOL     OW 5709   4.565   0.038  10.635 -0.0263 -0.0805  0.5877
  706SOL    HW1 5710   4.620   0.000  10.567  0.1059  1.3431 -0.1351
  706SOL    HW2 5711   4.510   0.102  10.589 -1.0133 -0.1917  1.5780
  707SOL     OW 5712   2.965   1.563   4.572 -0.7060  0.6520  0.1285
  707SOL    HW1 5713   2.879   1.605   4.563 -1.0952 -0.3932 -1.6652
  707SOL    HW2 5714   2.997   1.556   4.482  1.0149  0.4959  0.7206
  708SOL     OW 5715   0.197  10.832   0.820 -0.1927  0.3517  0.2288
  708SOL    HW1 5716   0.242  10.796   0.744 -0.1106  0.6472  0.1350
  708SOL    HW2 5717   0.196  10.760   0.884  0.7142  0.4355  0.3583
  709SOL     OW 5718   7.779   0.578   9.076  0.3544  0.1458  0.4921
  709SOL    HW1 5719   7.831   0.499   9.088 -0.2532 -0.1295  1.4216
  709SOL    HW2 5720   7.806   0.636   9.147  1.0263  0.9197 -0.3661
  710SOL     OW 5721   5.210   3.962   7.396  0.4588  0.0339 -0.3296
  710SOL    HW1 5722   5.167   3.889   7.439 -2.2124  1.4881 -0.3066
  710SOL    HW2 5723   5.297   3.965   7.435 -0.1045 -1.7869  1.2181
  711SOL     OW 5724   1.946   4.687  10.683 -0.1563 -0.2279  0.0746
  711SOL    HW1 5725   1.915   4.665  10.596 -1.7328 -1.8608  0.9874
  711SOL    HW2 5726   2.039   4.662  10.682 -0.0718  0.0679 -1.2080
  712SOL     OW 5727   6.697   0.656   8.998 -0.3443  0.1891 -0.0791
  712SOL    HW1 5728   6.692   0.748   9.024 -1.5388  0.0903  0.1069
  712SOL    HW2 5729   6.733   0.611   9.075 -1.6653  0.2303  0.5836
  713SOL     OW 5730   5.436   2.459   9.959 -0.2715 -0.3943 -0.0843
  713SOL    HW1 5731   5.389   2.541   9.977 -0.2212 -0.2542 -0.5752
  713SOL    HW2 5732   5.515   2.464  10.014 -1.1259 -0.9190  1.2402
  714SOL     OW 5733   9.383   6.413   1.118  0.0659 -0.2592  0.4859
  714SOL    HW1 5734   9.361   6.499   1.084 -0.5130 -0.4159  0.4566
  714SOL    HW2 5735   9.313   6.356   1.086  0.9625 -0.9394 -0.3269
  715SOL     OW 5736   8.896   7.007   1.320 -0.0389  0.1872  0.3516
  715SOL    HW1 5737   8.881   7.096   1.352 -1.0316  0.3247 -0.4484
  715SOL    HW2 5738   8.942   6.964   1.391 -0.4373  1.0521  1.1572
  716SOL     OW 5739   3.860   7.325  10.648  0.0372  0.3890  0.2837
  716SOL    HW1 5740   3.832   7.233  10.649  2.6485 -0.4740  1.2209
  716SOL    HW2 5741   3.809   7.364  10.577 -0.5606 -1.9688 -0.6957
  717SOL     OW 5742   4.905  10.743   1.976 -0.3079 -0.4290  0.4458
  717SOL    HW1 5743   4.965  10.687   2.025 -1.5430 -1.9046  0.3690
  717SOL    HW2 5744   4.872  10.805   2.041  1.6072  0.7440  0.3793
  718SOL     OW 5745   4.611   3.442  10.597  0.1383 -0.2114 -0.6918
  718SOL    HW1 5746   4.583   3.534  10.591  1.6885  0.1804 -2.9315
  718SOL    HW2 5747   4.601   3.408  10.508  1.5251 -1.6368 -0.3398
  719SOL     OW 5748   1.300   8.811   9.563  0.3006 -0.1698  0.1810
  719SOL    HW1 5749   1.211   8.834   9.591 -0.7760 -0.1202 -2.8663
  719SOL    HW2 5750   1.334   8.891   9.525  0.5739 -0.8813 -1.1148
  720SOL     OW 5751   6.500   6.870   2.542 -0.1634  0.5391 -0.0807
  720SOL    HW1 5752   6.486   6.802   2.609  1.2710 -0.2259 -0.5249
  720SOL    HW2 5753   6.575   6.919   2.573  0.4908  0.2039 -1.0962
  721SOL     OW 5754   1.790   6.774   2.846 -0.3818  0.4020 -0.5393
  721SOL    HW1 5755   1.752   6.733   2.924  0.2402  0.6741 -0.0857
  721SOL    HW2 5756   1.861   6.715   2.820 -0.7498  0.1823 -1.0525
  722SOL     OW 5757   0.947   9.520   6.881  0.0961  0.1600 -0.6281
  722SOL    HW1 5758   0.889   9.504   6.955  0.0849  1.1949 -0.3921
  722SOL    HW2 5759   1.003   9.443   6.878 -2.1776 -1.5522 -1.7546
  723SOL     OW 5760   3.158   1.349   8.746 -0.0499  0.0274 -0.2507
  723SOL    HW1 5761   3.214   1.352   8.669  1.3547  1.0886  0.7671
  723SOL    HW2 5762   3.154   1.256   8.768  0.4926 -0.1696 -0.9276
  724SOL     OW 5763  10.579  10.915   6.225 -0.0137  0.3531  0.2481
  724SOL    HW1 5764  10.499  10.916   6.173 -0.3111  0.2478  0.6971
  724SOL    HW2 5765  10.575  10.832   6.274  1.6422 -0.9346 -1.6600
  725SOL     OW 5766   7.239   7.792   1.623 -0.1955 -0.1315 -0.6576
  725SOL    HW1 5767   7.287   7.825   1.547 -0.9243 -1.1034 -1.5889
  725SOL    HW2 5768   7.148   7.812   1.604 -0.3509 -0.0015  0.1838
  726SOL     OW 5769   4.542   1.117   1.844  0.0544  0.1630  0.4148
  726SOL    HW1 5770   4.584   1.119   1.930  1.4734 -0.0860 -0.2504
  726SOL    HW2 5771   4.606   1.074   1.787 -0.4936  1.1166 -0.9670
  727SOL     OW 5772   5.102   7.938   2.615  0.1409  0.3398  0.2953
  727SOL    HW1 5773   5.086   7.875   2.685  2.1144  0.6265  1.0774
  727SOL    HW2 5774   5.023   7.991   2.611 -0.7212 -0.8455  1.0594
  728SOL     OW 5775  11.059   1.270   7.801  0.1437 -0.0306  0.3041
  728SOL    HW1 5776  11.096   1.274   7.889 -0.8927 -1.4371  0.8418
  728SOL    HW2 5777  10.969   1.301   7.812  0.4317  1.1766 -0.5564
  729SOL     OW 5778   3.370   6.185   4.902 -0.0668 -0.0257  0.1348
  729SOL    HW1 5779   3.410   6.203   4.816  0.7500 -1.8363  0.0951
  729SOL    HW2 5780   3.445   6.169   4.960 -0.5947 -3.7901 -0.0038
  730SOL     OW 5781   7.101   9.029   2.044  0.8650  0.8198  0.0795
  730SOL    HW1 5782   7.023   9.007   2.094  1.4985  0.2413  0.8420
  730SOL    HW2 5783   7.157   8.952   2.051  1.1130  0.8379 -1.2804
  731SOL     OW 5784   5.362   1.292   3.148 -0.2641  0.1646  0.1674
  731SOL    HW1 5785   5.284   1.256   3.107 -0.6498  2.0088 -0.8206
  731SOL    HW2 5786   5.359   1.385   3.127  1.1392  0.6354  1.8453
  732SOL     OW 5787   6.638   5.172   4.539  0.3435  0.9314 -0.0225
  732SOL    HW1 5788   6.583   5.135   4.470 -0.1496  2.4530 -0.4858
  732SOL    HW2 5789   6.698   5.102   4.563 -0.4013 -0.0704 -1.0196
  733SOL     OW 5790   5.366   6.422  10.379  0.4360 -0.4540  0.3001
  733SOL    HW1 5791   5.295   6.390  10.323  2.2729 -1.1392 -1.7790
  733SOL    HW2 5792   5.324   6.486  10.437 -1.6451  0.1087 -1.6929
  734SOL     OW 5793   6.301   5.119   3.834  0.1832  0.3970  0.6530
  734SOL    HW1 5794   6.392   5.143   3.851  0.4495 -1.2168  1.7355
  734SOL    HW2 5795   6.263   5.197   3.794  2.2354  0.8557 -0.5688
  735SOL     OW 5796   3.956  10.226   3.630  0.7099 -0.0512 -0.3523
  735SOL    HW1 5797   3.985  10.229   3.721 -0.8969  1.8159  0.1623
  735SOL    HW2 5798   3.926  10.135   3.617 -0.2334 -0.0347  1.4041
  736SOL     OW 5799   8.335   2.519   1.309  0.3782 -0.0421  0.5082
  736SOL    HW1 5800   8.425   2.546   1.292 -0.1059  2.1533  1.1177
  736SOL    HW2 5801   8.328   2.518   1.405 -0.4965  0.8136  0.4697
  737SOL     OW 5802   2.584   5.786   3.778  0.1551  0.2100 -0.2587
  737SOL    HW1 5803   2.648   5.804   3.709  1.1825 -0.1553  0.5693
  737SOL    HW2 5804   2.503   5.826   3.747  0.3512 -0.7091 -2.0860
  738SOL     OW 5805   9.110   5.429   8.187  0.0460 -0.0315  0.0799
  738SOL    HW1 5806   9.178   5.483   8.147  1.2096 -1.2502  0.3563
  738SOL    HW2 5807   9.095   5.469   8.273 -1.9073  2.1276 -1.1335
  739SOL     OW 5808   6.273   1.739   8.356 -0.3055  0.4980  0.1267
  739SOL    HW1 5809   6.227   1.738   8.272  2.3060 -2.9214 -1.5343
  739SOL    HW2 5810   6.263   1.650   8.390  1.5873  0.8040  1.7082
  740SOL     OW 5811   3.403   6.488   6.659  0.5512 -0.1459 -0.0297
  740SOL    HW1 5812   3.318   6.449   6.642  1.1729 -0.9208 -1.6510
  740SOL    HW2 5813   3.464   6.414   6.662  1.3007  0.4569  0.0738
  741SOL     OW 5814   8.075   8.614   7.564 -0.4157  0.4421  0.3909
  741SOL    HW1 5815   8.079   8.520   7.547 -2.0515  0.2604  0.7643
  741SOL    HW2 5816   8.033   8.620   7.650  0.8813  1.4980  0.9787
  742SOL     OW 5817   1.535   2.395   8.720 -0.0096 -0.1229 -0.5204
  742SOL    HW1 5818   1.601   2.327   8.734  1.3463  0.8234 -1.8710
  742SOL    HW2 5819   1.519   2.393   8.625 -0.4909  0.9194 -0.4792
  743SOL     OW 5820   2.077   9.942   1.823 -0.2013  0.1158  0.3033
  743SOL    HW1 5821   2.138   9.910   1.757 -1.4676  0.1255 -0.9089
  743SOL    HW2 5822   2.125   9.936   1.906  0.7580 -1.6994 -0.3424
  744SOL     OW 5823   3.826   6.144   1.315  0.4036  0.2588  0.5075
  744SOL    HW1 5824   3.769   6.080   1.271 -1.6794  3.9861 -2.9318
  744SOL    HW2 5825   3.906   6.144   1.263 -0.1025  1.1775 -0.3231
  745SOL     OW 5826   9.680   0.882   5.339 -0.0998 -0.5350 -0.7468
  745SOL    HW1 5827   9.605   0.915   5.389 -0.2332 -0.1828 -1.1687
  745SOL    HW2 5828   9.706   0.956   5.284  0.3519 -0.7627 -0.8403
  746SOL     OW 5829  10.937   7.048   8.997 -0.2373 -0.0198  0.1096
  746SOL    HW1 5830  10.933   7.143   9.010  1.9239  0.2512 -0.8181
  746SOL    HW2 5831  11.018   7.034   8.949  0.1482 -2.4809  1.3345
  747SOL     OW 5832   5.609   7.922   5.332 -0.1385 -0.3122  0.2372
  747SOL    HW1 5833   5.534   7.867   5.354 -0.4831  0.6723  1.5974
  747SOL    HW2 5834   5.647   7.947   5.416  1.5441 -0.5341 -0.4182
  748SOL     OW 5835   1.473   6.826   0.771 -0.7334  0.6417 -0.3503
  748SOL    HW1 5836   1.523   6.906   0.787 -1.4434  0.8694  0.9099
  748SOL    HW2 5837   1.390   6.856   0.736 -1.1332  0.4961  0.4480
  749SOL     OW 5838   5.420   4.466   1.870 -0.1506  0.4137  0.5990
  749SOL    HW1 5839   5.373   4.475   1.787 -0.2870  2.5912  0.8620
  749SOL    HW2 5840   5.433   4.371   1.880 -2.1191 -0.0550 -0.7685
  750SOL     OW 5841   2.115   7.007  10.578 -0.1174 -0.0133  0.3331
  750SOL    HW1 5842   2.197   7.055  10.568  0.6407 -1.1047  1.0184
  750SOL    HW2 5843   2.048   7.074  10.588  0.7464  0.8942  0.1211
  751SOL     OW 5844   4.116   2.191   5.824 -0.5781 -0.3598 -0.4385
  751SOL    HW1 5845   4.094   2.156   5.738 -0.2813 -0.7639 -0.3555
  751SOL    HW2 5846   4.189   2.136   5.854 -0.2923  0.1531 -0.1842
  752SOL     OW 5847   9.306   3.074   0.163  0.2114  0.7611 -1.0124
  752SOL    HW1 5848   9.274   2.989   0.134  0.0070  0.3959  0.2624
  752SOL    HW2 5849   9.250   3.098   0.237 -0.3361  2.4346 -1.9035
  753SOL     OW 5850  10.019   6.565   2.170 -0.1211 -0.4448 -0.2376
  753SOL    HW1 5851  10.057   6.510   2.239  2.3335  0.6255 -0.6221
  753SOL    HW2 5852   9.942   6.605   2.211  0.7836 -0.5014  1.6344
  754SOL     OW 5853   6.181  10.607   4.459 -0.2889  0.4899  0.3088
  754SOL    HW1 5854   6.187  10.543   4.388  0.6639 -0.0759  0.8722
  754SOL    HW2 5855   6.239  10.572   4.528  1.0017  2.4009  0.2803
  755SOL     OW 5856   7.332   9.245   3.342  0.1621 -0.3573 -0.2661
  755SOL    HW1 5857   7.308   9.254   3.250  1.2004 -0.0960 -0.5169
  755SOL    HW2 5858   7.254   9.207   3.383 -0.5923  0.2374 -1.1032
  756SOL     OW 5859   3.004   4.878   8.353 -0.5761  0.0524 -0.2534
  756SOL    HW1 5860   2.981   4.882   8.260 -0.3408  0.4510 -0.2971
  756SOL    HW2 5861   3.037   4.789   8.366 -0.7171 -0.0407 -0.5254
  757SOL     OW 5862   0.008   2.521   3.043  0.0452 -0.0140 -0.1284
  757SOL    HW1 5863  -0.037   2.444   3.080 -0.7481  1.8118  3.0791
  757SOL    HW2 5864   0.101   2.501   3.055 -0.1100 -0.8843 -0.2599
  758SOL     OW 5865   2.875   4.411   8.796  0.0326  0.0436 -0.1792
  758SOL    HW1 5866   2.853   4.439   8.707  2.5858 -2.7315 -1.8796
  758SOL    HW2 5867   2.829   4.328   8.807  1.4924 -0.7499  0.1610
  759SOL     OW 5868   0.315   9.886   5.264 -0.5025  0.2328 -0.1889
  759SOL    HW1 5869   0.389   9.826   5.267  1.6159  2.6415 -0.9402
  759SOL    HW2 5870   0.323   9.939   5.344 -1.3055  0.6330 -0.3595
  760SOL     OW 5871   3.192  10.499   1.615  0.1483 -0.5561  0.1409
  760SOL    HW1 5872   3.273  10.547   1.633  0.3795 -1.2399  0.9980
  760SOL    HW2 5873   3.196  10.480   1.521 -0.3908  1.8500 -0.4228
  761SOL     OW 5874   9.153   1.213   2.734  0.3311  0.5874  0.4016
  761SOL    HW1 5875   9.207   1.151   2.783  0.8370  1.3557  0.8441
  761SOL    HW2 5876   9.086   1.242   2.797 -0.2654  0.0653  0.0234
  762SOL     OW 5877   3.205   1.549   3.995  0.5939 -0.5584 -0.1876
  762SOL    HW1 5878   3.165   1.624   3.951  1.4596  0.0216  0.0038
  762SOL    HW2 5879   3.135   1.483   3.997 -0.6475  0.7298  0.9329
  763SOL     OW 5880   3.005   5.787   7.575 -0.0179 -0.0380 -0.1199
  763SOL    HW1 5881   3.002   5.882   7.561  1.7586 -0.0587 -0.9400
  763SOL    HW2 5882   3.061   5.776   7.651  1.0253 -0.4763 -0.9381
  764SOL     OW 5883  10.399   2.041   6.740 -0.0192  0.6624  0.5844
  764SOL    HW1 5884  10.413   2.132   6.716  1.3084  0.4711  0.5488
  764SOL    HW2 5885  10.467   1.993   6.693 -0.4694 -0.3053  0.8888
  765SOL     OW 5886   4.829   1.647   6.577  0.0777 -0.6128  0.3257
  765SOL    HW1 5887   4.779   1.587   6.631  0.7476 -1.4526  0.0415
  765SOL    HW2 5888   4.883   1.696   6.639  1.3779 -2.0739  0.4044
  766SOL     OW 5889   9.610   9.142   6.794  0.6227 -0.0220 -0.0412
  766SOL    HW1 5890   9.672   9.124   6.865  1.8409 -0.3577 -1.1483
  766SOL    HW2 5891   9.612   9.237   6.785 -0.0637  0.0878  0.8078
  767SOL     OW 5892   4.243   1.019   5.603 -0.0849 -0.3534  0.4978
  767SOL    HW1 5893   4.320   1.012   5.660  0.3954  1.7063  0.1598
  767SOL    HW2 5894   4.277   1.001   5.515  0.0074  0.5206  0.3526
  768SOL     OW 5895   4.123   7.625   3.929  0.0632  0.0764 -0.1096
  768SOL    HW1 5896   4.088   7.574   4.003 -1.0346 -1.4926 -1.6123
  768SOL    HW2 5897   4.113   7.716   3.956 -0.8293 -0.4349  1.4445
  769SOL     OW 5898  10.990   4.919   4.708 -0.1163 -0.3197 -0.2266
  769SOL    HW1 5899  11.082   4.896   4.719  0.3713  0.8281 -1.5669
  769SOL    HW2 5900  10.990   5.014   4.697 -1.6321 -0.1231  1.1438
  770SOL     OW 5901   5.232   1.460   1.879  0.0043 -0.9133  0.1114
  770SOL    HW1 5902   5.267   1.549   1.872  0.4396 -1.1146 -0.3735
  770SOL    HW2 5903   5.152   1.461   1.826 -1.0002 -0.3325  1.5769
  771SOL     OW 5904   7.393   2.946   6.374  0.3013  0.3901  0.1897
  771SOL    HW1 5905   7.459   2.919   6.438  0.0270 -0.3508  0.1753
  771SOL    HW2 5906   7.439   2.947   6.290  0.0363 -1.2787 -0.0045
  772SOL     OW 5907   4.687   5.928  10.449  0.2335  0.0142  0.2271
  772SOL    HW1 5908   4.710   5.887  10.366 -2.4416  2.8896 -2.2280
  772SOL    HW2 5909   4.758   5.990  10.466  0.6473 -0.3717 -0.0902
  773SOL     OW 5910   7.304  10.867   7.274 -0.1115 -0.2968  0.4756
  773SOL    HW1 5911   7.378  10.914   7.314 -0.4119 -0.2660  1.0163
  773SOL    HW2 5912   7.331  10.775   7.275  0.9535 -0.0737 -1.6135
  774SOL     OW 5913   2.218   1.617   4.045  0.1850 -0.1760 -0.1945
  774SOL    HW1 5914   2.192   1.536   4.089  0.9871  0.3094  1.2628
  774SOL    HW2 5915   2.304   1.638   4.083  1.4854 -0.3133 -2.8533
  775SOL     OW 5916   2.782   4.237   2.027  0.1854 -0.2548  0.1119
  775SOL    HW1 5917   2.813   4.149   2.046 -1.5858 -1.1213 -0.7578
  775SOL    HW2 5918   2.794   4.285   2.109  1.3384 -1.2423  0.5412
  776SOL     OW 5919   0.077   4.069   5.354  0.2569  0.0944  0.4410
  776SOL    HW1 5920   0.092   4.008   5.283  1.6987  0.7586  0.1459
  776SOL    HW2 5921   0.061   4.153   5.311 -1.1083  0.0843  0.8576
  777SOL     OW 5922   4.609   0.417   3.953 -0.6651 -0.1266 -0.2313
  777SOL    HW1 5923   4.588   0.464   4.034 -0.3237 -2.9324  1.6085
  777SOL    HW2 5924   4.543   0.349   3.946  1.4272 -2.3091 -0.1734
  778SOL     OW 5925   4.075   4.351   6.217 -0.3483  0.7887  0.1928
  778SOL    HW1 5926   4.132   4.345   6.293 -1.8614 -1.2090  1.2669
  778SOL    HW2 5927   4.135   4.360   6.143  1.4497 -1.7138  1.1983
  779SOL     OW 5928   3.835   4.069   3.586  0.2227 -0.6789  0.1112
  779SOL    HW1 5929   3.930   4.060   3.596  0.0023 -1.0349  2.6572
  779SOL    HW2 5930   3.805   3.982   3.562  0.4623 -0.8056  0.2671
  780SOL     OW 5931   3.900   2.575  10.235  0.0201  0.7683  0.1323
  780SOL    HW1 5932   3.897   2.541  10.145  1.1597  1.7661 -0.3119
  780SOL    HW2 5933   3.993   2.587  10.253 -0.2646  2.2094  0.8053
  781SOL     OW 5934   2.085  10.923   7.149  0.0905  0.0983 -0.4026
  781SOL    HW1 5935   2.148  10.854   7.130 -0.4551 -0.0400 -1.8293
  781SOL    HW2 5936   2.002  10.877   7.160 -0.3041  0.5065 -1.5048
  782SOL     OW 5937   2.588   0.975   1.018 -0.5340 -0.5162 -0.0233
  782SOL    HW1 5938   2.554   0.936   0.937 -0.5567  1.0753 -0.8250
  782SOL    HW2 5939   2.683   0.962   1.012 -0.5419 -0.4674 -0.2841
  783SOL     OW 5940   7.131   3.013   0.936  0.2389  0.1436  0.4220
  783SOL    HW1 5941   7.089   3.096   0.912  0.5079  0.0193 -0.5120
  783SOL    HW2 5942   7.143   3.019   1.031  0.7484  1.4069  0.2979
  784SOL     OW 5943  10.342   8.077   1.477 -0.6201  0.1182 -0.0186
  784SOL    HW1 5944  10.346   7.984   1.454 -1.8274  0.0926 -0.1588
  784SOL    HW2 5945  10.370   8.123   1.398 -0.7753 -0.1054 -0.2041
  785SOL     OW 5946   7.508   2.134  10.971 -0.1343  0.2534 -0.3911
  785SOL    HW1 5947   7.560   2.215  10.968 -0.1453  0.3953  1.6520
  785SOL    HW2 5948   7.478   2.129  11.062  0.8491 -2.6687 -0.1482
  786SOL     OW 5949   5.720  10.433   1.137  0.0568 -0.2014  0.2373
  786SOL    HW1 5950   5.660  10.485   1.190  0.7970 -1.1893  2.1463
  786SOL    HW2 5951   5.760  10.496   1.077 -1.6704  0.7471  0.0090
  787SOL     OW 5952   3.338   3.382   9.565  0.5559  0.0301 -0.4263
  787SOL    HW1 5953   3.257   3.425   9.592  0.7877  0.3159 -0.1743
  787SOL    HW2 5954   3.389   3.451   9.523  0.6497 -0.1617 -0.6271
  788SOL     OW 5955   7.852   7.189   2.634  0.4541 -0.6279  0.4182
  788SOL    HW1 5956   7.917   7.218   2.698  0.5653 -0.9901  0.4704
  788SOL    HW2 5957   7.778   7.159   2.686  0.0031  0.3412  0.3460
  789SOL     OW 5958  10.362  11.064   2.226  0.0246  0.0833  0.5919
  789SOL    HW1 5959  10.448  11.022   2.235  0.3033  0.3779 -0.5367
  789SOL    HW2 5960  10.325  11.061   2.314  0.2925 -1.9574  0.6909
  790SOL     OW 5961   1.843   8.690   5.502  0.5392 -0.0308  0.5032
  790SOL    HW1 5962   1.837   8.778   5.538  0.8213 -0.7939  2.5753
  790SOL    HW2 5963   1.927   8.656   5.535 -0.1635 -1.5163  0.8576
  791SOL     OW 5964   0.512   5.322   3.337 -0.2211  0.4556 -0.0987
  791SOL    HW1 5965   0.536   5.280   3.255  2.0359 -1.7212  1.5415
  791SOL    HW2 5966   0.462   5.256   3.385 -1.9519  1.8688  0.1497
  792SOL     OW 5967   4.280   8.156   6.864 -0.1118 -0.3075 -0.1336
  792SOL    HW1 5968   4.195   8.152   6.909  0.0475  0.5379  0.2727
  792SOL    HW2 5969   4.338   8.103   6.918  0.2699  1.3265  1.1551
  793SOL     OW 5970   1.194   1.452   6.597 -0.0783  0.0348  0.4015
  793SOL    HW1 5971   1.118   1.489   6.552 -1.0291 -2.0899  0.1175
  793SOL    HW2 5972   1.156   1.394   6.663  1.2775 -1.1966  0.1417
  794SOL     OW 5973   1.319   8.596   4.213 -0.0688 -0.6195 -0.4354
  794SOL    HW1 5974   1.336   8.644   4.132 -0.2277  0.7710  0.3077
  794SOL    HW2 5975   1.232   8.624   4.239  1.5110  2.4387  2.3990
  795SOL     OW 5976   9.030   3.510   2.022  0.3902 -0.0201  0.0190
  795SOL    HW1 5977   9.108   3.474   1.982  1.1490  0.0459  1.3722
  795SOL    HW2 5978   9.017   3.456   2.101 -1.8911 -1.1173 -1.0014
  796SOL     OW 5979   9.514   6.293   5.597 -0.2889  0.2220 -0.7508
  796SOL    HW1 5980   9.466   6.222   5.552  1.3258 -1.0795 -0.5060
  796SOL    HW2 5981   9.560   6.339   5.526  1.2727 -1.0651 -0.6319
  797SOL     OW 5982   5.021   6.522   5.670  0.2949  0.2485  0.3772
  797SOL    HW1 5983   5.084   6.549   5.738  0.0499  2.2567 -0.1359
  797SOL    HW2 5984   4.956   6.470   5.717  1.0731  0.1300  1.3535
  798SOL     OW 5985  10.954   1.683   4.128  0.4194  0.5643  0.3157
  798SOL    HW1 5986  11.025   1.733   4.088 -0.7256  2.3394  0.3949
  798SOL    HW2 5987  10.951   1.714   4.219 -0.9956  1.1885  0.0865
  799SOL     OW 5988   4.808   3.273   7.927  0.1823 -0.0868 -0.1862
  799SOL    HW1 5989   4.713   3.280   7.913  0.2296  2.0011  0.2160
  799SOL    HW2 5990   4.845   3.273   7.839 -0.1307  0.3987 -0.3214
  800SOL     OW 5991   4.729   7.511   5.756  0.5646  0.5979 -0.3605
  800SOL    HW1 5992   4.660   7.572   5.730  1.2187  1.1604 -0.8264
  800SOL    HW2 5993   4.790   7.564   5.807  0.6626  0.1116  0.0362
  801SOL     OW 5994   7.415   0.467   3.242  0.6801  0.0015 -0.3263
  801SOL    HW1 5995   7.377   0.385   3.274  0.5361  0.0138 -0.4669
  801SOL    HW2 5996   7.506   0.463   3.271  0.2100  0.6917  1.4100
  802SOL     OW 5997  10.365   6.438   4.869  0.1918 -0.8284 -0.2774
  802SOL    HW1 5998  10.321   6.520   4.848 -1.4895 -1.8825 -1.1328
  802SOL    HW2 5999  10.458   6.461   4.874 -0.1637  0.9916 -1.1468
  803SOL     OW 6000   9.609   9.674  10.889 -0.0831  0.2419  0.4530
  803SOL    HW1 6001   9.532   9.688  10.833  0.7475 -0.8948 -1.0315
  803SOL    HW2 6002   9.574   9.631  10.967 -0.7877 -1.8349 -0.9181
  804SOL     OW 6003   3.253   6.180  10.094  0.1225 -0.6686  0.1768
  804SOL    HW1 6004   3.324   6.225  10.140 -0.7894  0.5930  0.4013
  804SOL    HW2 6005   3.239   6.232  10.015 -3.1600  1.5459  1.9806
  805SOL     OW 6006   8.726   8.644   9.892 -0.7783  0.1391 -0.1124
  805SOL    HW1 6007   8.794   8.593   9.937 -2.7088 -1.3354  1.2805
  805SOL    HW2 6008   8.729   8.613   9.801  0.7584  0.5291 -0.2273
  806SOL     OW 6009   3.831   1.409   0.986  0.4047 -0.0875 -0.0480
  806SOL    HW1 6010   3.792   1.324   0.969  0.7003  0.0074 -1.2558
  806SOL    HW2 6011   3.924   1.398   0.967  0.2597  0.7969 -1.3947
  807SOL     OW 6012   8.992   5.267   1.857  0.3890 -0.4195  0.3081
  807SOL    HW1 6013   9.062   5.323   1.890 -0.4889 -0.1665  1.8085
  807SOL    HW2 6014   8.922   5.327   1.831  0.2047 -0.7260  0.0786
  808SOL     OW 6015   7.564  10.198   9.698  0.2310  0.7525 -0.2265
  808SOL    HW1 6016   7.657  10.178   9.705  0.2739  1.1602  0.4901
  808SOL    HW2 6017   7.524  10.116   9.668  0.6727  0.2000  0.6417
  809SOL     OW 6018   3.668   3.768   7.965 -0.0902  0.0783  0.4888
  809SOL    HW1 6019   3.653   3.830   7.895 -1.3515  0.6969  1.2854
  809SOL    HW2 6020   3.670   3.821   8.045  2.9231 -0.3700  0.8601
  810SOL     OW 6021   1.709   2.563   2.893 -0.0022  0.4635  0.5130
  810SOL    HW1 6022   1.656   2.640   2.871  0.4699  1.0254  1.2709
  810SOL    HW2 6023   1.714   2.564   2.989 -0.5478 -0.9017  0.5662
  811SOL     OW 6024   0.297   5.255   2.984  0.0597  0.0576  0.6300
  811SOL    HW1 6025   0.352   5.180   2.961  1.1681  0.9339  0.3593
  811SOL    HW2 6026   0.263   5.234   3.070  1.9574  0.0995  1.4379
  812SOL     OW 6027   6.993   0.958   7.007 -0.9534  0.2494  0.2821
  812SOL    HW1 6028   6.906   0.987   7.033 -0.4622  0.4986  1.7282
  812SOL    HW2 6029   7.029   0.917   7.086 -0.4316 -1.4726 -0.7933
  813SOL     OW 6030   8.986   9.940   0.502  0.3861 -0.8384  0.1914
  813SOL    HW1 6031   8.899   9.954   0.541  0.9863  0.5329  1.1382
  813SOL    HW2 6032   8.979   9.978   0.415  0.2686  0.0995  0.5946
  814SOL     OW 6033  10.991   9.823   0.301  0.5247  0.1606  0.3477
  814SOL    HW1 6034  11.025   9.888   0.241  1.1550  0.1585  0.6923
  814SOL    HW2 6035  10.912   9.789   0.258  0.2792  1.0249  0.0938
  815SOL     OW 6036   2.504   8.253   9.827  0.1441  0.3991  0.4932
  815SOL    HW1 6037   2.457   8.331   9.856 -1.7521  0.1094 -1.4986
  815SOL    HW2 6038   2.435   8.187   9.815  0.9866 -0.0923 -2.4620
  816SOL     OW 6039   5.655   8.857   0.196  0.4360  0.5628 -0.1315
  816SOL    HW1 6040   5.570   8.848   0.153  0.2552  0.5298  0.2280
  816SOL    HW2 6041   5.699   8.774   0.178  0.8166  0.9827 -1.2164
  817SOL     OW 6042   5.339  10.431   5.278  0.6357 -0.5639  0.1996
  817SOL    HW1 6043   5.375  10.389   5.357  0.5114  0.0514  0.5912
  817SOL    HW2 6044   5.358  10.369   5.208  0.3801 -1.3123  0.7747
  818SOL     OW 6045   6.022   1.714   1.070 -0.3350  0.1736 -0.0509
  818SOL    HW1 6046   6.055   1.798   1.102  0.4532  0.1183 -0.6908
  818SOL    HW2 6047   6.093   1.679   1.016 -2.0221  0.8654 -2.9700
  819SOL     OW 6048  10.370   4.530   9.750  0.5742 -0.9251  0.0393
  819SOL    HW1 6049  10.421   4.460   9.709 -0.0421 -1.1106 -0.4428
  819SOL    HW2 6050  10.371   4.601   9.686 -0.9411 -1.4550 -0.6440
  820SOL     OW 6051   4.923   1.225   9.063 -0.1936 -0.3206 -0.1834
  820SOL    HW1 6052   4.955   1.135   9.055 -2.0595 -0.9764 -1.0472
  820SOL    HW2 6053   4.910   1.254   8.973  2.1557  1.5780 -0.0138
  821SOL     OW 6054   1.082   5.568  10.466  0.2379  0.1048 -0.2482
  821SOL    HW1 6055   1.091   5.652  10.510 -0.0558  0.4290 -0.7945
  821SOL    HW2 6056   1.014   5.522  10.515  1.9897 -0.7663  1.4722
  822SOL     OW 6057   4.457  10.521  10.395  0.3436  0.2371 -0.6616
  822SOL    HW1 6058   4.433  10.440  10.348 -1.2136 -0.3721  1.0676
  822SOL    HW2 6059   4.461  10.587  10.326  1.0964 -1.1748 -2.0627
  823SOL     OW 6060   2.630   8.441   6.639 -0.5988 -0.6460 -0.2540
  823SOL    HW1 6061   2.582   8.430   6.721  0.6507 -0.8998  0.4706
  823SOL    HW2 6062   2.563   8.463   6.574 -1.7099 -1.2675  0.6567
  824SOL     OW 6063   2.771   9.184  10.056 -0.0858  0.2498  0.2548
  824SOL    HW1 6064   2.843   9.141  10.102 -0.6126  0.3208  1.1791
  824SOL    HW2 6065   2.694   9.134  10.081 -0.7251  1.7376  1.4069
  825SOL     OW 6066   3.149   8.012   7.843 -0.3203  0.1383 -0.1592
  825SOL    HW1 6067   3.153   8.021   7.748 -2.8947 -2.0423 -0.6139
  825SOL    HW2 6068   3.083   8.075   7.870 -1.3579 -0.8881 -0.2070
  826SOL     OW 6069   0.406   4.930   2.465 -0.5038 -0.0792 -0.7993
  826SOL    HW1 6070   0.501   4.938   2.460 -0.5091  0.7506  0.0975
  826SOL    HW2 6071   0.387   4.844   2.430  0.5492 -0.1051 -1.3306
  827SOL     OW 6072  10.644   1.877   8.163 -0.4662  0.2930 -0.6390
  827SOL    HW1 6073  10.638   1.967   8.194 -1.3248 -0.1915  0.6612
  827SOL    HW2 6074  10.614   1.824   8.236  1.4230 -1.1731 -0.8297
  828SOL     OW 6075   5.436   4.669   2.965  0.1551 -0.7174  0.0924
  828SOL    HW1 6076   5.442   4.603   2.897  1.0707  2.0215 -2.7057
  828SOL    HW2 6077   5.362   4.724   2.940  0.9965  0.8211  0.7582
  829SOL     OW 6078   0.383   5.823   0.875  0.2685  0.8542  0.3563
  829SOL    HW1 6079   0.452   5.868   0.923 -1.1874 -0.7720  4.3868
  829SOL    HW2 6080   0.302   5.847   0.920 -1.0756 -1.9498 -0.3144
  830SOL     OW 6081   5.858   8.770   8.579 -0.1192 -0.2755  0.2945
  830SOL    HW1 6082   5.868   8.859   8.546 -0.5071 -0.8973 -1.6175
  830SOL    HW2 6083   5.815   8.781   8.664  0.2580  1.3772  0.3061
  831SOL     OW 6084   3.607  10.042  10.934 -0.2458 -0.5895  0.2917
  831SOL    HW1 6085   3.629   9.996  11.015 -1.0895 -1.4994  0.0260
  831SOL    HW2 6086   3.521  10.008  10.910 -0.7455  0.8866 -0.1148
  832SOL     OW 6087   6.959   9.790   6.442  0.1572 -0.4048 -0.0040
  832SOL    HW1 6088   6.899   9.743   6.499 -0.7928 -1.4017 -1.7397
  832SOL    HW2 6089   7.026   9.826   6.501 -0.2349 -2.1756  1.6128
  833SOL     OW 6090  10.506   5.122   1.697 -0.0043 -0.2180 -0.2685
  833SOL    HW1 6091  10.411   5.108   1.704  0.4600 -3.5547  1.4247
  833SOL    HW2 6092  10.526   5.106   1.605 -0.8585 -1.6840 -0.2259
  834SOL     OW 6093   6.346   7.582   2.432  0.4256 -0.2308  0.1000
  834SOL    HW1 6094   6.434   7.568   2.467  0.3283 -2.3767 -0.3647
  834SOL    HW2 6095   6.293   7.603   2.508  1.3415  1.2343  0.3693
  835SOL     OW 6096   9.818   8.266   6.339  0.1458  0.0542 -0.4458
  835SOL    HW1 6097   9.829   8.353   6.302  1.6064 -0.3160 -0.9518
  835SOL    HW2 6098   9.891   8.215   6.303 -0.3369 -1.2182  0.3012
  836SOL     OW 6099   3.738   3.776   9.680  0.7424  0.0719 -0.1820
  836SOL    HW1 6100   3.652   3.816   9.665  0.3351 -0.0229  1.6016
  836SOL    HW2 6101   3.783   3.782   9.596 -1.3234 -0.6574 -1.4217
  837SOL     OW 6102   1.217   8.588   1.548  0.2264  0.3732  0.0411
  837SOL    HW1 6103   1.179   8.665   1.589 -0.6441  1.3316 -2.3999
  837SOL    HW2 6104   1.304   8.616   1.521  0.7537 -0.2178  1.0745
  838SOL     OW 6105   5.077   1.548   7.766 -0.1820  0.0084 -0.3630
  838SOL    HW1 6106   5.065   1.496   7.846  0.4837 -0.0219 -0.2782
  838SOL    HW2 6107   5.113   1.631   7.797  1.2538 -0.4525 -0.7340
  839SOL     OW 6108   7.948   5.041   4.429  0.0000 -0.1166  0.0292
  839SOL    HW1 6109   7.930   5.093   4.351  1.0503 -0.4789 -0.4719
  839SOL    HW2 6110   7.969   4.953   4.396 -1.1016 -0.7048  0.8187
  840SOL     OW 6111   7.524   6.928   8.595  0.3563  0.2345 -0.0502
  840SOL    HW1 6112   7.578   7.007   8.593 -0.9737  1.1767 -0.2415
  840SOL    HW2 6113   7.476   6.930   8.512 -2.2955  1.1726  1.3945
  841SOL     OW 6114   5.266   4.661  10.529 -0.2303  0.1326 -0.0203
  841SOL    HW1 6115   5.234   4.619  10.449  1.5153 -0.0025 -0.6949
  841SOL    HW2 6116   5.201   4.639  10.596 -0.5236 -1.7775 -0.8733
  842SOL     OW 6117   3.521   6.748  10.019  0.1961  0.4140  0.2537
  842SOL    HW1 6118   3.441   6.779  10.060 -0.6194 -1.1484 -0.0745
  842SOL    HW2 6119   3.568   6.703  10.090 -0.7736 -1.4640 -0.2106
  843SOL     OW 6120   5.453   4.593   5.088 -0.2825 -0.6261  0.1650
  843SOL    HW1 6121   5.458   4.505   5.125 -0.5149 -1.1792 -1.0504
  843SOL    HW2 6122   5.360   4.615   5.092 -0.2712 -0.5781  0.1596
  844SOL     OW 6123   9.720   5.513  10.007  0.4565  1.0005 -0.0251
  844SOL    HW1 6124   9.795   5.542   9.954 -0.1333  2.4987 -0.1070
  844SOL    HW2 6125   9.653   5.490   9.942  0.7231 -0.0360  0.0524
  845SOL     OW 6126   7.869  10.447   9.128 -0.2506 -0.2200  0.6763
  845SOL    HW1 6127   7.931  10.379   9.154 -0.9806 -0.9029  0.6639
  845SOL    HW2 6128   7.827  10.474   9.210 -0.2069 -0.0237  0.6354
  846SOL     OW 6129   3.742   7.202   9.320 -0.4011 -0.2064 -0.0986
  846SOL    HW1 6130   3.654   7.207   9.283 -0.4478 -1.6482 -0.2266
  846SOL    HW2 6131   3.735   7.135   9.388  0.6852 -0.5960 -0.3635
  847SOL     OW 6132   3.707   6.872   2.731 -0.7052 -0.2205  0.1240
  847SOL    HW1 6133   3.691   6.885   2.825  1.8046  0.9358  0.4798
  847SOL    HW2 6134   3.644   6.928   2.687 -0.7273  0.6247  1.2041
  848SOL     OW 6135   2.592   5.787  10.528  0.3465  0.2630  0.5821
  848SOL    HW1 6136   2.535   5.738  10.469 -1.2286  1.8664  0.6888
  848SOL    HW2 6137   2.533   5.827  10.592  1.7620  0.6545  1.7154
  849SOL     OW 6138   1.892   0.099   5.853  0.6255  0.3051 -0.1213
  849SOL    HW1 6139   1.853   0.057   5.776  0.1048  0.2216  0.1871
  849SOL    HW2 6140   1.986   0.102   5.833  0.6495 -0.8165 -0.2327
  850SOL     OW 6141   2.893   6.745   9.521 -0.5035  0.0479  0.0255
  850SOL    HW1 6142   2.858   6.796   9.448 -1.0398 -1.2121 -0.6295
  850SOL    HW2 6143   2.985   6.731   9.498 -0.3051  0.8224  0.2923
  851SOL     OW 6144   7.514   3.630   9.176  0.1025  0.2147  0.0611
  851SOL    HW1 6145   7.601   3.596   9.156  0.7914  1.1534  1.2774
  851SOL    HW2 6146   7.458   3.553   9.179  0.8232 -0.3744 -1.0305
  852SOL     OW 6147   7.634   8.524   5.084  0.1429  0.0550 -0.1260
  852SOL    HW1 6148   7.551   8.562   5.112  0.1441 -0.6701  0.9796
  852SOL    HW2 6149   7.700   8.566   5.140  0.5386  0.7025 -1.0671
  853SOL     OW 6150   3.764   1.769   8.131  0.1109 -0.1571 -0.1834
  853SOL    HW1 6151   3.846   1.806   8.099 -1.0793  1.6209 -1.4427
  853SOL    HW2 6152   3.778   1.755   8.225  1.8044  0.1991 -0.3574
  854SOL     OW 6153  10.714   0.992   7.591 -0.1962  0.0547  0.2224
  854SOL    HW1 6154  10.683   0.963   7.677  0.0046  0.2158  0.3491
  854SOL    HW2 6155  10.698   1.087   7.590  1.2463  0.3167  0.6893
  855SOL     OW 6156   1.883  10.091   2.330  0.2074  0.1288 -0.1193
  855SOL    HW1 6157   1.912  10.113   2.418  0.8691 -0.3908 -0.2025
  855SOL    HW2 6158   1.880   9.995   2.328 -1.2121  0.1537 -0.2176
  856SOL     OW 6159   4.118   8.811   1.894  0.1934 -0.3198  0.1107
  856SOL    HW1 6160   4.159   8.759   1.826 -0.9631 -0.9280 -0.1461
  856SOL    HW2 6161   4.035   8.766   1.912 -1.5525  2.1514 -1.1214
  857SOL     OW 6162   0.111  10.221   7.673  0.0566 -0.2635  0.1529
  857SOL    HW1 6163   0.167  10.211   7.750  0.3259  1.6804  0.2557
  857SOL    HW2 6164   0.040  10.278   7.703  0.3457  0.8098 -1.0961
  858SOL     OW 6165   0.113   1.765   6.431 -0.5934  0.7191  0.1467
  858SOL    HW1 6166   0.198   1.805   6.450 -0.2089 -0.0935  0.1598
  858SOL    HW2 6167   0.064   1.770   6.513  0.3282 -0.9674  0.8422
  859SOL     OW 6168   5.359   1.967  10.708  0.1354 -0.1799 -0.8237
  859SOL    HW1 6169   5.278   1.950  10.756  0.2030  2.1145  0.2303
  859SOL    HW2 6170   5.421   1.902  10.741 -1.1509 -1.8165 -1.4797
  860SOL     OW 6171   5.255   6.567   6.678  0.0800 -0.5271 -0.0079
  860SOL    HW1 6172   5.269   6.583   6.772  0.5112 -1.0854  0.0355
  860SOL    HW2 6173   5.172   6.519   6.674 -0.7271  0.8242 -0.0588
  861SOL     OW 6174   5.035   3.932   4.218 -0.1494  0.4671 -0.6950
  861SOL    HW1 6175   4.949   3.966   4.192 -0.1648  0.1000 -1.1505
  861SOL    HW2 6176   5.048   3.856   4.161  1.7759  2.1940 -2.7222
  862SOL     OW 6177   8.455   5.627  10.873  0.4103 -0.6930 -0.1876
  862SOL    HW1 6178   8.420   5.716  10.873 -0.0616 -0.8747  0.0352
  862SOL    HW2 6179   8.471   5.607  10.965  2.6255 -0.0386 -0.3828
  863SOL     OW 6180   5.403   6.694   9.242  0.3206  0.3559 -0.4988
  863SOL    HW1 6181   5.397   6.751   9.165 -0.5783  0.5658 -0.2832
  863SOL    HW2 6182   5.312   6.676   9.266  0.5336  1.6242  1.4842
  864SOL     OW 6183   0.842   8.126   9.369  0.1208  0.2023  0.2003
  864SOL    HW1 6184   0.871   8.104   9.458 -1.7119  0.6933  0.9644
  864SOL    HW2 6185   0.898   8.073   9.312  2.4852  1.1252  1.5308
  865SOL     OW 6186   6.626   1.217  10.055  0.0066 -0.4188 -0.3936
  865SOL    HW1 6187   6.648   1.221  10.148  1.5423  0.4729 -0.7531
  865SOL    HW2 6188   6.627   1.124  10.034  1.8536 -0.5401  0.0345
  866SOL     OW 6189   8.908   7.840   9.166 -0.6423  0.2220  0.2146
  866SOL    HW1 6190   8.860   7.904   9.114  0.8249  0.1654 -1.2836
  866SOL    HW2 6191   8.993   7.882   9.183 -0.1067 -0.8369  0.2485
  867SOL     OW 6192   5.816   5.287   4.632  0.5001 -0.1887  0.4980
  867SOL    HW1 6193   5.764   5.269   4.554 -0.8898 -0.4655  1.4580
  867SOL    HW2 6194   5.814   5.382   4.642  0.7993 -0.1436  0.1148
  868SOL     OW 6195  10.982  10.891   3.388 -0.1736  0.1505  0.3515
  868SOL    HW1 6196  10.907  10.947   3.370  1.1032  2.3292  1.4400
  868SOL    HW2 6197  10.951  10.830   3.455 -0.5475  2.2090  2.1473
  869SOL     OW 6198  11.064   7.735   8.494 -0.1534  0.4586 -0.6023
  869SOL    HW1 6199  10.987   7.773   8.452 -1.9916  0.5981  2.6076
  869SOL    HW2 6200  11.029   7.669   8.554  2.2862 -0.0213  0.4160
  870SOL     OW 6201   1.603   1.860   3.027 -0.4071 -0.3055 -0.0565
  870SOL    HW1 6202   1.691   1.897   3.024 -0.7145  0.3785 -1.2368
  870SOL    HW2 6203   1.546   1.935   3.040 -0.8059 -0.7900  1.1157
  871SOL     OW 6204   9.231   2.396   6.511  0.2448  0.6295 -0.6017
  871SOL    HW1 6205   9.215   2.400   6.417  1.2854  0.2646 -0.8072
  871SOL    HW2 6206   9.209   2.306   6.536  0.1083  0.6843 -0.5239
  872SOL     OW 6207   3.098   3.348   8.670 -0.6893  0.5124  0.0614
  872SOL    HW1 6208   3.031   3.417   8.664 -0.5204  0.7155  0.4481
  872SOL    HW2 6209   3.069   3.293   8.743 -1.0217 -0.0469 -0.4877
  873SOL     OW 6210   9.010   0.881   8.614 -0.6016  0.2675  0.3784
  873SOL    HW1 6211   9.088   0.877   8.560 -2.2178 -0.1573 -2.1224
  873SOL    HW2 6212   9.042   0.898   8.703  2.1555  1.9240 -0.8140
  874SOL     OW 6213   2.971   1.598   4.292  0.3974 -0.1217 -0.5114
  874SOL    HW1 6214   2.907   1.628   4.227  1.9898  0.1218 -2.0718
  874SOL    HW2 6215   3.035   1.670   4.296  0.6748 -0.4253  0.8645
  875SOL     OW 6216   1.677   8.284   1.607  0.5073 -0.0911 -0.5386
  875SOL    HW1 6217   1.728   8.331   1.542  1.4618  1.1222  0.9989
  875SOL    HW2 6218   1.740   8.264   1.677 -0.9293  0.8776  1.1229
  876SOL     OW 6219   5.204   3.580   6.127 -0.1049 -0.2000  0.4060
  876SOL    HW1 6220   5.230   3.566   6.036 -0.4304 -0.6622  0.3825
  876SOL    HW2 6221   5.272   3.638   6.162  0.5930 -0.8382  0.1537
  877SOL     OW 6222   9.955   6.935   0.939  0.1901 -0.3977 -0.0043
  877SOL    HW1 6223  10.006   6.926   1.020  0.5435  1.3357 -0.0019
  877SOL    HW2 6224   9.967   7.027   0.913 -0.0333 -0.8822 -1.9558
  878SOL     OW 6225   4.598   3.983   4.523 -0.4692 -0.5277  0.3511
  878SOL    HW1 6226   4.572   4.052   4.462 -1.6428  0.8398  2.2609
  878SOL    HW2 6227   4.687   4.006   4.549  0.4239 -1.6882 -1.5295
  879SOL     OW 6228   5.780  10.813   7.201  0.4723 -0.3471  0.7017
  879SOL    HW1 6229   5.810  10.820   7.110  2.1994  2.7031  1.3694
  879SOL    HW2 6230   5.858  10.828   7.253 -0.9379  0.6260  2.6657
  880SOL     OW 6231   7.218   9.797   8.402  0.0157 -0.1353  0.1298
  880SOL    HW1 6232   7.123   9.797   8.417  0.2374 -1.0536  1.7782
  880SOL    HW2 6233   7.239   9.889   8.386 -0.9906  0.2637  0.9970
  881SOL     OW 6234   1.109   2.554   7.989 -0.7398 -0.2160  0.2981
  881SOL    HW1 6235   1.070   2.615   8.052 -0.3741 -0.3670  0.6741
  881SOL    HW2 6236   1.084   2.589   7.904 -0.6910  0.3577  0.5152
  882SOL     OW 6237   3.534   9.913   0.842  0.3846  0.4802  0.1594
  882SOL    HW1 6238   3.470   9.984   0.845 -0.0064  0.1618 -0.4414
  882SOL    HW2 6239   3.615   9.954   0.812 -0.1762  0.4627 -1.5112
  883SOL     OW 6240   0.899   8.205   1.367 -0.7293  0.2417 -0.3652
  883SOL    HW1 6241   0.828   8.270   1.359  0.3823  1.5122 -0.3482
  883SOL    HW2 6242   0.968   8.252   1.415 -0.3108 -1.3358  0.6288
  884SOL     OW 6243   1.618   3.658   4.775 -0.1807 -0.2277 -0.1746
  884SOL    HW1 6244   1.697   3.650   4.829  0.2196  2.1093 -0.2947
  884SOL    HW2 6245   1.581   3.570   4.772  1.6272 -1.0793  1.1010
  885SOL     OW 6246   7.199   4.911   9.136  0.0168  0.0829  0.3027
  885SOL    HW1 6247   7.227   4.856   9.062 -0.3085 -1.0004  0.9560
  885SOL    HW2 6248   7.278   4.921   9.189 -0.0438 -0.2224  0.4570
  886SOL     OW 6249   7.245   8.376  10.511  0.1829  0.5618 -0.4344
  886SOL    HW1 6250   7.267   8.304  10.451  0.7368  1.0498 -0.8244
  886SOL    HW2 6251   7.277   8.346  10.596 -1.5064 -0.5749 -0.1469
  887SOL     OW 6252  10.186   2.406   8.141 -0.3624  0.2235  0.1736
  887SOL    HW1 6253  10.121   2.476   8.154  0.1521  0.8541 -0.5437
  887SOL    HW2 6254  10.139   2.326   8.163 -0.4864  0.9097  2.7169
  888SOL     OW 6255   9.928   2.892   1.150 -0.5239  0.0409  0.9292
  888SOL    HW1 6256   9.942   2.804   1.117 -0.8055  0.0008  0.9145
  888SOL    HW2 6257   9.986   2.899   1.226  0.1392  0.1410  0.4199
  889SOL     OW 6258   1.021   9.229   4.717 -0.3958 -0.1132  0.5001
  889SOL    HW1 6259   0.971   9.163   4.765 -2.1513  0.7642 -0.0359
  889SOL    HW2 6260   1.011   9.205   4.625  0.3958 -0.0503  0.3901
  890SOL     OW 6261   1.951   9.672   2.071 -0.4353 -0.0011 -1.0068
  890SOL    HW1 6262   1.985   9.645   1.986  0.1530  0.1751 -0.8350
  890SOL    HW2 6263   1.941   9.767   2.064 -0.3905  0.0132 -0.8865
  891SOL     OW 6264   3.972   7.755   9.197  0.3148  0.4153 -0.7733
  891SOL    HW1 6265   4.064   7.772   9.216 -0.0361  1.5643  0.0879
  891SOL    HW2 6266   3.937   7.841   9.173 -0.8080  0.2750  0.2426
  892SOL     OW 6267   3.854   7.984   8.045 -0.4807  0.3358 -0.1717
  892SOL    HW1 6268   3.820   7.917   7.987  0.7283  0.3167 -0.8858
  892SOL    HW2 6269   3.818   8.066   8.011 -0.6507  0.2115 -0.2893
  893SOL     OW 6270   5.049  10.286   5.426 -0.6662 -0.2941  0.0195
  893SOL    HW1 6271   4.962  10.250   5.440 -1.5219  0.5359 -2.5826
  893SOL    HW2 6272   5.080  10.244   5.346  0.5173  0.8154 -0.1428
  894SOL     OW 6273  10.486   8.878   3.553 -0.1215 -0.5856  0.1020
  894SOL    HW1 6274  10.554   8.945   3.555  0.2295 -0.9678  0.9396
  894SOL    HW2 6275  10.483   8.843   3.642  0.5362 -2.5339 -0.5918
  895SOL     OW 6276   1.671   1.088   2.703  0.0705 -0.1380  0.7115
  895SOL    HW1 6277   1.678   1.114   2.795 -2.1741  3.0616  0.1622
  895SOL    HW2 6278   1.588   1.041   2.698  1.8929 -3.6680  0.8145
  896SOL     OW 6279   7.398   6.539   7.104  0.2599 -0.2745 -0.7648
  896SOL    HW1 6280   7.398   6.484   7.183  0.5813 -2.2879 -2.0911
  896SOL    HW2 6281   7.306   6.544   7.079  0.0462  1.1241  0.1872
  897SOL     OW 6282   3.709   4.344   5.846  0.5085  0.1458 -0.0471
  897SOL    HW1 6283   3.720   4.376   5.757  1.9638 -1.0288 -0.3393
  897SOL    HW2 6284   3.711   4.248   5.837 -1.6340 -0.0762  1.0065
  898SOL     OW 6285   0.895   3.948   0.864 -0.2395 -0.0694 -0.1133
  898SOL    HW1 6286   0.835   3.937   0.937  0.4529 -1.9136  0.2293
  898SOL    HW2 6287   0.873   3.876   0.804  0.8031 -0.0326 -0.5561
  899SOL     OW 6288   8.292   6.751   2.806 -0.3692 -0.1093  0.5323
  899SOL    HW1 6289   8.245   6.831   2.783  0.6016  0.1365 -0.6780
  899SOL    HW2 6290   8.317   6.764   2.898  0.7784  1.5317  0.0450
  900SOL     OW 6291   0.815   5.912   5.140 -0.3501  0.3803  0.0026
  900SOL    HW1 6292   0.810   6.007   5.155 -1.7286  0.0549  1.9890
  900SOL    HW2 6293   0.788   5.873   5.223  0.9672 -1.7893 -0.5054
  901SOL     OW 6294   2.912   8.246   7.467  0.0108  0.0822 -0.5022
  901SOL    HW1 6295   2.828   8.284   7.443  0.3975  1.0524 -0.3444
  901SOL    HW2 6296   2.955   8.313   7.521  0.9995 -0.2823 -0.8119
  902SOL     OW 6297   4.896   0.351   2.607 -0.4973 -0.5652 -0.3187
  902SOL    HW1 6298   4.874   0.416   2.540 -1.4108 -1.3509 -0.8151
  902SOL    HW2 6299   4.991   0.344   2.604 -0.5324 -0.7508 -1.7144
  903SOL     OW 6300   6.643   3.944   2.057 -0.5217 -0.1903 -0.0904
  903SOL    HW1 6301   6.642   3.873   2.121  0.7382 -0.1955 -0.0419
  903SOL    HW2 6302   6.649   4.024   2.110  0.8103 -0.2077 -0.1662
  904SOL     OW 6303   0.527   8.750   0.366  0.0210  0.1009 -0.3118
  904SOL    HW1 6304   0.497   8.832   0.328  1.3477  0.6248 -0.2723
  904SOL    HW2 6305   0.551   8.696   0.291  0.2919  0.2091 -0.3055
  905SOL     OW 6306   3.245   2.576  11.060  0.3599  0.2563 -0.3051
  905SOL    HW1 6307   3.170   2.602  11.008  1.2456  0.5352 -1.4923
  905SOL    HW2 6308   3.316   2.633  11.030  0.6368  1.2517  2.0533
  906SOL     OW 6309   6.315   7.552   5.568  0.8959  0.2244  0.3813
  906SOL    HW1 6310   6.404   7.575   5.594 -0.0628  2.9719  1.5928
  906SOL    HW2 6311   6.259   7.608   5.622 -1.5112  0.0642 -1.7590
  907SOL     OW 6312   6.082   4.865   4.924  0.3486 -0.5409  0.6161
  907SOL    HW1 6313   6.153   4.828   4.871  0.3697 -1.1989  1.0858
  907SOL    HW2 6314   6.126   4.926   4.983  0.4577 -0.5786  0.5741
  908SOL     OW 6315   0.247   3.794   6.275 -0.0925 -0.0366  0.1397
  908SOL    HW1 6316   0.202   3.789   6.359  0.8362  0.7883  0.7136
  908SOL    HW2 6317   0.322   3.735   6.284  0.5924  0.8396  0.2815
  909SOL     OW 6318   5.891   6.468   9.563 -0.2040 -0.2677  0.1108
  909SOL    HW1 6319   5.926   6.426   9.485 -0.5846 -0.6810  0.1539
  909SOL    HW2 6320   5.811   6.419   9.582 -0.0344 -0.2733  0.8440
  910SOL     OW 6321   4.622   7.320   6.222  0.0877  0.6759 -0.7699
  910SOL    HW1 6322   4.613   7.415   6.225 -0.2355  0.6568 -1.0452
  910SOL    HW2 6323   4.716   7.304   6.226  0.1228  0.9887 -0.2670
  911SOL     OW 6324   8.259   6.426   6.696  0.1525 -0.0935  0.5311
  911SOL    HW1 6325   8.200   6.396   6.627  1.7016 -1.0620 -0.4060
  911SOL    HW2 6326   8.203   6.432   6.774 -1.5806  0.8384 -0.7310
  912SOL     OW 6327   7.329   5.560  10.394 -0.2247 -0.5522 -0.1006
  912SOL    HW1 6328   7.281   5.643  10.394  1.2441  0.3553 -1.2140
  912SOL    HW2 6329   7.299   5.516  10.314 -0.7973 -0.9759  0.3447
  913SOL     OW 6330   8.486   0.430   0.040 -0.2528  0.1047  0.1462
  913SOL    HW1 6331   8.439   0.420   0.123 -0.9962 -0.7116 -0.3649
  913SOL    HW2 6332   8.442   0.504  -0.003  1.0225  1.4603  1.0499
  914SOL     OW 6333   6.035   0.281   1.995 -0.7371 -0.5861 -0.1317
  914SOL    HW1 6334   6.087   0.295   1.916 -1.7832 -1.7531 -1.0613
  914SOL    HW2 6335   6.091   0.313   2.066 -0.1769  1.4657 -1.4058
  915SOL     OW 6336   1.463   7.368   0.628 -0.0508  0.8163 -0.1080
  915SOL    HW1 6337   1.448   7.447   0.680  0.1521  0.7370  0.0711
  915SOL    HW2 6338   1.445   7.395   0.538 -2.1934  0.5045  0.1688
  916SOL     OW 6339   6.858   0.531   0.129  0.1859 -0.1317 -0.0668
  916SOL    HW1 6340   6.887   0.504   0.042  0.4921  1.0119 -0.3292
  916SOL    HW2 6341   6.906   0.474   0.189 -0.3348 -1.2133 -0.6384
  917SOL     OW 6342   8.439   6.610   5.785 -0.6736 -0.1048  0.0796
  917SOL    HW1 6343   8.514   6.638   5.837  0.2266 -2.2233  0.0221
  917SOL    HW2 6344   8.399   6.539   5.837  1.5655 -3.9279 -2.8821
  918SOL     OW 6345   2.384   7.271   1.604  0.3861 -0.6805  0.0283
  918SOL    HW1 6346   2.404   7.335   1.672  1.2358 -1.1061  0.1947
  918SOL    HW2 6347   2.397   7.318   1.522 -0.9569 -0.0715  0.1464
  919SOL     OW 6348   0.964   4.758  10.349 -0.8013  0.5253  0.2666
  919SOL    HW1 6349   0.912   4.796  10.420  2.3211  2.5456  1.6988
  919SOL    HW2 6350   1.049   4.800  10.357  0.4630 -1.0251 -3.2225
  920SOL     OW 6351   8.549   6.537   0.749 -0.1951 -0.8141  0.0453
  920SOL    HW1 6352   8.569   6.564   0.659 -1.2047  1.2816  0.4003
  920SOL    HW2 6353   8.617   6.580   0.801 -1.3030  0.3696  0.5422
  921SOL     OW 6354   3.365   5.668   5.811 -0.0359 -0.0688 -0.1136
  921SOL    HW1 6355   3.402   5.708   5.732 -0.4046  1.3046  0.3807
  921SOL    HW2 6356   3.286   5.624   5.780 -0.0661  0.2780 -0.5489
  922SOL     OW 6357  10.699   8.038   1.458 -0.6878  0.3179 -0.6263
  922SOL    HW1 6358  10.653   8.068   1.536 -0.4980 -0.2228 -0.3009
  922SOL    HW2 6359  10.789   8.068   1.471 -0.7097  0.4424 -0.7562
  923SOL     OW 6360   8.815  10.846  10.663  0.0140 -0.1528  0.4622
  923SOL    HW1 6361   8.736  10.855  10.715 -0.9975  0.1360 -1.0661
  923SOL    HW2 6362   8.806  10.761  10.620 -0.0238  0.3600 -0.5749
  924SOL     OW 6363   8.017  10.588   9.717 -0.1850 -0.1244 -0.4542
  924SOL    HW1 6364   8.086  10.530   9.686  0.5800  0.8336 -0.5428
  924SOL    HW2 6365   7.938  10.558   9.671  0.5217 -0.0528 -1.7328
  925SOL     OW 6366   9.345   7.504   6.107  0.1099  0.3245  0.1151
  925SOL    HW1 6367   9.260   7.502   6.063  0.6364  1.9724 -1.0864
  925SOL    HW2 6368   9.354   7.595   6.137  1.9472  0.4904 -0.8398
  926SOL     OW 6369   3.825   7.798   7.838 -0.0927  0.8271 -0.7184
  926SOL    HW1 6370   3.872   7.752   7.769 -0.9486  0.4338 -1.0557
  926SOL    HW2 6371   3.748   7.834   7.795 -0.3253  1.0886 -0.0951
  927SOL     OW 6372   6.031   3.886   2.672  0.2507  0.3419  0.1319
  927SOL    HW1 6373   5.962   3.839   2.718  0.9216  0.4630  1.2891
  927SOL    HW2 6374   5.990   3.913   2.589 -1.2012  0.7143  0.9311
  928SOL     OW 6375   1.811   5.448   8.892 -0.4085 -0.3170 -0.3399
  928SOL    HW1 6376   1.828   5.424   8.801  2.5026  0.0806  0.0146
  928SOL    HW2 6377   1.797   5.365   8.937 -2.3169 -0.4931 -1.1719
  929SOL     OW 6378   5.322   8.809   9.428 -0.1465 -0.0362  0.4949
  929SOL    HW1 6379   5.235   8.786   9.396 -0.2037 -0.9322  1.2722
  929SOL    HW2 6380   5.382   8.757   9.374 -0.1949 -0.8474  1.2187
  930SOL     OW 6381   2.853   6.796   7.137 -0.3907 -0.1063  0.5387
  930SOL    HW1 6382   2.864   6.886   7.107 -0.3723 -0.5242 -0.7891
  930SOL    HW2 6383   2.807   6.804   7.220 -0.6453  1.1234  0.3029
  931SOL     OW 6384   3.820   8.643  10.921  0.2351  0.0884 -0.2901
  931SOL    HW1 6385   3.826   8.609  10.832  1.8687  0.3027 -0.2964
  931SOL    HW2 6386   3.847   8.735  10.913  1.3990 -0.1594  0.5467
  932SOL     OW 6387   4.679   6.769   9.481 -0.1104 -0.1304 -0.4109
  932SOL    HW1 6388   4.617   6.772   9.555 -0.6184  0.1106 -0.8369
  932SOL    HW2 6389   4.763   6.748   9.521 -0.4696 -0.4699  0.1827
  933SOL     OW 6390   9.430   0.998   1.809  0.2214  0.3373  0.0923
  933SOL    HW1 6391   9.439   0.929   1.874  0.9730  0.4871  0.1562
  933SOL    HW2 6392   9.405   1.076   1.860  0.2752  0.3282  0.1321
  934SOL     OW 6393   2.144   0.865   4.363 -0.2410  0.4631 -0.1751
  934SOL    HW1 6394   2.096   0.855   4.281 -0.2566  0.1754 -0.1333
  934SOL    HW2 6395   2.093   0.814   4.426  0.5863 -0.5668 -0.3182
  935SOL     OW 6396   5.609   5.868   2.838 -0.4308  0.3700  0.1269
  935SOL    HW1 6397   5.516   5.848   2.828 -0.1059 -2.0776  1.4736
  935SOL    HW2 6398   5.655   5.788   2.811  1.2365  1.0863  0.6707
  936SOL     OW 6399  10.214   3.449   5.971 -0.1017 -0.3989  0.2350
  936SOL    HW1 6400  10.286   3.500   5.934  0.4388 -1.0958  0.2952
  936SOL    HW2 6401  10.243   3.427   6.059 -0.7059 -0.0832  0.5200
  937SOL     OW 6402   3.548   2.100   6.366 -0.2128  0.3358 -0.1450
  937SOL    HW1 6403   3.606   2.036   6.326 -0.5287  0.3178 -0.5720
  937SOL    HW2 6404   3.583   2.112   6.454  1.3018  1.3969 -0.8535
  938SOL     OW 6405   2.655   0.245   2.233  0.9209 -0.6852 -0.4158
  938SOL    HW1 6406   2.655   0.157   2.270  1.3454 -0.3092  0.5086
  938SOL    HW2 6407   2.562   0.268   2.225  0.7462  0.1155  2.6793
  939SOL     OW 6408   0.277   1.350   0.984 -0.5716  0.5103  0.4515
  939SOL    HW1 6409   0.266   1.414   1.055  2.7943 -0.4540  2.0506
  939SOL    HW2 6410   0.238   1.270   1.018  0.3365  0.2607  0.9534
  940SOL     OW 6411   1.654   2.959   7.823 -0.4193  0.1834 -0.1106
  940SOL    HW1 6412   1.634   2.982   7.732 -0.3814  0.7191  0.0179
  940SOL    HW2 6413   1.659   2.863   7.822  0.0309  0.2054 -0.7660
  941SOL     OW 6414   8.926   2.143   9.423  0.2302  0.1544  0.7514
  941SOL    HW1 6415   8.957   2.227   9.390  0.8497 -0.1641  0.5026
  941SOL    HW2 6416   8.939   2.147   9.517  0.7834  0.1282  0.6777
  942SOL     OW 6417   1.886  10.852   8.079 -0.1889  0.3657 -0.4831
  942SOL    HW1 6418   1.815  10.848   8.144 -1.1885  1.3409 -1.4722
  942SOL    HW2 6419   1.960  10.808   8.121 -1.1356  0.0429  0.8951
  943SOL     OW 6420  10.154   3.444   4.203  0.3536  0.4607  0.5393
  943SOL    HW1 6421  10.174   3.484   4.119 -1.1930  0.0789 -0.0402
  943SOL    HW2 6422  10.089   3.503   4.242 -2.3110 -1.5714 -0.5225
  944SOL     OW 6423   1.005   6.228   7.296 -0.3065  0.5632  0.2397
  944SOL    HW1 6424   0.977   6.228   7.204 -1.7323 -1.2534  0.6104
  944SOL    HW2 6425   0.925   6.208   7.345  0.6339  0.5176  1.8131
  945SOL     OW 6426   3.675   0.216   4.794 -0.3478  0.1215 -0.7018
  945SOL    HW1 6427   3.683   0.271   4.716 -1.7641 -0.6678 -1.4439
  945SOL    HW2 6428   3.583   0.224   4.820 -0.1109 -0.3747  0.3277
  946SOL     OW 6429   5.218  10.241   9.432  0.0707 -0.5345 -0.6154
  946SOL    HW1 6430   5.216  10.328   9.391  0.4259 -0.3211 -0.1948
  946SOL    HW2 6431   5.178  10.255   9.518 -1.8169 -1.2379 -1.3445
  947SOL     OW 6432   0.611   1.977   9.600  0.0071  0.3939 -0.1042
  947SOL    HW1 6433   0.623   1.886   9.574 -0.3852  0.5163 -0.7320
  947SOL    HW2 6434   0.689   1.997   9.652  0.5926  0.0071 -0.8073
  948SOL     OW 6435   0.565   2.603   4.816  0.6974  0.0699 -0.2883
  948SOL    HW1 6436   0.597   2.693   4.814  0.4341  0.1490 -0.9251
  948SOL    HW2 6437   0.496   2.604   4.882  1.2731  0.1341  0.3290
  949SOL     OW 6438   6.531   7.615   1.893  0.0371 -0.2407 -0.6334
  949SOL    HW1 6439   6.579   7.634   1.974 -1.8779  1.2768  0.2296
  949SOL    HW2 6440   6.440   7.608   1.921 -0.7098  0.5699 -2.6873
  950SOL     OW 6441   2.970   8.218   3.137 -0.0453  0.3014  0.4537
  950SOL    HW1 6442   2.886   8.246   3.101  0.4324  0.4755 -0.5684
  950SOL    HW2 6443   2.982   8.272   3.215 -0.7253  0.5051  0.4242
  951SOL     OW 6444   6.429  11.015   2.369  0.3335 -0.0105  0.1808
  951SOL    HW1 6445   6.478  11.052   2.442  1.0265 -1.1115  0.2962
  951SOL    HW2 6446   6.474  11.047   2.291  0.0116  0.6048  0.2442
  952SOL     OW 6447   1.418   7.318  10.496 -0.2638  0.3100  0.6888
  952SOL    HW1 6448   1.348   7.300  10.559 -0.6681  1.0652  0.4652
  952SOL    HW2 6449   1.402   7.408  10.468 -0.7623 -0.3495 -1.3418
  953SOL     OW 6450   1.950  10.871  11.084 -0.7588 -0.3457  0.6120
  953SOL    HW1 6451   1.943  10.963  11.110  1.1489 -0.6019  2.2106
  953SOL    HW2 6452   1.964  10.875  10.989 -0.1439  1.0620  0.7308
  954SOL     OW 6453  10.383   9.458   5.494 -0.4144 -0.5892  0.3768
  954SOL    HW1 6454  10.465   9.465   5.541 -0.9670  1.7044  1.0966
  954SOL    HW2 6455  10.315   9.476   5.560 -1.3366  0.1945 -0.7391
  955SOL     OW 6456  10.759   8.737   8.505 -0.0645  0.3452  0.2427
  955SOL    HW1 6457  10.684   8.795   8.521 -0.4137 -0.7246  3.1175
  955SOL    HW2 6458  10.719   8.654   8.479  0.3559  0.7143 -1.7825
  956SOL     OW 6459   9.560   4.207  10.544 -0.1141  0.9407  0.0284
  956SOL    HW1 6460   9.502   4.244  10.611  1.9761  1.3935  1.6852
  956SOL    HW2 6461   9.639   4.261  10.548  0.9000 -0.3758 -1.3027
  957SOL     OW 6462   5.738   8.356   6.709 -0.5373  0.9590  0.1487
  957SOL    HW1 6463   5.755   8.302   6.631 -0.3354  1.6685 -0.3014
  957SOL    HW2 6464   5.824   8.387   6.736 -0.5243  0.1760  1.0658
  958SOL     OW 6465   8.076   9.464   6.904  0.0869 -0.4393 -0.4608
  958SOL    HW1 6466   8.031   9.540   6.941  0.1310 -0.5034 -0.2716
  958SOL    HW2 6467   8.134   9.434   6.974  0.2299 -0.5163 -0.6110
  959SOL     OW 6468   2.134   6.510  10.579 -0.0546 -0.0689 -0.3570
  959SOL    HW1 6469   2.046   6.537  10.552 -1.3897  0.1760  3.5548
  959SOL    HW2 6470   2.181   6.593  10.592  0.6221 -0.1844 -1.9343
  960SOL     OW 6471   9.820   0.115   7.786 -0.0383 -0.7893 -0.1630
  960SOL    HW1 6472   9.851   0.205   7.798 -0.3910 -0.9575  2.5725
  960SOL    HW2 6473   9.725   0.120   7.803  0.1769 -1.8664  1.6130
  961SOL     OW 6474   8.938   0.343   1.382  0.5655  0.1781  0.0548
  961SOL    HW1 6475   8.970   0.402   1.313  0.1723  0.4415  0.0902
  961SOL    HW2 6476   9.005   0.347   1.450  0.9753 -0.1129 -0.3279
  962SOL     OW 6477   8.035   1.900  10.206  0.2386  0.1353  0.2734
  962SOL    HW1 6478   8.030   1.888  10.300  0.0191  2.3105  0.5903
  962SOL    HW2 6479   7.944   1.901  10.176  0.3096 -0.6737 -0.0010
  963SOL     OW 6480   1.249   0.040   2.331 -0.4653  0.7569  0.4118
  963SOL    HW1 6481   1.234   0.041   2.426 -0.8431  0.0006  0.3708
  963SOL    HW2 6482   1.344   0.042   2.322 -0.4516  2.1330  0.7673
  964SOL     OW 6483   9.853   8.401   1.068 -0.1526 -0.7785 -0.0276
  964SOL    HW1 6484   9.817   8.446   0.991 -0.1796  1.1085  1.0470
  964SOL    HW2 6485   9.944   8.384   1.045 -0.1325 -0.1429 -0.4422
  965SOL     OW 6486   2.260   9.275   4.529 -0.3387  0.3556 -0.2597
  965SOL    HW1 6487   2.239   9.346   4.469 -1.0670  0.5332  0.1965
  965SOL    HW2 6488   2.206   9.291   4.606  0.3290 -0.0633  0.3120
  966SOL     OW 6489   3.205   4.489   1.320  0.1847  0.2841 -0.3286
  966SOL    HW1 6490   3.274   4.422   1.325  0.3466  0.5260  1.1088
  966SOL    HW2 6491   3.124   4.439   1.306  0.6020 -0.0105 -1.9410
  967SOL     OW 6492   1.679   1.397   4.977 -1.1264  0.4579 -0.4962
  967SOL    HW1 6493   1.713   1.445   5.052  0.2253 -1.2425  0.0433
  967SOL    HW2 6494   1.750   1.339   4.950 -2.4682 -0.8450 -1.4449
  968SOL     OW 6495   7.179   5.072   4.531 -0.2114  0.2224 -0.1154
  968SOL    HW1 6496   7.239   4.998   4.541  0.3536  0.4544 -1.5928
  968SOL    HW2 6497   7.141   5.060   4.444  1.1852  2.5550 -1.1294
  969SOL     OW 6498   1.617   8.524   6.719 -0.8959 -0.0149  0.1598
  969SOL    HW1 6499   1.598   8.500   6.628 -0.5686 -0.2528  0.1540
  969SOL    HW2 6500   1.531   8.533   6.760 -1.0341 -0.4529 -0.0326
  970SOL     OW 6501   5.708   1.542   1.804 -0.6458  0.4220  0.2154
  970SOL    HW1 6502   5.634   1.482   1.796 -0.4604  0.2393 -0.1588
  970SOL    HW2 6503   5.669   1.624   1.833 -0.9342  0.1928  0.4918
  971SOL     OW 6504   7.324   9.794  11.085  0.1447  0.7987  0.0162
  971SOL    HW1 6505   7.337   9.701  11.103  0.6140  0.7442 -0.5589
  971SOL    HW2 6506   7.316   9.834  11.171  0.5971  0.3092  0.2914
  972SOL     OW 6507   4.135   4.850   4.248  0.1479 -0.1643 -0.1086
  972SOL    HW1 6508   4.150   4.802   4.329 -2.3308 -0.5628  0.1907
  972SOL    HW2 6509   4.119   4.782   4.182 -3.8578 -0.0135  0.4124
  973SOL     OW 6510   3.045   9.480   8.539 -0.1222 -0.2173  0.1761
  973SOL    HW1 6511   2.961   9.468   8.583  0.9510  0.9989  2.7500
  973SOL    HW2 6512   3.023   9.483   8.445 -3.5803  4.0554  0.7794
  974SOL     OW 6513   0.981   2.790   1.315  0.5737 -0.4466  0.1122
  974SOL    HW1 6514   0.951   2.844   1.389  1.2135 -0.7842  0.6320
  974SOL    HW2 6515   0.956   2.839   1.237 -0.5738 -0.3319  0.5447
  975SOL     OW 6516   1.126   4.243   5.683  0.1428  0.1450 -0.2935
  975SOL    HW1 6517   1.186   4.184   5.729  0.4625 -0.2241 -1.1792
  975SOL    HW2 6518   1.155   4.330   5.708 -0.7180 -0.0266  1.5348
  976SOL     OW 6519   8.088   3.736  10.540  0.5128 -0.1396  0.1417
  976SOL    HW1 6520   8.089   3.641  10.549 -0.5442 -0.1877 -0.1477
  976SOL    HW2 6521   8.064   3.768  10.628 -0.0662 -0.1868  0.0048
  977SOL     OW 6522   6.316   1.808   4.039  0.0724  0.1731 -0.2802
  977SOL    HW1 6523   6.364   1.796   4.121  0.5965  0.9975 -0.4441
  977SOL    HW2 6524   6.383   1.838   3.977 -0.3826 -0.1079 -0.9113
  978SOL     OW 6525   0.907   4.569   7.147  0.1390 -0.2209 -0.2298
  978SOL    HW1 6526   0.946   4.602   7.228 -1.3983  1.1459 -0.0052
  978SOL    HW2 6527   0.819   4.542   7.172 -1.1309  2.1733 -1.7822
  979SOL     OW 6528   2.166   0.406   4.707 -0.2954  0.2028 -0.2237
  979SOL    HW1 6529   2.074   0.399   4.682 -0.2463 -2.2351  0.0303
  979SOL    HW2 6530   2.179   0.334   4.770  0.8257  2.9080  2.9439
  980SOL     OW 6531   5.550   7.703   6.650  0.2634  0.2170  0.3268
  980SOL    HW1 6532   5.500   7.694   6.731  0.1789  2.3909  0.5849
  980SOL    HW2 6533   5.638   7.728   6.679  0.9233 -1.3887 -0.2008
  981SOL     OW 6534   5.091   8.389   6.072 -0.0327 -0.9493  0.0219
  981SOL    HW1 6535   5.159   8.414   6.134  1.3750 -1.1133 -1.3744
  981SOL    HW2 6536   5.096   8.456   6.003 -1.2698 -1.0003 -0.1443
  982SOL     OW 6537   4.770   3.523   7.427  0.2172 -0.6822  0.4235
  982SOL    HW1 6538   4.802   3.549   7.514  1.3307 -0.1703 -0.1234
  982SOL    HW2 6539   4.682   3.490   7.443 -0.4974  1.5741  1.4381
  983SOL     OW 6540  10.588   1.141   9.744  0.2221 -0.3511  0.1950
  983SOL    HW1 6541  10.595   1.119   9.837 -3.8352  0.4266  0.8697
  983SOL    HW2 6542  10.638   1.223   9.735  1.0535 -0.6779  1.5501
  984SOL     OW 6543   6.789   2.568   8.389  0.3831  0.0915 -0.0971
  984SOL    HW1 6544   6.765   2.647   8.437  1.3783  0.6187 -0.4378
  984SOL    HW2 6545   6.713   2.548   8.334  0.0094  0.6266  0.2172
  985SOL     OW 6546  10.672   9.458   5.362  0.2807  0.0088  0.8652
  985SOL    HW1 6547  10.717   9.396   5.305  0.6469  0.5682  0.5376
  985SOL    HW2 6548  10.618   9.511   5.303 -0.9210 -0.7405  1.2694
  986SOL     OW 6549   3.086   0.577   0.953 -0.1894 -0.1745  0.2529
  986SOL    HW1 6550   3.021   0.646   0.940 -0.8599 -0.3060  2.3824
  986SOL    HW2 6551   3.144   0.611   1.021  1.7017 -0.2820 -1.2342
  987SOL     OW 6552   0.274  11.017   7.175 -0.0254  0.1530  0.0318
  987SOL    HW1 6553   0.268  11.030   7.081  0.7941 -1.2727 -0.2608
  987SOL    HW2 6554   0.368  11.002   7.191 -0.2225 -0.1561  0.9866
  988SOL     OW 6555   3.780  10.739  10.937 -0.6385  0.5275 -0.0585
  988SOL    HW1 6556   3.762  10.666  10.877  2.9834  0.4305 -1.2680
  988SOL    HW2 6557   3.821  10.698  11.013 -0.4400  1.1057  0.1504
  989SOL     OW 6558   6.687   1.004   0.515  0.6482  0.0213 -0.0171
  989SOL    HW1 6559   6.637   0.935   0.558  0.9671  0.0754  0.4512
  989SOL    HW2 6560   6.629   1.036   0.446  0.5637 -0.8152 -0.3437
  990SOL     OW 6561   4.996   5.053   6.848 -0.3755  0.2952  1.0115
  990SOL    HW1 6562   4.950   4.975   6.878 -0.5066  1.0311  2.8386
  990SOL    HW2 6563   4.951   5.079   6.767 -2.1970  0.1323  1.9488
  991SOL     OW 6564   1.502   5.666   5.423  0.5741 -0.4412 -0.0821
  991SOL    HW1 6565   1.444   5.619   5.483  1.5520 -0.5304  0.8217
  991SOL    HW2 6566   1.490   5.622   5.339  0.2700 -1.2660  0.3808
  992SOL     OW 6567   8.726   2.433   6.713  0.0570 -0.3152 -0.3247
  992SOL    HW1 6568   8.806   2.480   6.736 -0.7110  1.0669 -0.3644
  992SOL    HW2 6569   8.744   2.342   6.738  1.1357  0.1968  0.9017
  993SOL     OW 6570   2.160   8.698   0.510 -0.3246 -0.6894  0.1258
  993SOL    HW1 6571   2.254   8.715   0.522 -0.6042  1.2419 -0.1073
  993SOL    HW2 6572   2.146   8.613   0.551  1.6768 -1.4228 -0.5494
  994SOL     OW 6573  10.387   2.051   6.255 -0.5980 -0.1888 -0.6694
  994SOL    HW1 6574  10.314   2.035   6.316 -1.6227 -1.1286 -2.0709
  994SOL    HW2 6575  10.414   1.964   6.227  0.6094  0.1872 -0.7347
  995SOL     OW 6576   3.795  10.879   0.867 -0.8663  0.0085  0.2254
  995SOL    HW1 6577   3.711  10.852   0.831 -0.5298  0.3737 -0.8620
  995SOL    HW2 6578   3.832  10.938   0.802  0.4964 -0.5999  0.4001
  996SOL     OW 6579   1.146   9.563   0.382 -0.7460  0.2570 -0.0632
  996SOL    HW1 6580   1.068   9.560   0.327 -0.6968  2.5387 -0.3536
  996SOL    HW2 6581   1.132   9.494   0.447 -1.8610 -0.9701 -1.5448
  997SOL     OW 6582   7.697   5.346   6.810 -0.0007  0.4277  0.2844
  997SOL    HW1 6583   7.730   5.414   6.751  0.8342  0.4904  0.8103
  997SOL    HW2 6584   7.768   5.282   6.815 -0.1918  0.2635  0.9731
  998SOL     OW 6585   6.945   7.673   8.637 -0.0084  0.2875 -0.4601
  998SOL    HW1 6586   6.880   7.605   8.618  0.6698 -0.2042 -1.0548
  998SOL    HW2 6587   6.979   7.649   8.723  1.2658 -0.9864 -1.2831
  999SOL     OW 6588   7.043   1.260   9.473 -0.4206  0.2176  0.1546
  999SOL    HW1 6589   7.136   1.263   9.495 -0.7065 -1.5796  1.8685
  999SOL    HW2 6590   7.041   1.239   9.379  0.9262 -0.7643  0.3171
 1000SOL     OW 6591   9.603   9.725   4.568  0.4926 -0.3019 -0.0018
 1000SOL    HW1 6592   9.656   9.804   4.581 -0.0758  0.4061 -1.6424
 1000SOL    HW2 6593   9.526   9.756   4.521  0.3780 -1.8618 -0.9210
 1001SOL     OW 6594   3.847  10.214   8.750  0.1329 -0.3510  0.0009
 1001SOL    HW1 6595   3.830  10.121   8.732  2.5237 -0.5716 -1.7056
 1001SOL    HW2 6596   3.939  10.216   8.777 -0.0457  1.4895  0.5901
 1002SOL     OW 6597   2.779   5.541   7.021 -0.0910  0.4121  0.6160
 1002SOL    HW1 6598   2.737   5.590   6.950 -0.7296 -0.4709  0.3617
 1002SOL    HW2 6599   2.788   5.604   7.092 -0.8568  0.9185  0.2772
 1003SOL     OW 6600   2.682   1.599   9.121 -0.2987  0.2195 -0.3412
 1003SOL    HW1 6601   2.691   1.508   9.149  0.3768 -0.1021 -1.5266
 1003SOL    HW2 6602   2.674   1.649   9.202 -3.2275 -1.1002  0.3396
 1004SOL     OW 6603   6.305   4.708   4.791 -0.0498  0.3310  0.7611
 1004SOL    HW1 6604   6.288   4.631   4.846 -0.1751 -1.3599 -1.4947
 1004SOL    HW2 6605   6.382   4.684   4.739 -1.7227  0.4658 -2.0207
 1005SOL     OW 6606   6.255   2.966   9.980  0.5876  0.1542  0.1624
 1005SOL    HW1 6607   6.216   2.996   9.898  0.3736  0.0910  0.2390
 1005SOL    HW2 6608   6.216   2.880   9.995  1.2521 -0.1917 -0.0873
 1006SOL     OW 6609   8.214  10.913   5.749  0.3540 -0.5512 -0.3914
 1006SOL    HW1 6610   8.136  10.859   5.761  0.8970 -1.0811  1.0801
 1006SOL    HW2 6611   8.287  10.850   5.752  0.9545  0.1606  0.5729
 1007SOL     OW 6612   6.818   8.000   3.005 -0.4261  0.1630  0.2262
 1007SOL    HW1 6613   6.890   8.061   3.017 -0.8644  0.7541 -0.1099
 1007SOL    HW2 6614   6.823   7.974   2.913 -0.4600 -0.0318  0.2774
 1008SOL     OW 6615   5.061   8.190   1.210 -0.0886 -0.3698 -0.5939
 1008SOL    HW1 6616   5.118   8.214   1.137 -0.2207 -0.8965 -0.8724
 1008SOL    HW2 6617   5.085   8.100   1.230 -0.3878 -0.3842 -0.2983
 1009SOL     OW 6618   0.724   2.776   8.615  0.4633  0.0056 -0.0125
 1009SOL    HW1 6619   0.660   2.704   8.622  0.8400 -0.2093  1.9722
 1009SOL    HW2 6620   0.728   2.812   8.704  1.6832  1.2697 -0.5495
 1010SOL     OW 6621  10.283   3.379   3.219 -0.2794  0.0579  0.5165
 1010SOL    HW1 6622  10.346   3.330   3.272  0.9319  0.5668 -0.3898
 1010SOL    HW2 6623  10.315   3.470   3.223 -1.8892  0.6203  1.3394
 1011SOL     OW 6624   9.071   1.510   1.938 -0.2305 -0.1239  0.0890
 1011SOL    HW1 6625   8.982   1.476   1.925 -0.6687  0.5506  1.1379
 1011SOL    HW2 6626   9.080   1.579   1.873 -0.0197 -0.9721 -0.8119
 1012SOL     OW 6627   0.993  10.000   0.996  0.3757  0.5283  0.3657
 1012SOL    HW1 6628   1.042   9.943   0.937 -0.1482 -0.5428  0.9396
 1012SOL    HW2 6629   1.006  10.088   0.961 -1.7133 -0.2308 -2.7383
 1013SOL     OW 6630   4.574   0.533   9.694 -0.2226 -0.2663 -0.5975
 1013SOL    HW1 6631   4.667   0.529   9.668  0.2086  0.1045  0.8278
 1013SOL    HW2 6632   4.572   0.495   9.782 -1.1484  1.2478  0.0658
 1014SOL     OW 6633   8.705   7.720   7.883 -0.0495 -0.3186 -0.3514
 1014SOL    HW1 6634   8.772   7.761   7.829  0.9296 -1.6822 -0.2128
 1014SOL    HW2 6635   8.624   7.731   7.834  0.4409  0.4598 -0.9977
 1015SOL     OW 6636   6.059   1.570   3.897 -0.2579  0.6970  0.0730
 1015SOL    HW1 6637   6.106   1.489   3.919  0.1150  0.9710  0.2922
 1015SOL    HW2 6638   6.093   1.595   3.811 -0.1247  0.8014  0.1551
 1016SOL     OW 6639   9.367  10.737   5.580 -0.8418 -0.1672  0.2521
 1016SOL    HW1 6640   9.420  10.814   5.561 -1.6869  0.4473  0.3235
 1016SOL    HW2 6641   9.393  10.673   5.514  0.0743  0.0808  0.3692
 1017SOL     OW 6642   5.419   8.148   4.450  0.1367  0.1687  0.8627
 1017SOL    HW1 6643   5.330   8.137   4.484 -0.4222  0.5673 -0.4332
 1017SOL    HW2 6644   5.456   8.060   4.451 -1.0525 -0.3780 -0.6540
 1018SOL     OW 6645   8.196   8.828   4.272 -0.0245 -0.5800  0.3653
 1018SOL    HW1 6646   8.228   8.918   4.268  1.5387 -1.1056  0.3340
 1018SOL    HW2 6647   8.270   8.775   4.242 -1.6662 -1.7424 -1.9055
 1019SOL     OW 6648   5.942   4.360   8.919 -0.2823  0.1228  0.4428
 1019SOL    HW1 6649   5.875   4.301   8.954 -0.4378  0.2585  0.3748
 1019SOL    HW2 6650   5.935   4.350   8.824 -0.6555  0.6356  0.4177
 1020SOL     OW 6651   0.276   5.513   3.084 -0.3610 -0.4880  0.4639
 1020SOL    HW1 6652   0.184   5.509   3.113 -0.3361 -1.4289  0.4434
 1020SOL    HW2 6653   0.286   5.438   3.026  0.3010 -0.1122  0.0827
 1021SOL     OW 6654   6.795   8.724   4.982 -0.5599 -0.1390 -0.3067
 1021SOL    HW1 6655   6.782   8.758   5.070 -0.8064 -0.7472 -0.0993
 1021SOL    HW2 6656   6.812   8.801   4.928 -1.9938  0.4003 -0.0262
 1022SOL     OW 6657   9.901   8.604   0.393 -0.5104 -0.2251 -0.0947
 1022SOL    HW1 6658   9.993   8.596   0.369 -0.3018 -1.1852  0.9673
 1022SOL    HW2 6659   9.855   8.550   0.328 -0.1445 -1.1685  0.4116
 1023SOL     OW 6660   5.381   8.362   7.087 -0.1625 -0.3483 -0.5016
 1023SOL    HW1 6661   5.466   8.344   7.048  0.5285 -0.6453  1.0738
 1023SOL    HW2 6662   5.318   8.320   7.028  0.9529 -2.2274 -0.4104
 1024SOL     OW 6663   2.308   0.826   1.907 -0.4041  0.4573  0.1098
 1024SOL    HW1 6664   2.233   0.802   1.961 -0.6088  0.3401 -0.2241
 1024SOL    HW2 6665   2.350   0.898   1.954 -1.1196  0.9827 -0.0421
 1025SOL     OW 6666   2.543   4.270   8.882  0.4611 -0.2779  0.1776
 1025SOL    HW1 6667   2.545   4.248   8.789 -4.1249 -0.4666 -0.1113
 1025SOL    HW2 6668   2.529   4.365   8.883  1.8363 -0.0657  0.7693
 1026SOL     OW 6669   0.403   6.675   5.190 -0.0763  0.4367  0.6281
 1026SOL    HW1 6670   0.496   6.659   5.209 -0.6094 -2.8534  1.0735
 1026SOL    HW2 6671   0.358   6.600   5.229 -3.0024  2.1420  0.7730
 1027SOL     OW 6672   7.276   4.098   7.431 -0.0961  1.2917  1.0446
 1027SOL    HW1 6673   7.194   4.088   7.478 -0.4692  1.4307  0.4372
 1027SOL    HW2 6674   7.311   4.009   7.423 -0.9337  1.0380  0.0057
 1028SOL     OW 6675   0.631   0.203   8.417  0.3953 -0.2979 -0.3645
 1028SOL    HW1 6676   0.545   0.221   8.454  0.4803 -0.2241 -0.1985
 1028SOL    HW2 6677   0.614   0.148   8.341  0.3302 -1.8856  0.7541
 1029SOL     OW 6678   5.293   9.937   3.360  0.5164  0.1810  0.1284
 1029SOL    HW1 6679   5.290   9.864   3.422  1.9854  0.7139  0.8634
 1029SOL    HW2 6680   5.206   9.976   3.365 -0.2521 -1.3986 -0.1686
 1030SOL     OW 6681   9.641   1.185   4.368  0.1584 -0.2394  0.7593
 1030SOL    HW1 6682   9.546   1.194   4.382  0.1543  0.1106  0.5186
 1030SOL    HW2 6683   9.649   1.118   4.300 -0.0439  1.5616 -1.1282
 1031SOL     OW 6684   9.953   4.195   6.720  0.1710 -0.6424  0.0080
 1031SOL    HW1 6685   9.888   4.136   6.682  0.3283 -0.9229  0.1720
 1031SOL    HW2 6686  10.017   4.209   6.650 -0.9638  1.0366 -0.7655
 1032SOL     OW 6687   9.314   8.458   8.455  0.5256  0.0344 -0.0977
 1032SOL    HW1 6688   9.225   8.433   8.483  0.1916  0.6471 -0.6082
 1032SOL    HW2 6689   9.302   8.536   8.402  1.3842  0.1455 -0.1409
 1033SOL     OW 6690  10.220   0.022   1.685 -0.0670  0.0231  0.2301
 1033SOL    HW1 6691  10.135   0.006   1.643 -0.8826  0.2131  1.7624
 1033SOL    HW2 6692  10.201   0.022   1.779  1.8140 -1.0077  0.6602
 1034SOL     OW 6693   3.577   3.074   9.883  0.4127 -0.3667 -0.1985
 1034SOL    HW1 6694   3.555   3.006   9.946 -0.7523 -0.3094 -0.5250
 1034SOL    HW2 6695   3.500   3.131   9.881  1.3486  0.9608  0.0593
 1035SOL     OW 6696   1.121   5.532   6.234  0.2234  0.5138 -0.7561
 1035SOL    HW1 6697   1.166   5.476   6.171 -0.6517 -0.2990 -0.6802
 1035SOL    HW2 6698   1.117   5.617   6.191 -1.6007 -0.3537 -2.4432
 1036SOL     OW 6699   3.850   4.074   8.181  0.0388  0.0475 -0.1052
 1036SOL    HW1 6700   3.858   4.041   8.271  0.0713  0.9830  0.2509
 1036SOL    HW2 6701   3.908   4.151   8.180  0.7758 -0.5033 -1.2060
 1037SOL     OW 6702   6.712   5.590   2.185 -0.5192 -0.0113  0.2303
 1037SOL    HW1 6703   6.618   5.573   2.179 -0.8700  1.7958  0.1870
 1037SOL    HW2 6704   6.718   5.679   2.220  1.1995 -0.4763  1.1931
 1038SOL     OW 6705  11.059   5.867   0.613 -0.3692 -0.0190 -0.3297
 1038SOL    HW1 6706  11.038   5.922   0.688 -1.0892 -0.5138 -0.1643
 1038SOL    HW2 6707  11.041   5.923   0.537  0.1342  0.4023 -0.1484
 1039SOL     OW 6708   8.866   9.023   7.875 -0.6429 -0.7773 -0.1183
 1039SOL    HW1 6709   8.928   8.952   7.860  0.5858 -0.1085  1.6002
 1039SOL    HW2 6710   8.878   9.081   7.800  0.6091 -0.7990  0.0532
 1040SOL     OW 6711   5.985   8.443   6.803  0.0608  0.2480 -0.1424
 1040SOL    HW1 6712   6.080   8.450   6.796  0.0844  0.8529  0.6642
 1040SOL    HW2 6713   5.969   8.422   6.895 -0.5615 -0.4190 -0.3949
 1041SOL     OW 6714   8.046   2.468   4.020  0.0640  0.1269 -0.0641
 1041SOL    HW1 6715   8.138   2.439   4.020 -0.1906 -0.8829 -2.3232
 1041SOL    HW2 6716   8.016   2.452   4.109  2.1538  0.7679  0.8175
 1042SOL     OW 6717  10.214   9.052   9.906 -0.6729  0.5590 -0.2617
 1042SOL    HW1 6718  10.230   8.968   9.862  0.4513  0.2836  0.6501
 1042SOL    HW2 6719  10.118   9.056   9.914 -0.7641 -0.4580 -0.6312
 1043SOL     OW 6720   8.264   6.764   4.115 -0.0704  0.2367 -0.3255
 1043SOL    HW1 6721   8.359   6.779   4.114  0.0185 -0.2941 -0.1564
 1043SOL    HW2 6722   8.237   6.788   4.203 -0.0021 -0.1492 -0.1990
 1044SOL     OW 6723   2.637   6.447   0.894  0.0468 -0.0022  0.5650
 1044SOL    HW1 6724   2.576   6.501   0.945 -0.4800  0.6500 -0.7113
 1044SOL    HW2 6725   2.714   6.438   0.950 -0.3151  1.1113  1.2681
 1045SOL     OW 6726   0.776   9.369   7.115 -0.1306 -0.0229  0.1912
 1045SOL    HW1 6727   0.755   9.447   7.166  0.1982  0.7092 -0.7671
 1045SOL    HW2 6728   0.692   9.340   7.080 -0.2927 -0.2680  0.7732
 1046SOL     OW 6729   4.949   3.948   6.556 -0.1642 -0.1507 -0.4075
 1046SOL    HW1 6730   4.989   4.022   6.602 -1.2417 -0.4467  1.1041
 1046SOL    HW2 6731   4.865   3.980   6.525  0.4369 -0.0386 -2.0112
 1047SOL     OW 6732   2.743   2.716   0.483  0.0197  0.3863  0.3527
 1047SOL    HW1 6733   2.672   2.652   0.482  0.3988 -0.0813 -1.5953
 1047SOL    HW2 6734   2.792   2.696   0.563 -1.2961 -0.1033  1.0695
 1048SOL     OW 6735   5.978   6.000   6.368 -0.0061  0.5352 -0.5379
 1048SOL    HW1 6736   5.883   6.009   6.370 -0.0940 -0.2745  1.5916
 1048SOL    HW2 6737   6.011   6.072   6.422  0.4866 -0.0328 -0.0662
 1049SOL     OW 6738   5.271   9.824   1.938 -0.6945 -0.1906 -0.0200
 1049SOL    HW1 6739   5.319   9.743   1.953 -0.7246 -0.5016 -1.4642
 1049SOL    HW2 6740   5.324   9.873   1.875 -0.5510  1.0423  1.0199
 1050SOL     OW 6741   3.770   5.533   9.074  0.2263  0.1799  0.0088
 1050SOL    HW1 6742   3.725   5.614   9.097 -0.1913  0.0478 -0.3237
 1050SOL    HW2 6743   3.809   5.551   8.989 -1.9230 -0.7328 -1.2493
 1051SOL     OW 6744  10.446   9.254   9.209  0.4049 -0.5555 -0.1783
 1051SOL    HW1 6745  10.443   9.203   9.290 -0.1510 -3.1687 -1.7268
 1051SOL    HW2 6746  10.539   9.254   9.184  0.7710  1.2686  0.9649
 1052SOL     OW 6747   2.644   2.150   0.042  0.0412 -0.2475 -0.3267
 1052SOL    HW1 6748   2.693   2.067   0.043  0.2039 -0.1533 -0.4544
 1052SOL    HW2 6749   2.591   2.146  -0.038  0.7927  0.2008 -0.8575
 1053SOL     OW 6750   0.863  10.726   8.341  0.3393  0.2802 -0.0317
 1053SOL    HW1 6751   0.877  10.684   8.256  0.2758 -1.1250  0.6214
 1053SOL    HW2 6752   0.771  10.708   8.361  0.3328  0.6803  0.3045
 1054SOL     OW 6753   8.295   3.177  11.045 -0.3703  0.3169  0.8100
 1054SOL    HW1 6754   8.258   3.089  11.047  0.2947 -0.0575 -1.3882
 1054SOL    HW2 6755   8.376   3.170  11.096  0.1513 -0.5999 -0.1152
 1055SOL     OW 6756   4.831   3.651   7.919  0.0716  0.5291  0.0313
 1055SOL    HW1 6757   4.843   3.577   7.859  0.5496 -1.3008  2.2219
 1055SOL    HW2 6758   4.736   3.659   7.928  0.0120  0.3779 -0.4430
 1056SOL     OW 6759   7.400   3.898   6.025 -0.6927 -0.0850  0.0696
 1056SOL    HW1 6760   7.446   3.980   6.008 -1.2304  0.3781  0.8291
 1056SOL    HW2 6761   7.400   3.853   5.940  1.6862 -0.3933  0.1672
 1057SOL     OW 6762   0.284   2.320   0.951  0.2363 -0.6229 -0.0541
 1057SOL    HW1 6763   0.354   2.268   0.991  0.2663 -0.7568 -0.2762
 1057SOL    HW2 6764   0.250   2.264   0.881  1.2163  0.2077 -1.2312
 1058SOL     OW 6765   6.529   2.626   1.076  0.3956 -0.0766 -0.1416
 1058SOL    HW1 6766   6.475   2.555   1.111  0.4963 -0.0409  0.0912
 1058SOL    HW2 6767   6.467   2.696   1.055  0.0789 -0.8899 -2.0845
 1059SOL     OW 6768  10.193   8.998   8.384 -0.2606  0.5801 -0.0497
 1059SOL    HW1 6769  10.154   8.999   8.297 -0.2045  1.8383 -0.0703
 1059SOL    HW2 6770  10.118   9.004   8.444 -0.5294 -2.6923  0.1322
 1060SOL     OW 6771   1.591   0.834   4.937 -0.5692  0.7332 -0.2181
 1060SOL    HW1 6772   1.673   0.881   4.923  1.1723 -2.1939 -0.8015
 1060SOL    HW2 6773   1.599   0.796   5.025  1.6855 -4.4327 -2.2277
 1061SOL     OW 6774   1.730  10.991   9.456  0.1049  0.1415 -0.0893
 1061SOL    HW1 6775   1.704  10.930   9.386 -0.1923  0.0257  0.1215
 1061SOL    HW2 6776   1.820  11.013   9.436 -0.0629  0.3217 -0.6690
 1062SOL     OW 6777  10.954   3.100   0.532  0.0811  0.2833  0.4685
 1062SOL    HW1 6778  10.900   3.064   0.603 -1.6762  1.5670 -0.1395
 1062SOL    HW2 6779  11.029   3.041   0.527 -0.5228 -0.7490  2.3383
 1063SOL     OW 6780   3.639   3.506   6.905  0.0406  0.0181 -0.2096
 1063SOL    HW1 6781   3.725   3.518   6.945  0.6994 -2.6857 -0.6220
 1063SOL    HW2 6782   3.578   3.542   6.969  1.4375  1.8730  0.1469
 1064SOL     OW 6783   2.783   8.215   9.829 -0.3078 -0.5046  0.1994
 1064SOL    HW1 6784   2.768   8.121   9.823 -0.9314 -0.7503  3.7358
 1064SOL    HW2 6785   2.696   8.253   9.842 -0.0985  0.6819 -1.4175
 1065SOL     OW 6786   0.464   3.181   9.479  0.0865  0.3451  0.5176
 1065SOL    HW1 6787   0.416   3.109   9.521 -1.1169  0.8107 -0.0154
 1065SOL    HW2 6788   0.404   3.214   9.412  1.3027  0.7194 -0.4258
 1066SOL     OW 6789   6.020   3.668   2.336  0.0110  0.2668  0.4193
 1066SOL    HW1 6790   5.960   3.618   2.281  0.0613  1.4972 -0.8091
 1066SOL    HW2 6791   6.034   3.613   2.413 -1.0545 -0.9468 -0.2233
 1067SOL     OW 6792   3.373   4.678   0.518  0.1846 -0.1518 -0.5692
 1067SOL    HW1 6793   3.384   4.642   0.606 -0.5373  1.5525  0.2568
 1067SOL    HW2 6794   3.430   4.754   0.516 -0.8398  0.6254 -1.0810
 1068SOL     OW 6795   2.527   8.569   9.641 -0.2422 -0.2713  0.2564
 1068SOL    HW1 6796   2.580   8.489   9.634  1.2475  0.6642  0.2730
 1068SOL    HW2 6797   2.483   8.561   9.725  0.5843 -0.6987  0.6680
 1069SOL     OW 6798   4.347  10.710   4.850 -0.0399 -0.3498  0.8279
 1069SOL    HW1 6799   4.303  10.705   4.764 -0.9312 -0.2597  1.2688
 1069SOL    HW2 6800   4.412  10.640   4.847 -0.7419 -1.0011  0.4406
 1070SOL     OW 6801   6.260   4.971   1.592  0.2401  0.0354 -0.5363
 1070SOL    HW1 6802   6.233   5.046   1.646 -1.0808 -0.6813 -0.1701
 1070SOL    HW2 6803   6.201   4.973   1.517 -0.4213 -1.1711 -0.0674
 1071SOL     OW 6804   9.265   1.693   5.081 -0.2191 -0.1968  0.7050
 1071SOL    HW1 6805   9.232   1.617   5.129 -0.2304 -1.7180 -1.5739
 1071SOL    HW2 6806   9.202   1.707   5.010  1.3992 -0.0642 -0.7861
 1072SOL     OW 6807   8.829   4.513   5.591  0.4909  0.8324  0.0332
 1072SOL    HW1 6808   8.794   4.560   5.516 -1.4723  0.6039  0.7355
 1072SOL    HW2 6809   8.846   4.425   5.559 -4.1250 -0.5207  0.5742
 1073SOL     OW 6810   3.698   6.817   4.883 -0.5208 -0.1242 -0.2949
 1073SOL    HW1 6811   3.683   6.860   4.799 -0.4004  0.2446 -0.1295
 1073SOL    HW2 6812   3.730   6.730   4.861 -0.3444  0.0266 -0.6279
 1074SOL     OW 6813   8.647   3.253  10.978 -0.3831  0.3878 -0.1653
 1074SOL    HW1 6814   8.589   3.221  10.910  1.2607  0.2156 -1.5634
 1074SOL    HW2 6815   8.710   3.309  10.932  0.7026  0.3791  1.2294
 1075SOL     OW 6816   7.228   1.356   0.064  0.6369  0.0431 -0.5170
 1075SOL    HW1 6817   7.152   1.360   0.006 -0.3081 -0.3408  0.6299
 1075SOL    HW2 6818   7.220   1.271   0.107  0.6587  0.7567  0.9664
 1076SOL     OW 6819   3.032   6.785   8.789 -0.1501  0.1880 -0.4206
 1076SOL    HW1 6820   3.016   6.750   8.701 -1.2216  0.8152 -0.4969
 1076SOL    HW2 6821   3.096   6.854   8.776  0.7867 -0.6739 -0.4937
 1077SOL     OW 6822  10.318   1.824   4.662  0.4344 -0.1283  0.3973
 1077SOL    HW1 6823  10.249   1.838   4.727  0.1630 -0.9585  0.3017
 1077SOL    HW2 6824  10.399   1.848   4.707  0.1796 -0.0512  0.8209
 1078SOL     OW 6825   3.706   0.622   2.830  0.0923  0.2616  0.3771
 1078SOL    HW1 6826   3.639   0.590   2.768 -0.4265  1.3920  0.3296
 1078SOL    HW2 6827   3.656   0.647   2.908  0.2433  2.3842 -0.1452
 1079SOL     OW 6828   2.083   3.853   3.317  0.1748 -0.2992 -0.5412
 1079SOL    HW1 6829   2.067   3.772   3.366  1.5102  0.3774  1.1228
 1079SOL    HW2 6830   2.165   3.837   3.271  1.9600  0.9316  1.9505
 1080SOL     OW 6831   2.749   3.601   0.100 -0.4439  0.1893 -0.6241
 1080SOL    HW1 6832   2.783   3.536   0.038 -1.1896 -0.1226 -0.7164
 1080SOL    HW2 6833   2.675   3.557   0.142 -1.7183  1.3772 -1.5418
 1081SOL     OW 6834   3.011   8.334   1.001  0.3955  0.0258 -0.0515
 1081SOL    HW1 6835   3.096   8.300   0.974  0.1576  0.5868 -1.6411
 1081SOL    HW2 6836   2.953   8.315   0.928 -0.9991 -0.7982  1.2091
 1082SOL     OW 6837   8.796   3.150   1.715 -0.2717 -0.1735  0.3283
 1082SOL    HW1 6838   8.802   3.117   1.625  0.9568  0.3677  0.1979
 1082SOL    HW2 6839   8.820   3.075   1.769 -2.4116 -0.9479  0.3359
 1083SOL     OW 6840   5.722   7.284   5.263  0.5193  0.1717  0.1663
 1083SOL    HW1 6841   5.778   7.356   5.232  2.2241 -1.4047 -0.6339
 1083SOL    HW2 6842   5.640   7.326   5.288 -0.1996  1.9615 -4.3114
 1084SOL     OW 6843   5.347   2.660   7.357 -0.3157  0.5459 -0.0468
 1084SOL    HW1 6844   5.360   2.682   7.265 -2.3900  0.3005 -0.4590
 1084SOL    HW2 6845   5.406   2.718   7.404  0.7312  0.7392 -1.5165
 1085SOL     OW 6846   2.410   6.496  10.887 -0.3392  0.0342  0.4570
 1085SOL    HW1 6847   2.386   6.410  10.919 -2.4278  0.1005 -0.7258
 1085SOL    HW2 6848   2.424   6.548  10.966 -0.2068 -1.0760  1.1875
 1086SOL     OW 6849   0.517   9.021   2.167  0.4368 -0.6556 -0.7278
 1086SOL    HW1 6850   0.530   9.023   2.072  1.2506  1.0825 -0.6254
 1086SOL    HW2 6851   0.570   8.946   2.196  0.3503 -1.0815 -1.6170
 1087SOL     OW 6852   6.341   8.505   8.073 -0.5063 -0.1951  0.3781
 1087SOL    HW1 6853   6.392   8.505   7.992 -1.7534 -1.5200 -0.4591
 1087SOL    HW2 6854   6.407   8.508   8.143  0.8159 -2.4204 -0.6501
 1088SOL     OW 6855   1.784   8.708   5.813 -0.3412 -0.4200  0.5436
 1088SOL    HW1 6856   1.710   8.707   5.873 -1.0432  0.7223 -0.2693
 1088SOL    HW2 6857   1.821   8.796   5.821 -0.0222 -0.4761 -0.1852
 1089SOL     OW 6858   3.827   2.294  10.833 -0.3131 -0.2308 -0.0989
 1089SOL    HW1 6859   3.756   2.249  10.788 -1.2992  0.0747  1.0767
 1089SOL    HW2 6860   3.857   2.232  10.900 -2.0154  0.9265  1.8625
 1090SOL     OW 6861   1.899   1.234   0.480 -0.3468 -0.3970  0.0933
 1090SOL    HW1 6862   1.914   1.320   0.519 -0.8607  0.2578 -1.1312
 1090SOL    HW2 6863   1.842   1.189   0.543 -0.1891  0.1974  0.6698
 1091SOL     OW 6864   3.035   0.559   8.145  0.1425  0.0736 -0.3796
 1091SOL    HW1 6865   3.003   0.475   8.111  1.8483 -0.8637  0.2108
 1091SOL    HW2 6866   3.094   0.535   8.217  1.5498  1.7255 -0.9088
 1092SOL     OW 6867   8.107  10.515   2.860  0.7573  0.5518  0.0468
 1092SOL    HW1 6868   8.100  10.438   2.804 -2.2315  1.1904 -0.6373
 1092SOL    HW2 6869   8.037  10.505   2.924  1.1998  2.0409  0.8117
 1093SOL     OW 6870  10.210   4.975   3.760 -0.0149  0.2407  0.3206
 1093SOL    HW1 6871  10.220   5.004   3.669  0.4942 -0.9382 -0.0246
 1093SOL    HW2 6872  10.223   5.054   3.812 -0.3220  0.9330 -0.6358
 1094SOL     OW 6873   7.433   7.138   1.037 -0.3662  0.6226  0.2411
 1094SOL    HW1 6874   7.400   7.049   1.036 -0.1589  0.5361  0.7546
 1094SOL    HW2 6875   7.367   7.190   0.991 -0.5850  0.2402  0.1291
 1095SOL     OW 6876   0.431   7.820  10.783 -0.0825  0.1492 -0.2403
 1095SOL    HW1 6877   0.522   7.835  10.757  0.6380 -2.5199  0.4537
 1095SOL    HW2 6878   0.437   7.756  10.854 -2.4892  0.3503  0.2184
 1096SOL     OW 6879   3.298   1.770  10.241 -0.2376 -0.1285 -0.2310
 1096SOL    HW1 6880   3.295   1.865  10.238  1.9105  0.0576  1.2638
 1096SOL    HW2 6881   3.233   1.746  10.307 -1.1085  0.2279 -0.9333
 1097SOL     OW 6882   2.018   4.216   5.213  0.5640 -0.2383  0.0074
 1097SOL    HW1 6883   2.052   4.298   5.178 -0.7611  0.8948  1.2227
 1097SOL    HW2 6884   1.967   4.178   5.142  1.7042 -0.3423 -0.7699
 1098SOL     OW 6885   3.696   7.377  10.445  0.2443 -0.1462 -0.1663
 1098SOL    HW1 6886   3.614   7.413  10.477  0.2358 -0.4525  0.1548
 1098SOL    HW2 6887   3.671   7.321  10.372  0.0949 -0.7767  0.3576
 1099SOL     OW 6888  10.035   0.401   3.393 -0.6117 -0.4410 -0.0240
 1099SOL    HW1 6889  10.005   0.434   3.478  1.1214  0.5832  0.2480
 1099SOL    HW2 6890  10.009   0.309   3.393 -0.8057 -0.4229  1.5512
 1100SOL     OW 6891   8.315   8.776   6.631 -0.2960  0.2467 -0.7689
 1100SOL    HW1 6892   8.280   8.794   6.719  1.4684 -0.1601  0.0672
 1100SOL    HW2 6893   8.289   8.686   6.613 -1.1725  0.5229 -0.9418
 1101SOL     OW 6894   9.005   9.818   9.587 -0.2192 -0.1245 -0.2439
 1101SOL    HW1 6895   9.025   9.734   9.546  2.1500  0.0480  0.3726
 1101SOL    HW2 6896   9.024   9.804   9.680  1.8327  1.4546 -0.3411
 1102SOL     OW 6897   3.909   0.437   2.034  0.5822 -0.6505 -0.5464
 1102SOL    HW1 6898   3.881   0.389   2.112  0.8009 -0.2627 -0.2227
 1102SOL    HW2 6899   3.858   0.399   1.963  0.5656 -1.1827 -0.2564
 1103SOL     OW 6900  10.009   2.338   1.657 -0.0157 -0.3726 -0.6949
 1103SOL    HW1 6901  10.066   2.396   1.607  1.5668 -0.6329  0.7212
 1103SOL    HW2 6902   9.923   2.380   1.654  0.3258  0.2631 -2.5137
 1104SOL     OW 6903   6.736   1.623   9.547  0.3451 -0.1536 -0.3641
 1104SOL    HW1 6904   6.831   1.634   9.557  0.1785  1.7058 -0.5036
 1104SOL    HW2 6905   6.727   1.554   9.480  1.6021  0.2638 -0.9980
 1105SOL     OW 6906   1.474   7.223   2.140  0.0484  0.3018 -0.4207
 1105SOL    HW1 6907   1.476   7.261   2.228 -0.8537  0.9290 -0.6521
 1105SOL    HW2 6908   1.508   7.134   2.152 -0.7991  0.0989  0.7197
 1106SOL     OW 6909   6.895   3.395   3.405  0.1465  0.1063 -0.2158
 1106SOL    HW1 6910   6.825   3.427   3.462  1.6234 -0.0608  1.8091
 1106SOL    HW2 6911   6.852   3.331   3.348 -2.1068  2.7903 -1.7989
 1107SOL     OW 6912   0.317   8.698   2.999  0.0961  0.3123  0.0360
 1107SOL    HW1 6913   0.323   8.769   3.062 -1.6351  0.4093  0.1353
 1107SOL    HW2 6914   0.334   8.619   3.050 -1.3332  0.3844  0.6831
 1108SOL     OW 6915   7.852  10.230   1.294 -0.2946  0.2161 -0.4563
 1108SOL    HW1 6916   7.802  10.242   1.212 -0.5841 -0.2302 -0.3497
 1108SOL    HW2 6917   7.929  10.180   1.267  0.6280  1.7671 -0.8016
 1109SOL     OW 6918   4.883   8.149   7.110 -0.3045  0.0700  0.2660
 1109SOL    HW1 6919   4.877   8.092   7.187 -0.8137 -0.1258  0.0864
 1109SOL    HW2 6920   4.821   8.220   7.128  0.3321  0.5779  0.4925
 1110SOL     OW 6921   6.400   9.585   9.475  0.4357  0.7527 -0.5003
 1110SOL    HW1 6922   6.391   9.617   9.565  0.5857  1.3267 -0.6901
 1110SOL    HW2 6923   6.469   9.519   9.479  1.2487  1.6062 -0.4105
 1111SOL     OW 6924   4.334   5.228   0.117  0.2796  0.3415  0.2845
 1111SOL    HW1 6925   4.310   5.314   0.081  2.9991  0.9210 -0.3860
 1111SOL    HW2 6926   4.333   5.241   0.212  0.1841  0.9629  0.2044
 1112SOL     OW 6927   0.593   5.167   3.126  0.0995  0.0065 -0.5732
 1112SOL    HW1 6928   0.538   5.106   3.077  1.0740  0.1295 -1.8361
 1112SOL    HW2 6929   0.678   5.124   3.131  1.1466  1.7165 -2.5061
 1113SOL     OW 6930   7.984   6.364   6.012  0.4557  0.4725 -0.6452
 1113SOL    HW1 6931   8.040   6.286   6.013 -0.0748  0.0700  1.6447
 1113SOL    HW2 6932   7.922   6.348   5.941  0.3369 -1.2337 -0.1885
 1114SOL     OW 6933   9.529   5.249   0.782 -0.3208 -0.1146 -0.0332
 1114SOL    HW1 6934   9.604   5.303   0.809 -1.4632  1.3877  0.2879
 1114SOL    HW2 6935   9.558   5.159   0.795  1.0316  0.4604  1.1795
 1115SOL     OW 6936   5.270   8.524  10.909 -0.0100  0.0725  0.5094
 1115SOL    HW1 6937   5.287   8.463  10.981  0.0109 -0.9555 -0.3535
 1115SOL    HW2 6938   5.176   8.515  10.892  0.2034 -0.5583 -0.3657
 1116SOL     OW 6939   7.403   0.634   1.065 -0.5473  0.9546  0.1870
 1116SOL    HW1 6940   7.363   0.692   1.130  0.4219  0.4923  1.2274
 1116SOL    HW2 6941   7.490   0.670   1.051 -0.4620  0.5796 -0.2552
 1117SOL     OW 6942   2.856   9.542   3.105 -0.8122 -0.0604  0.2679
 1117SOL    HW1 6943   2.837   9.613   3.043  0.6476 -0.3948 -0.6157
 1117SOL    HW2 6944   2.799   9.471   3.078 -1.4013  0.3633  0.3780
 1118SOL     OW 6945   1.484   2.485   9.885 -0.3864 -0.0365 -0.1533
 1118SOL    HW1 6946   1.566   2.436   9.888 -0.4773 -0.2375 -0.7918
 1118SOL    HW2 6947   1.490   2.547   9.958 -0.2428 -0.9490  0.6291
 1119SOL     OW 6948   0.780   3.394   5.490 -0.1397 -0.1492 -0.3014
 1119SOL    HW1 6949   0.698   3.443   5.499 -0.9634 -1.4673 -0.3798
 1119SOL    HW2 6950   0.793   3.354   5.577  1.1584  1.1228  0.1306
 1120SOL     OW 6951   5.665  11.026   2.815  0.0330 -0.3107  0.7008
 1120SOL    HW1 6952   5.717  11.066   2.745 -1.7167  0.8052 -0.0404
 1120SOL    HW2 6953   5.669  10.932   2.797 -0.5814 -0.0336 -1.1066
 1121SOL     OW 6954   9.201   5.450   1.895 -0.3966 -0.0800 -0.0520
 1121SOL    HW1 6955   9.293   5.447   1.919 -0.6286  1.4274  1.1772
 1121SOL    HW2 6956   9.200   5.487   1.807  0.1745 -0.3555 -0.1794
 1122SOL     OW 6957   8.264   3.722   3.629 -0.0308  0.3158  0.2579
 1122SOL    HW1 6958   8.176   3.752   3.606 -0.1009 -0.3456 -0.3893
 1122SOL    HW2 6959   8.321   3.769   3.568 -0.1495 -0.8854 -0.8246
 1123SOL     OW 6960   1.863   5.588   6.740 -0.3559 -0.1675  0.3259
 1123SOL    HW1 6961   1.874   5.495   6.759  2.2844 -0.1818 -0.7783
 1123SOL    HW2 6962   1.777   5.595   6.700 -0.7068 -2.0793  0.6638
 1124SOL     OW 6963   5.846   5.986   4.123 -0.2986  0.3909  0.0208
 1124SOL    HW1 6964   5.820   6.031   4.042 -0.7408 -0.2166 -0.1869
 1124SOL    HW2 6965   5.916   5.927   4.096 -0.8766 -0.2794 -0.0640
 1125SOL     OW 6966   8.730   2.303   3.002 -0.2787  0.4131 -0.4032
 1125SOL    HW1 6967   8.666   2.298   2.932 -0.4275 -1.4792 -0.1720
 1125SOL    HW2 6968   8.756   2.213   3.018  0.2925  0.8647  1.4916
 1126SOL     OW 6969   3.323   7.142   4.055 -0.0274 -0.0950 -0.2852
 1126SOL    HW1 6970   3.269   7.208   4.011 -0.2287  0.7390  1.1115
 1126SOL    HW2 6971   3.413   7.175   4.047 -0.2234  0.9386  1.2705
 1127SOL     OW 6972   2.805  10.584   0.146 -0.1815  0.1348  0.2085
 1127SOL    HW1 6973   2.818  10.660   0.090  1.3526  0.5133  1.0299
 1127SOL    HW2 6974   2.883  10.580   0.201  1.5031 -3.9178 -1.9864
 1128SOL     OW 6975   7.232   0.157   0.797 -0.1167  0.6718  0.3569
 1128SOL    HW1 6976   7.142   0.147   0.768 -0.0046  1.1218 -0.1703
 1128SOL    HW2 6977   7.256   0.247   0.771  0.4699  0.5683  0.5125
 1129SOL     OW 6978   4.588   1.235   6.870  0.5330 -0.3700  0.0061
 1129SOL    HW1 6979   4.615   1.248   6.779 -0.2377  2.1939  0.0728
 1129SOL    HW2 6980   4.664   1.194   6.912  0.7541 -1.9833 -1.8383
 1130SOL     OW 6981   3.649  10.296   0.093  0.2603  0.0832  0.1786
 1130SOL    HW1 6982   3.705  10.370   0.117 -0.0275  0.6544 -0.8574
 1130SOL    HW2 6983   3.694  10.256   0.018  0.1443 -0.4818  0.4064
 1131SOL     OW 6984   5.829   6.508   7.755 -0.1553  0.1632 -0.3152
 1131SOL    HW1 6985   5.860   6.475   7.671  0.5579 -0.4280  0.1648
 1131SOL    HW2 6986   5.871   6.593   7.765 -0.0145  0.1072 -0.4287
 1132SOL     OW 6987   7.409   3.359   9.188  0.8583 -0.0759  0.6120
 1132SOL    HW1 6988   7.419   3.268   9.215 -0.6211 -0.4833 -0.1315
 1132SOL    HW2 6989   7.347   3.357   9.115  1.1821  1.4777  0.2430
 1133SOL     OW 6990   9.347   8.424   6.703  0.4939 -0.6733  0.0335
 1133SOL    HW1 6991   9.410   8.365   6.744  1.2942 -0.0421 -0.2713
 1133SOL    HW2 6992   9.318   8.482   6.774 -0.5876 -1.6421  0.4262
 1134SOL     OW 6993   2.380   3.090   5.591 -0.0326 -0.1766 -0.2771
 1134SOL    HW1 6994   2.343   3.002   5.592 -0.8747  0.0850  2.7183
 1134SOL    HW2 6995   2.468   3.080   5.629  0.1849  0.1679 -0.6805
 1135SOL     OW 6996   4.480  10.621   7.558 -0.1476  0.2461  0.6341
 1135SOL    HW1 6997   4.555  10.678   7.576  1.1018 -0.9619 -0.4718
 1135SOL    HW2 6998   4.510  10.565   7.486 -2.0003 -0.5326  0.4207
 1136SOL     OW 6999   5.591  10.909   4.428 -0.3562  0.0072  0.0609
 1136SOL    HW1 7000   5.667  10.881   4.478  0.5554  2.1180 -0.0333
 1136SOL    HW2 7001   5.610  10.882   4.338  0.1615  0.2571  0.0913
 1137SOL     OW 7002   6.041   0.767   3.034  0.3254  0.0870  0.1454
 1137SOL    HW1 7003   6.033   0.733   2.944  0.2866  0.3854  0.0347
 1137SOL    HW2 7004   6.050   0.861   3.023 -1.5027  0.3330  0.5501
 1138SOL     OW 7005   6.969   9.034   6.065  0.4248 -0.5057  0.4806
 1138SOL    HW1 7006   7.034   8.966   6.049 -0.2594 -0.8665 -0.8927
 1138SOL    HW2 7007   6.949   9.069   5.979 -0.2384  0.5139  1.0274
 1139SOL     OW 7008   4.836   0.377   1.485 -0.7167 -0.1094 -0.5463
 1139SOL    HW1 7009   4.899   0.365   1.556 -1.8982  1.5352  0.8594
 1139SOL    HW2 7010   4.804   0.289   1.466 -0.8824 -0.5338  1.4783
 1140SOL     OW 7011   6.056   0.992   0.393 -0.1594  0.1681 -0.1648
 1140SOL    HW1 7012   6.013   1.012   0.309  0.4260  1.4816 -0.1788
 1140SOL    HW2 7013   6.025   1.060   0.453  0.9577  0.4326  0.1366
 1141SOL     OW 7014   6.506   4.486   1.778  0.0106  0.2443 -0.2860
 1141SOL    HW1 7015   6.446   4.557   1.756  0.3266  0.8181  0.6344
 1141SOL    HW2 7016   6.520   4.439   1.695 -2.3735 -0.4515 -0.3698
 1142SOL     OW 7017   3.388   4.285   1.238 -0.6905  0.3334 -0.2849
 1142SOL    HW1 7018   3.319   4.233   1.198 -1.2015 -0.2029  1.2251
 1142SOL    HW2 7019   3.451   4.300   1.167 -0.6638 -2.0824 -0.8642
 1143SOL     OW 7020   3.671   9.890   0.043  0.9957 -0.0173  0.2900
 1143SOL    HW1 7021   3.595   9.832   0.037  0.1211  0.9283  1.5840
 1143SOL    HW2 7022   3.655   9.943   0.121  2.8687  0.4110  0.4364
 1144SOL     OW 7023   2.633   5.371   4.966  0.1212  0.1505  0.0614
 1144SOL    HW1 7024   2.715   5.321   4.966  0.3339  0.4796 -1.0747
 1144SOL    HW2 7025   2.564   5.305   4.971  0.4109 -0.2585 -1.0230
 1145SOL     OW 7026  11.004   9.420   5.803  0.5202 -0.2182 -0.4504
 1145SOL    HW1 7027  11.015   9.482   5.874  0.5100 -1.2952  0.5241
 1145SOL    HW2 7028  10.934   9.458   5.748 -0.6281 -0.1449  1.0084
 1146SOL     OW 7029   9.265   2.296   5.017 -0.3374  0.4809 -0.3359
 1146SOL    HW1 7030   9.231   2.365   5.075 -0.1677 -0.2224  0.6277
 1146SOL    HW2 7031   9.355   2.322   4.998 -0.4871  0.8669 -0.5291
 1147SOL     OW 7032   9.465   4.121   0.998 -0.1544  0.4046 -0.2676
 1147SOL    HW1 7033   9.529   4.100   1.066  0.8112  1.2923 -0.8724
 1147SOL    HW2 7034   9.389   4.067   1.020  0.4762 -0.0396  0.9616
 1148SOL     OW 7035  10.513   2.584   2.059  0.1978  0.4557 -0.4410
 1148SOL    HW1 7036  10.476   2.570   2.146 -0.4133 -2.0068 -1.0034
 1148SOL    HW2 7037  10.607   2.569   2.070  0.3869  1.8489  0.0674
 1149SOL     OW 7038   3.818   5.160   2.406 -0.9555 -0.5563  0.1192
 1149SOL    HW1 7039   3.782   5.150   2.494 -2.0573  1.2849 -0.0718
 1149SOL    HW2 7040   3.911   5.180   2.421 -0.4826 -2.8256  0.7027
 1150SOL     OW 7041  10.574   1.987  11.098  0.1130  0.1136  0.2732
 1150SOL    HW1 7042  10.629   1.997  11.176  0.5370  0.9740 -0.1317
 1150SOL    HW2 7043  10.485   1.984  11.132  0.1286  2.4277  0.6802
 1151SOL     OW 7044   8.056   2.343   9.841  0.8711 -0.2916 -0.2647
 1151SOL    HW1 7045   8.079   2.317   9.752  1.5728 -0.7757  0.0503
 1151SOL    HW2 7046   8.100   2.279   9.897 -0.5034 -0.7117  0.3909
 1152SOL     OW 7047   4.089  10.331  10.890  0.2030  0.1423  0.2602
 1152SOL    HW1 7048   4.005  10.287  10.896  0.5057 -0.6682 -0.9565
 1152SOL    HW2 7049   4.116  10.319  10.799  1.1790  1.2452  0.3710
 1153SOL     OW 7050   8.654   4.283   7.655 -0.4041  0.1937 -0.2766
 1153SOL    HW1 7051   8.747   4.289   7.674 -0.3450  1.0344 -0.7767
 1153SOL    HW2 7052   8.623   4.373   7.660 -1.0262  0.0260 -0.9200
 1154SOL     OW 7053   1.886   1.383   3.213 -0.2880 -0.5403 -0.0008
 1154SOL    HW1 7054   1.885   1.477   3.195  0.6093 -0.0074  2.3563
 1154SOL    HW2 7055   1.971   1.368   3.254 -1.2535 -1.9745  1.5779
 1155SOL     OW 7056  10.602   2.352   4.611 -0.0300  0.5319 -0.2489
 1155SOL    HW1 7057  10.556   2.271   4.636 -0.0534  0.2880 -1.0401
 1155SOL    HW2 7058  10.534   2.406   4.570  0.3408  0.2087 -1.3430
 1156SOL     OW 7059   0.875   4.496   6.236  0.2501  0.7745 -0.7172
 1156SOL    HW1 7060   0.903   4.522   6.148  1.1849 -2.6817 -1.6184
 1156SOL    HW2 7061   0.798   4.441   6.220  0.8133 -0.4224  0.5294
 1157SOL     OW 7062   4.535   9.270  10.032 -0.4279  0.3675 -0.4988
 1157SOL    HW1 7063   4.477   9.261  10.108  0.0601 -1.7782 -0.3103
 1157SOL    HW2 7064   4.475   9.281   9.958 -0.9082  2.9918  0.1507
 1158SOL     OW 7065   7.459   2.734   3.686  0.0725 -0.7110 -0.1997
 1158SOL    HW1 7066   7.464   2.641   3.663  0.7511 -0.6263 -0.4244
 1158SOL    HW2 7067   7.548   2.767   3.671  0.2088 -0.3409  1.2518
 1159SOL     OW 7068   8.937   2.283   9.113 -0.3254  0.1990  0.3110
 1159SOL    HW1 7069   8.874   2.260   9.182  1.4124  1.8574  2.6103
 1159SOL    HW2 7070   8.990   2.353   9.152  1.0586  0.8988 -2.6002
 1160SOL     OW 7071   1.447   2.622  10.466  0.3733  0.3802  0.2786
 1160SOL    HW1 7072   1.530   2.576  10.481 -0.1907 -1.3028 -1.3485
 1160SOL    HW2 7073   1.435   2.619  10.371 -1.3345  1.0185  0.4430
 1161SOL     OW 7074   2.094   9.735   3.827 -0.2715 -0.1136  0.3628
 1161SOL    HW1 7075   2.059   9.658   3.784  0.2274  0.1278 -0.4942
 1161SOL    HW2 7076   2.127   9.702   3.911 -0.6178 -0.7113  0.2728
 1162SOL     OW 7077   7.501   9.194   0.532 -0.1830  0.1000  0.3510
 1162SOL    HW1 7078   7.453   9.134   0.475  0.0519 -0.1404  0.4018
 1162SOL    HW2 7079   7.435   9.254   0.567 -0.5676 -0.6997  1.0164
 1163SOL     OW 7080   2.968   9.987   6.201  0.3216 -0.2172  0.1260
 1163SOL    HW1 7081   2.997   9.951   6.117  0.4170  2.7100 -1.1994
 1163SOL    HW2 7082   2.873   9.982   6.199  0.2411  1.2784 -0.9020
 1164SOL     OW 7083   8.426   5.606   9.123 -0.0877  0.1783  0.2839
 1164SOL    HW1 7084   8.366   5.668   9.165 -0.2729  1.0146 -1.1157
 1164SOL    HW2 7085   8.462   5.656   9.049 -0.7376 -1.5738 -1.2885
 1165SOL     OW 7086   6.790   4.852   3.789  0.1334  0.3773 -0.1448
 1165SOL    HW1 7087   6.883   4.844   3.768  0.0499 -2.0945  0.1239
 1165SOL    HW2 7088   6.745   4.847   3.704  0.1719 -1.0584 -0.1073
 1166SOL     OW 7089   8.068   8.440   3.052  0.1641  0.2318  0.0143
 1166SOL    HW1 7090   8.155   8.435   3.092 -0.2873  1.1281  1.1647
 1166SOL    HW2 7091   8.057   8.533   3.031 -0.7149  0.2134  0.3524
 1167SOL     OW 7092   0.310   8.172   5.546 -0.5673  0.0439 -0.8352
 1167SOL    HW1 7093   0.237   8.112   5.561 -1.2875  0.8423 -1.0775
 1167SOL    HW2 7094   0.386   8.115   5.535 -1.1549 -0.8028 -0.6198
 1168SOL     OW 7095   0.806   2.169   7.337  0.4292 -0.3714  0.7347
 1168SOL    HW1 7096   0.734   2.198   7.281  1.2169 -1.7229 -1.0564
 1168SOL    HW2 7097   0.793   2.075   7.347  3.1786 -1.1077 -1.6204
 1169SOL     OW 7098  11.053   3.222   3.913 -0.3372 -0.0480 -0.4731
 1169SOL    HW1 7099  11.142   3.207   3.944 -0.6001  1.4012  1.1401
 1169SOL    HW2 7100  11.050   3.315   3.892 -1.5104 -0.0346 -0.3318
 1170SOL     OW 7101   3.373   6.233   7.573  0.2759 -0.3431 -0.2204
 1170SOL    HW1 7102   3.358   6.299   7.640 -0.1095  0.4956 -1.1205
 1170SOL    HW2 7103   3.461   6.201   7.590  0.0320 -0.4339  0.9311
 1171SOL     OW 7104  10.610   0.071   1.311 -0.0752 -0.1067  0.2613
 1171SOL    HW1 7105  10.528   0.032   1.340 -0.1142  0.7417  1.3457
 1171SOL    HW2 7106  10.642   0.012   1.242 -2.5880  0.6198 -1.6501
 1172SOL     OW 7107  10.070  10.977   8.419 -0.0971  0.6248 -1.0081
 1172SOL    HW1 7108  10.016  11.016   8.351  0.9613  0.3167 -2.0431
 1172SOL    HW2 7109  10.148  11.032   8.423 -0.5382  1.2024  0.6352
 1173SOL     OW 7110   0.292   3.323   8.076  0.0032  0.2066 -0.1745
 1173SOL    HW1 7111   0.339   3.264   8.135 -1.2454  0.0942  0.7418
 1173SOL    HW2 7112   0.312   3.290   7.988  3.4458  1.5128 -0.0492
 1174SOL     OW 7113   6.341  10.736   0.859 -0.6522 -0.4167  0.8211
 1174SOL    HW1 7114   6.411  10.679   0.828 -0.3305  0.4981 -0.2169
 1174SOL    HW2 7115   6.285  10.680   0.913  0.2021 -1.4487  0.6550
 1175SOL     OW 7116   3.796   2.461   5.198  0.2734  0.0578  0.1249
 1175SOL    HW1 7117   3.799   2.497   5.109  1.2776 -1.3458 -0.4410
 1175SOL    HW2 7118   3.866   2.395   5.200  2.0059  1.7685  2.7343
 1176SOL     OW 7119   2.671   7.435   1.472  0.4335  0.0786 -0.4955
 1176SOL    HW1 7120   2.684   7.504   1.537  2.3467  0.0574 -0.8154
 1176SOL    HW2 7121   2.643   7.482   1.393  1.9207  0.5383 -0.7679
 1177SOL     OW 7122   9.067   7.227   0.873  0.1314 -0.4658  0.4842
 1177SOL    HW1 7123   8.974   7.207   0.885 -1.3487  4.5961 -0.2123
 1177SOL    HW2 7124   9.076   7.244   0.779  2.5313 -3.3403  0.0609
 1178SOL     OW 7125   7.098   7.540   4.472  0.2339  0.1534 -0.1260
 1178SOL    HW1 7126   7.150   7.616   4.496 -1.0422  1.1068 -0.3022
 1178SOL    HW2 7127   7.044   7.569   4.399  0.5997 -1.2981 -1.0056
 1179SOL     OW 7128   4.860   0.454   5.238 -0.3495 -0.3081 -0.4986
 1179SOL    HW1 7129   4.813   0.370   5.234  1.4850 -1.4059 -0.4096
 1179SOL    HW2 7130   4.897   0.456   5.326  0.8973 -0.1695 -1.0017
 1180SOL     OW 7131   2.813   2.988   8.935  0.1666 -0.1027  0.3596
 1180SOL    HW1 7132   2.763   2.952   8.862 -0.1563 -0.6236  0.8328
 1180SOL    HW2 7133   2.748   3.038   8.986  0.3528  0.1101  0.3902
 1181SOL     OW 7134   8.581   9.381   2.127  0.7768 -0.2668  0.2161
 1181SOL    HW1 7135   8.520   9.442   2.167  2.1784  2.4517 -1.5284
 1181SOL    HW2 7136   8.600   9.418   2.041  2.3705 -2.7441 -0.6132
 1182SOL     OW 7137   5.046   9.274   7.894 -0.2561  0.4268 -0.1123
 1182SOL    HW1 7138   5.140   9.289   7.892 -0.2667  0.5580  0.3393
 1182SOL    HW2 7139   5.029   9.223   7.815  0.4288 -0.8973  0.5533
 1183SOL     OW 7140   6.874   6.963   6.585  0.1316  0.5104 -0.2107
 1183SOL    HW1 7141   6.797   6.914   6.554 -0.6578 -0.0895  2.4176
 1183SOL    HW2 7142   6.946   6.932   6.530 -0.9464 -1.1938 -0.7444
 1184SOL     OW 7143  10.315   9.815   1.574 -0.0088  0.5762 -0.2223
 1184SOL    HW1 7144  10.290   9.895   1.527 -2.9531 -0.3932 -0.4892
 1184SOL    HW2 7145  10.261   9.746   1.535  0.1386 -0.9640  2.1084
 1185SOL     OW 7146  10.953   6.726   5.146  0.0375 -0.2339  0.4462
 1185SOL    HW1 7147  10.881   6.685   5.097  0.3539  0.4936 -0.6727
 1185SOL    HW2 7148  10.939   6.699   5.237 -2.4818  1.0061  0.5174
 1186SOL     OW 7149   9.464   3.955   1.928  0.6125  0.2005 -0.5301
 1186SOL    HW1 7150   9.556   3.963   1.903  0.6511  0.0445 -0.4378
 1186SOL    HW2 7151   9.419   3.934   1.846  0.5547  1.0219 -0.7171
 1187SOL     OW 7152   3.929   7.516   9.348  0.6400 -0.0975 -0.3330
 1187SOL    HW1 7153   3.932   7.601   9.304  1.3571  0.0154 -0.0809
 1187SOL    HW2 7154   3.923   7.453   9.276  1.7122  0.0894 -0.6019
 1188SOL     OW 7155   7.139   5.284   5.340  0.5600  0.5265 -0.4008
 1188SOL    HW1 7156   7.143   5.302   5.433 -3.9438  1.0775 -0.0899
 1188SOL    HW2 7157   7.116   5.191   5.334  2.0575  0.1733 -1.0657
 1189SOL     OW 7158   2.861   0.382   2.604 -0.4957 -0.4702  0.0104
 1189SOL    HW1 7159   2.817   0.456   2.563  1.4626  0.9289  0.2675
 1189SOL    HW2 7160   2.917   0.346   2.536 -0.2799 -0.7346  0.3238
 1190SOL     OW 7161   7.307   9.529   6.340 -0.0594  0.1110 -0.1299
 1190SOL    HW1 7162   7.385   9.479   6.317  0.2434 -1.6280  3.8669
 1190SOL    HW2 7163   7.237   9.491   6.287  1.0650 -1.2033 -0.7189
 1191SOL     OW 7164   3.607   0.705   0.705  0.0543 -0.6841 -0.5720
 1191SOL    HW1 7165   3.670   0.699   0.633  0.8495  0.8065 -0.0541
 1191SOL    HW2 7166   3.625   0.628   0.760  2.5835  0.4713  0.4061
 1192SOL     OW 7167   3.640   8.155   2.975  0.6803 -0.0507  0.2729
 1192SOL    HW1 7168   3.709   8.088   2.988 -0.9654 -2.2584 -1.5872
 1192SOL    HW2 7169   3.603   8.135   2.889 -4.3095 -1.0010  2.3090
 1193SOL     OW 7170   7.924   6.867   6.645 -0.1548  0.2599 -0.5577
 1193SOL    HW1 7171   7.848   6.897   6.694  0.8566  0.2541  1.0826
 1193SOL    HW2 7172   7.960   6.946   6.604 -0.6468  0.3639 -0.7964
 1194SOL     OW 7173   3.192   8.944   0.293 -0.6196  0.3670 -0.1098
 1194SOL    HW1 7174   3.141   8.974   0.218 -0.0743  0.3150 -0.5057
 1194SOL    HW2 7175   3.225   9.025   0.333  0.7793  0.3279 -1.1275
 1195SOL     OW 7176   1.577   4.460   2.650  0.0147 -0.2205 -0.1840
 1195SOL    HW1 7177   1.485   4.485   2.661 -0.1696 -0.9054 -0.0962
 1195SOL    HW2 7178   1.598   4.485   2.561 -0.2055  0.1065 -0.1462
 1196SOL     OW 7179   0.963   9.581   7.513  0.5116 -0.0402  0.0708
 1196SOL    HW1 7180   0.961   9.522   7.588  0.1954 -1.5146 -1.0545
 1196SOL    HW2 7181   0.887   9.638   7.526  1.0037  0.3630  1.3391
 1197SOL     OW 7182   3.213   5.424   0.690  0.5061 -1.0645  0.0041
 1197SOL    HW1 7183   3.145   5.367   0.653  0.4447 -0.9835 -0.0066
 1197SOL    HW2 7184   3.197   5.510   0.650 -0.4600 -0.6075  1.3241
 1198SOL     OW 7185   1.317   9.414   8.812 -0.0799 -0.0893 -0.5088
 1198SOL    HW1 7186   1.401   9.382   8.779  0.3718  1.5749 -1.0853
 1198SOL    HW2 7187   1.339   9.451   8.898 -0.1426  0.6028 -0.7814
 1199SOL     OW 7188   6.359   2.742   5.985  0.4453 -0.1949 -0.0571
 1199SOL    HW1 7189   6.363   2.792   6.067  0.5535 -0.6578  0.2229
 1199SOL    HW2 7190   6.396   2.801   5.920  2.1092 -0.5054  0.5658
 1200SOL     OW 7191   1.413   4.996   3.559  0.0428 -1.0368 -0.0235
 1200SOL    HW1 7192   1.322   5.027   3.551  0.4136  0.3668  0.9045
 1200SOL    HW2 7193   1.405   4.900   3.565 -1.4727 -0.8731  1.1526
 1201SOL     OW 7194   5.915   2.594   9.197 -0.0842 -0.2180 -0.5663
 1201SOL    HW1 7195   6.000   2.553   9.181 -1.3674 -3.1812 -0.5032
 1201SOL    HW2 7196   5.858   2.522   9.223 -2.5640  1.7005 -0.2517
 1202SOL     OW 7197   2.210   0.293   0.840 -0.0137 -0.1135  0.0925
 1202SOL    HW1 7198   2.170   0.258   0.920  0.4367 -0.2134  0.2716
 1202SOL    HW2 7199   2.162   0.375   0.824 -0.0404 -0.0394  0.5199
 1203SOL     OW 7200   5.565   1.319   2.453 -0.4078  0.2539  0.3126
 1203SOL    HW1 7201   5.549   1.266   2.375  2.0313 -0.1911  0.0512
 1203SOL    HW2 7202   5.478   1.350   2.479 -1.3354  0.2013 -2.4094
 1204SOL     OW 7203   9.525  10.621   2.107  0.1901  0.7168 -0.3843
 1204SOL    HW1 7204   9.567  10.538   2.129 -2.2548 -0.1412  1.4555
 1204SOL    HW2 7205   9.494  10.610   2.017  1.3839  0.3525 -0.7766
 1205SOL     OW 7206   5.387   0.130   6.240 -0.3991  0.4897 -0.4062
 1205SOL    HW1 7207   5.363   0.213   6.199 -2.3908 -0.6183 -1.6699
 1205SOL    HW2 7208   5.381   0.066   6.170 -2.5099 -1.2614  1.2106
 1206SOL     OW 7209   8.221   9.280  10.401 -0.0283  0.2960 -0.3111
 1206SOL    HW1 7210   8.262   9.282  10.488  0.7756  1.8517 -0.6917
 1206SOL    HW2 7211   8.200   9.187  10.388 -0.7161  0.0909  1.7710
 1207SOL     OW 7212   8.664   8.439   1.838 -0.2458  0.3558 -0.0319
 1207SOL    HW1 7213   8.661   8.468   1.746  0.2237 -1.1696 -0.5544
 1207SOL    HW2 7214   8.748   8.394   1.846 -0.4496  0.1560  1.0583
 1208SOL     OW 7215   3.599   5.035   8.701 -0.0815 -0.4360 -0.2747
 1208SOL    HW1 7216   3.532   4.969   8.682 -0.2638 -0.2920 -0.1376
 1208SOL    HW2 7217   3.629   5.064   8.615 -1.3523  0.6679 -0.3766
 1209SOL     OW 7218   2.981   8.634   8.112  0.5867 -1.0803  0.5060
 1209SOL    HW1 7219   3.055   8.586   8.150 -0.0112 -1.7582  0.8338
 1209SOL    HW2 7220   2.980   8.718   8.158  3.1349  0.3501 -1.7215
 1210SOL     OW 7221   6.303   3.625   6.533  0.1947 -0.2576 -0.1872
 1210SOL    HW1 7222   6.323   3.684   6.605 -0.9658  0.3136 -0.3080
 1210SOL    HW2 7223   6.330   3.673   6.454 -0.1167 -0.1763 -0.2435
 1211SOL     OW 7224   3.838   5.840   2.606 -0.2145  0.2157 -0.3016
 1211SOL    HW1 7225   3.839   5.751   2.640  0.1815  0.2052 -0.3406
 1211SOL    HW2 7226   3.877   5.834   2.519 -1.0420  0.2780 -0.6897
 1212SOL     OW 7227   1.552   8.299   4.876 -0.2000  0.0557 -0.5792
 1212SOL    HW1 7228   1.603   8.227   4.913  0.2585  1.0586  0.8207
 1212SOL    HW2 7229   1.550   8.281   4.782 -1.6062 -2.7136 -0.1294
 1213SOL     OW 7230   1.779   4.111   7.927  0.0661 -0.5353  0.1710
 1213SOL    HW1 7231   1.780   4.020   7.899  1.0299 -0.5591  0.2217
 1213SOL    HW2 7232   1.792   4.107   8.022 -1.8277 -0.4058  0.4618
 1214SOL     OW 7233   4.615   4.358   1.454  0.0484 -0.1927 -0.0714
 1214SOL    HW1 7234   4.618   4.264   1.471 -0.0846 -0.0981  0.4886
 1214SOL    HW2 7235   4.687   4.374   1.393  1.5068 -0.2915  1.5796
 1215SOL     OW 7236   6.322   1.237   1.926  0.2074 -0.1938 -0.2031
 1215SOL    HW1 7237   6.325   1.330   1.945  0.9602  0.1081 -1.6712
 1215SOL    HW2 7238   6.410   1.205   1.944 -0.4096 -0.9571  1.7106
 1216SOL     OW 7239   0.893   6.348   9.686 -0.0836  0.4153 -0.2544
 1216SOL    HW1 7240   0.924   6.257   9.689 -2.7857 -0.7063 -2.2804
 1216SOL    HW2 7241   0.968   6.398   9.654  1.6894 -0.9088  1.5755
 1217SOL     OW 7242   3.683  10.907   4.584 -0.0438  0.3465  0.3561
 1217SOL    HW1 7243   3.660  10.823   4.623  0.1186 -0.3934 -1.0996
 1217SOL    HW2 7244   3.776  10.919   4.605  0.3143 -0.5421 -0.6390
 1218SOL     OW 7245   4.978   9.376   4.233  0.3445  0.3599  0.1268
 1218SOL    HW1 7246   4.927   9.373   4.152  0.0790 -0.7553  0.3130
 1218SOL    HW2 7247   5.069   9.376   4.205  0.2535  0.8260 -0.1786
 1219SOL     OW 7248   9.709   8.770   1.167  0.7757  0.7532  0.2100
 1219SOL    HW1 7249   9.757   8.800   1.089  2.3197 -1.4446  0.2116
 1219SOL    HW2 7250   9.742   8.826   1.238 -1.0158  3.1218 -0.7044
 1220SOL     OW 7251   7.934   1.679   1.974 -0.3001  0.1231 -0.3527
 1220SOL    HW1 7252   7.954   1.690   2.067 -2.5547  2.0066 -0.0159
 1220SOL    HW2 7253   7.894   1.592   1.969  0.3541 -0.2272  0.3331
 1221SOL     OW 7254   2.302   8.871   0.202  0.2648  0.7147 -0.5441
 1221SOL    HW1 7255   2.357   8.945   0.179  0.0744  0.6284 -1.3065
 1221SOL    HW2 7256   2.363   8.800   0.220  0.4259  0.8546 -0.5383
 1222SOL     OW 7257  10.928   7.607   7.856 -0.4520  0.2912  0.5478
 1222SOL    HW1 7258  10.977   7.653   7.925  0.0394  0.3257  0.1815
 1222SOL    HW2 7259  10.837   7.612   7.884 -0.1351 -0.9774  1.9527
 1223SOL     OW 7260   5.890   2.747   3.771 -0.3105  0.5953 -0.1215
 1223SOL    HW1 7261   5.957   2.720   3.707 -1.1873 -1.6083 -0.1732
 1223SOL    HW2 7262   5.808   2.747   3.721 -0.5911  1.9665  0.2814
 1224SOL     OW 7263   7.785   9.956   2.001  0.4101 -0.8359 -0.2225
 1224SOL    HW1 7264   7.746  10.038   2.032 -3.0083 -1.5813 -2.0860
 1224SOL    HW2 7265   7.824   9.917   2.079  3.5577  3.1264  0.4932
 1225SOL     OW 7266   3.723   9.919   8.925 -0.6353  0.1022 -0.1989
 1225SOL    HW1 7267   3.749   9.828   8.923 -1.3371 -0.0883 -1.9265
 1225SOL    HW2 7268   3.663   9.925   8.999 -1.4713 -1.1015 -0.7585
 1226SOL     OW 7269  10.566   5.274   3.803 -0.5745  0.1427 -0.4251
 1226SOL    HW1 7270  10.640   5.319   3.762  0.0932 -0.7506 -0.2313
 1226SOL    HW2 7271  10.600   5.188   3.826 -1.4652 -0.0182  0.3588
 1227SOL     OW 7272  11.069   9.079   3.750 -0.1144 -0.1180 -0.2197
 1227SOL    HW1 7273  11.085   9.131   3.671 -0.5617  0.1382 -0.1486
 1227SOL    HW2 7274  11.055   8.990   3.718  0.6262 -0.1976 -0.3467
 1228SOL     OW 7275  10.809   1.642   2.702  0.0490 -0.4439  0.6531
 1228SOL    HW1 7276  10.817   1.734   2.679  4.4354 -0.0520  2.8664
 1228SOL    HW2 7277  10.728   1.637   2.753 -2.0520  1.3459 -2.1805
 1229SOL     OW 7278  10.743   6.371   8.529  0.1039 -0.2686 -0.1067
 1229SOL    HW1 7279  10.755   6.444   8.591 -1.4810 -0.4833  0.5138
 1229SOL    HW2 7280  10.699   6.411   8.454 -0.4649 -0.5009  0.0935
 1230SOL     OW 7281   5.799  10.886   5.095  0.1495 -0.4610 -0.2716
 1230SOL    HW1 7282   5.865  10.875   5.027  0.6941  0.0932  0.1591
 1230SOL    HW2 7283   5.780  10.980   5.094  0.2923 -0.4243  0.4639
 1231SOL     OW 7284   0.521   3.353   0.405  0.3678 -0.1552 -0.4085
 1231SOL    HW1 7285   0.433   3.361   0.440  0.0772  1.5165 -1.4397
 1231SOL    HW2 7286   0.522   3.267   0.363 -0.6925 -0.2978 -0.1705
 1232SOL     OW 7287   6.215   5.008   2.787 -0.1231  0.0732  0.0114
 1232SOL    HW1 7288   6.135   5.002   2.838 -0.1762 -0.1597 -0.0967
 1232SOL    HW2 7289   6.195   4.962   2.706  0.8274 -1.9807  0.8796
 1233SOL     OW 7290   7.153   8.858   2.991  0.1437  0.5520 -0.0154
 1233SOL    HW1 7291   7.114   8.944   2.973 -0.2375  0.2732 -0.5501
 1233SOL    HW2 7292   7.083   8.808   3.034 -0.0737  0.0769 -0.9037
 1234SOL     OW 7293   6.163   3.460  10.463  0.3575 -0.6412 -0.3018
 1234SOL    HW1 7294   6.081   3.412  10.478 -0.7522  0.9875 -0.8070
 1234SOL    HW2 7295   6.184   3.444  10.371  1.5702 -2.4010  0.2320
 1235SOL     OW 7296   4.622   3.328   4.288  0.5029 -0.3676 -0.0216
 1235SOL    HW1 7297   4.653   3.298   4.202  1.2268  1.1180 -0.3176
 1235SOL    HW2 7298   4.679   3.283   4.351  0.9632 -0.3277 -0.4034
 1236SOL     OW 7299   2.577   3.002   0.860  0.3134  0.1512  0.4381
 1236SOL    HW1 7300   2.576   3.074   0.922  2.7747  1.3026 -0.7061
 1236SOL    HW2 7301   2.666   2.966   0.867 -0.2157 -1.4637 -0.4805
 1237SOL     OW 7302   9.945   1.285  11.044  0.5931 -0.0946  0.0555
 1237SOL    HW1 7303   9.885   1.323  11.108  0.5792 -1.0668  0.6303
 1237SOL    HW2 7304   9.925   1.192  11.043  0.9519 -0.1768 -0.9879
 1238SOL     OW 7305   8.543   6.766   8.333  0.1646 -0.1811 -0.7214
 1238SOL    HW1 7306   8.495   6.846   8.355  1.7106  0.3739  0.8460
 1238SOL    HW2 7307   8.497   6.696   8.379  0.4797  0.2599  0.2919
 1239SOL     OW 7308   2.029   5.430   4.335  0.6738  0.0525 -0.3023
 1239SOL    HW1 7309   2.121   5.405   4.324  1.0781 -0.0338  2.5713
 1239SOL    HW2 7310   2.030   5.495   4.405 -1.3766  0.7863 -0.9027
 1240SOL     OW 7311   7.734   0.001   9.135 -0.0400 -0.0275 -0.1507
 1240SOL    HW1 7312   7.756   0.066   9.202 -0.1792 -1.0023  0.8729
 1240SOL    HW2 7313   7.645   0.022   9.109 -0.0883  0.1822  0.1848
 1241SOL     OW 7314   1.626   1.831   1.286 -0.1489 -0.0348 -0.3410
 1241SOL    HW1 7315   1.631   1.918   1.327 -0.5103 -0.4793  0.6734
 1241SOL    HW2 7316   1.715   1.814   1.255 -0.1468  0.8268 -0.8398
 1242SOL     OW 7317  10.241   9.712   9.372 -0.2763 -0.3083  0.2199
 1242SOL    HW1 7318  10.266   9.644   9.309  1.6622 -0.0710  0.6561
 1242SOL    HW2 7319  10.183   9.668   9.434 -1.7760 -0.6838 -1.3657
 1243SOL     OW 7320   6.570   2.873   2.360  0.2079 -0.5530 -0.2748
 1243SOL    HW1 7321   6.622   2.928   2.302 -0.7714  1.4320  0.6531
 1243SOL    HW2 7322   6.516   2.820   2.300 -0.5927  1.2503 -1.2343
 1244SOL     OW 7323   0.862   7.086   3.495 -0.1430  0.5732  0.2764
 1244SOL    HW1 7324   0.787   7.142   3.516 -0.6239 -0.5968  1.8612
 1244SOL    HW2 7325   0.938   7.144   3.501 -0.8745  1.7921 -1.3971
 1245SOL     OW 7326   2.504   7.269  10.370  0.2162  0.3918  0.6267
 1245SOL    HW1 7327   2.529   7.345  10.422 -0.6594  0.1847  1.3688
 1245SOL    HW2 7328   2.441   7.222  10.424  2.1114 -1.9093  1.0158
 1246SOL     OW 7329   3.092   2.021   7.993  0.1289 -0.9079 -0.4854
 1246SOL    HW1 7330   3.052   1.966   8.060 -0.9070 -0.7099 -0.9278
 1246SOL    HW2 7331   3.155   2.075   8.041 -2.4585  1.1455  0.8339
 1247SOL     OW 7332   4.393   4.784   9.360 -0.1258 -0.3156 -0.2326
 1247SOL    HW1 7333   4.440   4.818   9.284 -0.3584 -1.5712 -0.9698
 1247SOL    HW2 7334   4.417   4.842   9.432  0.4471  0.6354 -1.1708
 1248SOL     OW 7335   9.158   9.995   4.755  0.0433 -0.4196 -0.5380
 1248SOL    HW1 7336   9.110  10.075   4.774 -0.6000 -1.0708  0.7170
 1248SOL    HW2 7337   9.092   9.926   4.755  0.8041 -1.1861  0.1248
 1249SOL     OW 7338   9.258   5.682  10.901 -0.1431  0.1693  0.5331
 1249SOL    HW1 7339   9.205   5.666  10.978  1.0864  0.3204  1.4368
 1249SOL    HW2 7340   9.348   5.663  10.928  0.2514 -0.4242 -1.0454
 1250SOL     OW 7341  11.057   1.689   2.103 -0.5460 -0.2931  0.2834
 1250SOL    HW1 7342  11.063   1.669   2.010 -1.2447 -0.3637  0.2492
 1250SOL    HW2 7343  11.068   1.605   2.147 -0.3147 -0.2734  0.2678
 1251SOL     OW 7344   3.505   0.324  10.701  0.1904 -0.6627  0.3834
 1251SOL    HW1 7345   3.481   0.408  10.740  2.5990  0.5397 -0.5332
 1251SOL    HW2 7346   3.450   0.317  10.623 -0.9922 -0.6405  1.1781
 1252SOL     OW 7347   1.376   5.950   0.312 -0.3833 -0.1466 -0.3723
 1252SOL    HW1 7348   1.332   5.866   0.328 -0.4085 -0.0685 -0.0187
 1252SOL    HW2 7349   1.433   5.961   0.388 -1.8498  1.1307  0.6057
 1253SOL     OW 7350   8.866   2.338   6.380  0.1539 -0.3580 -0.4759
 1253SOL    HW1 7351   8.910   2.283   6.444  0.3161 -0.0663 -0.3352
 1253SOL    HW2 7352   8.774   2.336   6.405  0.4352  1.1914  0.8633
 1254SOL     OW 7353  10.233   7.624   7.272 -0.6807 -0.5113 -0.0269
 1254SOL    HW1 7354  10.271   7.694   7.219  1.1739 -2.0866 -0.8831
 1254SOL    HW2 7355  10.302   7.558   7.279 -2.0327 -1.8723  1.5350
 1255SOL     OW 7356   5.925   0.684   8.897  0.4074  0.4551  0.5852
 1255SOL    HW1 7357   5.858   0.711   8.834 -0.4759 -0.3253  1.1630
 1255SOL    HW2 7358   5.956   0.766   8.936  0.4174  0.8870 -0.3031
 1256SOL     OW 7359   9.010   2.235   9.765 -0.2827 -0.1803 -0.0209
 1256SOL    HW1 7360   9.030   2.166   9.828  1.2392  1.4471  1.3719
 1256SOL    HW2 7361   8.952   2.294   9.813  0.5535  0.8571 -0.2525
 1257SOL     OW 7362   6.760   8.881   6.707 -0.3617  0.7989  0.2173
 1257SOL    HW1 7363   6.742   8.804   6.652 -0.8209  1.4222 -0.5361
 1257SOL    HW2 7364   6.746   8.850   6.796  0.1207 -0.1686 -0.0262
 1258SOL     OW 7365   4.302   4.354   0.585  0.1919  0.4180 -0.1613
 1258SOL    HW1 7366   4.285   4.325   0.496 -0.5985  1.1200 -0.2492
 1258SOL    HW2 7367   4.238   4.424   0.601 -1.0139 -0.9724  1.6061
 1259SOL     OW 7368   1.427   6.777   9.399 -0.6215  0.5794 -0.4177
 1259SOL    HW1 7369   1.418   6.855   9.343 -0.6947 -0.3245 -1.7054
 1259SOL    HW2 7370   1.427   6.704   9.338  0.8492 -0.3755  0.6467
 1260SOL     OW 7371   3.769   9.098  10.558 -1.0924  0.3521 -0.0753
 1260SOL    HW1 7372   3.678   9.087  10.587 -1.7737  1.3604 -1.7048
 1260SOL    HW2 7373   3.770   9.183  10.514  0.4331 -0.0465 -0.8779
 1261SOL     OW 7374   9.733   9.587   5.654  0.4612 -0.1879 -0.7505
 1261SOL    HW1 7375   9.823   9.567   5.627  1.2758  0.2144  1.4934
 1261SOL    HW2 7376   9.697   9.635   5.580  1.7736 -1.1543 -2.0890
 1262SOL     OW 7377   0.824   2.266   7.032 -0.1527  0.6020  0.5099
 1262SOL    HW1 7378   0.792   2.308   6.952 -1.0148  1.6893  1.3961
 1262SOL    HW2 7379   0.913   2.300   7.043  0.3884 -0.3977 -0.5472
 1263SOL     OW 7380   1.932   5.863   0.373  0.0885  0.1458  0.3697
 1263SOL    HW1 7381   1.998   5.864   0.303  1.4261 -1.1433  1.5426
 1263SOL    HW2 7382   1.932   5.952   0.408  0.1642  0.5300 -0.5762
 1264SOL     OW 7383   8.367   3.211   4.389 -0.6734 -0.3999 -0.3135
 1264SOL    HW1 7384   8.416   3.254   4.319 -1.4909 -1.6031 -1.7052
 1264SOL    HW2 7385   8.433   3.165   4.440  0.0413  1.2611  0.3120
 1265SOL     OW 7386   0.742   8.179   4.149 -0.1697 -0.1285  0.1543
 1265SOL    HW1 7387   0.689   8.219   4.080 -0.4497 -0.4981  0.1542
 1265SOL    HW2 7388   0.832   8.196   4.122 -0.2713 -0.5280 -0.4657
 1266SOL     OW 7389   5.693  10.659   6.691  0.5313 -0.1964  0.1025
 1266SOL    HW1 7390   5.719  10.639   6.781 -0.2287 -1.1822  0.1165
 1266SOL    HW2 7391   5.773  10.693   6.650  1.4605 -1.7569  0.5494
 1267SOL     OW 7392   9.534   9.497   3.811 -0.1007  0.0610  0.0424
 1267SOL    HW1 7393   9.439   9.501   3.824 -0.1942 -0.9300 -0.2571
 1267SOL    HW2 7394   9.569   9.568   3.865 -0.9258 -0.2479  1.0005
 1268SOL     OW 7395   4.607   7.122   7.252 -0.0813  0.2595  0.0780
 1268SOL    HW1 7396   4.666   7.171   7.310  1.1565  0.6213 -1.4076
 1268SOL    HW2 7397   4.600   7.177   7.174  0.9265 -1.6215 -1.4348
 1269SOL     OW 7398   0.050   3.938   9.765  0.1686 -0.4716 -0.3610
 1269SOL    HW1 7399   0.117   3.947   9.832  0.9104  0.0145 -1.1552
 1269SOL    HW2 7400   0.020   4.027   9.749 -0.7383 -0.6901  0.0429
 1270SOL     OW 7401   2.952   2.928   0.798  0.2362  0.2100  0.1051
 1270SOL    HW1 7402   2.968   2.849   0.849  2.9291  0.8623  0.4393
 1270SOL    HW2 7403   2.933   2.996   0.863  0.1914  0.3090 -0.0096
 1271SOL     OW 7404   3.977   7.722   3.180  0.0036  0.7042  0.3113
 1271SOL    HW1 7405   3.885   7.699   3.168  0.0424  0.8441 -0.3030
 1271SOL    HW2 7406   4.012   7.729   3.090  0.5427  0.9196  0.5331
 1272SOL     OW 7407   3.300   5.234   1.284 -0.3134 -0.4269  0.3115
 1272SOL    HW1 7408   3.361   5.159   1.284  4.1122  2.7454  2.0647
 1272SOL    HW2 7409   3.286   5.253   1.191  1.3241 -1.4310 -0.1985
 1273SOL     OW 7410   6.890   6.435   8.298 -0.1124  0.0356 -0.3654
 1273SOL    HW1 7411   6.867   6.414   8.207  0.3367 -0.7720 -0.3039
 1273SOL    HW2 7412   6.953   6.506   8.291  0.2303 -0.2967 -0.7108
 1274SOL     OW 7413  10.090   3.250   3.060 -0.2046  0.1641  0.0143
 1274SOL    HW1 7414  10.151   3.302   3.113 -2.2283  1.0602  1.6383
 1274SOL    HW2 7415  10.083   3.167   3.106 -1.0450  0.4930  0.5040
 1275SOL     OW 7416   8.970   9.005   8.859  0.2653  0.1788  0.0313
 1275SOL    HW1 7417   8.940   8.915   8.876  1.1184 -0.2507 -0.7032
 1275SOL    HW2 7418   8.892   9.050   8.826  0.2557 -0.7913 -1.3681
 1276SOL     OW 7419   6.545   5.034   5.991  0.2093  0.1390 -0.0795
 1276SOL    HW1 7420   6.462   5.005   6.030  0.1748 -0.3120 -0.4851
 1276SOL    HW2 7421   6.606   5.035   6.065 -0.4119  1.5775  0.4652
 1277SOL     OW 7422   7.402   8.200   9.518 -0.4439 -0.5499  0.1422
 1277SOL    HW1 7423   7.477   8.209   9.459 -0.5611 -1.9112 -0.2292
 1277SOL    HW2 7424   7.361   8.287   9.518  1.3298  0.3295  0.6425
 1278SOL     OW 7425   8.333   6.409   1.270 -0.4253 -0.8119 -0.0225
 1278SOL    HW1 7426   8.337   6.464   1.347  1.3420 -0.4417 -0.3287
 1278SOL    HW2 7427   8.394   6.449   1.208  2.3996 -4.0154  0.3985
 1279SOL     OW 7428   1.509   4.895   7.943 -0.0686 -0.0532  0.0545
 1279SOL    HW1 7429   1.419   4.901   7.908 -0.4260 -1.9652  0.5334
 1279SOL    HW2 7430   1.501   4.922   8.034  0.0432  0.6954 -0.1483
 1280SOL     OW 7431  10.014   7.797   0.904 -0.6718 -0.2090 -0.5930
 1280SOL    HW1 7432   9.998   7.759   0.818  0.1711 -0.1978 -0.7560
 1280SOL    HW2 7433   9.929   7.789   0.949 -0.4655 -2.5900 -0.4893
 1281SOL     OW 7434   4.021   0.719   1.972  0.0370  0.1901  0.6084
 1281SOL    HW1 7435   4.109   0.756   1.970 -0.0115  0.3078  0.6298
 1281SOL    HW2 7436   4.012   0.675   1.887  0.4153 -0.5330  0.9273
 1282SOL     OW 7437   4.526   6.226   9.178 -0.1667  0.3188  0.1815
 1282SOL    HW1 7438   4.482   6.148   9.209 -0.0172  0.9794  2.1924
 1282SOL    HW2 7439   4.592   6.194   9.116 -1.1550 -0.9712 -0.2267
 1283SOL     OW 7440   7.719   9.386   1.804  0.0283 -0.2749 -0.1372
 1283SOL    HW1 7441   7.745   9.328   1.732  0.9668 -0.3631  0.2537
 1283SOL    HW2 7442   7.736   9.335   1.883  1.1498  0.6236  0.2245
 1284SOL     OW 7443   0.120   5.456   0.870  0.8321 -0.1539  0.3120
 1284SOL    HW1 7444   0.200   5.502   0.845 -0.0793  0.7883 -1.1014
 1284SOL    HW2 7445   0.050   5.520   0.852 -0.3655 -1.5505 -0.2131
 1285SOL     OW 7446  10.517   1.916   6.935 -0.3277 -0.0164  0.3329
 1285SOL    HW1 7447  10.463   1.949   6.863  0.8593  1.3988  0.0681
 1285SOL    HW2 7448  10.586   1.865   6.893 -0.0738  0.1691  0.5219
 1286SOL     OW 7449   2.839   8.184   4.757 -0.1485  0.1176 -0.2111
 1286SOL    HW1 7450   2.807   8.208   4.844 -0.3048 -0.0773 -0.2138
 1286SOL    HW2 7451   2.883   8.263   4.725  0.0020  0.1557  0.0873
 1287SOL     OW 7452   2.639   6.708   6.375  0.0331  0.0154  0.1397
 1287SOL    HW1 7453   2.702   6.712   6.447  0.7592  0.1400 -0.4898
 1287SOL    HW2 7454   2.556   6.683   6.416  0.6885 -1.0147  0.8623
 1288SOL     OW 7455   5.318   0.082   9.701  0.0997 -0.1620  0.1018
 1288SOL    HW1 7456   5.276   0.168   9.698 -0.1884 -0.3220 -0.8596
 1288SOL    HW2 7457   5.322   0.054   9.610 -3.4986 -2.9244  0.5751
 1289SOL     OW 7458  10.629   4.888   0.381  0.8964  0.1461 -0.0169
 1289SOL    HW1 7459  10.591   4.808   0.344  0.2081  0.0860  0.7793
 1289SOL    HW2 7460  10.660   4.937   0.305 -0.0550 -0.1824 -0.6423
 1290SOL     OW 7461   9.020   3.148   3.911 -0.2101  0.2238 -0.1115
 1290SOL    HW1 7462   8.944   3.089   3.907  0.3204 -0.4465 -0.6283
 1290SOL    HW2 7463   9.055   3.135   3.999 -1.4752  1.5774  0.6494
 1291SOL     OW 7464   5.844   6.214  10.788 -0.0622  0.3487 -0.3899
 1291SOL    HW1 7465   5.887   6.237  10.871  0.1709  0.6876 -0.5996
 1291SOL    HW2 7466   5.879   6.129  10.765 -2.1846 -1.0928  1.2614
 1292SOL     OW 7467   5.553   1.159   6.828  0.0096 -0.4693  0.2151
 1292SOL    HW1 7468   5.575   1.070   6.857  0.5109 -0.7558 -1.0044
 1292SOL    HW2 7469   5.484   1.146   6.763  1.1825 -0.1036 -1.1386
 1293SOL     OW 7470  10.014   9.005   8.164 -0.3752  0.3189  0.0707
 1293SOL    HW1 7471  10.019   9.100   8.169  1.7733  0.2388  0.7906
 1293SOL    HW2 7472  10.041   8.985   8.074  1.6271  0.3675  0.5991
 1294SOL     OW 7473   3.332   9.782   3.503 -0.2781  0.3737 -0.4599
 1294SOL    HW1 7474   3.269   9.846   3.468 -1.0241  0.6443  1.3059
 1294SOL    HW2 7475   3.369   9.824   3.580  0.2450 -0.7863 -0.0601
 1295SOL     OW 7476   4.539   9.547  10.107 -0.3639 -0.2896 -0.4171
 1295SOL    HW1 7477   4.563   9.627  10.059 -1.8225  0.9872  0.8519
 1295SOL    HW2 7478   4.577   9.476  10.056  2.5088  1.2653 -0.6873
 1296SOL     OW 7479   6.872   9.549   3.882 -0.1340 -0.2246  0.8118
 1296SOL    HW1 7480   6.959   9.529   3.915  0.8498  3.2120  0.7333
 1296SOL    HW2 7481   6.827   9.591   3.956 -0.8926  0.1006  0.1866
 1297SOL     OW 7482   2.283   6.881   8.938  0.8543 -0.0039 -0.1633
 1297SOL    HW1 7483   2.294   6.807   8.998  0.0469  0.0686  0.0820
 1297SOL    HW2 7484   2.354   6.871   8.875 -0.1828 -1.9541 -1.1378
 1298SOL     OW 7485   0.103   1.468   6.626  0.3627 -0.7975  0.2078
 1298SOL    HW1 7486   0.097   1.373   6.613  0.4692 -1.1954  2.6114
 1298SOL    HW2 7487   0.186   1.481   6.672 -0.8012  0.1257  2.1893
 1299SOL     OW 7488   9.428   4.411   0.263  0.5249  0.1912  0.0500
 1299SOL    HW1 7489   9.334   4.426   0.274  0.3631  0.3504 -1.3710
 1299SOL    HW2 7490   9.449   4.344   0.329 -0.3383  0.9481  1.1316
 1300SOL     OW 7491   7.839   9.367   4.525  0.3460 -0.1875 -0.0035
 1300SOL    HW1 7492   7.813   9.372   4.617 -0.5605  0.1289 -0.2565
 1300SOL    HW2 7493   7.906   9.299   4.522  1.1474  0.5250  1.0449
 1301SOL     OW 7494   5.003   6.413   6.289  0.2930  0.0171 -0.2659
 1301SOL    HW1 7495   5.018   6.319   6.288  1.9547  0.2517 -1.1019
 1301SOL    HW2 7496   4.972   6.434   6.201 -2.7392 -0.0738  0.6852
 1302SOL     OW 7497   2.324   9.838   5.917  0.0305  0.0488  0.6162
 1302SOL    HW1 7498   2.418   9.834   5.929 -0.0740 -0.1395  1.4186
 1302SOL    HW2 7499   2.293   9.750   5.940 -0.3764  0.2184  0.7302
 1303SOL     OW 7500  10.300   9.280   2.333 -0.5606 -0.2248 -0.4565
 1303SOL    HW1 7501  10.303   9.247   2.243  0.7231 -0.8228 -0.2273
 1303SOL    HW2 7502  10.356   9.220   2.382 -1.5256 -0.1131  0.8200
 1304SOL     OW 7503   4.216   3.832   4.834 -0.0988  0.3281 -0.6888
 1304SOL    HW1 7504   4.230   3.858   4.925  1.3170 -1.0751 -0.4778
 1304SOL    HW2 7505   4.227   3.913   4.784 -1.3785  1.2116  0.4006
 1305SOL     OW 7506  10.993   7.173   7.808 -0.0098  0.1561  0.3845
 1305SOL    HW1 7507  10.957   7.251   7.767  2.2487  0.7616 -0.5861
 1305SOL    HW2 7508  10.916   7.121   7.832 -1.5261  2.0503 -0.1367
 1306SOL     OW 7509   2.892   2.442   8.387  0.4030 -0.3622  0.2616
 1306SOL    HW1 7510   2.822   2.422   8.449  0.3093 -2.0094 -0.3298
 1306SOL    HW2 7511   2.856   2.511   8.331 -0.5402 -0.8105  0.3033
 1307SOL     OW 7512   9.204   6.069   2.576  0.0596  0.1939  0.4544
 1307SOL    HW1 7513   9.144   5.997   2.596 -0.0667  0.1882  0.0610
 1307SOL    HW2 7514   9.280   6.052   2.631 -0.6598  0.6996  1.6521
 1308SOL     OW 7515   4.476   3.350  10.360 -0.2166  0.1714  0.5731
 1308SOL    HW1 7516   4.487   3.380  10.270  2.4700  0.7418  1.0152
 1308SOL    HW2 7517   4.460   3.256  10.352 -1.6944  0.4783 -0.5210
 1309SOL     OW 7518   8.492   5.021   2.797 -0.5598  0.1911  0.8536
 1309SOL    HW1 7519   8.402   5.033   2.828 -0.6547 -0.3377  0.7926
 1309SOL    HW2 7520   8.498   5.074   2.718 -0.9194 -0.0441  0.6709
 1310SOL     OW 7521  10.439   5.892   6.141  0.9517  0.2258 -0.2288
 1310SOL    HW1 7522  10.357   5.843   6.134  1.4166 -0.5814 -0.2454
 1310SOL    HW2 7523  10.422   5.958   6.208 -0.1464  0.9939 -1.2199
 1311SOL     OW 7524   8.625   4.244   9.659  0.6102 -0.4336  0.0836
 1311SOL    HW1 7525   8.627   4.340   9.652 -1.2051 -0.3192  0.4535
 1311SOL    HW2 7526   8.594   4.214   9.574 -0.8257 -0.5136  0.6010
 1312SOL     OW 7527  10.034   2.766   0.464  0.5418 -0.0104 -0.1593
 1312SOL    HW1 7528  10.063   2.696   0.407 -0.1738  0.6560 -1.3965
 1312SOL    HW2 7529   9.952   2.796   0.425 -1.0894 -0.8384  2.3278
 1313SOL     OW 7530  10.188   7.058   5.541  0.2399  0.6191 -0.1874
 1313SOL    HW1 7531  10.194   7.151   5.565  0.4800 -0.1553  3.3503
 1313SOL    HW2 7532  10.274   7.037   5.505  0.8797  1.3635  0.8438
 1314SOL     OW 7533   3.542   6.625   3.686 -0.4074 -0.2608  0.5010
 1314SOL    HW1 7534   3.576   6.701   3.639 -1.7108 -0.4129 -0.7337
 1314SOL    HW2 7535   3.613   6.600   3.745  0.8420  0.6297 -0.5754
 1315SOL     OW 7536   3.691   3.961   8.519  0.3856 -0.7302  0.3222
 1315SOL    HW1 7537   3.750   3.965   8.594 -0.2334  0.6536  0.7744
 1315SOL    HW2 7538   3.611   3.921   8.553  0.5784 -1.3679  0.0438
 1316SOL     OW 7539   8.558   2.804   9.528  0.9357  0.2025 -0.3471
 1316SOL    HW1 7540   8.650   2.780   9.540  0.7145 -0.9123 -0.7610
 1316SOL    HW2 7541   8.551   2.824   9.434  0.0575 -3.1134 -1.1097
 1317SOL     OW 7542   4.142  10.558   4.671 -0.5960 -0.1128  0.0964
 1317SOL    HW1 7543   4.136  10.487   4.606  1.2208 -0.0979 -0.1287
 1317SOL    HW2 7544   4.124  10.514   4.755 -2.7541 -0.1687 -0.3240
 1318SOL     OW 7545  10.618   6.016   5.875 -0.0365 -0.1334  0.0030
 1318SOL    HW1 7546  10.570   6.065   5.942 -0.3680  0.6179 -0.7799
 1318SOL    HW2 7547  10.684   5.967   5.925  0.5719  1.4106  0.7866
 1319SOL     OW 7548   8.168   8.018   0.858 -0.0798 -0.2364  0.5410
 1319SOL    HW1 7549   8.096   8.009   0.920 -1.7655  0.9867 -1.1015
 1319SOL    HW2 7550   8.127   8.056   0.779  1.9629 -1.5173 -1.2549
 1320SOL     OW 7551   9.364   8.330   5.775 -0.1060 -0.0960 -0.1098
 1320SOL    HW1 7552   9.321   8.394   5.717  3.3692  0.9383 -1.7840
 1320SOL    HW2 7553   9.399   8.264   5.715 -0.5218 -1.6844  1.3271
 1321SOL     OW 7554   7.609   3.268   4.194  0.1014 -0.3104 -0.3894
 1321SOL    HW1 7555   7.590   3.281   4.101  0.2808 -0.7894 -0.4954
 1321SOL    HW2 7556   7.703   3.282   4.202 -0.1123  1.0142 -0.0478
 1322SOL     OW 7557   1.408   2.384   7.854 -0.1722 -0.1593  0.1197
 1322SOL    HW1 7558   1.415   2.445   7.928  0.4240 -2.4911  2.1184
 1322SOL    HW2 7559   1.350   2.428   7.792  0.4115  2.5045  1.3212
 1323SOL     OW 7560   9.415  10.698   4.282 -0.0625  0.3615 -0.1916
 1323SOL    HW1 7561   9.352  10.670   4.348  0.2918  1.2143  0.5348
 1323SOL    HW2 7562   9.389  10.788   4.262 -0.5970 -0.1038 -1.7567
 1324SOL     OW 7563   1.313   1.199   5.615 -0.0724  0.8713  0.3160
 1324SOL    HW1 7564   1.395   1.224   5.658  0.0978  1.0594 -0.1076
 1324SOL    HW2 7565   1.340   1.136   5.548 -0.3618  0.3987  0.6341
 1325SOL     OW 7566   4.039   9.177   4.370  0.3742  0.0694  0.2091
 1325SOL    HW1 7567   3.948   9.162   4.396 -0.0661 -0.5403 -1.5081
 1325SOL    HW2 7568   4.081   9.092   4.379  1.1183  0.5838  2.0773
 1326SOL     OW 7569   1.967   3.367   5.364 -0.0940 -0.5171  0.3520
 1326SOL    HW1 7570   1.991   3.327   5.448 -1.6063  0.4315  1.2920
 1326SOL    HW2 7571   1.871   3.364   5.363 -0.3874  3.4160  0.7339
 1327SOL     OW 7572   4.338   7.797   6.058  0.0258 -0.5805  0.1505
 1327SOL    HW1 7573   4.345   7.852   6.137 -0.2167 -2.0142  1.2166
 1327SOL    HW2 7574   4.246   7.807   6.031  0.4831  1.1721 -0.9591
 1328SOL     OW 7575   7.970   2.245   6.055 -0.1634  0.6825  0.0109
 1328SOL    HW1 7576   7.973   2.210   5.966  0.3023  0.0587  0.2610
 1328SOL    HW2 7577   7.902   2.193   6.098  0.4739  0.1273  0.3617
 1329SOL     OW 7578   3.641   8.990   9.876  0.3954 -0.1645  1.0415
 1329SOL    HW1 7579   3.707   8.947   9.822  2.4872  0.5386  2.8821
 1329SOL    HW2 7580   3.562   8.936   9.866  0.9754 -0.6635 -1.7506
 1330SOL     OW 7581   6.694   2.788   2.589 -0.1599 -0.1764  0.2013
 1330SOL    HW1 7582   6.699   2.693   2.580 -0.5330 -0.3971  1.9414
 1330SOL    HW2 7583   6.643   2.817   2.514 -1.3488 -1.5246  0.4440
 1331SOL     OW 7584   2.450   1.767   2.442 -0.3548 -0.3417 -0.5754
 1331SOL    HW1 7585   2.453   1.690   2.385 -1.2597 -0.2618 -0.7589
 1331SOL    HW2 7586   2.456   1.731   2.530  2.1877 -0.3868 -0.6966
 1332SOL     OW 7587   2.520   8.643   0.754 -0.2413  0.6031  0.0644
 1332SOL    HW1 7588   2.493   8.554   0.774  0.3158  0.5375  0.5483
 1332SOL    HW2 7589   2.615   8.638   0.745 -0.1603  1.2262  0.5149
 1333SOL     OW 7590   2.044  10.627   3.645 -0.2419  0.0640  0.7608
 1333SOL    HW1 7591   2.063  10.644   3.553  0.0759  0.0273  0.8203
 1333SOL    HW2 7592   1.949  10.633   3.650 -0.3294 -0.7136  0.2652
 1334SOL     OW 7593   8.967   5.082   8.636 -0.0213 -0.1195  0.3846
 1334SOL    HW1 7594   9.001   5.131   8.562 -1.5520  1.0590  0.4229
 1334SOL    HW2 7595   8.872   5.095   8.633 -0.0972  0.4282  2.8451
 1335SOL     OW 7596   3.558   8.211   5.796 -0.5831 -0.1982  1.1695
 1335SOL    HW1 7597   3.568   8.127   5.751 -0.7959 -0.9815  2.5107
 1335SOL    HW2 7598   3.641   8.256   5.780  0.1008 -1.2545  1.5639
 1336SOL     OW 7599   2.529   4.786   7.316  0.0142  0.3219 -0.1172
 1336SOL    HW1 7600   2.561   4.821   7.234 -1.4092  1.6794 -0.1322
 1336SOL    HW2 7601   2.599   4.803   7.379 -0.3397  2.6299 -0.2811
 1337SOL     OW 7602   0.552   8.510   4.933  0.3800  0.2318 -0.2184
 1337SOL    HW1 7603   0.499   8.549   5.002 -0.0617  3.9297 -2.4019
 1337SOL    HW2 7604   0.494   8.509   4.856  1.7060 -1.1563 -1.2688
 1338SOL     OW 7605  10.512   4.592   0.681 -0.0592  0.2656  0.2988
 1338SOL    HW1 7606  10.505   4.688   0.676 -0.1529  0.2000 -1.8021
 1338SOL    HW2 7607  10.553   4.576   0.766  0.0523  2.1685  0.6689
 1339SOL     OW 7608   9.007   6.797   4.330  0.1656  0.3847  0.0905
 1339SOL    HW1 7609   8.971   6.735   4.393  1.9777 -1.2461 -0.3950
 1339SOL    HW2 7610   8.950   6.789   4.254 -1.1997  1.3459  0.9506
 1340SOL     OW 7611   2.532   9.025   5.640  0.5030  0.6002  0.1689
 1340SOL    HW1 7612   2.525   9.032   5.545  0.3217  4.2868  0.3144
 1340SOL    HW2 7613   2.464   9.084   5.674  1.7024  0.7497  2.5421
 1341SOL     OW 7614   3.042   3.591   0.200  0.1563  0.3148 -0.3012
 1341SOL    HW1 7615   3.025   3.592   0.294  0.2037  1.0107 -0.2955
 1341SOL    HW2 7616   2.961   3.557   0.161  0.4077 -0.6943  0.0365
 1342SOL     OW 7617   3.586   3.251   6.783 -0.2635 -0.3099 -0.2208
 1342SOL    HW1 7618   3.519   3.250   6.852  0.4181 -0.8344  0.4502
 1342SOL    HW2 7619   3.634   3.332   6.798 -0.4499 -0.1617 -0.4155
 1343SOL     OW 7620   3.122  10.922   3.877  0.0606  0.0257  0.3173
 1343SOL    HW1 7621   3.156  10.835   3.858 -1.2893 -0.6693  0.9993
 1343SOL    HW2 7622   3.056  10.937   3.810  2.2374  1.7874 -1.6291
 1344SOL     OW 7623   7.984   6.868   2.847  0.7784 -0.7397  0.6177
 1344SOL    HW1 7624   7.993   6.962   2.830 -1.4786 -0.8557 -1.8688
 1344SOL    HW2 7625   7.997   6.827   2.762  0.2504 -2.5611  1.3776
 1345SOL     OW 7626   1.776   3.259   6.656  0.1974 -0.1017  0.1394
 1345SOL    HW1 7627   1.849   3.317   6.636 -0.5239  1.1594  1.0053
 1345SOL    HW2 7628   1.729   3.251   6.573  0.3749  0.4633 -0.0238
 1346SOL     OW 7629   1.070   2.645   0.361  0.6134 -0.0859  0.1691
 1346SOL    HW1 7630   1.094   2.643   0.268 -0.2947 -0.4986 -0.0726
 1346SOL    HW2 7631   1.147   2.681   0.405  1.2978 -0.4742 -0.6684
 1347SOL     OW 7632   1.177   4.135  11.008  0.5104  0.1312 -0.0783
 1347SOL    HW1 7633   1.164   4.206  10.945 -1.3411 -1.3021 -1.4198
 1347SOL    HW2 7634   1.199   4.179  11.090  0.3298  2.1917 -1.0708
 1348SOL     OW 7635   8.035   6.017   5.073 -0.1893 -0.1104 -0.3622
 1348SOL    HW1 7636   8.112   5.981   5.116  2.9090  3.7854 -1.9691
 1348SOL    HW2 7637   7.997   6.076   5.138  0.4480  0.6973 -0.7003
 1349SOL     OW 7638   4.243   9.314   3.251  0.0213 -0.3850 -0.0819
 1349SOL    HW1 7639   4.167   9.328   3.195 -0.4526 -0.2456  0.5937
 1349SOL    HW2 7640   4.273   9.226   3.229 -1.4482 -1.1884  0.9599
 1350SOL     OW 7641   6.794   9.049   1.870 -0.2968  0.2938 -0.1997
 1350SOL    HW1 7642   6.886   9.074   1.875  0.2761 -1.8131  1.1178
 1350SOL    HW2 7643   6.780   9.031   1.777  0.9419 -0.3872 -0.2814
 1351SOL     OW 7644   5.370   4.224   4.907 -0.0183 -0.0787 -0.4144
 1351SOL    HW1 7645   5.433   4.173   4.856 -0.5651 -0.9608 -0.2247
 1351SOL    HW2 7646   5.423   4.267   4.975  0.1841 -2.1909  0.8362
 1352SOL     OW 7647   6.590   4.286   7.651  0.8294 -0.3995  0.2677
 1352SOL    HW1 7648   6.573   4.192   7.642 -0.2471 -0.5600  3.1014
 1352SOL    HW2 7649   6.505   4.328   7.638  1.2092  0.1868 -0.4672
 1353SOL     OW 7650   5.696   7.209   3.104  0.4718 -0.0181  0.0076
 1353SOL    HW1 7651   5.622   7.175   3.054  0.9420 -0.4818 -0.3708
 1353SOL    HW2 7652   5.658   7.279   3.157 -0.2341 -0.2306 -0.2078
 1354SOL     OW 7653   2.860   9.018   6.717 -0.3879  0.5503  0.2490
 1354SOL    HW1 7654   2.841   8.925   6.702  0.1128  0.4198  0.4047
 1354SOL    HW2 7655   2.901   9.021   6.803  0.2892  0.8216 -0.0719
 1355SOL     OW 7656  10.890   9.460   1.312 -1.1231  0.5002 -0.0025
 1355SOL    HW1 7657  10.971   9.503   1.342 -0.0672 -0.6302 -1.1228
 1355SOL    HW2 7658  10.845   9.527   1.261 -1.6504  1.6030  1.7941
 1356SOL     OW 7659   2.926   2.425   9.397  0.3209  0.5530  0.9646
 1356SOL    HW1 7660   2.928   2.350   9.458  0.2630 -0.5406 -0.3404
 1356SOL    HW2 7661   2.999   2.409   9.338 -0.3077  0.9988  0.0554
 1357SOL     OW 7662   6.617   2.734   3.132  0.1457  0.1507  0.2522
 1357SOL    HW1 7663   6.524   2.723   3.150 -0.0654  0.6073 -0.5004
 1357SOL    HW2 7664   6.621   2.808   3.071  0.9496 -0.2622 -0.2115
 1358SOL     OW 7665   4.909   7.250   9.214 -0.5445 -0.0518 -0.3135
 1358SOL    HW1 7666   4.874   7.327   9.170 -0.1802 -0.0500 -0.6068
 1358SOL    HW2 7667   4.998   7.275   9.238 -0.6946 -0.0972  0.3120
 1359SOL     OW 7668   5.857   7.320   9.675  0.1303  0.4541  0.2492
 1359SOL    HW1 7669   5.933   7.291   9.725  0.5754  0.1960 -0.5457
 1359SOL    HW2 7670   5.810   7.239   9.653 -0.6624  0.6535  1.1720
 1360SOL     OW 7671   9.858   1.892   2.299 -0.0240 -0.0854  0.6843
 1360SOL    HW1 7672   9.835   1.979   2.332  0.0011  0.4733 -0.6979
 1360SOL    HW2 7673   9.814   1.886   2.215 -0.3617 -1.5925  0.9402
 1361SOL     OW 7674   2.228   7.742   3.995 -0.3048  0.3267  0.2762
 1361SOL    HW1 7675   2.233   7.740   3.899 -0.1333 -1.7233  0.2795
 1361SOL    HW2 7676   2.304   7.691   4.024 -1.1197 -0.2589  1.4548
 1362SOL     OW 7677   3.888   9.349   5.161 -0.2305 -0.0040  0.5654
 1362SOL    HW1 7678   3.872   9.285   5.230  0.5334 -0.6257  0.1807
 1362SOL    HW2 7679   3.810   9.345   5.106 -1.1333  0.9600  1.7300
 1363SOL     OW 7680  10.520  10.020   3.367  0.2093 -0.4154  0.3244
 1363SOL    HW1 7681  10.574  10.077   3.423 -0.0805 -0.1082  0.2963
 1363SOL    HW2 7682  10.445   9.998   3.422  0.1284 -0.4504  0.1982
 1364SOL     OW 7683   5.883   6.998   3.590 -0.3051 -0.6024  0.3522
 1364SOL    HW1 7684   5.893   7.058   3.516  1.7573 -3.1030 -1.5809
 1364SOL    HW2 7685   5.942   7.032   3.657  1.3479 -0.7240 -0.9646
 1365SOL     OW 7686   0.642   0.877   0.826  0.2425 -0.3586 -0.0755
 1365SOL    HW1 7687   0.600   0.937   0.888  0.6717 -0.0293 -0.0975
 1365SOL    HW2 7688   0.733   0.871   0.856  0.8380  0.9709 -1.5118
 1366SOL     OW 7689   5.401   6.972   7.013 -0.1260  0.3863 -0.2780
 1366SOL    HW1 7690   5.347   6.938   7.085 -0.1382  1.0756  0.0426
 1366SOL    HW2 7691   5.422   6.895   6.961  0.1747 -0.1810  0.6561
 1367SOL     OW 7692   2.026   3.498   4.647  0.0679  0.6925  0.6650
 1367SOL    HW1 7693   2.101   3.484   4.588  0.2085  2.0762  0.4751
 1367SOL    HW2 7694   2.063   3.544   4.722 -0.5137  0.9933  0.7715
 1368SOL     OW 7695   2.321   3.864   4.044 -0.0850  0.2213  0.1216
 1368SOL    HW1 7696   2.303   3.876   3.950 -0.6561 -0.6955  0.0977
 1368SOL    HW2 7697   2.416   3.866   4.050  0.0108 -0.8245 -0.6626
 1369SOL     OW 7698   8.056   2.401   3.234  0.0837 -0.1589 -0.1299
 1369SOL    HW1 7699   8.056   2.342   3.159 -0.4578  0.9362 -1.0191
 1369SOL    HW2 7700   8.009   2.478   3.204 -1.2121 -0.1653  1.7440
 1370SOL     OW 7701   3.321   2.438   9.610  0.3388 -0.3074  0.3481
 1370SOL    HW1 7702   3.346   2.530   9.617  0.8297 -0.0998 -2.5599
 1370SOL    HW2 7703   3.225   2.439   9.606  0.3652  0.1639 -0.3102
 1371SOL     OW 7704  10.589   4.948   1.282 -0.1083  0.2065 -0.2268
 1371SOL    HW1 7705  10.617   5.024   1.231  0.6950 -1.1516 -1.9109
 1371SOL    HW2 7706  10.510   4.978   1.328  1.4164  2.7270  0.9842
 1372SOL     OW 7707   8.663   0.715   2.552 -0.0859 -0.0219  0.4331
 1372SOL    HW1 7708   8.627   0.682   2.470 -0.6214 -0.4570  0.8348
 1372SOL    HW2 7709   8.734   0.772   2.526 -0.2971 -0.1043 -0.3379
 1373SOL     OW 7710   3.857   1.553   4.392 -0.5820  0.6119  0.2382
 1373SOL    HW1 7711   3.816   1.467   4.387 -0.5030  0.5821  0.0960
 1373SOL    HW2 7712   3.928   1.550   4.328 -0.2494  0.6037  0.5998
 1374SOL     OW 7713   6.382   4.130   3.448 -0.1770 -0.1347  0.2363
 1374SOL    HW1 7714   6.398   4.212   3.495  0.7595  0.1283 -0.5176
 1374SOL    HW2 7715   6.462   4.114   3.398 -0.6065 -1.1599 -0.1577
 1375SOL     OW 7716  10.420   1.250   0.312 -0.2250 -0.2985 -0.3561
 1375SOL    HW1 7717  10.515   1.258   0.309 -0.1430 -1.0556  0.0427
 1375SOL    HW2 7718  10.404   1.156   0.319 -0.8673 -0.0390  4.0469
 1376SOL     OW 7719   0.888   7.009   2.187 -0.0876 -0.4876  0.0540
 1376SOL    HW1 7720   0.938   6.979   2.263 -0.8138 -0.1639  0.6692
 1376SOL    HW2 7721   0.797   6.991   2.209 -0.2312 -1.5441 -1.2711
 1377SOL     OW 7722   1.839   8.918   6.687 -0.3902 -0.5502  0.1112
 1377SOL    HW1 7723   1.862   8.825   6.687  0.0493 -0.4592 -0.8962
 1377SOL    HW2 7724   1.743   8.918   6.685 -0.4403 -0.9568  1.6096
 1378SOL     OW 7725   2.357   5.342   7.169  0.6861  0.0985 -0.0307
 1378SOL    HW1 7726   2.348   5.413   7.106  1.3749 -1.3132 -1.8206
 1378SOL    HW2 7727   2.450   5.341   7.192  0.5251  0.2995  0.6642
 1379SOL     OW 7728   3.846   4.345   2.151  0.4229 -0.3688  0.0642
 1379SOL    HW1 7729   3.831   4.361   2.244 -0.0788  0.3082 -0.1229
 1379SOL    HW2 7730   3.941   4.339   2.142  0.4374 -1.2657  0.7465
 1380SOL     OW 7731  10.182   2.190   5.453 -0.0041 -0.5451  0.2557
 1380SOL    HW1 7732  10.109   2.147   5.408 -0.2999  0.7631 -0.5663
 1380SOL    HW2 7733  10.157   2.190   5.546 -0.3586 -1.4072  0.1642
 1381SOL     OW 7734   6.982   6.305   4.711  0.0709  0.0487  0.2902
 1381SOL    HW1 7735   6.978   6.252   4.632 -1.7386 -0.3901  0.6272
 1381SOL    HW2 7736   6.893   6.338   4.723  0.0769 -0.5545  2.5628
 1382SOL     OW 7737  10.364   2.746   9.204 -0.4957  0.0985  0.4384
 1382SOL    HW1 7738  10.383   2.825   9.254 -2.3721 -0.0630  1.5161
 1382SOL    HW2 7739  10.268   2.745   9.195 -0.3292 -0.5134 -2.1869
 1383SOL     OW 7740   1.817   5.220   9.113 -0.1832  0.2602 -0.1923
 1383SOL    HW1 7741   1.756   5.153   9.145  1.0538 -0.7611  0.0879
 1383SOL    HW2 7742   1.820   5.284   9.184 -1.1864  0.5168 -0.3568
 1384SOL     OW 7743   4.919   2.117   9.911  0.0791 -0.1184 -0.2565
 1384SOL    HW1 7744   4.988   2.051   9.899  0.5725  0.5739 -1.3958
 1384SOL    HW2 7745   4.955   2.178   9.976  1.2729  1.1260 -1.9833
 1385SOL     OW 7746  10.855   2.665   7.982 -0.3692  0.1576 -0.3613
 1385SOL    HW1 7747  10.911   2.739   7.960 -1.0051  0.5137 -0.7772
 1385SOL    HW2 7748  10.815   2.689   8.066 -0.0170 -0.0380 -0.1326
 1386SOL     OW 7749   0.399   2.120   2.838  0.3060 -0.5046  0.3015
 1386SOL    HW1 7750   0.468   2.054   2.826 -0.6575 -1.1895 -1.9062
 1386SOL    HW2 7751   0.446   2.203   2.840  1.3019 -1.0376  0.0118
 1387SOL     OW 7752   9.278   6.232   0.305 -0.2292  0.0241  0.0184
 1387SOL    HW1 7753   9.303   6.324   0.304 -2.0232  0.5966 -2.1873
 1387SOL    HW2 7754   9.275   6.207   0.212  0.2732 -2.2886  0.5695
 1388SOL     OW 7755   6.958   3.303  10.982 -0.1330  0.6629  0.3398
 1388SOL    HW1 7756   6.979   3.389  11.020 -0.2811 -0.1703  2.4604
 1388SOL    HW2 7757   6.863   3.303  10.974  0.0172  1.6052 -2.0955
 1389SOL     OW 7758  10.527   0.533   7.972 -0.1048  0.0317 -0.2189
 1389SOL    HW1 7759  10.524   0.539   7.877 -0.0045  0.5071 -0.1959
 1389SOL    HW2 7760  10.596   0.594   7.998  1.4135 -1.7023  0.0314
 1390SOL     OW 7761   3.653   8.056   8.536 -0.1970  0.1789 -0.2054
 1390SOL    HW1 7762   3.744   8.070   8.509 -0.0016 -0.6023  0.0197
 1390SOL    HW2 7763   3.617   7.996   8.470  0.1207 -1.2945  0.9059
 1391SOL     OW 7764   0.592   1.250  10.266 -0.1325 -0.2163 -0.2687
 1391SOL    HW1 7765   0.647   1.287  10.197 -1.4229  1.1560 -0.6276
 1391SOL    HW2 7766   0.553   1.172  10.226 -2.0003  1.3468 -1.7041
 1392SOL     OW 7767   0.453   0.354   4.844 -0.2312 -0.3253 -0.5136
 1392SOL    HW1 7768   0.379   0.318   4.892  0.5455 -1.0365  0.1762
 1392SOL    HW2 7769   0.477   0.433   4.893  0.7711 -1.2295  0.5101
 1393SOL     OW 7770   3.367  10.920   4.519 -0.9521  0.2530  0.0767
 1393SOL    HW1 7771   3.435  10.987   4.519 -0.8485  0.1482  0.1561
 1393SOL    HW2 7772   3.413  10.838   4.540 -0.9278  0.0085 -0.8727
 1394SOL     OW 7773   1.232   4.627   1.599  0.0796  0.0158  0.7540
 1394SOL    HW1 7774   1.220   4.721   1.618  2.6008  0.6070 -0.2742
 1394SOL    HW2 7775   1.267   4.591   1.680  1.6738  0.5648  0.3461
 1395SOL     OW 7776   1.313   6.566  10.749 -0.1677 -0.0075  0.3804
 1395SOL    HW1 7777   1.335   6.610  10.667 -0.7138  1.1731  0.8375
 1395SOL    HW2 7778   1.218   6.562  10.750 -0.1263 -1.8142  0.0740
 1396SOL     OW 7779   2.859   0.299  10.650 -0.0306 -0.4900 -0.3379
 1396SOL    HW1 7780   2.832   0.208  10.637  0.7832 -0.7658 -0.1201
 1396SOL    HW2 7781   2.919   0.317  10.578 -1.7528  0.5410 -1.5948
 1397SOL     OW 7782  11.014   2.050   5.961  0.4416 -0.3232  0.1234
 1397SOL    HW1 7783  11.091   2.105   5.946  0.9197 -1.0503 -0.1934
 1397SOL    HW2 7784  11.047   1.960   5.949  0.3161 -0.8624  3.1516
 1398SOL     OW 7785   4.103   9.895  10.993  0.3506  0.0048 -0.8856
 1398SOL    HW1 7786   4.184   9.918  10.948  0.5939 -0.3095 -0.6163
 1398SOL    HW2 7787   4.116   9.805  11.022 -0.1517 -0.0976 -0.9603
 1399SOL     OW 7788   9.427   5.738   2.748 -0.2782 -0.0931 -0.4321
 1399SOL    HW1 7789   9.385   5.667   2.796 -2.0262  0.2349 -1.3908
 1399SOL    HW2 7790   9.470   5.696   2.674 -1.4852 -0.1586 -1.1131
 1400SOL     OW 7791  10.936   4.581   9.063 -0.2193 -0.0873 -0.1613
 1400SOL    HW1 7792  10.986   4.652   9.024  1.1556 -0.3253  1.0954
 1400SOL    HW2 7793  10.883   4.623   9.131  0.6296 -0.2514  0.6147
 1401SOL     OW 7794   3.423  10.561   1.742 -0.3846 -0.0640 -0.1005
 1401SOL    HW1 7795   3.400  10.548   1.834  0.0218 -0.5307 -0.0633
 1401SOL    HW2 7796   3.478  10.640   1.742  0.2939 -0.5288  0.1665
 1402SOL     OW 7797   7.468   3.027   0.561 -0.0339  0.2326  0.4713
 1402SOL    HW1 7798   7.403   3.097   0.554  0.4796  0.7331  0.5725
 1402SOL    HW2 7799   7.474   3.009   0.655  0.5509  0.7604  0.5464
 1403SOL     OW 7800   7.276   6.732   3.656 -0.0792  0.0835 -0.3197
 1403SOL    HW1 7801   7.218   6.701   3.726 -0.4895 -2.3865 -1.6212
 1403SOL    HW2 7802   7.355   6.679   3.666  0.0084 -0.0199 -1.4545
 1404SOL     OW 7803   7.155   6.448   1.141  0.2956 -0.0128  0.5048
 1404SOL    HW1 7804   7.140   6.396   1.220  2.5632 -0.4535  0.7090
 1404SOL    HW2 7805   7.236   6.496   1.158  0.0632  1.0153 -1.0090
 1405SOL     OW 7806   7.453   9.986   2.738 -0.0126  0.5096 -0.3899
 1405SOL    HW1 7807   7.393  10.045   2.783  1.4622  0.5370  1.6876
 1405SOL    HW2 7808   7.540  10.016   2.763  0.8705 -0.5771 -1.9302
 1406SOL     OW 7809   3.156   4.894  10.299 -0.6681  0.4984  0.3099
 1406SOL    HW1 7810   3.147   4.799  10.296  2.6010 -0.0250  2.2342
 1406SOL    HW2 7811   3.099   4.922  10.370 -0.1708 -0.3193  1.0477
 1407SOL     OW 7812   0.768   3.745   5.237  0.0705 -0.0761  0.3406
 1407SOL    HW1 7813   0.731   3.830   5.261 -2.3628 -0.9843  0.1052
 1407SOL    HW2 7814   0.819   3.718   5.314  0.6782  1.4627  0.5045
 1408SOL     OW 7815   1.032   5.582   9.136  0.0630  0.4778 -0.5403
 1408SOL    HW1 7816   1.008   5.621   9.052  1.9869 -1.6175 -2.1703
 1408SOL    HW2 7817   1.117   5.620   9.156 -0.1693  0.5990  0.2584
 1409SOL     OW 7818   4.057   7.977  10.161 -0.3492  0.3757 -0.5659
 1409SOL    HW1 7819   4.004   7.898  10.151 -1.0161  0.5567  1.1718
 1409SOL    HW2 7820   4.081   7.978  10.253  1.2730  1.2126 -0.9581
 1410SOL     OW 7821   4.378   1.737   5.938 -0.4640 -0.0969 -0.2735
 1410SOL    HW1 7822   4.444   1.737   5.869 -0.4368  1.2592 -0.2670
 1410SOL    HW2 7823   4.414   1.795   6.005 -0.5634 -1.2645  0.8173
 1411SOL     OW 7824   6.935   6.881   4.344 -0.4980  0.2341 -0.7596
 1411SOL    HW1 7825   6.955   6.890   4.437 -2.3721 -0.6493 -0.2156
 1411SOL    HW2 7826   6.985   6.804   4.317 -0.4466  0.1081 -0.3214
 1412SOL     OW 7827   9.757   8.947   3.656  0.2793 -0.4264 -0.4240
 1412SOL    HW1 7828   9.748   9.030   3.704 -0.5619  0.3392 -1.8447
 1412SOL    HW2 7829   9.705   8.959   3.577 -0.3328 -2.5449 -0.3999
 1413SOL     OW 7830   8.411   4.529  10.353 -0.2780 -0.3468 -0.1270
 1413SOL    HW1 7831   8.380   4.496  10.268 -0.1448  1.6972 -1.0080
 1413SOL    HW2 7832   8.375   4.617  10.360  4.6683  2.0857 -0.9836
 1414SOL     OW 7833   2.413   5.554   3.088  0.1147 -0.2109 -0.1102
 1414SOL    HW1 7834   2.461   5.492   3.033 -0.2911  0.1031 -0.8290
 1414SOL    HW2 7835   2.478   5.618   3.116  0.4578 -0.7387  0.3212
 1415SOL     OW 7836   7.384   5.110   1.592 -0.1739 -0.0924  0.6180
 1415SOL    HW1 7837   7.319   5.140   1.656  0.8277  0.8940  1.2108
 1415SOL    HW2 7838   7.423   5.033   1.633  0.4395  0.5141  1.2144
 1416SOL     OW 7839   6.232   9.083   0.226 -0.9239 -0.0526 -0.1806
 1416SOL    HW1 7840   6.178   9.005   0.233 -0.1551 -0.4374  2.0004
 1416SOL    HW2 7841   6.316   9.059   0.265 -0.8685  2.0267  1.1241
 1417SOL     OW 7842   4.404   2.710  10.399  0.0407 -0.7437 -0.0265
 1417SOL    HW1 7843   4.378   2.715  10.307  1.1128  1.7128 -0.2748
 1417SOL    HW2 7844   4.499   2.719  10.397 -0.0034  0.3508  1.3394
 1418SOL     OW 7845   2.093   9.691   6.830 -0.4261 -0.2146 -0.2002
 1418SOL    HW1 7846   2.036   9.615   6.816 -0.1963 -0.6801  1.2532
 1418SOL    HW2 7847   2.065   9.726   6.914  0.2316  0.6403 -0.3322
 1419SOL     OW 7848   6.339   7.779   6.838 -0.5573  0.1461 -0.2013
 1419SOL    HW1 7849   6.402   7.794   6.908 -0.1224 -1.0181 -0.3243
 1419SOL    HW2 7850   6.266   7.733   6.880 -0.8826  0.6104 -0.2548
 1420SOL     OW 7851   5.778   5.684   6.972 -0.4737  0.1643  0.0948
 1420SOL    HW1 7852   5.749   5.644   6.890  3.0018 -0.0016 -1.1890
 1420SOL    HW2 7853   5.780   5.612   7.035 -1.0153 -0.1696 -0.2657
 1421SOL     OW 7854   6.205   8.040   4.333 -0.3367 -0.3309  0.3799
 1421SOL    HW1 7855   6.211   7.973   4.265  3.3925  0.4501 -0.2834
 1421SOL    HW2 7856   6.222   8.122   4.288 -1.2094  0.6506  1.7579
 1422SOL     OW 7857   8.111   4.794   1.864  0.5316  0.1288  0.0139
 1422SOL    HW1 7858   8.086   4.855   1.933 -0.6163  0.5788 -0.7753
 1422SOL    HW2 7859   8.206   4.800   1.860  0.3983  3.8930 -1.7852
 1423SOL     OW 7860   9.411   0.538   1.466 -0.1229 -0.3325 -0.1343
 1423SOL    HW1 7861   9.344   0.571   1.525  1.5273  1.1418  1.0117
 1423SOL    HW2 7862   9.478   0.501   1.524  1.7451  1.5305 -0.9524
 1424SOL     OW 7863   4.255   2.773   5.784  0.0382  0.0722 -0.4085
 1424SOL    HW1 7864   4.304   2.853   5.802  2.4483 -1.3158 -0.3774
 1424SOL    HW2 7865   4.254   2.768   5.688 -1.3117  0.7837 -0.4565
 1425SOL     OW 7866   2.417   6.815   5.265 -0.1294 -0.4194  0.2063
 1425SOL    HW1 7867   2.389   6.906   5.261 -0.1370 -0.4679 -1.4531
 1425SOL    HW2 7868   2.336   6.766   5.277 -0.2666 -0.2712 -0.0864
 1426SOL     OW 7869   6.332   5.121   4.486 -0.1860 -0.3066  0.3997
 1426SOL    HW1 7870   6.247   5.095   4.450  0.3860  0.1938 -1.4077
 1426SOL    HW2 7871   6.363   5.044   4.533 -0.8297 -1.1085 -0.4484
 1427SOL     OW 7872   4.931   7.324   8.125  0.4544 -0.0737 -0.1665
 1427SOL    HW1 7873   5.026   7.338   8.131  0.1940  1.1203  2.2729
 1427SOL    HW2 7874   4.918   7.236   8.162  0.5767 -0.2093 -0.4368
 1428SOL     OW 7875   2.320   5.404   4.633 -0.0053 -0.6867 -0.0859
 1428SOL    HW1 7876   2.303   5.384   4.725 -0.9398 -0.0411 -0.1016
 1428SOL    HW2 7877   2.265   5.342   4.585 -2.6105  1.4873 -0.1386
 1429SOL     OW 7878  10.361   5.700   8.752 -0.0922  0.9430 -0.1833
 1429SOL    HW1 7879  10.301   5.772   8.772  0.8289  2.2338 -1.7862
 1429SOL    HW2 7880  10.446   5.742   8.740  0.8658 -0.6605  0.5764
 1430SOL     OW 7881   7.026   2.399  10.051  0.0668 -0.0425  0.0549
 1430SOL    HW1 7882   7.074   2.467  10.005  0.8582 -1.1752 -0.8659
 1430SOL    HW2 7883   7.081   2.378  10.127 -0.0227  0.1316  0.1672
 1431SOL     OW 7884   1.070   8.902   2.654 -0.2139 -0.1632  0.2127
 1431SOL    HW1 7885   1.160   8.871   2.653 -0.4550 -0.9630  1.2777
 1431SOL    HW2 7886   1.017   8.822   2.655 -0.9133  0.2919  0.4041
 1432SOL     OW 7887   6.851   1.923  10.152  0.0474  0.0591 -0.1611
 1432SOL    HW1 7888   6.783   1.934  10.086 -0.7779 -0.4702  0.5851
 1432SOL    HW2 7889   6.812   1.865  10.218  0.2253  1.8648  1.6352
 1433SOL     OW 7890   3.783   5.488   1.263  0.5120  0.2616  0.4075
 1433SOL    HW1 7891   3.790   5.463   1.355  0.9172  0.9612  0.5759
 1433SOL    HW2 7892   3.857   5.546   1.249 -0.3894  1.3624  0.0421
 1434SOL     OW 7893   7.148  10.025   0.666  0.4646  0.3230 -0.2803
 1434SOL    HW1 7894   7.108   9.953   0.618  1.1290  0.4069 -0.9868
 1434SOL    HW2 7895   7.225  10.048   0.614  1.0870  0.5661  0.7184
 1435SOL     OW 7896   1.764   5.142   8.211  0.3908  0.0495 -0.1693
 1435SOL    HW1 7897   1.692   5.201   8.231  1.4822  1.0987  0.8490
 1435SOL    HW2 7898   1.733   5.056   8.238 -0.2394  0.6006  0.9381
 1436SOL     OW 7899  10.212   6.413   3.065 -0.2317  0.0030 -0.5578
 1436SOL    HW1 7900  10.307   6.427   3.066 -0.3243  0.9367 -2.0521
 1436SOL    HW2 7901  10.194   6.380   2.977 -1.3067 -0.1692 -0.2794
 1437SOL     OW 7902   3.204   9.915   6.646 -0.7745 -0.1456 -0.2199
 1437SOL    HW1 7903   3.224   9.975   6.718  0.8594 -0.9395  0.0443
 1437SOL    HW2 7904   3.117   9.942   6.615 -0.2986  2.0327  0.1781
 1438SOL     OW 7905   3.691   2.125   8.744 -0.1125  0.5798  0.6288
 1438SOL    HW1 7906   3.784   2.139   8.725  0.1980 -1.6977  0.2843
 1438SOL    HW2 7907   3.648   2.202   8.708  1.5164  1.1316 -0.2391
 1439SOL     OW 7908   2.474   2.939   4.140 -0.2297 -0.1920  0.7067
 1439SOL    HW1 7909   2.405   2.980   4.190  0.1790  0.1099  1.0302
 1439SOL    HW2 7910   2.554   2.958   4.189  0.2446  0.5632 -0.3319
 1440SOL     OW 7911   5.442   7.950  10.888 -0.1610  0.0738  0.4338
 1440SOL    HW1 7912   5.534   7.936  10.909 -0.3623 -1.5345  0.3317
 1440SOL    HW2 7913   5.435   7.926  10.796 -0.5884  0.7097  0.2945
 1441SOL     OW 7914   4.351   8.323   1.979  0.2192  0.0595  0.5727
 1441SOL    HW1 7915   4.263   8.348   1.950  1.4292  1.7531 -2.0377
 1441SOL    HW2 7916   4.370   8.242   1.931  0.6606  0.5838 -0.1574
 1442SOL     OW 7917   8.197   2.759   8.552  0.3209 -0.4668 -0.3693
 1442SOL    HW1 7918   8.116   2.734   8.598 -0.0835  0.9220 -0.2747
 1442SOL    HW2 7919   8.232   2.832   8.604  1.0880 -0.3885 -0.9888
 1443SOL     OW 7920   4.830   7.348   8.774  0.2643  0.1252 -0.1118
 1443SOL    HW1 7921   4.823   7.253   8.776 -0.7309  0.1761 -0.6306
 1443SOL    HW2 7922   4.875   7.367   8.691  1.1074  0.0882  0.3233
 1444SOL     OW 7923   8.739   3.233   3.206  0.0493 -0.8790  0.3595
 1444SOL    HW1 7924   8.806   3.164   3.206  2.0023  0.9215  1.4367
 1444SOL    HW2 7925   8.693   3.222   3.289 -1.0280 -2.0556 -0.3391
 1445SOL     OW 7926   7.507   0.657   9.017 -0.1370  0.4368  0.2643
 1445SOL    HW1 7927   7.445   0.587   9.040 -2.3138  1.5055 -1.8896
 1445SOL    HW2 7928   7.593   0.619   9.036 -1.2725 -2.3111  0.4897
 1446SOL     OW 7929   7.847   8.884   8.602  0.2065  0.2306  0.0492
 1446SOL    HW1 7930   7.864   8.935   8.522  0.1415  1.6891  0.9297
 1446SOL    HW2 7931   7.754   8.864   8.598 -0.6940  3.4387  1.4160
 1447SOL     OW 7932   1.762   1.547   9.395 -0.1531  0.0179 -0.1596
 1447SOL    HW1 7933   1.700   1.618   9.376  0.4911  1.2382  1.9435
 1447SOL    HW2 7934   1.749   1.529   9.488  2.2745 -0.0246  0.2323
 1448SOL     OW 7935   4.092   7.738   2.902 -0.2118  0.1456 -0.1034
 1448SOL    HW1 7936   4.170   7.792   2.887 -0.0385 -0.4292 -1.4913
 1448SOL    HW2 7937   4.119   7.649   2.876 -1.1325 -0.1793  0.0062
 1449SOL     OW 7938   2.224   1.510   8.727 -0.0345 -0.4778  0.1054
 1449SOL    HW1 7939   2.132   1.522   8.700  0.3498 -0.4612 -1.3084
 1449SOL    HW2 7940   2.257   1.600   8.737  0.2585 -0.4304 -1.0638
 1450SOL     OW 7941   8.250   0.111   5.113 -0.0868  0.1705  0.1383
 1450SOL    HW1 7942   8.250   0.045   5.044  0.1619  1.5950 -1.2721
 1450SOL    HW2 7943   8.291   0.068   5.188  0.0445 -1.2714 -0.7380
 1451SOL     OW 7944   8.633   2.924   8.337  0.4563  0.2270 -0.1003
 1451SOL    HW1 7945   8.718   2.902   8.298  0.1027 -0.4179 -0.5075
 1451SOL    HW2 7946   8.591   2.840   8.353 -1.1507  0.5398 -2.2103
 1452SOL     OW 7947   1.641   9.992   6.698 -0.2551 -0.6285 -0.3829
 1452SOL    HW1 7948   1.560   9.954   6.665 -1.6160  1.2606  0.5776
 1452SOL    HW2 7949   1.672   9.930   6.764 -0.9723 -1.3238 -0.6820
 1453SOL     OW 7950   4.595   5.395   0.433  0.4351 -0.0415 -0.3471
 1453SOL    HW1 7951   4.657   5.415   0.504 -0.2720  1.1090 -0.0211
 1453SOL    HW2 7952   4.591   5.300   0.431  2.1981 -0.1529 -0.3687
 1454SOL     OW 7953  10.894   2.378   7.228 -0.0113 -0.2963 -0.6013
 1454SOL    HW1 7954  10.935   2.393   7.313 -2.0101  0.7404  0.2484
 1454SOL    HW2 7955  10.943   2.434   7.168 -0.1318  0.8920  0.3717
 1455SOL     OW 7956   9.819  10.181   2.960  0.1151 -0.2164  0.9377
 1455SOL    HW1 7957   9.810  10.203   3.053 -0.2303  1.4413  0.5576
 1455SOL    HW2 7958   9.777  10.096   2.951 -3.8617  1.4562  1.5979
 1456SOL     OW 7959   5.944   5.554   8.963  0.3415 -0.1397  0.5037
 1456SOL    HW1 7960   6.007   5.525   9.028  0.7090  0.7213  0.5378
 1456SOL    HW2 7961   5.880   5.607   9.011  0.4298  0.2263  0.2259
 1457SOL     OW 7962   6.319   7.444   0.741 -0.6256 -0.0231 -0.5422
 1457SOL    HW1 7963   6.239   7.392   0.755 -0.1305 -0.4488  0.8662
 1457SOL    HW2 7964   6.353   7.413   0.657 -1.9364  0.1693 -1.1683
 1458SOL     OW 7965  10.894  11.020   4.980  0.2113 -0.1406 -0.2624
 1458SOL    HW1 7966  10.976  11.068   4.992 -0.1067  0.1857  0.7331
 1458SOL    HW2 7967  10.922  10.930   4.959  0.8117  0.1741 -0.8477
 1459SOL     OW 7968   1.757   7.057   2.858  0.5614  0.4447 -0.0586
 1459SOL    HW1 7969   1.755   6.968   2.821  0.8432  0.7429 -0.8185
 1459SOL    HW2 7970   1.700   7.053   2.935  1.6816 -0.7691  0.7574
 1460SOL     OW 7971   2.629   6.119   7.599  0.3264  0.0158  0.2377
 1460SOL    HW1 7972   2.597   6.031   7.615 -0.8214  0.2780 -0.4645
 1460SOL    HW2 7973   2.669   6.146   7.682 -0.4816 -0.6735  0.8723
 1461SOL     OW 7974   5.571   7.738   3.433  0.2240  0.9398 -0.3910
 1461SOL    HW1 7975   5.513   7.694   3.495  2.4175 -2.0861 -0.3071
 1461SOL    HW2 7976   5.539   7.829   3.431 -2.4017  0.2085  2.0588
 1462SOL     OW 7977   5.991  10.250   4.190  0.4677 -0.1951 -0.1785
 1462SOL    HW1 7978   5.909  10.214   4.154  0.6775  0.6428 -1.5761
 1462SOL    HW2 7979   6.058  10.188   4.164  0.3645 -0.6048  0.5039
 1463SOL     OW 7980   9.932   9.466   8.650  0.5181 -0.1346 -0.4832
 1463SOL    HW1 7981   9.988   9.469   8.728  1.3240 -0.7808 -1.0153
 1463SOL    HW2 7982   9.980   9.409   8.589  0.0895  0.6560 -1.5850
 1464SOL     OW 7983   5.421   5.578  10.233  0.4752  0.6304  0.4904
 1464SOL    HW1 7984   5.348   5.616  10.185  0.7537  1.5209  0.7558
 1464SOL    HW2 7985   5.393   5.581  10.325  0.8516  1.0039  0.5952
 1465SOL     OW 7986   8.627  10.820  10.873 -0.2883  0.5998 -0.3503
 1465SOL    HW1 7987   8.666  10.753  10.929 -0.7280  0.1526 -0.5768
 1465SOL    HW2 7988   8.640  10.902  10.921 -0.8415  0.1944  0.5043
 1466SOL     OW 7989  10.215   5.314   8.545 -0.2916  0.1053 -0.8564
 1466SOL    HW1 7990  10.214   5.220   8.524 -1.2582 -0.1337  0.1685
 1466SOL    HW2 7991  10.166   5.320   8.627  0.0718  1.4711 -0.7286
 1467SOL     OW 7992   3.888   9.869   4.908  0.4166 -0.2615 -0.2149
 1467SOL    HW1 7993   3.892   9.790   4.855  0.3352 -0.0163 -0.5853
 1467SOL    HW2 7994   3.809   9.914   4.880  1.0313  0.4973 -0.7798
 1468SOL     OW 7995   9.082   5.126  11.008 -0.2625 -0.0732 -0.5119
 1468SOL    HW1 7996   9.152   5.167  10.957  0.7552  1.5301  2.0257
 1468SOL    HW2 7997   9.023   5.198  11.029 -0.4678 -0.6044  0.8269
 1469SOL     OW 7998   5.244   4.518   8.433 -0.3865  0.1235 -0.1581
 1469SOL    HW1 7999   5.202   4.604   8.441 -0.9930  0.1228 -2.5787
 1469SOL    HW2 8000   5.204   4.480   8.355  1.1229 -1.6642 -0.1047
 1470SOL     OW 8001   3.202   5.157   6.931  0.3314 -0.0988 -0.7614
 1470SOL    HW1 8002   3.170   5.187   6.846 -1.7271  0.6864  0.2267
 1470SOL    HW2 8003   3.127   5.115   6.973  0.6132  1.4556  1.5194
 1471SOL     OW 8004   9.614   1.884   1.458  0.0722  0.4466 -0.4949
 1471SOL    HW1 8005   9.709   1.881   1.462  0.0914  0.7742 -0.6886
 1471SOL    HW2 8006   9.593   1.855   1.369 -0.0166  0.2824 -0.4229
 1472SOL     OW 8007   4.614   8.233   8.282 -0.6060  0.3086 -0.0477
 1472SOL    HW1 8008   4.576   8.288   8.351 -1.3547 -1.5103  1.0686
 1472SOL    HW2 8009   4.594   8.143   8.310 -0.6675 -0.5042 -2.5005
 1473SOL     OW 8010   0.552   6.015   6.347  0.0994  0.1863  0.0269
 1473SOL    HW1 8011   0.492   6.057   6.407 -2.2799 -1.0057 -1.3863
 1473SOL    HW2 8012   0.539   5.921   6.361  2.6536 -0.1705  0.5905
 1474SOL     OW 8013   6.960   0.967   0.537  0.0920 -1.0885  0.0869
 1474SOL    HW1 8014   6.866   0.985   0.536  0.0394 -0.7796  2.5053
 1474SOL    HW2 8015   7.001   1.054   0.547  0.5302 -1.3275  0.4383
 1475SOL     OW 8016   4.214   7.652   0.177  0.2833 -0.8597 -0.4915
 1475SOL    HW1 8017   4.218   7.567   0.220 -1.5071 -0.6826  0.1321
 1475SOL    HW2 8018   4.272   7.708   0.229 -0.0735 -1.2175  0.3056
 1476SOL     OW 8019   0.173   2.858  10.826  0.1272  0.5282 -0.0504
 1476SOL    HW1 8020   0.160   2.818  10.912  2.4107  1.1914  0.6528
 1476SOL    HW2 8021   0.086   2.855  10.786 -0.8668 -0.3778  2.0009
 1477SOL     OW 8022  10.383   6.923   8.364  0.5447  0.0170  0.0036
 1477SOL    HW1 8023  10.294   6.903   8.334  0.8713 -0.7385 -0.4798
 1477SOL    HW2 8024  10.371   6.997   8.424 -0.4166 -0.1219  0.0089
 1478SOL     OW 8025   8.310   2.879  11.027  0.8686 -0.0601 -0.1971
 1478SOL    HW1 8026   8.254   2.832  11.089 -1.7775  1.9209 -0.8752
 1478SOL    HW2 8027   8.384   2.908  11.080  0.8962 -2.0699  0.9696
 1479SOL     OW 8028   1.679   9.031   5.656  0.1451 -0.2892 -0.9430
 1479SOL    HW1 8029   1.662   8.987   5.573  0.8352 -1.2031 -0.6129
 1479SOL    HW2 8030   1.755   8.985   5.693 -1.1944 -1.0532  1.0107
 1480SOL     OW 8031   4.547   6.375   0.775  0.3425  0.4103  0.8978
 1480SOL    HW1 8032   4.558   6.399   0.684 -0.3064  1.9674  1.2041
 1480SOL    HW2 8033   4.617   6.312   0.792  0.8485  0.5658 -0.4924
 1481SOL     OW 8034   7.278   9.242   3.737 -0.0174 -0.0337 -0.0631
 1481SOL    HW1 8035   7.215   9.174   3.715  0.9191 -0.4612 -1.6153
 1481SOL    HW2 8036   7.316   9.213   3.820 -0.5729 -0.7081 -0.0358
 1482SOL     OW 8037   1.669   9.486   0.939 -0.0734 -0.1899 -0.4383
 1482SOL    HW1 8038   1.709   9.531   1.013 -0.1438  0.6849 -0.9252
 1482SOL    HW2 8039   1.595   9.438   0.978  1.5426 -2.0537  0.5143
 1483SOL     OW 8040   4.684   6.020   2.263  0.3781  0.3135  0.0946
 1483SOL    HW1 8041   4.711   6.021   2.171 -0.1511  3.0512 -0.1110
 1483SOL    HW2 8042   4.630   5.941   2.271  0.5635 -0.0759 -1.9034
 1484SOL     OW 8043   4.249  10.524   3.526 -0.1102  0.3017 -0.5746
 1484SOL    HW1 8044   4.250  10.431   3.546 -1.3785  0.6405  1.3312
 1484SOL    HW2 8045   4.305  10.564   3.593 -0.0302  0.9658 -1.0230
 1485SOL     OW 8046   2.533   3.286   9.348  0.5707 -0.5673 -0.1830
 1485SOL    HW1 8047   2.605   3.342   9.377  0.3347  0.6604 -1.8807
 1485SOL    HW2 8048   2.488   3.262   9.430 -0.6711  3.5582  0.5673
 1486SOL     OW 8049   7.194   5.503   0.504 -0.4659  0.4114  0.1246
 1486SOL    HW1 8050   7.106   5.510   0.539  0.3546  0.5891  2.3422
 1486SOL    HW2 8051   7.189   5.543   0.417 -2.2275  1.8898  0.8352
 1487SOL     OW 8052   1.858   6.145   2.820 -0.0543  0.2385 -0.4112
 1487SOL    HW1 8053   1.908   6.161   2.900 -0.7550  0.1809  0.0523
 1487SOL    HW2 8054   1.903   6.195   2.752  0.4585  0.4136  0.0523
 1488SOL     OW 8055   1.945   0.380   2.641  0.0487 -0.1810 -0.1808
 1488SOL    HW1 8056   1.906   0.465   2.658 -1.7450 -0.2869 -3.1635
 1488SOL    HW2 8057   1.976   0.351   2.727 -0.0276  3.0473  1.0809
 1489SOL     OW 8058   1.904   7.871   8.223  0.2489 -0.2275  0.2288
 1489SOL    HW1 8059   1.847   7.940   8.257  1.5966  0.7919  0.5109
 1489SOL    HW2 8060   1.979   7.918   8.185  2.4030 -1.5571  2.5325
 1490SOL     OW 8061   2.952   0.811   8.628 -0.5620  0.1137  0.5238
 1490SOL    HW1 8062   2.966   0.892   8.579 -1.9524 -0.2057 -0.4705
 1490SOL    HW2 8063   2.981   0.741   8.570 -2.4158 -0.2850 -0.0014
 1491SOL     OW 8064   5.091  10.926   5.889  0.1734 -0.1919  0.0152
 1491SOL    HW1 8065   5.127  10.840   5.865 -0.5984 -0.4152 -0.3907
 1491SOL    HW2 8066   5.080  10.922   5.984  0.0517 -0.5776 -0.0145
 1492SOL     OW 8067   1.927   5.503  10.107 -0.5452  0.3218  0.3793
 1492SOL    HW1 8068   1.911   5.597  10.104 -0.3080  0.3744  0.7466
 1492SOL    HW2 8069   1.881   5.468  10.030 -1.3276  0.6303  0.6955
 1493SOL     OW 8070  10.621   7.799   2.039 -0.7597 -0.6999 -0.0834
 1493SOL    HW1 8071  10.609   7.788   2.133  2.0057  0.4628  0.5092
 1493SOL    HW2 8072  10.618   7.893   2.025  1.3875 -0.6597 -0.6615
 1494SOL     OW 8073   5.493   2.389   2.461  0.4960 -0.2206  0.3619
 1494SOL    HW1 8074   5.422   2.415   2.520  0.2257 -2.2319  0.9946
 1494SOL    HW2 8075   5.570   2.381   2.517  0.5501 -0.8249  0.2106
 1495SOL     OW 8076   4.790   4.507  10.002 -0.0269 -0.2595  0.0015
 1495SOL    HW1 8077   4.821   4.510  10.092  2.6409 -0.1448 -0.8292
 1495SOL    HW2 8078   4.804   4.595   9.968  1.2395 -0.8654 -1.1568
 1496SOL     OW 8079   3.475  10.021   8.280  0.0025 -0.4641  0.0560
 1496SOL    HW1 8080   3.542  10.088   8.293 -0.7600 -0.0154  2.0743
 1496SOL    HW2 8081   3.513   9.962   8.215  0.4147  2.2444 -2.4009
 1497SOL     OW 8082   7.797   7.384   3.485 -1.1302  0.3200 -0.4035
 1497SOL    HW1 8083   7.749   7.354   3.563 -0.2693  0.1417  0.0685
 1497SOL    HW2 8084   7.795   7.480   3.492  2.1618  0.3583  1.9251
 1498SOL     OW 8085   1.529   1.005   7.597  0.3183 -0.4427 -0.2229
 1498SOL    HW1 8086   1.554   1.093   7.571 -0.2521  0.4871  2.0631
 1498SOL    HW2 8087   1.526   0.955   7.516  1.4137  1.4357 -1.4877
 1499SOL     OW 8088   8.227   5.157   1.052  0.9257 -0.3212 -0.1311
 1499SOL    HW1 8089   8.136   5.186   1.053  0.7159 -0.9813  0.8948
 1499SOL    HW2 8090   8.261   5.189   0.968 -0.1550  0.1958 -0.3924
 1500SOL     OW 8091   8.501   2.623   7.614 -0.1367  0.0936 -0.4957
 1500SOL    HW1 8092   8.461   2.701   7.574 -1.2881  0.1755  0.7448
 1500SOL    HW2 8093   8.438   2.596   7.681  1.0919 -0.8521  0.3124
 1501SOL     OW 8094   5.019   0.634   2.169 -0.0957 -0.5015  0.1037
 1501SOL    HW1 8095   4.923   0.636   2.170 -0.1282 -0.5062 -1.3138
 1501SOL    HW2 8096   5.045   0.716   2.127  0.5990  0.2852  1.9732
 1502SOL     OW 8097   0.629   6.733   0.698 -0.6776 -0.2436 -0.2105
 1502SOL    HW1 8098   0.544   6.770   0.673 -0.6750 -0.1153 -0.0349
 1502SOL    HW2 8099   0.672   6.804   0.746 -0.4098 -0.2593 -0.4289
 1503SOL     OW 8100   7.840   9.297   2.139 -0.0953  0.2252 -0.2742
 1503SOL    HW1 8101   7.839   9.316   2.233 -1.1361  0.3685 -0.2996
 1503SOL    HW2 8102   7.871   9.206   2.133  0.7155  0.4646  0.1465
 1504SOL     OW 8103   1.371   7.860   4.045 -0.2829  0.6162  1.1613
 1504SOL    HW1 8104   1.333   7.778   4.014 -0.5484  1.6736 -1.5409
 1504SOL    HW2 8105   1.459   7.862   4.007 -0.7324  2.1192  0.1018
 1505SOL     OW 8106   7.099   8.026   4.577 -0.0198 -0.6393 -0.3437
 1505SOL    HW1 8107   7.146   8.092   4.526  0.6665 -2.0255 -1.5709
 1505SOL    HW2 8108   7.106   7.946   4.525 -1.7812 -1.4308  0.5644
 1506SOL     OW 8109   4.027   5.144   3.862 -0.1713  0.0010  0.2714
 1506SOL    HW1 8110   4.048   5.122   3.772 -2.8303 -1.0193 -0.2007
 1506SOL    HW2 8111   4.084   5.088   3.915 -0.1593 -1.0486 -0.8226
 1507SOL     OW 8112   7.771   8.496  10.135 -0.3427 -0.4628  0.0835
 1507SOL    HW1 8113   7.789   8.402  10.140 -2.0875 -0.7792  1.1169
 1507SOL    HW2 8114   7.767   8.525  10.226  0.0795  0.6031 -0.2264
 1508SOL     OW 8115  10.833   8.235   7.873  0.0693 -0.4068 -0.4011
 1508SOL    HW1 8116  10.912   8.274   7.835  0.2616  0.0931  0.4946
 1508SOL    HW2 8117  10.860   8.147   7.900  0.0495 -0.6012 -0.9987
 1509SOL     OW 8118   7.166   6.100   3.544  0.4078  0.1888 -0.3117
 1509SOL    HW1 8119   7.126   6.187   3.545  1.0866  0.6135 -2.7641
 1509SOL    HW2 8120   7.260   6.117   3.553  0.4049 -0.4501  1.0128
 1510SOL     OW 8121   4.177   8.747   5.285 -0.0604  0.1377  0.0026
 1510SOL    HW1 8122   4.207   8.796   5.208  1.3746 -0.2956  0.2633
 1510SOL    HW2 8123   4.212   8.796   5.360  0.2752 -0.5634  0.3086
 1511SOL     OW 8124   7.412   0.948   4.232 -0.6711  0.2940  0.0474
 1511SOL    HW1 8125   7.488   0.890   4.229 -1.6530 -0.9886 -1.3983
 1511SOL    HW2 8126   7.446   1.030   4.269  1.1981 -0.5321  0.2784
 1512SOL     OW 8127   8.353   1.051   0.176 -0.2325  0.2569 -0.0202
 1512SOL    HW1 8128   8.446   1.073   0.170 -0.0185 -0.3559  0.8526
 1512SOL    HW2 8129   8.316   1.117   0.234 -0.2704  0.3052 -0.0998
 1513SOL     OW 8130   4.975   3.501   5.502  0.3634  0.1657 -0.0781
 1513SOL    HW1 8131   4.982   3.490   5.407 -0.4543  1.6341 -0.3320
 1513SOL    HW2 8132   5.048   3.450   5.537  0.6679 -0.4171 -1.4892
 1514SOL     OW 8133   9.360  10.132  10.097  0.0471  0.4650  0.3708
 1514SOL    HW1 8134   9.366  10.046  10.138 -1.1064  0.1340 -0.1119
 1514SOL    HW2 8135   9.440  10.178  10.125  0.6846 -0.7553  0.6116
 1515SOL     OW 8136   6.140  10.991   1.665 -0.0856  0.3805  0.5626
 1515SOL    HW1 8137   6.155  10.918   1.606  0.1384 -0.6661  1.8641
 1515SOL    HW2 8138   6.163  11.069   1.614  0.4125 -0.5104 -0.6052
 1516SOL     OW 8139   3.486   5.502   5.527  0.0952 -0.7623  0.1559
 1516SOL    HW1 8140   3.547   5.487   5.455 -0.4653 -1.4803 -0.1859
 1516SOL    HW2 8141   3.492   5.595   5.545  0.9809 -0.7464 -0.1489
 1517SOL     OW 8142   2.568   0.908   2.622 -0.5774 -0.5915  0.1693
 1517SOL    HW1 8143   2.520   0.889   2.541 -1.1356 -0.2733  0.4222
 1517SOL    HW2 8144   2.564   0.827   2.672  0.2223 -0.9620 -0.3381
 1518SOL     OW 8145   3.023   2.273   4.024 -0.0034 -0.3949 -0.4110
 1518SOL    HW1 8146   3.054   2.237   3.941  0.7879  0.4133 -0.4821
 1518SOL    HW2 8147   3.102   2.282   4.077 -0.3856 -0.1319  0.1229
 1519SOL     OW 8148   3.782   6.843   8.801 -0.5435 -0.2290  0.0899
 1519SOL    HW1 8149   3.804   6.921   8.749 -1.0170 -0.1890 -0.0494
 1519SOL    HW2 8150   3.720   6.875   8.866 -0.4248 -0.4090  0.2909
 1520SOL     OW 8151   2.415   0.389   5.906 -0.8211 -0.8384  0.1780
 1520SOL    HW1 8152   2.478   0.330   5.865 -0.5931 -0.6805  0.3028
 1520SOL    HW2 8153   2.450   0.405   5.994 -0.7460 -0.2999  0.0513
 1521SOL     OW 8154   2.259   4.546   1.886  0.9611 -0.4879  0.0396
 1521SOL    HW1 8155   2.220   4.498   1.958 -1.0086 -1.2821 -1.4575
 1521SOL    HW2 8156   2.255   4.638   1.913  0.2185 -0.7657  0.9302
 1522SOL     OW 8157   0.481  11.006   9.654 -0.0517 -0.7547 -0.4737
 1522SOL    HW1 8158   0.510  11.076   9.713  1.0933 -0.7969 -0.9680
 1522SOL    HW2 8159   0.547  10.938   9.661 -1.6396 -2.2635  0.7227
 1523SOL     OW 8160   0.352   7.291  10.871  0.1796  0.3065  0.7650
 1523SOL    HW1 8161   0.276   7.238  10.893  0.4059  0.1438  1.1644
 1523SOL    HW2 8162   0.425   7.249  10.917  0.6815 -0.0856 -0.3568
 1524SOL     OW 8163   7.571  10.125  10.952  0.0138  0.2246  0.2761
 1524SOL    HW1 8164   7.568  10.061  10.882 -1.3416  0.4867  0.0643
 1524SOL    HW2 8165   7.625  10.196  10.918  0.4337 -0.2169  0.0133
 1525SOL     OW 8166   8.676   6.210   8.719 -0.0376 -0.5811  0.1974
 1525SOL    HW1 8167   8.585   6.205   8.748 -0.7249 -0.9937 -1.9241
 1525SOL    HW2 8168   8.703   6.299   8.741 -1.8047  0.4234 -1.4186
 1526SOL     OW 8169   4.539   2.342   6.405  0.2647  0.1146 -0.1853
 1526SOL    HW1 8170   4.624   2.385   6.415 -0.3033  0.8484  2.3170
 1526SOL    HW2 8171   4.557   2.249   6.423  0.6292  0.1849 -0.1776
 1527SOL     OW 8172   1.440   6.123   9.799  0.2272  0.0097 -0.4487
 1527SOL    HW1 8173   1.394   6.153   9.721 -1.1077 -1.4304 -0.2671
 1527SOL    HW2 8174   1.373   6.076   9.850  1.0947  0.7660  1.4826
 1528SOL     OW 8175   2.041   0.115   4.988  0.2090 -0.3577 -1.1093
 1528SOL    HW1 8176   2.009   0.190   5.038  1.2238  0.6039 -1.8483
 1528SOL    HW2 8177   1.963   0.080   4.946 -0.0333  1.5601 -2.4088
 1529SOL     OW 8178   4.398  10.310  10.708 -0.0163 -0.0945  0.1276
 1529SOL    HW1 8179   4.436  10.252  10.642 -0.2025  0.7753 -0.7590
 1529SOL    HW2 8180   4.314  10.269  10.730  0.1426 -0.5009 -0.0080
 1530SOL     OW 8181  10.056   5.050   0.987 -0.0172  0.0496  0.8776
 1530SOL    HW1 8182  10.124   5.108   1.022  0.2624 -0.8005  1.8172
 1530SOL    HW2 8183  10.095   5.014   0.907  0.4292 -0.0012  1.1112
 1531SOL     OW 8184   2.127   1.419   4.799  0.4135 -0.2202 -0.0382
 1531SOL    HW1 8185   2.199   1.372   4.840 -1.1190 -1.5171  1.2812
 1531SOL    HW2 8186   2.103   1.486   4.863  1.3330  1.1789 -1.0955
 1532SOL     OW 8187   5.385   4.791   6.486  0.1964 -0.8051 -0.0426
 1532SOL    HW1 8188   5.391   4.845   6.565  2.4170 -0.9172 -0.0810
 1532SOL    HW2 8189   5.393   4.701   6.518  0.2447 -0.9038 -0.3263
 1533SOL     OW 8190   8.361   8.566   7.875 -0.2296  0.3902  0.3872
 1533SOL    HW1 8191   8.381   8.619   7.798 -0.4418  0.3363  0.2941
 1533SOL    HW2 8192   8.347   8.478   7.841  0.5835  0.1738  0.5948
 1534SOL     OW 8193   9.256   1.343   4.750  0.2364 -0.3483  0.0937
 1534SOL    HW1 8194   9.313   1.296   4.690 -0.3890 -0.2544 -0.5952
 1534SOL    HW2 8195   9.311   1.412   4.788  0.5469 -0.1831 -0.6512
 1535SOL     OW 8196   3.935   9.614   3.629 -0.1007 -0.1917  0.1965
 1535SOL    HW1 8197   3.988   9.618   3.550  1.2006  0.8697  1.0764
 1535SOL    HW2 8198   3.956   9.695   3.676  1.3420 -1.9824  2.9463
 1536SOL     OW 8199  11.103   8.394  10.199 -0.0535  0.3370  0.2576
 1536SOL    HW1 8200  11.072   8.303  10.206  0.6173 -0.0035 -0.9420
 1536SOL    HW2 8201  11.198   8.386  10.195  0.0316  1.1354  0.5001
 1537SOL     OW 8202   5.210   2.572   9.152  0.5899 -0.0790  0.1940
 1537SOL    HW1 8203   5.209   2.603   9.062  0.2231  1.0189  0.5680
 1537SOL    HW2 8204   5.224   2.477   9.144 -1.4144 -0.3144 -1.0887
 1538SOL     OW 8205   0.684   8.807   1.015 -0.1006  0.1052  0.7006
 1538SOL    HW1 8206   0.638   8.725   0.994  1.2458 -0.3379 -0.7622
 1538SOL    HW2 8207   0.716   8.838   0.930  0.7470  1.3179  1.4429
 1539SOL     OW 8208   8.153   2.744   7.694  0.3654  0.3132 -0.2548
 1539SOL    HW1 8209   8.092   2.674   7.715  0.7657  0.0733  0.1428
 1539SOL    HW2 8210   8.115   2.822   7.734  1.2190 -0.1766  1.6448
 1540SOL     OW 8211   7.324   6.009   1.544  0.3358 -0.1613  0.0679
 1540SOL    HW1 8212   7.352   5.918   1.558 -1.0951 -0.6989 -0.3724
 1540SOL    HW2 8213   7.291   6.037   1.629  0.9295  0.0217  0.2465
 1541SOL     OW 8214   3.587   2.182  10.705  0.6892 -0.7139 -0.0014
 1541SOL    HW1 8215   3.549   2.162  10.619  1.1094  2.6977 -1.1092
 1541SOL    HW2 8216   3.514   2.171  10.766 -0.5454  0.0533 -1.2776
 1542SOL     OW 8217   2.826   7.508   0.774  0.0352 -0.0947  0.4975
 1542SOL    HW1 8218   2.817   7.577   0.707 -1.1808 -0.8692 -0.1814
 1542SOL    HW2 8219   2.747   7.455   0.764  1.7055 -2.6369 -0.1804
 1543SOL     OW 8220   9.540   5.515   6.746 -0.1320  0.1094 -0.1376
 1543SOL    HW1 8221   9.447   5.519   6.765 -0.1060  0.7834 -0.1258
 1543SOL    HW2 8222   9.545   5.489   6.654 -0.3853  1.6795 -0.6228
 1544SOL     OW 8223   0.837   7.520  10.005 -0.5838 -0.1078 -0.1446
 1544SOL    HW1 8224   0.923   7.481   9.992  0.8590  1.7216  2.9051
 1544SOL    HW2 8225   0.813   7.497  10.095 -3.2373 -0.3410 -0.8101
 1545SOL     OW 8226   7.348   1.927   6.835  0.4445  0.7139  0.2160
 1545SOL    HW1 8227   7.347   2.010   6.787 -0.0647  1.1478  0.9648
 1545SOL    HW2 8228   7.269   1.930   6.889 -0.3546 -0.8674 -0.7681
 1546SOL     OW 8229   0.644   1.950   8.156 -0.4836 -0.4570 -0.0221
 1546SOL    HW1 8230   0.603   1.981   8.076 -0.0950  0.0051 -0.0446
 1546SOL    HW2 8231   0.714   2.013   8.174  0.2471 -1.2557 -0.0048
 1547SOL     OW 8232   0.317   6.411   7.574 -0.3141  0.0984  0.1648
 1547SOL    HW1 8233   0.244   6.355   7.598 -0.3512  0.8863  1.9951
 1547SOL    HW2 8234   0.392   6.375   7.622 -0.0450  0.7891  0.2694
 1548SOL     OW 8235   0.308   9.524   8.792  0.4901 -0.4709  0.0008
 1548SOL    HW1 8236   0.366   9.505   8.865  0.1478 -0.6211  0.2321
 1548SOL    HW2 8237   0.270   9.610   8.812  0.2851 -0.5768  0.0722
 1549SOL     OW 8238   3.692   6.904  10.908  0.5049  0.2382  0.0253
 1549SOL    HW1 8239   3.722   6.925  10.996  1.4851 -0.4957 -0.1217
 1549SOL    HW2 8240   3.748   6.956  10.850 -0.2265  0.8242 -0.1754
 1550SOL     OW 8241   6.600   5.085   8.458 -0.1260  0.0436  0.2900
 1550SOL    HW1 8242   6.583   5.177   8.438  3.4001  0.5456 -1.2138
 1550SOL    HW2 8243   6.678   5.063   8.406 -1.4559 -4.1735 -0.3248
 1551SOL     OW 8244   2.807   0.258   6.134 -0.2912  0.9331 -0.2194
 1551SOL    HW1 8245   2.846   0.336   6.173 -0.2259 -0.2706  2.4054
 1551SOL    HW2 8246   2.713   0.270   6.146 -0.2463  0.3085  0.9948
 1552SOL     OW 8247   6.899   7.395   9.760  0.8622  1.0217 -0.5309
 1552SOL    HW1 8248   6.854   7.351   9.832 -0.8998  0.9642 -1.6086
 1552SOL    HW2 8249   6.929   7.479   9.798 -1.3421  1.6633 -0.0836
 1553SOL     OW 8250   5.680   2.649   7.195 -0.4943  0.0494 -0.1692
 1553SOL    HW1 8251   5.601   2.679   7.150 -0.2975  1.3665  0.3398
 1553SOL    HW2 8252   5.746   2.715   7.175  0.1914 -0.4788  0.2926
 1554SOL     OW 8253   9.292   9.609   8.712  0.1936  0.3254 -1.0731
 1554SOL    HW1 8254   9.231   9.669   8.754 -0.3211  0.1111 -1.5108
 1554SOL    HW2 8255   9.366   9.664   8.688  1.0381  0.2717  1.1088
 1555SOL     OW 8256   1.139   8.835   7.673 -0.5733 -0.3495  0.5387
 1555SOL    HW1 8257   1.219   8.876   7.706  0.1453 -0.3868 -1.0912
 1555SOL    HW2 8258   1.152   8.741   7.687 -0.3724 -0.3501  0.3392
 1556SOL     OW 8259   1.721   6.445   8.659  0.2668 -0.1669 -0.3201
 1556SOL    HW1 8260   1.639   6.459   8.612 -0.2480  0.5319  0.7328
 1556SOL    HW2 8261   1.705   6.369   8.715 -0.5176  1.3430  1.6230
 1557SOL     OW 8262   0.830   4.122   0.286  0.3561 -0.6957  0.1719
 1557SOL    HW1 8263   0.749   4.170   0.273  0.4565 -0.5726 -0.0052
 1557SOL    HW2 8264   0.847   4.080   0.202  1.5627  0.9512 -0.4559
 1558SOL     OW 8265   7.472   2.680   6.762  0.0475 -0.4493  0.6230
 1558SOL    HW1 8266   7.494   2.592   6.731  0.3220 -0.2411  0.2210
 1558SOL    HW2 8267   7.401   2.665   6.826  1.7936 -1.1943  2.4953
 1559SOL     OW 8268   9.128  10.403   0.815  0.4466 -0.2529 -0.0655
 1559SOL    HW1 8269   9.214  10.428   0.851  0.7383 -0.9870 -0.2296
 1559SOL    HW2 8270   9.073  10.480   0.828  0.3499 -0.6773  2.5950
 1560SOL     OW 8271   2.944   5.543   8.153  0.2668  0.3471 -0.0574
 1560SOL    HW1 8272   2.930   5.537   8.058  1.3595  0.4926 -0.2469
 1560SOL    HW2 8273   3.018   5.485   8.169 -0.2128 -0.0400  0.7895
 1561SOL     OW 8274   6.912   0.937   0.877  0.3699 -0.2392 -0.0691
 1561SOL    HW1 8275   6.924   0.842   0.886  1.8836 -0.0134  0.7092
 1561SOL    HW2 8276   6.990   0.975   0.918 -0.9329  1.3903  1.0347
 1562SOL     OW 8277   4.013   2.606   7.032  0.2887  0.1357  0.2481
 1562SOL    HW1 8278   3.964   2.558   7.100  0.7888 -1.8208 -0.7034
 1562SOL    HW2 8279   3.960   2.596   6.953  0.2865  1.4122  0.0688
 1563SOL     OW 8280  11.035   0.961   2.075 -0.2143  0.6677  0.1182
 1563SOL    HW1 8281  10.954   0.948   2.026 -0.3234 -0.2568  0.5292
 1563SOL    HW2 8282  11.097   0.898   2.038 -0.4836 -0.4987  1.5520
 1564SOL     OW 8283  10.439   7.721   2.853 -0.0395 -0.6166  0.1553
 1564SOL    HW1 8284  10.396   7.644   2.816  0.0866 -0.7825  0.3602
 1564SOL    HW2 8285  10.387   7.742   2.931 -0.6042  0.0285 -0.3822
 1565SOL     OW 8286   1.577   1.650   3.856  0.0012  0.0296  0.4447
 1565SOL    HW1 8287   1.499   1.593   3.858  1.9613 -2.9316 -0.2823
 1565SOL    HW2 8288   1.633   1.616   3.925  1.9193  0.0051 -1.0490
 1566SOL     OW 8289   2.096   3.530  10.871  0.2748 -0.2386  0.5816
 1566SOL    HW1 8290   2.022   3.473  10.850  1.2956 -1.6619  0.7641
 1566SOL    HW2 8291   2.058   3.618  10.872 -0.8523 -0.5639 -2.2902
 1567SOL     OW 8292   1.256   6.146   4.684 -0.4312 -0.3028  0.1590
 1567SOL    HW1 8293   1.234   6.065   4.637 -0.0511 -0.8259  0.8537
 1567SOL    HW2 8294   1.346   6.165   4.657 -0.3506 -0.3864  0.3642
 1568SOL     OW 8295   5.251   0.140   3.599 -0.0194  0.2261 -0.2795
 1568SOL    HW1 8296   5.307   0.127   3.522 -0.9278 -0.1722 -0.8858
 1568SOL    HW2 8297   5.197   0.061   3.602 -1.5338  1.2290 -0.5285
 1569SOL     OW 8298   1.576  10.305   9.210  0.2599 -0.0664  0.2456
 1569SOL    HW1 8299   1.484  10.322   9.187  0.7274  0.3287 -1.4435
 1569SOL    HW2 8300   1.614  10.266   9.132  1.5774 -0.1507  0.8927
 1570SOL     OW 8301   5.850   3.728   5.795 -0.1330 -0.0535 -0.3896
 1570SOL    HW1 8302   5.822   3.721   5.704  3.2209  0.5402 -1.6157
 1570SOL    HW2 8303   5.927   3.671   5.801  0.2826  0.6351  1.8291
 1571SOL     OW 8304   4.293   6.366   8.403  0.0057 -0.0534  0.4099
 1571SOL    HW1 8305   4.281   6.333   8.315  0.3214 -1.0600  0.7364
 1571SOL    HW2 8306   4.308   6.288   8.457  1.2394  0.6406  1.1255
 1572SOL     OW 8307   7.109   4.284   9.468 -0.1905 -0.3092  0.3695
 1572SOL    HW1 8308   7.174   4.247   9.528 -0.5813 -0.9981  0.3760
 1572SOL    HW2 8309   7.087   4.212   9.409 -2.1906 -0.5999  1.4041
 1573SOL     OW 8310   5.411   7.106   7.450  0.1507  0.1756  0.5347
 1573SOL    HW1 8311   5.460   7.188   7.459  0.5603 -0.0611  0.4769
 1573SOL    HW2 8312   5.471   7.047   7.404 -0.0429 -0.2435  0.8165
 1574SOL     OW 8313   2.068   7.533   0.781 -0.2697 -0.2099 -0.2216
 1574SOL    HW1 8314   2.073   7.438   0.784 -0.1502 -0.1957 -0.0083
 1574SOL    HW2 8315   2.042   7.559   0.869  1.7043  0.0918  0.3008
 1575SOL     OW 8316  10.325   9.877   6.199 -0.1533 -0.0365  0.2889
 1575SOL    HW1 8317  10.279   9.862   6.117  0.0496  1.6924 -0.1794
 1575SOL    HW2 8318  10.263   9.926   6.253  0.8353  1.7488 -0.1131
 1576SOL     OW 8319   5.126   6.056   5.953 -0.5547  0.0998 -0.3165
 1576SOL    HW1 8320   5.049   6.087   5.905 -0.9129  0.1701  0.2947
 1576SOL    HW2 8321   5.174   6.002   5.890 -1.7333 -0.9552 -0.3460
 1577SOL     OW 8322  10.134   1.575   8.100  0.6681  0.8104 -0.8846
 1577SOL    HW1 8323  10.115   1.522   8.024  0.4589  0.9731 -0.9458
 1577SOL    HW2 8324  10.056   1.569   8.155  1.5879 -1.0144  0.3279
 1578SOL     OW 8325   2.960   2.193   8.625  0.0840  0.3172  0.1925
 1578SOL    HW1 8326   2.865   2.190   8.611 -0.0256 -1.5592  0.9840
 1578SOL    HW2 8327   2.979   2.285   8.640 -1.3170  1.0063 -1.8371
 1579SOL     OW 8328   4.922  10.039   5.957 -0.3538  0.4120  0.1613
 1579SOL    HW1 8329   4.912  10.080   6.043 -0.6457  1.7804 -0.4952
 1579SOL    HW2 8330   4.953  10.110   5.901 -1.6778 -0.0418 -1.2090
 1580SOL     OW 8331   4.463   4.523   0.117 -0.3149  0.4404  0.3800
 1580SOL    HW1 8332   4.517   4.463   0.065 -1.3363  0.7182 -1.0376
 1580SOL    HW2 8333   4.425   4.468   0.185 -2.5523 -0.9934 -1.8500
 1581SOL     OW 8334  11.018   8.053   7.601 -0.2692  0.1446 -0.0358
 1581SOL    HW1 8335  11.050   8.032   7.514 -1.2860  1.7163 -0.8371
 1581SOL    HW2 8336  11.066   8.133   7.626  1.6067 -1.4291  1.8167
 1582SOL     OW 8337   5.868   1.425   5.026 -0.5486 -0.4035  0.7128
 1582SOL    HW1 8338   5.896   1.490   5.090  0.3495 -0.7468  0.6832
 1582SOL    HW2 8339   5.797   1.377   5.069 -1.3912  0.7450  0.6375
 1583SOL     OW 8340   7.525   4.003   8.054 -0.0857  0.4112  0.0219
 1583SOL    HW1 8341   7.488   4.031   8.137  0.1258 -1.0943  0.6460
 1583SOL    HW2 8342   7.458   3.947   8.015  0.8343 -1.0412  0.4295
 1584SOL     OW 8343   7.449   6.392   6.875  0.0283 -0.6403  0.3602
 1584SOL    HW1 8344   7.421   6.437   6.955 -0.2175 -0.9370  0.4414
 1584SOL    HW2 8345   7.535   6.430   6.855 -0.8679  1.0375 -0.4915
 1585SOL     OW 8346   3.783   2.782   7.701  0.2977 -0.1340  0.2092
 1585SOL    HW1 8347   3.851   2.716   7.716 -0.7142 -1.2234  0.0837
 1585SOL    HW2 8348   3.808   2.854   7.759  0.1012 -1.6185  2.2697
 1586SOL     OW 8349   8.294   0.372   0.569 -0.1974  0.0500 -0.4228
 1586SOL    HW1 8350   8.386   0.376   0.595 -0.1966  1.7862 -0.5666
 1586SOL    HW2 8351   8.294   0.389   0.475 -0.6876  0.2913 -0.3839
 1587SOL     OW 8352   6.310   0.230  10.223 -0.1396  0.6168  0.8117
 1587SOL    HW1 8353   6.338   0.154  10.171 -1.4425  0.3560  0.4452
 1587SOL    HW2 8354   6.378   0.295  10.207  0.7805 -0.3133  0.7785
 1588SOL     OW 8355   0.383   0.265   9.763  0.1413 -0.3929 -0.4899
 1588SOL    HW1 8356   0.350   0.341   9.810 -0.3873 -0.4381 -0.7834
 1588SOL    HW2 8357   0.326   0.193   9.789 -0.2206 -0.3994 -1.2639
 1589SOL     OW 8358   8.149   9.759   4.574  0.2089  0.0612  0.2094
 1589SOL    HW1 8359   8.054   9.746   4.581  0.1632 -1.0426 -1.7657
 1589SOL    HW2 8360   8.169   9.822   4.643 -2.1538  1.2916 -0.1046
 1590SOL     OW 8361   1.409   6.260   7.343 -0.5861  0.5618  0.3907
 1590SOL    HW1 8362   1.405   6.315   7.421  2.1282  1.8683 -0.2704
 1590SOL    HW2 8363   1.369   6.177   7.370 -0.3319  1.1954  2.9634
 1591SOL     OW 8364   5.173  10.700   5.754 -0.7497  0.2864  0.2262
 1591SOL    HW1 8365   5.230  10.739   5.688 -0.5380 -0.2460  0.0914
 1591SOL    HW2 8366   5.108  10.651   5.703 -0.6961  0.0261  0.4054
 1592SOL     OW 8367   2.403   5.609   3.533  0.4123  0.3577  0.4181
 1592SOL    HW1 8368   2.469   5.561   3.582  0.7938  0.1219 -0.3134
 1592SOL    HW2 8369   2.380   5.683   3.590 -0.5288 -0.9048  1.7617
 1593SOL     OW 8370   6.660   6.135   3.997 -0.3433 -0.0124  0.1132
 1593SOL    HW1 8371   6.598   6.067   4.021  0.3275 -0.4833  0.5357
 1593SOL    HW2 8372   6.736   6.087   3.962 -0.0017  0.5261  0.1001
 1594SOL     OW 8373  10.912  11.099   0.713 -0.4108 -1.3412  0.2068
 1594SOL    HW1 8374  10.961  11.071   0.790 -0.5246  0.0252  0.8065
 1594SOL    HW2 8375  10.820  11.098   0.742 -0.3986 -0.1068  0.3612
 1595SOL     OW 8376   9.982   9.104   0.679  0.4400 -0.2123  0.0831
 1595SOL    HW1 8377  10.055   9.118   0.739 -0.0064  2.1620  0.1445
 1595SOL    HW2 8378  10.023   9.090   0.594  0.9935 -0.2913  0.3549
 1596SOL     OW 8379   6.462   1.182   0.342  0.1978 -0.1114 -0.8643
 1596SOL    HW1 8380   6.403   1.208   0.272  1.4087  0.0325 -1.8629
 1596SOL    HW2 8381   6.425   1.100   0.375 -1.1767  0.5584 -0.6902
 1597SOL     OW 8382   2.739   4.445   9.288  0.1783 -0.4672 -0.3254
 1597SOL    HW1 8383   2.662   4.397   9.317 -0.6825  0.3909 -1.1255
 1597SOL    HW2 8384   2.759   4.504   9.360  1.1612 -1.8754  0.6071
 1598SOL     OW 8385   0.831   7.231   0.615 -0.0814  0.4252  0.0843
 1598SOL    HW1 8386   0.890   7.270   0.680 -0.5760 -0.5085  1.1279
 1598SOL    HW2 8387   0.883   7.163   0.573  0.2623  1.0788 -0.5621
 1599SOL     OW 8388   5.301   2.946   3.048 -0.4783 -0.0594  0.2953
 1599SOL    HW1 8389   5.285   3.035   3.081 -0.0576 -1.2216  4.0405
 1599SOL    HW2 8390   5.224   2.897   3.074  0.4881 -1.3723  0.7723
 1600SOL     OW 8391   4.999   0.535   9.978  0.0969  0.0378  0.1219
 1600SOL    HW1 8392   4.922   0.493   9.940 -0.2029 -0.0044  0.7570
 1600SOL    HW2 8393   5.051   0.462  10.013 -0.4439  0.1718  1.2619
 1601SOL     OW 8394   5.511   8.240   9.153 -0.3732 -0.1501  0.5111
 1601SOL    HW1 8395   5.605   8.223   9.154 -0.6467 -1.8598  0.1201
 1601SOL    HW2 8396   5.477   8.182   9.085 -1.8098 -0.0820  1.1452
 1602SOL     OW 8397   4.196   5.320   3.536  0.0744 -0.8246  0.1137
 1602SOL    HW1 8398   4.203   5.225   3.540  1.7953 -0.8101 -1.2820
 1602SOL    HW2 8399   4.143   5.338   3.459 -2.3059 -0.6323  1.7095
 1603SOL     OW 8400   9.701   3.356   2.110 -0.6194 -0.0627 -0.0211
 1603SOL    HW1 8401   9.795   3.365   2.099 -0.9108  1.2901 -1.9441
 1603SOL    HW2 8402   9.681   3.267   2.080 -0.0667 -0.0144 -0.5444
 1604SOL     OW 8403   6.463   0.084   0.512  0.3966  0.8007 -0.5319
 1604SOL    HW1 8404   6.419   0.022   0.453  2.0535  1.4459 -2.5320
 1604SOL    HW2 8405   6.430   0.170   0.486  0.4185  1.0193  0.1484
 1605SOL     OW 8406   4.491   6.322   6.613  0.2055 -0.1970 -0.5179
 1605SOL    HW1 8407   4.447   6.387   6.558  2.0053  0.5594 -1.1442
 1605SOL    HW2 8408   4.445   6.240   6.595  1.2492 -0.1890 -3.9098
 1606SOL     OW 8409   4.701   4.093   7.762  0.2305  0.5162  0.1593
 1606SOL    HW1 8410   4.757   4.024   7.727  0.1816  0.0469  0.9991
 1606SOL    HW2 8411   4.755   4.172   7.757  0.9452  0.0882  0.8643
 1607SOL     OW 8412   9.367   6.680   7.054 -0.2169 -0.0624 -0.3523
 1607SOL    HW1 8413   9.430   6.614   7.024  0.0418 -0.7798  1.6489
 1607SOL    HW2 8414   9.400   6.762   7.017  0.7205 -0.7188 -1.0385
 1608SOL     OW 8415   6.656   1.191   7.608 -0.1990  0.2760  0.1737
 1608SOL    HW1 8416   6.742   1.150   7.604  0.4629  1.6758 -1.0852
 1608SOL    HW2 8417   6.672   1.275   7.651 -0.8805  0.6665 -0.3222
 1609SOL     OW 8418   7.188   2.442   2.781  0.7011  0.3581 -0.3741
 1609SOL    HW1 8419   7.180   2.371   2.718 -1.3025  0.2076 -0.0347
 1609SOL    HW2 8420   7.173   2.400   2.866 -0.5640  1.1489 -0.1780
 1610SOL     OW 8421  10.875   7.927   6.562  0.2110  0.2707 -0.0363
 1610SOL    HW1 8422  10.894   8.006   6.612  2.6789 -0.7793  0.8116
 1610SOL    HW2 8423  10.835   7.868   6.625 -0.0154  0.2110 -0.2329
 1611SOL     OW 8424   3.983   6.828   2.745 -0.3169 -0.4689 -0.5694
 1611SOL    HW1 8425   3.889   6.845   2.753  0.0991  1.4628  0.9460
 1611SOL    HW2 8426   3.995   6.804   2.653 -2.0767  0.8188 -1.2073
 1612SOL     OW 8427   3.186   7.698   3.988  0.1063  0.0603 -0.0909
 1612SOL    HW1 8428   3.245   7.703   3.913  0.4272  3.6916  0.2415
 1612SOL    HW2 8429   3.114   7.758   3.966  0.3429  1.4549  2.5564
 1613SOL     OW 8430   2.821   9.688   2.481  0.1123 -0.2041  0.1528
 1613SOL    HW1 8431   2.737   9.648   2.458 -0.1725 -1.3352  2.7931
 1613SOL    HW2 8432   2.797   9.774   2.518  0.1663 -0.2439  0.2816
 1614SOL     OW 8433   6.069   3.792   2.022  0.1277 -1.4343  0.7119
 1614SOL    HW1 8434   6.157   3.829   2.011 -0.0758 -0.6456  1.5405
 1614SOL    HW2 8435   6.059   3.783   2.117 -2.2557  2.6703  1.1295
 1615SOL     OW 8436   4.925   9.166   0.346  0.6640  0.1964  0.7172
 1615SOL    HW1 8437   4.890   9.119   0.270  0.1029  1.4633  0.1774
 1615SOL    HW2 8438   4.866   9.141   0.418  0.3140  0.1390  0.4171
 1616SOL     OW 8439   9.720   7.615   7.145 -0.0481 -0.3808 -0.1998
 1616SOL    HW1 8440   9.688   7.663   7.221  0.1570 -0.0927 -0.2937
 1616SOL    HW2 8441   9.779   7.676   7.101  0.8208 -0.9838  0.1057
 1617SOL     OW 8442   4.440   4.716   2.173  0.0173  0.6538 -0.0226
 1617SOL    HW1 8443   4.468   4.803   2.145  1.6336 -0.2097 -1.2102
 1617SOL    HW2 8444   4.505   4.656   2.136 -2.2314 -1.2776 -1.1036
 1618SOL     OW 8445   1.686   7.757   6.052 -0.4959 -0.0660  0.0616
 1618SOL    HW1 8446   1.631   7.814   5.999 -0.7317 -0.7471 -0.4384
 1618SOL    HW2 8447   1.757   7.729   5.994 -0.9407 -1.0848 -0.0145
 1619SOL     OW 8448   3.879   4.010   7.616  0.0037 -0.2010 -0.2496
 1619SOL    HW1 8449   3.867   4.032   7.709 -1.7530  0.4633 -0.5898
 1619SOL    HW2 8450   3.960   4.054   7.591  0.4377 -0.2982  0.9452
 1620SOL     OW 8451  10.892   6.680   9.623  0.3138 -0.2297  0.3490
 1620SOL    HW1 8452  10.841   6.750   9.663 -1.4236 -1.7917  0.9808
 1620SOL    HW2 8453  10.972   6.723   9.593 -0.6028  1.9666  0.8878
 1621SOL     OW 8454   8.062   0.133   9.327 -0.0756  0.6111  0.0509
 1621SOL    HW1 8455   7.975   0.116   9.292 -0.2619  0.8950  0.3660
 1621SOL    HW2 8456   8.046   0.175   9.411  0.3323 -0.8445  0.9051
 1622SOL     OW 8457   4.227   5.947   4.322  0.0118 -0.4872 -0.2041
 1622SOL    HW1 8458   4.161   5.885   4.352  0.3928 -2.2133 -2.7193
 1622SOL    HW2 8459   4.310   5.900   4.330  0.2310 -0.6582 -2.8498
 1623SOL     OW 8460   5.541   3.147  10.932 -0.4669 -0.3744 -0.2926
 1623SOL    HW1 8461   5.501   3.167  10.847 -0.4895  1.2708  0.0668
 1623SOL    HW2 8462   5.546   3.231  10.977 -1.3291 -1.3325  1.7413
 1624SOL     OW 8463   8.973   6.496  10.127 -0.2871  0.0214 -0.0489
 1624SOL    HW1 8464   8.905   6.563  10.115  0.1270  0.0903 -2.3998
 1624SOL    HW2 8465   9.047   6.543  10.164 -0.9393  0.2734  0.9754
 1625SOL     OW 8466   8.282   4.752   0.225  0.3147 -0.6196 -0.0709
 1625SOL    HW1 8467   8.364   4.716   0.194 -0.5360 -1.9805 -0.8293
 1625SOL    HW2 8468   8.225   4.752   0.149 -0.5882 -0.2628  0.5811
 1626SOL     OW 8469   9.210   2.451  10.940 -0.5175  0.8866 -0.4277
 1626SOL    HW1 8470   9.272   2.378  10.941 -4.6064 -2.9952  0.7912
 1626SOL    HW2 8471   9.209   2.480  10.849  1.3891 -0.3762 -0.9207
 1627SOL     OW 8472   6.516   0.974   5.083 -1.0616 -0.0911 -0.1003
 1627SOL    HW1 8473   6.522   0.887   5.122 -2.7053 -0.6406 -0.9666
 1627SOL    HW2 8474   6.536   1.034   5.155  3.5115 -1.1366 -0.2145
 1628SOL     OW 8475   8.187   4.093   8.850  0.0614 -0.0651  0.4212
 1628SOL    HW1 8476   8.145   4.174   8.822  1.4645 -0.3213 -2.9487
 1628SOL    HW2 8477   8.224   4.113   8.935  0.6954  3.0003 -0.4600
 1629SOL     OW 8478   3.701   0.709   1.349 -0.4725  0.0015 -0.3062
 1629SOL    HW1 8479   3.628   0.682   1.404 -0.9161 -0.8720 -1.2732
 1629SOL    HW2 8480   3.663   0.718   1.262  0.4676  0.0204 -0.7292
 1630SOL     OW 8481   8.760  10.283  10.152 -0.2853  0.2565  1.0675
 1630SOL    HW1 8482   8.668  10.305  10.169  0.2569  1.5720  2.5838
 1630SOL    HW2 8483   8.759  10.190  10.132 -1.8530  0.0171  2.0715
 1631SOL     OW 8484   7.623   9.568   8.630 -0.3932 -0.3193 -0.3707
 1631SOL    HW1 8485   7.709   9.525   8.627  0.6337  1.2000  2.4998
 1631SOL    HW2 8486   7.640   9.657   8.597 -1.1097 -0.2798 -0.6588
 1632SOL     OW 8487   9.181   4.258   1.094 -0.1109  0.0911 -0.3030
 1632SOL    HW1 8488   9.170   4.170   1.060  0.6885 -1.2031  2.4928
 1632SOL    HW2 8489   9.205   4.246   1.186 -0.3732  3.2418  0.3088
 1633SOL     OW 8490   6.028   6.425   5.756 -0.2580 -0.1151  0.1992
 1633SOL    HW1 8491   6.099   6.371   5.791  0.6971  0.2695 -1.0861
 1633SOL    HW2 8492   6.032   6.506   5.807  0.6127  0.1342 -0.2506
 1634SOL     OW 8493   3.466   3.834   8.631  0.0179  0.4760  0.2958
 1634SOL    HW1 8494   3.416   3.777   8.573 -0.9873  1.5440  0.0811
 1634SOL    HW2 8495   3.489   3.778   8.706 -2.0376  0.1113  0.7010
 1635SOL     OW 8496   6.960   4.929   6.664  0.5547  0.0087  0.4212
 1635SOL    HW1 8497   6.956   5.015   6.707  0.9082 -0.9037  2.4036
 1635SOL    HW2 8498   7.052   4.921   6.637  0.4401  0.3858 -0.1059
 1636SOL     OW 8499   0.664   9.880   3.430  0.2705 -0.8176 -0.0029
 1636SOL    HW1 8500   0.677   9.799   3.480  2.4353 -0.5164  0.0145
 1636SOL    HW2 8501   0.674   9.950   3.494  0.1553 -0.5027 -0.3246
 1637SOL     OW 8502   1.347   0.412  10.071 -0.2881 -0.2504 -0.6293
 1637SOL    HW1 8503   1.382   0.377  10.153  0.9245 -1.7050 -1.7067
 1637SOL    HW2 8504   1.271   0.357  10.052 -0.1722 -0.3579 -0.7927
 1638SOL     OW 8505   0.302   2.840   5.399  0.1210 -0.2821 -0.1342
 1638SOL    HW1 8506   0.233   2.774   5.394  0.0670 -0.3276  0.9362
 1638SOL    HW2 8507   0.383   2.790   5.404  0.1447 -0.2523 -0.2209
 1639SOL     OW 8508   0.925   3.780   9.435  0.3844  0.0596  0.6059
 1639SOL    HW1 8509   1.011   3.754   9.401 -0.3772 -2.1679  0.1818
 1639SOL    HW2 8510   0.933   3.769   9.530  0.4610 -0.6159  0.5310
 1640SOL     OW 8511   2.217   4.436   4.529 -0.7551  0.2839  0.4811
 1640SOL    HW1 8512   2.129   4.398   4.539 -0.9160  0.8524  1.3334
 1640SOL    HW2 8513   2.256   4.428   4.616  0.3963 -0.7834 -0.1063
 1641SOL     OW 8514   0.323   6.069   6.097 -0.5409 -0.3301  0.2349
 1641SOL    HW1 8515   0.332   5.974   6.098  1.1733 -0.2058  2.0350
 1641SOL    HW2 8516   0.412   6.102   6.109 -1.3097  1.4626  1.4924
 1642SOL     OW 8517   5.962   5.977   0.635  0.1653  0.1107  0.2910
 1642SOL    HW1 8518   6.054   5.973   0.663  0.0910  2.9405  1.2753
 1642SOL    HW2 8519   5.931   6.062   0.667 -2.3832 -0.1041 -1.3217
 1643SOL     OW 8520   8.830   3.472   8.573 -0.6978  0.2603  0.3342
 1643SOL    HW1 8521   8.807   3.522   8.494  0.8470  1.3895  0.5388
 1643SOL    HW2 8522   8.791   3.522   8.645 -0.1215  0.5427  0.4537
 1644SOL     OW 8523   6.130   0.396   1.453  0.2043 -0.6854  0.2466
 1644SOL    HW1 8524   6.224   0.411   1.445 -0.0321  0.7640 -0.1383
 1644SOL    HW2 8525   6.108   0.342   1.376  0.2339  1.7020 -1.5668
 1645SOL     OW 8526   9.091   1.632   9.007  0.0762 -0.1184 -0.0262
 1645SOL    HW1 8527   9.094   1.636   9.103 -1.8000 -0.8855  0.1246
 1645SOL    HW2 8528   9.061   1.719   8.981 -1.0423 -0.3927  0.2481
 1646SOL     OW 8529  10.655   4.503   3.834 -0.0956 -0.0180  0.4848
 1646SOL    HW1 8530  10.706   4.526   3.756 -0.7926 -1.1458 -0.3435
 1646SOL    HW2 8531  10.698   4.550   3.905  0.3831  1.2982 -0.6130
 1647SOL     OW 8532   2.344   2.690   9.551  0.5467 -0.4794  0.3269
 1647SOL    HW1 8533   2.318   2.755   9.485 -0.1577 -0.9634  0.1181
 1647SOL    HW2 8534   2.380   2.617   9.500  0.0569 -0.8293  0.4785
 1648SOL     OW 8535   3.324   5.093   6.576  0.4524 -0.4608  0.3034
 1648SOL    HW1 8536   3.240   5.083   6.532  0.8948 -1.2125 -0.3701
 1648SOL    HW2 8537   3.324   5.185   6.605  0.3862  0.2375 -1.7436
 1649SOL     OW 8538   5.596   8.743  10.947  0.1307 -0.0684  0.0109
 1649SOL    HW1 8539   5.524   8.755  11.008 -0.3614 -0.8787 -0.3979
 1649SOL    HW2 8540   5.571   8.668  10.893  1.4040 -0.5571  0.0474
 1650SOL     OW 8541   1.824   7.003   1.464 -0.3610  0.1262 -0.1405
 1650SOL    HW1 8542   1.767   7.070   1.426  0.5649  0.8218 -0.3338
 1650SOL    HW2 8543   1.911   7.023   1.431 -0.0103 -1.0136  0.0288
 1651SOL     OW 8544   1.398   2.072   8.456 -0.1806 -0.3680  0.4194
 1651SOL    HW1 8545   1.378   2.072   8.363 -1.7486  1.3519  0.6886
 1651SOL    HW2 8546   1.331   2.016   8.496 -1.1096  0.9190  0.7369
 1652SOL     OW 8547   9.804  10.332  10.338 -0.3324 -0.4943 -0.0202
 1652SOL    HW1 8548   9.835  10.367  10.254 -0.6309  0.7389  0.3698
 1652SOL    HW2 8549   9.734  10.391  10.364 -0.6837 -1.2516  0.7917
 1653SOL     OW 8550   8.187   5.724   0.081  0.2367  0.1776 -0.4037
 1653SOL    HW1 8551   8.102   5.728   0.037  0.1492 -2.2422 -0.5798
 1653SOL    HW2 8552   8.235   5.656   0.034  1.1356 -0.6153  1.5757
 1654SOL     OW 8553   9.612   7.552   1.107  0.2895 -0.2766  0.6134
 1654SOL    HW1 8554   9.601   7.485   1.039 -0.5491 -0.2524  0.7213
 1654SOL    HW2 8555   9.524   7.583   1.124  0.2452 -1.5013  2.9703
 1655SOL     OW 8556   9.532   3.815   6.645  0.3081  0.1592 -0.1548
 1655SOL    HW1 8557   9.594   3.846   6.711 -0.8766  1.8745  0.2083
 1655SOL    HW2 8558   9.581   3.748   6.597  1.4861 -0.5342  1.8783
 1656SOL     OW 8559   2.151   2.187  10.374 -0.0097 -0.1745 -0.3173
 1656SOL    HW1 8560   2.229   2.137  10.400  1.1243  0.6120 -2.0288
 1656SOL    HW2 8561   2.141   2.169  10.281 -0.1203  2.0334 -0.7857
 1657SOL     OW 8562   9.425   9.973   2.062  0.7548  0.0835  0.1191
 1657SOL    HW1 8563   9.412  10.064   2.033  1.8978  0.0993 -0.3931
 1657SOL    HW2 8564   9.519   9.957   2.050  0.4011 -1.5242 -0.8844
 1658SOL     OW 8565   0.053   1.485   2.482 -0.7483 -0.2554  0.0498
 1658SOL    HW1 8566   0.127   1.423   2.483  0.3029  0.9199 -0.8991
 1658SOL    HW2 8567   0.039   1.506   2.574  0.7280  0.1667  0.2158
 1659SOL     OW 8568   4.320   8.098   8.482 -0.5407  0.1201 -0.5903
 1659SOL    HW1 8569   4.408   8.061   8.481 -1.0212 -1.2071  1.2384
 1659SOL    HW2 8570   4.262   8.022   8.476 -1.5528  0.7919  0.3547
 1660SOL     OW 8571  10.600   9.892   2.263 -0.5308  0.2576 -0.1975
 1660SOL    HW1 8572  10.598   9.973   2.212  0.6651  0.1144 -0.5174
 1660SOL    HW2 8573  10.666   9.908   2.330 -0.5372 -0.3272 -0.0450
 1661SOL     OW 8574   6.845  10.946   9.778  0.1271 -0.0557  0.1116
 1661SOL    HW1 8575   6.861  11.030   9.822  0.6526 -0.3200  0.4344
 1661SOL    HW2 8576   6.907  10.886   9.819 -0.9089 -0.8450  0.5767
 1662SOL     OW 8577   4.855   7.122   5.155  0.1630  0.1504 -0.1707
 1662SOL    HW1 8578   4.825   7.212   5.164 -2.6452 -0.5759 -1.3809
 1662SOL    HW2 8579   4.847   7.085   5.243  0.0431  0.7065  0.0550
 1663SOL     OW 8580   2.851   9.898   9.387 -0.5512  0.4945 -0.2021
 1663SOL    HW1 8581   2.772   9.948   9.408 -0.0342  1.5892 -0.7655
 1663SOL    HW2 8582   2.906   9.960   9.339 -0.3724 -0.9398 -1.9666
 1664SOL     OW 8583   7.636   6.371   3.661  0.2550 -0.4809 -0.2373
 1664SOL    HW1 8584   7.679   6.440   3.610  1.5062  0.9748  2.5393
 1664SOL    HW2 8585   7.707   6.311   3.684  0.2409  0.1264  1.5866
 1665SOL     OW 8586   5.797   3.821  10.929  0.2592 -0.0308  0.1659
 1665SOL    HW1 8587   5.890   3.815  10.906  0.2818  1.2728 -0.1543
 1665SOL    HW2 8588   5.755   3.754  10.875  0.8657  0.1402 -0.5317
 1666SOL     OW 8589   4.612   9.770   4.889  0.3990 -0.2574  0.4134
 1666SOL    HW1 8590   4.645   9.860   4.895 -0.5451  0.1502 -0.2708
 1666SOL    HW2 8591   4.691   9.717   4.882  0.9601  0.5742  0.2549
 1667SOL     OW 8592   1.634   9.949   8.320  0.0548 -0.2965  0.1894
 1667SOL    HW1 8593   1.664  10.023   8.374  0.0044 -0.9139  1.0873
 1667SOL    HW2 8594   1.693   9.950   8.244  0.2477  0.4824  0.3362
 1668SOL     OW 8595   7.787   2.155   7.499 -0.1668  0.3795  0.2551
 1668SOL    HW1 8596   7.838   2.157   7.418  0.0564  0.7886  0.4012
 1668SOL    HW2 8597   7.741   2.239   7.500  1.4013  1.2702  1.5337
 1669SOL     OW 8598   4.164   2.384   4.635 -0.4964 -0.0605  0.1504
 1669SOL    HW1 8599   4.209   2.300   4.621 -1.6133 -0.5133 -0.9495
 1669SOL    HW2 8600   4.127   2.405   4.549 -1.3980  0.8730  0.7487
 1670SOL     OW 8601   7.962   1.161   7.763 -0.4082 -0.2494 -0.1955
 1670SOL    HW1 8602   7.925   1.217   7.695 -0.1797 -2.0933 -1.9333
 1670SOL    HW2 8603   8.054   1.188   7.769 -0.0947 -0.9218 -1.5962
 1671SOL     OW 8604   4.691   5.214   4.500 -0.1035 -0.5648 -0.4000
 1671SOL    HW1 8605   4.733   5.300   4.495  0.9165 -0.9363  1.0610
 1671SOL    HW2 8606   4.600   5.233   4.522  0.0854  0.1403 -0.2129
 1672SOL     OW 8607  10.359   8.331   5.038  0.4470  0.0829  0.1618
 1672SOL    HW1 8608  10.266   8.320   5.020  0.3176 -0.0200  0.8749
 1672SOL    HW2 8609  10.372   8.426   5.040  0.5892  0.1086 -1.0541
 1673SOL     OW 8610   8.159   3.487   5.838 -0.5312  0.0524  0.0843
 1673SOL    HW1 8611   8.116   3.475   5.754  0.0385  1.1572 -0.3757
 1673SOL    HW2 8612   8.211   3.407   5.850 -1.2673 -0.4819 -0.1993
 1674SOL     OW 8613   3.644   8.866   6.601  0.4417 -0.4223 -0.2941
 1674SOL    HW1 8614   3.657   8.897   6.691  2.1475  0.5329 -0.8252
 1674SOL    HW2 8615   3.549   8.857   6.593 -0.1786  3.4017  0.4253
 1675SOL     OW 8616   4.930   7.909   0.522 -0.3248 -0.6575 -0.2686
 1675SOL    HW1 8617   4.851   7.964   0.518 -1.4842 -2.1627  0.9380
 1675SOL    HW2 8618   5.002   7.972   0.526 -1.6502  0.8784  2.5464
 1676SOL     OW 8619   5.242   9.369   4.850 -0.2034  0.4768  0.7690
 1676SOL    HW1 8620   5.218   9.286   4.809 -0.3104  1.3338 -1.0020
 1676SOL    HW2 8621   5.323   9.350   4.898 -0.1087 -0.5894  0.2037
 1677SOL     OW 8622   9.937   4.184   2.588 -0.4811  0.3471 -0.1772
 1677SOL    HW1 8623   9.976   4.264   2.553 -0.4587  0.5168  0.2209
 1677SOL    HW2 8624   9.853   4.213   2.624 -0.4120  0.2171  0.0897
 1678SOL     OW 8625   7.890   8.227  10.683 -0.6700 -0.4502 -0.0388
 1678SOL    HW1 8626   7.875   8.310  10.729 -1.4318  0.9093 -2.5675
 1678SOL    HW2 8627   7.931   8.252  10.600  2.0180 -2.9040  0.3729
 1679SOL     OW 8628   8.002   3.418   8.198 -0.2442  0.2271  0.2063
 1679SOL    HW1 8629   7.946   3.341   8.203  0.8607 -0.6904 -0.8362
 1679SOL    HW2 8630   8.055   3.415   8.277 -0.3050 -0.0172  0.2378
 1680SOL     OW 8631   6.168   2.102   4.170  0.4128  0.3625 -0.1415
 1680SOL    HW1 8632   6.136   2.016   4.144  1.3532  0.4038 -1.5612
 1680SOL    HW2 8633   6.241   2.119   4.109  0.8204  1.7598  0.7071
 1681SOL     OW 8634  10.935   9.353   8.868  0.7874 -0.5070 -0.4585
 1681SOL    HW1 8635  10.868   9.372   8.934  1.7834 -1.3945  0.8705
 1681SOL    HW2 8636  10.887   9.316   8.794 -0.2781 -0.2962  0.1049
 1682SOL     OW 8637   4.747   7.389  10.077 -0.4059 -0.6048  0.5669
 1682SOL    HW1 8638   4.822   7.442  10.051  0.3656 -1.9744 -0.1580
 1682SOL    HW2 8639   4.703   7.369   9.994  0.6741 -2.9973  0.4832
 1683SOL     OW 8640   2.476   9.092   4.297  0.1757  0.0063 -0.1366
 1683SOL    HW1 8641   2.438   9.019   4.247  0.6183  0.4466 -1.1417
 1683SOL    HW2 8642   2.427   9.169   4.268  0.8944  0.3681 -0.4090
 1684SOL     OW 8643  10.260   5.590   2.841  0.2027 -0.4900  0.4581
 1684SOL    HW1 8644  10.235   5.614   2.931 -1.9594 -0.7305 -0.0373
 1684SOL    HW2 8645  10.187   5.537   2.809  3.0491 -4.6912  0.1788
 1685SOL     OW 8646   2.541   0.124   8.451 -0.4394 -0.0086  0.4098
 1685SOL    HW1 8647   2.612   0.173   8.409  0.3539 -1.7205 -0.3529
 1685SOL    HW2 8648   2.585   0.069   8.516 -0.9905 -1.2421 -0.2161
 1686SOL     OW 8649   7.666   4.034   1.718 -0.0874  0.1235  0.2983
 1686SOL    HW1 8650   7.719   4.013   1.641  1.0091 -0.1989  1.1188
 1686SOL    HW2 8651   7.609   3.958   1.730  1.4906 -0.9626  1.2495
 1687SOL     OW 8652   8.382   2.929   4.053 -0.0906 -0.6560  0.0514
 1687SOL    HW1 8653   8.341   2.897   3.972 -0.5020 -1.0568  0.4182
 1687SOL    HW2 8654   8.348   2.872   4.122  1.2318 -1.1325  0.3497
 1688SOL     OW 8655   7.222  10.886   4.513  0.3851  0.0971  0.0528
 1688SOL    HW1 8656   7.146  10.900   4.570  0.2669 -1.7299  0.3856
 1688SOL    HW2 8657   7.297  10.908   4.569  0.2420 -1.1563  0.7714
 1689SOL     OW 8658   0.127   6.581   7.012 -0.9384 -0.3682  0.7752
 1689SOL    HW1 8659   0.175   6.498   7.017 -1.3333 -0.9739 -3.0139
 1689SOL    HW2 8660   0.127   6.613   7.102  0.6689 -3.6375  2.1191
 1690SOL     OW 8661   7.524   2.878   4.949  0.1750 -0.3497  0.0071
 1690SOL    HW1 8662   7.568   2.798   4.977 -0.1594 -0.6668 -0.3689
 1690SOL    HW2 8663   7.574   2.948   4.990  0.1398 -0.7724  0.7930
 1691SOL     OW 8664   2.366   3.047   3.050 -0.6586  0.5744  0.3048
 1691SOL    HW1 8665   2.447   3.044   2.998 -0.4079  1.2197  0.6479
 1691SOL    HW2 8666   2.394   3.076   3.136 -0.9664 -1.2073  1.0398
 1692SOL     OW 8667   8.206  11.002   7.212 -0.6856  0.1954 -0.0634
 1692SOL    HW1 8668   8.150  11.060   7.264  0.4740  2.0779 -0.8006
 1692SOL    HW2 8669   8.269  11.061   7.170  0.8205 -1.6624 -0.5551
 1693SOL     OW 8670   2.407   8.815  10.972 -0.0809 -0.0045  0.0949
 1693SOL    HW1 8671   2.460   8.772  11.039  1.6072  1.6148 -0.1201
 1693SOL    HW2 8672   2.387   8.746  10.908 -1.2564 -1.4431  1.9260
 1694SOL     OW 8673   1.899   3.100   1.456  0.4083 -0.0480 -0.4783
 1694SOL    HW1 8674   1.873   3.021   1.408  1.3909 -0.9960  0.4911
 1694SOL    HW2 8675   1.979   3.074   1.503  0.3936  1.3408  0.3627
 1695SOL     OW 8676   5.921   6.258   7.042 -0.4183  0.1573 -0.3610
 1695SOL    HW1 8677   5.998   6.202   7.050 -1.3696 -1.0913  0.2989
 1695SOL    HW2 8678   5.864   6.211   6.981 -0.9919  0.7052 -0.2521
 1696SOL     OW 8679  10.759   2.502   0.489  0.0537  0.0899 -0.0888
 1696SOL    HW1 8680  10.824   2.496   0.559 -0.6253  1.2877  0.6793
 1696SOL    HW2 8681  10.782   2.431   0.429  0.4260 -1.2267  1.5341
 1697SOL     OW 8682   6.754   7.719   4.986 -0.0232  0.2841 -0.5630
 1697SOL    HW1 8683   6.835   7.678   5.015 -0.8313 -2.0489 -1.4104
 1697SOL    HW2 8684   6.772   7.749   4.897 -0.3836 -1.2570 -1.1803
 1698SOL     OW 8685   3.751   7.427  10.115  0.1539 -0.1687  0.0430
 1698SOL    HW1 8686   3.739   7.477  10.034  0.8675 -2.0872 -1.3278
 1698SOL    HW2 8687   3.693   7.470  10.178  0.1423  1.8563 -1.2476
 1699SOL     OW 8688   2.329  10.508   3.427 -0.2799  0.1254  0.2373
 1699SOL    HW1 8689   2.394  10.512   3.497 -1.4081  0.4520  1.3011
 1699SOL    HW2 8690   2.266  10.443   3.456 -1.1616  0.7972 -0.1136
 1700SOL     OW 8691   5.119  10.217   5.186 -0.1249  0.4929  0.0491
 1700SOL    HW1 8692   5.210  10.191   5.179 -0.4416 -0.5840 -0.2692
 1700SOL    HW2 8693   5.084  10.205   5.097 -0.8680 -0.2550  0.4356
 1701SOL     OW 8694   7.589   8.689   8.286  0.1911 -0.6484 -0.0502
 1701SOL    HW1 8695   7.572   8.771   8.239  0.5900  0.2485  1.3260
 1701SOL    HW2 8696   7.502   8.652   8.300 -0.1724  0.5661  1.0779
 1702SOL     OW 8697   9.539   5.449  10.634 -0.3259  0.6754 -0.1725
 1702SOL    HW1 8698   9.626   5.417  10.608 -0.4335  1.9912 -2.3671
 1702SOL    HW2 8699   9.517   5.515  10.568 -3.1691  0.1304  0.1235
 1703SOL     OW 8700   0.322   2.932   6.992  0.2419 -0.2979  0.3157
 1703SOL    HW1 8701   0.268   2.866   6.949 -2.1511  1.5492  0.2507
 1703SOL    HW2 8702   0.309   2.917   7.086 -1.4068  0.8330  0.3065
 1704SOL     OW 8703   2.356   0.330   2.007  0.5054  0.4055 -0.1602
 1704SOL    HW1 8704   2.437   0.332   1.956 -0.2084 -0.4921 -1.3717
 1704SOL    HW2 8705   2.286   0.336   1.942 -0.4306 -0.1520  0.7577
 1705SOL     OW 8706   6.459   3.748  11.072  0.4575  0.7816 -0.2169
 1705SOL    HW1 8707   6.440   3.840  11.088  1.9878  0.8660  1.3588
 1705SOL    HW2 8708   6.461   3.708  11.159 -2.1456 -1.2220 -0.9354
 1706SOL     OW 8709   0.246   8.944   2.742  0.1724 -0.1785  0.0753
 1706SOL    HW1 8710   0.168   8.992   2.714  0.6449  0.1591 -0.6930
 1706SOL    HW2 8711   0.314   9.012   2.751  0.8656 -0.6781 -1.0806
 1707SOL     OW 8712   3.138  10.864   2.009  0.2186 -0.3971 -0.5850
 1707SOL    HW1 8713   3.081  10.928   1.966 -1.0360 -2.3441 -2.0066
 1707SOL    HW2 8714   3.101  10.856   2.097 -0.9179 -0.6104 -1.0516
 1708SOL     OW 8715   0.987   0.851   3.089  0.0538 -0.3993  0.4686
 1708SOL    HW1 8716   0.990   0.822   3.180 -1.2049 -2.0541  0.0301
 1708SOL    HW2 8717   1.036   0.784   3.041 -0.1108 -0.0563 -0.1921
 1709SOL     OW 8718   7.174   2.863  10.991  0.0798 -0.9250  0.4304
 1709SOL    HW1 8719   7.208   2.906  11.069 -0.9093 -2.5900  1.8432
 1709SOL    HW2 8720   7.141   2.935  10.937  0.9477  0.2768  1.4393
 1710SOL     OW 8721   9.369   1.174   7.467  0.0479 -0.0885 -1.0789
 1710SOL    HW1 8722   9.274   1.185   7.464 -0.0815 -0.6911  0.3211
 1710SOL    HW2 8723   9.383   1.079   7.466  0.5657 -0.0416  0.1246
 1711SOL     OW 8724   7.905   7.781   5.933  0.6106 -0.1715  0.0320
 1711SOL    HW1 8725   7.928   7.871   5.910 -0.6051  0.6134  1.6436
 1711SOL    HW2 8726   7.891   7.737   5.849  2.9405  0.6002 -0.8582
 1712SOL     OW 8727  10.405   3.518   2.943  0.6100  0.2141 -0.0151
 1712SOL    HW1 8728  10.484   3.529   2.996 -0.1852  0.9191  1.0587
 1712SOL    HW2 8729  10.420   3.573   2.866  1.1739  0.3372  0.1783
 1713SOL     OW 8730   1.313  10.350   9.139  0.3706 -0.5750  0.2017
 1713SOL    HW1 8731   1.250  10.325   9.207 -0.6450 -0.4552 -0.6630
 1713SOL    HW2 8732   1.336  10.268   9.096 -0.3281 -0.4570 -0.4192
 1714SOL     OW 8733   3.853   3.762  10.124 -0.0347 -0.0523 -0.2076
 1714SOL    HW1 8734   3.774   3.708  10.118  0.8479 -1.5611  1.1055
 1714SOL    HW2 8735   3.825   3.839  10.173 -0.8699 -0.1931 -0.4413
 1715SOL     OW 8736   8.414   1.862   6.903  0.9574 -0.4295 -0.3251
 1715SOL    HW1 8737   8.430   1.951   6.873 -0.2457  0.5648  1.7973
 1715SOL    HW2 8738   8.323   1.844   6.879  0.5168 -0.2481  1.1586
 1716SOL     OW 8739   9.423   6.868   0.015  0.2228 -0.7384 -0.3832
 1716SOL    HW1 8740   9.492   6.805   0.033  0.7185 -0.1702 -0.2478
 1716SOL    HW2 8741   9.465   6.954   0.026 -0.2161 -0.3793 -1.3630
 1717SOL     OW 8742   6.954   2.291   3.922 -0.3514  0.7175 -0.1499
 1717SOL    HW1 8743   6.931   2.274   4.013  2.1103  0.3224  0.4695
 1717SOL    HW2 8744   6.999   2.375   3.924 -0.3796  0.7622 -1.0224
 1718SOL     OW 8745   8.689   1.752   8.611 -0.8539  0.4526  0.2422
 1718SOL    HW1 8746   8.617   1.791   8.562 -1.0710 -0.4971 -0.2011
 1718SOL    HW2 8747   8.647   1.695   8.675 -0.5135  0.4233  0.4417
 1719SOL     OW 8748   0.631   6.819   0.276 -0.0815 -0.1680  0.5536
 1719SOL    HW1 8749   0.601   6.824   0.367 -0.9558 -1.4524  0.3683
 1719SOL    HW2 8750   0.722   6.790   0.283  0.4603  1.5204  1.0484
 1720SOL     OW 8751   9.952  10.814   6.709  0.0335 -0.0270 -0.0832
 1720SOL    HW1 8752   9.965  10.838   6.617  0.1752  0.4490  0.0581
 1720SOL    HW2 8753  10.040  10.790   6.739  0.0269  0.0449 -0.0075
 1721SOL     OW 8754   8.327   0.987   6.884 -0.0003  0.1345  0.2836
 1721SOL    HW1 8755   8.254   0.973   6.824 -0.2493  2.9464 -0.2143
 1721SOL    HW2 8756   8.311   1.073   6.922  2.2038  0.1118  1.4336
 1722SOL     OW 8757  10.365   7.494  11.022 -0.0933  0.5053  0.2481
 1722SOL    HW1 8758  10.294   7.506  11.085 -0.1961 -0.0433  0.2458
 1722SOL    HW2 8759  10.339   7.546  10.946  0.8722  2.6246  1.2844
 1723SOL     OW 8760   9.450   5.436  10.875  0.1746 -0.3686  0.1116
 1723SOL    HW1 8761   9.480   5.438  10.784 -1.1242  2.3127 -0.3420
 1723SOL    HW2 8762   9.479   5.519  10.912 -2.8275  0.4399  0.8960
 1724SOL     OW 8763   6.919   5.090   1.961  0.2672 -0.6168  0.0370
 1724SOL    HW1 8764   6.910   5.078   1.867 -1.5260  1.3105 -0.1102
 1724SOL    HW2 8765   6.931   5.184   1.973 -3.0410 -0.2677  1.8516
 1725SOL     OW 8766   4.255   9.736  10.685  0.1762 -0.2744  0.1854
 1725SOL    HW1 8767   4.316   9.764  10.617 -0.8738 -0.1422 -0.7403
 1725SOL    HW2 8768   4.176   9.711  10.637 -1.1787  1.3194  1.4422
 1726SOL     OW 8769   7.655   7.806   4.682 -0.3967  0.7556  0.1535
 1726SOL    HW1 8770   7.727   7.743   4.689 -1.0892 -0.0909 -0.1298
 1726SOL    HW2 8771   7.693   7.889   4.710  1.2636  0.7801 -1.9093
 1727SOL     OW 8772   9.929  10.105   1.791  0.3072  0.6036 -0.4656
 1727SOL    HW1 8773   9.860  10.114   1.725  1.9637  0.4012 -2.3255
 1727SOL    HW2 8774   9.912  10.020   1.832  0.7522 -0.5534 -2.5438
 1728SOL     OW 8775   3.508   0.068   5.860  0.1983 -0.0779 -0.0614
 1728SOL    HW1 8776   3.525  -0.021   5.829 -1.1618 -0.7576  1.0029
 1728SOL    HW2 8777   3.447   0.056   5.933  3.1159  1.3787  2.8871
 1729SOL     OW 8778  10.774   2.093   6.106  0.4035 -0.2043  0.2368
 1729SOL    HW1 8779  10.864   2.107   6.077 -0.0136 -0.0345 -1.0459
 1729SOL    HW2 8780  10.740   2.181   6.123  0.0992 -0.1499 -0.5596
 1730SOL     OW 8781   7.743   4.346   2.623 -0.1292  0.3675 -0.0858
 1730SOL    HW1 8782   7.749   4.391   2.539  0.0086 -1.6705 -1.2310
 1730SOL    HW2 8783   7.773   4.410   2.687 -1.5253  2.4411 -1.3803
 1731SOL     OW 8784   7.588   3.617   4.266  0.3697 -0.0147 -0.7839
 1731SOL    HW1 8785   7.566   3.612   4.173  0.6799  0.7780 -0.9017
 1731SOL    HW2 8786   7.507   3.590   4.311 -0.3554  1.3228 -1.2496
 1732SOL     OW 8787   6.096   0.615   1.877 -0.0834  0.3645  0.0056
 1732SOL    HW1 8788   6.168   0.595   1.936 -0.9920 -0.5863  0.8331
 1732SOL    HW2 8789   6.056   0.694   1.913 -0.9551 -0.5002  1.0272
 1733SOL     OW 8790  11.032   0.354   8.804  0.4445 -0.2837  0.4611
 1733SOL    HW1 8791  11.056   0.438   8.765  0.1153 -0.9923 -1.3656
 1733SOL    HW2 8792  11.116   0.314   8.827  0.7970 -0.5677 -1.1698
 1734SOL     OW 8793   7.469   8.488   0.588 -0.1057 -0.1909  0.0502
 1734SOL    HW1 8794   7.489   8.559   0.648  0.0716 -0.3803  0.2157
 1734SOL    HW2 8795   7.474   8.409   0.642 -0.7440 -0.2935 -0.0250
 1735SOL     OW 8796   4.438   3.697   9.342 -0.3353 -0.0716 -0.1165
 1735SOL    HW1 8797   4.430   3.789   9.369  0.0492 -0.5974  1.9691
 1735SOL    HW2 8798   4.347   3.665   9.338 -0.6142  0.8376 -2.7439
 1736SOL     OW 8799   8.851   4.812   4.860 -0.5298  0.0849 -0.5987
 1736SOL    HW1 8800   8.775   4.760   4.833 -1.2421  1.6172 -1.7084
 1736SOL    HW2 8801   8.819   4.902   4.861  0.7003  0.5623  1.1314
 1737SOL     OW 8802  10.431   3.260   7.924  0.0059  0.0130 -0.2234
 1737SOL    HW1 8803  10.410   3.214   7.843 -0.8224  0.8943 -0.5234
 1737SOL    HW2 8804  10.347   3.276   7.966  0.3713  0.2542  0.4356
 1738SOL     OW 8805  11.011  10.232   8.889 -0.2845 -0.3633  0.1883
 1738SOL    HW1 8806  11.008  10.297   8.959 -0.7719 -0.3568  0.1615
 1738SOL    HW2 8807  11.093  10.184   8.904 -0.0061  0.1435  0.3063
 1739SOL     OW 8808   6.189   3.100   1.453  0.0886  0.0643  0.2766
 1739SOL    HW1 8809   6.158   3.165   1.516 -0.1122 -1.4126  1.7657
 1739SOL    HW2 8810   6.141   3.119   1.373 -0.6798  1.1358  0.9676
 1740SOL     OW 8811   3.844   3.697   0.037  0.2567 -0.4048 -0.4796
 1740SOL    HW1 8812   3.875   3.660   0.119 -0.6066  1.0522  0.5414
 1740SOL    HW2 8813   3.921   3.695  -0.020  1.4024  0.3190  0.9772
 1741SOL     OW 8814   0.552   8.287   5.138  0.2107  0.2171  0.0389
 1741SOL    HW1 8815   0.561   8.361   5.078  1.1715  0.1311  0.0531
 1741SOL    HW2 8816   0.586   8.318   5.221 -0.4712  0.1184  0.3566
 1742SOL     OW 8817   7.285   6.807  10.750  0.0304  0.2276 -0.6081
 1742SOL    HW1 8818   7.277   6.712  10.756  0.5866  0.2456  0.6775
 1742SOL    HW2 8819   7.213   6.841  10.802  1.1005  0.4691  0.7665
 1743SOL     OW 8820   7.769   6.236   1.708 -0.4100  0.3844  0.7904
 1743SOL    HW1 8821   7.839   6.243   1.643 -0.5262  1.4188  0.7615
 1743SOL    HW2 8822   7.695   6.199   1.659 -0.3180  0.6161  0.4679
 1744SOL     OW 8823   7.178   8.720   9.482  0.6897  0.0432 -0.5008
 1744SOL    HW1 8824   7.236   8.657   9.438 -1.0433 -1.7716 -0.3456
 1744SOL    HW2 8825   7.097   8.718   9.432  0.5130  2.1063 -0.3831
 1745SOL     OW 8826  10.921   9.300   9.581 -0.3117  0.1038 -0.1236
 1745SOL    HW1 8827  10.948   9.346   9.501  0.1469  0.2915  0.1361
 1745SOL    HW2 8828  10.830   9.275   9.564 -0.0822 -0.2512 -0.8810
 1746SOL     OW 8829   4.314   3.070   4.322 -0.3087  0.3061 -0.0145
 1746SOL    HW1 8830   4.228   3.030   4.328 -0.4992  0.6964 -0.1074
 1746SOL    HW2 8831   4.373   3.007   4.363 -0.9070  0.9069  1.8895
 1747SOL     OW 8832   9.816   3.914   9.854  0.0553  0.0825 -0.3440
 1747SOL    HW1 8833   9.910   3.935   9.861  0.0312  0.3933 -0.9107
 1747SOL    HW2 8834   9.808   3.829   9.896  0.6990 -0.2166 -0.8073
 1748SOL     OW 8835   3.062   0.918   9.894  0.3749  0.1818 -0.2549
 1748SOL    HW1 8836   3.030   0.933   9.805  0.7583 -0.3896 -0.4954
 1748SOL    HW2 8837   2.993   0.954   9.950  0.0638  0.4221 -0.7774
 1749SOL     OW 8838   7.495   0.271   2.131 -0.1685 -0.1407  0.1468
 1749SOL    HW1 8839   7.415   0.317   2.107 -0.7574 -0.6171  1.1346
 1749SOL    HW2 8840   7.498   0.196   2.071 -0.2201  0.1325 -0.1980
 1750SOL     OW 8841   3.200   7.253  11.013  0.5231  0.2424  0.0828
 1750SOL    HW1 8842   3.185   7.331  10.960 -0.6488  0.2216  0.3663
 1750SOL    HW2 8843   3.135   7.190  10.982  0.4160 -0.0774  0.9252
 1751SOL     OW 8844   2.315   8.729   6.621 -0.1506 -0.5754 -0.0806
 1751SOL    HW1 8845   2.299   8.635   6.629 -0.5015 -0.5029  0.0909
 1751SOL    HW2 8846   2.270   8.767   6.696  0.2595 -0.2983  0.0245
 1752SOL     OW 8847   0.222   2.654   0.217  0.0529 -0.7353  0.2499
 1752SOL    HW1 8848   0.243   2.703   0.296 -1.8860  1.4016 -0.4390
 1752SOL    HW2 8849   0.197   2.567   0.248  0.3904 -0.2792  1.8664
 1753SOL     OW 8850   9.603   1.117   0.502 -0.0433 -0.0375 -0.1326
 1753SOL    HW1 8851   9.673   1.129   0.438  0.3143  0.3655  0.3271
 1753SOL    HW2 8852   9.643   1.137   0.586 -0.2978 -1.3261  0.3182
 1754SOL     OW 8853   6.587  10.634   0.564 -0.3576  0.0354 -0.6303
 1754SOL    HW1 8854   6.565  10.561   0.506  0.2820  0.7549 -1.8400
 1754SOL    HW2 8855   6.540  10.709   0.526 -0.0002  0.5022 -0.1663
 1755SOL     OW 8856   2.016   2.434   4.108  0.0063  0.4453 -0.2526
 1755SOL    HW1 8857   1.947   2.431   4.175 -0.8421  0.7035 -1.0842
 1755SOL    HW2 8858   2.042   2.526   4.105  1.2866  0.1672  0.9023
 1756SOL     OW 8859   1.655   5.214   0.361 -0.0225  0.2472  0.6149
 1756SOL    HW1 8860   1.661   5.213   0.265  0.3525 -1.4648  0.6328
 1756SOL    HW2 8861   1.744   5.234   0.390  0.1248 -0.3807  0.6082
 1757SOL     OW 8862   7.403   0.928   0.905 -0.0332 -0.4186  0.3060
 1757SOL    HW1 8863   7.437   0.930   0.994 -0.6912 -2.4120  0.6433
 1757SOL    HW2 8864   7.454   0.860   0.860  0.1163  0.3780 -0.7777
 1758SOL     OW 8865   8.408   6.176   1.153  0.2039 -0.2462  0.0146
 1758SOL    HW1 8866   8.394   6.260   1.195 -0.0988 -0.6831  0.8059
 1758SOL    HW2 8867   8.364   6.183   1.068  1.8088  1.0616 -0.7934
 1759SOL     OW 8868   9.149   7.028   4.700 -0.2739  0.1536  0.2895
 1759SOL    HW1 8869   9.137   6.939   4.669  0.0854 -0.4705  1.8586
 1759SOL    HW2 8870   9.160   7.020   4.794  1.9384  1.6408  0.2317
 1760SOL     OW 8871   0.629   9.062   1.891  0.5701  0.1554  0.0026
 1760SOL    HW1 8872   0.563   9.131   1.891  0.3818 -0.0149  0.6150
 1760SOL    HW2 8873   0.697   9.093   1.832 -0.6091 -0.1995 -1.6117
 1761SOL     OW 8874   3.276   7.397   3.274 -0.2244  0.3722 -0.1103
 1761SOL    HW1 8875   3.192   7.390   3.319 -0.0162  0.9180  0.3700
 1761SOL    HW2 8876   3.321   7.315   3.294  0.7128  1.4238  2.4278
 1762SOL     OW 8877   8.809   1.969   2.654  0.1651  0.1820  0.1206
 1762SOL    HW1 8878   8.782   1.882   2.623  1.8798 -0.7431  1.1066
 1762SOL    HW2 8879   8.774   2.029   2.588  0.0521 -1.3503 -1.2912
 1763SOL     OW 8880   9.710   1.723   7.177  0.1058  0.1536 -0.2164
 1763SOL    HW1 8881   9.801   1.750   7.172 -0.6332  3.5141  1.6483
 1763SOL    HW2 8882   9.707   1.661   7.251  0.8226  0.1889 -0.1512
 1764SOL     OW 8883  10.284   9.312   2.741  0.4396  0.5468 -0.3778
 1764SOL    HW1 8884  10.377   9.303   2.762  0.4805  1.5579 -0.0583
 1764SOL    HW2 8885  10.277   9.398   2.700 -0.2962  0.3007 -0.7798
 1765SOL     OW 8886  10.375   6.372  10.929  0.0684 -0.2114  0.4258
 1765SOL    HW1 8887  10.452   6.399  10.979  0.4138 -0.3346 -0.0292
 1765SOL    HW2 8888  10.301   6.414  10.973  0.2305 -1.2327  1.7265
 1766SOL     OW 8889   2.338   0.623   2.341  0.1745  0.5165  0.2566
 1766SOL    HW1 8890   2.322   0.688   2.409 -1.3028 -0.2513  0.6800
 1766SOL    HW2 8891   2.367   0.545   2.388 -0.9671 -0.0553  0.0501
 1767SOL     OW 8892   0.690   4.958   3.989 -0.8048  0.0811 -0.1408
 1767SOL    HW1 8893   0.771   4.999   4.019 -0.4790 -0.3913 -0.3619
 1767SOL    HW2 8894   0.632   4.962   4.065 -0.2814 -0.3402  0.2876
 1768SOL     OW 8895   5.049   9.539   3.168 -0.3380 -0.6090  0.3678
 1768SOL    HW1 8896   5.080   9.616   3.216 -0.0581 -1.5701  1.7733
 1768SOL    HW2 8897   4.996   9.575   3.097 -1.4591  0.8474  1.8640
 1769SOL     OW 8898   6.251   4.832   3.043 -0.0717  0.2390  0.8702
 1769SOL    HW1 8899   6.335   4.871   3.068  0.9545 -0.1948 -1.5691
 1769SOL    HW2 8900   6.193   4.907   3.028  0.7168  0.6946 -0.0191
 1770SOL     OW 8901   7.379   8.959   7.645  0.5682 -0.6238 -0.2121
 1770SOL    HW1 8902   7.299   8.980   7.693  1.7018  1.7911  0.7526
 1770SOL    HW2 8903   7.381   9.022   7.573  1.0992 -1.3403 -0.8340
 1771SOL     OW 8904   5.827   4.917   8.330 -0.2218 -0.0029 -0.0331
 1771SOL    HW1 8905   5.755   4.919   8.394  0.1439  0.1069  0.3805
 1771SOL    HW2 8906   5.817   4.833   8.286 -0.0785 -0.3741  0.6376
 1772SOL     OW 8907   3.373   5.719   7.987  0.5581 -0.0294 -0.6182
 1772SOL    HW1 8908   3.420   5.710   8.070  1.4223  1.6385 -0.8881
 1772SOL    HW2 8909   3.400   5.804   7.953 -0.4118 -0.3228 -2.2285
 1773SOL     OW 8910   9.197   0.694   1.683  0.2145  0.4075 -0.2192
 1773SOL    HW1 8911   9.165   0.739   1.761 -0.3857  0.3362 -0.4165
 1773SOL    HW2 8912   9.214   0.764   1.619  2.9716  0.7078  0.7128
 1774SOL     OW 8913   3.371   5.567   0.319  0.6798 -0.1487  0.0631
 1774SOL    HW1 8914   3.413   5.566   0.233 -0.1703 -0.9586 -0.3522
 1774SOL    HW2 8915   3.278   5.584   0.301  0.4333 -0.6599  0.7881
 1775SOL     OW 8916   3.331   8.509   9.356 -0.2126  0.4138  0.1951
 1775SOL    HW1 8917   3.361   8.426   9.318  1.6598  0.2542  1.8441
 1775SOL    HW2 8918   3.350   8.574   9.288  0.8279 -0.1605 -0.0893
 1776SOL     OW 8919   0.222   4.999   9.361  0.5609 -0.0647  0.0951
 1776SOL    HW1 8920   0.138   4.954   9.356  0.3341  0.2272  0.9519
 1776SOL    HW2 8921   0.287   4.931   9.345  0.2022 -0.5708  0.7341
 1777SOL     OW 8922   7.413   9.918   5.478 -0.2164  0.3178 -0.0809
 1777SOL    HW1 8923   7.342   9.937   5.417 -0.2794 -1.1539 -0.5229
 1777SOL    HW2 8924   7.376   9.854   5.539  0.4149  0.3440  0.3446
 1778SOL     OW 8925   7.568   0.538   0.617 -0.2277  0.3796 -0.0485
 1778SOL    HW1 8926   7.547   0.472   0.551  0.8626  1.3342 -1.4291
 1778SOL    HW2 8927   7.658   0.518   0.644 -0.2171  0.7430  0.2077
 1779SOL     OW 8928   7.234   4.706   1.680  0.2053  0.0283 -0.6164
 1779SOL    HW1 8929   7.266   4.618   1.701  1.1596  0.3528 -0.6902
 1779SOL    HW2 8930   7.146   4.691   1.644 -0.3487 -0.7538  0.9669
 1780SOL     OW 8931   1.229   4.346   8.055  0.5082  0.0592  0.1101
 1780SOL    HW1 8932   1.240   4.383   8.143  0.5849 -1.3836  0.7366
 1780SOL    HW2 8933   1.233   4.251   8.068 -2.4172 -0.3099 -1.0309
 1781SOL     OW 8934   2.291   2.006   7.403  0.4838  0.0331 -0.4253
 1781SOL    HW1 8935   2.238   1.988   7.326  1.0616  0.2569 -0.8808
 1781SOL    HW2 8936   2.354   2.072   7.374  1.2585 -0.5084 -0.0047
 1782SOL     OW 8937   8.276   6.722   9.349 -0.6048 -0.5956 -0.0610
 1782SOL    HW1 8938   8.241   6.661   9.285  2.2511 -1.9453 -0.4902
 1782SOL    HW2 8939   8.333   6.669   9.405  0.2626  1.2823  0.9318
 1783SOL     OW 8940  10.892  10.296   9.588 -0.7007 -0.4973 -0.1326
 1783SOL    HW1 8941  10.926  10.369   9.536 -1.4422 -0.6490 -0.8545
 1783SOL    HW2 8942  10.832  10.251   9.529 -2.3382 -0.0996  1.1544
 1784SOL     OW 8943   9.123  10.469  10.733 -0.0745 -0.4179  0.2140
 1784SOL    HW1 8944   9.153  10.558  10.717  0.9476 -0.7355  0.2572
 1784SOL    HW2 8945   9.200  10.424  10.769 -0.8283 -1.0762  1.0598
 1785SOL     OW 8946   4.391   7.030   4.613 -0.4108  0.1667 -0.4859
 1785SOL    HW1 8947   4.355   7.110   4.574 -1.4745  0.9006  1.8654
 1785SOL    HW2 8948   4.465   7.060   4.666  1.0856 -0.8324 -1.8900
 1786SOL     OW 8949   6.999   3.035   2.847  0.1536 -0.0977 -0.1848
 1786SOL    HW1 8950   6.951   3.065   2.769  0.3505 -0.4506 -0.4493
 1786SOL    HW2 8951   7.080   2.997   2.812  1.6967  2.4573  0.4035
 1787SOL     OW 8952   7.210  10.421   3.511 -0.8190  0.0263  0.1933
 1787SOL    HW1 8953   7.188  10.363   3.585  0.0780 -3.0099 -1.7434
 1787SOL    HW2 8954   7.127  10.432   3.464 -1.2996  1.6096  1.3388
 1788SOL     OW 8955   3.943   6.203   3.653  0.3384 -0.0718  0.1019
 1788SOL    HW1 8956   3.970   6.189   3.744  0.1889  1.4412  0.4106
 1788SOL    HW2 8957   4.012   6.259   3.616 -0.2539  0.3909 -0.3251
 1789SOL     OW 8958   6.168   5.985   6.715  0.1935  0.7728 -0.2805
 1789SOL    HW1 8959   6.251   5.944   6.742 -0.0135 -0.7429 -1.7478
 1789SOL    HW2 8960   6.113   5.911   6.689 -1.2122  1.8402 -0.4301
 1790SOL     OW 8961  10.859  10.958   6.150  0.4167 -0.3127  0.2541
 1790SOL    HW1 8962  10.766  10.971   6.131  0.7405  0.4314 -0.9260
 1790SOL    HW2 8963  10.898  10.933   6.066  1.3102 -0.4941  0.7038
 1791SOL     OW 8964   8.995   4.823   7.080 -0.1450 -0.1660  1.3554
 1791SOL    HW1 8965   9.041   4.739   7.085  0.4506  0.1335  0.9690
 1791SOL    HW2 8966   9.010   4.854   6.991  0.1306  0.6200  1.6635
 1792SOL     OW 8967   2.453   5.213   5.357 -0.5781  0.2737  0.1462
 1792SOL    HW1 8968   2.399   5.136   5.372  0.1265 -0.0653  1.0806
 1792SOL    HW2 8969   2.395   5.275   5.312 -1.0855 -0.8588 -0.7990
 1793SOL     OW 8970   8.636   9.058   0.896  0.1135  0.5064  0.2333
 1793SOL    HW1 8971   8.590   9.012   0.826 -0.9596 -0.0590  1.2808
 1793SOL    HW2 8972   8.673   8.989   0.950 -1.6541  0.7970  1.9165
 1794SOL     OW 8973  10.025   7.801  10.449  0.7245  0.0307  0.2493
 1794SOL    HW1 8974   9.975   7.869  10.494  1.4591  0.7874 -0.0593
 1794SOL    HW2 8975   9.970   7.776  10.374 -0.0198 -0.4759  0.9513
 1795SOL     OW 8976   1.546  10.887   2.541 -0.1835  0.1834  0.6886
 1795SOL    HW1 8977   1.633  10.864   2.509 -0.5451 -1.0224  0.5066
 1795SOL    HW2 8978   1.492  10.811   2.520 -1.0062  0.4025  1.8989
 1796SOL     OW 8979   1.343   5.132   9.296  0.1787 -0.1982  0.6196
 1796SOL    HW1 8980   1.362   5.152   9.387  1.2265 -0.7035  0.5158
 1796SOL    HW2 8981   1.377   5.207   9.247  2.6881 -1.4088  0.3718
 1797SOL     OW 8982   5.343   1.014   3.614 -0.2366 -0.5660 -0.1077
 1797SOL    HW1 8983   5.340   1.081   3.546  0.8100 -2.5781 -2.2647
 1797SOL    HW2 8984   5.390   1.055   3.686  1.8838  0.5312 -1.9907
 1798SOL     OW 8985   3.018   3.838   8.820 -0.7715 -0.3099  0.4507
 1798SOL    HW1 8986   3.054   3.892   8.891 -0.7619 -0.1116  0.2963
 1798SOL    HW2 8987   3.057   3.874   8.741  1.0833 -2.0411  0.5037
 1799SOL     OW 8988  10.247   0.967   3.184 -0.2819 -0.4807  0.1968
 1799SOL    HW1 8989  10.331   1.012   3.173 -1.1199  1.5211  1.3608
 1799SOL    HW2 8990  10.248   0.936   3.275 -0.5884 -0.9147  0.0564
 1800SOL     OW 8991   4.340   9.316   4.502 -0.6924 -0.3030 -0.1421
 1800SOL    HW1 8992   4.303   9.270   4.427  1.5778 -2.1170 -0.2520
 1800SOL    HW2 8993   4.344   9.250   4.571  1.0378  0.1868  0.2631
 1801SOL     OW 8994   7.982  10.380   1.834 -0.3207 -0.7944  0.2597
 1801SOL    HW1 8995   8.035  10.301   1.824 -1.9258 -1.7936 -0.7728
 1801SOL    HW2 8996   7.891  10.350   1.827 -0.9927  1.0900  0.2082
 1802SOL     OW 8997   7.260   8.620   1.548  0.0072 -0.2371  0.1422
 1802SOL    HW1 8998   7.288   8.596   1.636 -2.1196  1.3411  1.3546
 1802SOL    HW2 8999   7.202   8.695   1.561  0.0101  0.3605 -2.6723
 1803SOL     OW 9000  10.011   6.219  10.375  0.3176 -0.0114  0.2268
 1803SOL    HW1 9001   9.936   6.249  10.427 -0.9286 -1.0847 -0.8633
 1803SOL    HW2 9002  10.035   6.294  10.321 -0.2383  0.2250  0.3008
 1804SOL     OW 9003   3.359   8.899   7.229  0.2367  0.2493  0.1390
 1804SOL    HW1 9004   3.375   8.946   7.311  1.5720 -2.6805  1.6841
 1804SOL    HW2 9005   3.440   8.910   7.179  0.2353  0.2776  0.1428
 1805SOL     OW 9006   0.192   9.466   7.954  0.0303  0.0553 -0.0501
 1805SOL    HW1 9007   0.111   9.501   7.991 -0.5805 -0.6988 -0.6360
 1805SOL    HW2 9008   0.193   9.498   7.864  0.8122  0.7387  0.1877
 1806SOL     OW 9009   0.887   5.483  10.779 -0.3785 -0.4605  0.1909
 1806SOL    HW1 9010   0.815   5.507  10.721 -0.4528 -1.4391 -0.1392
 1806SOL    HW2 9011   0.910   5.394  10.754  1.4105  0.0569 -0.1676
 1807SOL     OW 9012   8.829   8.925   1.109 -0.0318 -0.3155 -0.5489
 1807SOL    HW1 9013   8.905   8.875   1.079 -0.8496 -2.9781  1.4599
 1807SOL    HW2 9014   8.852   8.951   1.198 -1.5311 -1.4427  0.2035
 1808SOL     OW 9015  10.942   1.450   6.543 -0.0925  0.3009 -0.4304
 1808SOL    HW1 9016  11.013   1.452   6.607  0.9568  3.8668 -1.4470
 1808SOL    HW2 9017  10.978   1.495   6.466 -3.1874  1.6548 -1.2504
 1809SOL     OW 9018   6.117  11.103   9.102  0.3490  0.2339  0.1082
 1809SOL    HW1 9019   6.169  11.098   9.182  0.0226 -0.1740  0.2981
 1809SOL    HW2 9020   6.039  11.050   9.120  0.1833  0.2894 -0.4135
 1810SOL     OW 9021   4.784   1.190   1.111 -0.5151 -0.0782 -0.0477
 1810SOL    HW1 9022   4.693   1.166   1.094 -0.6124 -0.7974  1.2967
 1810SOL    HW2 9023   4.781   1.240   1.193  0.3683 -0.7366  0.4059
 1811SOL     OW 9024   8.231   2.939   1.677 -0.0411  0.5740 -0.0750
 1811SOL    HW1 9025   8.292   2.964   1.607  0.5507 -1.6878 -0.4519
 1811SOL    HW2 9026   8.218   2.845   1.664  0.5177 -0.0506  3.1633
 1812SOL     OW 9027   4.330   1.655   6.495 -0.0963  0.1371 -0.2055
 1812SOL    HW1 9028   4.380   1.652   6.576 -1.5395  2.8543  0.8915
 1812SOL    HW2 9029   4.385   1.704   6.434  0.0207  0.0968 -0.1331
 1813SOL     OW 9030   0.133   2.225   6.410 -0.0386 -0.4537 -0.6928
 1813SOL    HW1 9031   0.102   2.147   6.363 -0.7635 -1.9468  2.0248
 1813SOL    HW2 9032   0.066   2.241   6.477  1.1709  1.2070  0.1959
 1814SOL     OW 9033   4.867   9.332   0.932 -0.1249  0.4914 -0.0358
 1814SOL    HW1 9034   4.809   9.271   0.886  1.3125 -2.0069  1.2284
 1814SOL    HW2 9035   4.941   9.344   0.873  0.4705 -0.5633  0.4694
 1815SOL     OW 9036   7.612   0.466   4.039 -0.2371  0.5265  0.0070
 1815SOL    HW1 9037   7.647   0.551   4.012  1.8725 -0.3837 -0.3760
 1815SOL    HW2 9038   7.663   0.403   3.987 -1.2955 -0.9951  0.7592
 1816SOL     OW 9039   3.031  10.901   2.263 -0.5712  0.0094 -0.1656
 1816SOL    HW1 9040   2.949  10.945   2.240 -1.1773  0.3677  2.3973
 1816SOL    HW2 9041   3.080  10.966   2.312  0.2222 -0.9429  0.3438
 1817SOL     OW 9042   9.947   5.425   4.268  0.1535 -0.4316 -0.5616
 1817SOL    HW1 9043   9.986   5.499   4.315 -1.1648  1.6093 -2.4804
 1817SOL    HW2 9044  10.019   5.363   4.257  1.3499  0.5817  1.0040
 1818SOL     OW 9045  10.055   9.367   4.523 -0.3837  0.1090 -0.3722
 1818SOL    HW1 9046   9.990   9.384   4.455 -0.8526 -0.0465  0.0317
 1818SOL    HW2 9047  10.123   9.316   4.478  0.1721  1.4746 -1.1468
 1819SOL     OW 9048   3.792   4.370   2.423 -0.4562  0.0597 -0.1347
 1819SOL    HW1 9049   3.763   4.453   2.460  0.7701  0.1765  0.6107
 1819SOL    HW2 9050   3.884   4.363   2.449 -0.1510 -0.8716 -1.3651
 1820SOL     OW 9051   4.500   5.533   2.358 -0.2805  0.0741 -0.2629
 1820SOL    HW1 9052   4.593   5.553   2.347 -0.4556  0.7664 -0.5000
 1820SOL    HW2 9053   4.455   5.617   2.346 -0.9225 -0.2179  0.0475
 1821SOL     OW 9054  10.986   5.826   4.415  0.2210  0.2419  0.2193
 1821SOL    HW1 9055  11.010   5.919   4.423 -0.2514  0.3658  0.2449
 1821SOL    HW2 9056  10.972   5.797   4.505 -1.7048  0.7187  0.1201
 1822SOL     OW 9057   3.830   1.074   6.941 -0.7647  0.2030 -0.2148
 1822SOL    HW1 9058   3.825   0.988   6.982 -0.4718  0.3671  0.1740
 1822SOL    HW2 9059   3.914   1.110   6.971 -1.0198  0.7406 -0.1400
 1823SOL     OW 9060   2.623   2.254   2.533 -0.3178 -0.3628 -0.3149
 1823SOL    HW1 9061   2.661   2.331   2.492  1.4609  0.0659  1.9104
 1823SOL    HW2 9062   2.542   2.286   2.573  0.1281  0.2529  0.1249
 1824SOL     OW 9063   6.626  10.995   9.586  0.2203  0.5012 -0.8864
 1824SOL    HW1 9064   6.674  10.981   9.504 -0.4355 -0.8863 -1.0634
 1824SOL    HW2 9065   6.673  10.942   9.651 -0.1981  0.2985 -0.7414
 1825SOL     OW 9066   7.528   5.395   7.606  0.2833  0.1844  0.7092
 1825SOL    HW1 9067   7.581   5.315   7.616 -0.6233 -0.3633  1.2491
 1825SOL    HW2 9068   7.462   5.389   7.674 -0.6109  0.7519 -0.0813
 1826SOL     OW 9069   5.442   5.469   1.644 -0.1480  0.2572 -0.5343
 1826SOL    HW1 9070   5.389   5.459   1.722  0.4700  2.0689  0.1578
 1826SOL    HW2 9071   5.380   5.460   1.571 -0.6865 -1.6920  0.1090
 1827SOL     OW 9072   7.545   8.466   9.044  0.1526  0.2294 -0.0013
 1827SOL    HW1 9073   7.554   8.530   8.974 -0.2980  1.2541  0.8533
 1827SOL    HW2 9074   7.601   8.499   9.114 -0.5127 -0.0076  0.6605
 1828SOL     OW 9075   0.603   5.823   4.698  0.1867  0.5732  0.1115
 1828SOL    HW1 9076   0.611   5.835   4.793 -0.5274  0.9047  0.1331
 1828SOL    HW2 9077   0.584   5.729   4.688 -1.3826  0.8376  0.4143
 1829SOL     OW 9078   9.547  10.728   2.686 -0.5263 -0.5545  0.0322
 1829SOL    HW1 9079   9.581  10.764   2.604 -1.3387  0.6736  0.2147
 1829SOL    HW2 9080   9.452  10.727   2.675 -0.6826  0.1263  1.1545
 1830SOL     OW 9081   8.960   2.728   6.022 -0.0300  0.3676  0.1777
 1830SOL    HW1 9082   8.896   2.763   6.085 -1.4278 -1.9486  0.1556
 1830SOL    HW2 9083   8.907   2.704   5.945  0.7773 -1.7720  0.2220
 1831SOL     OW 9084  10.020   1.278   2.399 -0.0404  0.1835 -0.1508
 1831SOL    HW1 9085   9.929   1.308   2.405 -0.5099 -1.2103  0.1450
 1831SOL    HW2 9086  10.023   1.226   2.319  0.2506 -0.5225  0.3070
 1832SOL     OW 9087   2.300   5.860   4.941 -0.0533  0.4473  0.2674
 1832SOL    HW1 9088   2.292   5.764   4.937  0.4252  0.4334 -0.5760
 1832SOL    HW2 9089   2.211   5.892   4.925 -0.1953  0.1467  0.4483
 1833SOL     OW 9090   9.734   2.243   3.400 -0.0502 -0.4171  0.4140
 1833SOL    HW1 9091   9.649   2.270   3.432 -0.2480 -0.3548 -0.1680
 1833SOL    HW2 9092   9.720   2.156   3.364 -0.2665  0.3280 -1.3605
 1834SOL     OW 9093   3.031   5.321   5.693  0.3416 -0.2560  0.2520
 1834SOL    HW1 9094   2.982   5.262   5.635 -0.3699  1.6819 -1.2572
 1834SOL    HW2 9095   2.967   5.347   5.759 -0.4848  1.4287 -1.0982
 1835SOL     OW 9096   1.045   0.743   4.495  0.0810  0.0429 -0.1371
 1835SOL    HW1 9097   1.020   0.722   4.585  1.3891 -0.3169  0.1568
 1835SOL    HW2 9098   1.074   0.660   4.457 -1.4840 -0.0402 -1.2727
 1836SOL     OW 9099   2.361  11.079   7.349  0.3535 -0.5956  0.8338
 1836SOL    HW1 9100   2.338  10.989   7.325  0.0572 -0.8238  1.9267
 1836SOL    HW2 9101   2.433  11.070   7.411  1.3789  0.0045 -0.2174
 1837SOL     OW 9102   2.661   7.132  11.034  0.2148 -0.6395 -0.1315
 1837SOL    HW1 9103   2.626   7.044  11.024 -1.4299 -0.1575  0.9504
 1837SOL    HW2 9104   2.635   7.177  10.953 -1.1458 -0.4801  0.3709
 1838SOL     OW 9105   8.746   1.523  10.659  0.2881  0.1549 -0.2706
 1838SOL    HW1 9106   8.719   1.541  10.749 -0.4186  1.2979 -0.6914
 1838SOL    HW2 9107   8.826   1.573  10.647 -0.4382  1.2422 -0.7296
 1839SOL     OW 9108   9.693   9.724   0.560 -0.0161 -0.1266 -0.7415
 1839SOL    HW1 9109   9.699   9.662   0.633 -0.9969  0.5348 -0.0856
 1839SOL    HW2 9110   9.782   9.756   0.549  0.1256 -0.1446  0.2432
 1840SOL     OW 9111   1.944   9.516   1.487  0.2037 -0.2427 -0.4548
 1840SOL    HW1 9112   2.038   9.525   1.498  0.3144 -1.5764 -0.1716
 1840SOL    HW2 9113   1.929   9.422   1.475 -1.2824 -0.3521  1.6549
 1841SOL     OW 9114   0.852   5.794   2.960  0.1496  0.0025 -0.4598
 1841SOL    HW1 9115   0.905   5.828   2.887  1.0773 -2.9822 -1.3339
 1841SOL    HW2 9116   0.912   5.792   3.035 -0.1876  1.1294 -0.1518
 1842SOL     OW 9117   4.555  10.197   0.047 -0.6079 -0.4053 -0.1914
 1842SOL    HW1 9118   4.483  10.135   0.059  0.0407 -0.9267  1.2927
 1842SOL    HW2 9119   4.536  10.268   0.108  0.3105 -0.7438  0.5138
 1843SOL     OW 9120   7.286  11.069  11.041 -0.3486 -0.6065 -0.5060
 1843SOL    HW1 9121   7.281  11.125  11.118 -0.6687 -0.3694 -0.6982
 1843SOL    HW2 9122   7.278  10.980  11.076 -2.6437 -0.4237 -0.4500
 1844SOL     OW 9123   5.971   2.829   8.179 -0.1868  0.5317  0.5396
 1844SOL    HW1 9124   5.914   2.753   8.170 -2.3603  1.9420  1.5476
 1844SOL    HW2 9125   5.988   2.835   8.273  1.0990  0.5461  0.3244
 1845SOL     OW 9126   8.623   9.475   1.871  0.6740  0.1953 -0.0960
 1845SOL    HW1 9127   8.616   9.405   1.806  0.2983  0.5457 -0.4357
 1845SOL    HW2 9128   8.569   9.546   1.837 -3.5554 -1.2180  2.7882
 1846SOL     OW 9129   9.515   4.344   0.796  0.1916  0.0684 -0.4046
 1846SOL    HW1 9130   9.569   4.419   0.819 -1.4288  1.3977 -0.7483
 1846SOL    HW2 9131   9.491   4.306   0.881 -1.5166  1.8512 -0.0078
 1847SOL     OW 9132   3.474   8.311   7.643 -0.1847 -0.0560 -0.2654
 1847SOL    HW1 9133   3.569   8.303   7.652  0.0561 -0.2047 -2.4090
 1847SOL    HW2 9134   3.447   8.361   7.719  1.3563 -1.5307  1.3631
 1848SOL     OW 9135   9.513   3.561   5.774 -0.4055 -0.3776  0.1441
 1848SOL    HW1 9136   9.517   3.465   5.774 -4.4357 -0.7922  2.4413
 1848SOL    HW2 9137   9.467   3.583   5.694 -1.2015 -0.5977  0.5261
 1849SOL     OW 9138   8.910   8.700  10.815  0.6171 -0.2076 -0.2443
 1849SOL    HW1 9139   8.817   8.681  10.805  0.7106 -0.4570 -0.6492
 1849SOL    HW2 9140   8.915   8.796  10.814  0.3127 -0.1800  0.2967
 1850SOL     OW 9141   3.101  10.820   0.682  0.1794 -0.3144 -0.2795
 1850SOL    HW1 9142   3.184  10.774   0.669 -0.5580 -1.6735 -0.3617
 1850SOL    HW2 9143   3.123  10.892   0.741  1.8706  0.7710 -2.0690
 1851SOL     OW 9144   4.546   3.318   9.051 -0.4986 -0.1079 -0.0508
 1851SOL    HW1 9145   4.556   3.346   9.142  0.2281 -1.8250  0.4292
 1851SOL    HW2 9146   4.479   3.376   9.016  0.5287  1.8269  1.0244
 1852SOL     OW 9147   7.499   9.116   5.627 -0.1977  0.3171 -0.1716
 1852SOL    HW1 9148   7.566   9.158   5.682  1.2696 -1.6857 -0.2878
 1852SOL    HW2 9149   7.530   9.127   5.538  0.4017 -1.2046 -0.1862
 1853SOL     OW 9150   0.963   8.078   9.895 -0.4009  0.2561  0.4005
 1853SOL    HW1 9151   0.916   8.097   9.814  0.1683  3.6521  0.7462
 1853SOL    HW2 9152   1.045   8.037   9.866 -0.4574  0.8921 -0.7102
 1854SOL     OW 9153   8.630   0.207   4.576 -0.0516  0.2049 -0.2486
 1854SOL    HW1 9154   8.562   0.247   4.522 -0.2216 -0.1579 -0.3050
 1854SOL    HW2 9155   8.712   0.240   4.539 -0.1730  0.1287 -0.5934
 1855SOL     OW 9156   0.060   4.503   4.867 -0.2018  0.3723  0.1126
 1855SOL    HW1 9157   0.085   4.525   4.777  1.3228 -2.4589 -0.2381
 1855SOL    HW2 9158   0.026   4.586   4.903  0.6543  1.9756 -2.5180
 1856SOL     OW 9159   1.706   7.249   6.676 -0.5052 -0.0366  0.1074
 1856SOL    HW1 9160   1.733   7.317   6.738  1.6297  1.5083 -2.2947
 1856SOL    HW2 9161   1.751   7.272   6.595 -2.9908 -2.0072 -2.0140
 1857SOL     OW 9162   0.625   5.452  10.928 -0.5577  0.3105 -0.0787
 1857SOL    HW1 9163   0.582   5.537  10.934  0.8585  0.9685  2.3689
 1857SOL    HW2 9164   0.717   5.473  10.917 -0.1992 -0.8963  0.4947
 1858SOL     OW 9165   0.941   1.336  10.439 -0.4534  0.3260  0.2306
 1858SOL    HW1 9166   0.863   1.285  10.417  0.8187 -1.4350 -0.3923
 1858SOL    HW2 9167   0.910   1.400  10.503 -2.2674 -0.8050  0.5605
 1859SOL     OW 9168   9.363   8.678   9.918  0.0690 -0.4730 -0.3225
 1859SOL    HW1 9169   9.407   8.593   9.926 -0.9307 -1.3726 -3.0109
 1859SOL    HW2 9170   9.319   8.691  10.002 -1.3610 -3.6498 -0.4348
 1860SOL     OW 9171   3.086   5.710   8.532  0.5719  0.3803 -0.1295
 1860SOL    HW1 9172   3.031   5.700   8.454 -0.2952 -0.5125  0.5787
 1860SOL    HW2 9173   3.134   5.628   8.538  1.3170  0.8037 -0.2299
 1861SOL     OW 9174   1.091   8.003   6.644 -0.2164 -0.1039  0.1309
 1861SOL    HW1 9175   1.032   8.034   6.713 -1.8453 -1.6687 -0.4863
 1861SOL    HW2 9176   1.176   7.993   6.688 -0.7695  0.7168  1.4366
 1862SOL     OW 9177   0.392   0.101   1.564  0.1545 -0.1920 -0.2683
 1862SOL    HW1 9178   0.359   0.020   1.604 -0.2731 -0.4721 -1.1693
 1862SOL    HW2 9179   0.316   0.159   1.561  0.4455  0.2365  0.3187
 1863SOL     OW 9180   4.198   3.973   5.077  0.1754  0.1414 -0.2812
 1863SOL    HW1 9181   4.136   4.041   5.052 -1.0089 -0.0595  1.9115
 1863SOL    HW2 9182   4.278   4.020   5.100 -0.1590  0.6541 -0.1624
 1864SOL     OW 9183   7.036   2.512   4.479 -0.0030  0.7142 -0.2781
 1864SOL    HW1 9184   6.952   2.470   4.498 -1.3299  2.6441 -1.5091
 1864SOL    HW2 9185   7.076   2.526   4.565 -0.0272 -1.8855  0.2312
 1865SOL     OW 9186   5.317   8.159   3.723 -0.0488  0.3086  0.1456
 1865SOL    HW1 9187   5.346   8.068   3.723  1.0427  0.6270  1.4365
 1865SOL    HW2 9188   5.367   8.201   3.652 -0.6918 -0.1198 -0.5733
 1866SOL     OW 9189   7.903   9.903   6.057 -0.3203  0.4848 -0.4851
 1866SOL    HW1 9190   7.876   9.812   6.059 -1.9824  0.9401 -0.6072
 1866SOL    HW2 9191   7.863   9.942   6.134  1.2969  0.8987  0.1823
 1867SOL     OW 9192   4.496  10.071   1.093 -0.2575  0.3094 -0.4050
 1867SOL    HW1 9193   4.441  10.090   1.017 -1.7049  2.0090  0.9800
 1867SOL    HW2 9194   4.572  10.128   1.082 -0.1412  0.0666 -0.8906
 1868SOL     OW 9195   8.510   2.102   5.937  0.4884  0.6894  0.2317
 1868SOL    HW1 9196   8.466   2.018   5.954  1.2358  0.5433  1.5609
 1868SOL    HW2 9197   8.551   2.125   6.020  0.7688  2.1073 -0.2736
 1869SOL     OW 9198   4.600   9.352   8.603 -0.2011 -0.0382  0.1440
 1869SOL    HW1 9199   4.519   9.396   8.631 -0.7318 -0.7297 -0.2705
 1869SOL    HW2 9200   4.574   9.301   8.526  0.1626 -1.8853  1.1860
 1870SOL     OW 9201  10.945   1.745   9.514  0.0503 -0.0673 -0.1037
 1870SOL    HW1 9202  11.025   1.739   9.461  0.4551  0.0551  0.4758
 1870SOL    HW2 9203  10.882   1.690   9.468  0.3798  0.0608 -0.7264
 1871SOL     OW 9204   9.673   4.975   7.273 -0.7499  0.2305  0.3292
 1871SOL    HW1 9205   9.699   4.942   7.359  3.3461 -1.5095 -1.3005
 1871SOL    HW2 9206   9.704   5.065   7.271 -1.4329  0.4828  0.8545
 1872SOL     OW 9207   2.527   1.639   2.152 -0.1414 -0.1494 -0.0678
 1872SOL    HW1 9208   2.513   1.687   2.070  0.9018 -0.1931 -0.2802
 1872SOL    HW2 9209   2.441   1.603   2.173 -0.6126  0.5758 -0.6884
 1873SOL     OW 9210  10.057  10.695   3.204 -0.6379  0.6528 -0.2692
 1873SOL    HW1 9211  10.080  10.684   3.296  0.1976 -1.4366 -0.6767
 1873SOL    HW2 9212  10.079  10.787   3.185  0.6069  0.6999  1.2108
 1874SOL     OW 9213   3.334   8.171   3.742  0.4056 -0.0573 -0.2720
 1874SOL    HW1 9214   3.414   8.118   3.750 -1.0582 -2.7287 -1.7887
 1874SOL    HW2 9215   3.279   8.142   3.814 -0.2244 -0.2354 -0.8166
 1875SOL     OW 9216  10.602   9.044   6.251  0.0104 -0.3531  0.1404
 1875SOL    HW1 9217  10.519   9.044   6.300  0.3255 -0.4961  0.6774
 1875SOL    HW2 9218  10.585   9.101   6.176 -0.6288 -0.5113  0.1563
 1876SOL     OW 9219   5.664  10.021   7.154  0.3712  0.1035 -0.2278
 1876SOL    HW1 9220   5.753  10.051   7.169  0.4710 -0.2330 -0.1425
 1876SOL    HW2 9221   5.642   9.970   7.233  0.6683 -1.1355 -0.9266
 1877SOL     OW 9222   6.467   4.201   3.885 -0.1283  0.5458  0.1841
 1877SOL    HW1 9223   6.502   4.151   3.812  0.1311  0.4409  0.3820
 1877SOL    HW2 9224   6.423   4.136   3.940  0.9535  0.4048  0.8897
 1878SOL     OW 9225   3.643   2.137   6.739  0.5896  0.3984  0.2657
 1878SOL    HW1 9226   3.598   2.176   6.814  1.6130  1.2938  0.4475
 1878SOL    HW2 9227   3.720   2.193   6.726 -0.1132  0.9191 -2.1405
 1879SOL     OW 9228   0.068   7.083   8.204 -0.5933 -0.2458 -0.8761
 1879SOL    HW1 9229   0.155   7.117   8.228  0.1184 -1.1178 -2.1205
 1879SOL    HW2 9230   0.050   7.015   8.269  0.2956 -1.0285 -1.4264
 1880SOL     OW 9231   1.715  10.164   9.005 -0.1071 -0.1903 -0.6677
 1880SOL    HW1 9232   1.769  10.085   9.002  1.2738  0.7233 -0.4606
 1880SOL    HW2 9233   1.745  10.217   8.932 -0.9618  0.1975 -0.7500
 1881SOL     OW 9234   0.163   5.554   9.225 -0.3386  0.2085  0.0353
 1881SOL    HW1 9235   0.162   5.491   9.297 -0.5490  1.8100  1.5033
 1881SOL    HW2 9236   0.256   5.565   9.204 -0.2698 -0.2034  0.1206
 1882SOL     OW 9237   7.311   8.339   8.989  0.5448 -0.6383 -0.0531
 1882SOL    HW1 9238   7.263   8.376   8.915 -0.5715  0.3416  1.0967
 1882SOL    HW2 9239   7.397   8.381   8.985  0.4450 -0.4908 -0.7180
 1883SOL     OW 9240   0.571  11.074   2.838  0.4447  0.8542 -0.0692
 1883SOL    HW1 9241   0.582  11.010   2.908 -1.8977 -1.2288 -1.4411
 1883SOL    HW2 9242   0.621  11.039   2.765 -1.5874 -0.0631 -1.1268
 1884SOL     OW 9243   5.305   5.368   1.879 -0.0947 -1.1218  0.2101
 1884SOL    HW1 9244   5.265   5.443   1.835  0.9133 -1.6229 -1.7060
 1884SOL    HW2 9245   5.249   5.294   1.856 -0.1034 -1.2465  0.6211
 1885SOL     OW 9246   7.923   5.133   8.916  0.5454  0.8542 -0.5044
 1885SOL    HW1 9247   7.918   5.171   8.828  0.3970  1.2997 -0.3098
 1885SOL    HW2 9248   7.975   5.054   8.906 -1.9518 -0.7932 -1.5894
 1886SOL     OW 9249   3.810   8.373   4.158  0.1117 -0.4043 -0.0285
 1886SOL    HW1 9250   3.738   8.422   4.119  0.1968  1.1979  1.7049
 1886SOL    HW2 9251   3.858   8.437   4.210  2.6257 -1.4864 -0.8353
 1887SOL     OW 9252   2.986   9.931   3.040  0.0599  0.1714 -1.1712
 1887SOL    HW1 9253   3.028  10.014   3.018 -0.6249  0.0346 -3.2184
 1887SOL    HW2 9254   3.010   9.872   2.968  0.6433 -1.4777  0.3029
 1888SOL     OW 9255   5.582   1.580   6.676  0.4597 -0.0366  0.2380
 1888SOL    HW1 9256   5.563   1.674   6.681 -0.3334 -0.1440 -0.5676
 1888SOL    HW2 9257   5.572   1.549   6.766 -0.5567  0.4192  0.2986
 1889SOL     OW 9258   0.162   2.451   0.690 -0.2242 -0.2175 -0.1110
 1889SOL    HW1 9259   0.157   2.376   0.750 -1.8028 -0.1700 -0.1422
 1889SOL    HW2 9260   0.227   2.509   0.729 -1.9036  0.2719  2.1171
 1890SOL     OW 9261   8.550   0.666  10.353 -0.6008 -0.4565 -0.3874
 1890SOL    HW1 9262   8.547   0.575  10.384  1.0906  0.1885  1.9641
 1890SOL    HW2 9263   8.614   0.665  10.282 -1.5874 -1.2989 -1.2969
 1891SOL     OW 9264   7.089   0.634   6.757 -0.1966  0.2181 -0.6075
 1891SOL    HW1 9265   7.162   0.579   6.728  0.9352  0.5055  1.4795
 1891SOL    HW2 9266   7.048   0.584   6.828 -0.2069  1.2923  0.1713
 1892SOL     OW 9267   3.692   6.836   9.610  0.4421  0.0632 -0.8456
 1892SOL    HW1 9268   3.621   6.802   9.664 -0.3197  1.8722 -0.6266
 1892SOL    HW2 9269   3.725   6.760   9.563 -0.1918 -1.2051  0.6751
 1893SOL     OW 9270   3.546   7.683   0.097  0.8854 -0.6632  0.2145
 1893SOL    HW1 9271   3.546   7.624   0.022  1.5743  0.6549 -0.8660
 1893SOL    HW2 9272   3.477   7.746   0.080  0.7972 -0.5654  0.8783
 1894SOL     OW 9273   9.600   1.298   9.941 -0.2582  0.1947  0.4748
 1894SOL    HW1 9274   9.646   1.216   9.921 -0.1513  0.4804 -0.4854
 1894SOL    HW2 9275   9.650   1.337  10.013 -0.1679 -0.4619  0.7748
 1895SOL     OW 9276   5.778   5.279   9.151 -0.2017 -0.1887  0.0552
 1895SOL    HW1 9277   5.782   5.369   9.120  0.8407  0.4565  1.9246
 1895SOL    HW2 9278   5.720   5.281   9.227  1.3484 -0.6672  1.3050
 1896SOL     OW 9279   4.488   1.938   3.530  0.3060 -0.0148 -0.1138
 1896SOL    HW1 9280   4.412   1.879   3.532  1.4308 -1.5184  0.6697
 1896SOL    HW2 9281   4.516   1.944   3.622  0.8836  0.8711 -0.3384
 1897SOL     OW 9282   5.431   2.370   7.284 -0.3835  0.0253 -0.7942
 1897SOL    HW1 9283   5.515   2.403   7.316  0.3129 -0.8257 -1.7219
 1897SOL    HW2 9284   5.453   2.317   7.208 -1.8504  0.5063 -1.5841
 1898SOL     OW 9285   6.354   7.464   4.540 -0.2179  0.0788 -0.1362
 1898SOL    HW1 9286   6.334   7.502   4.626  0.5646  0.6575 -0.2005
 1898SOL    HW2 9287   6.343   7.370   4.553 -1.3353  0.2456  0.2587
 1899SOL     OW 9288   6.932   3.217   3.821  0.1465  0.6753 -0.5775
 1899SOL    HW1 9289   6.881   3.279   3.872 -0.8765  1.0400 -1.9741
 1899SOL    HW2 9290   6.987   3.271   3.764  2.1563  0.2905  0.8850
 1900SOL     OW 9291   3.328   9.704   1.368 -0.1753  0.2205  0.2928
 1900SOL    HW1 9292   3.273   9.749   1.305 -0.2344 -1.4517 -0.9188
 1900SOL    HW2 9293   3.418   9.722   1.338 -0.1731  0.1870  0.2791
 1901SOL     OW 9294   6.188   6.697  10.897  0.0160  0.2829  0.1319
 1901SOL    HW1 9295   6.120   6.652  10.947 -1.5809  1.8191 -0.5312
 1901SOL    HW2 9296   6.256   6.631  10.883 -1.3136 -1.3020  0.8616
 1902SOL     OW 9297  10.670  10.897   0.518  0.2902 -0.1990  0.4912
 1902SOL    HW1 9298  10.672  10.979   0.566  2.6906 -1.2965  2.4846
 1902SOL    HW2 9299  10.585  10.897   0.473 -0.2528  2.7899  1.3401
 1903SOL     OW 9300   8.396   8.635   1.244  0.1342  1.0615 -0.0853
 1903SOL    HW1 9301   8.327   8.702   1.238 -0.5531  0.4073  0.2862
 1903SOL    HW2 9302   8.394   8.590   1.160 -1.3580 -0.3238  0.6237
 1904SOL     OW 9303   6.260   2.777  10.874 -0.3520 -0.2792 -0.0263
 1904SOL    HW1 9304   6.214   2.742  10.798 -1.6097 -2.2549  1.5531
 1904SOL    HW2 9305   6.243   2.872  10.872 -0.2157 -0.2629 -2.2354
 1905SOL     OW 9306   2.091   5.127   6.287  0.0470  0.0692  0.3288
 1905SOL    HW1 9307   2.028   5.114   6.357  0.9861  0.4345  1.2663
 1905SOL    HW2 9308   2.044   5.179   6.222 -1.7804 -2.7214 -0.7158
 1906SOL     OW 9309   9.537  10.039   7.889 -0.1185  0.2923 -0.0627
 1906SOL    HW1 9310   9.569  10.113   7.838  1.4674 -0.7620 -0.6660
 1906SOL    HW2 9311   9.607  10.021   7.952  0.7982 -2.2744 -1.6154
 1907SOL     OW 9312   9.680   5.190   2.016 -0.1018 -0.1441  0.2735
 1907SOL    HW1 9313   9.684   5.276   2.059 -1.3976  0.3075 -0.4668
 1907SOL    HW2 9314   9.736   5.200   1.939  1.1539 -0.5363  1.1072
 1908SOL     OW 9315   3.241   1.845   0.581  0.0106 -0.1937 -0.0564
 1908SOL    HW1 9316   3.313   1.823   0.521  2.1954  1.6492  1.7197
 1908SOL    HW2 9317   3.247   1.780   0.650 -0.0683 -0.0726  0.0643
 1909SOL     OW 9318   2.456  10.092   6.487 -0.0734  0.0054  0.0534
 1909SOL    HW1 9319   2.412  10.163   6.440  0.7268  0.9507  0.6840
 1909SOL    HW2 9320   2.535  10.133   6.523  0.4140 -1.2176  0.4188
 1910SOL     OW 9321   0.645   5.528   4.225 -0.4052 -0.4602 -0.3656
 1910SOL    HW1 9322   0.666   5.547   4.316 -2.1319 -0.5569  0.0885
 1910SOL    HW2 9323   0.655   5.433   4.217 -0.8165 -0.5284 -0.1052
 1911SOL     OW 9324   7.380   5.336   2.608 -0.2426  0.0387 -0.2130
 1911SOL    HW1 9325   7.326   5.388   2.548 -0.7368  0.5951  0.6859
 1911SOL    HW2 9326   7.434   5.401   2.654 -0.4465 -0.2949  0.5078
 1912SOL     OW 9327   1.570   2.645   7.976  0.0009  0.5107  0.2390
 1912SOL    HW1 9328   1.566   2.586   8.052 -0.3452  1.0000  0.6104
 1912SOL    HW2 9329   1.657   2.632   7.940  0.5003  0.9166  1.2566
 1913SOL     OW 9330   3.971   8.187   6.264 -0.2762  0.1226 -1.0280
 1913SOL    HW1 9331   3.959   8.103   6.307  1.6188  0.3615  0.0397
 1913SOL    HW2 9332   3.895   8.239   6.291 -0.5822 -0.6749 -0.3130
 1914SOL     OW 9333   3.388  10.552   5.767  0.3072  0.2812  0.0015
 1914SOL    HW1 9334   3.393  10.513   5.854 -0.2155  0.2124  0.0018
 1914SOL    HW2 9335   3.327  10.496   5.719  0.8605  0.1145 -0.5154
 1915SOL     OW 9336   0.935   7.324  11.027 -0.3096 -0.0663  0.2089
 1915SOL    HW1 9337   0.903   7.271  11.100 -2.9487 -0.3112 -1.0036
 1915SOL    HW2 9338   0.957   7.260  10.959  1.5451  0.1930  0.5094
 1916SOL     OW 9339   4.168   8.711  10.101  0.4624 -0.1991  0.1007
 1916SOL    HW1 9340   4.083   8.754  10.096  0.2559 -0.5523  0.5279
 1916SOL    HW2 9341   4.173   8.660  10.019 -0.0385 -0.7140  0.3764
 1917SOL     OW 9342   5.528   0.493   0.301  0.6741 -0.1495 -0.3441
 1917SOL    HW1 9343   5.589   0.456   0.364  1.2056  0.1400 -0.6817
 1917SOL    HW2 9344   5.530   0.433   0.227  0.8155  0.0468 -0.4997
 1918SOL     OW 9345   3.756  10.684   3.505  0.3577 -0.0009  0.1065
 1918SOL    HW1 9346   3.735  10.640   3.587 -1.7328  1.0717  0.2244
 1918SOL    HW2 9347   3.841  10.648   3.479  0.4992 -1.2565  2.0939
 1919SOL     OW 9348   5.869   2.726   1.889 -0.4187 -0.4703 -0.2582
 1919SOL    HW1 9349   5.952   2.720   1.935 -0.8322  2.1435  1.0518
 1919SOL    HW2 9350   5.804   2.701   1.955 -0.8620  1.0064 -0.1023
 1920SOL     OW 9351   9.684   9.903   6.050 -0.2956  0.0443 -0.0606
 1920SOL    HW1 9352   9.720   9.865   5.970  0.6493  1.3187 -0.2619
 1920SOL    HW2 9353   9.708   9.841   6.119 -1.5258 -1.3039 -0.7920
 1921SOL     OW 9354   3.012  10.360   2.691  0.5491 -0.2194  0.0250
 1921SOL    HW1 9355   2.980  10.450   2.693 -2.0196 -1.0441 -0.2971
 1921SOL    HW2 9356   3.093  10.364   2.640  0.5818  1.9086  0.1836
 1922SOL     OW 9357  10.603   5.567   2.828 -0.2992 -0.2758  0.1891
 1922SOL    HW1 9358  10.609   5.489   2.883 -0.2589 -0.6030 -0.2781
 1922SOL    HW2 9359  10.583   5.534   2.741  1.6227  0.0761 -0.4361
 1923SOL     OW 9360   9.617   6.385   1.239 -0.2248  0.5805  0.0943
 1923SOL    HW1 9361   9.528   6.400   1.205 -0.3296  1.5844  0.7746
 1923SOL    HW2 9362   9.671   6.450   1.194 -0.2372  1.4370  1.2898
 1924SOL     OW 9363   1.450   0.350   0.644  0.3105  0.5150 -0.7567
 1924SOL    HW1 9364   1.443   0.266   0.688  2.4511 -0.1481 -1.5582
 1924SOL    HW2 9365   1.373   0.399   0.674 -1.5443 -2.0269 -1.0275
 1925SOL     OW 9366  10.372  10.230   8.088  0.2372 -0.4234  0.1905
 1925SOL    HW1 9367  10.382  10.174   8.166  1.4264 -0.4519  0.0405
 1925SOL    HW2 9368  10.340  10.313   8.123 -1.0261 -1.0032  0.4791
 1926SOL     OW 9369   9.492   7.371   1.574 -0.1876  0.1437 -0.0714
 1926SOL    HW1 9370   9.483   7.356   1.480 -0.5226  0.5164 -0.1003
 1926SOL    HW2 9371   9.405   7.354   1.610 -0.3827  1.2336 -0.0019
 1927SOL     OW 9372  10.618   8.634   4.141  0.4627 -0.6012  0.4163
 1927SOL    HW1 9373  10.611   8.729   4.133 -1.3100 -0.3586  3.5777
 1927SOL    HW2 9374  10.580   8.601   4.059 -0.6164  1.3914  0.0456
 1928SOL     OW 9375   6.778   6.245   7.638 -0.3270 -0.2989 -0.5305
 1928SOL    HW1 9376   6.744   6.168   7.592  0.2746 -0.9936  0.1580
 1928SOL    HW2 9377   6.819   6.297   7.570 -2.7856  0.6277 -1.4243
 1929SOL     OW 9378  10.343   8.898   1.361 -0.4176 -0.1326 -0.2061
 1929SOL    HW1 9379  10.309   8.811   1.380 -1.2821  0.3311  0.4648
 1929SOL    HW2 9380  10.434   8.884   1.336  0.0180 -1.0981  1.6994
 1930SOL     OW 9381   3.732   1.731   8.803  0.3588  0.0239 -0.0028
 1930SOL    HW1 9382   3.670   1.775   8.744 -1.9807 -1.9008  0.8434
 1930SOL    HW2 9383   3.735   1.641   8.772 -0.2250 -0.8147  2.2003
 1931SOL     OW 9384   6.462   9.045   6.276 -0.2652 -0.2204  0.5569
 1931SOL    HW1 9385   6.470   9.044   6.371  0.7212 -0.2737  0.4817
 1931SOL    HW2 9386   6.520   8.975   6.246 -1.1214 -0.6853 -0.0514
 1932SOL     OW 9387   3.726   2.406  10.394 -0.4242 -0.6006  0.1278
 1932SOL    HW1 9388   3.772   2.462  10.332  0.2883 -1.1235  0.1777
 1932SOL    HW2 9389   3.772   2.419  10.477 -1.4012  0.1336  0.5852
 1933SOL     OW 9390   8.538  10.039   2.655  0.3684  0.5224  0.1243
 1933SOL    HW1 9391   8.624  10.051   2.694  0.6206  1.2033 -0.6204
 1933SOL    HW2 9392   8.477  10.051   2.727  0.9254 -2.1035  1.1542
 1934SOL     OW 9393   2.902   4.362   1.240 -0.0427  0.0522 -0.2852
 1934SOL    HW1 9394   2.891   4.457   1.246  2.3409  0.3427  1.0360
 1934SOL    HW2 9395   2.852   4.327   1.314  0.0885  0.4207 -0.0160
 1935SOL     OW 9396   9.350   7.930   8.533  0.4095  0.5421  0.2484
 1935SOL    HW1 9397   9.331   7.985   8.609 -0.7061 -0.5829  0.8252
 1935SOL    HW2 9398   9.296   7.852   8.546  0.8135 -0.0295 -1.3000
 1936SOL     OW 9399   5.006   3.658   2.414 -0.4997  0.1716 -0.5133
 1936SOL    HW1 9400   4.925   3.643   2.462 -0.7955  1.0491 -0.7123
 1936SOL    HW2 9401   4.980   3.665   2.322 -0.8221  4.0063 -0.3194
 1937SOL     OW 9402   6.325   2.489   9.408  0.6652  0.1538 -0.5528
 1937SOL    HW1 9403   6.378   2.416   9.376 -1.4916 -3.1488  2.6301
 1937SOL    HW2 9404   6.377   2.526   9.479  0.4734 -0.3485 -0.1465
 1938SOL     OW 9405   0.069   7.311  10.378  0.7493  0.0791  0.2268
 1938SOL    HW1 9406   0.051   7.360  10.298  1.5711  0.3851  0.2297
 1938SOL    HW2 9407   0.036   7.367  10.448  0.7564  0.1663  0.1616
 1939SOL     OW 9408   0.949   3.392   0.555  0.3240  0.4270 -0.0684
 1939SOL    HW1 9409   0.874   3.449   0.572  1.2074  2.0248 -1.2769
 1939SOL    HW2 9410   0.927   3.347   0.474  0.5054  0.5850 -0.2041
 1940SOL     OW 9411   6.544  10.453   8.589 -0.0722  0.1223  0.8394
 1940SOL    HW1 9412   6.631  10.413   8.590  0.7817  1.7623 -1.3152
 1940SOL    HW2 9413   6.558  10.541   8.623 -0.4184  1.1044 -1.3908
 1941SOL     OW 9414   3.908   0.183   2.794 -0.0592  0.6723 -0.1699
 1941SOL    HW1 9415   3.973   0.132   2.841 -0.2711 -0.7558 -1.3588
 1941SOL    HW2 9416   3.956   0.219   2.719  0.4387  3.4452  1.3244
 1942SOL     OW 9417   3.395   4.642   3.070 -0.4799 -0.3115  0.5730
 1942SOL    HW1 9418   3.445   4.714   3.032  0.3124 -1.6291 -1.0459
 1942SOL    HW2 9419   3.448   4.564   3.053 -2.8709 -1.7660 -0.9929
 1943SOL     OW 9420   4.594   0.586   0.634 -0.8099 -0.6819  0.3264
 1943SOL    HW1 9421   4.680   0.591   0.675 -0.6020 -1.7769  0.0691
 1943SOL    HW2 9422   4.538   0.641   0.688  0.0859  0.1880  0.3908
 1944SOL     OW 9423   5.463   4.006   6.334  0.0541  0.2665  0.1289
 1944SOL    HW1 9424   5.510   3.940   6.384 -0.5916  0.0356  0.4366
 1944SOL    HW2 9425   5.371   3.981   6.340 -0.0867  0.4969 -0.7858
 1945SOL     OW 9426   3.335  10.919   3.371  0.3914  0.2520 -0.3338
 1945SOL    HW1 9427   3.326  10.982   3.443  1.5618 -1.4202  1.3839
 1945SOL    HW2 9428   3.429  10.902   3.366  0.3643  0.5295 -2.4978
 1946SOL     OW 9429   9.495   4.108   4.433  0.1816  0.3949 -0.2543
 1946SOL    HW1 9430   9.508   4.071   4.521 -2.0784 -1.0730 -0.4290
 1946SOL    HW2 9431   9.466   4.198   4.449  1.2008  0.6151  0.4224
 1947SOL     OW 9432   4.630   7.669  10.283  0.1806 -0.2906 -0.0840
 1947SOL    HW1 9433   4.686   7.745  10.301 -1.2346  0.6093  0.7288
 1947SOL    HW2 9434   4.613   7.675  10.189  1.0060 -0.2779 -0.2420
 1948SOL     OW 9435   0.610   0.630   6.877  0.1335  0.2532 -0.0942
 1948SOL    HW1 9436   0.539   0.588   6.828 -0.1042 -0.6141  0.9728
 1948SOL    HW2 9437   0.689   0.612   6.825  0.2401 -2.5714  0.8542
 1949SOL     OW 9438   6.232   3.284   6.183 -0.4664  0.4039  0.3607
 1949SOL    HW1 9439   6.197   3.198   6.204 -0.1227  0.1875  0.0766
 1949SOL    HW2 9440   6.161   3.329   6.138 -0.3807 -0.0360 -0.2283
 1950SOL     OW 9441   3.944  10.415   6.496  0.0698 -0.2784  0.1318
 1950SOL    HW1 9442   4.011  10.381   6.436  0.9204  1.5652 -0.0221
 1950SOL    HW2 9443   3.945  10.509   6.482 -0.6248  0.0705  2.1557
 1951SOL     OW 9444   4.817   1.529   3.693  0.2014  0.3105 -0.6282
 1951SOL    HW1 9445   4.807   1.562   3.783  1.8138  0.5950 -0.5145
 1951SOL    HW2 9446   4.728   1.510   3.664 -0.5584  2.2431  0.2689
 1952SOL     OW 9447   7.147   8.829   3.459  0.1679  0.2860  0.2003
 1952SOL    HW1 9448   7.159   8.849   3.552  0.3450 -1.8860  0.6959
 1952SOL    HW2 9449   7.168   8.911   3.414  0.8531  1.1603  2.0163
 1953SOL     OW 9450   7.708   4.190   5.625  0.0634  0.0536 -0.7101
 1953SOL    HW1 9451   7.785   4.150   5.664  0.2603  1.2488  0.1718
 1953SOL    HW2 9452   7.742   4.259   5.568 -0.3654  1.3976  0.6232
 1954SOL     OW 9453   8.297   6.010   6.562  0.1520  0.3661  0.0093
 1954SOL    HW1 9454   8.332   6.024   6.474  1.8110  3.6350  1.0097
 1954SOL    HW2 9455   8.214   5.965   6.548 -0.3869  2.0583 -3.3659
 1955SOL     OW 9456   3.840   5.897   9.348  0.3111  0.3206  0.3776
 1955SOL    HW1 9457   3.797   5.943   9.420  1.1658  0.1675  1.0021
 1955SOL    HW2 9458   3.843   5.806   9.376 -0.0763  0.1126 -0.2227
 1956SOL     OW 9459   3.242   0.668   1.697 -0.2950  0.2283  0.2668
 1956SOL    HW1 9460   3.168   0.661   1.758 -1.1203 -0.4788 -0.7676
 1956SOL    HW2 9461   3.246   0.761   1.674  0.2848  0.5683  1.6893
 1957SOL     OW 9462   0.175   7.649   0.090  0.5185  0.7328  0.1223
 1957SOL    HW1 9463   0.250   7.625   0.034  1.5894  0.4279  1.6252
 1957SOL    HW2 9464   0.103   7.596   0.056  1.9244 -1.9715  1.0217
 1958SOL     OW 9465   8.607   9.263   6.443  0.1361 -0.0867 -0.2136
 1958SOL    HW1 9466   8.589   9.210   6.365 -0.3620  0.7588 -0.6935
 1958SOL    HW2 9467   8.521   9.276   6.483  0.2454  0.4016 -0.1335
 1959SOL     OW 9468   2.127   4.665   5.330 -0.2184 -0.0714  0.2346
 1959SOL    HW1 9469   2.104   4.748   5.287 -0.7627 -1.1046 -1.5986
 1959SOL    HW2 9470   2.044   4.631   5.363 -0.3224 -0.7787 -0.7255
 1960SOL     OW 9471   9.178   7.493   3.567  0.1339 -0.2125  0.4282
 1960SOL    HW1 9472   9.129   7.470   3.646  2.2776  1.1522  2.2455
 1960SOL    HW2 9473   9.204   7.584   3.580  0.3251  0.1347 -2.0031
 1961SOL     OW 9474   2.163   0.134   9.396 -0.2821  0.4542  0.2367
 1961SOL    HW1 9475   2.211   0.216   9.408  1.4747 -0.4806 -0.1190
 1961SOL    HW2 9476   2.076   0.152   9.432  0.7371  1.7636  2.1967
 1962SOL     OW 9477   7.844   5.482   9.288 -0.2925 -0.2768 -0.0545
 1962SOL    HW1 9478   7.783   5.555   9.275 -0.1538 -0.3578 -1.3783
 1962SOL    HW2 9479   7.878   5.465   9.200  0.9445 -0.8374  0.5111
 1963SOL     OW 9480   6.044   0.168   2.754 -0.1797 -0.7882 -0.3495
 1963SOL    HW1 9481   6.080   0.191   2.669  0.4599 -2.4125 -0.5498
 1963SOL    HW2 9482   5.966   0.224   2.763  2.0462  2.5238 -0.0686
 1964SOL     OW 9483   1.800   6.972   6.548  0.1025  0.0266  0.2083
 1964SOL    HW1 9484   1.763   7.037   6.609  1.8310  0.3076  1.0148
 1964SOL    HW2 9485   1.756   6.990   6.465  2.0411  3.7978 -0.2164
 1965SOL     OW 9486   3.702   1.148  10.349 -0.2345  1.0936 -0.1824
 1965SOL    HW1 9487   3.626   1.203  10.329 -0.8576  0.0522 -0.7577
 1965SOL    HW2 9488   3.732   1.117  10.263  0.9691  1.6345  0.0213
 1966SOL     OW 9489   4.550   7.997   1.923 -0.2441 -0.3136  0.0478
 1966SOL    HW1 9490   4.559   8.074   1.868  0.9216  1.1838  2.1667
 1966SOL    HW2 9491   4.593   7.927   1.874  1.4455  1.1253 -0.6664
 1967SOL     OW 9492   5.159  10.876   6.800  0.4996 -0.2184  0.5371
 1967SOL    HW1 9493   5.097  10.846   6.734  0.3393 -0.1446  0.6528
 1967SOL    HW2 9494   5.109  10.940   6.852  1.1182  0.9911 -0.3075
 1968SOL     OW 9495   6.798   4.546   9.862 -0.0253 -0.4178 -0.1108
 1968SOL    HW1 9496   6.819   4.515   9.950 -1.3121  0.1784  0.4422
 1968SOL    HW2 9497   6.808   4.469   9.806  0.9573 -0.7705  0.5228
 1969SOL     OW 9498  10.720   8.631   0.853  0.2853 -0.2106 -0.5868
 1969SOL    HW1 9499  10.653   8.644   0.920  1.9992  1.3591  0.9345
 1969SOL    HW2 9500  10.682   8.565   0.794 -1.2874 -1.7125  1.9230
 1970SOL     OW 9501   4.179   3.474   5.578  0.1016  0.2521 -0.3084
 1970SOL    HW1 9502   4.175   3.501   5.670  0.7797  2.0905 -0.7709
 1970SOL    HW2 9503   4.273   3.477   5.557 -0.0393 -0.2670 -1.0279
 1971SOL     OW 9504  10.147   8.204   6.612 -0.1111 -0.2616  0.2076
 1971SOL    HW1 9505  10.070   8.260   6.604  0.3128  0.3868  0.5137
 1971SOL    HW2 9506  10.141   8.143   6.538 -0.4939  0.3059 -0.2397
 1972SOL     OW 9507   0.524   1.094   8.204 -0.1332 -0.3624 -0.4420
 1972SOL    HW1 9508   0.576   1.158   8.253  0.0170 -0.6134 -0.2777
 1972SOL    HW2 9509   0.526   1.015   8.258  0.9097 -0.9762 -1.3511
 1973SOL     OW 9510   1.120   2.806   8.215  0.5134 -0.2873 -0.6890
 1973SOL    HW1 9511   1.067   2.874   8.174 -0.8142 -0.9580 -0.1406
 1973SOL    HW2 9512   1.195   2.854   8.250 -1.4067  1.3511  1.5852
 1974SOL     OW 9513   1.037   2.873   6.874 -0.1145 -0.0555  0.5593
 1974SOL    HW1 9514   1.060   2.863   6.966 -0.1334  0.6642  0.6492
 1974SOL    HW2 9515   1.034   2.784   6.840 -1.8401 -0.4687  1.6584
 1975SOL     OW 9516   2.303   1.302   8.914 -0.3835  0.3497 -0.6012
 1975SOL    HW1 9517   2.382   1.272   8.959 -0.8400  0.4396  0.2646
 1975SOL    HW2 9518   2.328   1.385   8.874  0.2630 -0.1252 -1.2271
 1976SOL     OW 9519   0.267   4.990   5.321  0.1937 -0.3819 -0.4858
 1976SOL    HW1 9520   0.282   4.995   5.227  0.3011 -3.4765 -0.7515
 1976SOL    HW2 9521   0.342   5.034   5.360  0.5197  0.3027 -1.8283
 1977SOL     OW 9522  11.062   9.474   4.982 -0.3363  0.2482 -0.0702
 1977SOL    HW1 9523  11.078   9.536   4.911  1.9733 -0.2994 -0.0766
 1977SOL    HW2 9524  11.133   9.410   4.976 -0.6510 -0.3876  2.0991
 1978SOL     OW 9525   6.115   4.924   4.048 -0.4695  0.2662 -0.4685
 1978SOL    HW1 9526   6.199   4.878   4.045 -0.3674  0.3882  0.2836
 1978SOL    HW2 9527   6.062   4.872   4.108 -0.1340  1.4512  0.9243
 1979SOL     OW 9528   0.748   1.705   2.750 -0.5438 -0.0414  0.1168
 1979SOL    HW1 9529   0.743   1.634   2.686 -0.9523 -1.6915  1.8826
 1979SOL    HW2 9530   0.704   1.670   2.828  0.5176  1.6207  1.5336
 1980SOL     OW 9531   0.070   0.065   1.199 -0.1623 -0.0026  0.2163
 1980SOL    HW1 9532   0.094  -0.027   1.212 -0.1317 -0.2004 -1.0645
 1980SOL    HW2 9533   0.139   0.100   1.142 -0.1834  0.8194  0.6719
 1981SOL     OW 9534   4.121   4.446   4.143  0.1934 -0.5523  0.3288
 1981SOL    HW1 9535   4.181   4.405   4.080 -0.1463  0.5579 -0.7661
 1981SOL    HW2 9536   4.113   4.536   4.112 -1.4679 -0.4876  0.8851
 1982SOL     OW 9537   3.642   2.327   3.099 -0.8652 -0.7195 -0.1508
 1982SOL    HW1 9538   3.597   2.302   3.018 -0.8827 -0.3642 -0.2491
 1982SOL    HW2 9539   3.624   2.420   3.109  0.0857 -0.5079 -0.3344
 1983SOL     OW 9540   0.418   9.228   9.963  0.0938  0.9515 -0.7144
 1983SOL    HW1 9541   0.353   9.276   9.911  1.2128  1.2912 -1.8523
 1983SOL    HW2 9542   0.471   9.296  10.004  0.6651  0.6836 -1.0059
 1984SOL     OW 9543   1.024   4.732   7.658  0.5362  0.2276 -0.2274
 1984SOL    HW1 9544   1.038   4.644   7.624  0.6657  0.3244 -0.4334
 1984SOL    HW2 9545   1.110   4.774   7.652  0.6940  0.0658  0.7749
 1985SOL     OW 9546   3.448   1.401   5.483 -0.7406  0.3623 -0.3904
 1985SOL    HW1 9547   3.459   1.314   5.445 -2.1076  0.0634 -0.1276
 1985SOL    HW2 9548   3.536   1.440   5.479 -0.6431  0.0472 -3.0611
 1986SOL     OW 9549   9.562   6.266   3.956  0.7173  0.0875 -0.1064
 1986SOL    HW1 9550   9.547   6.187   4.007 -0.7355  0.8066  0.6189
 1986SOL    HW2 9551   9.498   6.329   3.988  0.1969  0.7976 -2.3354
 1987SOL     OW 9552   1.749   5.557   3.002 -0.1911 -0.1005  0.0624
 1987SOL    HW1 9553   1.754   5.512   2.918  0.5482 -0.4063  0.2571
 1987SOL    HW2 9554   1.743   5.650   2.979 -1.2896 -0.2654 -0.3339
 1988SOL     OW 9555   0.797   4.112   3.589 -0.6846  0.5485 -0.2116
 1988SOL    HW1 9556   0.877   4.115   3.537 -1.0540  0.8723 -0.7666
 1988SOL    HW2 9557   0.778   4.204   3.611 -0.6498  0.4353  0.3153
 1989SOL     OW 9558   5.486   2.098   3.639 -0.4154  0.1878  0.1425
 1989SOL    HW1 9559   5.397   2.063   3.634 -1.0149  1.5349  0.8562
 1989SOL    HW2 9560   5.539   2.034   3.592 -1.8316 -0.4015 -0.7403
 1990SOL     OW 9561   4.490   0.110   2.331 -0.2275  0.0928  0.0713
 1990SOL    HW1 9562   4.532   0.027   2.310 -0.1918  0.0427  0.3424
 1990SOL    HW2 9563   4.541   0.176   2.284 -0.2844 -0.0431 -0.1814
 1991SOL     OW 9564  10.053  11.004   3.218 -0.0982  0.2059 -0.2168
 1991SOL    HW1 9565  10.086  11.069   3.280  0.6801  1.2906 -1.7058
 1991SOL    HW2 9566   9.960  10.994   3.240  0.0496  0.9498  0.7822
 1992SOL     OW 9567   7.756   4.461  10.586 -0.3982  0.1803 -0.1203
 1992SOL    HW1 9568   7.760   4.508  10.669  0.6058  0.7617 -0.4838
 1992SOL    HW2 9569   7.839   4.482  10.542  0.0172 -1.7487 -0.3876
 1993SOL     OW 9570   9.217  10.694   8.651 -0.0135  0.4382 -0.2676
 1993SOL    HW1 9571   9.268  10.668   8.575  0.1621  0.4654 -0.1605
 1993SOL    HW2 9572   9.242  10.785   8.667 -0.1929  0.4919 -0.2939
 1994SOL     OW 9573  10.770   6.865   9.785  0.3235 -0.3590  0.1880
 1994SOL    HW1 9574  10.715   6.801   9.831  0.1088 -0.8595 -0.7255
 1994SOL    HW2 9575  10.768   6.943   9.840 -0.3100 -0.7797  0.7809
 1995SOL     OW 9576   7.249   2.031   1.702 -0.2753 -0.5606  0.3987
 1995SOL    HW1 9577   7.207   2.024   1.617  1.6112 -1.1424 -0.5347
 1995SOL    HW2 9578   7.211   1.960   1.754  1.0095 -2.4635 -1.1096
 1996SOL     OW 9579   4.504   5.781   0.254  0.4879  0.2413  0.2371
 1996SOL    HW1 9580   4.463   5.720   0.315 -0.1827  1.1301  0.6981
 1996SOL    HW2 9581   4.581   5.813   0.300  0.7965 -0.1934  0.0260
 1997SOL     OW 9582   7.270  10.761   8.811 -0.5579 -0.2490  0.2372
 1997SOL    HW1 9583   7.310  10.719   8.887  0.3718  0.7348  0.3167
 1997SOL    HW2 9584   7.236  10.844   8.844  1.2257  0.9140 -0.6732
 1998SOL     OW 9585   4.017  10.607   2.463  0.0493  0.0447  0.2454
 1998SOL    HW1 9586   4.014  10.578   2.555 -0.1268  0.6113  0.4189
 1998SOL    HW2 9587   3.968  10.539   2.416  3.8215 -2.7431 -0.1298
 1999SOL     OW 9588   2.934   8.852   8.281 -0.1892 -0.0228 -0.2241
 1999SOL    HW1 9589   2.881   8.931   8.297  0.2913  0.2154  0.2282
 1999SOL    HW2 9590   2.994   8.848   8.356  0.5574 -0.1810 -0.8224
 2000SOL     OW 9591   6.696   5.847   7.705  0.3166  0.4454  0.3845
 2000SOL    HW1 9592   6.662   5.912   7.644 -2.3846 -0.0102  1.2897
 2000SOL    HW2 9593   6.780   5.821   7.667 -0.1187  1.9433 -1.8062
 2001SOL     OW 9594   0.474   6.638   0.161  1.1850 -0.0766  0.8078
 2001SOL    HW1 9595   0.502   6.662   0.073 -0.2497  2.1445  0.8839
 2001SOL    HW2 9596   0.525   6.696   0.219  2.0920 -1.4849  1.4937
 2002SOL     OW 9597   3.771   8.094   4.986  0.0483  0.7172 -0.0787
 2002SOL    HW1 9598   3.862   8.073   5.011  0.3595  0.6499 -1.2145
 2002SOL    HW2 9599   3.772   8.187   4.967 -0.4471  1.0038  1.2045
 2003SOL     OW 9600   6.014   6.335   9.347 -0.0390 -0.3190 -0.5487
 2003SOL    HW1 9601   5.971   6.321   9.262 -0.8142 -1.1607 -0.0449
 2003SOL    HW2 9602   6.066   6.414   9.335  0.2475 -0.6921 -1.9567
 2004SOL     OW 9603   2.164   6.012  10.109 -0.0222  0.0091 -0.0128
 2004SOL    HW1 9604   2.117   6.012  10.026 -0.4102  0.2744  0.2034
 2004SOL    HW2 9605   2.103   6.052  10.171  1.0010  1.7404 -0.0391
 2005SOL     OW 9606  10.377   8.117   7.866 -0.1941 -0.3689 -0.4149
 2005SOL    HW1 9607  10.461   8.095   7.827 -1.2314 -0.6359 -2.6505
 2005SOL    HW2 9608  10.320   8.044   7.842 -1.3245  0.2646  0.2398
 2006SOL     OW 9609   9.645   8.034   8.085 -0.2197 -0.3030 -0.6434
 2006SOL    HW1 9610   9.665   7.967   8.151 -1.1916  0.1450  0.1550
 2006SOL    HW2 9611   9.550   8.044   8.091 -0.1136  0.9925 -0.8940
 2007SOL     OW 9612   8.260   6.534   7.329  0.2310 -0.2467 -0.6083
 2007SOL    HW1 9613   8.216   6.450   7.341  0.8451 -0.4809  0.0973
 2007SOL    HW2 9614   8.222   6.591   7.396  0.1386 -0.0917 -0.7918
 2008SOL     OW 9615   1.375   4.905   9.738 -0.3031 -0.1045  0.1143
 2008SOL    HW1 9616   1.350   4.975   9.677 -0.3429 -0.5905 -0.4400
 2008SOL    HW2 9617   1.406   4.951   9.816 -0.3240  0.5297 -0.2427
 2009SOL     OW 9618   0.704   1.263   4.448  0.3232 -0.4219  0.1421
 2009SOL    HW1 9619   0.721   1.198   4.380 -0.6720  0.7545 -1.3143
 2009SOL    HW2 9620   0.791   1.295   4.473  0.6636  0.4200 -1.9352
 2010SOL     OW 9621   5.088   7.567   9.027 -0.7393  0.3336  0.3088
 2010SOL    HW1 9622   5.006   7.520   9.011 -1.5024  1.2868  1.2589
 2010SOL    HW2 9623   5.079   7.648   8.977 -0.1245  0.2018 -0.0254
 2011SOL     OW 9624   2.227   1.187   8.247  0.2650 -0.0010  0.6703
 2011SOL    HW1 9625   2.182   1.252   8.193  0.2784  0.1601  0.8512
 2011SOL    HW2 9626   2.261   1.123   8.185 -1.6387 -1.0307  0.6255
 2012SOL     OW 9627   3.624   1.562   4.102 -0.0671 -0.0028  0.3451
 2012SOL    HW1 9628   3.659   1.646   4.133  1.6578 -1.3608  2.3106
 2012SOL    HW2 9629   3.675   1.543   4.023 -0.7515  0.9460 -0.3525
 2013SOL     OW 9630   5.612   9.015   6.947  0.2622 -0.1991  0.1678
 2013SOL    HW1 9631   5.616   9.086   7.010 -1.3700  0.7129 -0.6679
 2013SOL    HW2 9632   5.538   9.037   6.891 -0.0690 -2.3767 -0.3656
 2014SOL     OW 9633   3.403   1.270   3.046 -0.3721 -0.4550  0.7407
 2014SOL    HW1 9634   3.418   1.317   3.128  1.6602  0.5671 -0.1299
 2014SOL    HW2 9635   3.490   1.240   3.019 -1.1022 -1.4561 -0.6426
 2015SOL     OW 9636   3.920   4.830   0.406 -0.1294  0.1993  0.0258
 2015SOL    HW1 9637   3.963   4.745   0.416 -0.6388 -0.0062  0.5209
 2015SOL    HW2 9638   3.981   4.882   0.352  0.4784 -0.2596  0.2633
 2016SOL     OW 9639   8.394   6.790   1.918 -0.5274  0.3670 -0.2410
 2016SOL    HW1 9640   8.468   6.794   1.858 -0.5982 -1.4484 -0.4976
 2016SOL    HW2 9641   8.413   6.716   1.975 -1.2139  1.0995  0.9886
 2017SOL     OW 9642   7.815  11.038   0.289 -0.0352 -0.3745 -0.3785
 2017SOL    HW1 9643   7.727  11.061   0.257 -0.7765 -1.1842  0.9481
 2017SOL    HW2 9644   7.800  11.007   0.378  1.7565  0.4848  0.2626
 2018SOL     OW 9645  10.099   3.587   8.038 -0.2211  0.0119  0.1164
 2018SOL    HW1 9646  10.114   3.649   8.110  0.4154 -0.3147  0.2794
 2018SOL    HW2 9647  10.149   3.510   8.063  1.6390  0.5755 -1.5607
 2019SOL     OW 9648   1.800   9.626   2.731 -0.1400  0.0663 -0.3114
 2019SOL    HW1 9649   1.872   9.570   2.703 -0.0909 -0.3216  0.5887
 2019SOL    HW2 9650   1.773   9.592   2.816 -1.0099  0.5624 -0.3684
 2020SOL     OW 9651   6.652   2.561   4.439  0.5584 -0.6114 -0.1281
 2020SOL    HW1 9652   6.716   2.549   4.369  0.7078 -0.5287 -0.0067
 2020SOL    HW2 9653   6.571   2.586   4.394  0.8607  0.2273 -0.2149
 2021SOL     OW 9654   9.774   4.421   0.385  0.3541 -0.0927  0.0510
 2021SOL    HW1 9655   9.693   4.419   0.437  0.0465 -0.1502 -0.4227
 2021SOL    HW2 9656   9.830   4.355   0.426 -0.4479 -1.1934 -0.5656
 2022SOL     OW 9657   5.157   0.381   2.505  0.1968 -0.6730  0.6901
 2022SOL    HW1 9658   5.228   0.337   2.458 -0.3590 -2.6687  1.6254
 2022SOL    HW2 9659   5.196   0.410   2.587  0.3817 -0.0418  0.3860
 2023SOL     OW 9660   0.749   7.003   5.950  0.0515  0.0007 -0.1361
 2023SOL    HW1 9661   0.675   7.063   5.945 -0.4441 -0.6141 -0.3152
 2023SOL    HW2 9662   0.719   6.933   6.008 -0.3851 -1.4515 -2.0406
 2024SOL     OW 9663   1.397   5.824   9.080 -0.3432 -0.1376  0.2870
 2024SOL    HW1 9664   1.461   5.754   9.094  0.2516  0.5245  0.9827
 2024SOL    HW2 9665   1.409   5.850   8.989  0.5874  0.1654  0.4878
 2025SOL     OW 9666   8.255   1.263   1.364 -0.1587 -0.0373  0.0972
 2025SOL    HW1 9667   8.347   1.282   1.344  0.0818 -0.7979  0.4551
 2025SOL    HW2 9668   8.248   1.279   1.458 -0.3289 -0.2560  0.1205
 2026SOL     OW 9669   9.306   0.593   4.829 -0.4323  0.3517  0.4631
 2026SOL    HW1 9670   9.277   0.656   4.895 -1.7953 -1.0210  1.2386
 2026SOL    HW2 9671   9.254   0.515   4.846  0.2958 -0.5692 -1.2812
 2027SOL     OW 9672   0.771   8.418   8.313  0.6284 -0.4339 -0.5761
 2027SOL    HW1 9673   0.727   8.503   8.314 -1.1017 -1.2361 -2.1326
 2027SOL    HW2 9674   0.863   8.439   8.329  0.1309  1.6110  0.0026
 2028SOL     OW 9675   2.489   1.467   2.885  0.2498 -0.3881  0.3951
 2028SOL    HW1 9676   2.526   1.388   2.925 -1.0161 -0.0691  2.3483
 2028SOL    HW2 9677   2.397   1.467   2.913 -0.4083  0.5418 -1.5615
 2029SOL     OW 9678   7.926  10.896   6.907  0.7201  0.1187 -0.3749
 2029SOL    HW1 9679   7.998  10.956   6.924  1.5553 -1.1983  0.9909
 2029SOL    HW2 9680   7.850  10.938   6.947  1.4223  0.0098  1.1465
 2030SOL     OW 9681   6.636   2.428   2.887 -0.1884  0.6474 -0.6102
 2030SOL    HW1 9682   6.637   2.351   2.944 -0.1312  1.0117 -0.1125
 2030SOL    HW2 9683   6.715   2.420   2.833  2.4016  2.6366  2.5331
 2031SOL     OW 9684   2.539   4.236   3.872 -0.2704  0.4420  0.0244
 2031SOL    HW1 9685   2.500   4.260   3.956  0.6411 -0.5487  0.7619
 2031SOL    HW2 9686   2.465   4.209   3.818 -1.0549  2.6315 -0.0694
 2032SOL     OW 9687   6.635   2.988   7.627 -0.7485  0.0556 -0.4279
 2032SOL    HW1 9688   6.670   3.076   7.618  2.1385 -0.8371  0.8369
 2032SOL    HW2 9689   6.628   2.956   7.538  0.6528  0.7108 -0.7968
 2033SOL     OW 9690   8.169   5.474   7.281 -0.0434 -0.4347  0.0871
 2033SOL    HW1 9691   8.248   5.452   7.232  0.2705 -0.8097  0.7491
 2033SOL    HW2 9692   8.101   5.417   7.244  0.2480 -0.8878  0.2316
 2034SOL     OW 9693   6.725  10.381   1.480  0.3239  0.0807  0.0848
 2034SOL    HW1 9694   6.781  10.307   1.457 -0.0727 -1.2088  2.8438
 2034SOL    HW2 9695   6.651  10.376   1.419  2.3882  1.0044 -2.7192
 2035SOL     OW 9696   5.523   8.987   1.674 -0.2314  0.4004  0.3549
 2035SOL    HW1 9697   5.458   8.954   1.612 -0.6712  0.5691  0.7195
 2035SOL    HW2 9698   5.497   8.950   1.758  0.2819  0.2832  0.4713
 2036SOL     OW 9699   3.997  10.662   6.456  0.4679  0.3140  0.5352
 2036SOL    HW1 9700   4.083  10.636   6.491  0.1793 -1.3512  0.0822
 2036SOL    HW2 9701   3.950  10.696   6.533  0.7398 -0.9139  1.2786
 2037SOL     OW 9702   7.512   0.638   6.043 -0.2365  0.2200 -0.2313
 2037SOL    HW1 9703   7.486   0.630   6.134 -2.6855 -0.5635 -0.9407
 2037SOL    HW2 9704   7.465   0.715   6.011  0.2458  0.2201 -0.9682
 2038SOL     OW 9705   6.286   3.050  10.830  0.1612 -0.3355  0.1445
 2038SOL    HW1 9706   6.288   3.137  10.790  0.1670 -0.0038  0.8598
 2038SOL    HW2 9707   6.255   3.065  10.919  1.8091 -0.8520  0.8373
 2039SOL     OW 9708   2.216   7.126   9.227  0.1645 -0.5704 -0.0070
 2039SOL    HW1 9709   2.136   7.075   9.214 -0.2383 -0.6570  2.2789
 2039SOL    HW2 9710   2.203   7.204   9.173 -1.4477 -0.6140  0.2575
 2040SOL     OW 9711   1.663   0.309   7.780 -0.2858 -0.3262 -0.2139
 2040SOL    HW1 9712   1.669   0.336   7.688  1.3887 -1.8543 -0.5941
 2040SOL    HW2 9713   1.627   0.221   7.778 -0.1931 -0.3952  0.5974
 2041SOL     OW 9714  10.772   2.409   8.575 -0.6429 -0.0152  0.1838
 2041SOL    HW1 9715  10.834   2.441   8.640 -0.7445  0.0819  0.2328
 2041SOL    HW2 9716  10.737   2.488   8.533 -1.3674 -0.0269  0.7457
 2042SOL     OW 9717   7.673   1.680  10.391  0.1419 -0.1289  0.3241
 2042SOL    HW1 9718   7.618   1.748  10.429  0.1148 -0.7093  1.3705
 2042SOL    HW2 9719   7.763   1.706  10.411  0.4259  1.4425 -2.4087
 2043SOL     OW 9720   7.530   4.557   3.655  0.2576  0.2627  0.1407
 2043SOL    HW1 9721   7.616   4.597   3.648  0.1707  1.0393  2.5425
 2043SOL    HW2 9722   7.471   4.619   3.611  0.7188  0.4950 -0.1596
 2044SOL     OW 9723   9.081   9.333   7.059  0.1750 -0.4921 -0.0873
 2044SOL    HW1 9724   9.160   9.339   7.006  0.6866  0.1925  0.7172
 2044SOL    HW2 9725   9.113   9.321   7.148 -0.6559 -1.1725  0.1270
 2045SOL     OW 9726   2.447   8.743   0.489  0.7400  0.3351 -0.0412
 2045SOL    HW1 9727   2.478   8.832   0.477  3.0918 -0.6545 -2.1920
 2045SOL    HW2 9728   2.484   8.716   0.574 -1.6508  1.9289  1.6298
 2046SOL     OW 9729   1.627   8.244   3.094 -0.6054  0.4217 -0.4456
 2046SOL    HW1 9730   1.608   8.337   3.087  2.8295  1.2599 -0.3282
 2046SOL    HW2 9731   1.606   8.208   3.008 -1.0055  1.4805 -0.8082
 2047SOL     OW 9732   0.051   7.850   4.788  0.2446 -0.3643  0.2661
 2047SOL    HW1 9733  -0.039   7.875   4.808  0.5851  0.4107  0.8864
 2047SOL    HW2 9734   0.046   7.807   4.703 -0.7952 -0.8691  0.5704
 2048SOL     OW 9735   9.331   1.859   3.628 -0.0394  0.0572  0.3465
 2048SOL    HW1 9736   9.252   1.898   3.592  2.2510  2.3763 -2.6914
 2048SOL    HW2 9737   9.328   1.767   3.600 -0.4915  0.7413 -2.0958
 2049SOL     OW 9738   6.131   7.440   0.318 -0.4043  0.0393  0.4016
 2049SOL    HW1 9739   6.135   7.529   0.353 -2.1241  0.5393 -0.5053
 2049SOL    HW2 9740   6.110   7.385   0.393  1.3695  0.2680  1.1016
 2050SOL     OW 9741   0.260   9.021   0.855 -0.3300 -0.2867 -0.8385
 2050SOL    HW1 9742   0.338   9.059   0.896 -1.0972  0.9672 -0.5004
 2050SOL    HW2 9743   0.277   9.029   0.761  1.1482 -2.5880 -0.8461
 2051SOL     OW 9744  10.689   0.373   1.530  0.1434  0.0294 -0.6064
 2051SOL    HW1 9745  10.619   0.438   1.531  1.4621  1.5171  0.5712
 2051SOL    HW2 9746  10.681   0.328   1.615  1.3598  1.1130  0.1217
 2052SOL     OW 9747   8.443   2.311   2.150  0.0326 -0.6073 -0.1978
 2052SOL    HW1 9748   8.377   2.376   2.174  0.3170 -0.3970  0.0240
 2052SOL    HW2 9749   8.436   2.243   2.217  1.2301  0.2653  0.8717
 2053SOL     OW 9750   8.038  10.719   6.593  0.1659 -0.5684 -0.6664
 2053SOL    HW1 9751   7.998  10.651   6.539  1.5147 -2.4456  0.5928
 2053SOL    HW2 9752   8.071  10.783   6.530  0.2316 -1.8434 -1.9835
 2054SOL     OW 9753  10.597  10.296   6.855 -0.1000 -0.4573 -0.0991
 2054SOL    HW1 9754  10.687  10.263   6.856  0.3308  0.7013  0.3147
 2054SOL    HW2 9755  10.606  10.388   6.832 -1.2035 -0.3629 -0.1813
 2055SOL     OW 9756   9.554   6.207   3.394 -0.1400  0.2377  0.0035
 2055SOL    HW1 9757   9.603   6.200   3.312 -1.5586 -2.1520 -0.7516
 2055SOL    HW2 9758   9.481   6.265   3.373 -0.7279 -0.6895 -0.6116
 2056SOL     OW 9759  11.004   0.605   3.423  0.0334  0.1763 -0.3543
 2056SOL    HW1 9760  10.983   0.695   3.445  1.5246  0.2277  1.0354
 2056SOL    HW2 9761  11.099   0.599   3.434 -0.0171 -1.5294 -0.5337
 2057SOL     OW 9762   9.737   2.964   8.421  0.2282 -0.6914  0.4414
 2057SOL    HW1 9763   9.737   2.870   8.402  0.6060 -0.7846  0.8798
 2057SOL    HW2 9764   9.649   2.981   8.454  0.1428 -0.8843  0.3195
 2058SOL     OW 9765   6.565   5.129   3.794 -0.2101 -0.2028  0.6707
 2058SOL    HW1 9766   6.649   5.138   3.838 -0.2039 -1.1945  0.8738
 2058SOL    HW2 9767   6.575   5.054   3.735 -0.3590  0.8259 -0.7232
 2059SOL     OW 9768   1.043  10.374   8.732 -0.5792 -0.7713  0.4375
 2059SOL    HW1 9769   1.135  10.354   8.750 -0.4442 -0.4043  0.1510
 2059SOL    HW2 9770   1.045  10.430   8.655 -1.1339 -2.0620 -0.5490
 2060SOL     OW 9771   1.081   6.559   1.260  0.6070 -0.1713  0.0948
 2060SOL    HW1 9772   1.067   6.474   1.218 -2.1855  0.3679 -0.2268
 2060SOL    HW2 9773   1.043   6.550   1.347 -0.8697  1.0891 -0.3880
 2061SOL     OW 9774   6.046   4.244  10.893  1.1695 -0.3130 -0.8871
 2061SOL    HW1 9775   6.068   4.287  10.810  3.9987 -0.3844 -0.2832
 2061SOL    HW2 9776   5.961   4.204  10.877  0.9923  0.8160 -3.2915
 2062SOL     OW 9777   7.619   4.566   1.718 -0.0231 -0.1135 -0.1412
 2062SOL    HW1 9778   7.611   4.487   1.665  0.7144 -0.4904  0.2924
 2062SOL    HW2 9779   7.685   4.619   1.674 -1.3662  0.8408 -1.1047
 2063SOL     OW 9780   2.078   2.793   1.691 -0.1428 -0.6010  0.4232
 2063SOL    HW1 9781   2.128   2.717   1.661 -1.4869 -0.9602 -0.9978
 2063SOL    HW2 9782   2.056   2.773   1.782  0.4662 -1.3863  0.4102
 2064SOL     OW 9783  10.475   6.841   9.996  0.2734  0.4927  0.2144
 2064SOL    HW1 9784  10.445   6.826   9.906  0.6595 -0.0832  0.1742
 2064SOL    HW2 9785  10.453   6.760  10.043  2.5198 -0.3443 -0.0377
 2065SOL     OW 9786   8.159   5.192  10.886  0.2761  0.3112  0.5450
 2065SOL    HW1 9787   8.199   5.277  10.872 -1.7181  1.2253  0.0477
 2065SOL    HW2 9788   8.136   5.190  10.979 -0.0374  0.4908  0.4724
 2066SOL     OW 9789   3.122   7.606   6.525  0.1969 -1.0286  0.3807
 2066SOL    HW1 9790   3.126   7.679   6.588 -0.8983  1.0431 -1.7978
 2066SOL    HW2 9791   3.204   7.613   6.476  0.9918 -2.5604  1.4337
 2067SOL     OW 9792   6.837   7.006  10.830 -0.1008 -0.7580 -0.5198
 2067SOL    HW1 9793   6.853   7.079  10.770  0.6958 -1.2331 -0.9009
 2067SOL    HW2 9794   6.758   6.965  10.797 -0.6635  0.0393 -0.1890
 2068SOL     OW 9795   8.255   5.067  10.647  0.2415 -0.0150  0.0764
 2068SOL    HW1 9796   8.300   5.136  10.599 -0.5207  0.6755  0.3261
 2068SOL    HW2 9797   8.240   5.105  10.734  2.4772 -1.5859  1.2381
 2069SOL     OW 9798   9.638  10.873   0.520 -0.4676 -0.1101  0.0576
 2069SOL    HW1 9799   9.724  10.842   0.548  0.2479  1.4241 -0.3213
 2069SOL    HW2 9800   9.610  10.932   0.591 -1.7609 -1.4985  0.7413
 2070SOL     OW 9801   7.160   9.858   1.285 -0.7621  0.5631  0.0778
 2070SOL    HW1 9802   7.230   9.911   1.245  1.8972  1.1124  4.7858
 2070SOL    HW2 9803   7.176   9.770   1.253  1.8152  0.7894  0.5223
 2071SOL     OW 9804   7.092   0.395   6.021  0.0184 -0.5905  0.3530
 2071SOL    HW1 9805   7.081   0.367   6.112  1.1166  0.6141  0.9020
 2071SOL    HW2 9806   7.184   0.421   6.015 -0.1066 -0.3780 -1.0332
 2072SOL     OW 9807   3.575   7.246   4.442  0.5832 -0.0668 -0.1343
 2072SOL    HW1 9808   3.640   7.185   4.408  0.7120  0.6839 -1.3274
 2072SOL    HW2 9809   3.592   7.327   4.393 -1.4624  0.0547 -0.7491
 2073SOL     OW 9810   6.541   0.585   9.878 -0.2397 -0.6295  0.1772
 2073SOL    HW1 9811   6.484   0.519   9.918 -0.1298 -1.9244 -1.6597
 2073SOL    HW2 9812   6.502   0.601   9.792  1.9797 -1.3573 -1.0409
 2074SOL     OW 9813  10.440   4.716   6.379 -0.2351 -0.0850  0.1572
 2074SOL    HW1 9814  10.399   4.637   6.344  0.8363 -0.4789 -0.2487
 2074SOL    HW2 9815  10.446   4.700   6.474 -1.5943  0.2651  0.3237
 2075SOL     OW 9816   5.741   9.899   4.824  0.3468  0.3071  0.2816
 2075SOL    HW1 9817   5.834   9.912   4.805  0.7269 -0.7834  1.2712
 2075SOL    HW2 9818   5.697   9.909   4.740  1.5723 -0.9120 -0.5366
 2076SOL     OW 9819   2.097   9.865   0.295  0.2574  0.0187  0.8355
 2076SOL    HW1 9820   2.168   9.899   0.240 -0.1109  1.6335  1.2934
 2076SOL    HW2 9821   2.122   9.775   0.313  1.6806  0.2387  0.1454
 2077SOL     OW 9822   4.687   5.685   5.461 -0.8230  0.3065  0.1323
 2077SOL    HW1 9823   4.662   5.651   5.375 -2.4073 -0.0060  0.6951
 2077SOL    HW2 9824   4.616   5.658   5.519  1.6762 -2.3202  2.2741
 2078SOL     OW 9825   5.487   5.100   5.211 -0.2291  0.3336  0.1382
 2078SOL    HW1 9826   5.481   5.195   5.199 -2.3946  0.1127 -1.0807
 2078SOL    HW2 9827   5.519   5.089   5.300  0.0763  2.2138  0.2954
 2079SOL     OW 9828   4.271   8.822   8.444  0.0174 -0.0337 -0.1278
 2079SOL    HW1 9829   4.320   8.860   8.518 -1.0314 -0.4229  0.7938
 2079SOL    HW2 9830   4.220   8.895   8.410 -2.7279 -0.6716  2.2403
 2080SOL     OW 9831   7.800   2.597   3.457 -0.3453  0.1193  0.0446
 2080SOL    HW1 9832   7.866   2.622   3.521 -1.4807  0.8619  0.9753
 2080SOL    HW2 9833   7.844   2.532   3.401  1.8374  2.1416 -0.7393
 2081SOL     OW 9834   7.081   8.183   3.789  0.0560  0.2271 -0.3811
 2081SOL    HW1 9835   7.130   8.167   3.870  0.8742  0.6384 -0.7830
 2081SOL    HW2 9836   6.999   8.221   3.819  0.4810  0.6820  0.2575
 2082SOL     OW 9837   0.355   8.202  10.034  0.9594 -0.6454  0.2156
 2082SOL    HW1 9838   0.377   8.212   9.942 -0.1211  1.7655  0.1432
 2082SOL    HW2 9839   0.272   8.154  10.035  0.5314  0.0696 -0.1446
 2083SOL     OW 9840   5.125   3.778   0.590 -0.6018  0.0432  0.0879
 2083SOL    HW1 9841   5.189   3.721   0.632  0.7649  0.5948 -1.1294
 2083SOL    HW2 9842   5.044   3.727   0.590  0.0820 -1.0958  0.7763
 2084SOL     OW 9843   0.205   7.014   8.770 -0.3326 -0.1276 -0.1560
 2084SOL    HW1 9844   0.159   6.931   8.756  0.9906 -0.9656  0.3469
 2084SOL    HW2 9845   0.250   7.031   8.688 -0.3307 -0.0741 -0.1440
 2085SOL     OW 9846   4.855   1.660   7.934  0.6375  0.3042 -0.7130
 2085SOL    HW1 9847   4.883   1.586   7.880  0.5155  0.4842 -1.0280
 2085SOL    HW2 9848   4.935   1.709   7.951  0.9246 -0.5314  0.4924
 2086SOL     OW 9849   2.664   9.389   4.551 -0.1900 -0.0426 -0.7378
 2086SOL    HW1 9850   2.621   9.313   4.591 -2.4825  0.8178 -1.3852
 2086SOL    HW2 9851   2.719   9.352   4.483 -0.5247 -1.1903 -0.4098
 2087SOL     OW 9852   5.790  10.967   8.134  0.2090  0.4024  0.0009
 2087SOL    HW1 9853   5.837  10.947   8.053  0.2588  2.1142 -0.4214
 2087SOL    HW2 9854   5.703  10.929   8.120  0.8250 -1.0972  0.0136
 2088SOL     OW 9855   9.279   0.139   9.618  0.1217 -0.3404 -0.3046
 2088SOL    HW1 9856   9.261   0.084   9.541 -1.0455 -0.3379 -0.0503
 2088SOL    HW2 9857   9.279   0.078   9.692 -0.5800 -0.0968 -0.0947
 2089SOL     OW 9858   4.787  10.877   8.344  0.0428 -0.0406  0.5437
 2089SOL    HW1 9859   4.768  10.940   8.275  0.4441  1.7055  1.9578
 2089SOL    HW2 9860   4.840  10.809   8.302 -0.3749  0.5649 -1.0063
 2090SOL     OW 9861   4.950   8.936   6.939  0.4670 -0.8244  0.2682
 2090SOL    HW1 9862   4.886   8.912   7.007 -1.1777 -0.5744 -1.1293
 2090SOL    HW2 9863   4.984   8.853   6.907 -0.4000 -1.0453 -0.1047
 2091SOL     OW 9864   8.696   8.729   9.555 -0.4079  0.1078  0.2500
 2091SOL    HW1 9865   8.778   8.718   9.603  0.2799 -0.9146 -1.0735
 2091SOL    HW2 9866   8.644   8.787   9.609 -0.1591 -1.8715  2.8294
 2092SOL     OW 9867   2.360  10.701  10.997 -0.1756  0.2253  0.1129
 2092SOL    HW1 9868   2.413  10.622  10.987 -0.0890  0.3463 -0.4446
 2092SOL    HW2 9869   2.379  10.753  10.919 -2.6667 -0.6524 -1.2025
 2093SOL     OW 9870  10.286   9.286   1.835 -0.0923  0.6889  0.4434
 2093SOL    HW1 9871  10.221   9.354   1.817 -0.6373  0.1970  0.5007
 2093SOL    HW2 9872  10.370   9.331   1.834 -0.3748  1.2040 -0.3524
 2094SOL     OW 9873   5.235   8.195   5.930 -0.1792  0.0886 -0.7547
 2094SOL    HW1 9874   5.166   8.225   5.990 -1.0651 -0.5227 -1.4316
 2094SOL    HW2 9875   5.204   8.221   5.844 -0.4909 -1.8037 -1.2667
 2095SOL     OW 9876   1.438   3.864   9.578 -0.1229 -0.2387  0.3849
 2095SOL    HW1 9877   1.404   3.905   9.498  0.4663  0.5335  0.5130
 2095SOL    HW2 9878   1.445   3.936   9.641 -2.8293 -1.2170  1.9616
 2096SOL     OW 9879   7.336   1.122   7.619 -0.5223  0.1579  0.3886
 2096SOL    HW1 9880   7.310   1.214   7.629 -0.4790  0.1603  0.4759
 2096SOL    HW2 9881   7.420   1.116   7.663  0.2047  0.4237 -0.9009
 2097SOL     OW 9882   7.334  10.527   7.257 -0.2269 -0.8339  0.6868
 2097SOL    HW1 9883   7.260  10.513   7.316 -2.1826 -0.1016 -1.4147
 2097SOL    HW2 9884   7.316  10.471   7.182  0.7368  0.2147 -0.3793
 2098SOL     OW 9885   1.733   6.275   4.328 -0.0811  1.0031 -0.4829
 2098SOL    HW1 9886   1.701   6.359   4.296 -0.0938  1.1167 -0.1762
 2098SOL    HW2 9887   1.670   6.210   4.294  0.8759  0.8985 -2.1984
 2099SOL     OW 9888   7.072   3.925   1.555  0.2374  0.5115  0.1711
 2099SOL    HW1 9889   7.009   3.869   1.511 -1.1138  2.5285 -0.5707
 2099SOL    HW2 9890   7.145   3.866   1.577  0.0705 -1.0021 -2.8557
 2100SOL     OW 9891   4.919   9.607  10.562 -0.3897  0.1910  0.1579
 2100SOL    HW1 9892   4.997   9.595  10.508  1.4536  1.0727  2.4654
 2100SOL    HW2 9893   4.890   9.518  10.583 -1.4338 -0.1946 -2.4959
 2101SOL     OW 9894   7.810   6.580   8.787 -0.2473 -0.1212  0.1183
 2101SOL    HW1 9895   7.730   6.630   8.768 -0.0141  0.5074  0.7606
 2101SOL    HW2 9896   7.804   6.560   8.881  0.4520  0.1068  0.2147
 2102SOL     OW 9897   9.922   7.571   9.428  0.0039 -0.2982 -0.4368
 2102SOL    HW1 9898   9.961   7.641   9.375 -2.1680 -0.5650 -2.5203
 2102SOL    HW2 9899   9.835   7.558   9.391 -1.4441 -0.9348  2.8820
 2103SOL     OW 9900   8.067   5.996  10.467 -0.1457  0.1500  0.4421
 2103SOL    HW1 9901   8.050   6.031  10.554 -1.5474  0.3229  0.1298
 2103SOL    HW2 9902   8.146   5.944  10.477  0.3285  1.0470  1.5675
 2104SOL     OW 9903   1.773  10.731   3.556  0.0762  0.0911 -0.2299
 2104SOL    HW1 9904   1.715  10.737   3.631  1.2975 -2.3555  1.0360
 2104SOL    HW2 9905   1.718  10.698   3.485 -0.8629  1.4316 -0.1439
 2105SOL     OW 9906   3.189   0.988   8.201  0.1400  0.2968 -0.6152
 2105SOL    HW1 9907   3.166   1.027   8.117 -0.8297  0.3739 -0.3200
 2105SOL    HW2 9908   3.235   0.907   8.178  0.5019  0.6712 -1.2188
 2106SOL     OW 9909   7.821   4.508   4.261 -0.4109  0.2874 -0.0167
 2106SOL    HW1 9910   7.902   4.551   4.290  0.1923  0.0306 -1.2400
 2106SOL    HW2 9911   7.765   4.579   4.230  0.3495  0.2862 -1.4795
 2107SOL     OW 9912   6.450   3.258   7.066  0.4215 -0.2761 -0.2897
 2107SOL    HW1 9913   6.444   3.223   6.977 -1.3471 -1.5139  0.2458
 2107SOL    HW2 9914   6.382   3.210   7.114  0.0634  1.6899  1.2730
 2108SOL     OW 9915   1.627   4.439   2.348  0.3309 -0.0985 -0.0132
 2108SOL    HW1 9916   1.695   4.499   2.317 -1.7648  0.7004 -3.5629
 2108SOL    HW2 9917   1.656   4.353   2.320  0.9870 -0.1261  0.6991
 2109SOL     OW 9918   4.215   3.920   2.061  0.3257 -0.4010  0.5215
 2109SOL    HW1 9919   4.164   3.860   2.006 -0.4070 -0.8013  1.6068
 2109SOL    HW2 9920   4.179   4.007   2.041 -1.8440 -0.8015  2.3055
 2110SOL     OW 9921   5.811   4.619   7.561  0.2434 -0.2136  0.2212
 2110SOL    HW1 9922   5.818   4.609   7.656  0.8701  0.0545  0.2016
 2110SOL    HW2 9923   5.897   4.647   7.532 -0.0282  0.0184 -0.3957
 2111SOL     OW 9924   3.615   0.794   4.571  0.2373  0.2913  0.3276
 2111SOL    HW1 9925   3.676   0.865   4.590 -0.0567  0.6210  0.0399
 2111SOL    HW2 9926   3.638   0.766   4.483  0.2515  0.1271  0.3825
 2112SOL     OW 9927   3.671  10.358   9.838 -0.1724 -0.3884  0.3961
 2112SOL    HW1 9928   3.732  10.313   9.896 -1.0809  0.2159  1.8964
 2112SOL    HW2 9929   3.608  10.290   9.812  0.6276 -0.8162 -0.4625
 2113SOL     OW 9930   3.094   7.679  10.954 -0.2717 -0.4383  0.0670
 2113SOL    HW1 9931   3.022   7.724  10.910  0.0737 -2.3756 -2.7416
 2113SOL    HW2 9932   3.173   7.721  10.920 -0.0120 -1.4346 -0.6082
 2114SOL     OW 9933   1.510   8.135   5.934 -0.4985  0.1424  0.3743
 2114SOL    HW1 9934   1.439   8.112   5.874  0.7079 -0.9470 -0.7106
 2114SOL    HW2 9935   1.467   8.146   6.019 -2.1620  1.0489 -0.5301
 2115SOL     OW 9936  11.053   0.214   5.065 -0.2280 -0.1360 -0.1381
 2115SOL    HW1 9937  10.979   0.193   5.122 -1.1102  0.1393 -1.1511
 2115SOL    HW2 9938  11.114   0.142   5.079  1.2526  1.6004  3.7836
 2116SOL     OW 9939   1.584   4.882   2.227 -0.3523 -0.3625  0.2795
 2116SOL    HW1 9940   1.515   4.817   2.234 -1.5011  0.5967 -1.3954
 2116SOL    HW2 9941   1.642   4.864   2.301 -1.5752 -2.1378  0.8666
 2117SOL     OW 9942   7.955   5.305   1.909 -0.0605  0.6394 -0.9516
 2117SOL    HW1 9943   7.914   5.316   1.995  0.3134 -0.6934 -0.5883
 2117SOL    HW2 9944   8.030   5.364   1.911  0.2528  0.2207 -0.1640
 2118SOL     OW 9945   4.583   1.958   0.657 -0.1289  0.4419 -0.0156
 2118SOL    HW1 9946   4.534   2.021   0.605  0.1234 -1.1173 -2.3143
 2118SOL    HW2 9947   4.516   1.910   0.707 -0.2709  2.8104  2.2611
 2119SOL     OW 9948   9.614   4.808   8.304 -0.0237  0.2444  0.5554
 2119SOL    HW1 9949   9.618   4.825   8.398 -0.4677  2.7929  0.1823
 2119SOL    HW2 9950   9.689   4.856   8.268  0.6494 -1.4134 -0.3232
 2120SOL     OW 9951   8.529   9.956   6.521  0.3973  0.0054 -0.2092
 2120SOL    HW1 9952   8.488  10.006   6.450 -1.0691 -1.4213 -0.4421
 2120SOL    HW2 9953   8.569   9.881   6.477  0.8322 -0.0801  0.3255
 2121SOL     OW 9954   9.149   9.087   9.331  0.3935  0.0692  0.3805
 2121SOL    HW1 9955   9.116   9.021   9.269  2.4795 -0.5945 -0.0914
 2121SOL    HW2 9956   9.214   9.136   9.281 -0.4138  1.8725  1.0352
 2122SOL     OW 9957   6.540   1.988   6.471  0.1652 -0.1560 -0.0871
 2122SOL    HW1 9958   6.452   1.951   6.478 -0.0432 -0.4405 -3.0276
 2122SOL    HW2 9959   6.525   2.079   6.443  0.6923 -0.9617 -3.4152
 2123SOL     OW 9960   2.854   5.216   8.212 -0.4001  0.1660  0.1517
 2123SOL    HW1 9961   2.805   5.298   8.222  0.1400  0.3258  1.6667
 2123SOL    HW2 9962   2.872   5.188   8.301 -1.6183 -2.2664 -0.2914
 2124SOL     OW 9963   6.134   4.683  10.681  0.2522 -0.3790  0.3881
 2124SOL    HW1 9964   6.067   4.688  10.749 -0.2348  1.3935 -0.1589
 2124SOL    HW2 9965   6.217   4.694  10.728 -0.0413  0.2219  0.7847
 2125SOL     OW 9966   2.343   2.683   9.009  0.2591  0.5822  0.3023
 2125SOL    HW1 9967   2.277   2.614   9.011  1.6298 -0.7680  0.6452
 2125SOL    HW2 9968   2.293   2.764   9.022 -1.6325 -0.1034 -1.8923
 2126SOL     OW 9969   9.737   0.314   9.986 -0.1766 -0.0557  0.1796
 2126SOL    HW1 9970   9.803   0.273  10.043 -0.0686 -0.0991  0.0243
 2126SOL    HW2 9971   9.666   0.339  10.046 -0.2056 -0.3912  0.2916
 2127SOL     OW 9972   6.198  10.462   0.158  0.3110  0.2458  0.1162
 2127SOL    HW1 9973   6.146  10.526   0.206  0.2691 -0.4365  1.0037
 2127SOL    HW2 9974   6.241  10.512   0.088 -1.5880  0.8153 -0.6951
 2128SOL     OW 9975   9.111   5.710   0.063  0.2811  0.3475 -0.4074
 2128SOL    HW1 9976   9.174   5.782   0.072 -0.3413  0.8132  0.3636
 2128SOL    HW2 9977   9.127   5.655   0.140 -1.1582  1.2159  0.5618
 2129SOL     OW 9978   1.531   2.715   5.627  0.0598  0.1078 -0.2364
 2129SOL    HW1 9979   1.601   2.754   5.679 -0.1220 -0.6754  0.6290
 2129SOL    HW2 9980   1.456   2.711   5.686 -0.0216 -1.2101 -0.3988
 2130SOL     OW 9981   3.648   5.388  10.294 -0.4144  0.1861  0.0669
 2130SOL    HW1 9982   3.637   5.476  10.257 -1.0329  0.1164  0.0736
 2130SOL    HW2 9983   3.661   5.332  10.218 -0.6486  0.1931  0.0213
 2131SOL     OW 9984   2.528   1.104   6.236 -0.4889 -0.1177  0.8204
 2131SOL    HW1 9985   2.450   1.144   6.199 -0.1813 -0.3273 -0.0869
 2131SOL    HW2 9986   2.516   1.110   6.331 -1.9920 -0.9153  0.7030
 2132SOL     OW 9987   0.925   8.312   2.158 -0.2862  0.3082  0.5913
 2132SOL    HW1 9988   0.978   8.350   2.087 -3.0125  0.6443 -1.4259
 2132SOL    HW2 9989   0.885   8.388   2.201  0.2223  0.0264  1.5774
 2133SOL     OW 9990   7.910   0.795   1.585 -0.7370 -0.6470  0.1879
 2133SOL    HW1 9991   7.855   0.781   1.662 -2.5870  1.0528 -0.7498
 2133SOL    HW2 9992   7.967   0.718   1.583 -2.7801 -2.3040  1.4564
 2134SOL     OW 9993   7.089   1.523   6.386  0.2751  0.2271  0.0573
 2134SOL    HW1 9994   6.995   1.536   6.398  0.2894 -0.3383  0.9121
 2134SOL    HW2 9995   7.127   1.557   6.467  0.6389 -1.2793  0.5415
 2135SOL     OW 9996   2.987   9.529   2.855 -0.4784 -0.4011 -0.5328
 2135SOL    HW1 9997   3.070   9.499   2.893  0.0693  0.9718 -0.5656
 2135SOL    HW2 9998   2.921   9.507   2.921  0.0344 -0.7751 -0.1378
 2136SOL     OW 9999  10.682   5.059   6.300  0.5194 -0.7336 -0.0256
 2136SOL    HW110000  10.639   5.127   6.249 -1.7145 -1.1023  1.2086
 2136SOL    HW210001  10.660   4.977   6.256  0.7426 -0.8623  0.0974
 2137SOL     OW10002   7.928   3.783   7.537  0.6377 -0.2105  0.5059
 2137SOL    HW110003   7.914   3.828   7.620  0.0732  1.2245 -0.3270
 2137SOL    HW210004   7.907   3.692   7.555 -0.7689  0.2940  1.6097
 2138SOL     OW10005   6.832   3.688   4.071 -0.0702 -0.0897 -0.0276
 2138SOL    HW110006   6.747   3.655   4.042  0.4439 -0.4782 -1.1663
 2138SOL    HW210007   6.880   3.611   4.100 -0.9897  0.4044  3.2004
 2139SOL     OW10008   0.630   1.599  10.086  0.7680 -0.4975 -0.2032
 2139SOL    HW110009   0.691   1.590  10.159 -0.9123 -1.2055  1.1883
 2139SOL    HW210010   0.564   1.660  10.118 -1.2131 -2.5024 -0.2139
 2140SOL     OW10011   1.705   0.141   2.220 -0.9125 -0.2482  0.3700
 2140SOL    HW110012   1.648   0.097   2.283 -0.1971  0.2521  1.3913
 2140SOL    HW210013   1.681   0.103   2.135 -2.3820 -0.4255  0.8410
 2141SOL     OW10014   0.237   3.395   9.443  0.0627 -0.3183 -0.3296
 2141SOL    HW110015   0.192   3.315   9.416  0.4266 -0.5780 -0.1724
 2141SOL    HW210016   0.230   3.397   9.538 -0.5140  0.1781 -0.3790
 2142SOL     OW10017   8.946   8.364   7.541 -0.5937 -0.1605 -0.3512
 2142SOL    HW110018   8.896   8.330   7.614 -1.0845  0.3423 -0.4461
 2142SOL    HW210019   8.994   8.439   7.577 -0.1798 -0.4238 -0.3449
 2143SOL     OW10020   7.332   5.351   6.380  0.2530 -0.2663 -0.5526
 2143SOL    HW110021   7.311   5.357   6.473 -1.1737 -2.6550 -0.6163
 2143SOL    HW210022   7.263   5.401   6.336  0.7029  0.5365 -0.3543
 2144SOL     OW10023   3.190   7.413   4.442 -0.1846 -0.1409  0.4303
 2144SOL    HW110024   3.128   7.433   4.371  1.1780  0.7248 -0.5690
 2144SOL    HW210025   3.224   7.327   4.420 -1.3649 -0.8433  1.2562
 2145SOL     OW10026   1.108   8.333   4.770  0.2233 -0.0080  0.1184
 2145SOL    HW110027   1.016   8.358   4.765  0.5043  0.7737 -2.2380
 2145SOL    HW210028   1.156   8.413   4.749  1.5026 -0.3248  1.5832
 2146SOL     OW10029   8.106   2.360   8.477 -0.2994  0.0781  0.0240
 2146SOL    HW110030   8.153   2.399   8.550 -0.5699 -0.2235  0.3677
 2146SOL    HW210031   8.128   2.414   8.402 -1.9365  1.9002  0.7722
 2147SOL     OW10032   3.313  10.093  10.291 -0.2204 -0.7683  0.6594
 2147SOL    HW110033   3.298  10.018  10.349  0.3037 -1.9030 -0.6225
 2147SOL    HW210034   3.405  10.117  10.306 -0.4814 -0.1258  1.3218
 2148SOL     OW10035  10.401  10.691   6.459 -0.1154 -0.0302  0.7299
 2148SOL    HW110036  10.481  10.676   6.510  0.1086 -0.8759  0.1544
 2148SOL    HW210037  10.366  10.604   6.443  0.9913 -0.0464 -2.3797
 2149SOL     OW10038   3.412   0.046   6.889 -0.1006  0.0207 -0.6645
 2149SOL    HW110039   3.498   0.080   6.911  0.2912 -1.3675  0.0458
 2149SOL    HW210040   3.428  -0.024   6.826 -0.5801 -1.0021  0.3058
 2150SOL     OW10041   3.505  10.776  10.010 -0.2458  0.0112  0.1448
 2150SOL    HW110042   3.516  10.723   9.931  0.3505 -0.2177  0.3765
 2150SOL    HW210043   3.463  10.718  10.073 -0.2524  0.0360  0.1631
 2151SOL     OW10044   3.789  10.863   8.780  0.1727  0.2209 -0.2196
 2151SOL    HW110045   3.705  10.817   8.784  1.1057 -1.4389  1.7435
 2151SOL    HW210046   3.793  10.913   8.861  1.6319 -0.7979  0.3750
 2152SOL     OW10047   5.820   8.724   4.131 -0.0436  0.1800 -0.7080
 2152SOL    HW110048   5.853   8.636   4.112  1.2049  0.7895 -1.4969
 2152SOL    HW210049   5.748   8.736   4.069 -1.2616 -0.8297  0.4349
 2153SOL     OW10050   4.501   8.306   8.037  0.3387  0.3265  0.4510
 2153SOL    HW110051   4.536   8.267   8.117  0.4667  1.1139  0.7904
 2153SOL    HW210052   4.577   8.350   7.997  0.2873 -0.0916 -0.1349
 2154SOL     OW10053   9.513   4.214   3.410 -0.6509 -0.3059 -0.3845
 2154SOL    HW110054   9.430   4.194   3.367 -0.8411  0.7051 -0.5125
 2154SOL    HW210055   9.526   4.307   3.395 -0.9701  0.2273  2.1302
 2155SOL     OW10056   7.382   7.415   0.150  0.5197  0.2622 -0.0416
 2155SOL    HW110057   7.448   7.484   0.157 -0.5052  1.3956 -1.1638
 2155SOL    HW210058   7.338   7.416   0.236  1.4853 -0.0279  0.4663
 2156SOL     OW10059   8.924   5.677   4.657 -0.3798 -0.4933  0.0132
 2156SOL    HW110060   8.944   5.747   4.718 -0.9379 -2.7801  3.0339
 2156SOL    HW210061   8.829   5.683   4.643 -0.2187  0.1813 -0.9372
 2157SOL     OW10062   0.266   0.833   9.742  1.0433 -0.4064  0.2430
 2157SOL    HW110063   0.227   0.894   9.679  2.1062  0.3500  0.2836
 2157SOL    HW210064   0.196   0.815   9.804  0.1173 -0.7868 -0.8662
 2158SOL     OW10065   6.991   5.339   8.105 -0.9308 -0.1090  0.4022
 2158SOL    HW110066   7.055   5.408   8.123  0.1380 -1.1601  0.7242
 2158SOL    HW210067   6.919   5.385   8.061  1.3528  0.6667 -2.9020
 2159SOL     OW10068  10.019   1.788   5.258 -0.0253  0.0085 -0.2347
 2159SOL    HW110069  10.112   1.772   5.240  0.3300  1.1993  0.3949
 2159SOL    HW210070   9.982   1.702   5.273  1.1874 -0.4194  0.4362
 2160SOL     OW10071   7.547   1.072   8.859  0.5721  0.0557 -0.2439
 2160SOL    HW110072   7.541   1.142   8.794  0.3002  1.3075  1.0569
 2160SOL    HW210073   7.636   1.080   8.894  0.6206 -0.4116 -0.2603
 2161SOL     OW10074   7.655   0.284   7.877 -0.4532  0.0688  0.4807
 2161SOL    HW110075   7.648   0.331   7.794 -0.0276  0.1946  0.5157
 2161SOL    HW210076   7.569   0.294   7.917 -0.6053  0.1566  0.1354
 2162SOL     OW10077   9.283   4.180   9.897  0.0565  0.0883 -0.1785
 2162SOL    HW110078   9.266   4.086   9.901 -0.2107  0.1321 -0.3008
 2162SOL    HW210079   9.378   4.186   9.883  0.0399 -0.1670 -0.4094
 2163SOL     OW10080   5.465   1.369  10.741 -0.7324 -0.4263  0.0665
 2163SOL    HW110081   5.439   1.459  10.764  0.9524 -0.3503  1.9636
 2163SOL    HW210082   5.493   1.375  10.650  0.7227  1.3548  0.5587
 2164SOL     OW10083   3.769   5.145   2.674 -0.0837  0.2998  0.2609
 2164SOL    HW110084   3.685   5.149   2.720 -0.5034  1.9496 -0.5793
 2164SOL    HW210085   3.832   5.118   2.741 -1.1198 -0.0047  1.1312
 2165SOL     OW10086   8.579   1.943   5.119  0.5619 -0.2321  0.2131
 2165SOL    HW110087   8.490   1.976   5.132  1.2518  1.2882  1.3755
 2165SOL    HW210088   8.569   1.848   5.114 -1.1015 -0.0962  0.4706
 2166SOL     OW10089   1.341   3.416   0.143 -0.6413  0.4580  0.6836
 2166SOL    HW110090   1.301   3.414   0.057 -1.0378 -1.5049  0.8853
 2166SOL    HW210091   1.295   3.349   0.194 -0.7358  1.8634  2.5863
 2167SOL     OW10092  10.413   6.086   1.252  0.2402  0.2247  0.2236
 2167SOL    HW110093  10.422   6.054   1.162  1.2212  0.4387  0.2376
 2167SOL    HW210094  10.415   6.181   1.243  0.3968  0.2438  0.4845
 2168SOL     OW10095  11.015   3.770   9.606 -0.2121 -0.2476  0.1787
 2168SOL    HW110096  10.939   3.738   9.654  0.9921 -1.8008  1.1244
 2168SOL    HW210097  11.062   3.824   9.670 -0.4684  0.6955 -0.3991
 2169SOL     OW10098   8.805   3.408   2.926 -0.3835 -0.1678 -0.0235
 2169SOL    HW110099   8.876   3.398   2.990  2.0968 -2.2008 -2.8167
 2169SOL    HW210100   8.754   3.327   2.935 -0.5460 -0.0685 -0.0545
 2170SOL     OW10101   6.275   4.385   9.246  0.1185 -0.5644  0.3678
 2170SOL    HW110102   6.351   4.346   9.290 -0.8632 -2.9075  0.0885
 2170SOL    HW210103   6.288   4.365   9.153 -0.8672 -1.0114  0.3247
 2171SOL     OW10104  10.757   7.161   8.104  0.0368  0.7235 -0.3725
 2171SOL    HW110105  10.822   7.134   8.169  0.1318  1.3012 -0.2219
 2171SOL    HW210106  10.683   7.103   8.119  0.5730 -0.0420 -0.6461
 2172SOL     OW10107   7.581   8.452   9.912  0.3052  0.0911  0.1463
 2172SOL    HW110108   7.540   8.367   9.928  1.9157 -0.6450  0.5858
 2172SOL    HW210109   7.649   8.459   9.979  1.5674  0.7917 -1.1530
 2173SOL     OW10110   6.055   6.612   7.200 -0.2476 -0.1456  0.4471
 2173SOL    HW110111   6.085   6.702   7.186 -0.3942 -0.1268  0.2568
 2173SOL    HW210112   6.131   6.558   7.178  0.7084  0.0214  2.9811
 2174SOL     OW10113   0.717   3.183   9.428  0.0948 -0.1446 -0.2808
 2174SOL    HW110114   0.623   3.174   9.444  0.1603 -0.9281 -0.2929
 2174SOL    HW210115   0.758   3.127   9.493  0.4744 -1.1093 -1.3164
 2175SOL     OW10116   5.348   6.021   2.660  0.3162 -0.1746  0.6140
 2175SOL    HW110117   5.342   6.114   2.638 -0.3039 -0.1262  0.9542
 2175SOL    HW210118   5.386   5.980   2.582  0.9585  0.4166  0.6140
 2176SOL     OW10119   5.609   3.845   6.487  0.4162  0.0174  0.3874
 2176SOL    HW110120   5.693   3.882   6.517 -0.3166  1.5185  0.7129
 2176SOL    HW210121   5.625   3.751   6.480  2.3558  0.3473 -0.3208
 2177SOL     OW10122   9.935   1.162  10.073  0.0418 -0.2335  0.2473
 2177SOL    HW110123   9.996   1.088  10.069 -0.1071 -0.3125 -1.9882
 2177SOL    HW210124   9.873   1.145  10.002 -1.6665  0.6467  1.4792
 2178SOL     OW10125   4.942   5.135   4.407  0.2433  0.0698  0.0534
 2178SOL    HW110126   4.962   5.215   4.456 -1.8910  2.0508 -2.0548
 2178SOL    HW210127   4.847   5.125   4.415  0.1851 -0.9699 -1.5967
 2179SOL     OW10128   6.100   0.378   1.740 -0.1127 -0.4282 -0.0747
 2179SOL    HW110129   6.111   0.397   1.647  0.7861 -2.1933 -0.3540
 2179SOL    HW210130   6.085   0.464   1.780 -0.3403  0.3800 -1.8055
 2180SOL     OW10131   8.035   1.929   5.033  0.5202  0.9260  0.6524
 2180SOL    HW110132   7.974   1.986   5.081 -0.6977 -0.4829  0.8371
 2180SOL    HW210133   8.017   1.841   5.067  0.3601  0.0235 -1.6269
 2181SOL     OW10134   3.513   1.565   0.874  0.0564 -0.6348 -0.1218
 2181SOL    HW110135   3.486   1.492   0.929  0.0695 -0.2855  0.3534
 2181SOL    HW210136   3.456   1.638   0.899  1.2714  0.0603  0.7728
 2182SOL     OW10137   4.218   6.213  10.979 -0.3221 -0.3922  0.5746
 2182SOL    HW110138   4.291   6.155  11.001 -0.5720 -1.0717 -0.3399
 2182SOL    HW210139   4.216   6.277  11.050  0.6065 -0.8913  1.0656
 2183SOL     OW10140   0.713   6.393   1.814 -0.0727 -0.0644  0.2383
 2183SOL    HW110141   0.733   6.486   1.814  0.4965 -0.1370 -1.6222
 2183SOL    HW210142   0.798   6.350   1.805 -0.3291 -0.7789  1.0759
 2184SOL     OW10143   2.134   7.396   1.479  0.0102 -0.1172 -0.2595
 2184SOL    HW110144   2.103   7.334   1.545  0.2959 -0.6411 -0.6108
 2184SOL    HW210145   2.076   7.471   1.488 -0.7309 -0.6810 -0.2426
 2185SOL     OW10146   0.484   9.124   4.472 -0.3214  0.0715 -0.6500
 2185SOL    HW110147   0.489   9.072   4.552  1.8636  0.8413 -0.2232
 2185SOL    HW210148   0.502   9.060   4.402  1.2395  0.0094 -0.2200
 2186SOL     OW10149   8.818   6.470   0.063  0.2089 -0.0154 -0.1058
 2186SOL    HW110150   8.819   6.462   0.158  1.3808  2.7221  0.2189
 2186SOL    HW210151   8.909   6.454   0.037 -0.2465 -1.4646 -0.8788
 2187SOL     OW10152   0.566   7.402   0.146  0.3153  0.2147  0.0997
 2187SOL    HW110153   0.626   7.476   0.153 -0.5024  0.8709  0.3153
 2187SOL    HW210154   0.505   7.413   0.219  0.6048 -1.0768  0.5738
 2188SOL     OW10155   6.159   3.191   2.833 -0.3693 -0.4027  0.0992
 2188SOL    HW110156   6.237   3.229   2.874  0.5011 -2.4084  0.3839
 2188SOL    HW210157   6.168   3.213   2.740  1.8259 -2.6080 -0.2889
 2189SOL     OW10158   5.469   2.613   9.303  0.1029 -0.4669  0.8534
 2189SOL    HW110159   5.488   2.546   9.368 -0.5183 -1.8454 -0.3294
 2189SOL    HW210160   5.380   2.594   9.274  0.5954 -0.3301 -0.8884
 2190SOL     OW10161   6.890   7.828  10.162 -0.5516 -0.0405  0.2823
 2190SOL    HW110162   6.915   7.846  10.072  0.7995 -0.2132  0.6025
 2190SOL    HW210163   6.801   7.863  10.170 -0.2238  1.0804 -0.7589
 2191SOL     OW10164   9.326   7.200   3.028 -0.8923 -0.0441 -0.3840
 2191SOL    HW110165   9.286   7.128   3.078 -0.8740  0.6884  0.7199
 2191SOL    HW210166   9.252   7.243   2.986 -0.8018 -1.4079 -2.0664
 2192SOL     OW10167   9.021   6.351   8.557 -0.4410 -0.7597  0.2797
 2192SOL    HW110168   8.928   6.349   8.538 -0.3810  0.9770 -0.4018
 2192SOL    HW210169   9.038   6.442   8.584  1.4470 -0.3485 -1.9789
 2193SOL     OW10170  10.014   7.652  10.030  0.2044  0.2980  0.2850
 2193SOL    HW110171  10.064   7.709   9.972  0.9096  1.0349  1.5662
 2193SOL    HW210172   9.947   7.709  10.068 -1.1216 -0.4875 -0.7815
 2194SOL     OW10173   3.716   1.399   6.246  0.1356  1.0273  0.3195
 2194SOL    HW110174   3.751   1.457   6.313 -0.9330  0.5401  1.3280
 2194SOL    HW210175   3.707   1.314   6.289  3.6776 -0.5716 -1.6761
 2195SOL     OW10176   7.978   1.778   8.145  0.2851  0.2555 -0.0446
 2195SOL    HW110177   7.891   1.741   8.163 -0.5174  1.6804 -0.7984
 2195SOL    HW210178   7.993   1.840   8.217  0.4486  0.3942 -0.1987
 2196SOL     OW10179   1.001   0.522   6.989 -0.3345  0.5731 -0.0457
 2196SOL    HW110180   1.017   0.480   6.904 -0.8692  1.3606 -0.5474
 2196SOL    HW210181   0.906   0.530   6.994 -0.3730 -0.3346  1.0656
 2197SOL     OW10182   7.955  10.564   4.056  0.3673  0.1547  0.0840
 2197SOL    HW110183   8.030  10.611   4.019 -0.7986  1.2677 -0.9856
 2197SOL    HW210184   7.899  10.546   3.981 -0.5495 -0.4528  0.8892
 2198SOL     OW10185   4.128   9.806   3.864  0.2062  0.5827  0.3117
 2198SOL    HW110186   4.127   9.844   3.952  0.5564  1.0273  0.1313
 2198SOL    HW210187   4.057   9.851   3.817  2.1600  2.9024 -0.6459
 2199SOL     OW10188   8.294   4.679   7.062  0.0952  0.0414  0.5822
 2199SOL    HW110189   8.365   4.743   7.072 -1.0830  1.1875  2.1283
 2199SOL    HW210190   8.336   4.595   7.079  1.4088  0.5207 -0.1269
 2200SOL     OW10191   0.450   3.345   5.730  0.3823  0.1151 -0.1928
 2200SOL    HW110192   0.496   3.311   5.654  0.9053  0.2993  0.0382
 2200SOL    HW210193   0.424   3.267   5.779 -1.2004 -0.0709 -1.2593
 2201SOL     OW10194   9.600   1.103   2.132 -0.4366 -0.3263  0.4086
 2201SOL    HW110195   9.558   1.147   2.058 -1.0648  0.5173  1.2375
 2201SOL    HW210196   9.682   1.068   2.096  0.0319  1.4185 -0.3327
 2202SOL     OW10197  10.517   6.345  10.660  0.0352 -0.1279  0.1905
 2202SOL    HW110198  10.483   6.353  10.749 -0.4138  0.1328 -0.0015
 2202SOL    HW210199  10.461   6.402  10.607  0.6393  0.1486 -0.1688
 2203SOL     OW10200   4.102   5.527   8.548 -0.2973  0.1863 -0.5456
 2203SOL    HW110201   4.042   5.545   8.476 -2.3573 -1.0588  0.7500
 2203SOL    HW210202   4.139   5.442   8.529 -1.2478 -0.3876  0.0547
 2204SOL     OW10203   1.561   8.257  10.393 -0.8092 -0.2047 -0.3719
 2204SOL    HW110204   1.542   8.169  10.425  0.6206  0.1254  1.5659
 2204SOL    HW210205   1.638   8.247  10.337 -0.2667 -0.1099  0.3526
 2205SOL     OW10206   3.291   8.582   8.132  0.0041  0.0133 -0.5210
 2205SOL    HW110207   3.328   8.496   8.147  2.0731  1.0750  0.8046
 2205SOL    HW210208   3.281   8.620   8.219 -1.1939  1.0252 -1.0591
 2206SOL     OW10209   5.891   1.641   5.825 -0.1686  0.1515 -0.0230
 2206SOL    HW110210   5.844   1.721   5.799  0.0105 -0.2998 -1.9009
 2206SOL    HW210211   5.945   1.667   5.899  0.5476  2.0145 -1.1385
 2207SOL     OW10212   4.036   4.287   2.748  0.0711 -0.1569  0.1170
 2207SOL    HW110213   4.081   4.302   2.665  3.5707  1.5972  2.1252
 2207SOL    HW210214   4.061   4.199   2.774 -1.1488 -0.7656 -0.6615
 2208SOL     OW10215   2.351   4.157   8.060  0.5614 -0.0107 -0.3309
 2208SOL    HW110216   2.373   4.065   8.045  0.3828 -0.3070  1.0693
 2208SOL    HW210217   2.431   4.205   8.041  0.8652 -0.5403 -0.3937
 2209SOL     OW10218   5.607   6.219   6.506 -0.3902 -0.0775  0.0383
 2209SOL    HW110219   5.602   6.234   6.600  1.4969 -0.1479  0.1803
 2209SOL    HW210220   5.617   6.307   6.469  1.1783 -0.1982  0.1154
 2210SOL     OW10221   4.395   5.568   8.084 -0.3146  0.5872  0.2508
 2210SOL    HW110222   4.383   5.485   8.039  1.5581 -0.7063  1.9025
 2210SOL    HW210223   4.335   5.628   8.041 -0.1398 -1.0254 -2.5052
 2211SOL     OW10224   8.120   1.127   8.096 -0.0951  0.9444 -0.4085
 2211SOL    HW110225   8.123   1.128   8.192  1.9132  0.7239 -0.4409
 2211SOL    HW210226   8.087   1.214   8.072 -1.0325  0.8508  0.4655
 2212SOL     OW10227   0.949   0.367  10.766 -0.3368 -0.0146  0.0055
 2212SOL    HW110228   0.882   0.313  10.807 -0.4565  0.1779  0.0599
 2212SOL    HW210229   0.970   0.434  10.831  0.5764 -0.6275  0.3648
 2213SOL     OW10230   6.234   9.176   1.081 -0.5766 -0.1344 -0.3457
 2213SOL    HW110231   6.229   9.168   1.177 -1.5016 -0.6376 -0.4296
 2213SOL    HW210232   6.197   9.262   1.063 -1.3168 -0.4355 -0.3140
 2214SOL     OW10233   4.384  10.669   7.014 -0.0822  0.0638 -0.2432
 2214SOL    HW110234   4.317  10.601   7.018  0.0614 -0.1809 -1.5745
 2214SOL    HW210235   4.464  10.622   6.989  0.0694  0.6707 -0.9448
 2215SOL     OW10236   2.910   7.789   6.694 -0.0177 -0.2856 -0.0016
 2215SOL    HW110237   2.957   7.865   6.729 -1.2706 -0.1363  1.4327
 2215SOL    HW210238   2.942   7.715   6.746  0.7502 -0.6775 -0.9906
 2216SOL     OW10239   2.667   7.147   7.381 -0.1329 -0.1998  0.1032
 2216SOL    HW110240   2.616   7.221   7.348  0.2800  1.1373  2.3022
 2216SOL    HW210241   2.678   7.090   7.304 -0.0793  2.2006 -1.7954
 2217SOL     OW10242   3.486   1.924   7.305  0.7905 -0.3123  0.2099
 2217SOL    HW110243   3.460   2.006   7.349  0.5339 -0.6811  0.7647
 2217SOL    HW210244   3.409   1.868   7.314  1.0851 -0.7299  0.1145
 2218SOL     OW10245   7.322   7.318   4.160  0.6089 -0.6170  0.0989
 2218SOL    HW110246   7.260   7.362   4.102  2.4680  0.3284 -1.2744
 2218SOL    HW210247   7.268   7.259   4.213 -1.9211  2.6559  1.4726
 2219SOL     OW10248   3.577   0.338   8.760  0.1725  0.4709 -0.3025
 2219SOL    HW110249   3.578   0.405   8.828 -0.2533 -0.8440  1.0849
 2219SOL    HW210250   3.621   0.263   8.801 -0.5474 -0.5201 -1.2825
 2220SOL     OW10251   9.874   5.471   6.548 -0.3782 -0.2144 -0.0212
 2220SOL    HW110252   9.954   5.521   6.560  0.8390 -1.9575 -0.4119
 2220SOL    HW210253   9.813   5.531   6.506  1.6105  0.4346 -2.1534
 2221SOL     OW10254   9.436   2.424   1.379 -0.0927 -0.3592 -0.0164
 2221SOL    HW110255   9.466   2.334   1.389 -0.3107 -0.5457 -0.9428
 2221SOL    HW210256   9.514   2.477   1.395  0.4730 -0.7939 -1.1699
 2222SOL     OW10257   9.646   2.073  10.858 -0.1778  0.2646 -1.0068
 2222SOL    HW110258   9.732   2.100  10.891 -0.7572  0.3514  0.5124
 2222SOL    HW210259   9.651   2.088  10.763  0.2567  3.7547 -0.5754
 2223SOL     OW10260  11.059   0.080  10.655  0.6078  0.3405  0.2803
 2223SOL    HW110261  10.979   0.103  10.702  0.7928  0.1792  0.6841
 2223SOL    HW210262  11.054  -0.016  10.647  0.1523  0.4432 -0.8153
 2224SOL     OW10263   8.825   6.650   2.073  0.3789  0.3083  0.3655
 2224SOL    HW110264   8.809   6.686   1.985 -2.4772 -1.1785  0.1658
 2224SOL    HW210265   8.784   6.714   2.132  2.2218  1.2619  0.6890
 2225SOL     OW10266  10.296   1.820  10.824 -0.6350 -0.1091 -0.2178
 2225SOL    HW110267  10.291   1.887  10.892 -0.6157  0.1046 -0.4247
 2225SOL    HW210268  10.208   1.817  10.786 -1.0272 -1.2007  0.7273
 2226SOL     OW10269   7.675   6.240   9.553  0.2085  0.1942 -0.4539
 2226SOL    HW110270   7.769   6.243   9.532 -0.0919 -1.3436 -2.3211
 2226SOL    HW210271   7.641   6.323   9.522  1.0116  1.0011  0.7367
 2227SOL     OW10272   1.176   5.452   8.399 -0.2802  0.3205 -0.1473
 2227SOL    HW110273   1.128   5.485   8.323  1.6447 -0.2013 -1.6839
 2227SOL    HW210274   1.156   5.358   8.400  1.0045 -0.0009 -1.1129
 2228SOL     OW10275   3.321   0.774   7.155  0.0522 -0.1976 -1.0288
 2228SOL    HW110276   3.251   0.731   7.106  0.1336 -2.5344  0.7209
 2228SOL    HW210277   3.281   0.797   7.239  1.1474 -0.8942 -0.2842
 2229SOL     OW10278   3.995   4.337   7.782  0.4442 -0.5378 -0.2282
 2229SOL    HW110279   3.947   4.264   7.821  0.7567 -1.7751 -1.9989
 2229SOL    HW210280   4.076   4.342   7.832 -1.2707  1.4340  2.6525
 2230SOL     OW10281   3.332   3.777   7.815 -0.0165  0.3387  0.7938
 2230SOL    HW110282   3.287   3.837   7.876 -0.4445  0.0515  0.7656
 2230SOL    HW210283   3.268   3.760   7.747  0.2351  0.1350  0.6069
 2231SOL     OW10284   8.732   2.054   3.111 -0.0196 -0.0953  0.2494
 2231SOL    HW110285   8.773   1.985   3.057 -0.0420  0.1312 -0.0608
 2231SOL    HW210286   8.645   2.020   3.131 -0.9790  0.8767 -1.9834
 2232SOL     OW10287   3.423   6.965   9.222 -0.5078  0.3099 -0.2626
 2232SOL    HW110288   3.439   7.054   9.190 -4.3007  0.4792 -2.2988
 2232SOL    HW210289   3.467   6.908   9.160  0.6098  0.7246  0.1363
 2233SOL     OW10290   9.188   0.556   8.139  0.1221  0.0124  0.3529
 2233SOL    HW110291   9.164   0.629   8.197  1.0480  0.8957 -0.3330
 2233SOL    HW210292   9.107   0.536   8.091 -0.4086 -0.1102  1.2775
 2234SOL     OW10293   2.985   9.597   5.096  0.5136 -0.3699 -0.4291
 2234SOL    HW110294   2.992   9.585   5.002  4.5062 -0.6615 -0.3018
 2234SOL    HW210295   2.995   9.509   5.133 -1.4835 -0.3242  0.3031
 2235SOL     OW10296   1.912   0.408   4.685 -0.5221 -0.6048  0.0104
 2235SOL    HW110297   1.872   0.429   4.600 -0.2655  4.0495  0.7666
 2235SOL    HW210298   1.849   0.439   4.750  0.6654 -1.0366  1.4374
 2236SOL     OW10299   1.397   1.952  11.008  0.0313  0.1644  0.2097
 2236SOL    HW110300   1.393   1.862  10.975  2.5917  0.0912 -0.0506
 2236SOL    HW210301   1.327   1.957  11.073 -2.2816 -1.0244 -2.0173
 2237SOL     OW10302  10.093   5.625   4.474  0.2085 -0.3480  0.9564
 2237SOL    HW110303  10.103   5.706   4.424 -0.3700 -0.4934  0.5974
 2237SOL    HW210304  10.028   5.646   4.541 -1.3634 -1.0376 -0.3092
 2238SOL     OW10305   4.738  11.010  10.466 -0.4478  0.3330 -0.4046
 2238SOL    HW110306   4.800  10.958  10.519  0.1143  1.2905 -0.0915
 2238SOL    HW210307   4.670  10.947  10.441  0.3819 -0.6330 -0.3218
 2239SOL     OW10308   2.732   4.039   3.850  0.5173  0.1785  0.2130
 2239SOL    HW110309   2.674   4.114   3.867  0.6319 -0.1516  2.3474
 2239SOL    HW210310   2.713   4.015   3.759 -1.4289  1.1547  0.2939
 2240SOL     OW10311   7.894   7.998   2.468  0.2525 -0.1294  0.4821
 2240SOL    HW110312   7.819   7.967   2.518 -0.2209  0.1519 -0.0536
 2240SOL    HW210313   7.970   7.972   2.521 -0.2176 -0.3411  1.0637
 2241SOL     OW10314   1.035  10.501  10.026  0.5359  0.0886  0.5607
 2241SOL    HW110315   1.093  10.515  10.101  3.1571  1.4271 -1.5222
 2241SOL    HW210316   1.020  10.406  10.025  1.9431 -0.1891  1.7546
 2242SOL     OW10317   4.029   4.816   3.211  0.2141 -0.6586  0.6151
 2242SOL    HW110318   4.029   4.777   3.123  1.1585  1.7636 -0.5558
 2242SOL    HW210319   3.936   4.831   3.229  0.0607  2.7867 -2.0098
 2243SOL     OW10320   1.919   9.882   6.323  0.2720  0.1712 -0.5835
 2243SOL    HW110321   1.895   9.966   6.362  2.6147  0.8214 -0.3933
 2243SOL    HW210322   1.958   9.833   6.395  0.6692 -0.3346 -1.1438
 2244SOL     OW10323   6.265  10.291   6.410  0.5569 -0.0172 -0.2124
 2244SOL    HW110324   6.177  10.273   6.377  1.0462 -1.7504 -0.6678
 2244SOL    HW210325   6.310  10.332   6.336  0.2070  0.6654 -0.0524
 2245SOL     OW10326   4.201   1.606   1.835  0.5099  0.0426  0.6977
 2245SOL    HW110327   4.290   1.601   1.800 -0.1161 -1.3389 -0.7943
 2245SOL    HW210328   4.202   1.546   1.910  0.5853 -0.7574  0.0694
 2246SOL     OW10329   2.836  10.588   3.079  0.3672  0.6121  0.1621
 2246SOL    HW110330   2.752  10.588   3.125  0.0239  0.5416 -0.4537
 2246SOL    HW210331   2.897  10.630   3.140 -0.3203  1.5232  0.2466
 2247SOL     OW10332   1.991  10.796   7.587  0.6204 -0.1624 -0.9172
 2247SOL    HW110333   1.969  10.801   7.494  0.6830  0.2341 -0.9124
 2247SOL    HW210334   1.991  10.888   7.617  0.7103 -0.2782 -0.5540
 2248SOL     OW10335   7.756   0.144   4.185 -0.1918  0.3391 -0.6942
 2248SOL    HW110336   7.677   0.187   4.218 -1.1773 -1.7513 -0.1308
 2248SOL    HW210337   7.828   0.188   4.229 -1.1738  0.9888  0.3085
 2249SOL     OW10338   1.517   3.788   0.757  0.2180 -0.5007 -0.6224
 2249SOL    HW110339   1.441   3.846   0.763 -0.7961 -1.8665  0.4968
 2249SOL    HW210340   1.487   3.714   0.704  1.0670 -0.6345 -0.9388
 2250SOL     OW10341   2.260   9.380   0.161 -0.4799 -0.3642 -0.4392
 2250SOL    HW110342   2.219   9.437   0.095  0.6344  0.6929 -0.2481
 2250SOL    HW210343   2.196   9.309   0.174 -1.4997  0.3479 -1.3497
 2251SOL     OW10344  10.898   0.264   0.553  0.3312 -0.1957  0.3004
 2251SOL    HW110345  10.912   0.353   0.520 -0.1310  0.1635  1.0609
 2251SOL    HW210346  10.842   0.275   0.629  2.8429 -0.7775  2.4018
 2252SOL     OW10347   8.240   0.488   3.727 -0.1153  0.4913 -0.0898
 2252SOL    HW110348   8.204   0.455   3.645 -0.6746 -2.0735  1.0714
 2252SOL    HW210349   8.334   0.494   3.711 -0.1458 -0.5620 -0.7625
 2253SOL     OW10350  10.344   2.777   7.495 -0.1182  0.1292 -0.0576
 2253SOL    HW110351  10.299   2.764   7.579  1.8914  1.1550  1.2490
 2253SOL    HW210352  10.322   2.867   7.471  1.5885  0.8335  0.8744
 2254SOL     OW10353   2.189   1.844  10.637  0.5785 -0.3900  0.1033
 2254SOL    HW110354   2.096   1.861  10.623  1.2030  1.9578 -1.9464
 2254SOL    HW210355   2.194   1.809  10.726 -2.0108  2.0337  1.3846
 2255SOL     OW10356   4.919   2.528   0.097  0.9077  0.1264 -0.6578
 2255SOL    HW110357   4.973   2.607   0.104  1.6191 -0.5014  2.0855
 2255SOL    HW210358   4.979   2.460   0.068  1.3531 -0.2520  1.0091
 2256SOL     OW10359   2.356   4.364   4.082 -0.4656 -0.7780  0.3028
 2256SOL    HW110360   2.328   4.432   4.144 -0.2533 -0.0412 -0.3957
 2256SOL    HW210361   2.294   4.293   4.096 -2.5951  0.7005 -1.0138
 2257SOL     OW10362   8.762   3.434   1.987 -0.5080 -0.2403 -0.1912
 2257SOL    HW110363   8.853   3.462   1.997 -0.6225  0.3372 -0.6656
 2257SOL    HW210364   8.763   3.340   2.002 -0.1056  0.0081  1.4782
 2258SOL     OW10365   4.264   9.161   2.231 -0.2194 -0.7359 -0.2948
 2258SOL    HW110366   4.341   9.206   2.266 -2.5114  1.8190  1.9810
 2258SOL    HW210367   4.249   9.201   2.146 -0.0146  0.0690  0.0334
 2259SOL     OW10368   6.173   8.392   1.758  0.3895 -0.0659 -0.1114
 2259SOL    HW110369   6.126   8.388   1.842 -0.9660 -0.6657 -0.8591
 2259SOL    HW210370   6.201   8.301   1.742  1.2560  0.1716  0.0088
 2260SOL     OW10371   8.885   0.572   8.664 -0.0549  0.2041 -0.0534
 2260SOL    HW110372   8.958   0.510   8.667  0.5947  0.9780  0.5863
 2260SOL    HW210373   8.926   0.655   8.639 -1.1916  0.0188 -3.0005
 2261SOL     OW10374   9.325   4.867   5.759 -0.0008  0.5938 -0.2097
 2261SOL    HW110375   9.330   4.778   5.724  0.4675  0.1651  0.8958
 2261SOL    HW210376   9.261   4.911   5.703  0.2682 -0.2257 -1.2021
 2262SOL     OW10377   1.272   6.026   3.637 -0.4367  0.2344  0.1862
 2262SOL    HW110378   1.288   6.116   3.664 -0.9530  0.2092  0.5838
 2262SOL    HW210379   1.203   6.032   3.571 -0.2264  0.1607 -0.0415
 2263SOL     OW10380   3.933   8.717   1.623  0.8542  0.0738  0.0135
 2263SOL    HW110381   3.902   8.696   1.534  0.8465  2.1438 -0.5156
 2263SOL    HW210382   3.903   8.806   1.638  1.7608  0.1179  1.7143
 2264SOL     OW10383   1.091   3.093   8.768  0.6570 -0.0944  0.1260
 2264SOL    HW110384   1.063   3.028   8.704  1.0072  1.5917 -1.8882
 2264SOL    HW210385   1.011   3.141   8.789  0.8552  0.6003 -0.6266
 2265SOL     OW10386   6.526   4.293  10.493  0.1411 -0.2434 -0.1698
 2265SOL    HW110387   6.485   4.211  10.465  0.6437 -0.2520 -0.9306
 2265SOL    HW210388   6.597   4.306  10.429  0.8391  0.1447  0.6671
 2266SOL     OW10389   6.938   9.130   0.502  0.0340 -0.6485 -0.0357
 2266SOL    HW110390   6.915   9.045   0.465  1.2852 -0.9514 -0.1738
 2266SOL    HW210391   7.023   9.116   0.544 -0.8489 -0.0512  2.0455
 2267SOL     OW10392   1.745   9.296   5.668 -0.3625 -0.3480 -0.4854
 2267SOL    HW110393   1.791   9.320   5.587  0.3703 -1.3265 -0.3777
 2267SOL    HW210394   1.714   9.207   5.652  0.6138 -0.9121  0.6514
 2268SOL     OW10395   6.444   7.084   3.083  0.2331 -0.4220  0.5787
 2268SOL    HW110396   6.367   7.115   3.132  0.2362  1.3859 -0.4728
 2268SOL    HW210397   6.408   7.027   3.016 -0.3344  1.0678 -0.4347
 2269SOL     OW10398   5.160   6.801   2.736  0.2604  0.4372  0.4542
 2269SOL    HW110399   5.151   6.882   2.787 -0.9399 -0.7511  2.2227
 2269SOL    HW210400   5.216   6.745   2.789 -0.2090 -0.4783  0.0054
 2270SOL     OW10401   3.724   4.012   9.421  0.6998  0.2665 -0.3364
 2270SOL    HW110402   3.722   4.043   9.331  2.9630  0.0355 -0.5208
 2270SOL    HW210403   3.729   3.916   9.413  4.3797  0.3011 -0.2038
 2271SOL     OW10404   0.666   0.825   7.156 -0.2399  0.1351 -0.2318
 2271SOL    HW110405   0.668   0.730   7.166 -0.6074 -0.0002 -1.2590
 2271SOL    HW210406   0.581   0.842   7.114  1.1530  0.5769 -3.0580
 2272SOL     OW10407   6.733   7.847   1.049 -0.2755  0.2493  0.1058
 2272SOL    HW110408   6.725   7.847   0.954 -2.1818  2.3811  0.1895
 2272SOL    HW210409   6.689   7.927   1.077  0.7355 -0.0228  2.7657
 2273SOL     OW10410   4.170   1.611   9.987  0.0989  0.4612  0.3292
 2273SOL    HW110411   4.264   1.597   9.990  0.0659  0.3792  1.3953
 2273SOL    HW210412   4.150   1.625   9.895  1.0183 -0.4025 -0.0081
 2274SOL     OW10413  10.468   7.594   8.428  0.4122 -0.0464 -0.2544
 2274SOL    HW110414  10.422   7.673   8.459 -0.3889 -1.0158  1.1594
 2274SOL    HW210415  10.400   7.542   8.385  0.9476  0.0415 -1.2248
 2275SOL     OW10416   3.950   3.312   6.487  0.6643  0.0118 -0.2706
 2275SOL    HW110417   3.933   3.340   6.577 -0.4753 -1.5766  0.0393
 2275SOL    HW210418   3.871   3.335   6.438  1.5543  1.5341 -1.0757
 2276SOL     OW10419   8.576   2.160   1.411  0.4315  0.1259  0.6800
 2276SOL    HW110420   8.536   2.192   1.492 -0.0746 -0.0284  0.4950
 2276SOL    HW210421   8.585   2.066   1.423 -0.1364  0.0253  0.3512
 2277SOL     OW10422   7.536   7.682   7.263  0.0798  0.1282 -0.4132
 2277SOL    HW110423   7.460   7.656   7.211 -0.4122 -1.2255  0.9070
 2277SOL    HW210424   7.507   7.670   7.354  1.7480 -0.0030  0.1194
 2278SOL     OW10425   3.415   8.176   3.251  0.5076 -0.0091 -0.1317
 2278SOL    HW110426   3.430   8.261   3.209 -1.1734  0.0955 -0.5727
 2278SOL    HW210427   3.342   8.191   3.310  0.3377 -1.1066 -0.0530
 2279SOL     OW10428   7.052   1.976   6.267 -0.1408 -0.3072  0.1996
 2279SOL    HW110429   6.970   2.008   6.229 -0.6908 -0.1413  1.4698
 2279SOL    HW210430   7.098   2.056   6.294 -0.1876 -0.4536  0.7243
 2280SOL     OW10431   0.436   1.907   8.378  0.0456 -0.2228 -0.1798
 2280SOL    HW110432   0.497   1.863   8.321 -0.4093  0.4359 -1.2024
 2280SOL    HW210433   0.488   1.933   8.454  0.8427 -0.3816 -0.6637
 2281SOL     OW10434  10.346   4.052  10.477  0.1137  0.1671 -0.6189
 2281SOL    HW110435  10.396   4.081  10.554  0.0511 -0.3356 -0.3786
 2281SOL    HW210436  10.397   3.979  10.442  0.1760  0.4388 -1.0991
 2282SOL     OW10437   5.555  10.736  10.582 -1.1021  0.0943 -0.0626
 2282SOL    HW110438   5.498  10.770  10.514 -1.6953 -0.3297  0.2181
 2282SOL    HW210439   5.612  10.809  10.605  0.2329 -0.1893 -2.1595
 2283SOL     OW10440   3.747   6.504   0.202 -0.5419  0.8701  0.3634
 2283SOL    HW110441   3.670   6.555   0.178 -1.1835 -0.6734 -0.9702
 2283SOL    HW210442   3.720   6.413   0.194  1.5895  0.2674 -0.8791
 2284SOL     OW10443   9.813  10.014   5.286 -0.1815  0.3869 -0.6875
 2284SOL    HW110444   9.731  10.021   5.237 -1.2652  0.8968  1.1194
 2284SOL    HW210445   9.814   9.924   5.318 -0.4225  0.5931 -0.0875
 2285SOL     OW10446   9.810   5.663   5.386  0.1322 -0.5383  0.0759
 2285SOL    HW110447   9.898   5.694   5.363  0.1302 -1.3076 -1.0161
 2285SOL    HW210448   9.811   5.660   5.482  0.4844  1.7487  0.2109
 2286SOL     OW10449   9.865   2.738   7.205  0.3558 -0.3215 -0.2508
 2286SOL    HW110450   9.824   2.825   7.195 -1.4579 -1.0864  0.0607
 2286SOL    HW210451   9.951   2.748   7.165 -0.7860  0.9346 -2.6199
 2287SOL     OW10452   0.713   2.120   3.362  0.0221  0.2992  0.1758
 2287SOL    HW110453   0.743   2.085   3.278  2.3208 -0.8313  1.3660
 2287SOL    HW210454   0.675   2.044   3.407 -0.3811  0.6921  0.5039
 2288SOL     OW10455   3.369   1.077  10.345 -0.6370 -0.0658  0.6291
 2288SOL    HW110456   3.335   1.163  10.372 -2.0269 -0.0479 -1.0426
 2288SOL    HW210457   3.407   1.092  10.259 -0.7799 -1.0972  0.3721
 2289SOL     OW10458   5.902   9.551   1.839  0.4328 -0.4320 -0.2287
 2289SOL    HW110459   5.819   9.596   1.823  1.4883  1.2395 -1.2941
 2289SOL    HW210460   5.939   9.537   1.752  1.8766  0.0913  0.2667
 2290SOL     OW10461   3.861  10.170  10.831 -0.2750 -0.5375 -0.1594
 2290SOL    HW110462   3.805  10.098  10.803  0.2336 -0.1529 -2.3289
 2290SOL    HW210463   3.801  10.236  10.864 -1.1336 -0.2697 -2.1230
 2291SOL     OW10464   5.083  10.785   5.339  0.8949  0.4847 -0.1513
 2291SOL    HW110465   4.996  10.823   5.346  0.3413 -0.8220  0.3710
 2291SOL    HW210466   5.070  10.705   5.288  1.3627 -0.9216  1.8111
 2292SOL     OW10467   7.665   9.161  10.955 -0.4515  0.0099 -0.3737
 2292SOL    HW110468   7.734   9.149  11.020 -1.1266 -0.7652  0.2214
 2292SOL    HW210469   7.698   9.116  10.877  0.0479  0.3151 -0.3393
 2293SOL     OW10470   0.278   4.597   0.880  0.5839  0.1873 -0.1338
 2293SOL    HW110471   0.297   4.538   0.808 -0.5214 -2.5762  1.6343
 2293SOL    HW210472   0.207   4.652   0.847  2.1146  1.0913 -2.0867
 2294SOL     OW10473   7.622   5.470   4.047 -0.3440  0.0715 -0.6412
 2294SOL    HW110474   7.669   5.390   4.024  0.9007  0.7306 -0.5023
 2294SOL    HW210475   7.535   5.440   4.073  0.5688 -1.4106  0.9377
 2295SOL     OW10476   6.193   0.417   7.102 -0.0857 -0.0298 -0.7175
 2295SOL    HW110477   6.101   0.443   7.102  0.4824  2.1864  0.3388
 2295SOL    HW210478   6.220   0.424   7.010 -0.5093  1.2090 -0.7648
 2296SOL     OW10479   0.264  10.469   9.829  0.5014 -0.4350  0.0842
 2296SOL    HW110480   0.196  10.535   9.816  0.7368  0.4714  2.8491
 2296SOL    HW210481   0.330  10.488   9.762  1.2454  3.1633  1.6475
 2297SOL     OW10482   5.133   0.801   4.067  0.2664 -0.1504  0.1536
 2297SOL    HW110483   5.074   0.877   4.064 -2.4242 -2.1133  0.0376
 2297SOL    HW210484   5.115   0.760   4.152  0.5372 -1.5007 -0.4115
 2298SOL     OW10485   1.136   2.030   4.098 -0.3310 -0.5072 -0.2560
 2298SOL    HW110486   1.190   1.999   4.171  0.4015  0.3402 -0.4171
 2298SOL    HW210487   1.171   1.985   4.021 -0.5746 -0.7832 -0.2088
 2299SOL     OW10488   3.462   1.365   1.051  0.4308 -0.4137  0.6288
 2299SOL    HW110489   3.537   1.393   1.103  0.4293 -1.0838  1.0070
 2299SOL    HW210490   3.386   1.396   1.100  0.4502  0.7264 -0.0210
 2300SOL     OW10491   0.621   2.425   4.593  0.0061 -0.1855 -0.0148
 2300SOL    HW110492   0.569   2.477   4.656  0.4065 -0.4438  0.5399
 2300SOL    HW210493   0.625   2.480   4.515 -2.5515 -0.8715 -0.7128
 2301SOL     OW10494   9.342  10.318   2.997 -0.3812  0.1507 -0.0243
 2301SOL    HW110495   9.278  10.262   2.952  0.8467 -0.3944 -1.1522
 2301SOL    HW210496   9.395  10.257   3.049  0.7067  0.2843 -0.9399
 2302SOL     OW10497   4.557   4.486   8.878 -0.4014 -0.1888 -0.5279
 2302SOL    HW110498   4.546   4.506   8.785 -0.8174 -1.0212 -0.6640
 2302SOL    HW210499   4.633   4.428   8.881  1.1071  1.7283 -0.0842
 2303SOL     OW10500  11.104   5.506   7.125  0.4084  0.0933  0.2409
 2303SOL    HW110501  11.062   5.421   7.130  1.8318 -0.5693  2.4429
 2303SOL    HW210502  11.162   5.500   7.049 -0.8273 -0.2052 -0.7109
 2304SOL     OW10503  10.495   9.796   0.895  0.3913  0.1516 -0.1725
 2304SOL    HW110504  10.481   9.771   0.803  0.2265 -2.6991  0.5287
 2304SOL    HW210505  10.491   9.713   0.943 -0.2024  1.6311  2.5290
 2305SOL     OW10506   6.292   8.521   2.934  0.2175 -0.5568 -0.2922
 2305SOL    HW110507   6.231   8.459   2.895 -1.5864 -0.3468  1.9886
 2305SOL    HW210508   6.354   8.466   2.982 -0.0444 -0.6890 -0.0993
 2306SOL     OW10509   3.640   1.169   6.391  0.2517 -0.1622 -0.1873
 2306SOL    HW110510   3.626   1.201   6.480  0.3190 -1.5323  0.3497
 2306SOL    HW210511   3.699   1.094   6.402  1.4695  0.5616 -1.5519
 2307SOL     OW10512   5.670   2.684   2.355 -0.5857 -0.0764 -0.1793
 2307SOL    HW110513   5.600   2.749   2.354 -1.1852 -0.7213 -0.5449
 2307SOL    HW210514   5.675   2.655   2.446 -1.1333 -0.3898 -0.2475
 2308SOL     OW10515   9.485   3.915  10.864 -0.4155 -0.1150 -0.2203
 2308SOL    HW110516   9.439   3.970  10.801 -3.5003  1.2656  2.8566
 2308SOL    HW210517   9.442   3.830  10.858 -0.7408  0.0306 -0.0274
 2309SOL     OW10518  10.981   2.748   3.199  0.1514  0.1332  0.4152
 2309SOL    HW110519  10.896   2.706   3.207  0.5758 -0.7395  0.4295
 2309SOL    HW210520  11.034   2.686   3.149  0.3041  1.3904 -1.0434
 2310SOL     OW10521   3.710   5.844   8.271 -0.4641  0.1875 -0.4350
 2310SOL    HW110522   3.680   5.786   8.341  1.2384 -1.8801 -1.3350
 2310SOL    HW210523   3.794   5.808   8.244 -0.6085  1.4989 -2.8890
 2311SOL     OW10524   1.136   8.461   6.063 -0.1849 -0.5911  0.1255
 2311SOL    HW110525   1.064   8.402   6.083 -0.9871 -0.2347 -1.5370
 2311SOL    HW210526   1.103   8.548   6.087 -0.2028 -0.4633 -0.3470
 2312SOL     OW10527   0.355   0.258   5.425  0.5562  0.3106  0.2902
 2312SOL    HW110528   0.416   0.192   5.394  0.1703  1.1696 -2.5704
 2312SOL    HW210529   0.394   0.291   5.506  0.5145 -3.6172  2.1342
 2313SOL     OW10530   5.805   0.564   0.638 -0.1606 -0.0541 -0.0887
 2313SOL    HW110531   5.805   0.583   0.732 -0.7399 -0.8190  0.0751
 2313SOL    HW210532   5.857   0.634   0.600  0.3498  0.0938  0.8400
 2314SOL     OW10533   2.538   4.803   2.638 -0.6922  0.1472 -0.1900
 2314SOL    HW110534   2.607   4.738   2.652  1.7317  2.6528  0.5827
 2314SOL    HW210535   2.506   4.824   2.726  0.0650  1.4171 -0.1839
 2315SOL     OW10536   0.767   3.958   8.950 -0.1994 -0.0832 -0.0584
 2315SOL    HW110537   0.733   4.005   9.027  0.1593  0.8552 -0.4475
 2315SOL    HW210538   0.856   3.933   8.976 -0.4734 -0.7656  0.2349
 2316SOL     OW10539   2.898   0.757   8.919 -0.5307 -0.0638 -0.2127
 2316SOL    HW110540   2.944   0.791   8.843  2.5774 -1.1838  1.0058
 2316SOL    HW210541   2.882   0.665   8.898 -1.2950  0.0597 -0.1975
 2317SOL     OW10542   3.954   8.146   0.731  0.3561 -0.1898  0.2215
 2317SOL    HW110543   3.861   8.153   0.709  0.1559  1.3323  1.4005
 2317SOL    HW210544   3.983   8.236   0.743  1.6286 -0.7079  1.3412
 2318SOL     OW10545   5.487   5.697   6.301  0.3958  0.1417  0.0835
 2318SOL    HW110546   5.413   5.667   6.353 -1.0279  0.7078 -1.5188
 2318SOL    HW210547   5.455   5.776   6.257  1.9707  0.4308 -0.6326
 2319SOL     OW10548   5.102   5.249  10.711 -0.7332  0.0727 -0.1673
 2319SOL    HW110549   5.182   5.231  10.662 -0.1029 -0.2061  0.9295
 2319SOL    HW210550   5.037   5.189  10.674  0.0850 -1.0941  0.2246
 2320SOL     OW10551   9.041   9.297   3.774  0.0173  0.1574  0.3270
 2320SOL    HW110552   9.015   9.250   3.695  0.0327  0.2105  0.2908
 2320SOL    HW210553   9.130   9.268   3.792 -0.5779 -1.1962  1.3079
 2321SOL     OW10554  10.930   3.212   0.845  0.2475 -0.3753  0.3397
 2321SOL    HW110555  10.852   3.225   0.898  0.0561 -0.0518 -0.0185
 2321SOL    HW210556  10.961   3.125   0.870 -0.1668 -0.4641  0.5581
 2322SOL     OW10557   5.860   9.151   3.137  0.2560  0.0180 -0.0312
 2322SOL    HW110558   5.890   9.236   3.107 -1.2435 -0.1053 -2.0916
 2322SOL    HW210559   5.927   9.090   3.107 -0.0790  0.1702 -1.1155
 2323SOL     OW10560   2.390   2.851   5.311 -0.1352 -0.5916  0.8057
 2323SOL    HW110561   2.388   2.812   5.399  1.8527  1.1130  1.7138
 2323SOL    HW210562   2.417   2.942   5.327  0.2746 -0.2412 -1.5815
 2324SOL     OW10563   5.608   5.391  10.569  0.4420  0.2548 -0.1572
 2324SOL    HW110564   5.645   5.320  10.621  1.7286 -0.2891 -1.7004
 2324SOL    HW210565   5.676   5.458  10.569 -0.0397  0.7431 -0.1326
 2325SOL     OW10566   4.434  10.671   3.680  0.2249  0.5036 -0.4678
 2325SOL    HW110567   4.521  10.671   3.718  0.7344  0.7642 -1.5982
 2325SOL    HW210568   4.385  10.734   3.732  0.8941  0.8209 -0.2124
 2326SOL     OW10569   8.054   2.330   4.546 -0.0388  0.0716  0.0762
 2326SOL    HW110570   7.977   2.378   4.578 -0.4779  0.6929 -1.7405
 2326SOL    HW210571   8.040   2.240   4.575 -0.7712  0.4382  0.9194
 2327SOL     OW10572   8.803   1.514   4.077 -0.2901 -0.6460 -0.5001
 2327SOL    HW110573   8.824   1.458   4.152 -1.4049  1.4769  1.5322
 2327SOL    HW210574   8.712   1.496   4.058 -0.2453 -0.5709 -0.7851
 2328SOL     OW10575   5.730   0.877   5.499  0.6466  0.2493  0.1651
 2328SOL    HW110576   5.721   0.959   5.450  0.6796  0.4957  0.5700
 2328SOL    HW210577   5.722   0.809   5.432 -1.1062  0.5221  0.0590
 2329SOL     OW10578  10.062  10.031   3.160 -0.1913 -0.2372  0.4393
 2329SOL    HW110579  10.055   9.957   3.221 -0.3562 -1.1096 -0.6123
 2329SOL    HW210580  10.066   9.990   3.074  0.2039  0.9758 -0.1287
 2330SOL     OW10581   8.186  10.268   5.543 -0.0146 -0.6898  0.3523
 2330SOL    HW110582   8.244  10.210   5.592 -0.5894 -0.2181  1.6264
 2330SOL    HW210583   8.137  10.210   5.486  0.9438 -1.2077  0.0244
 2331SOL     OW10584   1.220   4.647   6.175 -0.1001 -0.3175  0.1892
 2331SOL    HW110585   1.181   4.728   6.141 -0.1277 -0.6604 -0.6306
 2331SOL    HW210586   1.309   4.647   6.141  0.2265 -0.1459  1.0277
 2332SOL     OW10587   3.920   6.946   7.690 -0.3385 -0.3727  0.0255
 2332SOL    HW110588   3.945   6.981   7.605 -1.0811  2.7839  0.9675
 2332SOL    HW210589   3.849   6.884   7.671 -0.6133  0.4030 -1.6418
 2333SOL     OW10590   0.684   2.056   4.483  0.1360  0.0928  0.2009
 2333SOL    HW110591   0.666   2.099   4.567 -0.1484  1.0587 -0.3442
 2333SOL    HW210592   0.611   1.996   4.471 -0.2985  0.6050  0.2272
 2334SOL     OW10593   2.835   4.789   9.733 -0.1937  0.7966 -0.0129
 2334SOL    HW110594   2.748   4.828   9.736 -0.5499 -0.0261  1.6803
 2334SOL    HW210595   2.873   4.808   9.818  0.3294 -0.9045  0.1809
 2335SOL     OW10596   2.493   5.404   0.684  0.4195 -0.0787 -0.0747
 2335SOL    HW110597   2.530   5.322   0.652 -0.5465 -1.5950  2.4175
 2335SOL    HW210598   2.405   5.407   0.646  0.3575 -0.3364  0.0482
 2336SOL     OW10599   8.200   6.240   0.436  0.3805 -0.4063  0.1628
 2336SOL    HW110600   8.259   6.272   0.504 -0.1189  2.8007 -0.7592
 2336SOL    HW210601   8.217   6.297   0.361 -1.5700 -1.5459 -1.2387
 2337SOL     OW10602   3.776   6.588   9.823 -0.0809 -0.1635 -0.0629
 2337SOL    HW110603   3.813   6.676   9.834 -0.0662 -0.1463 -0.2563
 2337SOL    HW210604   3.823   6.534   9.888 -0.3665  0.0525  0.3302
 2338SOL     OW10605   7.589   8.752   0.982 -0.2632 -0.4296  0.3849
 2338SOL    HW110606   7.671   8.776   1.025  0.1365 -0.3067 -0.4177
 2338SOL    HW210607   7.557   8.677   1.032  0.7262 -0.9481  0.2705
 2339SOL     OW10608   0.565   5.758   6.964 -0.1953 -0.1507  0.0203
 2339SOL    HW110609   0.569   5.717   7.051  0.0767  1.0226  0.5690
 2339SOL    HW210610   0.503   5.703   6.915  1.2085 -2.0438  0.2746
 2340SOL     OW10611   6.577   4.822   5.815 -0.1511  0.3547 -0.0471
 2340SOL    HW110612   6.523   4.825   5.736 -1.4329 -1.0835  0.7158
 2340SOL    HW210613   6.565   4.908   5.855  0.5695  1.1266 -1.4207
 2341SOL     OW10614   3.983   4.806   1.098  0.2031 -1.0988  0.1365
 2341SOL    HW110615   3.910   4.852   1.058  1.3517 -0.7443 -1.6855
 2341SOL    HW210616   3.996   4.728   1.044  0.9364 -1.3356  0.6294
 2342SOL     OW10617   7.384   2.146   9.072 -0.0328 -0.3055  0.1113
 2342SOL    HW110618   7.389   2.073   9.134 -0.0657 -0.0481  0.4190
 2342SOL    HW210619   7.463   2.197   9.089 -0.0298 -0.2483 -0.0784
 2343SOL     OW10620  10.855   5.993   2.571  0.2725  0.2065 -0.1780
 2343SOL    HW110621  10.787   5.990   2.504 -0.5472  1.1066  0.5671
 2343SOL    HW210622  10.807   6.011   2.652  1.3261  0.0187  0.5057
 2344SOL     OW10623   9.828   4.944   0.189  0.1915  0.2234  0.5261
 2344SOL    HW110624   9.776   4.983   0.118  0.0359 -3.0540 -1.3333
 2344SOL    HW210625   9.910   4.993   0.188 -0.7420  1.8539 -0.2159
 2345SOL     OW10626   1.855   9.409  10.421 -0.4106  0.0870 -0.2073
 2345SOL    HW110627   1.820   9.382  10.506 -1.6664 -1.3976 -1.1438
 2345SOL    HW210628   1.827   9.500  10.411  2.4942  1.4381  2.3047
 2346SOL     OW10629   9.874   6.282   6.628 -0.1784 -0.2590 -0.7348
 2346SOL    HW110630   9.914   6.265   6.713 -0.8192  0.0837 -0.3548
 2346SOL    HW210631   9.809   6.213   6.618 -1.7217  1.0147  0.1190
 2347SOL     OW10632   7.007   5.018   9.971 -0.1780  0.0988 -0.2787
 2347SOL    HW110633   7.038   4.996   9.884 -0.5434  0.7417 -0.5785
 2347SOL    HW210634   7.077   5.072  10.009 -0.9682  1.7035 -1.0229
 2348SOL     OW10635   6.615   2.088   0.483 -0.3158 -0.5029  0.1477
 2348SOL    HW110636   6.608   2.029   0.407  0.1231  0.3930 -0.6051
 2348SOL    HW210637   6.600   2.175   0.447 -1.0447 -0.1446  1.2686
 2349SOL     OW10638   6.155  10.797   9.064  0.6323 -0.3379  0.3375
 2349SOL    HW110639   6.216  10.869   9.083 -0.7658  0.9870  0.0079
 2349SOL    HW210640   6.169  10.735   9.135  2.4254 -0.1450  0.2235
 2350SOL     OW10641   6.376  10.283   2.873  0.0008  0.3406 -0.0597
 2350SOL    HW110642   6.385  10.377   2.858  0.7822  0.2767  0.0027
 2350SOL    HW210643   6.322  10.277   2.952 -0.9298  0.7183 -0.6540
 2351SOL     OW10644   8.743   3.540   6.808  0.1271  0.1165  0.3729
 2351SOL    HW110645   8.749   3.598   6.732 -0.2327  0.3552  0.5262
 2351SOL    HW210646   8.832   3.504   6.817  0.1688  0.0678 -0.1697
 2352SOL     OW10647   5.466   6.640   7.365  0.4249  0.1502 -0.2848
 2352SOL    HW110648   5.554   6.638   7.328  0.9087  0.3668  0.8338
 2352SOL    HW210649   5.474   6.694   7.444 -0.4076 -0.9751  0.6061
 2353SOL     OW10650   4.869   5.168   6.586 -0.2623 -0.0690  0.6596
 2353SOL    HW110651   4.782   5.140   6.613 -0.1760  0.1337  1.1550
 2353SOL    HW210652   4.875   5.260   6.614  0.3713 -0.2877  1.2945
 2354SOL     OW10653   3.631  10.577   8.643  0.0146  0.4457 -0.3058
 2354SOL    HW110654   3.589  10.651   8.688 -1.5740 -0.0965 -0.8352
 2354SOL    HW210655   3.670  10.617   8.565 -0.8757  0.7397 -0.6160
 2355SOL     OW10656   8.238   2.668   1.693  0.3113  0.7906 -0.0744
 2355SOL    HW110657   8.307   2.602   1.679  0.4708  0.3195  2.4314
 2355SOL    HW210658   8.157   2.617   1.701 -0.0418  1.1784 -1.0551
 2356SOL     OW10659   1.284  10.076   3.117  0.5618  0.9136  0.8106
 2356SOL    HW110660   1.376  10.052   3.126 -0.0673 -2.5164 -0.2643
 2356SOL    HW210661   1.278  10.117   3.030  1.0853  1.2951  0.9509
 2357SOL     OW10662   3.759   4.070   5.722  0.2017  0.0291  0.5795
 2357SOL    HW110663   3.684   4.110   5.678  0.0679  0.9940  1.6300
 2357SOL    HW210664   3.758   3.979   5.693 -0.7135  0.2974 -0.2902
 2358SOL     OW10665   5.593   7.189   0.123  0.7840 -0.0319  0.0684
 2358SOL    HW110666   5.594   7.262   0.061  2.0559 -0.3020 -0.2708
 2358SOL    HW210667   5.615   7.112   0.070  1.9596 -0.2599  0.8393
 2359SOL     OW10668  10.604   6.090   2.454  0.4130  0.0468  0.0624
 2359SOL    HW110669  10.574   6.078   2.545 -0.0071  1.0560  0.0710
 2359SOL    HW210670  10.524   6.113   2.406  0.6771 -0.2509 -0.5189
 2360SOL     OW10671   2.266   3.599   8.688  0.3961  0.3078  0.3752
 2360SOL    HW110672   2.256   3.694   8.693 -0.3379  0.2036  1.0585
 2360SOL    HW210673   2.348   3.582   8.735 -0.0149  0.5173  1.1993
 2361SOL     OW10674   2.891   7.248   1.287  0.4936 -0.2644 -0.3678
 2361SOL    HW110675   2.859   7.315   1.227  0.8784  1.0545  0.8142
 2361SOL    HW210676   2.960   7.293   1.337  1.8918 -2.0372 -0.6165
 2362SOL     OW10677   3.924   9.978   8.429 -0.0544 -0.0510  0.4272
 2362SOL    HW110678   3.867   9.940   8.495 -3.1468  0.0480 -1.9493
 2362SOL    HW210679   3.908  10.072   8.434  1.1078  0.1488  0.7194
 2363SOL     OW10680   7.398  10.704   7.584 -0.0382 -0.6306 -0.5189
 2363SOL    HW110681   7.451  10.752   7.648  0.3101 -0.6162 -0.8145
 2363SOL    HW210682   7.387  10.618   7.622  0.1532 -0.6155 -0.4258
 2364SOL     OW10683   8.616   8.499   0.605 -0.2515  0.9900 -0.0962
 2364SOL    HW110684   8.627   8.593   0.591  1.0633  0.8612 -0.0696
 2364SOL    HW210685   8.640   8.485   0.696 -0.3899  0.6117 -0.1130
 2365SOL     OW10686   5.639   4.195  10.069 -0.5834 -0.1761 -0.5429
 2365SOL    HW110687   5.545   4.212  10.081 -0.5133  0.3629 -0.7227
 2365SOL    HW210688   5.669   4.266  10.012  0.1244  0.2045  0.2649
 2366SOL     OW10689   3.457   6.932  10.766 -0.2015 -0.5869  0.0140
 2366SOL    HW110690   3.543   6.900  10.794  0.2247 -0.1470 -0.7453
 2366SOL    HW210691   3.426   6.986  10.838  0.8748  0.5262 -0.3266
 2367SOL     OW10692   2.013   8.268   9.996  0.4884 -0.2439 -0.3374
 2367SOL    HW110693   2.079   8.271  10.065  0.7072  0.2329 -0.5589
 2367SOL    HW210694   2.062   8.245   9.917  0.2138 -0.9386 -0.3054
 2368SOL     OW10695   4.732   5.716   6.253  0.1106  0.6542 -0.2658
 2368SOL    HW110696   4.719   5.687   6.163  1.7040  2.0679 -0.9852
 2368SOL    HW210697   4.699   5.806   6.255 -0.4098  0.4613  0.7183
 2369SOL     OW10698   5.903   2.335   7.954 -0.8183 -0.0317 -0.1843
 2369SOL    HW110699   5.865   2.314   7.868  0.3452 -0.6546 -0.5593
 2369SOL    HW210700   5.882   2.428   7.967 -3.2818 -0.5507  0.0682
 2370SOL     OW10701   2.472   9.570   9.073 -0.0084 -0.5614  0.3777
 2370SOL    HW110702   2.552   9.622   9.062  0.1455 -1.1685 -1.9604
 2370SOL    HW210703   2.463   9.560   9.168  0.1857  3.2728  0.9617
 2371SOL     OW10704   6.313   5.291  11.106 -0.1881 -0.3989  0.1923
 2371SOL    HW110705   6.241   5.246  11.150  1.2241 -1.7878  1.1884
 2371SOL    HW210706   6.373   5.315  11.177  1.6750 -1.8261 -0.8064
 2372SOL     OW10707   2.013   7.994   9.266 -0.2168  0.6602 -0.1906
 2372SOL    HW110708   2.059   8.061   9.316  1.5246 -0.6838  0.1319
 2372SOL    HW210709   1.955   7.952   9.329 -0.0144  0.7206  0.0358
 2373SOL     OW10710   2.694   4.998   1.204  0.4209  0.0729 -0.5152
 2373SOL    HW110711   2.656   4.918   1.241  2.7296 -1.8191 -1.9152
 2373SOL    HW210712   2.783   5.001   1.239  1.4490  0.2068 -2.9247
 2374SOL     OW10713   7.266   7.235   5.370 -0.0431 -0.7153 -0.0084
 2374SOL    HW110714   7.304   7.316   5.404 -0.1719  0.2225 -1.9645
 2374SOL    HW210715   7.333   7.201   5.310 -1.2491 -0.3087 -1.6518
 2375SOL     OW10716   4.528   9.627   1.646  0.1087  0.4173 -0.2609
 2375SOL    HW110717   4.547   9.555   1.706  2.0244  0.3275 -0.9305
 2375SOL    HW210718   4.532   9.588   1.559  0.1139  1.1254 -0.5836
 2376SOL     OW10719   1.757   9.063  11.059 -0.5949  0.2377 -0.4682
 2376SOL    HW110720   1.704   8.983  11.052  0.3748 -0.3184 -1.9728
 2376SOL    HW210721   1.693   9.132  11.078 -1.5797 -0.7331 -0.1218
 2377SOL     OW10722   1.317   5.558   5.598 -0.0483 -0.5193 -0.3963
 2377SOL    HW110723   1.325   5.502   5.675  1.6932 -0.2360 -0.3109
 2377SOL    HW210724   1.231   5.537   5.561  0.3328 -2.9122 -0.1202
 2378SOL     OW10725   6.249   0.546   0.624 -0.5545 -0.0763 -0.4924
 2378SOL    HW110726   6.243   0.641   0.626 -3.0776 -0.1866  0.8327
 2378SOL    HW210727   6.265   0.521   0.715 -2.7028 -0.9913 -0.3192
 2379SOL     OW10728   3.055   1.837  10.993  0.6094 -0.1376 -0.1430
 2379SOL    HW110729   2.982   1.876  10.945 -0.0394 -0.5909  0.4600
 2379SOL    HW210730   3.096   1.911  11.038  1.2305  0.2957 -1.3640
 2380SOL     OW10731   9.360  10.229   2.034 -0.0143  0.0659 -0.3782
 2380SOL    HW110732   9.357  10.299   1.969  0.0349  0.4447  0.0261
 2380SOL    HW210733   9.294  10.253   2.099  1.4700  0.8908  0.9146
 2381SOL     OW10734   2.316  10.328   0.107 -0.5368 -0.4003  0.5771
 2381SOL    HW110735   2.266  10.377   0.042  0.2990  0.5505  0.6203
 2381SOL    HW210736   2.342  10.394   0.172  1.9715 -0.5135 -0.1877
 2382SOL     OW10737  10.092   3.491   1.622 -0.5014  0.1345  0.3680
 2382SOL    HW110738  10.165   3.443   1.659  1.6460  3.8668  1.5650
 2382SOL    HW210739  10.116   3.506   1.531 -0.0326  0.7991  0.5910
 2383SOL     OW10740   6.049   7.552  10.310 -0.8593  0.2707 -0.0181
 2383SOL    HW110741   5.975   7.612  10.297 -0.6838  0.4391 -0.2380
 2383SOL    HW210742   6.008   7.471  10.339 -1.0159  0.9186  1.7427
 2384SOL     OW10743   1.872   8.464   5.150 -0.3716  0.1933  0.0474
 2384SOL    HW110744   1.960   8.461   5.188 -1.3138  1.2837  2.5642
 2384SOL    HW210745   1.843   8.372   5.150 -0.5571  0.1749  2.7837
 2385SOL     OW10746   1.024   8.205   7.743  0.6655 -0.1856 -0.3861
 2385SOL    HW110747   1.014   8.137   7.809 -0.8839  0.7704  0.4102
 2385SOL    HW210748   1.086   8.267   7.783  0.3679 -0.0228 -0.1734
 2386SOL     OW10749   9.631  10.237   9.988 -0.5164 -0.3063 -0.2225
 2386SOL    HW110750   9.667  10.319  10.022 -4.0434  0.8085  1.2310
 2386SOL    HW210751   9.641  10.244   9.893  1.2992  0.6999 -0.0023
 2387SOL     OW10752   0.877   1.196   7.421 -0.4693  0.4692 -0.0776
 2387SOL    HW110753   0.875   1.280   7.375  0.1007  0.0800 -0.8366
 2387SOL    HW210754   0.864   1.131   7.352 -0.3940 -0.0966  0.4321
 2388SOL     OW10755   4.737   1.685   7.379 -0.2669 -0.1586  0.0504
 2388SOL    HW110756   4.779   1.628   7.444 -1.1818 -0.9355 -0.0083
 2388SOL    HW210757   4.804   1.747   7.354  1.0640 -1.7665 -0.5316
 2389SOL     OW10758   7.573   3.757   0.839 -0.2615 -0.5181 -0.0509
 2389SOL    HW110759   7.634   3.808   0.891 -1.7245 -0.1119  1.3438
 2389SOL    HW210760   7.561   3.676   0.888  1.3400 -1.8916 -1.7873
 2390SOL     OW10761   4.857  10.214   8.043  0.2677  0.4641  0.0231
 2390SOL    HW110762   4.951  10.194   8.046  0.1200 -0.3261 -0.3475
 2390SOL    HW210763   4.849  10.299   8.087  0.9850 -0.0471  1.1860
 2391SOL     OW10764   2.466   6.731   0.465  0.4337 -0.2021  0.8285
 2391SOL    HW110765   2.501   6.658   0.515 -2.0090 -1.4085  0.9425
 2391SOL    HW210766   2.497   6.809   0.510  1.2473 -1.2005  2.0578
 2392SOL     OW10767   0.858   9.631   1.976 -0.3353  0.5525 -0.0972
 2392SOL    HW110768   0.866   9.725   1.957  1.1298  0.2237 -1.3808
 2392SOL    HW210769   0.930   9.612   2.036 -0.7635  0.2725  0.3403
 2393SOL     OW10770   9.354   3.633   2.966  0.7615  0.4543  0.7175
 2393SOL    HW110771   9.438   3.643   2.920 -0.5830  1.2588 -1.7497
 2393SOL    HW210772   9.335   3.539   2.962  1.3767  0.3125  0.9983
 2394SOL     OW10773   6.149   5.995  10.104 -0.0370  0.4786  0.1104
 2394SOL    HW110774   6.177   6.085  10.123  0.9617  0.1529  0.2143
 2394SOL    HW210775   6.085   6.004  10.034 -0.3481  1.3199  0.4905
 2395SOL     OW10776   8.118   1.196   2.061  0.4701  0.5638 -0.0059
 2395SOL    HW110777   8.192   1.149   2.098  0.4360  1.1930  0.8724
 2395SOL    HW210778   8.043   1.139   2.076  0.6765  0.1930 -0.3678
 2396SOL     OW10779   5.922   5.513   6.334  0.5246  0.0851 -0.0374
 2396SOL    HW110780   5.926   5.421   6.310 -0.0745 -0.2921  1.2058
 2396SOL    HW210781   5.855   5.550   6.277  0.1283 -0.4545  0.0735
 2397SOL     OW10782   7.901   8.466  10.791 -0.0580 -0.4458 -0.4630
 2397SOL    HW110783   7.845   8.521  10.737 -0.4002 -1.1847 -0.8773
 2397SOL    HW210784   7.846   8.439  10.864  0.3205  0.3211  0.1210
 2398SOL     OW10785   2.120   7.242   6.426  0.3422  0.3700  0.3001
 2398SOL    HW110786   2.162   7.288   6.498  1.2889  0.2027 -0.1408
 2398SOL    HW210787   2.145   7.291   6.347 -0.9193  0.7263  0.0877
 2399SOL     OW10788   3.353   3.464   6.787 -0.1570 -0.4212 -0.1978
 2399SOL    HW110789   3.310   3.534   6.738 -1.6653 -1.0147  0.1856
 2399SOL    HW210790   3.409   3.509   6.850 -0.1208  0.4059 -0.8094
 2400SOL     OW10791   7.564   5.316   8.715 -0.2333  0.1138 -0.4341
 2400SOL    HW110792   7.544   5.376   8.643 -1.2315  0.3846  0.0586
 2400SOL    HW210793   7.488   5.258   8.720  1.2752 -2.1414 -1.8031
 2401SOL     OW10794   2.839   6.247   0.891 -0.2013 -0.4964  0.1007
 2401SOL    HW110795   2.817   6.333   0.927  2.4436  0.8686 -1.1587
 2401SOL    HW210796   2.816   6.253   0.798  1.1286 -0.6519 -0.2616
 2402SOL     OW10797   8.885   1.192   3.312 -0.3797 -0.9143  0.2029
 2402SOL    HW110798   8.835   1.267   3.278 -1.4078 -2.0936 -1.0138
 2402SOL    HW210799   8.882   1.202   3.407 -3.0066 -0.9330  0.2016
 2403SOL     OW10800   1.798   3.901   4.927 -0.1710  0.2925 -0.0574
 2403SOL    HW110801   1.707   3.880   4.945 -0.1947  0.7367  0.3575
 2403SOL    HW210802   1.833   3.822   4.885 -0.7202  0.0902 -0.1457
 2404SOL     OW10803   6.355   5.383   8.527  0.6865  0.6090 -0.5278
 2404SOL    HW110804   6.310   5.363   8.609  1.7297  2.2606  0.4872
 2404SOL    HW210805   6.359   5.299   8.481 -0.9483 -0.1228  0.5576
 2405SOL     OW10806  10.668   8.081   4.931 -0.1144 -0.9618 -0.6573
 2405SOL    HW110807  10.611   8.133   4.873 -1.4435 -2.3409 -0.6432
 2405SOL    HW210808  10.677   8.135   5.010  1.4311  0.7905 -1.9289
 2406SOL     OW10809   3.807  10.836   8.468 -0.3447  0.1521 -0.4490
 2406SOL    HW110810   3.778  10.839   8.559  1.7057 -0.2705  0.2716
 2406SOL    HW210811   3.800  10.927   8.438 -0.5744  0.3837  0.2844
 2407SOL     OW10812  10.820   6.492   3.624  0.3034  0.5726  0.0961
 2407SOL    HW110813  10.865   6.575   3.614 -0.3156  0.7567 -1.4303
 2407SOL    HW210814  10.740   6.513   3.671  0.1350  0.8601 -0.3108
 2408SOL     OW10815   5.335   9.756  10.344 -0.6063  0.4159 -0.3927
 2408SOL    HW110816   5.356   9.850  10.343 -0.8456  0.4820  0.1574
 2408SOL    HW210817   5.376   9.723  10.424 -1.1364  0.2005 -0.2038
 2409SOL     OW10818   0.988   4.212   4.334 -0.6778  0.3272  0.3142
 2409SOL    HW110819   1.029   4.210   4.421  1.5759 -1.0667 -0.7066
 2409SOL    HW210820   0.947   4.126   4.325 -1.7478  0.8240  0.3494
 2410SOL     OW10821   9.624   5.392   0.325 -0.1078 -0.3914 -0.1078
 2410SOL    HW110822   9.588   5.313   0.284  1.2891 -1.1329  0.0486
 2410SOL    HW210823   9.710   5.366   0.356  0.5841  1.3304 -0.4713
 2411SOL     OW10824   7.516   9.177   0.834  0.4550  0.0081  0.2054
 2411SOL    HW110825   7.561   9.262   0.840  1.5297 -0.4835 -0.5431
 2411SOL    HW210826   7.507   9.162   0.740 -0.9282 -0.1095  0.3477
 2412SOL     OW10827   1.445   3.970   9.051 -0.0282  0.0128  0.4551
 2412SOL    HW110828   1.524   3.959   8.997 -0.9381 -0.6036 -0.8206
 2412SOL    HW210829   1.451   4.060   9.084  0.4123  0.5437 -0.9726
 2413SOL     OW10830   2.432   8.192   7.278  0.3384 -0.7667  0.4653
 2413SOL    HW110831   2.489   8.207   7.203 -0.1127 -1.1208  0.0442
 2413SOL    HW210832   2.395   8.105   7.262 -0.3000 -0.5483  0.7429
 2414SOL     OW10833   1.616   1.823   0.561 -0.1918  0.1223 -0.3958
 2414SOL    HW110834   1.708   1.844   0.579  0.3660 -0.8961 -1.8431
 2414SOL    HW210835   1.600   1.743   0.612 -0.0505 -0.1042 -0.7041
 2415SOL     OW10836  10.467   4.569   4.834  0.1397 -0.0478  0.2223
 2415SOL    HW110837  10.400   4.632   4.807  1.1256  0.6474 -0.7151
 2415SOL    HW210838  10.531   4.622   4.882  0.6161 -0.4633  0.0483
 2416SOL     OW10839   9.599   8.879   4.187 -0.1649 -0.0716 -0.3060
 2416SOL    HW110840   9.584   8.870   4.281  1.5258  1.3191  0.1503
 2416SOL    HW210841   9.547   8.954   4.161  0.1815  0.1906 -0.2519
 2417SOL     OW10842   1.257   1.148   1.462 -0.0603 -1.0846  0.3242
 2417SOL    HW110843   1.240   1.087   1.533 -1.1246 -1.7998 -0.5145
 2417SOL    HW210844   1.181   1.206   1.462  0.5307 -0.2852  0.5550
 2418SOL     OW10845   7.955   5.173   6.800 -0.3323 -0.8335 -0.5568
 2418SOL    HW110846   7.972   5.217   6.717 -1.9025 -0.4456 -0.7198
 2418SOL    HW210847   7.960   5.080   6.779  0.0184 -0.7342 -0.9173
 2419SOL     OW10848  10.152   1.373   5.232  0.2162 -0.0876 -0.3475
 2419SOL    HW110849  10.082   1.390   5.169  0.5910 -0.2464 -0.8149
 2419SOL    HW210850  10.140   1.282   5.258 -0.6263  0.2897  0.6935
 2420SOL     OW10851   9.752  10.185   8.844  0.7803  0.4580  0.0763
 2420SOL    HW110852   9.777  10.097   8.816  0.9860  0.7005 -0.5079
 2420SOL    HW210853   9.829  10.239   8.826  1.6699  0.3068  2.8294
 2421SOL     OW10854   7.685   3.390   5.123  0.4593  0.0823 -0.2221
 2421SOL    HW110855   7.642   3.418   5.205  1.3579  1.9166 -0.3234
 2421SOL    HW210856   7.614   3.389   5.059  0.0105  0.0660  0.2583
 2422SOL     OW10857   6.910   6.003   1.014 -0.0037  0.8158  0.2018
 2422SOL    HW110858   6.950   5.922   0.981 -2.1493 -1.0797  1.9317
 2422SOL    HW210859   6.902   6.058   0.937  1.7254 -0.4948 -1.0152
 2423SOL     OW10860   3.188   4.216   6.753  0.4727  0.7294  0.4537
 2423SOL    HW110861   3.282   4.228   6.738  0.7882 -0.5612  1.3277
 2423SOL    HW210862   3.147   4.251   6.673  1.6274  2.0738  0.4095
 2424SOL     OW10863  10.895   9.624   6.705  0.0609  0.6335  0.6210
 2424SOL    HW110864  10.898   9.678   6.784 -1.2117 -0.5502  1.5306
 2424SOL    HW210865  10.923   9.537   6.733  0.8554  0.4900 -0.5353
 2425SOL     OW10866   9.754  11.030  10.881  0.2806  0.6529 -0.1530
 2425SOL    HW110867   9.823  11.069  10.935 -0.0732  2.0820 -0.6759
 2425SOL    HW210868   9.705  11.105  10.848 -0.2594 -0.2436 -1.4615
 2426SOL     OW10869   6.335   2.493   9.930 -0.4585  0.3945  0.0151
 2426SOL    HW110870   6.423   2.521   9.905 -1.2445  2.1497 -1.0201
 2426SOL    HW210871   6.347   2.441  10.009  1.2920  2.6135  1.2979
 2427SOL     OW10872  10.162   8.680  10.164 -0.4371 -0.3048  0.4313
 2427SOL    HW110873  10.077   8.663  10.122 -0.6457 -0.8781  1.0586
 2427SOL    HW210874  10.220   8.614  10.128 -0.0043  0.6484 -0.6773
 2428SOL     OW10875   5.295   0.778   0.022  0.5124 -0.4000 -0.4777
 2428SOL    HW110876   5.272   0.694  -0.018  1.6827 -0.7347 -0.4952
 2428SOL    HW210877   5.301   0.838  -0.052 -0.7278 -0.1848 -0.4244
 2429SOL     OW10878   9.809   2.978   0.529 -0.1267 -0.1574  0.1645
 2429SOL    HW110879   9.866   3.016   0.595 -1.6530 -1.3758  2.3359
 2429SOL    HW210880   9.764   3.053   0.490  1.6181  0.6726 -0.3610
 2430SOL     OW10881   7.791   8.666   3.688  0.4009  0.1901 -0.0606
 2430SOL    HW110882   7.760   8.594   3.742 -0.2176  0.3181 -0.2314
 2430SOL    HW210883   7.816   8.734   3.750 -1.2467  0.7191  0.0775
 2431SOL     OW10884   6.263   2.737   2.451  0.1290 -0.3629  0.2009
 2431SOL    HW110885   6.169   2.728   2.467  0.3037 -1.0976  0.9053
 2431SOL    HW210886   6.270   2.804   2.384 -0.9282 -0.6358 -0.2021
 2432SOL     OW10887   5.308   6.849   4.563  0.3850  0.4407  0.5456
 2432SOL    HW110888   5.262   6.928   4.592 -0.1518  0.4688 -0.3387
 2432SOL    HW210889   5.262   6.823   4.483  0.7363 -0.6047  0.6669
 2433SOL     OW10890   4.138  10.318   1.111  0.0720 -0.0690 -0.2145
 2433SOL    HW110891   4.110  10.231   1.141 -1.4330  0.9510  1.5543
 2433SOL    HW210892   4.058  10.370   1.110  1.3455  2.2064  2.1901
 2434SOL     OW10893  10.452   3.839   2.460 -0.1326 -0.1503  0.7039
 2434SOL    HW110894  10.503   3.771   2.417 -0.1193 -0.4181  1.1352
 2434SOL    HW210895  10.515   3.908   2.481 -0.1351 -0.0304  0.3273
 2435SOL     OW10896   4.371   9.303   3.890  0.8142  0.0974  0.5631
 2435SOL    HW110897   4.378   9.374   3.955  2.3699  0.1388  0.3804
 2435SOL    HW210898   4.358   9.224   3.942  1.7863  0.1681  0.9388
 2436SOL     OW10899   6.746   5.908  10.353 -0.1241  0.2915 -0.3293
 2436SOL    HW110900   6.668   5.879  10.401  0.7352 -1.6290  0.0141
 2436SOL    HW210901   6.807   5.934  10.422 -0.5034  1.9975 -0.6053
 2437SOL     OW10902  10.818   1.367  10.961  0.7841  0.1484 -0.3829
 2437SOL    HW110903  10.758   1.419  11.014  0.9714  0.2363 -0.2575
 2437SOL    HW210904  10.788   1.382  10.871  0.5418  0.0921 -0.3139
 2438SOL     OW10905   2.528   6.200   3.986 -0.3491 -0.0411 -0.1589
 2438SOL    HW110906   2.493   6.286   4.008 -2.6857 -0.7306 -0.9313
 2438SOL    HW210907   2.531   6.199   3.890  1.9651 -0.0093 -0.1499
 2439SOL     OW10908   3.370   4.422   9.449 -0.2876 -0.5512  0.1294
 2439SOL    HW110909   3.391   4.334   9.481  0.2981 -0.4249  0.1004
 2439SOL    HW210910   3.344   4.469   9.528  0.6075 -0.4025  0.3474
 2440SOL     OW10911   1.025   6.679   3.614 -0.2587 -0.0521  0.3115
 2440SOL    HW110912   0.959   6.658   3.680  0.1859 -0.6409  0.5787
 2440SOL    HW210913   0.982   6.659   3.531 -1.0499  1.2939  0.3530
 2441SOL     OW10914   4.236   6.081   2.314  0.1964  0.1314 -0.4367
 2441SOL    HW110915   4.144   6.105   2.326 -0.3919 -1.1856 -2.0611
 2441SOL    HW210916   4.285   6.160   2.341 -1.3340  0.6317  1.0709
 2442SOL     OW10917   5.324   1.764   3.203  0.3547  0.1893 -0.4620
 2442SOL    HW110918   5.388   1.721   3.258 -2.3467 -1.8744  1.3341
 2442SOL    HW210919   5.349   1.741   3.114 -0.0314 -3.9649  0.3343
 2443SOL     OW10920   3.349   9.718   8.271  0.0621  0.7744  0.5138
 2443SOL    HW110921   3.333   9.637   8.319 -0.6156  1.7893  2.0856
 2443SOL    HW210922   3.444   9.723   8.261  0.0543 -0.8807 -0.8958
 2444SOL     OW10923   5.659   7.541   0.125 -0.2439  0.3475  0.1104
 2444SOL    HW110924   5.706   7.522   0.043 -0.2575 -0.6783  0.3220
 2444SOL    HW210925   5.690   7.475   0.186 -2.1637 -0.5942  0.1707
 2445SOL     OW10926   5.988   0.319   3.871  0.2511 -0.3896 -0.0783
 2445SOL    HW110927   5.936   0.388   3.829 -0.1471 -1.6099 -1.6541
 2445SOL    HW210928   6.028   0.363   3.946 -0.9323  1.2575 -0.3473
 2446SOL     OW10929   7.898   9.965   0.265  0.0531 -0.1790 -0.0704
 2446SOL    HW110930   7.979   9.957   0.214  1.4873  3.1706  1.4168
 2446SOL    HW210931   7.840  10.015   0.208  0.2441  0.2200  0.0796
 2447SOL     OW10932  10.628   2.059   7.398 -0.2943  0.3312  0.1468
 2447SOL    HW110933  10.678   2.123   7.347  2.1217  0.4039  2.3519
 2447SOL    HW210934  10.696   2.003   7.438 -2.1795 -1.5766  0.8763
 2448SOL     OW10935   3.632   9.636   6.897  0.0728 -0.6483 -0.3105
 2448SOL    HW110936   3.641   9.696   6.823  4.4980  0.6789  0.9656
 2448SOL    HW210937   3.617   9.693   6.972  1.6727 -1.3410  0.5765
 2449SOL     OW10938   2.660   5.780   4.406 -0.0107 -0.2755 -0.0274
 2449SOL    HW110939   2.591   5.718   4.429 -0.8281  0.6411  0.0332
 2449SOL    HW210940   2.702   5.741   4.330 -0.6790 -0.7835 -0.1455
 2450SOL     OW10941   1.122  11.028   8.061 -0.3041  0.5725 -0.5019
 2450SOL    HW110942   1.152  10.967   8.128 -0.0616  0.7153 -0.4821
 2450SOL    HW210943   1.058  11.084   8.106 -0.4134  0.4339 -0.4826
 2451SOL     OW10944   5.723   7.533   8.720  0.1765  0.3996 -0.1651
 2451SOL    HW110945   5.679   7.548   8.804  2.0581 -1.5366  1.2793
 2451SOL    HW210946   5.806   7.581   8.727  0.7908 -0.5797 -0.4564
 2452SOL     OW10947   5.420   0.296   2.967  0.1322  0.1018  1.1941
 2452SOL    HW110948   5.429   0.276   3.060  0.8483 -1.2998  0.8428
 2452SOL    HW210949   5.425   0.211   2.923  0.1460  0.7717 -0.1571
 2453SOL     OW10950   4.786   6.358   5.067 -0.0706  0.8203 -0.1422
 2453SOL    HW110951   4.796   6.263   5.060  1.9257  0.8958  0.8309
 2453SOL    HW210952   4.697   6.371   5.100 -0.6787 -0.6483 -1.1143
 2454SOL     OW10953   0.253   0.543   3.095 -0.8396 -0.3804  0.4108
 2454SOL    HW110954   0.332   0.545   3.149  0.5972 -0.6600 -1.5550
 2454SOL    HW210955   0.232   0.636   3.081  0.7910 -0.1970 -1.2282
 2455SOL     OW10956   5.168   7.447   4.451  0.1451 -0.0211  0.4849
 2455SOL    HW110957   5.252   7.460   4.406  0.7349 -1.4185  1.1039
 2455SOL    HW210958   5.160   7.352   4.459 -1.8455  0.0640 -0.1575
 2456SOL     OW10959  11.002   6.092   3.004 -0.9444  0.4291  0.1189
 2456SOL    HW110960  10.909   6.071   3.016 -0.4500 -1.3210  1.1309
 2456SOL    HW210961  11.041   6.078   3.089  0.6310 -0.9106 -0.7777
 2457SOL     OW10962  10.353   5.886  10.406 -0.3218 -0.0551  0.2199
 2457SOL    HW110963  10.331   5.891  10.499 -0.2884  1.9240  0.1612
 2457SOL    HW210964  10.407   5.807  10.398  1.1172  0.6376  2.2236
 2458SOL     OW10965  10.850   9.922   8.465  0.0581  0.2152 -0.4889
 2458SOL    HW110966  10.900   9.967   8.396  2.8047  1.0537  1.8480
 2458SOL    HW210967  10.890   9.951   8.546 -2.3044 -1.5985  1.4702
 2459SOL     OW10968   9.812   8.587   0.030  0.5007 -0.1747 -0.6070
 2459SOL    HW110969   9.785   8.519   0.091 -0.3385  0.2549 -0.4732
 2459SOL    HW210970   9.781   8.557  -0.056 -0.5134  0.3438 -0.4455
 2460SOL     OW10971   5.708   8.169   3.846  0.0377  0.5077 -0.2810
 2460SOL    HW110972   5.713   8.186   3.752 -1.9895 -0.1936 -0.5659
 2460SOL    HW210973   5.788   8.208   3.882  1.8305 -0.8562 -2.5167
 2461SOL     OW10974   6.290   7.014   0.370  0.0781 -0.2049 -0.8027
 2461SOL    HW110975   6.274   6.939   0.426  2.0147  0.0694  0.1915
 2461SOL    HW210976   6.371   6.994   0.325 -0.4306  0.4407 -2.0708
 2462SOL     OW10977   1.990   4.957   4.684 -0.0004  0.0572 -0.4838
 2462SOL    HW110978   2.018   4.868   4.659 -1.4116 -1.2077  2.0026
 2462SOL    HW210979   2.042   4.977   4.762  0.2911  1.4572 -1.0119
 2463SOL     OW10980   2.980   6.578   0.747  0.1350 -0.3019  0.2222
 2463SOL    HW110981   3.013   6.666   0.734 -1.0959  0.3936  1.4806
 2463SOL    HW210982   2.947   6.551   0.661 -0.0766  0.7262 -0.0250
 2464SOL     OW10983   3.333   4.949   3.859 -1.0313 -0.1212 -0.4235
 2464SOL    HW110984   3.282   4.870   3.841 -0.0056 -0.9254  0.0892
 2464SOL    HW210985   3.391   4.925   3.932  1.2175  0.1963 -1.9831
 2465SOL     OW10986   5.746   4.433   4.730  0.5296 -0.2536  0.4469
 2465SOL    HW110987   5.713   4.506   4.782 -0.1352  0.6243 -1.1445
 2465SOL    HW210988   5.799   4.382   4.791  2.3252  2.3751  1.2698
 2466SOL     OW10989   3.865   5.427   3.635 -0.7643  0.0325  0.1173
 2466SOL    HW110990   3.954   5.392   3.634 -1.2336 -1.2196 -1.7103
 2466SOL    HW210991   3.874   5.517   3.605 -0.3226 -0.7957 -2.4435
 2467SOL     OW10992   8.455  10.928   9.559 -0.5233  0.5496 -0.3229
 2467SOL    HW110993   8.364  10.956   9.552 -0.6380  0.0625 -0.7927
 2467SOL    HW210994   8.468  10.867   9.486 -0.5225 -1.3405  1.1865
 2468SOL     OW10995   4.881   9.892   0.266  0.0193  0.0477  0.2186
 2468SOL    HW110996   4.896   9.973   0.218  1.0201 -0.4614 -0.3731
 2468SOL    HW210997   4.847   9.831   0.200  0.3277 -0.3303  0.4042
 2469SOL     OW10998   0.654  10.592   2.993 -0.2249 -0.0658  0.1654
 2469SOL    HW110999   0.690  10.540   3.065  1.7190  1.9303  0.7291
 2469SOL    HW211000   0.562  10.604   3.016  0.0873 -0.4003  1.7396
 2470SOL     OW11001   1.787  10.161   8.393  0.7888 -0.1642  0.1984
 2470SOL    HW111002   1.795  10.180   8.486 -0.9467 -0.1671  0.3846
 2470SOL    HW211003   1.877  10.157   8.361  1.4225 -0.6888  1.9638
 2471SOL     OW11004   6.329   5.359   3.509  0.6105  0.4378 -0.6303
 2471SOL    HW111005   6.283   5.323   3.433 -0.4863  0.5502 -0.0434
 2471SOL    HW211006   6.260   5.375   3.573  1.6749 -1.0678  0.9743
 2472SOL     OW11007   8.375   7.962   4.293 -0.5305 -0.6966  0.2630
 2472SOL    HW111008   8.388   7.881   4.342 -0.5408 -0.3643  0.8385
 2472SOL    HW211009   8.453   8.015   4.315 -0.7315 -0.3888  0.2429
 2473SOL     OW11010   3.071   5.017   5.909  0.0047  0.6243 -1.3136
 2473SOL    HW111011   2.985   5.057   5.899 -0.1646  0.4627 -0.5866
 2473SOL    HW211012   3.108   5.057   5.988 -0.6113 -1.3458  0.0606
 2474SOL     OW11013   5.745   4.441  10.002  0.0040  0.7357 -0.1939
 2474SOL    HW111014   5.823   4.453  10.055 -0.0118 -0.8560  0.2488
 2474SOL    HW211015   5.720   4.529   9.975  1.3641  1.3567  0.4899
 2475SOL     OW11016   4.263   0.656   8.413 -0.9455 -0.1768  0.2614
 2475SOL    HW111017   4.223   0.624   8.332  1.5333 -0.5476 -0.9076
 2475SOL    HW211018   4.316   0.731   8.385  0.1297 -0.4502  1.4766
 2476SOL     OW11019   1.296   4.487   3.141 -0.2961  0.9392 -0.3450
 2476SOL    HW111020   1.284   4.474   3.047  0.3502 -2.2381 -0.0935
 2476SOL    HW211021   1.370   4.548   3.147 -1.6617  2.8819 -1.7975
 2477SOL     OW11022  11.011   6.888  10.260 -0.3685 -0.2612 -0.1480
 2477SOL    HW111023  11.074   6.870  10.329 -0.8444  0.4580  0.4930
 2477SOL    HW211024  11.061   6.879  10.179  0.1714 -1.1937  0.2804
 2478SOL     OW11025   8.582   2.716   7.044  0.7705  0.3073 -0.1169
 2478SOL    HW111026   8.646   2.785   7.025  0.5075  0.9049  1.0708
 2478SOL    HW211027   8.584   2.707   7.140  0.5379 -1.0880 -0.2210
 2479SOL     OW11028   6.569   3.835   9.681  0.1814 -0.1986 -0.3079
 2479SOL    HW111029   6.554   3.830   9.586 -1.7902  1.0071 -0.0935
 2479SOL    HW211030   6.565   3.928   9.701 -0.0829 -0.4895  1.0771
 2480SOL     OW11031   4.539   7.019   1.486 -0.4042  0.1379 -0.7677
 2480SOL    HW111032   4.482   7.060   1.421 -0.4769  0.0377 -0.7678
 2480SOL    HW211033   4.626   7.056   1.469 -0.1155 -1.0251 -1.8918
 2481SOL     OW11034   3.037   6.957   0.150 -0.7439 -0.3947  0.1425
 2481SOL    HW111035   3.069   6.905   0.076 -0.6906 -1.7595  1.1024
 2481SOL    HW211036   3.116   7.001   0.184 -0.1604 -2.1991  1.2721
 2482SOL     OW11037   7.434   1.277   9.655  0.6833  0.4897 -0.1029
 2482SOL    HW111038   7.525   1.248   9.653  0.4837 -0.1899 -1.8619
 2482SOL    HW211039   7.387   1.208   9.702  0.7269 -0.4540 -1.3791
 2483SOL     OW11040   6.734  10.989   2.133 -0.5086 -0.3502 -0.0081
 2483SOL    HW111041   6.642  11.018   2.132 -0.4630 -0.1804 -1.2641
 2483SOL    HW211042   6.781  11.061   2.174 -0.6684  0.5266 -1.2942
 2484SOL     OW11043   5.510   5.551   8.939  0.2469  0.1031  0.0336
 2484SOL    HW111044   5.563   5.479   8.905 -0.0297  0.4742 -1.2671
 2484SOL    HW211045   5.557   5.582   9.016  1.5449 -0.0590 -0.6547
 2485SOL     OW11046   0.060   0.997   6.095  0.3602  0.0129 -0.1391
 2485SOL    HW111047   0.052   1.003   6.000  0.8822  3.1928 -0.0931
 2485SOL    HW211048   0.124   0.927   6.110 -0.4443 -1.1866 -2.0418
 2486SOL     OW11049   5.802   7.332   4.130 -0.1508 -0.1524 -0.0750
 2486SOL    HW111050   5.762   7.284   4.202  1.1270  1.0628  1.5025
 2486SOL    HW211051   5.751   7.306   4.053 -1.5396 -1.4994  1.2328
 2487SOL     OW11052   9.663   8.907  10.509  0.1202  0.1575  0.2312
 2487SOL    HW111053   9.736   8.927  10.568 -0.8796  2.2115  0.8389
 2487SOL    HW211054   9.674   8.968  10.436  2.6870 -3.7710 -3.1687
 2488SOL     OW11055   5.851   2.773   9.409  0.3825  0.2037 -0.4100
 2488SOL    HW111056   5.919   2.828   9.371  0.3740  0.5567  0.0794
 2488SOL    HW211057   5.859   2.690   9.362  1.9038 -0.1497  0.4198
 2489SOL     OW11058  11.022   9.920   3.351  0.1025  0.3689 -0.1438
 2489SOL    HW111059  11.091   9.926   3.416  0.4802 -1.0042 -0.4071
 2489SOL    HW211060  11.041   9.991   3.290 -0.4234  1.8705  1.3571
 2490SOL     OW11061  10.090   0.439   5.369 -0.1222  0.2173  0.1865
 2490SOL    HW111062  10.013   0.445   5.314  0.5504 -1.7150 -1.0850
 2490SOL    HW211063  10.163   0.428   5.308  0.8586 -0.3421  1.3973
 2491SOL     OW11064   8.135   9.693  10.132  0.2469  0.2438 -0.2965
 2491SOL    HW111065   8.198   9.706  10.202  2.8076 -2.1948 -1.9003
 2491SOL    HW211066   8.137   9.775  10.082  0.1949  1.1254  1.1091
 2492SOL     OW11067   1.214   6.774   7.070 -0.5301  0.3258  0.5490
 2492SOL    HW111068   1.196   6.830   6.995 -3.6459  1.0335  1.6624
 2492SOL    HW211069   1.269   6.704   7.036 -1.7514  0.6617 -2.3911
 2493SOL     OW11070   1.029   0.568   7.270  0.2986 -0.1068 -0.4544
 2493SOL    HW111071   1.007   0.605   7.185 -2.0653 -0.8253 -0.2384
 2493SOL    HW211072   0.985   0.626   7.333 -0.2907 -1.1183  0.0963
 2494SOL     OW11073   8.168   1.233  10.114  0.4066 -0.6046 -0.2650
 2494SOL    HW111074   8.245   1.195  10.072 -0.4778 -2.1392 -0.5886
 2494SOL    HW211075   8.201   1.274  10.193  1.6524 -0.5733 -0.7770
 2495SOL     OW11076   5.687   8.368   1.948  0.3630  0.0513  0.3089
 2495SOL    HW111077   5.746   8.383   1.873  1.4650 -0.1965  1.0984
 2495SOL    HW211078   5.689   8.274   1.962 -2.2222 -0.3231 -1.1844
 2496SOL     OW11079   7.255  10.369   6.668  0.4913  0.0225 -0.3230
 2496SOL    HW111080   7.160  10.377   6.677  0.5309  0.1254  0.0217
 2496SOL    HW211081   7.282  10.450   6.626  0.3821 -0.1682 -0.7606
 2497SOL     OW11082   4.657   6.110  10.859  0.1420 -0.2315  0.3724
 2497SOL    HW111083   4.635   6.184  10.803  0.1353 -0.5878 -0.1019
 2497SOL    HW211084   4.643   6.142  10.948  0.4801  0.4467  0.1861
 2498SOL     OW11085   4.527   3.634  10.250  0.4519 -0.0381  0.3329
 2498SOL    HW111086   4.554   3.703  10.189  0.9892 -0.6157 -0.0985
 2498SOL    HW211087   4.476   3.573  10.196  1.8840 -1.1458  0.1679
 2499SOL     OW11088   3.639  10.292   8.599  0.3482 -0.2411 -0.4957
 2499SOL    HW111089   3.708  10.271   8.662  0.3616  1.2587  0.0321
 2499SOL    HW211090   3.619  10.384   8.616 -1.1800 -0.4134 -1.2321
 2500SOL     OW11091   4.302   9.069   4.635  0.1639  0.0981 -0.2847
 2500SOL    HW111092   4.386   9.027   4.620 -0.2537 -1.2214  0.9226
 2500SOL    HW211093   4.240   8.997   4.644 -0.6385  0.9530  1.4345
 2501SOL     OW11094  10.089   0.702   1.303  0.5176  0.7649 -0.3762
 2501SOL    HW111095  10.141   0.701   1.383  0.2047 -1.1844 -0.1597
 2501SOL    HW211096  10.073   0.795   1.287 -0.5753  1.1914  2.5757
 2502SOL     OW11097   8.798   8.660   4.111  0.0693  0.0490  0.1037
 2502SOL    HW111098   8.773   8.567   4.110  0.7888 -0.1749  0.9590
 2502SOL    HW211099   8.857   8.667   4.186  2.7088  0.4845 -1.8630
 2503SOL     OW11100  10.697   8.888   3.774  0.2080  0.7292 -0.2900
 2503SOL    HW111101  10.738   8.948   3.837  0.5542  0.4966 -0.2898
 2503SOL    HW211102  10.617   8.859   3.817  2.4652 -2.8607  2.0344
 2504SOL     OW11103   2.443   1.732   9.832  0.4165 -0.0458 -0.1803
 2504SOL    HW111104   2.407   1.713   9.919 -0.8318  0.5229 -0.5443
 2504SOL    HW211105   2.527   1.775   9.849  1.9049 -3.0531  0.6878
 2505SOL     OW11106   9.224   7.396   5.591  0.0176 -0.0704 -0.4217
 2505SOL    HW111107   9.216   7.492   5.593 -0.6982 -0.1038 -1.1877
 2505SOL    HW211108   9.257   7.374   5.678 -1.2263  0.7688  0.3063
 2506SOL     OW11109   4.956   7.245   4.238  0.0078 -0.2575  0.0532
 2506SOL    HW111110   4.896   7.278   4.171  0.4468 -1.1947 -0.8222
 2506SOL    HW211111   5.021   7.195   4.190  1.1286  0.1873  1.0638
 2507SOL     OW11112   0.139  10.001   7.145  0.1421 -0.2781 -0.1279
 2507SOL    HW111113   0.127   9.967   7.233  2.8135 -0.5327  0.1991
 2507SOL    HW211114   0.115   9.929   7.087 -1.0798 -0.2914  0.3635
 2508SOL     OW11115  10.528   3.515   1.505 -0.5699 -0.6470  0.1505
 2508SOL    HW111116  10.562   3.594   1.546  2.8789 -1.5415 -0.7087
 2508SOL    HW211117  10.516   3.539   1.413  1.3905 -1.3044 -0.3117
 2509SOL     OW11118   4.518   0.234   3.643 -0.0837 -0.6766  0.2053
 2509SOL    HW111119   4.564   0.317   3.628 -0.1467 -0.0344  2.9984
 2509SOL    HW211120   4.517   0.225   3.738 -2.8851 -2.3102  0.1089
 2510SOL     OW11121   1.276   1.198   8.404 -0.2711  0.0398 -0.0292
 2510SOL    HW111122   1.366   1.179   8.430 -0.3867  1.1455  1.3175
 2510SOL    HW211123   1.276   1.189   8.309  1.3802  0.4331 -0.1003
 2511SOL     OW11124   1.888  10.435   8.234  0.4703  0.0474  0.2780
 2511SOL    HW111125   1.931  10.519   8.220 -1.3602  1.1408  0.8730
 2511SOL    HW211126   1.865  10.435   8.327 -1.2849 -0.2320 -0.1265
 2512SOL     OW11127   5.095   3.456   2.811 -0.0909 -0.1529 -0.0782
 2512SOL    HW111128   5.048   3.529   2.771  0.6603 -0.7815 -2.2430
 2512SOL    HW211129   5.171   3.496   2.853 -1.1602  0.5770  1.2401
 2513SOL     OW11130   6.035  10.619   6.218 -0.2881 -0.1976 -0.3141
 2513SOL    HW111131   5.973  10.580   6.280 -0.2959 -0.4132 -0.4604
 2513SOL    HW211132   6.031  10.563   6.141  1.1935 -1.1000  0.2272
 2514SOL     OW11133   4.470   5.542   1.222 -0.4026 -0.5073  0.2908
 2514SOL    HW111134   4.400   5.583   1.272 -1.4748 -0.2900 -1.3232
 2514SOL    HW211135   4.429   5.468   1.177 -0.0759  0.6345 -2.0418
 2515SOL     OW11136   7.506   0.680   7.107 -0.2626 -0.6854  0.3520
 2515SOL    HW111137   7.445   0.722   7.047 -0.4689 -0.1326  0.9343
 2515SOL    HW211138   7.500   0.587   7.087 -1.4264 -0.6622  0.5197
 2516SOL     OW11139   4.204   5.026   4.031 -1.1139  0.1112 -0.0874
 2516SOL    HW111140   4.199   4.981   4.115 -1.0166  1.6620  0.7826
 2516SOL    HW211141   4.265   4.974   3.979  0.5866  0.3316  1.5913
 2517SOL     OW11142   9.030   0.043   6.094  0.2227  0.3979  0.0136
 2517SOL    HW111143   9.112   0.028   6.047  1.3662 -1.0426  2.3282
 2517SOL    HW211144   8.966  -0.012   6.048  0.7658  0.7051 -1.1560
 2518SOL     OW11145   2.820   4.486   7.966  0.2622 -0.1998  0.5890
 2518SOL    HW111146   2.904   4.528   7.983  0.4595 -0.7166  0.9285
 2518SOL    HW211147   2.767   4.553   7.923  0.7860  0.1853  0.5391
 2519SOL     OW11148   7.433   6.217   2.511  0.1163 -0.1130  0.8007
 2519SOL    HW111149   7.495   6.217   2.584  0.8025 -0.1983  0.2312
 2519SOL    HW211150   7.439   6.129   2.474  0.7901  0.3272 -0.1855
 2520SOL     OW11151   1.908   7.636   5.906 -0.2598  0.6477  0.4433
 2520SOL    HW111152   1.975   7.702   5.895 -1.7010  2.2070  0.6432
 2520SOL    HW211153   1.878   7.616   5.817  1.9139 -1.7332  0.1189
 2521SOL     OW11154   4.218   3.871  10.773 -0.1045 -0.6039  0.1058
 2521SOL    HW111155   4.131   3.910  10.778  0.4756  0.6063  2.1180
 2521SOL    HW211156   4.237   3.845  10.863  1.5590 -0.9846 -0.3213
 2522SOL     OW11157   2.900  10.076   5.772  0.0019  0.5950  0.2431
 2522SOL    HW111158   2.912  10.023   5.694 -2.0492 -2.0973  1.5814
 2522SOL    HW211159   2.826  10.133   5.751 -1.3926 -1.0263  0.5681
 2523SOL     OW11160   1.980   8.585   1.287 -1.3440  0.0217  0.5880
 2523SOL    HW111161   2.035   8.628   1.352  0.1369  0.4610 -0.8999
 2523SOL    HW211162   1.953   8.655   1.227 -0.9525 -0.6956 -0.4554
 2524SOL     OW11163   8.738   0.547   9.084 -0.6963 -0.5296  0.1062
 2524SOL    HW111164   8.817   0.558   9.031 -0.2700 -1.1300  0.5969
 2524SOL    HW211165   8.705   0.460   9.060 -0.8129 -0.5699  0.4053
 2525SOL     OW11166   9.718   2.257   0.330 -0.5092 -0.3733  0.4567
 2525SOL    HW111167   9.698   2.217   0.414 -0.0876  0.1470  0.8137
 2525SOL    HW211168   9.634   2.263   0.286 -0.8292 -0.0955  1.0931
 2526SOL     OW11169   6.314   4.084   5.569 -0.0313 -0.6532 -0.4678
 2526SOL    HW111170   6.292   4.176   5.554 -0.7813 -1.0944 -2.2789
 2526SOL    HW211171   6.241   4.036   5.530 -0.1055 -2.0298  1.2454
 2527SOL     OW11172   1.940   1.837   1.694 -0.3212  0.5754 -0.1316
 2527SOL    HW111173   1.851   1.803   1.698  0.2273 -0.8904  0.1292
 2527SOL    HW211174   1.978   1.796   1.617  0.3810  0.5283  0.2314
 2528SOL     OW11175   1.696  10.804   8.763  0.0921 -0.1725 -0.2483
 2528SOL    HW111176   1.618  10.759   8.732 -0.6774  0.5185  0.6450
 2528SOL    HW211177   1.724  10.756   8.841  1.0286 -0.8727 -0.9822
 2529SOL     OW11178   5.733   1.756   5.559 -0.0735  0.6389 -0.3273
 2529SOL    HW111179   5.704   1.795   5.641  0.2935 -0.7758  0.5087
 2529SOL    HW211180   5.661   1.773   5.498 -0.3615  1.6829  0.2854
 2530SOL     OW11181   9.667   1.529   9.769 -0.3601  0.0191 -0.0221
 2530SOL    HW111182   9.628   1.447   9.796 -1.5887  0.2251 -1.0685
 2530SOL    HW211183   9.628   1.595   9.827  2.0685 -0.2779  2.1442
 2531SOL     OW11184   6.379   5.347   1.071  0.3671  0.2104  0.6064
 2531SOL    HW111185   6.330   5.351   1.153 -1.0340  2.4115 -0.2520
 2531SOL    HW211186   6.318   5.307   1.009  0.7858  0.1392  0.2377
 2532SOL     OW11187   0.018  10.941   4.060  0.2547 -0.4888 -0.0757
 2532SOL    HW111188   0.112  10.925   4.070  0.2050 -0.4924  0.4069
 2532SOL    HW211189  -0.012  10.875   3.997  0.1456 -1.9958  1.4763
 2533SOL     OW11190   8.696   4.929   5.635 -0.0597 -0.2089  0.7681
 2533SOL    HW111191   8.736   4.854   5.677  3.5748  1.1229  0.0234
 2533SOL    HW211192   8.665   4.984   5.707 -0.0961 -1.0413  1.3967
 2534SOL     OW11193   6.065   7.461   7.088  0.0824 -0.0911 -0.0668
 2534SOL    HW111194   6.002   7.390   7.094 -1.7097  1.5208  1.5901
 2534SOL    HW211195   6.062   7.488   6.996 -1.2325 -0.4338 -0.1396
 2535SOL     OW11196   1.270  10.249  10.037  0.3400 -0.0363  0.0218
 2535SOL    HW111197   1.293  10.307  10.110 -1.9490  0.5200  0.3970
 2535SOL    HW211198   1.311  10.290   9.961  1.0217  0.5587  0.6837
 2536SOL     OW11199   1.282   9.671   8.362  0.5562  0.2418 -0.0031
 2536SOL    HW111200   1.281   9.645   8.454  0.3122  0.3242  0.0189
 2536SOL    HW211201   1.226   9.748   8.358 -0.3082 -0.3977 -0.4144
 2537SOL     OW11202   7.691   6.635   0.236 -0.4625  0.1739 -0.0802
 2537SOL    HW111203   7.678   6.590   0.153  0.3588 -0.1080 -0.0668
 2537SOL    HW211204   7.690   6.565   0.302 -0.2653  0.3004  0.0574
 2538SOL     OW11205   9.162   0.661   2.527  0.3938  0.2787 -0.3752
 2538SOL    HW111206   9.118   0.626   2.605  1.0383 -0.1189 -0.1831
 2538SOL    HW211207   9.142   0.597   2.458  1.6404 -0.5451 -0.0042
 2539SOL     OW11208   1.020   3.300   9.032 -0.3666 -0.1180 -0.0035
 2539SOL    HW111209   1.000   3.367   8.966 -1.8151  0.2450  0.7542
 2539SOL    HW211210   1.107   3.324   9.064 -0.9141  1.5305  0.3655
 2540SOL     OW11211   9.563   7.310   8.175  0.1378 -0.1875 -0.5987
 2540SOL    HW111212   9.481   7.289   8.129  0.7853  0.3389 -2.0520
 2540SOL    HW211213   9.544   7.291   8.267 -1.4109 -0.6863 -0.9850
 2541SOL     OW11214   2.294   3.268   8.824  0.4902 -0.0764  0.2720
 2541SOL    HW111215   2.243   3.332   8.873  0.9329 -0.4322  1.2071
 2541SOL    HW211216   2.264   3.183   8.856 -0.2917 -0.3841 -1.1549
 2542SOL     OW11217   2.652   8.469  10.925 -0.2944  0.7343  0.3950
 2542SOL    HW111218   2.615   8.556  10.911  0.4195  0.7798 -1.5239
 2542SOL    HW211219   2.735   8.471  10.877  0.4114 -0.5614  1.5003
 2543SOL     OW11220   6.683   0.272   9.415 -0.1231 -0.2464 -0.2915
 2543SOL    HW111221   6.766   0.314   9.390  0.0100  0.6186  1.4604
 2543SOL    HW211222   6.638   0.257   9.332  0.6497  1.6698 -1.1091
 2544SOL     OW11223   3.684   1.435   1.841 -0.0226 -0.7894  0.6340
 2544SOL    HW111224   3.627   1.379   1.893 -1.0245 -0.8121 -0.4591
 2544SOL    HW211225   3.685   1.396   1.754 -2.4004  1.8871 -0.7615
 2545SOL     OW11226  10.819   9.667   7.946  0.0637  0.5379 -0.7103
 2545SOL    HW111227  10.742   9.717   7.975  0.1594  0.6253 -0.6050
 2545SOL    HW211228  10.865   9.727   7.887 -0.8246 -0.1044 -2.1196
 2546SOL     OW11229  10.919   2.337   5.275  0.0924  0.4695  0.3872
 2546SOL    HW111230  10.996   2.336   5.218 -0.0464  1.7807  0.1500
 2546SOL    HW211231  10.907   2.245   5.301  0.1387 -0.1950 -1.7236
 2547SOL     OW11232   0.569   2.090   0.782 -0.1080  0.1606  0.1861
 2547SOL    HW111233   0.647   2.075   0.836 -0.0039  0.1732  0.0390
 2547SOL    HW211234   0.535   2.002   0.764  0.1516  0.1300 -0.1601
 2548SOL     OW11235   8.351   9.404   7.544 -0.0497  0.4897  0.3196
 2548SOL    HW111236   8.264   9.365   7.553  0.6262 -0.7463  2.0794
 2548SOL    HW211237   8.410   9.341   7.586  1.6774  1.4036 -0.6338
 2549SOL     OW11238   4.723   7.352   7.086  0.1122  0.2113 -0.4649
 2549SOL    HW111239   4.640   7.398   7.099  0.0481 -0.2555  0.9419
 2549SOL    HW211240   4.746   7.369   6.995 -1.4907  0.4076 -0.8593
 2550SOL     OW11241   0.934   7.877   5.080  1.0063 -0.5840 -0.2534
 2550SOL    HW111242   0.920   7.922   5.163  0.0146 -1.9540  0.3803
 2550SOL    HW211243   0.974   7.942   5.023  1.2304  0.5429  1.1353
 2551SOL     OW11244   5.885   9.625   4.304 -0.3905  0.2562  0.0631
 2551SOL    HW111245   5.790   9.629   4.303 -0.4295 -0.4986  0.2261
 2551SOL    HW211246   5.905   9.531   4.306  0.3874  0.2818 -2.6330
 2552SOL     OW11247   8.034   7.613  10.145 -0.3058 -0.1787  0.2935
 2552SOL    HW111248   8.092   7.651  10.211  0.1087  0.7643 -0.5706
 2552SOL    HW211249   8.042   7.518  10.157 -0.4474 -0.0178  1.7455
 2553SOL     OW11250   7.701   0.358   6.947 -0.4391  0.3879  0.5813
 2553SOL    HW111251   7.772   0.294   6.951 -1.0949 -0.3533  0.6733
 2553SOL    HW211252   7.745   0.443   6.944  0.5099 -0.1146 -1.9292
 2554SOL     OW11253   6.091   7.219   0.758  0.5963 -0.7022 -0.8530
 2554SOL    HW111254   6.042   7.139   0.776  0.3944 -0.6084 -0.9881
 2554SOL    HW211255   6.120   7.249   0.844 -0.2925 -0.3005 -0.6903
 2555SOL     OW11256   3.104   4.249   8.795  0.4506  0.2932 -0.1039
 2555SOL    HW111257   3.124   4.249   8.702  0.1895 -0.7378 -0.1813
 2555SOL    HW211258   3.103   4.341   8.820 -0.4403  0.6431 -1.3365
 2556SOL     OW11259   6.899   0.272   8.751  0.1502  0.2983  0.0087
 2556SOL    HW111260   6.962   0.295   8.683  0.3059  0.2089  0.1223
 2556SOL    HW211261   6.855   0.354   8.772  0.2485  0.3670 -0.0514
 2557SOL     OW11262  10.401   6.757   4.901  0.4214  0.2484  0.1897
 2557SOL    HW111263  10.350   6.830   4.937  1.3708  1.0915 -0.1191
 2557SOL    HW211264  10.343   6.717   4.837  0.0878  1.1184 -0.0746
 2558SOL     OW11265   9.426   4.141   8.490 -0.1370 -0.0794  0.5348
 2558SOL    HW111266   9.384   4.078   8.432  2.0596 -0.3413 -0.9388
 2558SOL    HW211267   9.478   4.196   8.430  0.2925  1.2538  2.0601
 2559SOL     OW11268   6.433   0.397   7.272 -0.5666 -0.1287  0.0986
 2559SOL    HW111269   6.382   0.468   7.310 -2.1181 -0.5231 -1.1579
 2559SOL    HW211270   6.371   0.350   7.216  0.7763 -1.6215 -0.1999
 2560SOL     OW11271   2.833   8.330   8.223  0.1611  0.7512 -0.3211
 2560SOL    HW111272   2.767   8.352   8.157 -0.5286 -0.4900 -0.0738
 2560SOL    HW211273   2.916   8.339   8.177 -0.1964  1.9325 -0.7583
 2561SOL     OW11274   3.873   7.388   5.247 -0.0390 -0.6095  0.5625
 2561SOL    HW111275   3.873   7.418   5.338 -0.0654  2.4515 -0.3438
 2561SOL    HW211276   3.962   7.406   5.216 -0.5305  0.0619 -0.4977
 2562SOL     OW11277   7.560   9.713   8.196 -0.0260 -0.5512 -0.2026
 2562SOL    HW111278   7.638   9.693   8.145  1.1392  1.6063  0.6539
 2562SOL    HW211279   7.522   9.790   8.153 -2.9631 -2.6967 -1.8844
 2563SOL     OW11280   2.343   9.210   2.391 -0.7585 -0.2162 -0.2138
 2563SOL    HW111281   2.300   9.289   2.360 -0.9595  0.5684  1.8972
 2563SOL    HW211282   2.314   9.201   2.482  3.3643  0.3392  1.3705
 2564SOL     OW11283   4.895   7.559  10.356  0.2227  0.2397 -0.3768
 2564SOL    HW111284   4.810   7.597  10.333  0.0684  0.1023 -0.0330
 2564SOL    HW211285   4.923   7.513  10.276 -0.0906  0.1671 -0.4445
 2565SOL     OW11286   9.110   7.739   8.560 -0.0701  0.3485  0.4827
 2565SOL    HW111287   9.101   7.789   8.641  2.2857  1.3698  0.2008
 2565SOL    HW211288   9.145   7.655   8.587  0.1564  0.4751  0.5846
 2566SOL     OW11289   1.290   8.055   8.972  0.2380 -0.5356  0.1328
 2566SOL    HW111290   1.257   7.973   8.935  1.4177 -0.4931 -1.0960
 2566SOL    HW211291   1.365   8.029   9.025 -0.1741 -0.3674  0.8138
 2567SOL     OW11292   5.296   4.758   9.506 -0.1092  0.2192 -0.6979
 2567SOL    HW111293   5.276   4.693   9.574 -1.2046  0.7988 -0.4382
 2567SOL    HW211294   5.391   4.752   9.494  0.3224  0.9420  1.7742
 2568SOL     OW11295   8.111   7.127   2.495  0.2075  0.1806 -0.1783
 2568SOL    HW111296   8.034   7.180   2.515  1.3154  2.2011 -1.0310
 2568SOL    HW211297   8.172   7.145   2.566  1.2280  1.4339 -1.3143
 2569SOL     OW11298   2.421   0.483   8.308 -0.6533 -0.1560  0.2635
 2569SOL    HW111299   2.384   0.399   8.337  0.6316 -1.0408 -0.5195
 2569SOL    HW211300   2.510   0.460   8.279  0.6011  1.8736  2.2183
 2570SOL     OW11301   7.984   8.418   3.674  0.1167  0.0583 -0.6052
 2570SOL    HW111302   8.033   8.336   3.680 -1.3149 -0.8373 -0.7365
 2570SOL    HW211303   7.932   8.409   3.594  1.2049  1.8376 -1.5953
 2571SOL     OW11304   7.724   2.336   4.027  0.0792 -0.6048 -0.5569
 2571SOL    HW111305   7.737   2.273   3.956 -0.5050  1.2487 -2.4280
 2571SOL    HW211306   7.630   2.355   4.025  0.1308 -0.2195  0.4492
 2572SOL     OW11307   1.279  10.540  10.953 -0.2217  0.0658 -0.2103
 2572SOL    HW111308   1.302  10.625  10.990  1.3487 -0.5198  0.2908
 2572SOL    HW211309   1.269  10.556  10.859  1.6205  0.5642 -0.3684
 2573SOL     OW11310   0.160   3.199   3.178 -0.2465  0.1786  0.0719
 2573SOL    HW111311   0.165   3.103   3.170 -1.4646  0.1553 -0.6982
 2573SOL    HW211312   0.075   3.221   3.141 -0.0572  1.5560  0.4229
 2574SOL     OW11313   7.348   9.046   9.282 -0.2714  0.3362  0.0228
 2574SOL    HW111314   7.443   9.055   9.281 -0.2276  0.2757  1.5568
 2574SOL    HW211315   7.332   8.955   9.259  0.1741 -0.2268  1.7960
 2575SOL     OW11316   1.041   2.474   7.532  0.1675 -0.1457 -0.0940
 2575SOL    HW111317   0.995   2.408   7.585  0.9647 -0.5447  0.1118
 2575SOL    HW211318   1.040   2.438   7.443 -0.5800  0.2093 -0.2391
 2576SOL     OW11319   3.960   9.780   9.741 -0.3056 -0.2593 -0.4042
 2576SOL    HW111320   4.025   9.848   9.728  0.3742 -0.8731 -0.2773
 2576SOL    HW211321   3.994   9.727   9.813 -1.1380 -0.3614 -0.0742
 2577SOL     OW11322   0.152   4.768   9.186  0.3789  0.0957  0.2405
 2577SOL    HW111323   0.201   4.706   9.132  0.0776 -0.2654  0.3830
 2577SOL    HW211324   0.121   4.717   9.261 -1.4596 -0.0371 -0.5639
 2578SOL     OW11325   3.193   7.297   9.096 -0.0209 -0.0656  0.3795
 2578SOL    HW111326   3.108   7.322   9.058  1.6706  2.1978 -2.3020
 2578SOL    HW211327   3.224   7.376   9.139  0.6292 -0.9545  1.5906
 2579SOL     OW11328  11.036   4.253   0.628 -0.9033  0.2387 -0.9539
 2579SOL    HW111329  11.100   4.324   0.626  0.7633 -1.0129  1.6967
 2579SOL    HW211330  11.071   4.191   0.692 -4.0038 -1.3443 -0.5896
 2580SOL     OW11331   6.357   5.695   4.209 -0.0951 -0.1223  0.5232
 2580SOL    HW111332   6.296   5.621   4.206 -1.6650  1.0682  1.6229
 2580SOL    HW211333   6.413   5.677   4.284  0.9728 -1.2260 -0.4949
 2581SOL     OW11334   0.556   8.154   1.551  0.0507  0.1678  0.0819
 2581SOL    HW111335   0.589   8.126   1.466 -0.5016  3.0374 -1.2060
 2581SOL    HW211336   0.599   8.237   1.567 -2.8380  1.7003  0.6021
 2582SOL     OW11337   3.564   5.725   9.065 -0.1686  0.0474  0.3536
 2582SOL    HW111338   3.495   5.661   9.046 -2.4014  2.7941 -1.6857
 2582SOL    HW211339   3.535   5.768   9.145  0.4502 -0.3570  0.8016
 2583SOL     OW11340   6.164  10.332   2.148 -0.0245  0.4514 -0.2785
 2583SOL    HW111341   6.221  10.408   2.135  1.0556 -0.4267 -0.7943
 2583SOL    HW211342   6.139  10.337   2.240  1.3812  0.5339  0.1195
 2584SOL     OW11343   9.217   2.721   1.501  0.0282  0.3714 -0.2680
 2584SOL    HW111344   9.173   2.646   1.461 -1.0836  0.3330  0.9596
 2584SOL    HW211345   9.207   2.791   1.437  1.4364 -0.5901 -1.6150
 2585SOL     OW11346   4.958   4.274  10.032 -0.2824  0.2498  0.1639
 2585SOL    HW111347   4.918   4.349   9.988 -1.0648 -0.2621 -0.0283
 2585SOL    HW211348   4.902   4.259  10.108  0.6927  0.7325  0.9917
 2586SOL     OW11349   2.113   6.580   8.208  0.1044 -0.2339  0.2916
 2586SOL    HW111350   2.037   6.524   8.190  1.1520 -1.3133 -1.0249
 2586SOL    HW211351   2.165   6.530   8.270  2.0108 -1.7948 -2.3237
 2587SOL     OW11352   8.430  10.043   2.967 -0.3313  0.1094  0.2658
 2587SOL    HW111353   8.336  10.036   2.950  0.0722  0.9030 -2.8195
 2587SOL    HW211354   8.440  10.128   3.009 -0.9175  0.3592 -0.0912
 2588SOL     OW11355  10.003   8.625   3.384 -0.3860 -0.0986 -0.3108
 2588SOL    HW111356  10.057   8.678   3.442 -1.4836  1.0130 -0.2710
 2588SOL    HW211357  10.058   8.612   3.306  0.7686 -0.9017  0.5967
 2589SOL     OW11358   4.645  10.854   6.480  0.4053  0.2883  0.2598
 2589SOL    HW111359   4.590  10.906   6.421 -1.4519  0.1572  1.7781
 2589SOL    HW211360   4.675  10.781   6.427 -3.5785 -1.4382  0.0338
 2590SOL     OW11361   4.429   1.330   3.140 -0.3099  0.4497  0.5530
 2590SOL    HW111362   4.402   1.413   3.179 -2.8221  0.9111 -1.9237
 2590SOL    HW211363   4.455   1.351   3.051  2.9566 -0.9299  1.0217
 2591SOL     OW11364   2.949   9.350   9.413  0.1463  0.3779 -0.1223
 2591SOL    HW111365   2.865   9.349   9.367  0.0265  0.9253  0.0705
 2591SOL    HW211366   2.967   9.258   9.433 -0.4285  0.2608 -0.1335
 2592SOL     OW11367  10.573   3.473   4.781  0.1098 -0.8702 -0.2557
 2592SOL    HW111368  10.601   3.399   4.726 -0.7988  0.2054 -2.2961
 2592SOL    HW211369  10.653   3.501   4.825  0.8563 -1.8971 -0.8942
 2593SOL     OW11370  10.327   0.139   5.724 -0.2204  0.3290  0.1089
 2593SOL    HW111371  10.294   0.137   5.814  1.0512  3.9203  0.7928
 2593SOL    HW211372  10.297   0.222   5.688  1.5409  0.2039 -1.8730
 2594SOL     OW11373   7.319   8.041   2.719 -0.4370  0.1184  0.0303
 2594SOL    HW111374   7.307   7.946   2.718 -1.8402  0.2862 -0.4227
 2594SOL    HW211375   7.231   8.077   2.727  0.1663  1.3876  1.4352
 2595SOL     OW11376   9.072   5.911   8.145 -0.7336 -0.4021  0.3503
 2595SOL    HW111377   9.118   5.836   8.108  0.5864  0.8611 -0.6797
 2595SOL    HW211378   9.007   5.935   8.079 -1.0539 -0.5319  0.6123
 2596SOL     OW11379  10.656   5.730   6.089  1.0756  0.6280  0.8394
 2596SOL    HW111380  10.604   5.809   6.101 -0.8469 -0.5138  0.4887
 2596SOL    HW211381  10.721   5.733   6.159 -0.0512  1.6573  1.8743
 2597SOL     OW11382   6.638  10.628   7.982 -0.0218  0.0783 -0.2127
 2597SOL    HW111383   6.581  10.699   8.014 -0.9636 -0.7986  0.1312
 2597SOL    HW211384   6.580  10.572   7.931  0.7981 -0.2450 -0.8099
 2598SOL     OW11385   1.876   6.656   0.501  0.1486 -0.3070 -0.5407
 2598SOL    HW111386   1.781   6.665   0.504 -0.0303 -2.0651  0.9598
 2598SOL    HW211387   1.909   6.728   0.555 -0.3697 -0.1017 -0.4937
 2599SOL     OW11388   8.070   7.256   9.562 -0.0441 -0.5717 -0.0943
 2599SOL    HW111389   8.144   7.313   9.583 -0.1788 -0.6579  0.6419
 2599SOL    HW211390   8.105   7.167   9.569  0.4004 -0.6157 -2.0966
 2600SOL     OW11391   1.090  10.403   3.008 -0.2538 -0.6894 -0.3595
 2600SOL    HW111392   1.132  10.389   2.923  0.1405 -0.7832 -0.1489
 2600SOL    HW211393   1.117  10.328   3.061  1.4439  0.5382  0.6137
 2601SOL     OW11394   5.974   2.313  10.504  0.0228  0.0070  0.0388
 2601SOL    HW111395   6.049   2.313  10.564  0.5060 -0.8911 -0.5429
 2601SOL    HW211396   6.005   2.264  10.428 -0.5246  1.2616 -1.0263
 2602SOL     OW11397   9.396   3.933   1.352  0.3884  0.2849  0.2553
 2602SOL    HW111398   9.301   3.924   1.349  0.5085 -1.6980  0.5645
 2602SOL    HW211399   9.427   3.844   1.372  2.2253  1.1953  1.7945
 2603SOL     OW11400   0.121   1.671   1.155  0.1437  0.3501  0.7588
 2603SOL    HW111401   0.163   1.594   1.195 -0.0243 -0.4651 -0.5773
 2603SOL    HW211402   0.171   1.745   1.189  2.7510 -0.5684 -0.7180
 2604SOL     OW11403  10.694   9.603   9.444  0.8514  0.0803  0.3167
 2604SOL    HW111404  10.711   9.536   9.510 -0.0822  2.5736  3.3808
 2604SOL    HW211405  10.600   9.596   9.427  1.0731 -0.4928 -0.7243
 2605SOL     OW11406   0.098   7.381   8.533  0.0115 -0.2785 -0.1698
 2605SOL    HW111407   0.043   7.345   8.463 -0.1067 -0.0233 -0.2088
 2605SOL    HW211408   0.056   7.351   8.614 -1.5855  1.8503 -0.1113
 2606SOL     OW11409   9.559  11.109   4.738  0.8190  0.0711  0.5745
 2606SOL    HW111410   9.561  11.178   4.805 -0.9335  1.0683 -0.3038
 2606SOL    HW211411   9.466  11.101   4.716  0.7271 -3.6024  1.5982
 2607SOL     OW11412  10.450   1.207   5.971 -0.8185  0.0727  0.9554
 2607SOL    HW111413  10.504   1.235   5.897  0.0428 -0.2953  1.4266
 2607SOL    HW211414  10.414   1.288   6.007 -2.4165  0.1692 -0.6967
 2608SOL     OW11415   2.975   2.452   2.542 -0.1657  0.2282 -0.1493
 2608SOL    HW111416   3.017   2.506   2.474  0.0764  1.2717  0.7982
 2608SOL    HW211417   2.977   2.363   2.507 -1.6746  0.9638 -2.3320
 2609SOL     OW11418   9.209   2.736   6.704  0.4575 -0.1648 -0.0108
 2609SOL    HW111419   9.289   2.768   6.664  0.1610  1.0266  0.3045
 2609SOL    HW211420   9.203   2.784   6.787  0.4675 -1.7305  0.9310
 2610SOL     OW11421   1.685   9.572   2.125  0.2126  0.1208  0.0657
 2610SOL    HW111422   1.778   9.591   2.125  0.4988 -1.1376  1.1059
 2610SOL    HW211423   1.670   9.526   2.208 -1.1067 -0.7268 -0.6119
 2611SOL     OW11424   7.804   8.375   3.010  0.2291  0.0747  0.5357
 2611SOL    HW111425   7.794   8.445   3.074  1.6541  0.0648  0.7943
 2611SOL    HW211426   7.896   8.377   2.986  0.5737 -2.3455  1.3088
 2612SOL     OW11427   2.654   6.740   6.749 -0.6212  0.5078 -0.1654
 2612SOL    HW111428   2.587   6.772   6.808  0.2067 -1.9788  2.3398
 2612SOL    HW211429   2.735   6.741   6.801  0.3318 -0.9304 -1.5127
 2613SOL     OW11430  11.109   2.527   7.161  0.1907 -0.3533  0.0258
 2613SOL    HW111431  11.140   2.585   7.092  0.1889  0.1739  0.4635
 2613SOL    HW211432  11.114   2.579   7.241 -1.6174 -0.2879  0.1565
 2614SOL     OW11433   6.412   8.420   2.535  0.2624  0.1404  0.1645
 2614SOL    HW111434   6.432   8.352   2.472  0.2000  0.2647  0.0079
 2614SOL    HW211435   6.317   8.414   2.547  0.4157 -0.6462  1.1305
 2615SOL     OW11436   1.959   1.151   9.142 -0.0029  0.5878 -0.1619
 2615SOL    HW111437   1.887   1.151   9.205  1.5818 -0.3251  1.7410
 2615SOL    HW211438   1.931   1.212   9.074 -3.3633 -1.0700 -0.4838
 2616SOL     OW11439   5.822   4.492   2.179  0.0966  0.4009 -0.3784
 2616SOL    HW111440   5.895   4.495   2.118 -0.6588 -0.0215 -1.3222
 2616SOL    HW211441   5.835   4.410   2.228  0.3606  0.4327 -0.3946
 2617SOL     OW11442   6.829   5.639   1.153 -0.2379 -0.2363  0.5952
 2617SOL    HW111443   6.749   5.592   1.129 -0.4843 -0.8871  2.4696
 2617SOL    HW211444   6.856   5.599   1.236  3.5872 -1.9607 -1.1974
 2618SOL     OW11445   2.248   8.445   4.193  0.0903 -0.3751 -0.0325
 2618SOL    HW111446   2.211   8.475   4.110  0.6027  0.2584 -0.0372
 2618SOL    HW211447   2.258   8.350   4.182 -3.8271 -1.0789  0.8352
 2619SOL     OW11448   9.213   7.554   0.126 -0.0116 -0.0982  0.9061
 2619SOL    HW111449   9.291   7.603   0.098 -0.4532  0.3812  0.4843
 2619SOL    HW211450   9.190   7.502   0.049  1.0170 -1.7371  1.6599
 2620SOL     OW11451   7.860   9.477   7.982 -0.0143  0.4844  0.2129
 2620SOL    HW111452   7.767   9.460   7.996 -0.1868  0.2497 -1.1072
 2620SOL    HW211453   7.893   9.398   7.940  0.3770  1.2299 -0.9588
 2621SOL     OW11454   5.742   3.064  10.042  0.1435 -0.1286 -0.3482
 2621SOL    HW111455   5.829   3.038  10.071 -0.6210 -2.4052  0.1124
 2621SOL    HW211456   5.702   3.106  10.118  0.4920  0.0023 -0.2373
 2622SOL     OW11457  10.284   1.699   1.507  0.2513  0.5021  0.0947
 2622SOL    HW111458  10.323   1.612   1.517  0.1232  0.1622 -1.9786
 2622SOL    HW211459  10.328   1.753   1.574  0.0481 -1.2118  1.6747
 2623SOL     OW11460   1.740   7.053   9.724 -0.2608  0.4451 -0.1448
 2623SOL    HW111461   1.669   7.010   9.676 -0.0101  0.8811 -0.9350
 2623SOL    HW211462   1.738   7.144   9.692  0.5690  0.4883 -0.0846
 2624SOL     OW11463  10.718   9.365   6.516 -0.3444 -0.3977 -0.1956
 2624SOL    HW111464  10.627   9.360   6.486 -0.7963  2.3435  0.5231
 2624SOL    HW211465  10.748   9.274   6.515 -2.6774 -1.2349 -1.6528
 2625SOL     OW11466   6.251   8.434   8.714 -0.5129  0.0538  0.1495
 2625SOL    HW111467   6.186   8.368   8.691 -0.2434 -1.6258  3.6509
 2625SOL    HW211468   6.201   8.516   8.714 -2.2258 -0.9186  0.9370
 2626SOL     OW11469   0.589   4.162   0.992 -0.8403  0.1669  0.4166
 2626SOL    HW111470   0.545   4.231   1.042 -2.7969 -0.3574 -0.4859
 2626SOL    HW211471   0.633   4.110   1.058  0.9823  2.4110  1.1019
 2627SOL     OW11472   1.879   0.771   5.883 -0.9295 -0.9146 -0.1452
 2627SOL    HW111473   1.925   0.828   5.822 -3.5767  0.9243 -0.6267
 2627SOL    HW211474   1.916   0.791   5.969  0.7669 -1.3306 -0.7355
 2628SOL     OW11475   2.245   3.168  10.463 -0.1910  0.0811  0.7524
 2628SOL    HW111476   2.198   3.087  10.478 -2.4249  0.9645 -0.8385
 2628SOL    HW211477   2.218   3.226  10.535  0.6198 -0.2510  1.3333
 2629SOL     OW11478   3.823   5.852   0.982 -0.2749 -0.0320  0.4245
 2629SOL    HW111479   3.762   5.806   0.925 -1.2223  1.3464  0.2874
 2629SOL    HW211480   3.866   5.916   0.925  0.9941 -0.6842  0.6183
 2630SOL     OW11481   5.917  10.862   5.475 -0.4590  0.3104 -0.4586
 2630SOL    HW111482   5.870  10.789   5.436 -0.8987 -0.8689  2.1492
 2630SOL    HW211483   5.854  10.903   5.534  0.7626  0.7629  0.5743
 2631SOL     OW11484  10.225   6.613   0.784 -0.0772  0.9094 -0.0038
 2631SOL    HW111485  10.268   6.697   0.766  1.1286 -0.0977 -2.3405
 2631SOL    HW211486  10.138   6.622   0.747  0.4511  0.7903 -1.3330
 2632SOL     OW11487   5.676   0.454  10.892  0.2253 -0.0384 -0.7591
 2632SOL    HW111488   5.697   0.372  10.848  1.7392  0.4575 -1.0121
 2632SOL    HW211489   5.718   0.447  10.978 -0.9923 -0.1626 -0.1503
 2633SOL     OW11490   7.433  10.632   0.935  0.2489  0.1235 -0.8401
 2633SOL    HW111491   7.416  10.611   1.027 -0.4548 -2.0977 -1.4087
 2633SOL    HW211492   7.477  10.717   0.938 -0.5328  0.5377  1.4773
 2634SOL     OW11493  10.516   5.054   9.440  0.4693 -0.5205  0.5104
 2634SOL    HW111494  10.610   5.039   9.435  0.5347 -0.0417  0.2632
 2634SOL    HW211495  10.481   5.010   9.362  0.2408 -2.4456  1.6233
 2635SOL     OW11496   1.234   7.942   9.852 -0.0939  0.2660  0.2558
 2635SOL    HW111497   1.295   7.875   9.885 -1.6260 -0.9842  0.6938
 2635SOL    HW211498   1.289   8.001   9.801  1.3736 -1.2281 -0.0018
 2636SOL     OW11499   7.872   7.087   7.793 -0.3283 -0.6259 -0.0730
 2636SOL    HW111500   7.886   7.081   7.888 -0.5303 -2.9286 -0.1384
 2636SOL    HW211501   7.961   7.092   7.756 -0.2650  1.0395  0.2313
 2637SOL     OW11502   6.748   5.972   9.854  0.1469 -0.3609 -0.2235
 2637SOL    HW111503   6.703   5.887   9.859 -0.7893  0.0914 -0.5469
 2637SOL    HW211504   6.737   6.010   9.941  1.4507 -0.9882  0.2294
 2638SOL     OW11505   8.423  10.609   1.189 -0.1237 -0.5003  0.3072
 2638SOL    HW111506   8.425  10.597   1.094  0.5521 -0.3332  0.2946
 2638SOL    HW211507   8.441  10.703   1.202 -1.2165 -0.3098  0.5639
 2639SOL     OW11508   7.150   9.636   1.488 -0.2711 -0.2018  0.4611
 2639SOL    HW111509   7.160   9.622   1.394  0.4708  1.7011  0.2281
 2639SOL    HW211510   7.084   9.572   1.514 -0.8374 -0.4515 -1.4371
 2640SOL     OW11511   7.496   3.086   2.864 -0.4612  1.0342 -0.0482
 2640SOL    HW111512   7.483   3.174   2.827 -2.5025  0.6995 -0.2553
 2640SOL    HW211513   7.471   3.027   2.793 -3.1669  0.3668  1.3337
 2641SOL     OW11514   0.214   7.029   9.809 -0.8343 -0.2287 -0.4317
 2641SOL    HW111515   0.280   6.960   9.813  0.1185  0.6809  0.4190
 2641SOL    HW211516   0.200   7.044   9.715  1.4716  0.7027 -0.7003
 2642SOL     OW11517  10.940  10.055   6.699 -0.1784 -0.6049 -0.2297
 2642SOL    HW111518  10.871  10.059   6.634  0.6349 -0.4701 -1.1123
 2642SOL    HW211519  10.914  10.117   6.766 -0.0588  0.7588 -1.4044
 2643SOL     OW11520   7.479   4.659   5.297  0.2616  0.2534  0.0761
 2643SOL    HW111521   7.390   4.656   5.261 -0.1882  0.7789  1.1185
 2643SOL    HW211522   7.473   4.718   5.372  1.8010  1.4553 -0.6837
 2644SOL     OW11523   2.535   8.719   8.497 -0.1224  0.0692  0.4276
 2644SOL    HW111524   2.517   8.808   8.466  0.6652  0.1810  0.2914
 2644SOL    HW211525   2.590   8.680   8.428 -2.1621 -1.2490 -0.5831
 2645SOL     OW11526   9.596   0.334   3.154 -0.0515 -0.5279  0.2962
 2645SOL    HW111527   9.574   0.424   3.132  1.7671  0.7275  3.1302
 2645SOL    HW211528   9.514   0.296   3.185 -0.4410  0.8017  0.9632
 2646SOL     OW11529   5.240   2.287   8.229  0.0742 -0.6035 -0.0326
 2646SOL    HW111530   5.295   2.364   8.242 -0.7740 -0.0638  0.4305
 2646SOL    HW211531   5.285   2.237   8.160  1.4188 -0.4620  0.7136
 2647SOL     OW11532   8.057   9.363   4.899 -0.4133 -0.4558  0.3632
 2647SOL    HW111533   7.972   9.367   4.855 -0.8670 -1.0299  1.1498
 2647SOL    HW211534   8.055   9.435   4.962 -0.3020 -0.4420  0.3508
 2648SOL     OW11535   1.804   4.101   8.192  0.1406  0.5670 -0.0857
 2648SOL    HW111536   1.895   4.106   8.224  0.2502 -0.2758 -0.2325
 2648SOL    HW211537   1.762   4.180   8.226  0.7985  0.7116  0.4171
 2649SOL     OW11538   2.174  10.373  10.564  0.3866  0.0281  0.3587
 2649SOL    HW111539   2.134  10.377  10.650 -1.4574 -0.3090 -0.4232
 2649SOL    HW211540   2.142  10.291  10.526  1.1123  0.1921 -0.6769
 2650SOL     OW11541   6.285   2.770   5.441  0.1449 -0.5314 -0.2598
 2650SOL    HW111542   6.190   2.759   5.430  0.3349 -0.3286 -2.6205
 2650SOL    HW211543   6.318   2.680   5.445 -0.1463 -0.6035  0.7184
 2651SOL     OW11544   1.392  10.601   2.726 -0.3966 -0.2994 -0.3235
 2651SOL    HW111545   1.408  10.666   2.795  0.6073 -1.9555  1.1185
 2651SOL    HW211546   1.480  10.572   2.701 -0.8276 -1.6733 -0.3199
 2652SOL     OW11547   5.917   1.306   7.320 -0.1616  0.3703  0.3719
 2652SOL    HW111548   5.922   1.224   7.369 -1.4799  0.2260  0.3098
 2652SOL    HW211549   5.850   1.290   7.252  0.2357  1.1908 -0.2380
 2653SOL     OW11550   4.490   6.280   0.250  0.1758  0.3662 -0.5922
 2653SOL    HW111551   4.519   6.319   0.168 -0.1198  1.1175 -0.3399
 2653SOL    HW211552   4.505   6.186   0.238 -0.4534  0.4013 -1.7425
 2654SOL     OW11553   6.301   1.461   5.051  0.2565  0.0091 -0.2661
 2654SOL    HW111554   6.298   1.548   5.011  1.0676  0.9989  1.6967
 2654SOL    HW211555   6.357   1.410   4.992 -0.4231  0.7081 -1.5701
 2655SOL     OW11556   5.957   3.137   6.522 -0.1947 -0.7391 -0.5430
 2655SOL    HW111557   5.908   3.077   6.577 -0.0425  1.7389  2.5750
 2655SOL    HW211558   6.009   3.189   6.583  2.0497  0.5129 -3.2778
 2656SOL     OW11559   9.090   0.491   2.306 -0.0676 -0.2639 -0.2112
 2656SOL    HW111560   9.090   0.475   2.211  1.0502 -0.2550 -0.2327
 2656SOL    HW211561   9.148   0.423   2.341 -0.5094 -0.2949  0.4761
 2657SOL     OW11562   9.730   5.541   6.280 -0.0954  0.3341 -0.4063
 2657SOL    HW111563   9.678   5.484   6.336 -2.4095  1.7356 -1.0272
 2657SOL    HW211564   9.806   5.487   6.256 -0.7740 -1.4761  1.2462
 2658SOL     OW11565   6.148   7.676  10.000  0.3647 -0.8024  0.7227
 2658SOL    HW111566   6.061   7.689   9.962  0.6122  0.0931  0.4338
 2658SOL    HW211567   6.141   7.714  10.088  0.4202 -0.8496  0.7475
 2659SOL     OW11568   8.477   7.311   6.677 -0.0393  0.0982  0.5434
 2659SOL    HW111569   8.429   7.279   6.753  1.0829 -0.4169  1.0521
 2659SOL    HW211570   8.409   7.322   6.609 -1.2108  1.4996  1.8648
 2660SOL     OW11571  10.679   2.071   5.049  0.0046 -0.3527  0.7072
 2660SOL    HW111572  10.653   2.163   5.056 -2.1877 -0.5994 -2.2591
 2660SOL    HW211573  10.768   2.075   5.013  0.3042  0.5781  1.4938
 2661SOL     OW11574   4.644   1.131   2.082 -0.2931 -0.3211  0.4582
 2661SOL    HW111575   4.703   1.055   2.080 -1.1062 -0.9468 -0.5582
 2661SOL    HW211576   4.589   1.115   2.159 -0.6710 -0.9382  0.0700
 2662SOL     OW11577   0.450   8.900   9.636  0.2316 -0.4264 -0.6693
 2662SOL    HW111578   0.356   8.909   9.653  0.1911 -1.7494 -0.0365
 2662SOL    HW211579   0.485   8.988   9.646 -0.9044  0.0498 -0.6839
 2663SOL     OW11580   7.657   6.131   4.791 -0.1809  0.7475  0.5388
 2663SOL    HW111581   7.603   6.091   4.859 -0.0365  2.5858  1.8207
 2663SOL    HW211582   7.734   6.165   4.837  0.3146  1.3589 -0.6617
 2664SOL     OW11583   0.677   4.693   0.213 -0.6961  0.2232  0.8659
 2664SOL    HW111584   0.731   4.660   0.286 -1.2923 -0.3872  1.0408
 2664SOL    HW211585   0.707   4.644   0.137 -1.0904 -0.2209  0.9905
 2665SOL     OW11586   8.056   8.215   0.304 -0.0783  0.1267 -0.2623
 2665SOL    HW111587   8.140   8.247   0.336 -0.6044 -0.2272  1.5797
 2665SOL    HW211588   7.995   8.234   0.375 -1.7803  1.2890 -1.9424
 2666SOL     OW11589   3.656   7.329  10.874  0.2808 -0.5512  0.4687
 2666SOL    HW111590   3.584   7.346  10.813  0.2707 -1.7510  0.1264
 2666SOL    HW211591   3.734   7.363  10.830  0.4813 -2.5697 -0.8343
 2667SOL     OW11592   7.266  10.944   5.422  0.9162 -0.3183  0.0958
 2667SOL    HW111593   7.196  10.941   5.487  1.7622  0.8517  1.1198
 2667SOL    HW211594   7.221  10.952   5.338 -0.1741 -0.0353  0.6852
 2668SOL     OW11595   8.411   6.281   9.760  0.1793  0.4756  0.4820
 2668SOL    HW111596   8.415   6.231   9.679  0.1646 -0.0514  0.8058
 2668SOL    HW211597   8.491   6.334   9.759  1.9988 -2.0418  1.7343
 2669SOL     OW11598   6.838  10.813  10.587 -0.7653  0.2513 -0.2641
 2669SOL    HW111599   6.844  10.880  10.518 -0.9522 -0.4158 -0.9466
 2669SOL    HW211600   6.754  10.831  10.630 -0.7151  0.5888 -0.3016
 2670SOL     OW11601   2.328   1.441  10.478  0.5872  0.5732  0.5401
 2670SOL    HW111602   2.421   1.420  10.488  1.0614  1.0654 -2.1397
 2670SOL    HW211603   2.285   1.356  10.465  1.0776  0.5018 -0.7519
 2671SOL     OW11604   1.526   8.035   0.343  0.1171  0.0899  0.2719
 2671SOL    HW111605   1.518   7.970   0.273 -1.8944  1.1709 -0.5850
 2671SOL    HW211606   1.441   8.080   0.344  0.3124  0.5977  2.9451
 2672SOL     OW11607   0.980   9.507   4.277  0.5820  0.3626 -0.5029
 2672SOL    HW111608   1.024   9.422   4.286 -0.1176 -0.1840 -1.9152
 2672SOL    HW211609   0.944   9.506   4.188 -3.0379  0.3904  0.7867
 2673SOL     OW11610   4.605   4.126   7.411  0.2143 -0.7933  0.1597
 2673SOL    HW111611   4.517   4.090   7.426 -0.2071  0.5621  1.1787
 2673SOL    HW211612   4.603   4.211   7.454  1.3959  0.1445 -1.5172
 2674SOL     OW11613   2.793   3.442   8.184  0.2572 -0.0816  0.1934
 2674SOL    HW111614   2.715   3.450   8.238 -1.2371 -1.0366 -1.6717
 2674SOL    HW211615   2.852   3.384   8.233 -1.6555 -2.1339  0.2121
 2675SOL     OW11616   2.108   9.365   5.533 -0.1654  0.2659  0.3979
 2675SOL    HW111617   2.155   9.415   5.466 -0.4972 -0.4358 -0.3780
 2675SOL    HW211618   2.075   9.430   5.594  0.8692  0.8597  0.3514
 2676SOL     OW11619   9.335   7.016   9.134 -0.2945 -0.1790  0.0864
 2676SOL    HW111620   9.262   6.959   9.109  0.7899 -2.2708  1.3627
 2676SOL    HW211621   9.411   6.957   9.137  0.5699  0.8768  3.2400
 2677SOL     OW11622   5.019   5.667   7.361  0.3524 -0.3340  0.2018
 2677SOL    HW111623   5.053   5.653   7.450  1.7167 -1.3421 -0.4327
 2677SOL    HW211624   4.980   5.754   7.364  1.1420  0.0102  1.5803
 2678SOL     OW11625   8.562   7.757   5.907 -0.2804 -0.4723 -0.1141
 2678SOL    HW111626   8.515   7.831   5.946  0.2452 -0.5958  0.7683
 2678SOL    HW211627   8.647   7.793   5.882  0.4496 -1.0387  1.4441
 2679SOL     OW11628   2.868   6.302   7.455  1.1009 -0.2738  0.3209
 2679SOL    HW111629   2.920   6.372   7.416  0.9993 -0.1564  0.3937
 2679SOL    HW211630   2.866   6.323   7.548 -2.5364  2.0991 -0.0736
 2680SOL     OW11631   6.371   1.953   1.803  0.1522  0.5378  0.1420
 2680SOL    HW111632   6.367   1.994   1.889 -0.7384  1.1329 -0.1689
 2680SOL    HW211633   6.342   1.863   1.817  1.7845  0.0735  0.7717
 2681SOL     OW11634   3.421   4.177   4.754 -0.2258  0.3116  0.2099
 2681SOL    HW111635   3.482   4.190   4.826  1.2585  2.4922 -1.3412
 2681SOL    HW211636   3.472   4.135   4.686 -0.8104  0.9151 -0.6232
 2682SOL     OW11637   8.789   6.518   2.692 -0.4112  0.5222 -0.2007
 2682SOL    HW111638   8.867   6.574   2.697 -0.1123  0.0532  0.5632
 2682SOL    HW211639   8.738   6.555   2.620  0.4643  0.9000 -0.6468
 2683SOL     OW11640   5.198   9.716   5.818  0.0434 -0.3682 -0.1883
 2683SOL    HW111641   5.265   9.776   5.787  0.5935 -1.5298 -1.3514
 2683SOL    HW211642   5.243   9.662   5.884 -0.3344  0.2055  0.5524
 2684SOL     OW11643   1.155   2.357  10.831  0.0347  0.5814 -0.1205
 2684SOL    HW111644   1.119   2.436  10.790 -0.7319  0.7710  0.8777
 2684SOL    HW211645   1.248   2.377  10.843  1.0334 -0.5630 -4.2958
 2685SOL     OW11646   9.377   3.196   0.538  0.1940 -0.2326  0.0566
 2685SOL    HW111647   9.466   3.215   0.506  0.1516 -0.9149 -0.4744
 2685SOL    HW211648   9.392   3.150   0.621  0.3246  0.2877  0.3244
 2686SOL     OW11649   4.147   7.432   1.227  0.3563 -0.0648  0.2683
 2686SOL    HW111650   4.237   7.454   1.250  0.2750 -0.1607  0.6816
 2686SOL    HW211651   4.095   7.457   1.304  0.0083  0.1462 -0.0295
 2687SOL     OW11652  10.322   1.127   9.159 -0.2520  0.0487 -0.4347
 2687SOL    HW111653  10.356   1.204   9.204 -0.1052  0.5945 -1.4632
 2687SOL    HW211654  10.296   1.068   9.230 -0.4305  1.0632  0.3717
 2688SOL     OW11655   8.720  10.717   6.645 -0.4830 -0.4254  0.2781
 2688SOL    HW111656   8.749  10.805   6.666 -0.1735 -0.6585  0.8578
 2688SOL    HW211657   8.783  10.685   6.581  0.0633 -0.6261  0.9077
 2689SOL     OW11658   4.587   2.269   8.909  0.4955 -0.0161 -0.6269
 2689SOL    HW111659   4.626   2.285   8.995 -0.0672  0.0737 -0.3840
 2689SOL    HW211660   4.494   2.289   8.921 -0.1458 -2.7376 -0.4882
 2690SOL     OW11661  11.104   6.273   2.830  0.2577 -0.4944  0.7384
 2690SOL    HW111662  11.074   6.223   2.906  1.6357 -2.2275  0.2005
 2690SOL    HW211663  11.187   6.312   2.858 -0.3961  0.8668  0.8709
 2691SOL     OW11664   9.572   9.905   3.398 -0.1001 -0.3776  0.4452
 2691SOL    HW111665   9.500   9.891   3.459 -0.0926  1.0136  0.7978
 2691SOL    HW211666   9.607   9.991   3.421  1.6462 -0.9893  0.2553
 2692SOL     OW11667   2.139   6.801   2.095  0.3837  0.3795  0.0077
 2692SOL    HW111668   2.127   6.890   2.126  0.1279 -0.2151  1.7379
 2692SOL    HW211669   2.230   6.780   2.116 -0.2293 -0.5762  1.9992
 2693SOL     OW11670   8.871   7.139   5.224  0.7472  0.0253  0.4572
 2693SOL    HW111671   8.847   7.225   5.188  0.2905 -0.7755 -1.2638
 2693SOL    HW211672   8.842   7.143   5.315 -0.3478  1.2944  0.1019
 2694SOL     OW11673   4.396  10.864   6.644 -0.0923  0.4492  0.2591
 2694SOL    HW111674   4.479  10.841   6.602 -0.0392  1.0033  0.0582
 2694SOL    HW211675   4.421  10.892   6.732  0.0334  1.5310 -0.1147
 2695SOL     OW11676   5.968   1.670   4.846 -0.5067  0.8987  0.5462
 2695SOL    HW111677   6.048   1.722   4.852  0.4831 -0.5608  0.3886
 2695SOL    HW211678   5.996   1.588   4.807 -1.6724 -0.4688  2.4480
 2696SOL     OW11679   6.655   5.661   1.867  0.3090 -0.5349 -0.4531
 2696SOL    HW111680   6.565   5.653   1.834  0.2992  1.2840 -0.9575
 2696SOL    HW211681   6.668   5.583   1.921 -1.7878 -0.5014  0.1542
 2697SOL     OW11682   8.640   7.957   1.905  0.0199  0.3609 -0.3692
 2697SOL    HW111683   8.686   8.015   1.966  1.5552 -0.7085 -0.4578
 2697SOL    HW211684   8.627   8.010   1.827 -0.5709  1.2509  0.3030
 2698SOL     OW11685   8.657   3.428  10.349 -0.4283 -0.4594 -0.0803
 2698SOL    HW111686   8.663   3.494  10.417 -1.2054  0.7344 -1.1171
 2698SOL    HW211687   8.741   3.433  10.302 -0.4038 -0.3703 -0.0249
 2699SOL     OW11688   4.873   7.963   2.043  0.3025 -0.2778 -0.1365
 2699SOL    HW111689   4.847   7.873   2.063  0.2952  0.0382  1.4012
 2699SOL    HW211690   4.808   8.018   2.087 -0.2205  0.5218 -1.7917
 2700SOL     OW11691   5.175   1.337   7.628 -0.0926 -0.1666  0.6164
 2700SOL    HW111692   5.243   1.377   7.574 -0.2287 -0.1379  0.4656
 2700SOL    HW211693   5.124   1.411   7.661 -0.5908 -0.2367  0.0100
 2701SOL     OW11694   8.846   1.885   2.123 -0.2906  0.7854 -0.3376
 2701SOL    HW111695   8.887   1.803   2.151 -2.2558  0.2484  1.1885
 2701SOL    HW211696   8.886   1.952   2.178 -1.5083  0.2334  1.3175
 2702SOL     OW11697   6.167   7.406   6.436  0.0669  0.0619 -0.4477
 2702SOL    HW111698   6.185   7.483   6.383 -0.9154 -0.2406 -1.2601
 2702SOL    HW211699   6.072   7.395   6.431  0.0079 -0.3256  0.8956
 2703SOL     OW11700   4.319   8.022   5.018  0.0881 -0.0692 -0.0747
 2703SOL    HW111701   4.318   8.047   5.110 -0.5817  1.8887 -0.5652
 2703SOL    HW211702   4.313   7.926   5.019  0.6263 -0.1187  1.9023
 2704SOL     OW11703   5.984   9.165   4.792 -0.3899 -0.0792  0.7910
 2704SOL    HW111704   5.993   9.089   4.849  1.9043 -0.6449 -0.2234
 2704SOL    HW211705   6.063   9.216   4.808  1.5463 -1.3774 -3.2976
 2705SOL     OW11706   8.624   4.044   2.358 -0.1210  0.6866  0.1852
 2705SOL    HW111707   8.674   4.072   2.281  1.8990 -0.4992  0.9931
 2705SOL    HW211708   8.586   3.960   2.333  0.0782  0.5663  0.2819
 2706SOL     OW11709   9.207   2.573  10.407  0.6794 -0.3610  0.2183
 2706SOL    HW111710   9.293   2.533  10.420  0.2235 -1.2945  0.4376
 2706SOL    HW211711   9.207   2.649  10.466  2.2850  1.1712 -1.6155
 2707SOL     OW11712   6.891   2.314   2.464 -0.1636  0.1896  0.7294
 2707SOL    HW111713   6.960   2.359   2.413 -1.4695  1.1210 -0.2845
 2707SOL    HW211714   6.830   2.281   2.398  0.9351 -3.6440  1.3692
 2708SOL     OW11715   9.051   2.675  11.012 -0.7431  0.2909  0.1525
 2708SOL    HW111716   9.106   2.597  10.998 -2.2432 -1.2699  2.4054
 2708SOL    HW211717   8.964   2.648  10.985 -1.5517  0.6814  2.1902
 2709SOL     OW11718   5.072  10.628   2.948  0.0106 -0.6421  0.3622
 2709SOL    HW111719   4.987  10.652   2.912 -0.3514 -0.6144  1.2218
 2709SOL    HW211720   5.120  10.711   2.954  0.4422 -0.7741 -0.9641
 2710SOL     OW11721   6.695  10.851   9.366 -0.1918 -0.4559  0.6459
 2710SOL    HW111722   6.729  10.767   9.398 -0.4965 -0.1495  1.7838
 2710SOL    HW211723   6.629  10.826   9.301  2.8421 -1.0783 -2.4779
 2711SOL     OW11724   4.936   9.578   3.942 -0.4341 -0.0846 -0.0987
 2711SOL    HW111725   4.996   9.507   3.963  0.0844  0.3294 -0.1651
 2711SOL    HW211726   4.852   9.550   3.979 -0.2665 -0.7876 -0.2375
 2712SOL     OW11727   8.356   6.835   3.068  0.5215  0.5668 -0.0918
 2712SOL    HW111728   8.440   6.790   3.054  0.1648 -0.0820 -0.2020
 2712SOL    HW211729   8.320   6.794   3.146 -0.4260 -0.3058 -0.9477
 2713SOL     OW11730   4.055   5.867   5.343 -0.3393  0.1382 -0.2156
 2713SOL    HW111731   4.137   5.915   5.341  0.5389 -1.3176 -1.4144
 2713SOL    HW211732   4.074   5.789   5.395 -0.6092 -0.7285 -1.3598
 2714SOL     OW11733   5.594   9.637   2.085 -0.4373  0.1941 -0.1491
 2714SOL    HW111734   5.623   9.728   2.081  1.1743 -0.1888  1.3458
 2714SOL    HW211735   5.601   9.606   1.995 -0.2507  1.3293 -0.5464
 2715SOL     OW11736   8.494  10.507   8.302 -0.3035  0.2714 -0.0330
 2715SOL    HW111737   8.574  10.554   8.276 -0.3133  0.2444 -0.1099
 2715SOL    HW211738   8.490  10.518   8.397  1.4602 -2.2721  0.4354
 2716SOL     OW11739   4.743   8.097   0.708  0.5935  0.2671 -0.5750
 2716SOL    HW111740   4.827   8.143   0.701  0.9007  0.0636  1.3099
 2716SOL    HW211741   4.679   8.159   0.675  1.4169  0.6088 -1.5949
 2717SOL     OW11742   4.986   8.845   1.744 -0.4321 -0.4481 -0.4090
 2717SOL    HW111743   5.018   8.884   1.826 -0.7299 -2.4731  0.7334
 2717SOL    HW211744   4.901   8.886   1.730 -0.0230  0.5112 -0.1552
 2718SOL     OW11745   9.964   6.162   8.891  0.2870  0.3360  0.1257
 2718SOL    HW111746   9.921   6.202   8.966  2.5927 -2.9321  3.6021
 2718SOL    HW211747  10.052   6.198   8.891  1.1953 -1.6921  0.9476
 2719SOL     OW11748   4.191   9.276   7.885 -0.0224  0.0326 -0.2486
 2719SOL    HW111749   4.243   9.351   7.915  0.5627  0.5745 -2.4339
 2719SOL    HW211750   4.133   9.311   7.818 -0.4947 -1.2844 -0.5728
 2720SOL     OW11751   9.546   4.290   0.525  0.1517 -0.2619 -0.3898
 2720SOL    HW111752   9.576   4.309   0.613 -0.9342 -0.2448 -0.0076
 2720SOL    HW211753   9.536   4.195   0.522 -0.2601 -0.2225 -0.3391
 2721SOL     OW11754   5.300   5.672   9.365  0.2822  0.2188 -0.1846
 2721SOL    HW111755   5.344   5.755   9.346  0.7578 -0.0528 -0.2866
 2721SOL    HW211756   5.243   5.692   9.439  1.8230  0.1750  1.0538
 2722SOL     OW11757   8.149   4.688   6.842 -0.1536  0.2772 -0.1619
 2722SOL    HW111758   8.217   4.701   6.908  0.7465 -0.6942 -0.8689
 2722SOL    HW211759   8.096   4.768   6.847  2.7076  2.4830 -1.5450
 2723SOL     OW11760   1.221  11.051   7.248 -0.6563 -0.2602  0.3247
 2723SOL    HW111761   1.176  11.096   7.319 -0.8914  0.8080 -0.4703
 2723SOL    HW211762   1.307  11.092   7.243  0.0088 -1.5052  1.0809
 2724SOL     OW11763   7.370  10.577   3.373  0.1629 -0.6744 -0.2356
 2724SOL    HW111764   7.458  10.587   3.408 -0.4686  0.0634  1.2237
 2724SOL    HW211765   7.326  10.517   3.433 -0.3427 -1.0650 -0.9676
 2725SOL     OW11766   4.129   2.308   8.592  0.6149  0.1192  0.0778
 2725SOL    HW111767   4.131   2.320   8.497  1.3188  0.2368  0.1020
 2725SOL    HW211768   4.071   2.376   8.624  0.1942 -0.0598 -0.2847
 2726SOL     OW11769   1.695   9.160   4.381 -0.0646 -0.3306 -0.1576
 2726SOL    HW111770   1.647   9.231   4.423  0.5778 -0.7631  1.3800
 2726SOL    HW211771   1.635   9.085   4.385 -0.6663  0.0404 -1.6050
 2727SOL     OW11772   0.587   2.936   1.461  0.3180  0.4708 -0.1620
 2727SOL    HW111773   0.652   2.963   1.526 -0.6617  0.7184  0.7498
 2727SOL    HW211774   0.638   2.916   1.383  1.4539  0.9923  0.4193
 2728SOL     OW11775   6.427   0.786  10.105  0.2658 -0.1447  0.5745
 2728SOL    HW111776   6.469   0.867  10.135  1.1601  0.1952 -1.4709
 2728SOL    HW211777   6.482   0.755  10.034 -1.4348 -1.2195 -0.3368
 2729SOL     OW11778   4.546   0.403   9.952  0.1058 -0.0535 -0.2054
 2729SOL    HW111779   4.522   0.389  10.044  1.7381 -0.8643  0.1495
 2729SOL    HW211780   4.641   0.412   9.954  0.0215  1.6972 -1.6340
 2730SOL     OW11781   9.013   4.181  10.769 -0.3838 -0.3306 -0.0748
 2730SOL    HW111782   9.028   4.202  10.861 -2.1570 -0.9203  0.3874
 2730SOL    HW211783   8.943   4.241  10.741  1.3991  1.1491 -1.6137
 2731SOL     OW11784   8.562   3.025   9.095  0.1732 -0.2993 -0.3541
 2731SOL    HW111785   8.548   2.958   9.029  0.9530  0.3798 -1.2158
 2731SOL    HW211786   8.516   3.102   9.062  1.5188  0.3892 -0.6836
 2732SOL     OW11787   1.645  10.801   9.758  0.3207 -0.6161 -0.3323
 2732SOL    HW111788   1.689  10.757   9.830  1.9665 -0.2097 -1.0467
 2732SOL    HW211789   1.707  10.795   9.685 -1.8823 -2.3985 -2.2310
 2733SOL     OW11790   9.059   1.724  10.267  0.1391 -0.2315 -0.7507
 2733SOL    HW111791   9.123   1.704  10.199  0.4257  1.0763 -0.8763
 2733SOL    HW211792   9.001   1.647  10.268  0.4988 -0.5366 -2.0256
 2734SOL     OW11793   2.391   6.876   5.854 -0.5700  0.2445  0.3843
 2734SOL    HW111794   2.329   6.902   5.922 -2.3239  1.2383 -1.4696
 2734SOL    HW211795   2.387   6.780   5.853 -0.3082  0.2038  1.8324
 2735SOL     OW11796   7.068   7.662   1.160  0.3927  0.0997 -0.3811
 2735SOL    HW111797   7.142   7.616   1.200 -0.3604 -0.7726  0.0449
 2735SOL    HW211798   7.038   7.722   1.229  0.3107 -0.0097 -0.3201
 2736SOL     OW11799   8.850   1.999   1.446  0.3390  0.5329 -0.2589
 2736SOL    HW111800   8.849   1.927   1.509  0.8257  0.5458 -0.2312
 2736SOL    HW211801   8.798   1.967   1.372 -0.5710  0.6669  0.3053
 2737SOL     OW11802   1.878  10.369   7.666  0.4118  0.1608 -0.2005
 2737SOL    HW111803   1.819  10.349   7.739  2.7084 -3.1247  0.9974
 2737SOL    HW211804   1.953  10.413   7.707  1.1998 -0.6512 -0.7347
 2738SOL     OW11805   2.040   4.862   9.869  0.2579  0.9762 -0.0758
 2738SOL    HW111806   2.065   4.858   9.777 -0.1290  1.9304 -0.2434
 2738SOL    HW211807   1.961   4.808   9.875  1.0209 -0.1569 -0.0190
 2739SOL     OW11808   8.063   3.237  10.170  0.0644  0.7791  0.0600
 2739SOL    HW111809   8.085   3.271  10.084  0.9692  0.3700  0.1148
 2739SOL    HW211810   8.035   3.313  10.221  0.1904  1.1231 -0.3885
 2740SOL     OW11811   8.294   5.449   0.291 -0.3522  0.2189 -0.3298
 2740SOL    HW111812   8.215   5.484   0.333  0.6902  1.4890  0.6485
 2740SOL    HW211813   8.356   5.521   0.294  0.7643 -0.6703 -1.3448
 2741SOL     OW11814   6.616   2.325   0.260 -0.1512  0.2703  0.5764
 2741SOL    HW111815   6.540   2.268   0.267  1.4815 -2.2157 -0.4628
 2741SOL    HW211816   6.621   2.348   0.168 -0.5301  1.8024  0.9119
 2742SOL     OW11817   3.619   4.188   5.217 -0.1532  0.2840 -0.0587
 2742SOL    HW111818   3.539   4.224   5.256 -0.5861 -2.0434  1.4152
 2742SOL    HW211819   3.689   4.218   5.275  0.2182  2.8028 -1.6699
 2743SOL     OW11820   5.511   4.605   5.475  0.2792  0.1086 -0.2683
 2743SOL    HW111821   5.494   4.667   5.404 -1.0334  0.8549  0.6732
 2743SOL    HW211822   5.559   4.655   5.540 -1.9141  0.5764  1.0816
 2744SOL     OW11823   7.187   3.327   5.782  0.6082 -0.2076 -0.2210
 2744SOL    HW111824   7.129   3.322   5.858  0.6534  2.5370  0.0789
 2744SOL    HW211825   7.246   3.400   5.801  1.8546 -0.6495 -2.0881
 2745SOL     OW11826   1.034   4.881   5.591  0.3438  0.1280  0.1107
 2745SOL    HW111827   0.981   4.942   5.642  0.5210 -0.7558  1.4426
 2745SOL    HW211828   1.101   4.935   5.550  0.4045  0.8639  1.1288
 2746SOL     OW11829   0.012   4.330   8.791  0.1551 -0.1030  0.2149
 2746SOL    HW111830  -0.078   4.307   8.814  0.1686 -0.3591  0.0107
 2746SOL    HW211831   0.064   4.257   8.823  0.3474  0.2692  0.7658
 2747SOL     OW11832   6.780   2.084   1.139  0.4844 -0.4858  0.0577
 2747SOL    HW111833   6.686   2.086   1.122  0.4997  0.0008  0.0218
 2747SOL    HW211834   6.802   1.991   1.139 -0.0429 -0.6129  0.3242
 2748SOL     OW11835   1.664   7.546   8.356 -0.2651 -0.0309  0.3955
 2748SOL    HW111836   1.622   7.465   8.384 -0.7516 -0.7697 -2.1867
 2748SOL    HW211837   1.722   7.520   8.285  0.2980  1.7535  0.1447
 2749SOL     OW11838   8.337   1.117   3.127  0.2887 -0.0482 -0.9637
 2749SOL    HW111839   8.395   1.095   3.054  1.2226 -0.2342 -0.1951
 2749SOL    HW211840   8.397   1.136   3.200 -0.6195 -2.5688  0.5406
 2750SOL     OW11841  10.427   6.668   1.271  0.3687  0.4738 -0.6603
 2750SOL    HW111842  10.390   6.611   1.203 -0.0681 -2.0421  1.5314
 2750SOL    HW211843  10.353   6.686   1.330  0.9554  1.7910 -0.2729
 2751SOL     OW11844   2.723   6.535   9.459  0.1992  0.5812 -0.2287
 2751SOL    HW111845   2.756   6.455   9.501  0.2733  1.7653  2.1435
 2751SOL    HW211846   2.792   6.600   9.472 -0.7120  1.5880 -0.2354
 2752SOL     OW11847   5.439   3.025   9.451  1.2019 -0.3109  0.1680
 2752SOL    HW111848   5.391   3.087   9.395 -0.0027 -1.7878 -0.5028
 2752SOL    HW211849   5.498   2.980   9.391  1.4533 -0.4165  0.4930
 2753SOL     OW11850  10.839   3.404   9.670 -0.0847  0.3336  0.2695
 2753SOL    HW111851  10.850   3.460   9.747 -3.1012  1.8081 -0.2373
 2753SOL    HW211852  10.800   3.462   9.604 -1.0588 -1.8097 -1.1215
 2754SOL     OW11853   2.793   3.937   9.250  0.1198  0.3148 -0.0117
 2754SOL    HW111854   2.781   4.027   9.221 -0.0553  0.4365  0.4222
 2754SOL    HW211855   2.885   3.917   9.231  0.7419  1.2926  1.7810
 2755SOL     OW11856   0.034   4.155   2.292 -0.0058 -0.8656 -0.2863
 2755SOL    HW111857   0.120   4.186   2.264 -0.2500  0.9992  0.8679
 2755SOL    HW211858  -0.028   4.211   2.245 -0.6606 -2.5936 -1.5877
 2756SOL     OW11859   5.404  10.280   1.530 -0.4537 -0.1222  0.4532
 2756SOL    HW111860   5.488  10.249   1.562  0.0276 -3.1597 -3.0823
 2756SOL    HW211861   5.340  10.219   1.567 -0.4309 -0.8772 -0.7097
 2757SOL     OW11862   0.232   0.444  11.097  0.1472 -0.1952 -0.4514
 2757SOL    HW111863   0.280   0.444  11.014  1.3995 -0.5332  0.2484
 2757SOL    HW211864   0.291   0.487  11.159 -0.9891  0.5319  0.1639
 2758SOL     OW11865   6.893   2.586   7.104  0.0547 -0.1484  0.1811
 2758SOL    HW111866   6.967   2.564   7.160  2.3106  0.5327 -2.3313
 2758SOL    HW211867   6.888   2.681   7.107  0.9042 -0.0126 -1.4939
 2759SOL     OW11868   1.846   4.239   2.308  0.3017 -0.2163 -0.0131
 2759SOL    HW111869   1.905   4.239   2.232 -0.8539 -1.8604 -1.0013
 2759SOL    HW211870   1.843   4.147   2.335  0.5041  0.3005  1.9278
 2760SOL     OW11871   7.307   8.869   4.408 -0.0147 -0.7320 -0.0219
 2760SOL    HW111872   7.336   8.940   4.352 -0.7200 -1.8984 -1.9589
 2760SOL    HW211873   7.332   8.896   4.497 -0.0339  1.7663 -0.7171
 2761SOL     OW11874   5.280   3.255   3.915 -0.5347  0.4799  0.3459
 2761SOL    HW111875   5.236   3.289   3.837 -2.0204  0.0633  0.9586
 2761SOL    HW211876   5.313   3.170   3.889  2.2664  1.8043 -0.8801
 2762SOL     OW11877   8.463   4.521   7.972  0.0628  0.2624  0.4613
 2762SOL    HW111878   8.433   4.435   7.942 -0.7361  0.3923  0.8756
 2762SOL    HW211879   8.411   4.538   8.051  0.2012  1.1409  0.3642
 2763SOL     OW11880   7.324   8.882   1.050  0.2881 -0.1900 -0.2813
 2763SOL    HW111881   7.297   8.791   1.048 -0.4359 -0.0560  1.3573
 2763SOL    HW211882   7.420   8.879   1.051  0.3019 -1.0728  1.8790
 2764SOL     OW11883   1.802   3.692   8.748  0.0982 -0.6313  0.4213
 2764SOL    HW111884   1.850   3.656   8.673  1.1335  1.2889  0.1041
 2764SOL    HW211885   1.748   3.762   8.712  0.9115  0.5950  1.4925
 2765SOL     OW11886   2.185   4.447   5.143  0.8076 -0.0755 -0.1696
 2765SOL    HW111887   2.203   4.523   5.087  2.2019 -0.1309  0.1690
 2765SOL    HW211888   2.228   4.468   5.226  0.2419 -0.7558  0.3015
 2766SOL     OW11889   2.630   9.493   5.836  0.0328 -0.2872 -0.3242
 2766SOL    HW111890   2.675   9.474   5.919  0.6263 -0.1926 -0.6227
 2766SOL    HW211891   2.682   9.448   5.770 -0.7069 -0.7608 -0.5998
 2767SOL     OW11892  10.203   4.489   6.432 -1.0963  0.3966 -0.0587
 2767SOL    HW111893  10.240   4.494   6.344 -0.4822  3.2551  0.2646
 2767SOL    HW211894  10.276   4.464   6.487 -1.6787 -2.2939 -0.3783
 2768SOL     OW11895   9.213   0.993   4.886 -0.1430 -0.3167 -0.0455
 2768SOL    HW111896   9.168   0.915   4.920 -1.6486 -0.6296 -2.4378
 2768SOL    HW211897   9.232   1.046   4.963 -3.1012 -1.0216  1.3233
 2769SOL     OW11898   5.797   8.652   8.913  0.0397 -0.4081  0.3299
 2769SOL    HW111899   5.743   8.723   8.878 -0.3049 -1.2549 -0.9272
 2769SOL    HW211900   5.839   8.690   8.990 -0.8996  0.8465  0.2562
 2770SOL     OW11901   3.283   9.812   1.980 -0.6652 -0.2415  0.4493
 2770SOL    HW111902   3.195   9.841   2.006 -0.9465 -1.3698  0.8278
 2770SOL    HW211903   3.268   9.750   1.909 -0.1145  0.1503 -0.0160
 2771SOL     OW11904   9.846  10.359   1.254  0.1554 -0.5130  0.3488
 2771SOL    HW111905   9.842  10.382   1.347 -1.0523  1.0921 -0.0453
 2771SOL    HW211906   9.898  10.429   1.215 -2.5576  1.0750 -0.7121
 2772SOL     OW11907   4.957   3.939   0.431 -0.0098 -0.2114 -0.0334
 2772SOL    HW111908   4.962   4.030   0.458 -0.1620  0.9563 -3.3920
 2772SOL    HW211909   5.012   3.892   0.493 -0.5412  1.9884  2.2764
 2773SOL     OW11910   9.766   5.018   8.461 -0.3930 -0.0714 -0.8081
 2773SOL    HW111911   9.824   4.944   8.443  0.3760  0.2821  0.1205
 2773SOL    HW211912   9.770   5.029   8.556 -0.5855  1.0875 -0.9178
 2774SOL     OW11913   4.476   4.457   4.639 -0.2992 -0.1944  0.1310
 2774SOL    HW111914   4.517   4.447   4.725  2.5948  0.6721 -1.0144
 2774SOL    HW211915   4.498   4.546   4.612 -1.6065 -0.2664 -1.3074
 2775SOL     OW11916   6.891   8.291   8.990 -0.6368 -0.3771  0.4391
 2775SOL    HW111917   6.802   8.274   8.959  0.1064 -0.8277 -1.6262
 2775SOL    HW211918   6.946   8.277   8.913  1.2116  0.1158  1.6067
 2776SOL     OW11919   8.278   0.389   6.749 -0.0428 -0.0764  0.6791
 2776SOL    HW111920   8.328   0.367   6.670 -0.1093 -2.3146  1.1860
 2776SOL    HW211921   8.298   0.481   6.765 -0.7464  0.7640 -2.4465
 2777SOL     OW11922   8.944   3.744   4.426  0.1049 -0.1198  0.2213
 2777SOL    HW111923   8.910   3.745   4.515  0.8927 -0.1949  0.5270
 2777SOL    HW211924   8.925   3.655   4.395 -0.5087  0.0221  0.1730
 2778SOL     OW11925  10.933   0.394  10.935 -0.2401  0.1072  0.4954
 2778SOL    HW111926  11.001   0.355  10.880  0.1589  0.6133  0.6206
 2778SOL    HW211927  10.944   0.488  10.923  0.1939  0.2443  1.8590
 2779SOL     OW11928   9.116   4.101   4.276  0.3942 -0.0308  0.3890
 2779SOL    HW111929   9.127   4.107   4.371  0.2461  0.5100  0.3744
 2779SOL    HW211930   9.120   4.007   4.257 -0.2735 -0.1976  1.0204
 2780SOL     OW11931   0.873   3.503   3.544 -0.0696 -0.1931 -0.3315
 2780SOL    HW111932   0.943   3.568   3.538 -0.7829  0.7313  1.0343
 2780SOL    HW211933   0.793   3.553   3.533 -0.5799 -1.1257 -1.0404
 2781SOL     OW11934   2.173   8.842   6.837  0.4087 -0.4942  0.0479
 2781SOL    HW111935   2.232   8.916   6.853 -0.0440 -0.3166  0.9858
 2781SOL    HW211936   2.094   8.863   6.888 -0.5273 -0.6637 -1.2839
 2782SOL     OW11937   1.533   7.519   1.926 -0.0834  0.1731  0.2545
 2782SOL    HW111938   1.496   7.590   1.873 -0.6834  0.7964  1.4586
 2782SOL    HW211939   1.506   7.439   1.881  0.6823  0.6862 -1.1772
 2783SOL     OW11940   9.875   7.083   4.922  0.8201  0.2061 -0.4903
 2783SOL    HW111941   9.926   7.121   4.993  0.8665 -0.5869 -0.0914
 2783SOL    HW211942   9.853   6.995   4.952 -1.0140  0.6093 -0.5316
 2784SOL     OW11943   2.722  10.158   4.417 -0.3436  0.0090  0.4821
 2784SOL    HW111944   2.720  10.243   4.460 -2.6193 -0.0358  0.6098
 2784SOL    HW211945   2.810  10.125   4.432  0.2685  1.8950  1.2987
 2785SOL     OW11946   0.095   8.030   0.400  0.0629 -0.0104  0.1873
 2785SOL    HW111947   0.146   8.105   0.369 -1.0076  0.7433  0.1979
 2785SOL    HW211948   0.038   8.066   0.468 -0.0812 -0.9500  0.5775
 2786SOL     OW11949   0.172   0.784   5.695  0.2607 -0.0459  0.0119
 2786SOL    HW111950   0.246   0.795   5.754 -0.7741 -0.2688  1.3941
 2786SOL    HW211951   0.209   0.744   5.616  1.3832 -1.3940  1.1850
 2787SOL     OW11952   6.175   6.543   6.111 -0.3191 -0.0138  0.2214
 2787SOL    HW111953   6.143   6.603   6.043  1.3923 -0.2145 -0.8248
 2787SOL    HW211954   6.229   6.597   6.168  0.3026 -0.3236 -0.0630
 2788SOL     OW11955   2.410   0.296   1.501 -0.0670 -0.8085  0.5006
 2788SOL    HW111956   2.354   0.264   1.429  0.0178  0.2829 -0.0763
 2788SOL    HW211957   2.372   0.381   1.525  0.7881 -0.4816  0.7368
 2789SOL     OW11958   7.141   8.106   5.420 -0.3875 -0.4523  0.4233
 2789SOL    HW111959   7.224   8.064   5.397 -0.8149 -2.4081  2.1142
 2789SOL    HW211960   7.166   8.177   5.479  0.1366 -0.4219  0.1745
 2790SOL     OW11961   3.152   5.415   9.393  0.4230 -0.2103 -0.1594
 2790SOL    HW111962   3.075   5.432   9.338  0.5436 -0.9372 -0.5649
 2790SOL    HW211963   3.163   5.320   9.389  1.0969 -0.1496  0.2328
 2791SOL     OW11964   6.136   0.198  11.076  0.2509 -0.3021 -0.1975
 2791SOL    HW111965   6.120   0.292  11.075 -2.4191 -0.6424  0.9366
 2791SOL    HW211966   6.079   0.163  11.007 -1.5370 -1.3014  1.6323
 2792SOL     OW11967   9.381   1.055   3.700 -0.4679  0.1715 -0.1481
 2792SOL    HW111968   9.337   1.005   3.769 -1.3607 -0.4118 -1.1140
 2792SOL    HW211969   9.311   1.086   3.643  0.2845  0.0855 -1.1608
 2793SOL     OW11970   2.759   9.027   4.840 -0.5038 -0.0800  0.4023
 2793SOL    HW111971   2.688   8.963   4.845  1.2105 -2.0585  0.9383
 2793SOL    HW211972   2.829   8.989   4.892  1.3734  1.2166 -1.0410
 2794SOL     OW11973   5.097   3.069   3.690 -0.9949  0.6357  0.3674
 2794SOL    HW111974   5.021   3.119   3.720  0.2537  2.4180  0.7293
 2794SOL    HW211975   5.141   3.042   3.771 -0.1250  1.4301  0.1733
 2795SOL     OW11976   9.208   2.245   3.603 -0.2999  0.1943  0.0836
 2795SOL    HW111977   9.154   2.194   3.664 -1.3265  0.9878 -0.1284
 2795SOL    HW211978   9.179   2.217   3.516  1.9125 -1.7237 -0.1110
 2796SOL     OW11979   8.529   9.212   5.639 -0.1121  0.4896 -0.0703
 2796SOL    HW111980   8.616   9.183   5.612  0.0697  1.0491 -0.1039
 2796SOL    HW211981   8.473   9.136   5.626 -0.1350  0.8543 -2.5129
 2797SOL     OW11982   7.387   5.002   5.078 -0.1470 -0.4373 -0.3728
 2797SOL    HW111983   7.400   5.096   5.090 -3.2437 -0.1683  2.1544
 2797SOL    HW211984   7.336   4.995   4.997 -1.6301  0.3052  0.4616
 2798SOL     OW11985  10.908   6.239   3.594  0.0108 -0.1021 -0.3301
 2798SOL    HW111986  10.870   6.325   3.612 -0.4183 -0.3406 -0.0848
 2798SOL    HW211987  10.900   6.229   3.499  0.3478  0.2558 -0.4019
 2799SOL     OW11988   1.051  10.510   1.189  0.2093  0.0627 -0.1925
 2799SOL    HW111989   1.122  10.556   1.145  1.2678  0.1106  1.4785
 2799SOL    HW211990   1.095  10.455   1.254 -1.2628 -0.1820  0.6424
 2800SOL     OW11991   6.581   0.337   1.511 -0.0409  0.2216  0.0424
 2800SOL    HW111992   6.674   0.330   1.490 -0.1062 -1.4438  0.1981
 2800SOL    HW211993   6.543   0.383   1.436  0.6198 -0.6629 -0.8522
 2801SOL     OW11994   2.678   1.402   6.190  0.3414  0.3129  0.3014
 2801SOL    HW111995   2.744   1.382   6.124  0.1134  0.0628  0.1441
 2801SOL    HW211996   2.715   1.370   6.272 -0.3011 -1.4224 -0.0463
 2802SOL     OW11997   2.397   8.565   9.875 -0.6842  0.0109 -0.0688
 2802SOL    HW111998   2.422   8.586   9.966  0.1550  0.0865 -0.3076
 2802SOL    HW211999   2.312   8.522   9.883 -0.5608 -0.0989  0.7661
 2803SOL     OW12000   0.451   4.045   0.014 -0.4433  0.3675  0.9558
 2803SOL    HW112001   0.358   4.026   0.006 -0.1700 -1.7151  1.9409
 2803SOL    HW212002   0.490   4.004  -0.064 -0.2249  0.0322  1.2360
 2804SOL     OW12003   4.087   0.902   4.652 -0.1686 -0.1499  0.0180
 2804SOL    HW112004   4.137   0.860   4.722 -0.4088  1.3772  1.1626
 2804SOL    HW212005   4.114   0.993   4.655  0.8019 -0.2612 -2.8041
 2805SOL     OW12006   2.123  10.635   5.994  0.0072 -0.1586  0.0167
 2805SOL    HW112007   2.153  10.559   5.945 -0.4391  0.0722 -0.6217
 2805SOL    HW212008   2.136  10.611   6.086  0.8520 -0.5904 -0.2067
 2806SOL     OW12009   2.764   6.768   2.114 -0.0060  0.8316 -0.1283
 2806SOL    HW112010   2.814   6.716   2.052 -0.5746  0.0307  0.0703
 2806SOL    HW212011   2.737   6.706   2.182  0.5744  1.6730  0.9167
 2807SOL     OW12012   6.106   9.487   3.740  0.4245  0.3327 -0.1529
 2807SOL    HW112013   6.030   9.503   3.684  0.5560 -0.0279 -0.4299
 2807SOL    HW212014   6.130   9.396   3.724  2.0557  0.9522 -1.4558
 2808SOL     OW12015   9.961   7.871   1.697 -0.7875 -0.3869 -0.3543
 2808SOL    HW112016   9.922   7.882   1.610 -2.8790  2.2965  0.7750
 2808SOL    HW212017  10.007   7.954   1.713  0.8452 -1.4076  0.5790
 2809SOL     OW12018   9.300   9.015   4.564  0.2534  0.1730  0.5223
 2809SOL    HW112019   9.278   8.973   4.481 -0.1271 -0.8669  1.1379
 2809SOL    HW212020   9.344   8.948   4.615 -0.9486  0.2808  1.7790
 2810SOL     OW12021   9.015   3.562   1.323  0.7024  0.7876 -0.0415
 2810SOL    HW112022   9.030   3.488   1.381  2.8941  1.0547 -0.2042
 2810SOL    HW212023   8.921   3.579   1.329  0.6672 -0.0008  2.4041
 2811SOL     OW12024   9.122   3.600   8.081 -0.1340  0.2602 -0.0322
 2811SOL    HW112025   9.070   3.669   8.039 -1.9975 -0.7309  0.5428
 2811SOL    HW212026   9.129   3.532   8.014  0.2999  0.3293 -0.0570
 2812SOL     OW12027   2.580   5.608  10.878 -0.3016  0.4813 -0.2621
 2812SOL    HW112028   2.644   5.655  10.825  0.0577 -0.2411 -0.4912
 2812SOL    HW212029   2.508   5.589  10.817  0.7796 -1.7002 -0.9612
 2813SOL     OW12030   5.454   3.883   7.527  0.0567 -0.1040  0.0196
 2813SOL    HW112031   5.531   3.889   7.584  0.3138  3.2237 -0.4510
 2813SOL    HW212032   5.489   3.859   7.441 -0.1267 -3.3302  0.7085
 2814SOL     OW12033   5.908   9.068   7.305  0.1362 -0.0700 -0.0389
 2814SOL    HW112034   5.929   9.039   7.394  0.2557  0.6269  0.1729
 2814SOL    HW212035   5.910   9.164   7.311 -3.2110  0.1286  0.0727
 2815SOL     OW12036   8.707   7.866   7.102  0.1108  0.2958  0.2822
 2815SOL    HW112037   8.670   7.894   7.018 -0.3655 -2.0042 -0.3519
 2815SOL    HW212038   8.630   7.840   7.154  0.4709  0.8197  1.0993
 2816SOL     OW12039   2.079   2.669   5.862  0.4885  0.3940  0.3958
 2816SOL    HW112040   2.086   2.711   5.776 -0.4676  1.2195  0.7031
 2816SOL    HW212041   2.065   2.576   5.842  5.0196 -0.3835 -0.3026
 2817SOL     OW12042   0.680  10.899   2.372 -0.1345 -0.1732 -0.4382
 2817SOL    HW112043   0.645  10.810   2.377 -0.2319 -0.1488 -0.6839
 2817SOL    HW212044   0.769  10.888   2.340 -0.1151 -0.1894 -0.3792
 2818SOL     OW12045   3.993   6.153  10.861 -0.0189  0.5385  0.3945
 2818SOL    HW112046   4.074   6.196  10.889 -1.0408  1.7375  1.6918
 2818SOL    HW212047   4.022   6.073  10.817  1.8569  0.9473  0.7984
 2819SOL     OW12048   3.583   0.208   5.301  0.0341 -0.2909  0.7129
 2819SOL    HW112049   3.588   0.119   5.267 -0.7692 -0.0456 -0.0884
 2819SOL    HW212050   3.617   0.263   5.230  0.0229  0.0935  1.0003
 2820SOL     OW12051  10.851   9.234   2.021 -0.2798 -0.1387  0.3380
 2820SOL    HW112052  10.838   9.326   2.000  0.7921  0.2364  1.2232
 2820SOL    HW212053  10.819   9.187   1.943 -2.5374  0.8506  0.5957
 2821SOL     OW12054   9.107   8.000  10.515  0.1902  0.3338  0.3861
 2821SOL    HW112055   9.035   8.038  10.465  0.1084  0.8839  0.9177
 2821SOL    HW212056   9.186   8.023  10.465  0.0472  0.1511  0.0683
 2822SOL     OW12057  10.516   6.945   0.662  0.1038 -0.8843 -0.3960
 2822SOL    HW112058  10.514   7.038   0.641 -0.5620 -0.7631  0.1747
 2822SOL    HW212059  10.609   6.923   0.666  0.4933  0.7481  3.7414
 2823SOL     OW12060  10.442   6.259   7.389  0.1399  0.2782 -0.0720
 2823SOL    HW112061  10.469   6.243   7.299 -0.4352  0.4367 -0.2724
 2823SOL    HW212062  10.508   6.214   7.442 -0.5489 -1.4325 -0.5920
 2824SOL     OW12063   4.174   7.561   5.557  0.1922  0.3205 -0.0841
 2824SOL    HW112064   4.185   7.653   5.532  0.4031  0.2419 -0.2771
 2824SOL    HW212065   4.230   7.512   5.497  1.0533  0.1718  0.8094
 2825SOL     OW12066  10.366   7.617   8.846 -0.4284  0.3126  0.4567
 2825SOL    HW112067  10.448   7.646   8.886  0.5681  1.8975 -2.4776
 2825SOL    HW212068  10.301   7.682   8.873 -0.2879  0.1554  1.1909
 2826SOL     OW12069   0.035   0.685   6.191  0.3588 -0.2767 -0.1011
 2826SOL    HW112070   0.064   0.724   6.273 -1.0449  1.9410 -0.5808
 2826SOL    HW212071   0.105   0.706   6.129 -0.1047  1.0522 -0.2127
 2827SOL     OW12072   5.315   9.260   1.976 -0.7520 -0.7670 -0.1994
 2827SOL    HW112073   5.246   9.194   1.982  2.1282 -4.0272  0.4756
 2827SOL    HW212074   5.359   9.256   2.061  1.1884 -0.0071 -1.1110
 2828SOL     OW12075   6.479   1.922  10.820  0.2461 -0.2743 -0.3284
 2828SOL    HW112076   6.514   2.005  10.853 -1.7426  0.7372 -0.6171
 2828SOL    HW212077   6.391   1.917  10.856 -0.5201 -1.1212 -2.1921
 2829SOL     OW12078  10.178   0.694   3.807 -0.0015 -0.3583 -0.4026
 2829SOL    HW112079  10.158   0.601   3.821  0.2567 -0.4620 -0.7342
 2829SOL    HW212080  10.265   0.695   3.768  0.7580  0.1064  1.2191
 2830SOL     OW12081   4.979   6.512   2.002 -0.0598  0.4426 -0.6766
 2830SOL    HW112082   5.036   6.484   2.073  1.3403  0.1589 -1.8528
 2830SOL    HW212083   4.999   6.606   1.991  0.3359  0.3036 -1.2022
 2831SOL     OW12084   3.596   5.939   2.674 -0.0110  0.6780 -0.3354
 2831SOL    HW112085   3.624   6.005   2.737  1.0338  0.7368 -0.8372
 2831SOL    HW212086   3.677   5.894   2.650 -0.9984 -3.7449  3.1631
 2832SOL     OW12087  10.464   4.180   8.287  0.5984 -0.0717 -0.9294
 2832SOL    HW112088  10.458   4.122   8.363  0.5447  1.9201  0.6663
 2832SOL    HW212089  10.392   4.152   8.230 -0.9298 -0.0647  0.8930
 2833SOL     OW12090   1.053   8.275   1.730 -0.8974 -0.2642  0.3734
 2833SOL    HW112091   1.037   8.308   1.642 -2.5121  2.0646  1.4380
 2833SOL    HW212092   0.967   8.276   1.772 -0.3702 -2.4482  1.6724
 2834SOL     OW12093   5.892   7.989   8.777  0.2557 -0.1932  0.0547
 2834SOL    HW112094   5.837   7.962   8.851  0.2254 -1.4100 -0.3908
 2834SOL    HW212095   5.929   7.908   8.743  1.4616  0.4908 -0.3555
 2835SOL     OW12096   2.583   3.060   9.225  0.1486  0.4383  0.3296
 2835SOL    HW112097   2.606   2.980   9.272 -2.4102 -0.1993  0.6505
 2835SOL    HW212098   2.621   3.130   9.277  0.5234 -0.4455  1.2869
 2836SOL     OW12099   5.584   9.258   7.108 -0.7120  0.0106  0.0536
 2836SOL    HW112100   5.541   9.343   7.103 -0.4287  0.0912 -1.7623
 2836SOL    HW212101   5.669   9.272   7.067 -1.0935 -1.3746 -1.3031
 2837SOL     OW12102   9.335   4.024   7.381  0.6364  0.4658 -0.3847
 2837SOL    HW112103   9.414   4.014   7.328 -0.2020 -0.8837 -1.4567
 2837SOL    HW212104   9.274   4.072   7.325  0.3749  0.6786  0.0789
 2838SOL     OW12105   1.454   1.807  10.704 -0.4852  0.0380 -0.0967
 2838SOL    HW112106   1.525   1.848  10.655  0.4405 -2.3325 -0.8902
 2838SOL    HW212107   1.394   1.878  10.724  1.4990  1.9125 -0.4857
 2839SOL     OW12108   0.878   8.501   0.782  0.5219 -0.0203 -0.4942
 2839SOL    HW112109   0.933   8.481   0.706  0.0296 -0.4477 -0.7469
 2839SOL    HW212110   0.827   8.421   0.796 -0.8228  0.7401 -0.9347
 2840SOL     OW12111   6.906   3.366   7.000  0.3497  0.3381 -0.0217
 2840SOL    HW112112   6.886   3.376   6.907  0.2676  0.8296  0.0480
 2840SOL    HW212113   6.975   3.300   7.003 -0.3229 -0.3933 -0.3612
 2841SOL     OW12114   7.768   9.201   1.155 -0.1669  0.0613  0.4701
 2841SOL    HW112115   7.675   9.218   1.141 -0.4485 -1.7120 -0.0623
 2841SOL    HW212116   7.813   9.266   1.101 -1.1457 -0.9313 -1.6399
 2842SOL     OW12117   5.795   1.909   6.939 -0.5022  0.0265  0.0007
 2842SOL    HW112118   5.831   1.998   6.935  0.3390 -0.2640  0.7313
 2842SOL    HW212119   5.810   1.881   7.029 -2.0848 -0.3294  0.1842
 2843SOL     OW12120   2.801  10.354   0.443  1.1039 -0.5336  0.2008
 2843SOL    HW112121   2.887  10.381   0.472  0.7558 -1.1941  1.9712
 2843SOL    HW212122   2.818  10.291   0.373  2.0393 -0.3821  0.2874
 2844SOL     OW12123   5.512   6.747   0.514  0.0997  0.3967  0.3485
 2844SOL    HW112124   5.603   6.727   0.493 -0.3483  0.5641 -2.0873
 2844SOL    HW212125   5.512   6.841   0.534  0.0553  1.3153 -3.2300
 2845SOL     OW12126   7.591   3.686   1.359 -0.2857 -0.0409 -0.5902
 2845SOL    HW112127   7.585   3.782   1.350 -0.7127 -0.0254 -0.1895
 2845SOL    HW212128   7.666   3.662   1.305  1.4891  0.8303  1.3426
 2846SOL     OW12129   7.841  11.049   7.917 -0.1710 -0.3948  0.4400
 2846SOL    HW112130   7.907  11.070   7.851 -1.2315  0.4846 -0.3728
 2846SOL    HW212131   7.883  11.071   8.000  0.6486 -0.0894 -0.0420
 2847SOL     OW12132   7.636   9.053   5.975  0.3183  0.8056 -0.1558
 2847SOL    HW112133   7.542   9.059   5.995  0.1043 -0.2858 -0.7131
 2847SOL    HW212134   7.663   8.971   6.016  0.7994  0.6223 -0.8316
 2848SOL     OW12135   0.655   4.637   4.125  0.0270 -0.1334  0.1730
 2848SOL    HW112136   0.722   4.591   4.074 -0.1116  0.4322 -0.5432
 2848SOL    HW212137   0.587   4.659   4.061 -0.4706 -0.0021  0.7386
 2849SOL     OW12138   0.654   0.565   8.101  0.1602 -0.1800 -0.0927
 2849SOL    HW112139   0.615   0.634   8.047  2.0305  0.1148 -1.1681
 2849SOL    HW212140   0.733   0.539   8.053  1.3038 -0.7181  1.9485
 2850SOL     OW12141   7.303   1.964   5.147 -0.1431 -0.1435  0.0979
 2850SOL    HW112142   7.229   2.002   5.193 -0.1445  0.2855 -0.2625
 2850SOL    HW212143   7.367   2.035   5.142 -0.0182 -0.2840 -0.2849
 2851SOL     OW12144   1.212   0.618   5.242  0.3089  0.4997 -0.2135
 2851SOL    HW112145   1.127   0.591   5.206  0.4009  1.0185 -0.8399
 2851SOL    HW212146   1.203   0.712   5.257  0.7321  0.5367 -0.1816
 2852SOL     OW12147   4.306   3.519   3.930 -0.3150  0.2961 -0.1874
 2852SOL    HW112148   4.339   3.452   3.870  0.7631  0.3025  0.3598
 2852SOL    HW212149   4.363   3.595   3.914 -2.1671  1.4671 -1.5332
 2853SOL     OW12150   9.413   9.807   6.167 -0.1226  0.1640 -0.2198
 2853SOL    HW112151   9.383   9.821   6.257  1.1711  0.7886  0.1398
 2853SOL    HW212152   9.357   9.864   6.114  0.2851  1.1685  0.4051
 2854SOL     OW12153   7.583   1.273  10.568  0.0557  0.3068  0.2305
 2854SOL    HW112154   7.567   1.194  10.516 -0.1763  0.5198 -0.0236
 2854SOL    HW212155   7.550   1.345  10.513 -2.1684  0.3786  1.5506
 2855SOL     OW12156   8.881   8.795   5.510 -0.0767  0.1023 -0.0218
 2855SOL    HW112157   8.819   8.786   5.437 -0.4537  0.2175  0.2774
 2855SOL    HW212158   8.878   8.710   5.554 -2.8040  1.1687  2.1460
 2856SOL     OW12159  10.706   2.953  10.426 -0.4459 -0.0961 -0.1659
 2856SOL    HW112160  10.735   2.913  10.344 -0.4858  0.5029 -0.4806
 2856SOL    HW212161  10.648   2.888  10.465  0.3275 -0.7789 -0.1431
 2857SOL     OW12162   4.779   3.777   8.988  0.6392 -0.1683  0.3030
 2857SOL    HW112163   4.857   3.826   8.962  0.4270  1.1678  2.0441
 2857SOL    HW212164   4.812   3.711   9.049  0.2784  1.5771  2.5175
 2858SOL     OW12165   4.846   0.379   0.516 -1.1905 -0.5237 -0.2150
 2858SOL    HW112166   4.808   0.360   0.602 -2.7905  0.2487 -0.7116
 2858SOL    HW212167   4.936   0.406   0.535 -1.6939  0.2085  1.2786
 2859SOL     OW12168   3.227   0.164   1.846  0.0966 -0.6533 -0.9108
 2859SOL    HW112169   3.256   0.102   1.780 -1.4031 -1.3879 -0.9107
 2859SOL    HW212170   3.159   0.216   1.803 -0.1179 -0.4030 -0.2845
 2860SOL     OW12171   0.294   8.055   1.566 -0.0395 -0.0064 -0.1347
 2860SOL    HW112172   0.259   8.143   1.580  2.1243  0.9607 -0.4019
 2860SOL    HW212173   0.389   8.067   1.562  0.3219 -2.3665 -0.1784
 2861SOL     OW12174   5.900   7.030   5.078 -0.1411  0.0980 -0.5496
 2861SOL    HW112175   5.948   7.108   5.050 -1.3169  1.0137 -0.1106
 2861SOL    HW212176   5.820   7.064   5.117 -1.6585 -1.3924 -2.1667
 2862SOL     OW12177   4.464  10.499   5.239 -0.0662  0.0840  0.3608
 2862SOL    HW112178   4.456  10.491   5.144  3.2531 -1.1601  0.0594
 2862SOL    HW212179   4.476  10.593   5.254  1.7881  0.0876 -0.7979
 2863SOL     OW12180   8.107   4.437   3.685  0.3733  0.5930  0.0182
 2863SOL    HW112181   8.187   4.384   3.682  0.6011  0.9520 -0.9350
 2863SOL    HW212182   8.043   4.383   3.731  1.3056  0.4969  1.2459
 2864SOL     OW12183   3.346  10.643   2.870  0.1709  0.2494 -0.3807
 2864SOL    HW112184   3.420  10.671   2.816 -0.7738  0.8397 -1.4062
 2864SOL    HW212185   3.269  10.679   2.827 -0.9786 -2.3055 -0.6896
 2865SOL     OW12186   0.915   9.644   5.880 -0.0897 -0.0253  0.0903
 2865SOL    HW112187   0.959   9.729   5.887 -0.3441  0.1133  0.0204
 2865SOL    HW212188   0.839   9.661   5.824  1.5727 -0.9792 -2.6273
 2866SOL     OW12189  11.056  10.248   0.589  0.3986 -0.1118 -0.3359
 2866SOL    HW112190  11.061  10.154   0.576 -0.8217  0.0504 -2.5428
 2866SOL    HW212191  11.051  10.260   0.684 -0.6028 -2.3538 -0.0516
 2867SOL     OW12192   3.672   0.625   1.866 -0.0393 -0.0426 -0.0407
 2867SOL    HW112193   3.601   0.563   1.849 -0.6422  1.1842 -2.5088
 2867SOL    HW212194   3.742   0.599   1.806  0.4603  0.5028  0.2935
 2868SOL     OW12195   7.419   2.492   7.982  0.1972 -0.0805 -0.1543
 2868SOL    HW112196   7.389   2.482   8.073 -1.0149 -1.2248 -0.6491
 2868SOL    HW212197   7.511   2.468   7.985 -0.2609 -1.9095  0.4808
 2869SOL     OW12198   2.454   5.829   2.529  0.1145 -0.0753 -0.2409
 2869SOL    HW112199   2.404   5.815   2.609 -1.7778  2.3130 -0.8722
 2869SOL    HW212200   2.534   5.873   2.559 -0.5337  0.7178  0.4065
 2870SOL     OW12201   4.298   3.848  10.361  0.1513  0.3252  0.1455
 2870SOL    HW112202   4.288   3.753  10.372  0.1292  0.2026 -0.9003
 2870SOL    HW212203   4.216   3.877  10.323  1.2092  0.2975 -2.3320
 2871SOL     OW12204   2.312   0.026   3.248  0.3574 -0.5210 -0.1234
 2871SOL    HW112205   2.287  -0.013   3.164  0.8021  0.2516 -0.6258
 2871SOL    HW212206   2.398   0.065   3.232 -0.7395  2.0561 -0.1120
 2872SOL     OW12207   0.206   8.601   2.102 -0.0679 -0.0417 -0.0188
 2872SOL    HW112208   0.208   8.694   2.121 -3.0509  0.3708 -1.2598
 2872SOL    HW212209   0.222   8.595   2.008 -1.8226 -0.5472 -0.3216
 2873SOL     OW12210  10.418   5.733   4.906  0.0046  0.2114 -0.0984
 2873SOL    HW112211  10.439   5.745   4.813  0.3287  0.9316  0.0599
 2873SOL    HW212212  10.491   5.681   4.940 -0.1838 -0.1720 -0.2721
 2874SOL     OW12213   2.147   8.225   5.970  0.5612 -0.4349 -0.2127
 2874SOL    HW112214   2.186   8.306   5.937 -1.0478  0.2483 -0.5532
 2874SOL    HW212215   2.103   8.187   5.893 -0.2062 -0.6895  0.3430
 2875SOL     OW12216   0.983   3.823   6.919 -0.2300 -0.0575  0.5016
 2875SOL    HW112217   1.032   3.747   6.888  0.0039 -0.0580  0.8646
 2875SOL    HW212218   0.935   3.790   6.995  0.8435  0.4573  1.4354
 2876SOL     OW12219   9.697   6.416   1.524  0.2075  0.3235  0.2551
 2876SOL    HW112220   9.648   6.428   1.443  0.5407 -1.4402 -0.2447
 2876SOL    HW212221   9.655   6.477   1.586 -1.1748  0.4521 -0.7486
 2877SOL     OW12222   6.509   5.879   8.638 -0.3089 -0.3424  0.4820
 2877SOL    HW112223   6.518   5.881   8.733 -1.0224 -1.4113  0.5841
 2877SOL    HW212224   6.458   5.801   8.620  0.4844 -0.5837 -0.8503
 2878SOL     OW12225   3.921   6.056   0.810 -0.0477  0.2694  0.3793
 2878SOL    HW112226   3.881   6.135   0.849 -2.9419 -0.7339 -0.2723
 2878SOL    HW212227   3.956   6.087   0.726  0.5001  1.1906  0.9239
 2879SOL     OW12228   2.082   3.881   4.249  0.0752  0.0539  0.3295
 2879SOL    HW112229   2.081   3.789   4.276  0.6720  0.3347  1.3650
 2879SOL    HW212230   2.168   3.893   4.207  0.0455  0.1651  0.3006
 2880SOL     OW12231   1.813   3.084   5.300  0.4156  0.3393  0.2123
 2880SOL    HW112232   1.828   3.023   5.372 -1.3239 -1.3610 -0.7960
 2880SOL    HW212233   1.775   3.161   5.342  0.0837 -0.3409  1.1928
 2881SOL     OW12234   6.985   7.503   8.038 -0.4717 -0.0124  0.1134
 2881SOL    HW112235   7.029   7.451   7.970 -0.3527 -1.5787  1.3562
 2881SOL    HW212236   7.057   7.545   8.085 -0.4951  0.1413  0.0134
 2882SOL     OW12237   6.927   5.349   1.055 -0.4267  0.1203 -0.1077
 2882SOL    HW112238   6.845   5.393   1.035  0.3274  2.7216  1.9626
 2882SOL    HW212239   6.903   5.279   1.117 -1.1159  0.7656  0.3629
 2883SOL     OW12240   8.053   7.022   1.103  0.4271 -0.6493  0.0650
 2883SOL    HW112241   8.097   6.942   1.076  0.2638 -1.0526  0.9394
 2883SOL    HW212242   7.969   7.021   1.057  0.2361 -1.2154  0.4191
 2884SOL     OW12243   1.891   4.149   5.452  0.0425 -0.4051 -0.3113
 2884SOL    HW112244   1.939   4.157   5.369 -1.4992  0.7299 -1.1606
 2884SOL    HW212245   1.824   4.083   5.435  0.2538 -0.7875  0.3169
 2885SOL     OW12246  10.679   6.719   2.265 -0.4441 -0.3410 -0.1217
 2885SOL    HW112247  10.586   6.705   2.284 -0.3680 -1.9568 -0.7536
 2885SOL    HW212248  10.723   6.640   2.299  0.5591 -0.0713 -0.7408
 2886SOL     OW12249   6.440   6.941   0.701 -0.4236 -0.0108  0.0302
 2886SOL    HW112250   6.392   6.865   0.735 -0.6318  0.3782  0.6398
 2886SOL    HW212251   6.426   7.009   0.767  1.0700  0.0876  0.2868
 2887SOL     OW12252   7.710   1.775   7.205 -0.1495 -0.6671 -0.2992
 2887SOL    HW112253   7.666   1.827   7.138 -0.4709 -2.2937 -1.4014
 2887SOL    HW212254   7.800   1.806   7.205 -0.4815  0.3394 -0.4358
 2888SOL     OW12255   7.427   2.843   1.152  0.2548  0.1417  0.3776
 2888SOL    HW112256   7.467   2.810   1.233  0.3751 -1.5568 -0.3230
 2888SOL    HW212257   7.436   2.770   1.090  0.0055  1.3386 -1.1143
 2889SOL     OW12258   9.962   8.519   6.147  0.2575 -0.2378  0.0366
 2889SOL    HW112259   9.971   8.555   6.235  2.1271 -1.0378  0.2289
 2889SOL    HW212260   9.887   8.565   6.109  0.0700  0.8742  1.6729
 2890SOL     OW12261   4.241   2.418   2.778 -0.2815  0.2164  0.0544
 2890SOL    HW112262   4.252   2.368   2.859  1.1547  1.7742  0.8756
 2890SOL    HW212263   4.314   2.390   2.723 -1.3816 -1.0054 -0.8541
 2891SOL     OW12264   0.040   2.332  10.243 -0.1119  0.7269  0.2464
 2891SOL    HW112265  -0.010   2.361  10.319 -2.1383  0.5905 -0.9662
 2891SOL    HW212266   0.130   2.326  10.275 -1.0431 -0.5206  2.9387
 2892SOL     OW12267   9.999   6.160   2.167 -0.7320  0.0808 -0.3878
 2892SOL    HW112268   9.973   6.165   2.259 -0.0261 -1.3355 -0.0871
 2892SOL    HW212269   9.918   6.138   2.120 -0.5150 -2.5282  0.3237
 2893SOL     OW12270   4.838   1.138   8.190  0.2788  0.6559  0.1532
 2893SOL    HW112271   4.900   1.066   8.200 -1.8888 -1.5911 -1.2812
 2893SOL    HW212272   4.850   1.191   8.268  0.1296 -2.8307  2.8023
 2894SOL     OW12273   1.778   9.747  10.376  0.3945 -0.0729 -0.1898
 2894SOL    HW112274   1.683   9.753  10.378  0.2051 -2.1642  1.3759
 2894SOL    HW212275   1.802   9.766  10.285 -1.7325 -1.5699 -1.1511
 2895SOL     OW12276   8.411  10.268   9.601 -0.1366 -0.5211  0.2635
 2895SOL    HW112277   8.485  10.226   9.643 -0.6262 -1.3056  0.3540
 2895SOL    HW212278   8.448  10.312   9.524  0.2967 -1.5718 -0.1423
 2896SOL     OW12279   6.725   0.149   6.599  0.0930 -0.0189 -0.2016
 2896SOL    HW112280   6.784   0.216   6.564  0.4404  0.5815  1.4703
 2896SOL    HW212281   6.691   0.187   6.679 -1.2055 -1.0920 -0.2239
 2897SOL     OW12282   8.168   9.285   5.746 -0.1339 -0.1257  0.1521
 2897SOL    HW112283   8.185   9.280   5.840  0.3988 -1.4017  0.0162
 2897SOL    HW212284   8.089   9.233   5.734  0.0129 -0.2858 -0.1425
 2898SOL     OW12285   8.036   0.908   3.044 -0.0907  0.0517 -0.4157
 2898SOL    HW112286   8.122   0.898   3.085 -0.4822  1.0953  0.7353
 2898SOL    HW212287   8.011   0.819   3.019  1.4434 -0.2234 -1.0652
 2899SOL     OW12288   6.480   8.912  11.052  0.4803  0.8044 -0.0003
 2899SOL    HW112289   6.424   8.969  11.000 -0.0332 -0.5218 -0.9536
 2899SOL    HW212290   6.568   8.947  11.038  0.2141  1.1865 -0.8166
 2900SOL     OW12291   6.330   3.736   7.721 -0.1728 -0.2281  0.5841
 2900SOL    HW112292   6.321   3.822   7.761  1.6492  0.4114 -0.2755
 2900SOL    HW212293   6.254   3.728   7.663  0.3183  1.3897 -0.3326
 2901SOL     OW12294   1.547   5.674   7.243  0.1990  0.2779 -0.3442
 2901SOL    HW112295   1.498   5.654   7.323 -0.1097 -0.2420 -0.6587
 2901SOL    HW212296   1.531   5.599   7.186  1.1167  0.2472 -0.5699
 2902SOL     OW12297   6.649   8.252   3.993  0.3530 -0.2193  0.0133
 2902SOL    HW112298   6.732   8.295   3.976  1.8191 -2.4843  1.0287
 2902SOL    HW212299   6.670   8.180   4.052 -2.6038  0.1594  1.7878
 2903SOL     OW12300   5.374   4.405  10.257  0.0474 -0.0351  0.7031
 2903SOL    HW112301   5.396   4.362  10.174 -1.0912  0.4558  0.1316
 2903SOL    HW212302   5.339   4.335  10.311 -2.1027  0.1533 -0.3367
 2904SOL     OW12303   8.640   1.047   0.098 -0.2721 -0.4214 -0.3351
 2904SOL    HW112304   8.672   1.093   0.176 -0.0303 -0.6339 -0.3050
 2904SOL    HW212305   8.704   1.067   0.030 -1.1266  0.7499 -0.8180
 2905SOL     OW12306   0.758   1.883   0.807  0.6740  0.7330  0.1563
 2905SOL    HW112307   0.773   1.937   0.885  3.2249  0.7605 -0.2516
 2905SOL    HW212308   0.746   1.794   0.842 -0.1571  1.0352  0.6629
 2906SOL     OW12309   2.012  10.254   0.086  0.0270  0.8854  0.2650
 2906SOL    HW112310   2.001  10.273   0.179  0.0628 -0.2201  0.5027
 2906SOL    HW212311   2.107  10.252   0.073  0.1334 -2.0709  0.9055
 2907SOL     OW12312   4.198   9.625   2.927 -0.4985  0.0477 -0.3730
 2907SOL    HW112313   4.173   9.533   2.941  0.2013 -0.1029 -0.0694
 2907SOL    HW212314   4.271   9.620   2.865 -0.8584  0.4430 -0.8326
 2908SOL     OW12315   9.075   0.874   1.880 -0.2722 -0.3275 -0.5952
 2908SOL    HW112316   8.980   0.866   1.888 -0.4089  1.5726  0.4934
 2908SOL    HW212317   9.103   0.907   1.966  0.7608  3.4516 -2.1772
 2909SOL     OW12318   8.398  10.065   8.684  0.0877  0.4906 -0.0687
 2909SOL    HW112319   8.463  10.005   8.645  0.1674 -0.2332  1.1133
 2909SOL    HW212320   8.355  10.106   8.609 -0.3697 -1.4821 -0.9512
 2910SOL     OW12321   7.661   2.603   7.874  0.4175  0.1797 -0.2173
 2910SOL    HW112322   7.614   2.577   7.794  0.2473  3.6262 -1.3812
 2910SOL    HW212323   7.726   2.666   7.844  0.8819  0.9787  2.2793
 2911SOL     OW12324   3.043   8.620   1.956 -0.1041  0.0043  0.5449
 2911SOL    HW112325   3.129   8.658   1.971 -0.7400  2.1123 -0.8331
 2911SOL    HW212326   2.982   8.692   1.969 -1.4861 -0.8722 -0.7620
 2912SOL     OW12327   7.104   5.252   5.596  0.4118 -0.2736  0.3688
 2912SOL    HW112328   7.042   5.206   5.654  1.3999 -0.3155  1.4201
 2912SOL    HW212329   7.123   5.334   5.641  0.1799  0.3067 -0.5600
 2913SOL     OW12330   4.069   2.788   5.971  0.0486  0.1883 -0.0213
 2913SOL    HW112331   4.131   2.769   5.900  1.8800  1.5942  1.1070
 2913SOL    HW212332   4.033   2.874   5.949 -0.4008  0.0280  0.0779
 2914SOL     OW12333   8.296   4.128   2.920  0.2983  0.0153  0.2281
 2914SOL    HW112334   8.203   4.125   2.898  0.1466  2.5635  0.2291
 2914SOL    HW212335   8.339   4.149   2.837  0.7480  0.0804  0.4761
 2915SOL     OW12336   0.475   6.755   8.891 -0.1467 -0.1257 -0.4634
 2915SOL    HW112337   0.383   6.740   8.912 -0.4160  0.0694 -1.4521
 2915SOL    HW212338   0.504   6.819   8.956 -0.3504 -1.1355  0.6415
 2916SOL     OW12339   7.627   4.156   0.094 -0.1781 -0.0699  0.0347
 2916SOL    HW112340   7.646   4.188   0.182 -0.4263  1.1115 -0.3320
 2916SOL    HW212341   7.712   4.127   0.060  0.3419  1.5923 -0.1684
 2917SOL     OW12342   8.085   1.914   0.155 -0.3871 -0.2231 -0.1621
 2917SOL    HW112343   8.029   1.950   0.224  0.4177 -1.7424  1.3781
 2917SOL    HW212344   8.174   1.937   0.182  0.0220 -1.8361 -0.0190
 2918SOL     OW12345   1.128  10.290   4.323  0.5055  0.1400  0.5082
 2918SOL    HW112346   1.044  10.266   4.285 -0.7492  2.0422  1.8730
 2918SOL    HW212347   1.122  10.263   4.415  1.8337 -0.6394  0.3981
 2919SOL     OW12348   1.996   2.002   1.177  0.1898  0.7649 -0.1188
 2919SOL    HW112349   1.948   2.043   1.105 -1.0523  0.0569  0.2694
 2919SOL    HW212350   1.932   1.942   1.217  0.8748  1.0738  1.5132
 2920SOL     OW12351   0.437   4.465   8.892  0.7330  0.4926  0.3181
 2920SOL    HW112352   0.473   4.406   8.826  1.7789 -0.1612  1.4284
 2920SOL    HW212353   0.398   4.537   8.841 -0.9229 -1.2898 -1.0699
 2921SOL     OW12354   0.362   2.835   4.665 -0.1705  0.1491 -0.2435
 2921SOL    HW112355   0.441   2.844   4.718  0.1932  0.9487 -0.9017
 2921SOL    HW212356   0.295   2.805   4.727  0.4124  0.4011  0.5243
 2922SOL     OW12357   6.098   7.289   8.302 -0.6847 -0.2515  0.5541
 2922SOL    HW112358   6.086   7.215   8.362 -3.5841 -1.3245 -1.1628
 2922SOL    HW212359   6.133   7.249   8.222  0.8519  0.8054  0.6584
 2923SOL     OW12360   8.322   0.618   8.041 -0.0154  0.5759 -0.0490
 2923SOL    HW112361   8.275   0.535   8.043 -0.5977  0.8584 -1.1505
 2923SOL    HW212362   8.254   0.685   8.037  0.4521  1.0782  0.2875
 2924SOL     OW12363   2.739   0.038   4.725 -0.1622  0.2843 -0.5216
 2924SOL    HW112364   2.823   0.010   4.762  0.4577 -0.8637 -2.6108
 2924SOL    HW212365   2.683   0.054   4.801  1.4946 -0.3789  0.8969
 2925SOL     OW12366   1.044   8.019   8.601 -0.3398 -0.6639 -0.0032
 2925SOL    HW112367   1.130   8.056   8.623  0.6505 -1.2971 -2.4020
 2925SOL    HW212368   1.061   7.926   8.586 -1.3457 -0.7329 -0.8829
 2926SOL     OW12369   0.415   4.658   8.677  0.0202  0.2346 -0.2625
 2926SOL    HW112370   0.420   4.732   8.738 -1.3429  0.3509 -0.2706
 2926SOL    HW212371   0.444   4.694   8.593 -0.1265  0.6255 -0.1455
 2927SOL     OW12372   8.741   3.282   5.799 -0.1361  0.5463 -0.3917
 2927SOL    HW112373   8.746   3.214   5.866 -0.5044  0.9733  0.0788
 2927SOL    HW212374   8.804   3.255   5.732  0.2205  0.1068  0.1153
 2928SOL     OW12375   9.626   6.636  10.930  0.2952 -0.4515 -0.8353
 2928SOL    HW112376   9.658   6.653  11.019 -0.9348 -1.6347 -0.1290
 2928SOL    HW212377   9.588   6.720  10.903 -0.2263 -0.3486  0.1608
 2929SOL     OW12378   1.445   1.787   9.125 -0.3453 -0.0709 -0.2046
 2929SOL    HW112379   1.470   1.846   9.054 -1.4491  0.5221 -0.1113
 2929SOL    HW212380   1.387   1.723   9.084  0.0489 -0.5156 -0.0911
 2930SOL     OW12381   4.673   2.411   7.915 -0.2605 -0.3558 -0.2937
 2930SOL    HW112382   4.622   2.368   7.846 -2.9298  0.8495  0.8017
 2930SOL    HW212383   4.675   2.503   7.890  0.8683 -0.2770  0.0329
 2931SOL     OW12384   8.721   9.720   5.158 -0.3239 -0.0038  0.6948
 2931SOL    HW112385   8.631   9.752   5.150  0.0747  0.8408 -0.8243
 2931SOL    HW212386   8.750   9.752   5.244 -0.9538  1.1358  0.5126
 2932SOL     OW12387   5.196   6.314   2.361 -0.2214 -0.2408 -0.3600
 2932SOL    HW112388   5.205   6.239   2.302  1.4157  0.5952 -1.2570
 2932SOL    HW212389   5.246   6.289   2.439  1.0010  0.1681 -0.9741
 2933SOL     OW12390  10.136   2.059   6.670 -0.0964 -0.1470 -0.3648
 2933SOL    HW112391  10.217   2.043   6.720  0.4831  0.4887 -1.0726
 2933SOL    HW212392  10.068   2.067   6.736  0.6159  0.4300  0.3122
 2934SOL     OW12393   9.801   9.575  10.679  0.1158  0.1255  0.0963
 2934SOL    HW112394   9.776   9.584  10.771 -2.0822 -0.4033 -0.3810
 2934SOL    HW212395   9.757   9.648  10.635 -1.1386 -1.1522 -0.8769
 2935SOL     OW12396   3.830   3.357   8.559 -0.2850  0.3889  0.3084
 2935SOL    HW112397   3.757   3.351   8.622  0.4691  2.6849  1.5144
 2935SOL    HW212398   3.824   3.446   8.525  1.4383  0.3245 -0.2253
 2936SOL     OW12399   8.964   0.413   6.790  0.7174  0.1535 -0.2565
 2936SOL    HW112400   8.870   0.401   6.774  0.4059 -1.1094  2.1230
 2936SOL    HW212401   8.976   0.508   6.787 -0.5977  0.3235 -0.8194
 2937SOL     OW12402   9.387   9.801   4.372  0.9513 -0.1417 -0.1761
 2937SOL    HW112403   9.304   9.839   4.343  0.4928 -1.3239 -0.4637
 2937SOL    HW212404   9.454   9.857   4.331  0.3028  0.2571 -0.7101
 2938SOL     OW12405   8.311   3.774  10.385 -0.8702  0.2021 -0.3307
 2938SOL    HW112406   8.375   3.709  10.414  0.2129  1.2405 -0.2696
 2938SOL    HW212407   8.235   3.762  10.442 -0.9824 -1.4506 -0.7860
 2939SOL     OW12408   4.383   7.253   5.614  0.1701 -0.1579 -0.0214
 2939SOL    HW112409   4.410   7.315   5.546 -0.2761 -1.2719 -1.2730
 2939SOL    HW212410   4.413   7.292   5.696 -0.2462  1.7758 -0.7389
 2940SOL     OW12411   1.723   2.662   8.750  0.3774 -0.6308  0.2075
 2940SOL    HW112412   1.704   2.706   8.667  0.9461 -0.6665  0.0513
 2940SOL    HW212413   1.801   2.609   8.732 -0.9061 -2.5929  0.0892
 2941SOL     OW12414   7.727   9.884   1.744 -0.4841 -0.3894 -0.2369
 2941SOL    HW112415   7.640   9.913   1.768 -0.1866  2.0198 -1.7349
 2941SOL    HW212416   7.775   9.879   1.826 -0.8853  2.5587  0.2666
 2942SOL     OW12417   4.754   6.837   7.451  0.5032 -0.0584  0.4638
 2942SOL    HW112418   4.811   6.907   7.482  1.6429 -0.1504 -1.3153
 2942SOL    HW212419   4.767   6.835   7.357  0.2166 -2.4159  0.4180
 2943SOL     OW12420   9.461   5.128   0.273 -0.3478  0.7274 -0.2195
 2943SOL    HW112421   9.392   5.194   0.281 -0.9912  0.3737 -2.3624
 2943SOL    HW212422   9.448   5.070   0.348 -2.8609  0.2608 -0.9325
 2944SOL     OW12423   4.354   8.511   3.609  0.3445 -0.1237  0.6667
 2944SOL    HW112424   4.300   8.581   3.644 -2.3056 -1.8901  0.4327
 2944SOL    HW212425   4.337   8.436   3.667  1.3790 -1.1809 -0.3210
 2945SOL     OW12426   7.541   8.290   0.297  0.1127  0.1609 -0.1586
 2945SOL    HW112427   7.471   8.345   0.332  0.0466  0.4476 -0.7385
 2945SOL    HW212428   7.557   8.225   0.366  1.2574  1.8064  1.1877
 2946SOL     OW12429  10.044   4.721   1.671  0.5882 -0.2694 -0.6998
 2946SOL    HW112430  10.091   4.740   1.752 -1.4139  0.1536  0.4276
 2946SOL    HW212431  10.033   4.626   1.672 -1.8071 -0.0659  1.0186
 2947SOL     OW12432   0.754   6.953   0.898  0.2425  0.0053  0.1698
 2947SOL    HW112433   0.681   7.010   0.873 -0.0027 -1.0320 -1.7188
 2947SOL    HW212434   0.720   6.900   0.970 -0.0783  1.0797  0.8304
 2948SOL     OW12435   6.852   9.330   7.198  0.5230 -0.0467 -0.6332
 2948SOL    HW112436   6.788   9.391   7.161 -0.6761 -1.8985 -1.7989
 2948SOL    HW212437   6.907   9.306   7.123  0.4851 -0.9679 -0.3710
 2949SOL     OW12438   7.740   6.588   6.003 -0.6133  0.1595 -0.3656
 2949SOL    HW112439   7.788   6.581   6.086 -0.4786 -0.0392 -0.4616
 2949SOL    HW212440   7.806   6.576   5.936 -0.9299 -0.9359 -0.4959
 2950SOL     OW12441   0.614   9.051   6.195  0.5109  0.1944 -0.3506
 2950SOL    HW112442   0.648   9.094   6.116  2.1409  0.0036  0.1938
 2950SOL    HW212443   0.521   9.072   6.196  0.6295  0.9334 -1.8530
 2951SOL     OW12444   1.224   4.128   8.798  0.1313  0.4631  0.4451
 2951SOL    HW112445   1.221   4.043   8.753  0.4812  1.1274 -0.8906
 2951SOL    HW212446   1.316   4.142   8.818 -0.1349 -0.3364  2.4623
 2952SOL     OW12447   3.949   0.834   3.314  0.0413  0.3520 -0.0413
 2952SOL    HW112448   4.031   0.884   3.320 -0.0307  0.5130 -0.3707
 2952SOL    HW212449   3.972   0.755   3.265  0.3757 -0.4237  1.3057
 2953SOL     OW12450   0.270  10.604   8.014 -0.3512 -0.0822 -0.0005
 2953SOL    HW112451   0.315  10.674   8.061 -0.8125 -0.6028  1.2551
 2953SOL    HW212452   0.235  10.547   8.082 -0.3700 -1.3097 -0.9790
 2954SOL     OW12453   9.750   7.379   7.945 -0.5779 -0.0611  0.0061
 2954SOL    HW112454   9.723   7.381   8.036  2.7305 -4.6730  1.5131
 2954SOL    HW212455   9.695   7.312   7.905 -0.7902  0.6392 -0.9054
 2955SOL     OW12456   9.242   7.109   7.346  0.1207 -0.1107 -0.2012
 2955SOL    HW112457   9.216   7.090   7.256 -0.7142  2.8787 -0.7144
 2955SOL    HW212458   9.214   7.200   7.360  0.6938 -0.3122  2.9188
 2956SOL     OW12459  10.085   9.894   3.910  0.6438 -0.0740 -0.1817
 2956SOL    HW112460  10.158   9.884   3.971  1.8625  0.1067 -1.5787
 2956SOL    HW212461  10.031   9.816   3.926  1.6170 -0.6935  0.2324
 2957SOL     OW12462  10.942   6.746   0.045  0.1160  0.3520  0.5649
 2957SOL    HW112463  10.862   6.710   0.008  0.5787  0.3731 -0.5013
 2957SOL    HW212464  10.944   6.837   0.013  1.0727  0.0473 -0.3137
 2958SOL     OW12465   5.192   7.111   9.081  0.1372 -0.3971 -0.2308
 2958SOL    HW112466   5.180   7.130   9.174 -0.9624  0.9348 -0.6000
 2958SOL    HW212467   5.222   7.194   9.043 -1.1610 -0.3698 -1.3146
 2959SOL     OW12468   2.532   8.043  10.876  0.1889  0.5175  0.2994
 2959SOL    HW112469   2.502   8.009  10.792  0.1074  0.2207  0.4485
 2959SOL    HW212470   2.496   8.132  10.879 -1.2517 -0.0517  0.7601
 2960SOL     OW12471   2.769   9.560   0.313 -0.6111 -0.0831  0.0020
 2960SOL    HW112472   2.773   9.469   0.342 -0.4673 -0.2296 -0.4689
 2960SOL    HW212473   2.859   9.592   0.320 -0.9117  0.5089  1.6668
 2961SOL     OW12474   1.590  10.744   6.592  0.3224 -0.1592 -0.5813
 2961SOL    HW112475   1.599  10.832   6.556  0.2923 -0.4370 -1.2934
 2961SOL    HW212476   1.538  10.697   6.526 -0.4567 -0.4573  0.2336
 2962SOL     OW12477  10.514   0.041   8.865 -0.5502  0.0846 -0.3856
 2962SOL    HW112478  10.507   0.136   8.866 -1.8950  0.0174  0.8705
 2962SOL    HW212479  10.525   0.017   8.958 -0.0215 -0.9675 -0.7020
 2963SOL     OW12480   5.773   9.167   7.792 -0.5486  0.3390 -0.5436
 2963SOL    HW112481   5.839   9.166   7.722  0.8003  0.0406  0.6918
 2963SOL    HW212482   5.705   9.106   7.761 -0.0470  0.3001 -1.6339
 2964SOL     OW12483   1.572   8.904   6.622  0.9816 -0.4400  0.0582
 2964SOL    HW112484   1.484   8.869   6.637  0.1586  1.2422 -0.6188
 2964SOL    HW212485   1.604   8.854   6.547 -0.9876  1.5084 -2.2328
 2965SOL     OW12486   1.398   1.405   4.984 -0.2450  0.2926  0.1776
 2965SOL    HW112487   1.489   1.406   5.016 -0.2921  2.0865  0.3615
 2965SOL    HW212488   1.394   1.477   4.921 -1.7044  0.6620  0.6628
 2966SOL     OW12489   7.519   5.304   5.119  0.0450 -0.1469  0.3232
 2966SOL    HW112490   7.507   5.311   5.213 -1.1967  0.1796  0.1565
 2966SOL    HW212491   7.548   5.392   5.092  1.5048 -0.5365  0.5260
 2967SOL     OW12492   8.030   7.936   5.569  0.0565 -0.2533 -0.4815
 2967SOL    HW112493   8.054   7.922   5.477 -0.7667  0.4650 -0.8342
 2967SOL    HW212494   8.075   7.867   5.617 -0.8811 -1.7375 -1.6328
 2968SOL     OW12495   1.078   8.747   6.094  0.3532  0.6264 -0.1152
 2968SOL    HW112496   0.994   8.759   6.050  0.1240  0.6633  0.3294
 2968SOL    HW212497   1.143   8.768   6.027  0.0494 -1.0187 -0.9743
 2969SOL     OW12498   0.945   1.208   5.152  0.1902 -0.1482  0.4632
 2969SOL    HW112499   1.017   1.225   5.091 -0.6198 -0.3901 -0.5808
 2969SOL    HW212500   0.905   1.294   5.166  0.2834 -0.1170  0.5407
 2970SOL     OW12501   4.510   0.588   4.165  0.1776 -0.1097 -0.7227
 2970SOL    HW112502   4.424   0.590   4.124  0.2462 -0.7574 -0.9101
 2970SOL    HW212503   4.503   0.647   4.240 -0.3426  0.0569 -0.9017
 2971SOL     OW12504   9.878   4.556   5.933 -0.2338  0.0353  0.2572
 2971SOL    HW112505   9.949   4.577   5.872 -0.9160 -0.1501 -0.6233
 2971SOL    HW212506   9.877   4.630   5.994  0.0259  0.5692 -0.3615
 2972SOL     OW12507   1.710  10.319   1.410  0.5996  0.5765 -0.1340
 2972SOL    HW112508   1.762  10.298   1.332  1.3084  0.5699  0.3358
 2972SOL    HW212509   1.679  10.234   1.441  0.3196  0.5782 -0.3989
 2973SOL     OW12510   4.468   9.022   5.366  0.2841 -0.4483 -0.0259
 2973SOL    HW112511   4.395   9.066   5.322 -0.0902  1.2465  2.0840
 2973SOL    HW212512   4.459   8.930   5.342 -2.4774 -0.2720 -0.0075
 2974SOL     OW12513   6.599   0.665   6.262 -0.0409 -0.0604  0.6911
 2974SOL    HW112514   6.602   0.609   6.340  0.6123 -0.5552  0.3143
 2974SOL    HW212515   6.548   0.615   6.198  0.1508 -0.0269  0.5097
 2975SOL     OW12516  10.207   0.801   8.862 -0.1951 -0.3314 -0.1819
 2975SOL    HW112517  10.136   0.829   8.919  0.2396 -1.6502  1.0687
 2975SOL    HW212518  10.281   0.786   8.921  1.6806  2.5135 -1.5872
 2976SOL     OW12519   2.267   9.146   6.797  0.1764  0.4209  0.3419
 2976SOL    HW112520   2.345   9.180   6.841  1.1558 -0.3590 -0.7452
 2976SOL    HW212521   2.201   9.214   6.808  0.9374  0.9989  1.4682
 2977SOL     OW12522   8.569   7.228   8.528 -0.1575 -0.4175  0.2171
 2977SOL    HW112523   8.642   7.172   8.505 -0.5599 -0.1025 -2.0562
 2977SOL    HW212524   8.567   7.227   8.624  0.0533 -3.9854  0.3082
 2978SOL     OW12525   6.079   2.163   6.071  0.3212  0.6963 -0.7438
 2978SOL    HW112526   6.072   2.246   6.119 -1.1982  0.1150  0.1398
 2978SOL    HW212527   6.171   2.158   6.044  0.9014  1.7552  0.8639
 2979SOL     OW12528   5.548   9.084   8.897 -0.2564  0.1022 -0.1590
 2979SOL    HW112529   5.556   9.097   8.992  0.5408  0.6016 -0.2838
 2979SOL    HW212530   5.537   8.989   8.888 -1.0311  0.1212  0.4682
 2980SOL     OW12531   8.323  10.508   2.106 -0.4797 -0.0621  0.0336
 2980SOL    HW112532   8.346  10.572   2.173  1.1378 -0.2760 -0.2935
 2980SOL    HW212533   8.396  10.446   2.105 -0.6385 -0.2754 -1.6635
 2981SOL     OW12534   9.748   7.024   8.131  0.3021  0.5483  0.6131
 2981SOL    HW112535   9.654   7.041   8.135  0.0723 -0.4157 -0.2701
 2981SOL    HW212536   9.775   7.058   8.046  0.2665 -1.3145 -0.1870
 2982SOL     OW12537   2.483   5.902   5.835  0.4797  0.1729 -0.7852
 2982SOL    HW112538   2.462   5.975   5.776  1.8214 -0.0547 -1.5793
 2982SOL    HW212539   2.495   5.944   5.920  1.6912  0.9667 -1.3235
 2983SOL     OW12540  10.899   6.751   3.588 -0.2866  0.1496  0.2203
 2983SOL    HW112541  10.830   6.810   3.618  0.1394  0.8324 -0.1251
 2983SOL    HW212542  10.966   6.809   3.552 -1.7100 -0.5749 -4.1673
 2984SOL     OW12543   2.908   6.754   6.876 -0.2267 -0.4520 -0.0414
 2984SOL    HW112544   2.877   6.746   6.966 -0.6950 -0.2126 -0.1775
 2984SOL    HW212545   2.982   6.694   6.871 -0.3299 -0.6286  0.4416
 2985SOL     OW12546   9.451   7.535  10.243 -0.1600 -0.3261 -0.1499
 2985SOL    HW112547   9.404   7.613  10.274  1.6183  0.7976 -0.1765
 2985SOL    HW212548   9.483   7.493  10.323  0.9913  0.3550 -0.2385
 2986SOL     OW12549   2.401  10.390  10.787 -0.2132 -1.2757  0.0433
 2986SOL    HW112550   2.423  10.439  10.708 -1.8025 -0.1971  0.2246
 2986SOL    HW212551   2.450  10.433  10.857  0.4536 -1.6393 -0.1872
 2987SOL     OW12552   0.940   1.446   8.921 -0.7754  0.9843 -0.2020
 2987SOL    HW112553   0.888   1.438   8.841  0.1501  0.9210 -0.8100
 2987SOL    HW212554   0.921   1.534   8.953  0.3450  1.7745 -1.5873
 2988SOL     OW12555   1.580   2.444   8.164 -0.0534  0.2108  0.1373
 2988SOL    HW112556   1.591   2.349   8.175 -0.5645  0.0912 -0.3407
 2988SOL    HW212557   1.487   2.459   8.180  0.2445  0.8089  1.4041
 2989SOL     OW12558   5.185   7.596   2.577 -0.2530 -0.1376  0.1779
 2989SOL    HW112559   5.159   7.624   2.489 -1.3334 -2.5932 -0.3883
 2989SOL    HW212560   5.274   7.563   2.566  0.5007  1.6687  0.5563
 2990SOL     OW12561   2.129  10.976   8.877  0.4978  0.1715 -0.4112
 2990SOL    HW112562   2.116  11.059   8.924 -1.5956 -0.0490 -0.4849
 2990SOL    HW212563   2.168  11.001   8.794  1.0228  0.9382  0.0523
 2991SOL     OW12564   0.568   3.561   5.477 -0.3971  0.6786  0.1111
 2991SOL    HW112565   0.542   3.611   5.400 -2.1122  0.5161  0.5291
 2991SOL    HW212566   0.507   3.590   5.546 -1.4595 -1.8718  0.3844
 2992SOL     OW12567   8.057   7.264   3.721 -0.1100  0.2547 -0.3587
 2992SOL    HW112568   8.147   7.281   3.749  0.0280  0.2680 -0.8147
 2992SOL    HW212569   8.006   7.336   3.759  0.3680  1.3368 -1.7208
 2993SOL     OW12570   2.569  11.011   0.532  0.7532 -0.2760  0.1769
 2993SOL    HW112571   2.488  10.988   0.485  0.8925 -0.5569  0.0736
 2993SOL    HW212572   2.637  11.010   0.464  0.8856 -0.2753  0.3098
 2994SOL     OW12573   8.531  11.084   2.050 -0.0762 -0.2313 -0.2223
 2994SOL    HW112574   8.464  11.032   2.095  0.4243 -1.7489 -1.1749
 2994SOL    HW212575   8.536  11.165   2.101 -1.2228 -0.9009  1.0230
 2995SOL     OW12576   0.727  10.365   3.511  0.2165  0.3848  0.3121
 2995SOL    HW112577   0.709  10.430   3.443 -2.8245 -0.4350  0.1875
 2995SOL    HW212578   0.759  10.416   3.585 -1.3741  1.9816 -0.0394
 2996SOL     OW12579   9.711   1.155   8.319  0.5540 -0.7215 -0.2939
 2996SOL    HW112580   9.627   1.174   8.361 -0.7445  0.7291 -3.2776
 2996SOL    HW212581   9.735   1.068   8.351 -2.5504 -1.5522  0.0232
 2997SOL     OW12582   2.774  10.725   1.253 -0.2962 -0.1398 -0.3669
 2997SOL    HW112583   2.776  10.790   1.323 -0.5319 -0.0811 -0.4111
 2997SOL    HW212584   2.748  10.643   1.296  1.8458 -0.6550  0.0224
 2998SOL     OW12585   1.971   9.148   2.868 -0.1066  0.1608 -0.3416
 2998SOL    HW112586   2.022   9.195   2.934  1.1669 -1.1293 -0.3669
 2998SOL    HW212587   1.883   9.185   2.875  0.1228  0.4240  1.7392
 2999SOL     OW12588   1.730   6.987   0.548  0.0503 -0.1868 -0.3089
 2999SOL    HW112589   1.698   6.897   0.548 -1.3154  0.2453  1.2590
 2999SOL    HW212590   1.674   7.032   0.610  0.6873  1.7739 -1.0742
 3000SOL     OW12591   8.495   4.463   5.998  0.6640  0.0160  0.6905
 3000SOL    HW112592   8.550   4.468   6.076  2.0698 -0.8242 -0.2022
 3000SOL    HW212593   8.555   4.479   5.926 -0.7761  1.6596 -0.2088
 3001SOL     OW12594   0.640  10.975   4.467  0.1934  0.6364 -0.1501
 3001SOL    HW112595   0.601  10.999   4.551 -1.3385  0.4536 -0.7744
 3001SOL    HW212596   0.734  10.987   4.480 -0.1866  3.2819  0.7376
 3002SOL     OW12597   8.972   7.262   4.728 -0.4589  0.4801 -0.1928
 3002SOL    HW112598   9.001   7.278   4.638  0.2570  1.6888  0.2287
 3002SOL    HW212599   8.993   7.170   4.744  0.6213  0.5990 -0.8361
 3003SOL     OW12600   2.880   0.981  10.640 -0.5018  0.7699 -0.3797
 3003SOL    HW112601   2.804   0.947  10.592  1.2395  1.3849 -3.8906
 3003SOL    HW212602   2.913   0.905  10.688 -1.2119 -0.5050 -1.8033
 3004SOL     OW12603   6.867   8.970   2.159  0.5866  0.0550 -0.3471
 3004SOL    HW112604   6.842   8.968   2.067 -0.9516  0.9038  0.0032
 3004SOL    HW212605   6.832   9.053   2.191  1.0483 -0.2503  1.0135
 3005SOL     OW12606   3.716   5.245   1.509  0.0576 -0.2986 -0.2997
 3005SOL    HW112607   3.646   5.308   1.492  1.0710  0.3837 -2.2176
 3005SOL    HW212608   3.788   5.298   1.542 -0.2593 -0.9879  1.5845
 3006SOL     OW12609   8.658   6.981   9.942  0.8260 -0.2315 -0.4559
 3006SOL    HW112610   8.569   7.016   9.951  0.5163 -0.8997 -0.8610
 3006SOL    HW212611   8.701   7.005  10.024  0.5555  0.8848 -0.6177
 3007SOL     OW12612   3.935   0.967   8.659 -0.2519 -0.0513  0.4915
 3007SOL    HW112613   4.008   0.911   8.632  1.0601  2.6541 -2.1780
 3007SOL    HW212614   3.972   1.021   8.729  1.0579  2.3402 -1.8238
 3008SOL     OW12615   9.782   0.541   1.001 -0.6861  0.1023  0.4986
 3008SOL    HW112616   9.762   0.634   0.992 -1.0208  0.1205  1.2924
 3008SOL    HW212617   9.779   0.507   0.912 -0.8832  0.7861  0.2345
 3009SOL     OW12618   9.293   9.305   6.552 -0.5486  0.5823  0.5746
 3009SOL    HW112619   9.349   9.250   6.497 -0.7344  1.2840 -0.3449
 3009SOL    HW212620   9.292   9.390   6.508 -0.8845  1.1054  1.5552
 3010SOL     OW12621   6.302   4.012   7.712 -0.3720  0.3737  0.3051
 3010SOL    HW112622   6.295   4.107   7.705 -1.4019  0.2501 -0.6453
 3010SOL    HW212623   6.296   3.981   7.621  0.7368 -0.5638  0.5293
 3011SOL     OW12624   6.578   1.230   3.039  0.6191  0.1567  0.8611
 3011SOL    HW112625   6.602   1.265   3.125 -1.0258 -2.1527  2.3705
 3011SOL    HW212626   6.653   1.177   3.012 -0.0162 -1.6260  2.4053
 3012SOL     OW12627   1.964   1.779   0.638 -0.6952  0.1626 -0.3335
 3012SOL    HW112628   1.990   1.782   0.547  0.2725  0.6395 -0.0517
 3012SOL    HW212629   2.046   1.788   0.687 -1.2483  0.3959  0.5758
 3013SOL     OW12630   0.290   5.182   3.506  0.0359  0.3502  0.0323
 3013SOL    HW112631   0.299   5.117   3.576 -0.2950  2.4143  2.1365
 3013SOL    HW212632   0.284   5.130   3.426  0.3573 -2.1615  1.5095
 3014SOL     OW12633   8.550   2.745   3.796  0.3123 -0.1267  0.0902
 3014SOL    HW112634   8.528   2.837   3.811 -1.2240 -0.2681 -1.0757
 3014SOL    HW212635   8.606   2.746   3.718 -1.1901 -0.3020 -1.0146
 3015SOL     OW12636   4.651   6.616   0.889 -0.2016 -0.8119  0.1747
 3015SOL    HW112637   4.588   6.554   0.852  0.0632  0.1222 -1.9497
 3015SOL    HW212638   4.601   6.664   0.955 -1.8485  0.0314 -1.5839
 3016SOL     OW12639   5.719   7.504   7.651  0.3460  0.0559 -0.1147
 3016SOL    HW112640   5.745   7.592   7.679 -0.3229  0.5552 -1.0150
 3016SOL    HW212641   5.802   7.457   7.641  0.7916  0.9293 -0.7243
 3017SOL     OW12642   4.148   7.473   2.753  0.2020  0.5100 -0.0386
 3017SOL    HW112643   4.229   7.436   2.787  0.1837  0.5156  0.0113
 3017SOL    HW212644   4.092   7.397   2.735  0.2374  0.5039 -0.1200
 3018SOL     OW12645   4.909   9.547   8.064  0.5196 -0.0826 -0.6211
 3018SOL    HW112646   4.908   9.622   8.005 -1.4374  0.1516 -0.3640
 3018SOL    HW212647   4.879   9.474   8.010  0.8286 -0.3369 -0.4500
 3019SOL     OW12648   0.561  10.505   8.600 -0.3034 -0.0390  0.2909
 3019SOL    HW112649   0.638  10.494   8.657 -0.9312  0.4489  1.2660
 3019SOL    HW212650   0.486  10.492   8.658 -1.0088 -2.2979 -0.9983
 3020SOL     OW12651  10.022   3.398   8.378  0.8607 -0.1526  0.6560
 3020SOL    HW112652  10.098   3.343   8.360  0.6557 -0.1956 -0.1399
 3020SOL    HW212653   9.956   3.337   8.410 -0.0644 -0.7994 -2.1662
 3021SOL     OW12654   0.093   7.501   7.207 -0.0152  0.4084  0.2906
 3021SOL    HW112655   0.003   7.484   7.233 -0.1738  0.3131 -0.3038
 3021SOL    HW212656   0.142   7.426   7.238 -0.0497  0.6903  1.0542
 3022SOL     OW12657   3.294   0.016  10.261  0.2616 -0.5106  0.0762
 3022SOL    HW112658   3.235   0.084  10.228  0.3012 -0.9420 -0.9359
 3022SOL    HW212659   3.347  -0.008  10.185  0.0206 -1.9188  0.3252
 3023SOL     OW12660   0.416   2.586   6.560  0.3578  0.5024 -0.1894
 3023SOL    HW112661   0.348   2.618   6.619  0.4767 -0.3514  0.4437
 3023SOL    HW212662   0.369   2.559   6.481 -0.0191  0.1078  0.1630
 3024SOL     OW12663   0.111   2.663   1.535 -0.0365 -0.0364  0.2275
 3024SOL    HW112664   0.070   2.611   1.467 -0.0258  0.6122 -0.2944
 3024SOL    HW212665   0.202   2.671   1.507  0.4512 -1.3844  1.3232
 3025SOL     OW12666   7.780   7.536   2.032  0.1742  0.2276 -0.4007
 3025SOL    HW112667   7.711   7.472   2.052  1.4202 -1.4580 -1.2535
 3025SOL    HW212668   7.735   7.604   1.982 -0.9235 -0.7317 -0.7719
 3026SOL     OW12669   5.831   5.685   2.760 -0.2762  0.0583  0.4214
 3026SOL    HW112670   5.912   5.735   2.772  0.3980 -1.2785  1.7847
 3026SOL    HW212671   5.836   5.653   2.670  0.6987  0.0347  0.4691
 3027SOL     OW12672   1.327   9.312   3.279  0.2320 -0.0399  0.6250
 3027SOL    HW112673   1.416   9.313   3.317  0.6611 -0.4814 -0.3481
 3027SOL    HW212674   1.304   9.220   3.275 -0.1325  0.0559  0.5276
 3028SOL     OW12675   9.412   0.354   0.114 -0.1790 -0.3809  0.0426
 3028SOL    HW112676   9.479   0.349   0.182  0.6606 -1.0780 -0.8072
 3028SOL    HW212677   9.345   0.292   0.143  0.0427 -0.4674  0.3798
 3029SOL     OW12678   9.842   0.059   4.295 -0.9462  0.0629  0.2492
 3029SOL    HW112679   9.795   0.088   4.217  0.9607  1.2504 -0.5239
 3029SOL    HW212680   9.854   0.139   4.346  1.9850  0.2617 -0.5892
 3030SOL     OW12681   8.371  10.059   5.735 -0.3258  0.0118 -0.3358
 3030SOL    HW112682   8.344  10.019   5.817  2.2783  0.6238  0.9427
 3030SOL    HW212683   8.429   9.995   5.694 -0.9766  0.0365 -1.3359
 3031SOL     OW12684   3.218   8.556   8.410  0.6384 -0.3033  0.1122
 3031SOL    HW112685   3.271   8.476   8.406 -0.9521 -1.4166  0.1743
 3031SOL    HW212686   3.135   8.527   8.448 -1.0013  0.8104 -2.4052
 3032SOL     OW12687   2.373   3.150  10.037  0.6154 -0.0137 -0.0327
 3032SOL    HW112688   2.449   3.205  10.055  1.4862 -1.2589  0.2473
 3032SOL    HW212689   2.401   3.095   9.964  1.1587 -2.5890  1.9652
 3033SOL     OW12690   9.594   8.454   3.351  0.1457  0.4190  0.5078
 3033SOL    HW112691   9.623   8.381   3.296 -2.6826 -1.6048  1.4808
 3033SOL    HW212692   9.596   8.530   3.293  3.4064 -0.2480 -0.4882
 3034SOL     OW12693  10.754   0.698   9.237  0.3586 -0.3129 -0.5240
 3034SOL    HW112694  10.723   0.635   9.172 -3.1046  0.2498  0.3668
 3034SOL    HW212695  10.720   0.664   9.320  1.6205  0.8141  0.4897
 3035SOL     OW12696   5.160   6.626   8.310 -0.1135  0.1858  0.3593
 3035SOL    HW112697   5.181   6.580   8.391  0.3932 -1.3368 -0.6087
 3035SOL    HW212698   5.211   6.581   8.242 -0.9830  1.0418 -0.9074
 3036SOL     OW12699   7.433   0.602   2.115  0.0333 -0.0636  0.3413
 3036SOL    HW112700   7.508   0.617   2.172 -0.3320 -0.7260  1.0051
 3036SOL    HW212701   7.464   0.627   2.028  1.0948 -0.5654  0.5643
 3037SOL     OW12702   9.278  10.056   6.157 -0.0423  0.7135  0.4092
 3037SOL    HW112703   9.277  10.145   6.122 -1.6463  0.5037 -0.1454
 3037SOL    HW212704   9.189  10.024   6.144  1.2619 -2.2677 -2.7368
 3038SOL     OW12705   3.201   9.530   1.541  0.1999  0.3160 -0.7040
 3038SOL    HW112706   3.160   9.465   1.484 -5.0640  2.0238  0.5806
 3038SOL    HW212707   3.233   9.598   1.481 -1.7274  0.3039 -1.8076
 3039SOL     OW12708   5.831   8.795   3.686  0.1699  0.4510  0.2993
 3039SOL    HW112709   5.753   8.836   3.648 -0.2976 -0.3162  0.3958
 3039SOL    HW212710   5.826   8.817   3.779 -0.1252  0.1163  0.3653
 3040SOL     OW12711   4.462   9.807   1.059  0.1678  0.0246  0.9515
 3040SOL    HW112712   4.514   9.882   1.087  0.4213  0.2147  0.0175
 3040SOL    HW212713   4.372   9.840   1.058  0.1578  0.0130  1.5371
 3041SOL     OW12714   4.402  10.369   4.270  0.4940 -0.0316  0.2771
 3041SOL    HW112715   4.430  10.441   4.214 -1.2099  1.3058  1.0376
 3041SOL    HW212716   4.481  10.319   4.287  1.5648  1.1609 -1.0003
 3042SOL     OW12717   6.915   1.754   1.166 -0.7327 -0.6277  0.1593
 3042SOL    HW112718   6.822   1.777   1.162 -0.1948  1.7503 -0.4950
 3042SOL    HW212719   6.935   1.753   1.260 -0.9462  1.2291  0.2560
 3043SOL     OW12720  10.636   1.882   9.528 -0.3150 -0.3757  0.1495
 3043SOL    HW112721  10.727   1.878   9.554 -0.7876 -0.4579  1.8711
 3043SOL    HW212722  10.630   1.961   9.474  0.2719  1.1510  2.1975
 3044SOL     OW12723   3.886   0.895   3.975  0.0934 -0.0646 -0.0389
 3044SOL    HW112724   3.831   0.824   4.007  0.1619 -0.0641  0.0800
 3044SOL    HW212725   3.826   0.951   3.925 -0.7008  1.5624  2.5476
 3045SOL     OW12726   2.410   0.583   0.985 -0.4115 -0.0205 -0.2511
 3045SOL    HW112727   2.331   0.570   0.932  0.1254 -0.8237 -0.8883
 3045SOL    HW212728   2.481   0.546   0.932  0.8691  3.0394 -0.9353
 3046SOL     OW12729  10.948   5.095   6.292  0.1942  0.4603 -0.4189
 3046SOL    HW112730  10.853   5.092   6.306  0.3593  0.0458  0.7470
 3046SOL    HW212731  10.966   5.187   6.272 -0.3197  0.7696  0.4751
 3047SOL     OW12732   5.488   0.784  10.094  0.1122  0.5282  0.1409
 3047SOL    HW112733   5.527   0.725  10.158 -0.8744  2.1155  2.3769
 3047SOL    HW212734   5.400   0.749  10.079  0.6060 -0.2694 -0.9891
 3048SOL     OW12735   6.588   6.331   6.216 -0.1180 -0.1128 -0.2815
 3048SOL    HW112736   6.568   6.364   6.303  0.5593 -0.8440  0.1644
 3048SOL    HW212737   6.534   6.252   6.206 -1.6661  1.0137 -1.3092
 3049SOL     OW12738  10.227   7.962   1.104  0.4752  0.1458  0.0867
 3049SOL    HW112739  10.143   7.947   1.061  0.4148  1.5784 -0.3771
 3049SOL    HW212740  10.292   7.928   1.042  0.2697 -0.1229  0.0217
 3050SOL     OW12741   2.924   8.771   7.473 -0.4215 -0.3451  0.2400
 3050SOL    HW112742   2.901   8.864   7.476 -1.1917 -0.4990 -0.5017
 3050SOL    HW212743   3.012   8.767   7.509 -0.6770  0.5727  1.0163
 3051SOL     OW12744   8.000   7.916   8.300  0.2481  0.4886 -0.0855
 3051SOL    HW112745   7.966   7.970   8.228 -2.7559  1.1205  1.6500
 3051SOL    HW212746   7.951   7.834   8.294  0.2530  0.3972  0.9915
 3052SOL     OW12747   1.950   1.031   5.648  0.0670  0.1498  0.2795
 3052SOL    HW112748   1.980   1.055   5.735 -1.3113 -1.3431  1.2121
 3052SOL    HW212749   2.010   0.963   5.619 -0.0116  0.0043  0.4553
 3053SOL     OW12750   5.073   0.631   4.275 -0.0331 -0.5772  0.3634
 3053SOL    HW112751   5.025   0.567   4.327  0.1293 -0.9265  0.0860
 3053SOL    HW212752   5.156   0.589   4.256 -0.0199 -0.3794 -0.0287
 3054SOL     OW12753  10.635   2.308   0.198 -0.2167  0.1429 -0.4277
 3054SOL    HW112754  10.704   2.338   0.139  0.2637  0.4547  0.2907
 3054SOL    HW212755  10.678   2.295   0.282 -1.3091  1.8554  0.4581
 3055SOL     OW12756   8.444   2.907   1.121 -0.7895  0.4812 -0.2015
 3055SOL    HW112757   8.446   2.843   1.050  0.0228  1.4186 -1.0351
 3055SOL    HW212758   8.533   2.907   1.157 -0.7348  1.2605 -0.3214
 3056SOL     OW12759   7.248   0.446   1.308 -0.2123 -0.5606  0.0536
 3056SOL    HW112760   7.248   0.388   1.231 -0.2933 -2.5602  1.4634
 3056SOL    HW212761   7.234   0.533   1.273  2.7437 -0.9263 -2.4995
 3057SOL     OW12762   6.308   9.017   0.839  0.3445  0.0032  0.0302
 3057SOL    HW112763   6.310   8.925   0.865  0.0157 -0.3927 -1.2965
 3057SOL    HW212764   6.275   9.063   0.917  1.3846 -0.8645  1.0224
 3058SOL     OW12765   2.187   1.840   9.405 -0.2802  0.4938 -0.0209
 3058SOL    HW112766   2.197   1.794   9.322  1.2922  4.6556 -2.4990
 3058SOL    HW212767   2.095   1.864   9.409 -0.2157  0.9646 -1.0588
 3059SOL     OW12768   5.920  11.105   4.468  0.6005  0.0356  0.1288
 3059SOL    HW112769   5.976  11.028   4.470  0.2205 -0.2529 -0.2908
 3059SOL    HW212770   5.927  11.137   4.378  0.9074  0.6092  0.3457
 3060SOL     OW12771   5.258   6.779  10.150  0.1343 -0.0262  0.3567
 3060SOL    HW112772   5.315   6.759  10.075  1.7908 -0.6632  1.7229
 3060SOL    HW212773   5.291   6.723  10.221 -0.0543  2.0052  2.1435
 3061SOL     OW12774   0.683   6.908   8.586 -0.3596 -0.2894 -0.0442
 3061SOL    HW112775   0.698   6.976   8.652 -1.2284 -0.3035  0.1721
 3061SOL    HW212776   0.656   6.956   8.508  3.4141  0.0178 -1.3876
 3062SOL     OW12777   7.887   1.462   8.983  0.2174  0.3658 -0.0757
 3062SOL    HW112778   7.935   1.544   8.972  0.4620  0.1134 -0.9892
 3062SOL    HW212779   7.909   1.410   8.905 -0.8594 -0.0968 -0.0981
 3063SOL     OW12780   7.829   7.668   6.797  0.0738 -0.3463 -0.1524
 3063SOL    HW112781   7.812   7.645   6.889  1.2931 -1.5893 -0.2112
 3063SOL    HW212782   7.914   7.628   6.778 -0.0802  0.0587 -1.7800
 3064SOL     OW12783  10.789   3.087   1.185 -0.0776  0.2587  0.2030
 3064SOL    HW112784  10.807   3.032   1.109 -0.9261  0.9495 -0.5123
 3064SOL    HW212785  10.842   3.165   1.171 -0.7389  0.6745 -0.0284
 3065SOL     OW12786   4.278   3.571  10.378  0.0239 -0.0278  0.1145
 3065SOL    HW112787   4.358   3.522  10.361 -0.0147  0.2640 -0.9504
 3065SOL    HW212788   4.208   3.506  10.371  0.0543 -0.0133 -0.3385
 3066SOL     OW12789   7.509   6.749   1.508 -0.2113  0.1537  0.3975
 3066SOL    HW112790   7.436   6.791   1.553 -0.8773 -0.1037 -0.4123
 3066SOL    HW212791   7.549   6.820   1.457 -0.8002  0.0042 -0.2889
 3067SOL     OW12792   4.957   7.263   3.867  0.3336 -0.2885  0.5680
 3067SOL    HW112793   4.913   7.254   3.782 -1.3217  1.0383  1.2228
 3067SOL    HW212794   4.950   7.176   3.906  0.8931 -0.8490 -0.5280
 3068SOL     OW12795   1.737   9.976  10.165 -0.2730  0.4687  0.2642
 3068SOL    HW112796   1.691  10.039  10.220 -0.7170 -0.9205  1.5492
 3068SOL    HW212797   1.672   9.950  10.099 -1.0466 -0.7515  1.4735
 3069SOL     OW12798   6.870   1.957   5.523 -0.0060 -0.0718  0.5427
 3069SOL    HW112799   6.888   1.869   5.556 -0.6458 -0.5329 -0.2779
 3069SOL    HW212800   6.776   1.969   5.538 -0.5366 -0.6890 -1.9236
 3070SOL     OW12801   0.358  10.240   5.126  0.0841 -0.1065  0.0749
 3070SOL    HW112802   0.296  10.216   5.195  1.7867  1.2588  2.2039
 3070SOL    HW212803   0.308  10.228   5.045 -2.0017 -1.8318  1.4715
 3071SOL     OW12804   9.340   9.544   6.377 -0.1366  0.0717  0.3575
 3071SOL    HW112805   9.316   9.637   6.367 -0.4421 -0.1737 -1.4352
 3071SOL    HW212806   9.433   9.546   6.400 -0.0792  0.8237  0.0975
 3072SOL     OW12807   9.527   9.024   2.962 -0.1039  0.1600  0.4713
 3072SOL    HW112808   9.556   8.952   2.906 -1.2289 -0.2008  0.3275
 3072SOL    HW212809   9.573   9.101   2.928 -1.2543  0.0731 -1.4038
 3073SOL     OW12810   6.829   5.561   1.649  0.5857 -0.4689  0.2943
 3073SOL    HW112811   6.764   5.631   1.657  0.2810 -0.6563 -0.4850
 3073SOL    HW212812   6.831   5.520   1.735  1.1398  0.8255  0.9190
 3074SOL     OW12813   9.974   5.595   3.234  0.3296 -0.3453  0.4462
 3074SOL    HW112814  10.002   5.675   3.278 -1.2211  0.4881 -0.0308
 3074SOL    HW212815   9.974   5.617   3.141 -0.4026 -0.8134  0.3280
 3075SOL     OW12816   6.465   7.644   4.938  0.1942 -0.0548 -0.1426
 3075SOL    HW112817   6.556   7.664   4.958  0.0568 -0.7951  1.3341
 3075SOL    HW212818   6.457   7.550   4.954 -1.4325  0.4261  2.2910
 3076SOL     OW12819   8.312   4.983   8.919 -0.3384 -0.3139  0.2295
 3076SOL    HW112820   8.224   4.944   8.923  0.1820 -1.5914 -0.3425
 3076SOL    HW212821   8.370   4.910   8.898  0.7672  0.6596 -0.2200
 3077SOL     OW12822   1.386   6.896   7.723 -0.0125 -0.3316  0.2298
 3077SOL    HW112823   1.433   6.813   7.731 -1.5306 -1.1898  0.6718
 3077SOL    HW212824   1.299   6.878   7.759 -0.4480  1.4005  0.1358
 3078SOL     OW12825   8.773   4.338   0.829  0.1708 -0.4080 -0.4230
 3078SOL    HW112826   8.796   4.429   0.847  0.5581 -0.0890 -2.2862
 3078SOL    HW212827   8.680   4.331   0.851 -0.2213  0.8366 -1.5366
 3079SOL     OW12828   1.957   3.958   2.057  0.0709 -0.1056 -0.5128
 3079SOL    HW112829   2.046   3.945   2.090  0.2871 -1.0811 -1.4486
 3079SOL    HW212830   1.943   4.053   2.062  0.2129 -0.1525  2.0077
 3080SOL     OW12831   6.343   6.797   3.529  0.2133  0.5855 -0.0904
 3080SOL    HW112832   6.351   6.701   3.521  0.0012  0.5704 -0.1127
 3080SOL    HW212833   6.261   6.811   3.575 -0.3444  0.7921 -1.1170
 3081SOL     OW12834   0.255   9.913   5.691  0.2898 -0.1558 -0.5187
 3081SOL    HW112835   0.236   9.994   5.738  1.3828  0.3629 -0.9250
 3081SOL    HW212836   0.333   9.933   5.639  0.7100 -1.5375 -0.4695
 3082SOL     OW12837   2.436  10.795   7.377 -0.2791  0.1013  0.1116
 3082SOL    HW112838   2.390  10.762   7.454  0.2919 -0.1469  0.3565
 3082SOL    HW212839   2.508  10.733   7.364 -0.5770 -0.0620 -0.8376
 3083SOL     OW12840   5.485  10.862   9.697 -0.3715  0.1194  0.2317
 3083SOL    HW112841   5.554  10.872   9.630 -1.1332 -0.2439 -0.6367
 3083SOL    HW212842   5.532  10.868   9.780  0.2104  3.6901 -0.2102
 3084SOL     OW12843   6.403   6.311   7.581  0.0232  0.2211 -0.0271
 3084SOL    HW112844   6.444   6.281   7.500  1.8641  1.9706  0.1791
 3084SOL    HW212845   6.334   6.372   7.552  0.4409  0.5699 -0.2996
 3085SOL     OW12846   7.233   2.379   7.161  0.0726  0.0148  0.1857
 3085SOL    HW112847   7.251   2.287   7.142 -0.3271 -0.3823  1.5819
 3085SOL    HW212848   7.315   2.424   7.141  0.4841 -0.7542  0.1172
 3086SOL     OW12849   5.760   0.999   3.937  0.2100 -0.2703  0.2023
 3086SOL    HW112850   5.738   1.008   3.845 -0.9228 -0.5907  0.4218
 3086SOL    HW212851   5.823   1.068   3.954  0.8224 -0.5337 -0.9255
 3087SOL     OW12852   6.544   3.336  10.471 -0.1087 -0.1518  0.5434
 3087SOL    HW112853   6.548   3.284  10.391 -1.2585  0.4689  0.0624
 3087SOL    HW212854   6.636   3.346  10.498  0.6209  2.0478 -2.2946
 3088SOL     OW12855  10.800   5.115   2.425  0.4714 -0.2270  0.2078
 3088SOL    HW112856  10.718   5.073   2.450  0.0599 -0.7758 -1.8726
 3088SOL    HW212857  10.782   5.209   2.430 -0.5615 -0.3403 -0.9794
 3089SOL     OW12858   4.021   3.047   5.865 -0.2685  0.0455  0.1228
 3089SOL    HW112859   4.101   3.079   5.823 -0.1293 -0.1141  0.2654
 3089SOL    HW212860   4.026   3.079   5.955 -1.0134  1.1799 -0.2119
 3090SOL     OW12861   3.161   2.742   9.479 -0.0958 -0.1274  0.2091
 3090SOL    HW112862   3.254   2.722   9.471 -0.2033 -0.8697  0.7768
 3090SOL    HW212863   3.134   2.700   9.560 -1.1267 -0.6809 -0.4025
 3091SOL     OW12864   4.140   0.926   9.267 -0.2515  0.2369  0.5205
 3091SOL    HW112865   4.098   1.009   9.288 -0.7145 -0.2366  1.5624
 3091SOL    HW212866   4.076   0.879   9.214 -0.4890  0.0671  0.9521
 3092SOL     OW12867   0.122   1.436   9.554  0.4696  0.4710 -0.4156
 3092SOL    HW112868   0.209   1.415   9.590 -0.4955 -2.2357  0.5846
 3092SOL    HW212869   0.103   1.364   9.494 -1.3221  0.6898 -0.1602
 3093SOL     OW12870   2.966   2.129   6.305 -0.1590  0.0652  0.0400
 3093SOL    HW112871   3.033   2.150   6.370  0.7694  0.4078 -0.9911
 3093SOL    HW212872   2.898   2.083   6.354 -0.4500  2.0834  1.6386
 3094SOL     OW12873   6.315   8.866   2.067  0.1026 -0.1711  0.3623
 3094SOL    HW112874   6.410   8.863   2.068  0.1877 -0.5701 -2.4458
 3094SOL    HW212875   6.287   8.780   2.097  0.7312 -0.9387 -1.1444
 3095SOL     OW12876   6.994   0.183   8.979  0.9187  0.1799 -0.1206
 3095SOL    HW112877   6.988   0.219   8.890  2.1036  1.9633  0.4634
 3095SOL    HW212878   6.908   0.201   9.018  0.7429  0.3357 -0.5740
 3096SOL     OW12879   3.745   6.419   5.178  0.1504 -0.7109  0.1563
 3096SOL    HW112880   3.776   6.510   5.180  1.2258 -1.0100 -1.2865
 3096SOL    HW212881   3.651   6.426   5.194  0.0437  0.7533 -0.8770
 3097SOL     OW12882   4.187   6.629   3.387 -0.0297 -0.1554 -0.3837
 3097SOL    HW112883   4.238   6.609   3.309 -0.6238 -0.2377 -0.7498
 3097SOL    HW212884   4.115   6.684   3.356  0.7032  1.2850  0.3686
 3098SOL     OW12885   9.208   8.804  10.821  0.1697  0.2318  0.2658
 3098SOL    HW112886   9.215   8.744  10.895 -1.1836 -1.2632 -0.7639
 3098SOL    HW212887   9.123   8.848  10.834 -0.4052 -0.5509 -0.7349
 3099SOL     OW12888   8.554   4.626   0.199  0.3797  0.0976 -0.1282
 3099SOL    HW112889   8.522   4.586   0.117  0.7844  0.6730 -0.5766
 3099SOL    HW212890   8.568   4.551   0.257 -4.0140 -0.1116  1.0098
 3100SOL     OW12891   4.824   3.267   4.079 -0.0041 -0.1428  0.2159
 3100SOL    HW112892   4.822   3.363   4.075  0.1602  0.0183  2.6008
 3100SOL    HW212893   4.901   3.246   4.133  0.3494 -1.6578 -0.8143
 3101SOL     OW12894   7.046   6.136  10.131  0.0394 -0.7073 -0.1120
 3101SOL    HW112895   7.131   6.170  10.105  0.5596 -2.2592 -0.5502
 3101SOL    HW212896   7.065   6.075  10.203 -0.7682 -0.6422  0.1691
 3102SOL     OW12897   8.516  10.271   8.188 -0.4118 -0.1574 -0.5641
 3102SOL    HW112898   8.606  10.247   8.212  0.0388  0.2091 -1.8269
 3102SOL    HW212899   8.503  10.358   8.227 -0.7848 -0.8360  0.9252
 3103SOL     OW12900   2.447   7.373   5.519 -0.0654  0.2798  0.1010
 3103SOL    HW112901   2.414   7.288   5.546 -1.1673  0.6056 -0.1638
 3103SOL    HW212902   2.422   7.380   5.427 -2.0385  1.7883  0.6670
 3104SOL     OW12903   1.263   7.979   1.487  0.3675 -0.2690  0.1166
 3104SOL    HW112904   1.223   7.954   1.403 -1.1173  0.5115  0.5596
 3104SOL    HW212905   1.343   8.026   1.462 -0.6333  0.9659 -0.9248
 3105SOL     OW12906   2.715  10.018   8.637 -0.6552 -0.3978 -0.7292
 3105SOL    HW112907   2.651   9.957   8.600 -0.8306 -0.7986  0.2060
 3105SOL    HW212908   2.690  10.025   8.729  2.5016 -3.0488  0.5183
 3106SOL     OW12909   4.008   7.472   0.981  0.4992  0.2367 -0.1034
 3106SOL    HW112910   4.066   7.472   1.057  0.0331 -0.4659  0.2663
 3106SOL    HW212911   3.950   7.547   0.995  1.7515  1.3830 -0.8392
 3107SOL     OW12912   6.776   5.082   3.354  0.7774  0.0903 -0.1439
 3107SOL    HW112913   6.840   5.121   3.413  0.4962  0.1344  0.1409
 3107SOL    HW212914   6.691   5.109   3.390  0.6053  0.2144 -0.6381
 3108SOL     OW12915   4.735   4.734   5.840 -0.4472  0.1150  0.2022
 3108SOL    HW112916   4.811   4.679   5.856 -0.7038 -0.0208  1.0033
 3108SOL    HW212917   4.734   4.747   5.745 -0.9480 -2.0861 -0.1574
 3109SOL     OW12918  10.622   1.383   7.382 -0.2340  0.8660  0.0017
 3109SOL    HW112919  10.575   1.400   7.463  1.5441  1.5458  0.9311
 3109SOL    HW212920  10.572   1.431   7.315 -0.9062  1.4874  0.9258
 3110SOL     OW12921   0.712   7.722   1.765 -0.0372 -0.3985  0.4840
 3110SOL    HW112922   0.634   7.725   1.708  0.5521  0.4331 -0.3017
 3110SOL    HW212923   0.714   7.631   1.796 -0.6703 -0.7463 -0.4119
 3111SOL     OW12924   8.255   0.279   2.163 -0.2157  0.4915  0.9035
 3111SOL    HW112925   8.224   0.210   2.104 -0.4508  0.8128  0.6442
 3111SOL    HW212926   8.233   0.248   2.251 -0.0177  0.0862  0.8138
 3112SOL     OW12927   8.682   8.229   9.369 -0.0178  0.1369  0.5512
 3112SOL    HW112928   8.746   8.194   9.430  0.0680  1.3192  1.1750
 3112SOL    HW212929   8.687   8.324   9.380 -1.9089  0.2733  0.6757
 3113SOL     OW12930   9.609   6.694  10.405  0.1634 -0.2772  0.1564
 3113SOL    HW112931   9.694   6.729  10.434  0.0199  0.3870 -0.1943
 3113SOL    HW212932   9.575   6.761  10.346  0.0313 -1.1790 -0.8218
 3114SOL     OW12933  10.379   1.490   4.984 -0.1399 -0.2880  0.0710
 3114SOL    HW112934  10.387   1.494   4.888  1.4242  1.7542  0.2330
 3114SOL    HW212935  10.285   1.482   4.999 -0.5344  0.5964 -1.6226
 3115SOL     OW12936   6.161   8.519  10.177 -0.1703 -0.1148 -0.0647
 3115SOL    HW112937   6.100   8.541  10.247  0.0537 -0.7303  0.3301
 3115SOL    HW212938   6.235   8.577  10.190 -0.4223  0.2345 -0.1946
 3116SOL     OW12939   9.779   3.157  10.181  0.3443  0.1225 -0.0235
 3116SOL    HW112940   9.869   3.186  10.164  0.1467 -0.0553 -1.4488
 3116SOL    HW212941   9.789   3.068  10.215  0.6652 -0.7106 -2.1234
 3117SOL     OW12942  10.727   7.794   6.053  0.2171 -0.8455 -0.3016
 3117SOL    HW112943  10.672   7.722   6.021 -1.6327  0.4106 -0.1469
 3117SOL    HW212944  10.738   7.851   5.977 -0.4232 -0.0913  0.1536
 3118SOL     OW12945   4.726   0.019   9.755  0.1398 -0.1737 -0.1712
 3118SOL    HW112946   4.692  -0.028   9.679 -1.1457  0.3775  0.0343
 3118SOL    HW212947   4.763  -0.050   9.811 -0.0139 -0.7175 -0.7250
 3119SOL     OW12948   2.966   7.758   7.626  0.0853  0.1960  0.2784
 3119SOL    HW112949   2.922   7.726   7.705 -0.5110  0.6968  0.1517
 3119SOL    HW212950   2.975   7.680   7.571  0.7771 -0.2208  0.9544
 3120SOL     OW12951   1.426   8.411  10.187 -0.4300  0.3707  0.5809
 3120SOL    HW112952   1.441   8.347  10.257  1.1027 -0.5126 -0.4765
 3120SOL    HW212953   1.427   8.358  10.107  2.5935  1.8324 -0.4898
 3121SOL     OW12954   0.234  10.633   1.432 -0.4350 -0.0390  0.6224
 3121SOL    HW112955   0.140  10.634   1.452 -0.5822 -1.6242  0.1386
 3121SOL    HW212956   0.239  10.596   1.344  0.6001  1.1164  0.1633
 3122SOL     OW12957   9.487   1.771   2.253  0.0953 -0.2574  0.5498
 3122SOL    HW112958   9.511   1.682   2.276  0.0901 -0.1597  0.9477
 3122SOL    HW212959   9.402   1.784   2.296  0.2816  0.0706  0.8211
 3123SOL     OW12960   4.501   7.361   5.850  0.3351  0.3018 -0.0413
 3123SOL    HW112961   4.522   7.268   5.865 -1.3968 -0.0514  0.3409
 3123SOL    HW212962   4.587   7.403   5.843  1.1822 -1.5143 -1.5259
 3124SOL     OW12963   7.904  10.307  10.629 -0.2855 -0.0649  0.4294
 3124SOL    HW112964   7.978  10.325  10.688 -0.4026 -1.4444  1.0497
 3124SOL    HW212965   7.944  10.296  10.543 -0.0454  1.4212  0.3205
 3125SOL     OW12966   7.709  10.464   6.579  0.0083 -0.1767 -0.5462
 3125SOL    HW112967   7.778  10.457   6.646 -0.4596  0.5480  0.0264
 3125SOL    HW212968   7.657  10.540   6.606 -0.9849 -0.6756 -1.0031
 3126SOL     OW12969   0.159  10.839   3.141  0.6690  0.0442 -0.5405
 3126SOL    HW112970   0.147  10.932   3.157  0.9521 -0.2186  1.3165
 3126SOL    HW212971   0.219  10.835   3.067 -0.0484  1.3127 -1.2304
 3127SOL     OW12972   0.963   1.721   8.999  0.0406  0.3244  0.4831
 3127SOL    HW112973   0.877   1.757   9.021 -0.3077 -0.0314 -0.2534
 3127SOL    HW212974   1.024   1.791   9.023 -0.4295  0.5068  1.1937
 3128SOL     OW12975   5.290   4.958   5.752  0.6402  1.2255 -0.2276
 3128SOL    HW112976   5.382   4.977   5.732  1.1649 -0.8598 -0.0943
 3128SOL    HW212977   5.254   4.926   5.670  0.0796  1.8282 -0.2207
 3129SOL     OW12978   1.994   8.343  10.365  0.3027  0.6384  0.2123
 3129SOL    HW112979   1.917   8.289  10.351 -0.2144  1.3696  0.2130
 3129SOL    HW212980   2.061   8.282  10.397  0.4403 -0.4369 -1.9415
 3130SOL     OW12981   6.412   0.552   5.197 -0.3743  0.2958  0.3829
 3130SOL    HW112982   6.327   0.510   5.208 -0.8269  1.1891  0.4277
 3130SOL    HW212983   6.463   0.491   5.144 -0.1409 -1.4192  2.4678
 3131SOL     OW12984   1.465   6.285   9.413  0.2203  0.0934  0.8674
 3131SOL    HW112985   1.501   6.274   9.325 -1.3424 -1.6308  0.3777
 3131SOL    HW212986   1.538   6.321   9.464  1.3879  0.4473 -0.9387
 3132SOL     OW12987   7.418   2.021   9.635  0.0279 -0.1653 -0.0306
 3132SOL    HW112988   7.475   1.947   9.653  0.7199  0.1485 -0.8527
 3132SOL    HW212989   7.444   2.087   9.700  0.2411 -0.2203 -0.0565
 3133SOL     OW12990   4.692   3.409   5.351  0.7654  0.9929 -0.6545
 3133SOL    HW112991   4.767   3.412   5.411  0.1754 -0.6572  0.2477
 3133SOL    HW212992   4.727   3.372   5.270  0.6908 -1.2904  0.2780
 3134SOL     OW12993   2.512   8.152   6.743  0.2947  0.4244 -0.0523
 3134SOL    HW112994   2.562   8.099   6.681 -1.2054 -0.7578 -0.3350
 3134SOL    HW212995   2.459   8.209   6.689 -1.2558 -0.8309  0.0567
 3135SOL     OW12996   2.189   8.337   7.468  0.2805 -0.4746 -0.5497
 3135SOL    HW112997   2.169   8.286   7.546  0.6143  0.2857  0.0563
 3135SOL    HW212998   2.140   8.419   7.480 -0.3728 -0.7003 -1.5705
 3136SOL     OW12999   2.733   5.786   7.465  0.1103 -0.5350  0.0530
 3136SOL    HW113000   2.815   5.754   7.504 -0.3941 -1.0437  0.7260
 3136SOL    HW213001   2.753   5.875   7.437  0.5231 -0.1475  1.4713
 3137SOL     OW13002   2.782   6.476   2.971  0.2408 -0.0864 -1.0917
 3137SOL    HW113003   2.799   6.401   3.028 -1.7249 -1.8020 -2.5922
 3137SOL    HW213004   2.830   6.548   3.011 -2.0562 -0.7599  3.5331
 3138SOL     OW13005   5.342   4.454   6.617 -0.1983 -0.1646  0.0116
 3138SOL    HW113006   5.424   4.425   6.656  0.9070  1.7656 -0.7167
 3138SOL    HW213007   5.309   4.521   6.678 -1.3062 -0.9874  0.3481
 3139SOL     OW13008   8.438   5.735   6.364  0.4445  0.0902 -0.0924
 3139SOL    HW113009   8.436   5.823   6.325  0.1121 -1.2184 -3.4158
 3139SOL    HW213010   8.511   5.738   6.426  0.9378  2.4960 -0.6799
 3140SOL     OW13011   5.979   3.771   7.914 -0.2030  0.0933  0.7396
 3140SOL    HW113012   5.906   3.747   7.971 -0.0316 -1.4700  0.3308
 3140SOL    HW213013   5.979   3.705   7.844  1.2670  0.3778  0.4285
 3141SOL     OW13014   4.190   5.765   1.197 -0.2674  0.2372  0.0957
 3141SOL    HW113015   4.175   5.831   1.265 -0.3689 -1.1868  1.5216
 3141SOL    HW213016   4.105   5.721   1.188 -1.2969  2.5433 -3.4604
 3142SOL     OW13017   9.048   0.335   0.113  0.1808 -0.3320 -0.0633
 3142SOL    HW113018   8.971   0.298   0.157  0.8726 -0.2556  1.2653
 3142SOL    HW213019   9.034   0.430   0.117  0.1018 -0.3353 -0.2716
 3143SOL     OW13020   9.250   2.284   1.516  0.5228 -0.5347 -0.2760
 3143SOL    HW113021   9.178   2.283   1.453 -0.2243  0.3842  0.5275
 3143SOL    HW213022   9.316   2.342   1.477 -0.4113  0.9373  0.2570
 3144SOL     OW13023   6.318   0.331   2.026  0.0696 -0.5875  0.0247
 3144SOL    HW113024   6.386   0.321   1.960  0.6311 -0.8772  0.6394
 3144SOL    HW213025   6.295   0.424   2.023  0.7390 -0.4177  0.0524
 3145SOL     OW13026   2.298   1.751   6.766 -0.1337  0.3210 -0.4101
 3145SOL    HW113027   2.348   1.828   6.791 -0.2718  0.6362 -1.0829
 3145SOL    HW213028   2.281   1.763   6.673  0.3413 -0.8030 -0.6538
 3146SOL     OW13029   9.480   9.912   8.889 -0.4322  0.3215  0.0220
 3146SOL    HW113030   9.388   9.895   8.906 -1.1799  3.9451  0.3254
 3146SOL    HW213031   9.524   9.895   8.973 -1.2634  1.0472  0.6168
 3147SOL     OW13032   7.307   5.214  10.988  0.6118 -0.0145  0.5568
 3147SOL    HW113033   7.379   5.266  10.952  0.1927  0.1617 -0.0438
 3147SOL    HW213034   7.241   5.213  10.918 -0.4528  0.7802  1.4951
 3148SOL     OW13035   7.233   7.984  11.085  0.2031  0.1138  0.1191
 3148SOL    HW113036   7.287   7.971  11.007  2.0667  0.9064  1.2247
 3148SOL    HW213037   7.259   7.912  11.143  1.0072  1.1827  1.1305
 3149SOL     OW13038   9.480   4.342   7.330  0.6531 -0.1630 -0.1213
 3149SOL    HW113039   9.537   4.288   7.275 -0.3675 -1.6195  0.1847
 3149SOL    HW213040   9.439   4.280   7.391  0.6583  1.2129  1.3360
 3150SOL     OW13041   2.718   6.526   7.061  0.2558 -0.0749  0.3152
 3150SOL    HW113042   2.762   6.602   7.101  0.4147  0.0927 -0.1696
 3150SOL    HW213043   2.631   6.558   7.038  0.3024 -0.0574  0.1634
 3151SOL     OW13044   7.658  10.239   6.980  0.4564  0.1995 -0.3708
 3151SOL    HW113045   7.599  10.269   6.912 -0.7098 -0.0941  0.4856
 3151SOL    HW213046   7.719  10.312   6.993  0.9959  0.0982 -2.0037
 3152SOL     OW13047   7.643   5.534   9.845  0.0710 -0.3997  0.4252
 3152SOL    HW113048   7.619   5.520   9.937  2.1453 -1.0795  0.9057
 3152SOL    HW213049   7.647   5.629   9.836  0.7943 -0.3278  1.3166
 3153SOL     OW13050   8.973   5.346   8.871 -0.2196 -0.3906 -0.0593
 3153SOL    HW113051   9.045   5.298   8.912  1.8709  1.3722 -1.4221
 3153SOL    HW213052   8.952   5.296   8.793  0.7378 -0.0509 -0.5524
 3154SOL     OW13053   9.820   2.506  10.714  0.0450 -0.2598 -0.0357
 3154SOL    HW113054   9.810   2.461  10.630 -1.3058  0.5035 -0.3191
 3154SOL    HW213055   9.804   2.439  10.780 -3.8998  0.0717 -0.4419
 3155SOL     OW13056  10.282   8.614   4.382  0.1791 -0.0800  0.1117
 3155SOL    HW113057  10.238   8.529   4.394 -1.0083  0.4641 -0.1584
 3155SOL    HW213058  10.355   8.612   4.443  0.9852 -1.8244 -0.8261
 3156SOL     OW13059   8.270   4.130   6.517 -0.1436  0.0931 -0.6442
 3156SOL    HW113060   8.246   4.058   6.459  2.0800  0.1071 -1.6918
 3156SOL    HW213061   8.267   4.208   6.462  1.3065  0.2027 -0.6253
 3157SOL     OW13062   9.188   6.913   7.919  0.4797 -0.1686  0.4548
 3157SOL    HW113063   9.104   6.889   7.881  1.0656 -0.3718 -0.7836
 3157SOL    HW213064   9.228   6.972   7.855  1.9673 -1.3675  0.2030
 3158SOL     OW13065   4.124   7.239   8.031 -0.0750  0.3538 -0.1295
 3158SOL    HW113066   4.198   7.180   8.041 -0.0554  0.4774  0.4528
 3158SOL    HW213067   4.060   7.189   7.981  0.5349  0.3691 -0.9538
 3159SOL     OW13068   3.001   0.679   5.711 -0.4081  0.1172  0.5107
 3159SOL    HW113069   3.087   0.710   5.740 -0.2138  0.2302 -0.1581
 3159SOL    HW213070   2.974   0.616   5.778  0.2047  0.0746  0.7233
 3160SOL     OW13071   9.242   7.897   0.882  0.0296  0.3250  0.1956
 3160SOL    HW113072   9.220   7.806   0.861  0.5932  0.4465 -1.0158
 3160SOL    HW213073   9.169   7.948   0.847 -0.3201  0.3495  0.9360
 3161SOL     OW13074   3.092   8.185   7.275  0.2823 -0.0413 -0.2975
 3161SOL    HW113075   3.146   8.264   7.267  0.4311 -0.0116  0.8122
 3161SOL    HW213076   3.026   8.208   7.340  0.3579 -0.8475  0.0649
 3162SOL     OW13077  10.361   3.308   6.447 -0.3124 -0.1984  0.2414
 3162SOL    HW113078  10.275   3.293   6.485 -0.1209 -0.0842  0.7339
 3162SOL    HW213079  10.422   3.301   6.521  0.0418  0.2932  0.0090
 3163SOL     OW13080   8.997   8.912  10.009 -0.3055  0.2631 -0.4058
 3163SOL    HW113081   9.036   8.986  10.056 -2.4917  0.9212  0.5015
 3163SOL    HW213082   8.937   8.873  10.072  0.9388 -2.4922 -0.8043
 3164SOL     OW13083   8.197   0.429   7.442  0.6209 -0.3870 -0.2195
 3164SOL    HW113084   8.124   0.377   7.409 -2.0320  1.8599  1.6096
 3164SOL    HW213085   8.198   0.507   7.386  2.4062 -0.8307 -0.8876
 3165SOL     OW13086   7.997   3.391   6.681 -0.0017  0.3557  0.0603
 3165SOL    HW113087   8.028   3.338   6.754 -1.8819 -1.3007 -0.2815
 3165SOL    HW213088   7.965   3.328   6.616 -0.2318  1.8392 -1.3540
 3166SOL     OW13089   3.835   6.224   4.961 -0.0872  0.4146 -0.0568
 3166SOL    HW113090   3.880   6.140   4.969  0.3465  0.5728 -0.7386
 3166SOL    HW213091   3.897   6.288   4.998  0.4523  0.6905 -1.3876
 3167SOL     OW13092   7.564   2.160   9.401 -0.4745  0.2750  0.6208
 3167SOL    HW113093   7.502   2.114   9.459 -0.5645 -0.3774  0.0217
 3167SOL    HW213094   7.537   2.252   9.406  0.7928  0.5939  3.2070
 3168SOL     OW13095   8.164   0.400   0.100  0.0481 -0.0398 -0.1001
 3168SOL    HW113096   8.086   0.445   0.071 -0.5891 -0.7572  0.4609
 3168SOL    HW213097   8.196   0.353   0.023 -0.4882 -0.3180 -0.1568
 3169SOL     OW13098   9.293   8.117   4.599  0.1152  0.1035  0.0062
 3169SOL    HW113099   9.300   8.085   4.509  0.4036  1.5922 -0.5302
 3169SOL    HW213100   9.321   8.208   4.594 -1.0704  0.5804  1.3795
 3170SOL     OW13101   4.459   6.762   9.687 -0.2939 -0.5401  0.2152
 3170SOL    HW113102   4.498   6.814   9.757  1.6762 -2.2693  0.5039
 3170SOL    HW213103   4.440   6.678   9.728  1.3824 -1.7730 -1.3756
 3171SOL     OW13104   2.299   6.081   1.610 -0.2811  0.3242  0.3585
 3171SOL    HW113105   2.299   6.171   1.644 -1.3288  0.6847 -0.5258
 3171SOL    HW213106   2.328   6.028   1.684 -0.1825  1.3310  1.0727
 3172SOL     OW13107   7.454   2.202   0.482  0.2272  0.0044 -0.0874
 3172SOL    HW113108   7.496   2.128   0.526 -0.2588 -0.3661 -0.2370
 3172SOL    HW213109   7.360   2.189   0.497  0.0433 -0.1836 -1.3046
 3173SOL     OW13110   7.784   5.950   7.907 -0.7462  0.4453 -0.9140
 3173SOL    HW113111   7.753   5.928   7.995 -2.0072  1.4812 -1.0636
 3173SOL    HW213112   7.719   5.912   7.848  0.1920 -0.4097 -1.4279
 3174SOL     OW13113   6.039   2.560  10.413 -0.3882 -0.4124  0.2373
 3174SOL    HW113114   6.132   2.546  10.400 -0.8198 -1.2896 -2.9837
 3174SOL    HW213115   6.007   2.477  10.448 -0.0340 -0.2066  1.0709
 3175SOL     OW13116   6.157   2.750   7.158 -0.2131  0.3630  0.0473
 3175SOL    HW113117   6.235   2.755   7.104  0.0603 -0.7627  0.3170
 3175SOL    HW213118   6.179   2.687   7.227 -1.0550  0.6760  0.6255
 3176SOL     OW13119   1.558  10.517   8.396 -0.6431 -0.3124  0.2591
 3176SOL    HW113120   1.573  10.440   8.340  0.9698  0.9343 -1.1495
 3176SOL    HW213121   1.510  10.578   8.340 -1.2052  0.0132  1.0922
 3177SOL     OW13122   6.555   8.912   3.656  0.1667 -0.3229 -0.3656
 3177SOL    HW113123   6.608   8.991   3.652 -0.0255 -0.2084 -3.5058
 3177SOL    HW213124   6.614   8.843   3.685  0.5959  0.7464  1.3942
 3178SOL     OW13125  10.617   4.717   0.059 -0.8381 -0.4005 -0.4459
 3178SOL    HW113126  10.564   4.658   0.114 -0.4707  0.9147  1.3923
 3178SOL    HW213127  10.559   4.791   0.041 -0.1578  0.3455  0.3209
 3179SOL     OW13128   7.834   9.912   7.684 -0.5849 -0.2444 -0.0042
 3179SOL    HW113129   7.868   9.827   7.714 -0.4265 -1.2503 -2.7669
 3179SOL    HW213130   7.907   9.953   7.640 -0.9118  0.9908  0.5615
 3180SOL     OW13131   9.092  10.335   0.557  0.0844 -0.1270 -0.7033
 3180SOL    HW113132   9.108  10.332   0.652 -0.8541 -0.9768 -0.5527
 3180SOL    HW213133   9.019  10.274   0.543 -0.5541  0.8387 -1.8197
 3181SOL     OW13134   8.746   8.529   9.401  0.1248 -0.2009  0.0043
 3181SOL    HW113135   8.840   8.548   9.395  0.1045  0.2699  1.0174
 3181SOL    HW213136   8.711   8.597   9.458 -0.4230 -1.6548  1.4912
 3182SOL     OW13137   4.205   1.828   7.448  0.1453  0.1818 -0.0424
 3182SOL    HW113138   4.144   1.835   7.375  0.1037 -3.0722 -0.4779
 3182SOL    HW213139   4.268   1.898   7.434 -0.6802  0.5342 -2.3724
 3183SOL     OW13140   2.270   6.072   7.641  0.4639  0.1845  0.3036
 3183SOL    HW113141   2.189   6.066   7.693 -0.3119 -1.7545 -1.0244
 3183SOL    HW213142   2.296   6.164   7.648 -0.7546  0.4333  2.3740
 3184SOL     OW13143   4.463   2.940   5.180  0.2674  0.1372 -0.1729
 3184SOL    HW113144   4.526   2.954   5.251 -0.5550 -1.1867  0.8644
 3184SOL    HW213145   4.401   3.012   5.190  0.1395 -0.0562  0.4807
 3185SOL     OW13146   8.983   8.424   1.470 -0.0505  0.2976  0.0113
 3185SOL    HW113147   9.042   8.362   1.428  0.1933  1.1933 -1.0282
 3185SOL    HW213148   8.946   8.376   1.544 -1.8449 -1.9717 -2.1776
 3186SOL     OW13149   0.633   0.261   4.282 -0.1192 -0.1358 -0.1476
 3186SOL    HW113150   0.686   0.190   4.246 -0.4518 -0.1490 -0.6299
 3186SOL    HW213151   0.669   0.276   4.369  0.0654 -0.7810 -0.1031
 3187SOL     OW13152   3.948   0.447   7.605 -0.1958  0.1811  0.1017
 3187SOL    HW113153   3.978   0.386   7.673 -0.3554 -0.5946 -0.5159
 3187SOL    HW213154   4.022   0.506   7.591  0.8908 -1.3972 -1.0392
 3188SOL     OW13155   4.776   8.663  10.816  0.0033  0.0870  0.4647
 3188SOL    HW113156   4.796   8.733  10.754  1.3590  0.5280  1.3653
 3188SOL    HW213157   4.822   8.688  10.896 -1.1006 -0.8524  1.4236
 3189SOL     OW13158   5.536   8.663   4.344  0.1077 -0.0157 -0.3037
 3189SOL    HW113159   5.617   8.637   4.300  1.3263  1.0637  1.1723
 3189SOL    HW213160   5.543   8.625   4.431 -2.1649 -1.9576 -0.8489
 3190SOL     OW13161   3.301   7.198   4.317  0.6483  0.0602 -0.3248
 3190SOL    HW113162   3.389   7.178   4.349  0.2262 -0.4506  0.5501
 3190SOL    HW213163   3.306   7.182   4.222  1.8685  1.4369 -0.5189
 3191SOL     OW13164   3.768   7.102   5.541 -0.4370 -0.3409  0.0009
 3191SOL    HW113165   3.821   7.039   5.591 -0.9736 -0.5805  0.2677
 3191SOL    HW213166   3.810   7.105   5.455 -0.4460 -1.1194 -0.0379
 3192SOL     OW13167   6.286   5.851   9.621 -0.0347 -0.7692  0.0529
 3192SOL    HW113168   6.216   5.915   9.605 -0.8106 -0.8355  2.6801
 3192SOL    HW213169   6.355   5.902   9.664 -0.2240 -1.4778  1.2143
 3193SOL     OW13170   2.176   5.486   6.904 -0.0762  0.5409  0.3423
 3193SOL    HW113171   2.252   5.535   6.935  0.7078  0.2341 -1.0030
 3193SOL    HW213172   2.214   5.414   6.852 -1.2712  0.1073  0.0417
 3194SOL     OW13173  10.546   7.411   0.891  0.0946  0.0416  0.4589
 3194SOL    HW113174  10.591   7.390   0.809 -0.5881  1.9999 -0.4806
 3194SOL    HW213175  10.519   7.326   0.925  0.8709 -0.8770 -1.0647
 3195SOL     OW13176   5.362   4.713   0.998 -0.1436 -0.5769 -0.1541
 3195SOL    HW113177   5.367   4.630   0.951 -0.6374 -0.8140  0.2106
 3195SOL    HW213178   5.294   4.763   0.953 -0.0379 -0.4775 -0.2043
 3196SOL     OW13179   3.735   3.507   6.645 -0.4102 -0.4905 -0.1890
 3196SOL    HW113180   3.693   3.518   6.731 -1.1839  1.3834 -0.7564
 3196SOL    HW213181   3.748   3.596   6.613 -0.5383 -1.1482 -2.2220
 3197SOL     OW13182   4.789   7.701  10.861 -0.0860  0.0427  0.2614
 3197SOL    HW113183   4.748   7.787  10.876  0.4600  0.2391  0.6508
 3197SOL    HW213184   4.827   7.708  10.773 -0.1766  0.1454  0.2304
 3198SOL     OW13185   6.124   8.144   1.547  0.7107 -0.2134  0.3212
 3198SOL    HW113186   6.148   8.128   1.456 -1.7709  0.1978 -0.4853
 3198SOL    HW213187   6.074   8.225   1.545  0.2794 -0.3980  2.0048
 3199SOL     OW13188   1.797   8.120   7.798  0.6396 -0.0685  0.5066
 3199SOL    HW113189   1.824   8.205   7.833  0.7446  0.1076 -0.0051
 3199SOL    HW213190   1.726   8.092   7.856  0.3069  0.5687  0.4047
 3200SOL     OW13191   5.910   3.887   6.099  0.3338  0.5262 -0.6195
 3200SOL    HW113192   5.952   3.835   6.031 -0.8542  0.0803 -1.0373
 3200SOL    HW213193   5.977   3.951   6.125  1.3838 -0.3922 -0.9836
 3201SOL     OW13194   7.170   0.272   2.473  1.1325  0.1604 -0.4974
 3201SOL    HW113195   7.232   0.344   2.484 -2.2174  3.4043 -1.1063
 3201SOL    HW213196   7.176   0.249   2.380  1.4919  0.3421 -0.5202
 3202SOL     OW13197   8.690   5.407   4.336 -0.0731  0.7673  0.4313
 3202SOL    HW113198   8.603   5.368   4.321 -0.3356  2.1511 -2.2950
 3202SOL    HW213199   8.681   5.456   4.417 -1.8014  0.7176  0.3088
 3203SOL     OW13200   6.772   0.552   5.210  0.0182  0.1065 -0.1141
 3203SOL    HW113201   6.790   0.458   5.211  2.7487  0.5344  1.3034
 3203SOL    HW213202   6.830   0.586   5.141 -0.2460  0.8559  0.0285
 3204SOL     OW13203   8.506   2.654   3.222  0.4628 -0.3265  0.1066
 3204SOL    HW113204   8.424   2.608   3.240  0.4951 -0.7102 -0.6901
 3204SOL    HW213205   8.547   2.603   3.152  0.9353  0.4088 -0.1597
 3205SOL     OW13206   6.143   4.172   8.826 -0.6659 -0.4709  0.4563
 3205SOL    HW113207   6.093   4.226   8.765 -2.0707 -1.2304  0.8780
 3205SOL    HW213208   6.096   4.181   8.910 -0.7021 -1.9729  0.6342
 3206SOL     OW13209  10.946   7.591   9.814  0.1246  0.0752 -0.2398
 3206SOL    HW113210  11.040   7.592   9.835 -0.2555  1.3518  1.6000
 3206SOL    HW213211  10.921   7.499   9.822  1.0975 -0.2081 -0.2495
 3207SOL     OW13212   9.932   9.225   5.618  0.1210 -0.5965  0.5112
 3207SOL    HW113213   9.856   9.175   5.645  0.4549 -1.0348  0.6585
 3207SOL    HW213214   9.997   9.209   5.686 -0.0781  0.7979  1.0579
 3208SOL     OW13215   5.204  10.763   0.596  0.5211  0.2669  0.2861
 3208SOL    HW113216   5.195  10.697   0.528  1.7887 -0.4138  0.7445
 3208SOL    HW213217   5.298  10.766   0.614  0.1243 -0.3052  2.7232
 3209SOL     OW13218  10.300   5.437   4.488 -0.1243 -0.0815  0.3297
 3209SOL    HW113219  10.335   5.525   4.501 -0.3397  0.2042 -0.9420
 3209SOL    HW213220  10.205   5.449   4.485 -0.2359 -0.5417  1.3865
 3210SOL     OW13221   1.730   4.811  10.796 -0.4651  0.1381  0.3386
 3210SOL    HW113222   1.809   4.766  10.765 -1.0051 -0.0710 -0.7980
 3210SOL    HW213223   1.762   4.893  10.833  0.2304  0.4097 -0.8275
 3211SOL     OW13224   6.064   4.319   7.260 -0.4840  0.0797 -0.1689
 3211SOL    HW113225   6.153   4.342   7.236 -0.5380 -0.1267 -0.5704
 3211SOL    HW213226   6.069   4.229   7.291 -0.2400  0.6502  1.5957
 3212SOL     OW13227  10.374   9.709   0.085  0.1765 -0.1737 -0.2347
 3212SOL    HW113228  10.334   9.784   0.129  0.3616  0.2909 -0.8457
 3212SOL    HW213229  10.455   9.743   0.047  1.6988 -1.3032  1.7542
 3213SOL     OW13230   3.745   4.895   6.083 -0.5851  0.2566  0.1603
 3213SOL    HW113231   3.678   4.905   6.016  0.7896  0.8409 -1.1828
 3213SOL    HW213232   3.805   4.830   6.048 -0.0635  0.2745  1.0013
 3214SOL     OW13233   9.900   9.933   8.069  0.0568  0.1271 -0.8424
 3214SOL    HW113234   9.967   9.961   8.007  0.0377 -0.0423 -0.9392
 3214SOL    HW213235   9.931   9.966   8.154 -0.1030  0.6789 -0.9959
 3215SOL     OW13236   9.011   1.248   0.715  0.4602 -0.4924  0.0762
 3215SOL    HW113237   9.001   1.253   0.810  1.2105 -0.4362  0.1620
 3215SOL    HW213238   8.966   1.167   0.690 -0.1770 -0.2411  0.4127
 3216SOL     OW13239  11.042   5.378   3.951  0.5395  0.0739 -0.0390
 3216SOL    HW113240  10.985   5.329   4.011  1.7907 -1.9160 -0.3938
 3216SOL    HW213241  11.047   5.466   3.989 -1.4523 -0.1403  0.8525
 3217SOL     OW13242   4.750   3.875   2.053 -0.2238 -0.6551 -0.1337
 3217SOL    HW113243   4.659   3.897   2.072 -0.5173 -1.6958 -0.2475
 3217SOL    HW213244   4.769   3.921   1.971 -0.0856  0.9550  0.7776
 3218SOL     OW13245   7.973   5.064   5.346  0.4876 -0.3497  0.2995
 3218SOL    HW113246   8.041   5.005   5.378  0.1865 -0.7428  0.2367
 3218SOL    HW213247   7.891   5.022   5.373  0.2865  0.5665  1.1382
 3219SOL     OW13248   9.172   0.963   8.190 -0.7395  0.0973  0.0409
 3219SOL    HW113249   9.180   0.979   8.096 -1.8361  1.8082  0.1812
 3219SOL    HW213250   9.234   1.024   8.231  1.8325 -2.5964  0.4056
 3220SOL     OW13251   7.012  10.692   4.229 -0.5410 -0.4170  0.2819
 3220SOL    HW113252   6.936  10.708   4.173 -0.2102  1.6607  0.3578
 3220SOL    HW213253   7.033  10.778   4.267  0.2505 -1.4477  2.3207
 3221SOL     OW13254   1.402   1.273   0.364  0.6662  0.3293  0.0770
 3221SOL    HW113255   1.396   1.365   0.339 -0.1774  0.1204 -0.5331
 3221SOL    HW213256   1.369   1.270   0.453  0.7120  0.6181  0.1052
 3222SOL     OW13257   2.697   9.476   6.112 -0.1128  0.2114 -0.4042
 3222SOL    HW113258   2.715   9.561   6.152 -0.6609  0.5765 -0.9134
 3222SOL    HW213259   2.616   9.447   6.154 -1.2574  1.0629 -1.9135
 3223SOL     OW13260  10.868  10.444   9.034 -0.4414 -0.0606  0.2425
 3223SOL    HW113261  10.776  10.468   9.045 -0.2575  0.2832  1.0773
 3223SOL    HW213262  10.903  10.509   8.974 -0.3555  0.7799  1.1876
 3224SOL     OW13263   0.548   2.667   8.244 -0.2444  0.5908 -0.0924
 3224SOL    HW113264   0.486   2.688   8.174 -1.0856  2.0606  1.0293
 3224SOL    HW213265   0.497   2.615   8.306 -0.1283  1.0676  0.4159
 3225SOL     OW13266   4.830   5.698   4.755 -0.1288 -0.4232  0.2618
 3225SOL    HW113267   4.915   5.739   4.740  0.1120 -1.2249 -0.6117
 3225SOL    HW213268   4.849   5.605   4.764 -0.7279 -0.4384  1.7561
 3226SOL     OW13269   2.093   9.336   4.722 -0.0703 -0.1426 -0.0554
 3226SOL    HW113270   2.012   9.303   4.762 -0.2890 -0.6924 -0.9161
 3226SOL    HW213271   2.137   9.384   4.792 -1.1623  0.1942  0.4239
 3227SOL     OW13272   9.445   6.285   6.180 -0.1196 -0.2422  0.0004
 3227SOL    HW113273   9.474   6.265   6.091  2.6129 -2.2207  1.1804
 3227SOL    HW213274   9.485   6.217   6.235 -1.6008  0.9357  2.7857
 3228SOL     OW13275   7.039   4.737  10.683  0.2680  0.2575  0.1780
 3228SOL    HW113276   7.104   4.770  10.620 -0.3100  0.7693 -0.1570
 3228SOL    HW213277   6.993   4.669  10.635  0.3299  0.1286  0.3019
 3229SOL     OW13278   6.482   2.065   2.186 -0.3478 -0.3102  0.7663
 3229SOL    HW113279   6.461   2.082   2.278 -0.5175  1.6848  0.3850
 3229SOL    HW213280   6.403   2.090   2.138  0.5746  0.9989 -0.1193
 3230SOL     OW13281   9.573   1.811   5.022 -0.3798  0.3074  0.6527
 3230SOL    HW113282   9.575   1.839   5.113 -2.3744  2.1060  0.2241
 3230SOL    HW213283   9.511   1.871   4.980  0.5871 -0.3627 -1.9207
 3231SOL     OW13284   9.562   0.979   6.629  0.0275  0.0095 -0.6198
 3231SOL    HW113285   9.581   0.915   6.562 -0.0472 -1.3213  0.5795
 3231SOL    HW213286   9.602   0.944   6.709 -0.9367  0.9011  0.3023
 3232SOL     OW13287   5.665   2.396   6.394  0.2080  0.3312 -0.0473
 3232SOL    HW113288   5.571   2.383   6.405  0.4325 -0.9649  0.6139
 3232SOL    HW213289   5.676   2.490   6.386 -0.8681  0.8133  2.8838
 3233SOL     OW13290  11.058  10.458   5.652  0.6652 -0.2511 -0.6470
 3233SOL    HW113291  11.002  10.402   5.599  0.3955 -0.8950  0.2993
 3233SOL    HW213292  11.121  10.398   5.692  0.3292  0.1025  0.4411
 3234SOL     OW13293   3.064   4.317   3.409 -0.3876 -0.0190 -0.3542
 3234SOL    HW113294   3.092   4.229   3.435 -0.4928 -0.1996 -0.8356
 3234SOL    HW213295   3.146   4.364   3.393 -0.2821  0.5132  1.6062
 3235SOL     OW13296   1.099   2.110   1.499  0.1488  0.2318 -0.0981
 3235SOL    HW113297   1.175   2.109   1.440 -0.4594 -0.6325 -0.9112
 3235SOL    HW213298   1.117   2.041   1.563 -0.4756 -0.8320 -1.0295
 3236SOL     OW13299   2.996   1.689   1.839 -0.1932  0.1194  0.0982
 3236SOL    HW113300   2.935   1.662   1.770 -0.1617  1.5149 -0.5037
 3236SOL    HW213301   3.063   1.740   1.794 -0.2073  1.1154  1.1623
 3237SOL     OW13302   4.216   2.246   0.590  0.7694 -0.1951 -0.3238
 3237SOL    HW113303   4.191   2.313   0.526  0.9054 -0.4986 -0.6999
 3237SOL    HW213304   4.310   2.236   0.579  0.4756 -1.8856 -1.7096
 3238SOL     OW13305   3.612  10.253   4.647  0.2094  0.4640 -0.6298
 3238SOL    HW113306   3.592  10.333   4.598  0.0086  0.2834 -0.8440
 3238SOL    HW213307   3.586  10.182   4.589 -1.2632  0.2511  0.2374
 3239SOL     OW13308   8.485   0.901   4.782 -0.5697  0.8600 -0.4098
 3239SOL    HW113309   8.562   0.899   4.838  0.2803  2.2376 -1.4470
 3239SOL    HW213310   8.479   0.813   4.745  1.8756  1.2572 -2.0135
 3240SOL     OW13311   4.291   9.126   8.708  0.4238 -0.2962  0.3052
 3240SOL    HW113312   4.261   9.057   8.767 -2.2228  1.6283  1.4070
 3240SOL    HW213313   4.327   9.193   8.766  3.8888 -1.0241 -0.8015
 3241SOL     OW13314  10.386   6.854   6.997 -0.1267  0.6853  0.4471
 3241SOL    HW113315  10.445   6.780   7.009 -0.4218  0.6095  1.6274
 3241SOL    HW213316  10.433   6.928   7.036 -0.6989  0.6680  1.1917
 3242SOL     OW13317   1.601   6.971   2.172 -0.0979  0.3622  0.1856
 3242SOL    HW113318   1.687   6.965   2.130 -0.7754 -1.7325 -1.0678
 3242SOL    HW213319   1.618   6.961   2.265  1.0633  0.6573  0.0128
 3243SOL     OW13320   1.571  10.290   6.320 -0.6100  0.0206  0.1976
 3243SOL    HW113321   1.483  10.315   6.347  0.1002  1.7877  1.0618
 3243SOL    HW213322   1.585  10.339   6.238 -0.1835  0.3214  0.4455
 3244SOL     OW13323   9.396   5.353   5.700 -0.2021 -0.2472  0.1380
 3244SOL    HW113324   9.452   5.430   5.707  0.2068 -0.5018 -0.2952
 3244SOL    HW213325   9.370   5.350   5.608  2.7226 -2.6313 -0.7887
 3245SOL     OW13326   1.868   3.837   6.098 -0.4814  0.3325  0.5310
 3245SOL    HW113327   1.948   3.790   6.122 -0.9463  1.1652  4.4246
 3245SOL    HW213328   1.860   3.905   6.164 -1.8978  3.5143 -2.6161
 3246SOL     OW13329   9.313  10.372   6.769 -0.1952  0.0282  0.3361
 3246SOL    HW113330   9.329  10.448   6.712  0.5285 -0.4638 -0.1313
 3246SOL    HW213331   9.364  10.301   6.730  1.0224 -0.1178  2.0798
 3247SOL     OW13332  10.392   5.933   3.519 -0.0591 -0.1678  0.1561
 3247SOL    HW113333  10.377   5.900   3.431 -1.4362  1.0956 -0.1047
 3247SOL    HW213334  10.450   6.008   3.507 -1.3949  0.8900  0.1471
 3248SOL     OW13335  10.397   3.771   3.886 -0.1007  0.0930 -0.1505
 3248SOL    HW113336  10.440   3.852   3.858 -0.9112  0.0253 -1.7523
 3248SOL    HW213337  10.430   3.705   3.826  0.4614 -0.7555  1.0708
 3249SOL     OW13338   9.336   1.522   2.017  0.2562  0.5085 -0.2506
 3249SOL    HW113339   9.360   1.602   1.971 -1.7643  1.7916  0.7966
 3249SOL    HW213340   9.251   1.498   1.980  0.3162 -0.5441  0.2429
 3250SOL     OW13341   0.267   2.479   5.170  0.9380  0.4896 -0.2578
 3250SOL    HW113342   0.235   2.499   5.258  1.5099 -0.1260  0.0994
 3250SOL    HW213343   0.199   2.425   5.131  1.7886 -1.4028  0.7469
 3251SOL     OW13344   5.373   6.297   2.573 -0.5581 -0.0276  0.1705
 3251SOL    HW113345   5.382   6.349   2.493 -0.1436  0.5687  0.5984
 3251SOL    HW213346   5.449   6.321   2.626 -0.6310 -0.6996  0.5896
 3252SOL     OW13347  10.467   9.047   5.176 -0.9416  0.0789 -0.0378
 3252SOL    HW113348  10.511   9.024   5.094  0.0687 -0.4941  0.6433
 3252SOL    HW213349  10.476   9.142   5.182 -0.7497  0.0907 -0.4448
 3253SOL     OW13350   1.288  10.725   3.884  0.0070 -0.1493 -0.6044
 3253SOL    HW113351   1.273  10.649   3.940  1.6812  0.9460  1.4658
 3253SOL    HW213352   1.369  10.704   3.837  0.0043  0.0105 -0.6809
 3254SOL     OW13353   3.403  10.169   0.537  0.0201  0.1499 -0.2691
 3254SOL    HW113354   3.328  10.161   0.479 -0.1077 -0.0335 -0.0774
 3254SOL    HW213355   3.445  10.083   0.535 -0.9375 -0.3754  1.2146
 3255SOL     OW13356   6.096   7.189   9.873 -0.3275  0.2300 -0.2142
 3255SOL    HW113357   6.106   7.266   9.931  0.3466 -0.1529  0.1955
 3255SOL    HW213358   6.160   7.204   9.803  0.9450 -0.7002  0.7094
 3256SOL     OW13359   8.948  10.402   6.003 -0.1926  0.2421  0.1311
 3256SOL    HW113360   8.856  10.382   6.023  0.0257 -0.0095  0.9367
 3256SOL    HW213361   8.946  10.436   5.914 -1.0965  0.4150  0.2014
 3257SOL     OW13362   3.588   4.599   6.173  0.3124  0.1312 -0.6555
 3257SOL    HW113363   3.553   4.568   6.089  0.7661  1.5654 -1.3986
 3257SOL    HW213364   3.683   4.594   6.163  0.3677 -0.1107 -0.0491
 3258SOL     OW13365   4.883   9.353   6.734  0.3056 -0.0671  0.1272
 3258SOL    HW113366   4.837   9.293   6.794  0.5703 -0.8120 -0.4056
 3258SOL    HW213367   4.938   9.296   6.681  0.7582  0.6841 -0.2197
 3259SOL     OW13368   8.305   3.879   0.053  0.2781 -0.2880  0.3290
 3259SOL    HW113369   8.394   3.891   0.086  0.1078  1.9760  0.1256
 3259SOL    HW213370   8.249   3.890   0.130  0.0963  0.1282  0.1384
 3260SOL     OW13371   6.356   4.755   1.866  0.1459  0.3212 -0.4709
 3260SOL    HW113372   6.344   4.743   1.960 -1.4225  0.6097 -0.5969
 3260SOL    HW213373   6.419   4.827   1.858  0.9847 -0.3133  0.3400
 3261SOL     OW13374   0.494   0.172   4.651  0.5598  0.3145 -0.1576
 3261SOL    HW113375   0.506   0.089   4.696  0.8713  0.3638 -0.1490
 3261SOL    HW213376   0.495   0.238   4.721 -1.2744  0.2003  0.0148
 3262SOL     OW13377   1.346   8.800   0.949  0.1851  0.0808  0.2831
 3262SOL    HW113378   1.413   8.801   0.881  1.0611 -1.5484  1.0443
 3262SOL    HW213379   1.271   8.756   0.910  0.4585 -0.2847  0.1681
 3263SOL     OW13380  10.591   9.527   5.706  0.2333 -0.5673 -0.3065
 3263SOL    HW113381  10.552   9.613   5.690 -0.4968 -0.8077  0.1244
 3263SOL    HW213382  10.585   9.516   5.801  2.3995 -0.1367 -0.0564
 3264SOL     OW13383   5.615   9.197   6.260  0.6916  0.1903  0.1811
 3264SOL    HW113384   5.591   9.105   6.275  1.1060 -0.1011 -0.8699
 3264SOL    HW213385   5.601   9.211   6.166  0.0317  1.3904  0.4390
 3265SOL     OW13386   1.472   7.155   7.703 -0.2494  0.0734  0.7665
 3265SOL    HW113387   1.457   7.061   7.686 -1.0606  0.0490  1.5572
 3265SOL    HW213388   1.411   7.199   7.643  0.9157  0.1497 -0.4146
 3266SOL     OW13389   3.897   0.780   1.110 -0.3632  0.0900  0.2287
 3266SOL    HW113390   3.867   0.759   1.022 -0.1607  2.4782 -0.4763
 3266SOL    HW213391   3.896   0.696   1.156 -1.7842 -0.9984 -1.6309
 3267SOL     OW13392   1.934   8.789   1.110 -0.0224  0.3114 -0.0979
 3267SOL    HW113393   1.997   8.849   1.149  1.0264 -1.2490  0.7364
 3267SOL    HW213394   1.956   8.788   1.017  0.2777  0.8017 -0.0364
 3268SOL     OW13395  11.067  10.076   7.455 -0.3391 -0.0130  0.1689
 3268SOL    HW113396  11.116  10.127   7.518 -1.6230 -0.4072  1.5438
 3268SOL    HW213397  11.009  10.021   7.508 -2.6922  0.8604 -1.3258
 3269SOL     OW13398   1.338   3.508   7.805 -0.1337 -0.0181  0.4656
 3269SOL    HW113399   1.382   3.525   7.888 -0.8374  0.2813  0.7849
 3269SOL    HW213400   1.292   3.425   7.819 -0.8710  0.4126  0.6384
 3270SOL     OW13401   3.473   7.164   9.896 -0.7697  0.2479  0.5808
 3270SOL    HW113402   3.416   7.125   9.829 -1.2946 -0.4598  1.4277
 3270SOL    HW213403   3.495   7.250   9.860 -1.0183 -0.1215 -0.5166
 3271SOL     OW13404   0.266  10.056  10.919 -0.1486 -0.6785 -0.2045
 3271SOL    HW113405   0.199  10.007  10.872 -1.8464  2.1008 -0.9437
 3271SOL    HW213406   0.247  10.148  10.899  0.8888  0.5306  3.5052
 3272SOL     OW13407  10.354  10.054   0.560 -0.1431  0.5705 -0.6692
 3272SOL    HW113408  10.403  10.111   0.501  0.3608  1.4238  0.5376
 3272SOL    HW213409  10.417   9.989   0.589  0.0847  1.1930  0.2634
 3273SOL     OW13410   1.991   3.157   2.082  0.3845 -0.0175 -0.0102
 3273SOL    HW113411   2.079   3.123   2.065  0.9808  1.1688  0.5521
 3273SOL    HW213412   1.948   3.158   1.997  1.4222  0.7252 -0.5485
 3274SOL     OW13413   5.188   3.520   4.271  0.1966  0.0146 -0.3778
 3274SOL    HW113414   5.274   3.556   4.248 -0.5886 -0.0760 -4.1374
 3274SOL    HW213415   5.191   3.429   4.240 -1.0959 -0.1053 -0.1953
 3275SOL     OW13416   3.878   0.750   7.464 -0.4574 -0.4956  0.2492
 3275SOL    HW113417   3.822   0.699   7.522  0.7065 -1.8357  0.2647
 3275SOL    HW213418   3.908   0.687   7.399  0.2712  0.3958 -0.3009
 3276SOL     OW13419   3.180   9.820   5.123  0.2946  0.1623  0.0470
 3276SOL    HW113420   3.130   9.738   5.127  0.1074  0.2824  0.1968
 3276SOL    HW213421   3.246   9.805   5.056 -0.7302  0.4281 -1.0507
 3277SOL     OW13422   7.186   2.772   9.587  0.3356 -0.4318  0.0074
 3277SOL    HW113423   7.101   2.797   9.550 -0.8305 -2.2107  1.2899
 3277SOL    HW213424   7.196   2.828   9.664 -0.1006 -0.7925  0.3332
 3278SOL     OW13425  11.013   9.150  10.526 -0.8737 -0.4214  0.2383
 3278SOL    HW113426  11.037   9.179  10.438  1.5061 -2.3924  0.1010
 3278SOL    HW213427  10.941   9.089  10.511 -1.3353  0.2168 -0.1968
 3279SOL     OW13428   3.414  10.129   3.232 -0.2154  0.7257  0.1358
 3279SOL    HW113429   3.362  10.049   3.236  1.9402 -0.8487 -1.1272
 3279SOL    HW213430   3.471  10.125   3.310  0.2876  0.7189 -0.2264
 3280SOL     OW13431   4.042   2.681   4.576  0.7508  0.0711  0.1402
 3280SOL    HW113432   3.962   2.717   4.613  0.7056 -0.3898  0.5062
 3280SOL    HW213433   4.015   2.596   4.541  1.0381  0.0014  0.0883
 3281SOL     OW13434   4.575   4.971   2.131  0.5009  0.1997 -0.0907
 3281SOL    HW113435   4.547   4.980   2.222  0.5860 -0.8582  0.0589
 3281SOL    HW213436   4.573   5.060   2.096 -0.3585  0.5076  0.7004
 3282SOL     OW13437  11.099   9.992   9.310 -0.4446 -0.5589  0.1950
 3282SOL    HW113438  11.063  10.073   9.274  0.6040  0.2754  0.9871
 3282SOL    HW213439  11.035   9.925   9.284 -0.5401  0.2312 -1.8260
 3283SOL     OW13440   1.755   7.340   8.695  0.4612 -0.0781  0.5007
 3283SOL    HW113441   1.733   7.433   8.705  0.3754 -0.1424  0.9198
 3283SOL    HW213442   1.778   7.331   8.603  0.4846  0.3638  0.4603
 3284SOL     OW13443   9.743   9.848   1.204  0.5953  0.7962 -0.3994
 3284SOL    HW113444   9.785   9.934   1.209  0.3036  1.1791 -3.0525
 3284SOL    HW213445   9.798   9.797   1.145 -0.6466  0.0667 -0.9765
 3285SOL     OW13446   5.060   9.763   4.988 -0.4756 -0.3313  0.3059
 3285SOL    HW113447   5.044   9.769   4.894  0.1416 -1.3151  0.1357
 3285SOL    HW213448   5.104   9.679   5.001  0.6312  0.3646  1.3100
 3286SOL     OW13449   3.325   4.531  10.504 -0.2498  0.1670 -0.0560
 3286SOL    HW113450   3.368   4.485  10.576 -1.5618  0.1935  0.7544
 3286SOL    HW213451   3.392   4.592  10.472  1.0499 -1.2723 -0.2452
 3287SOL     OW13452   6.927   9.696   5.723 -0.3969 -0.3942  0.3245
 3287SOL    HW113453   6.936   9.791   5.731  1.9142 -0.4410 -0.8731
 3287SOL    HW213454   6.946   9.662   5.810  3.0025  0.0956 -0.1006
 3288SOL     OW13455  10.116   6.882   4.805  0.1351 -0.0320 -0.1068
 3288SOL    HW113456  10.131   6.942   4.878 -0.2218 -0.3262  0.2129
 3288SOL    HW213457  10.105   6.938   4.729 -1.0145  0.3602  0.3241
 3289SOL     OW13458   7.033   7.216   5.201  0.7899 -0.0016  0.0446
 3289SOL    HW113459   7.096   7.237   5.270  0.8122  1.7113 -0.4621
 3289SOL    HW213460   7.031   7.294   5.146  0.5083 -1.2014 -1.7083
 3290SOL     OW13461  11.034   7.319   0.111  0.4807  0.7734 -0.2316
 3290SOL    HW113462  11.071   7.259   0.046  1.5650  0.5275  0.6034
 3290SOL    HW213463  11.074   7.294   0.194 -0.9964  0.9903  0.5823
 3291SOL     OW13464   5.677   1.506   3.698 -0.1930  0.1338 -0.6645
 3291SOL    HW113465   5.744   1.488   3.632 -0.1175 -0.1774 -0.5035
 3291SOL    HW213466   5.725   1.511   3.780 -0.1403  1.5378 -0.7537
 3292SOL     OW13467   2.847   5.070   0.918 -0.0895  0.5215 -0.7452
 3292SOL    HW113468   2.858   4.989   0.968 -0.7314  0.3246 -0.9105
 3292SOL    HW213469   2.915   5.067   0.851  0.5155  0.5902 -0.1571
 3293SOL     OW13470   6.737   6.482   1.034  0.5307 -0.0308 -0.2101
 3293SOL    HW113471   6.657   6.466   0.984  1.6694 -0.8553 -1.8849
 3293SOL    HW213472   6.768   6.395   1.059  1.6630  0.1360 -0.9103
 3294SOL     OW13473   6.102   0.521   6.622  0.5040 -0.0621  0.1894
 3294SOL    HW113474   6.035   0.496   6.558  0.9153 -0.5375 -0.0666
 3294SOL    HW213475   6.053   0.541   6.702  0.0333 -0.0914 -0.0863
 3295SOL     OW13476   4.375   6.589   4.081  0.0454  0.1699 -0.1088
 3295SOL    HW113477   4.311   6.563   4.148  1.5598  0.4331  1.5315
 3295SOL    HW213478   4.455   6.542   4.105  0.9344  1.1355 -1.0886
 3296SOL     OW13479   8.357   1.643   7.064 -0.3307  0.4460 -0.1369
 3296SOL    HW113480   8.384   1.719   7.012  0.5326  0.6211  0.5296
 3296SOL    HW213481   8.404   1.569   7.025  2.0874  0.9140  1.6704
 3297SOL     OW13482   8.681   0.884   0.880 -0.4038  0.0575 -0.2906
 3297SOL    HW113483   8.603   0.922   0.840 -0.0494  1.4368  0.2754
 3297SOL    HW213484   8.682   0.917   0.970  3.0067  3.6783 -1.3751
 3298SOL     OW13485   1.170   2.256   9.995 -0.2436  0.1468 -0.2315
 3298SOL    HW113486   1.120   2.217   9.924 -0.9645  0.1338  0.2739
 3298SOL    HW213487   1.123   2.230  10.075  0.5368  0.1763  0.2495
 3299SOL     OW13488   8.612   4.091   5.127  0.0458  0.4704 -0.3820
 3299SOL    HW113489   8.676   4.154   5.162 -0.3514 -0.0996  1.4292
 3299SOL    HW213490   8.665   4.016   5.100  0.1688 -0.0784  1.2876
 3300SOL     OW13491   2.428   4.385   0.151  0.1513 -0.4933  0.1195
 3300SOL    HW113492   2.409   4.338   0.070 -2.3766  2.0416 -0.9080
 3300SOL    HW213493   2.519   4.363   0.171  0.1547 -3.0105 -2.1066
 3301SOL     OW13494   9.638  10.830  10.054  0.0815 -0.2853  0.8022
 3301SOL    HW113495   9.663  10.850  10.144  0.5845  0.5387  0.4945
 3301SOL    HW213496   9.686  10.895  10.001 -0.2468 -0.7230 -0.0484
 3302SOL     OW13497   1.862   6.606  10.874 -0.3634  0.0480 -0.7994
 3302SOL    HW113498   1.842   6.514  10.858  0.9705 -0.5930  0.8656
 3302SOL    HW213499   1.878   6.643  10.787  2.0289 -2.0496 -1.3663
 3303SOL     OW13500   0.579   6.992   0.042 -0.6233 -0.0286  0.1818
 3303SOL    HW113501   0.578   6.952   0.129 -1.4618 -2.6408 -0.9338
 3303SOL    HW213502   0.610   6.923  -0.016  1.5608  2.1416 -1.4633
 3304SOL     OW13503   7.404   3.786   3.695 -0.1876 -0.4302  0.3270
 3304SOL    HW113504   7.343   3.745   3.756  0.0157 -2.0938 -0.5420
 3304SOL    HW213505   7.461   3.715   3.667 -1.1256 -0.0742 -2.8363
 3305SOL     OW13506   3.704   9.794   6.401 -0.5909 -0.0902  0.0381
 3305SOL    HW113507   3.771   9.823   6.339 -0.1853  0.5062  0.7436
 3305SOL    HW213508   3.680   9.706   6.371 -2.2563  1.0956 -2.5176
 3306SOL     OW13509   9.746  10.953   8.447 -0.2380  0.1233  0.1768
 3306SOL    HW113510   9.787  10.887   8.503 -0.0818  0.0254 -0.0481
 3306SOL    HW213511   9.780  10.933   8.359 -0.5537  0.2135  0.0354
 3307SOL     OW13512   8.514   7.796   3.045  0.5034  0.0115 -0.5123
 3307SOL    HW113513   8.491   7.849   2.968  1.0288  0.8797 -0.0935
 3307SOL    HW213514   8.482   7.847   3.120  2.5659  0.6540  0.0124
 3308SOL     OW13515   7.502   9.803   8.449  0.5928 -0.2443 -0.1776
 3308SOL    HW113516   7.537   9.757   8.373  0.8303 -1.0112  0.3789
 3308SOL    HW213517   7.410   9.818   8.428  0.6125 -0.6196 -0.5380
 3309SOL     OW13518   7.622   2.318   2.562  0.0676 -0.7935 -0.1161
 3309SOL    HW113519   7.592   2.381   2.627  1.0225  0.9907 -1.3364
 3309SOL    HW213520   7.705   2.354   2.529 -0.8753 -1.0502 -3.0529
 3310SOL     OW13521   3.708   1.493   5.447  0.2048  0.2773  0.1718
 3310SOL    HW113522   3.686   1.531   5.362 -0.4876 -2.3532 -0.9555
 3310SOL    HW213523   3.803   1.479   5.443 -0.0114 -1.1175 -0.8152
 3311SOL     OW13524   0.388   8.008   5.098 -0.2693 -0.0683  0.2389
 3311SOL    HW113525   0.446   8.020   5.174 -0.8736 -1.3448  0.9332
 3311SOL    HW213526   0.301   7.996   5.136 -0.8710  0.9559 -0.7566
 3312SOL     OW13527   7.783   6.279   4.196 -0.2261 -0.7359  0.1747
 3312SOL    HW113528   7.815   6.260   4.284  0.7842 -2.4332 -0.5057
 3312SOL    HW213529   7.766   6.373   4.196  1.0538 -0.4657  1.7653
 3313SOL     OW13530   2.483   8.673   2.298  0.2285 -0.0344 -0.4829
 3313SOL    HW113531   2.400   8.713   2.323 -0.8482 -0.9881 -2.2823
 3313SOL    HW213532   2.548   8.743   2.308 -0.2716  0.0974  3.2471
 3314SOL     OW13533   0.796   8.591   5.267 -0.1743  0.0712 -0.1359
 3314SOL    HW113534   0.857   8.617   5.198  0.6023 -0.6321  0.2637
 3314SOL    HW213535   0.787   8.669   5.322 -0.0791  0.3567 -0.5258
 3315SOL     OW13536   2.021   6.294   1.573 -0.2982 -0.2333 -0.4469
 3315SOL    HW113537   2.068   6.250   1.643  2.4519 -0.4368 -2.3091
 3315SOL    HW213538   2.006   6.227   1.507  0.2110  0.6700 -1.5164
 3316SOL     OW13539   5.963   5.673   9.254 -0.1117  0.3925 -0.5552
 3316SOL    HW113540   5.986   5.764   9.274 -0.2008  0.3431 -0.2092
 3316SOL    HW213541   5.957   5.631   9.340  1.5553 -0.3543 -0.7695
 3317SOL     OW13542   1.581   5.558   6.667  0.1881 -0.8934  0.6318
 3317SOL    HW113543   1.555   5.635   6.718 -0.1918 -1.6234  1.5566
 3317SOL    HW213544   1.522   5.559   6.591 -0.6549 -0.9612  1.2769
 3318SOL     OW13545   8.980   6.218   8.065  0.2068 -0.5940  0.0575
 3318SOL    HW113546   8.907   6.271   8.033 -1.0288 -2.2034  0.1101
 3318SOL    HW213547   8.994   6.152   7.998  0.7784 -1.0806  0.6412
 3319SOL     OW13548   9.577   9.356   8.016 -0.2401  0.4065  0.0284
 3319SOL    HW113549   9.598   9.293   7.947  0.7315  1.2274 -0.4641
 3319SOL    HW213550   9.486   9.380   8.000 -0.2242  0.0903 -0.5669
 3320SOL     OW13551  10.996   4.363   0.993 -0.1114  0.6702  0.7122
 3320SOL    HW113552  10.949   4.347   1.075 -2.7105  1.1333 -0.5769
 3320SOL    HW213553  11.016   4.275   0.960 -1.0907  0.4124  0.7675
 3321SOL     OW13554  10.591  10.502   0.666 -0.5325 -0.0373  0.7682
 3321SOL    HW113555  10.665  10.563   0.660 -1.5012  1.0260 -1.6605
 3321SOL    HW213556  10.626  10.418   0.637 -0.1287  0.3166  0.2194
 3322SOL     OW13557   7.190   3.744   3.887  0.8904 -0.7501  0.4065
 3322SOL    HW113558   7.208   3.775   3.976 -0.8107 -0.0366  0.5356
 3322SOL    HW213559   7.119   3.680   3.898 -1.0546  1.1171 -0.6233
 3323SOL     OW13560   1.847   5.197   7.826  0.1391  0.0273 -0.5855
 3323SOL    HW113561   1.769   5.163   7.783  0.6460 -0.5264 -1.0881
 3323SOL    HW213562   1.846   5.158   7.913  0.3064 -0.6671 -0.8904
 3324SOL     OW13563   7.081   2.798   1.577  0.6826 -0.1677  0.0619
 3324SOL    HW113564   7.132   2.874   1.549 -0.4103  1.0018  1.1197
 3324SOL    HW213565   7.138   2.723   1.559  3.7524  1.1660  3.1091
 3325SOL     OW13566   3.978   1.842   0.230 -0.0336 -0.5342 -0.3317
 3325SOL    HW113567   4.046   1.858   0.164 -0.1838 -0.8256 -0.5607
 3325SOL    HW213568   3.963   1.927   0.271  0.6233 -0.5091 -0.1358
 3326SOL     OW13569   0.013   0.989   5.826  0.0289 -0.0033 -0.0576
 3326SOL    HW113570   0.079   0.952   5.767 -1.4034  0.0460 -1.7651
 3326SOL    HW213571  -0.067   0.941   5.806 -1.1774  1.9660 -0.2001
 3327SOL     OW13572   2.327  10.038   7.166 -0.5513 -0.2007  0.3897
 3327SOL    HW113573   2.347  10.127   7.197  0.4857 -0.2596 -0.0643
 3327SOL    HW213574   2.392   9.983   7.210 -0.1655 -0.5114 -0.5511
 3328SOL     OW13575   7.727   1.941   5.577  0.0512 -0.0452  0.0868
 3328SOL    HW113576   7.749   1.937   5.670  1.1717 -0.3945 -0.1761
 3328SOL    HW213577   7.755   1.857   5.542  0.6204  0.4765 -0.7550
 3329SOL     OW13578   7.392   2.888   2.676  0.5051  0.6521 -0.0098
 3329SOL    HW113579   7.409   2.800   2.708  0.3325  0.4540 -0.4588
 3329SOL    HW213580   7.296   2.895   2.673  0.5184  0.7950 -0.1376
 3330SOL     OW13581   1.753   8.495   7.494 -0.1746  0.3062 -0.3376
 3330SOL    HW113582   1.842   8.503   7.528 -0.0090  0.1022 -0.7239
 3330SOL    HW213583   1.715   8.422   7.544 -0.5932  1.2714  0.8168
 3331SOL     OW13584   1.937   1.992   7.439 -0.0656  0.4538 -0.3834
 3331SOL    HW113585   1.981   1.940   7.372  0.2201  1.0584 -0.6801
 3331SOL    HW213586   1.926   2.078   7.399 -2.3149  0.1105 -0.6286
 3332SOL     OW13587   3.955   2.287   9.183 -0.3042 -0.1494  0.2898
 3332SOL    HW113588   3.891   2.332   9.239  0.1032  1.0929 -0.1898
 3332SOL    HW213589   3.902   2.243   9.117 -0.7005  1.1608 -0.3156
 3333SOL     OW13590   0.815   5.605   2.646 -0.1397 -0.7688  0.2256
 3333SOL    HW113591   0.837   5.692   2.613  1.0936 -1.2349 -0.2335
 3333SOL    HW213592   0.858   5.600   2.731  3.2686 -2.3122 -1.3999
 3334SOL     OW13593  10.940   5.169   9.128  0.0049  0.4059  0.6715
 3334SOL    HW113594  10.864   5.155   9.071 -0.0654 -0.3336  0.9358
 3334SOL    HW213595  10.919   5.250   9.176 -0.1475  0.7700 -0.0028
 3335SOL     OW13596  10.365   4.640  10.024 -0.4283 -0.2312 -0.5232
 3335SOL    HW113597  10.319   4.566  10.063  0.8180 -0.4355  0.6116
 3335SOL    HW213598  10.368   4.620   9.930 -1.6567 -0.7332 -0.4690
 3336SOL     OW13599   4.522   2.703   4.269 -0.0491  0.2459 -0.2747
 3336SOL    HW113600   4.459   2.631   4.266  1.1602 -0.8541 -0.1076
 3336SOL    HW213601   4.482   2.767   4.328  0.1974 -1.6763  2.1945
 3337SOL     OW13602  10.130  11.074   4.993 -0.1184 -0.0568  0.4033
 3337SOL    HW113603  10.140  11.053   4.900 -3.5252  0.3344 -0.1585
 3337SOL    HW213604  10.064  11.013   5.026  0.6719  0.1154  2.5000
 3338SOL     OW13605   7.165   5.826   0.126 -0.3535 -0.4180 -0.5416
 3338SOL    HW113606   7.116   5.882   0.066 -0.2727  0.4857  0.2148
 3338SOL    HW213607   7.222   5.886   0.175 -1.7436 -0.8261  1.7509
 3339SOL     OW13608   8.386   8.149   2.287  0.1006 -0.2785 -0.1756
 3339SOL    HW113609   8.321   8.211   2.321  0.3795 -0.9369  1.7051
 3339SOL    HW213610   8.345   8.063   2.296  1.5036 -0.8019  1.9582
 3340SOL     OW13611   1.030   3.316   0.937  0.0280 -0.2650  0.3879
 3340SOL    HW113612   1.082   3.360   1.004  0.5743 -0.5701  0.1685
 3340SOL    HW213613   0.988   3.387   0.888 -1.2317 -0.0598  1.7138
 3341SOL     OW13614   4.371   5.583   0.404 -0.0595  0.1028 -0.0575
 3341SOL    HW113615   4.441   5.525   0.433  0.8491  0.0439 -2.1795
 3341SOL    HW213616   4.297   5.525   0.385  0.0331 -0.0727  0.1154
 3342SOL     OW13617   6.137   5.136   5.905 -0.8201  0.5108  0.2591
 3342SOL    HW113618   6.184   5.117   5.824 -0.2216  0.2956  0.6538
 3342SOL    HW213619   6.070   5.199   5.879 -0.3278  0.8109 -0.3121
 3343SOL     OW13620   1.235  10.871   9.080  0.2582  0.4223  0.3262
 3343SOL    HW113621   1.175  10.811   9.036  0.2200 -0.3737  1.4433
 3343SOL    HW213622   1.193  10.890   9.164  0.2416  2.0664 -0.0205
 3344SOL     OW13623  10.251   0.477   3.268 -0.1534 -0.1880  0.6900
 3344SOL    HW113624  10.174   0.453   3.319  0.2332 -0.6215  1.0736
 3344SOL    HW213625  10.277   0.396   3.224 -0.8221  0.2969 -0.6765
 3345SOL     OW13626   7.673  10.021   0.527  0.9317 -0.0249 -0.1326
 3345SOL    HW113627   7.768  10.009   0.528  1.1373  1.4573  0.0903
 3345SOL    HW213628   7.653  10.051   0.438  0.6274 -0.5932 -0.2613
 3346SOL     OW13629   7.722   4.963   9.506  0.3148  0.5430  0.5617
 3346SOL    HW113630   7.797   4.978   9.563  0.2847  0.0804  0.7221
 3346SOL    HW213631   7.731   5.030   9.438  0.9765  0.3791  0.4770
 3347SOL     OW13632   7.940   5.414  10.100 -0.1240 -0.5205  0.6017
 3347SOL    HW113633   7.988   5.446  10.023  0.0733  0.6832  1.2084
 3347SOL    HW213634   7.926   5.492  10.154 -1.9671 -1.0070  0.8789
 3348SOL     OW13635   5.371   8.187   7.834  0.5528  0.0289 -0.2340
 3348SOL    HW113636   5.416   8.103   7.839  0.6857 -0.0382 -1.8394
 3348SOL    HW213637   5.298   8.170   7.774  0.7767  1.1257 -0.8402
 3349SOL     OW13638   5.276   1.365   0.746 -0.3726  0.7295 -0.4128
 3349SOL    HW113639   5.362   1.329   0.724  0.4963  2.0080  0.6659
 3349SOL    HW213640   5.295   1.453   0.779 -2.2641  1.6637 -1.6477
 3350SOL     OW13641   7.389   2.639   0.983  0.6738 -0.1284 -0.0197
 3350SOL    HW113642   7.367   2.551   0.952 -1.3421  0.0488  0.8021
 3350SOL    HW213643   7.344   2.697   0.922  0.0156  0.2703  0.8234
 3351SOL     OW13644   9.421   2.631   0.867 -0.3511  0.2474  0.2047
 3351SOL    HW113645   9.378   2.658   0.786  0.0825  1.0622  0.2349
 3351SOL    HW213646   9.501   2.683   0.870  1.0398 -1.7476 -0.2257
 3352SOL     OW13647   4.004   4.386   5.821 -0.5019 -0.2632 -0.3224
 3352SOL    HW113648   4.027   4.300   5.788  1.1085 -0.3409  0.8610
 3352SOL    HW213649   3.909   4.387   5.824 -0.5440 -2.2376  0.2302
 3353SOL     OW13650   8.283   6.614   3.588 -0.0905 -0.6200  0.0204
 3353SOL    HW113651   8.282   6.697   3.635  0.1166 -0.9253  0.5690
 3353SOL    HW213652   8.309   6.549   3.653  0.5513 -1.0007 -0.5923
 3354SOL     OW13653   7.535   0.964   1.147  0.3908 -0.5098 -0.1920
 3354SOL    HW113654   7.559   1.057   1.147  1.2133 -0.6959 -1.5009
 3354SOL    HW213655   7.476   0.955   1.221  0.4894  1.0120  0.1128
 3355SOL     OW13656   8.135   7.742   1.482  0.5490  0.0217  0.0604
 3355SOL    HW113657   8.065   7.688   1.520  0.1007  0.3532 -0.2858
 3355SOL    HW213658   8.197   7.754   1.554 -0.2843  0.6286  0.6978
 3356SOL     OW13659   3.454   1.895   2.009  0.0285  0.4546 -0.0403
 3356SOL    HW113660   3.526   1.850   2.054  0.8787  2.8705  1.1301
 3356SOL    HW213661   3.379   1.838   2.022  1.4038 -1.5227 -0.1992
 3357SOL     OW13662   5.751   0.463   2.216  0.2020 -0.2382  0.3701
 3357SOL    HW113663   5.755   0.537   2.155  1.6519  0.8560  1.6938
 3357SOL    HW213664   5.837   0.461   2.257 -0.2335 -1.8871  1.2984
 3358SOL     OW13665   7.397   4.755   2.862  0.9751 -0.5289 -0.1637
 3358SOL    HW113666   7.446   4.763   2.780  0.6076  0.3952 -0.3134
 3358SOL    HW213667   7.383   4.846   2.890 -0.0527 -0.7929  0.2212
 3359SOL     OW13668   4.181   7.976   0.810 -0.4936 -0.0990 -0.1104
 3359SOL    HW113669   4.256   8.020   0.769 -0.2933 -0.1407  0.1994
 3359SOL    HW213670   4.105   8.028   0.785 -0.4731 -0.5550 -1.1473
 3360SOL     OW13671   0.092   1.800   3.261 -0.3624  0.0076 -0.4996
 3360SOL    HW113672   0.167   1.836   3.213 -1.0394  1.1474 -0.7450
 3360SOL    HW213673   0.044   1.878   3.291 -0.5494 -0.6884  1.0925
 3361SOL     OW13674   7.343   4.796  10.172  0.3949 -0.7130  0.0689
 3361SOL    HW113675   7.402   4.758  10.108  0.2722  1.0078 -1.1654
 3361SOL    HW213676   7.255   4.782  10.135  0.2607 -0.5122  0.3050
 3362SOL     OW13677   5.254   2.600   6.759  0.7515  0.7083  0.6307
 3362SOL    HW113678   5.330   2.598   6.701 -0.8812 -0.7865 -1.5993
 3362SOL    HW213679   5.195   2.665   6.721  0.1667  0.6188  1.3421
 3363SOL     OW13680   9.012   2.753   3.174 -0.6286  0.5038  0.0211
 3363SOL    HW113681   9.098   2.793   3.161  0.0517 -0.8279  0.2584
 3363SOL    HW213682   9.031   2.668   3.213 -1.9741 -0.5004 -1.4213
 3364SOL     OW13683   8.913   5.602  10.984  0.4722 -0.1921 -0.1673
 3364SOL    HW113684   8.957   5.622  10.901 -0.0694  0.0551 -0.3984
 3364SOL    HW213685   8.948   5.667  11.046  2.0342 -1.3279  0.2095
 3365SOL     OW13686   3.221   6.282   2.315  0.2568 -0.2723 -0.0392
 3365SOL    HW113687   3.309   6.278   2.278  0.2877 -2.2895  0.1706
 3365SOL    HW213688   3.171   6.336   2.253  0.8379 -1.8253 -1.9317
 3366SOL     OW13689   6.596   3.868   5.612  0.3091 -0.2589 -0.3916
 3366SOL    HW113690   6.533   3.934   5.582  0.8501  1.3019  1.6906
 3366SOL    HW213691   6.682   3.907   5.595  0.6867 -1.0839 -0.4555
 3367SOL     OW13692   9.877   5.034   4.869  0.2193  0.6473 -0.8785
 3367SOL    HW113693   9.839   5.112   4.829  0.5015  1.1994 -0.0922
 3367SOL    HW213694   9.912   5.064   4.953 -0.4173 -0.5010 -0.1674
 3368SOL     OW13695   4.844   6.503   9.175  0.4806 -0.8016 -0.1307
 3368SOL    HW113696   4.870   6.581   9.127  1.6728 -1.6124 -0.8676
 3368SOL    HW213697   4.784   6.457   9.117  0.5303 -0.9054 -0.0999
 3369SOL     OW13698  10.140   2.508  10.916 -0.2040 -0.5519  0.0817
 3369SOL    HW113699  10.155   2.602  10.923 -0.2282 -0.6610  3.0392
 3369SOL    HW213700  10.216   2.475  10.867  0.6357  0.8340  0.3917
 3370SOL     OW13701   4.627   5.174   4.109 -0.1524  0.4016  0.7324
 3370SOL    HW113702   4.617   5.102   4.172 -1.5000  0.4966  0.6462
 3370SOL    HW213703   4.663   5.246   4.161 -0.1514  0.1171  1.1307
 3371SOL     OW13704   9.318   0.585   2.851 -0.4162 -0.2282 -0.0160
 3371SOL    HW113705   9.387   0.634   2.806 -0.0549 -0.4421  0.3003
 3371SOL    HW213706   9.316   0.621   2.939 -0.5168 -0.4137  0.0589
 3372SOL     OW13707   4.983   8.072   4.793 -0.2231  0.4715  0.3032
 3372SOL    HW113708   4.915   8.119   4.841  0.6798  1.8541  0.2633
 3372SOL    HW213709   5.065   8.100   4.832  0.3772 -0.6317 -0.1215
 3373SOL     OW13710   5.483   4.798   5.278  0.3455  0.1377  0.0210
 3373SOL    HW113711   5.463   4.775   5.187  1.5072 -0.2758 -0.1451
 3373SOL    HW213712   5.462   4.891   5.284  0.2686  0.1722 -0.6758
 3374SOL     OW13713  11.020   3.233   3.117  0.2663  0.2128  0.2705
 3374SOL    HW113714  10.987   3.319   3.092  2.3311  0.5301 -1.6930
 3374SOL    HW213715  10.973   3.171   3.061  0.4141  0.2931  0.0574
 3375SOL     OW13716   4.015   2.227   3.943 -0.6125 -0.6878  0.3916
 3375SOL    HW113717   4.046   2.195   3.858  2.0143  0.3736  0.8574
 3375SOL    HW213718   3.941   2.285   3.921  2.5012  2.9414 -1.7798
 3376SOL     OW13719   0.017   6.998  10.790 -0.6781 -0.4059  0.5070
 3376SOL    HW113720   0.057   7.069  10.738 -0.9647 -1.6700 -1.5567
 3376SOL    HW213721  -0.077   7.018  10.789 -0.8543 -1.1598 -0.7469
 3377SOL     OW13722   6.264   9.276   4.111  0.2421  0.0914  0.8672
 3377SOL    HW113723   6.322   9.266   4.035  0.5999  1.1293  0.9915
 3377SOL    HW213724   6.320   9.314   4.179 -0.6100  1.3027  0.9295
 3378SOL     OW13725  10.591   6.448  11.110  0.0566 -0.0113  0.3522
 3378SOL    HW113726  10.532   6.479  11.179 -0.4684  0.6448 -0.3682
 3378SOL    HW213727  10.648   6.523  11.092 -0.0229 -0.0711 -0.1539
 3379SOL     OW13728   9.337   2.334   1.789  0.2221 -0.1326  0.1065
 3379SOL    HW113729   9.292   2.308   1.709 -0.1065  0.6861  0.0175
 3379SOL    HW213730   9.334   2.430   1.789 -0.2118 -0.1216  1.3361
 3380SOL     OW13731   7.722   2.904   7.238  0.3526  0.5026 -0.2841
 3380SOL    HW113732   7.640   2.952   7.226 -0.5265 -0.8432  0.0804
 3380SOL    HW213733   7.700   2.814   7.215  1.9084  0.2262 -0.7732
 3381SOL     OW13734   0.410   4.447   0.696  0.2846 -0.4149  0.2107
 3381SOL    HW113735   0.449   4.421   0.613  1.0298 -3.4382  1.3617
 3381SOL    HW213736   0.485   4.471   0.751 -0.0090 -0.3535  0.5875
 3382SOL     OW13737   9.497   2.690   2.722 -0.2734  0.0147  0.0446
 3382SOL    HW113738   9.499   2.601   2.688  0.7289  0.6522 -1.7363
 3382SOL    HW213739   9.410   2.723   2.698  0.3287  0.3720 -1.8450
 3383SOL     OW13740   2.357   0.900   5.894  0.2591 -0.1178  0.0532
 3383SOL    HW113741   2.314   0.834   5.949 -0.3855 -0.2260 -0.5715
 3383SOL    HW213742   2.407   0.850   5.830 -0.1406 -0.0094 -0.3507
 3384SOL     OW13743   6.120   1.492   8.417 -0.2255  0.3138  0.4231
 3384SOL    HW113744   6.045   1.439   8.443 -0.1312 -0.3787 -0.6173
 3384SOL    HW213745   6.188   1.470   8.481  0.5470 -2.6360 -1.1932
 3385SOL     OW13746  10.667   8.735   5.815  0.2835 -0.1800 -0.0402
 3385SOL    HW113747  10.639   8.644   5.824 -1.2519  0.3591  0.9037
 3385SOL    HW213748  10.628   8.765   5.733 -1.3516  0.3329  0.8812
 3386SOL     OW13749   9.315   9.664  10.096 -0.3349  0.2660 -0.0760
 3386SOL    HW113750   9.355   9.597  10.041  1.0110  0.9979 -0.0347
 3386SOL    HW213751   9.248   9.704  10.040 -0.7832 -0.7309 -0.2763
 3387SOL     OW13752   4.774   3.546   3.769  0.4288 -0.0046 -0.5854
 3387SOL    HW113753   4.779   3.599   3.848  1.6649 -2.3229  1.0173
 3387SOL    HW213754   4.866   3.535   3.742  0.1286 -0.5411 -1.4450
 3388SOL     OW13755   9.160   2.381   0.124  0.6671 -0.5289  0.1620
 3388SOL    HW113756   9.077   2.360   0.081  0.8000 -1.2056  0.2315
 3388SOL    HW213757   9.223   2.389   0.051  0.2605  1.5247 -0.0440
 3389SOL     OW13758  11.017   7.517   3.198 -0.1509  0.7065 -0.3121
 3389SOL    HW113759  11.032   7.594   3.143 -0.9354  1.0081 -0.1159
 3389SOL    HW213760  11.010   7.445   3.136  0.5278  0.7999 -0.5033
 3390SOL     OW13761   4.284   5.282   4.780 -0.0064  0.0512 -0.8127
 3390SOL    HW113762   4.212   5.302   4.840 -0.0816 -0.2532 -0.7968
 3390SOL    HW213763   4.359   5.266   4.838  0.0400  0.2310 -0.8230
 3391SOL     OW13764   8.466   7.757   5.643  0.0106  0.4688  0.3341
 3391SOL    HW113765   8.423   7.842   5.629 -1.8157 -0.6053 -1.0157
 3391SOL    HW213766   8.478   7.751   5.738 -3.0242  0.8123  0.8341
 3392SOL     OW13767   2.668   3.630   9.076  0.4289 -0.0175  0.2464
 3392SOL    HW113768   2.598   3.690   9.101 -0.1692 -0.9606  0.9221
 3392SOL    HW213769   2.625   3.544   9.072  1.5260 -0.6020  0.6141
 3393SOL     OW13770   1.103   7.976   7.869  0.6006 -0.4391 -0.1256
 3393SOL    HW113771   1.136   7.894   7.832 -0.5680 -0.7384 -0.5333
 3393SOL    HW213772   1.034   7.949   7.930  0.1260  0.2383 -0.3536
 3394SOL     OW13773   6.100   8.339   7.832 -0.0285 -0.0705 -0.0944
 3394SOL    HW113774   6.110   8.355   7.926 -0.9931  1.9010 -0.2908
 3394SOL    HW213775   6.016   8.378   7.810 -0.1690 -1.1914 -1.6583
 3395SOL     OW13776   9.946   0.653   2.815 -0.3297  0.0674 -0.8902
 3395SOL    HW113777   9.920   0.693   2.732 -1.2442 -0.7035 -0.9977
 3395SOL    HW213778   9.864   0.648   2.865 -0.3691 -2.0880 -1.0716
 3396SOL     OW13779   1.605  10.028   6.139 -0.4422 -0.3667 -0.3165
 3396SOL    HW113780   1.575  10.116   6.165 -1.9184 -1.1251  0.6976
 3396SOL    HW213781   1.599  10.029   6.043  0.6432  0.9794 -0.4132
 3397SOL     OW13782   3.935   5.744   8.134 -0.0888  0.0928  0.1200
 3397SOL    HW113783   3.868   5.693   8.089  0.4942 -1.0253  0.4777
 3397SOL    HW213784   3.961   5.811   8.071 -0.0699 -0.7608 -0.7995
 3398SOL     OW13785   7.275   0.699   5.728 -0.1770 -0.3914  0.0853
 3398SOL    HW113786   7.271   0.604   5.720 -0.2422 -0.4703  0.8898
 3398SOL    HW213787   7.320   0.729   5.649 -2.1917 -0.8737 -1.3123
 3399SOL     OW13788   5.491  10.316   7.984  0.1485 -0.3250  0.2510
 3399SOL    HW113789   5.483  10.229   7.947  0.2938 -0.6294  0.9197
 3399SOL    HW213790   5.407  10.358   7.965 -0.7644 -1.3563  1.8184
 3400SOL     OW13791   5.033   6.623   3.809  0.2109  0.3201  0.7381
 3400SOL    HW113792   5.105   6.560   3.806  0.5371  0.6009  2.0827
 3400SOL    HW213793   5.048   6.673   3.889 -1.0101  0.9535  0.5947
 3401SOL     OW13794   5.695   8.509   4.931 -0.4705 -0.1073 -0.1589
 3401SOL    HW113795   5.763   8.545   4.874  0.3645 -0.7992  0.3811
 3401SOL    HW213796   5.736   8.502   5.017 -1.8537  1.3345  0.6715
 3402SOL     OW13797   8.130   6.778   8.236  0.1416 -0.2223 -0.2907
 3402SOL    HW113798   8.187   6.703   8.221 -1.0560 -1.0310 -0.9921
 3402SOL    HW213799   8.108   6.775   8.329  0.8134 -0.1974 -0.1261
 3403SOL     OW13800   4.432  10.745  10.240 -0.1664  0.1338 -0.2666
 3403SOL    HW113801   4.338  10.764  10.241  0.1011  1.6305 -0.3255
 3403SOL    HW213802   4.457  10.750  10.148  0.1408  0.7648 -0.1572
 3404SOL     OW13803  11.060  10.039   5.815 -0.1541  0.6330 -0.1409
 3404SOL    HW113804  11.019   9.990   5.743  0.4476 -1.9158  1.1606
 3404SOL    HW213805  10.987  10.064   5.872 -0.3194 -0.2133  0.0244
 3405SOL     OW13806   3.076   4.220   0.302 -0.7825 -0.7719  0.0409
 3405SOL    HW113807   2.992   4.182   0.325 -1.2787  0.0832 -0.3102
 3405SOL    HW213808   3.079   4.303   0.350 -1.0090  0.1352 -1.4473
 3406SOL     OW13809   2.403   5.428   1.113 -0.2308  0.2100 -0.3388
 3406SOL    HW113810   2.390   5.512   1.159  0.6591  0.0954  0.1398
 3406SOL    HW213811   2.331   5.373   1.144  1.1696 -0.3757  2.1870
 3407SOL     OW13812   4.923   6.254   3.940  0.4242 -0.7608 -0.2650
 3407SOL    HW113813   4.986   6.290   4.002  0.2543 -0.9012 -0.0112
 3407SOL    HW213814   4.975   6.194   3.886  0.5001 -0.9050 -0.0324
 3408SOL     OW13815   6.988   5.147   6.881  0.3432  0.3170  0.2006
 3408SOL    HW113816   6.907   5.160   6.832 -0.3822 -1.8190  0.7389
 3408SOL    HW213817   6.966   5.172   6.970  0.6557  0.9111  0.1156
 3409SOL     OW13818   6.755   0.878   1.402 -0.3796 -0.0127 -0.0217
 3409SOL    HW113819   6.803   0.901   1.322  0.8367  0.2425  0.7540
 3409SOL    HW213820   6.801   0.925   1.472 -1.1605 -0.5698  0.8938
 3410SOL     OW13821   2.470  10.355   6.950  0.5797 -0.1700  0.1241
 3410SOL    HW113822   2.395  10.326   6.897 -0.2528  0.1103  1.1082
 3410SOL    HW213823   2.450  10.323   7.038  1.1524  0.7458  0.5991
 3411SOL     OW13824   0.397   0.187  10.999  0.0001 -0.5600 -0.0306
 3411SOL    HW113825   0.370   0.241  10.925 -4.2805 -2.3373 -0.0523
 3411SOL    HW213826   0.441   0.112  10.960  0.2450 -0.1766 -0.5026
 3412SOL     OW13827   8.184   7.993   3.980  0.1517 -0.2301  0.0302
 3412SOL    HW113828   8.101   8.010   3.936  1.5382  1.6485 -2.0993
 3412SOL    HW213829   8.231   7.934   3.922  0.5131 -0.9496  1.0147
 3413SOL     OW13830   7.168   3.859   8.336 -0.1814 -0.0842 -0.6484
 3413SOL    HW113831   7.105   3.926   8.309 -1.2947 -1.4930 -1.6995
 3413SOL    HW213832   7.114   3.794   8.383  1.0669  0.3186  1.4692
 3414SOL     OW13833   5.092   3.891   9.473  0.3464 -0.1267  0.2951
 3414SOL    HW113834   5.180   3.858   9.454 -0.0102 -0.5756 -0.6445
 3414SOL    HW213835   5.046   3.816   9.510 -0.1989 -0.4582 -1.0095
 3415SOL     OW13836   8.197   9.590   0.833  0.2183  0.0531 -0.1418
 3415SOL    HW113837   8.166   9.680   0.841  2.1629  0.6970  0.8685
 3415SOL    HW213838   8.187   9.554   0.921 -3.3611 -1.8117 -1.1242
 3416SOL     OW13839  10.250   7.327   4.294 -0.1021  0.0399 -0.1915
 3416SOL    HW113840  10.240   7.413   4.254 -0.0205  0.8619  1.4426
 3416SOL    HW213841  10.340   7.301   4.275 -0.2693  0.0872 -1.0815
 3417SOL     OW13842   7.353   5.436   1.270  0.2793  0.0326 -0.2439
 3417SOL    HW113843   7.318   5.349   1.286  1.1710 -0.2695  0.1163
 3417SOL    HW213844   7.404   5.457   1.349  0.9228  0.4427 -0.7562
 3418SOL     OW13845   5.132   0.853   2.045  0.0020  0.4368  0.2184
 3418SOL    HW113846   5.122   0.859   1.950  0.9258 -2.8243 -0.2061
 3418SOL    HW213847   5.225   0.867   2.060 -0.4710  3.3729  1.0285
 3419SOL     OW13848   5.225   4.481   9.592 -0.1579 -0.0645 -0.0733
 3419SOL    HW113849   5.133   4.502   9.607 -0.1692  0.5890 -0.9546
 3419SOL    HW213850   5.232   4.469   9.497  0.7413  0.3085 -0.0682
 3420SOL     OW13851   8.294   4.786   6.181  0.0900 -0.2219 -0.0210
 3420SOL    HW113852   8.266   4.697   6.157  1.1095 -0.7257  0.5772
 3420SOL    HW213853   8.216   4.827   6.216 -0.4697 -0.7882 -0.5713
 3421SOL     OW13854   1.737   5.498   8.594  0.5055  0.3223  0.4303
 3421SOL    HW113855   1.714   5.487   8.502  0.8336 -0.6951  0.4547
 3421SOL    HW213856   1.665   5.455   8.641  0.2344  1.0178  0.6615
 3422SOL     OW13857   5.637   5.750  10.140 -0.1668  0.2752 -0.2929
 3422SOL    HW113858   5.592   5.774  10.059 -2.0571 -2.7464 -0.2884
 3422SOL    HW213859   5.581   5.685  10.181  1.8434  0.0112  2.3454
 3423SOL     OW13860   2.208   6.298   5.767  0.0812  0.2473 -0.2459
 3423SOL    HW113861   2.188   6.290   5.674  1.2176  3.2427 -0.8657
 3423SOL    HW213862   2.283   6.240   5.781  0.6264  0.6304 -1.4812
 3424SOL     OW13863   8.392   8.728  10.905 -0.3048 -0.2046 -0.3120
 3424SOL    HW113864   8.296   8.730  10.914 -0.3286 -0.2845 -0.5535
 3424SOL    HW213865   8.422   8.796  10.965 -0.4536 -0.8717  0.5592
 3425SOL     OW13866   7.232   3.404   0.752  0.0439 -0.5878 -0.0541
 3425SOL    HW113867   7.184   3.322   0.742  0.7099 -0.8598 -1.1940
 3425SOL    HW213868   7.323   3.380   0.734  0.0598  0.6529 -1.8084
 3426SOL     OW13869   4.691  10.176   0.614 -0.1057 -0.0257  0.4728
 3426SOL    HW113870   4.689  10.217   0.700 -1.3017 -0.9740  0.9261
 3426SOL    HW213871   4.767  10.118   0.617  0.2905  0.4940  0.6180
 3427SOL     OW13872   3.421   0.154   9.425  0.1326 -0.3876  0.4049
 3427SOL    HW113873   3.365   0.111   9.360 -1.1256 -0.9019  1.7779
 3427SOL    HW213874   3.360   0.185   9.492  1.4190 -0.1696  1.5061
 3428SOL     OW13875   8.753   4.213   9.403 -0.1859  0.0727  0.2672
 3428SOL    HW113876   8.669   4.222   9.358 -0.4795  3.5238  1.2342
 3428SOL    HW213877   8.819   4.238   9.337 -0.1082 -0.3596  0.1774
 3429SOL     OW13878   5.444   9.713   4.090  0.4646 -0.0454 -0.3592
 3429SOL    HW113879   5.493   9.790   4.061  1.3989  0.0206  1.2895
 3429SOL    HW213880   5.356   9.746   4.108  0.9684  0.7350  0.7156
 3430SOL     OW13881   9.675   1.683   2.714  0.6153 -0.3030  0.4443
 3430SOL    HW113882   9.688   1.591   2.692  1.7228 -0.1837  0.5816
 3430SOL    HW213883   9.674   1.729   2.630  0.5742 -0.3755  0.4055
 3431SOL     OW13884   7.237   9.085  10.883 -0.1623  0.8974 -0.3992
 3431SOL    HW113885   7.162   9.141  10.901 -0.4096  0.3065  0.4503
 3431SOL    HW213886   7.227   9.059  10.792 -1.3310  0.3108 -0.1095
 3432SOL     OW13887   0.365   2.977  11.060 -0.3380  0.2919 -0.0152
 3432SOL    HW113888   0.365   2.936  10.973 -0.8511 -0.3407  0.2788
 3432SOL    HW213889   0.277   3.014  11.069 -0.9173 -1.2394  0.9639
 3433SOL     OW13890   7.492   3.737   0.561 -0.5269 -0.0820 -0.3182
 3433SOL    HW113891   7.438   3.815   0.545  2.1274  1.3826 -3.3370
 3433SOL    HW213892   7.516   3.743   0.653 -0.5548  2.6368 -0.4023
 3434SOL     OW13893   4.879   3.254   7.327 -0.5985  0.3696  0.2134
 3434SOL    HW113894   4.868   3.160   7.344 -0.6182  0.4919  0.9186
 3434SOL    HW213895   4.790   3.288   7.326 -0.5336  0.6674  1.7598
 3435SOL     OW13896   7.103   0.312   3.286  0.4319  0.1201 -0.3090
 3435SOL    HW113897   7.185   0.264   3.294  0.4430 -0.7335 -3.8605
 3435SOL    HW213898   7.038   0.245   3.263 -0.3113  1.3013 -1.7997
 3436SOL     OW13899   4.248   2.569   1.949  0.4889  0.1259  0.2060
 3436SOL    HW113900   4.305   2.496   1.922  0.4749  0.3428 -0.4324
 3436SOL    HW213901   4.160   2.539   1.928  0.4732  0.2813  0.0502
 3437SOL     OW13902   4.142  10.261  10.637 -0.0575 -0.2042 -0.0607
 3437SOL    HW113903   4.172  10.340  10.592 -3.7428  1.2561 -0.2912
 3437SOL    HW213904   4.170  10.189  10.581  1.3168  1.0989 -1.1228
 3438SOL     OW13905   8.328   3.051   9.880  0.2637  0.7970 -0.3477
 3438SOL    HW113906   8.353   3.120   9.942  0.2747  1.3226 -0.9315
 3438SOL    HW213907   8.405   3.037   9.825  1.3503 -1.7895  1.6006
 3439SOL     OW13908   3.364   0.312   6.482  0.2532 -0.5420 -0.1334
 3439SOL    HW113909   3.412   0.380   6.530 -1.1324 -0.2875  0.9433
 3439SOL    HW213910   3.398   0.319   6.393  0.9429  0.8169  0.1916
 3440SOL     OW13911  10.977   9.220   2.946  0.0401 -0.5647  0.8031
 3440SOL    HW113912  10.957   9.313   2.954  0.5779 -0.0801 -2.2944
 3440SOL    HW213913  11.066   9.212   2.980 -0.3696 -0.1736  2.0163
 3441SOL     OW13914   3.760   2.487   6.966  0.1192 -0.2552  0.7792
 3441SOL    HW113915   3.706   2.566   6.964 -0.3498 -0.6015 -0.3516
 3441SOL    HW213916   3.704   2.420   7.006 -0.8103 -0.9622 -1.5639
 3442SOL     OW13917   1.550   8.745   0.525 -0.3100  0.3613 -0.0734
 3442SOL    HW113918   1.506   8.667   0.492  0.2629 -0.0952  0.2139
 3442SOL    HW213919   1.508   8.762   0.609  0.9105 -0.8612  0.8373
 3443SOL     OW13920   0.365   2.994   1.302  0.4410 -0.0325 -0.8167
 3443SOL    HW113921   0.408   2.975   1.385 -0.3527  3.3866  0.5214
 3443SOL    HW213922   0.437   3.015   1.242  0.9105  3.1111  0.6901
 3444SOL     OW13923   8.604   0.727   7.767 -0.3330 -0.6055 -0.3963
 3444SOL    HW113924   8.599   0.821   7.749 -0.6100 -0.4782  0.2914
 3444SOL    HW213925   8.690   0.701   7.735  0.4953  0.2588  1.0071
 3445SOL     OW13926   6.786   6.413   8.779  0.6585 -0.0569 -0.1577
 3445SOL    HW113927   6.751   6.499   8.756 -3.1917 -1.5417 -0.6081
 3445SOL    HW213928   6.847   6.392   8.707 -0.3127  1.2411 -1.4222
 3446SOL     OW13929  10.984   8.134  10.491 -0.4373 -0.1409  0.6628
 3446SOL    HW113930  10.889   8.133  10.503 -0.4162 -0.9626  0.8194
 3446SOL    HW213931  11.015   8.203  10.549 -1.0424  0.9731 -0.2873
 3447SOL     OW13932  10.265   2.035   8.018 -0.2418  0.1397 -0.1590
 3447SOL    HW113933  10.169   2.036   8.022 -0.4606  0.1759 -3.3529
 3447SOL    HW213934  10.288   1.942   8.018 -0.3946  0.0994 -1.0099
 3448SOL     OW13935   3.753   1.350   3.317  0.0360  0.5196  0.4745
 3448SOL    HW113936   3.809   1.346   3.394  0.6436  0.9816  0.0707
 3448SOL    HW213937   3.812   1.333   3.243 -0.9077 -2.0724  0.2272
 3449SOL     OW13938   3.741  10.052   3.026 -0.0438 -0.3628 -0.1644
 3449SOL    HW113939   3.741  10.031   3.119 -1.4755  0.2642  0.0094
 3449SOL    HW213940   3.830  10.082   3.007  0.2934 -0.6147  0.9685
 3450SOL     OW13941   5.610   7.796   2.205  0.4995 -0.2715  1.0755
 3450SOL    HW113942   5.555   7.732   2.250  0.1063 -0.9960 -0.4067
 3450SOL    HW213943   5.615   7.870   2.267 -0.7034 -0.8898  1.9547
 3451SOL     OW13944   4.881   2.802  10.604  0.2294  0.3624 -0.2125
 3451SOL    HW113945   4.831   2.884  10.604  3.3495  2.4477  0.6023
 3451SOL    HW213946   4.904   2.789  10.696 -0.7746 -1.9010 -0.2211
 3452SOL     OW13947   0.260   9.346   6.860  0.0700 -0.7921 -0.0138
 3452SOL    HW113948   0.174   9.333   6.899 -0.6898 -1.6195 -1.8684
 3452SOL    HW213949   0.257   9.299   6.777  2.0106 -0.0912 -0.5500
 3453SOL     OW13950   9.024   4.909   0.052 -0.6016  0.3213 -0.1447
 3453SOL    HW113951   9.054   4.905   0.143  1.5128 -1.3767 -0.8233
 3453SOL    HW213952   9.071   4.983   0.014 -0.8568  0.5296 -0.0542
 3454SOL     OW13953   1.286   1.041   3.117 -0.8006  0.0989 -0.7840
 3454SOL    HW113954   1.220   1.106   3.140 -1.0342 -0.5555  0.4923
 3454SOL    HW213955   1.368   1.091   3.109 -0.3563  0.2680  3.1135
 3455SOL     OW13956   2.047  10.006   8.087  0.5609  0.5415 -0.1084
 3455SOL    HW113957   1.951  10.004   8.084  0.5938 -0.7469 -2.0050
 3455SOL    HW213958   2.071   9.941   8.152  0.1614  0.8565  0.3586
 3456SOL     OW13959   9.262   0.064   2.527  0.4103 -0.0662 -0.0439
 3456SOL    HW113960   9.319   0.124   2.479 -1.5122  1.9206 -0.0013
 3456SOL    HW213961   9.210   0.121   2.584 -1.3604 -1.8089  0.1913
 3457SOL     OW13962   3.699   2.898   5.877  0.6423 -0.7174 -0.5663
 3457SOL    HW113963   3.726   2.827   5.935  0.1052 -0.8936 -0.5309
 3457SOL    HW213964   3.710   2.977   5.930  2.0233 -0.6775 -0.8717
 3458SOL     OW13965   8.429   1.385   2.086  0.6153 -0.5518 -0.5550
 3458SOL    HW113966   8.458   1.466   2.044  1.2591  0.1973  1.2653
 3458SOL    HW213967   8.345   1.407   2.125  0.5872 -0.8903 -0.4257
 3459SOL     OW13968  10.941   1.797   1.252  0.1858  0.0769  0.0766
 3459SOL    HW113969  10.887   1.773   1.177  0.7898  1.8648 -0.9774
 3459SOL    HW213970  11.020   1.744   1.243 -0.3894 -0.8634  0.3625
 3460SOL     OW13971  10.864   4.075   0.274  0.2820 -0.0404 -0.7803
 3460SOL    HW113972  10.889   4.021   0.200  0.4970 -1.1898  0.1009
 3460SOL    HW213973  10.769   4.067   0.278  0.0120  1.8150 -2.2387
 3461SOL     OW13974   4.941  10.227   7.371 -0.2880  0.3771  0.5134
 3461SOL    HW113975   4.886  10.295   7.410  0.6403  1.8286 -0.6067
 3461SOL    HW213976   4.981  10.269   7.295  0.3788 -1.4134 -0.1789
 3462SOL     OW13977   1.005   4.270   7.060 -0.4364 -0.1419  0.2853
 3462SOL    HW113978   0.942   4.198   7.055  0.8294 -1.4783  2.0864
 3462SOL    HW213979   0.952   4.349   7.064 -1.9945 -1.1954  1.3198
 3463SOL     OW13980   7.268   7.626   9.691  0.2740  0.2161  0.8030
 3463SOL    HW113981   7.362   7.636   9.678  0.1353 -0.5144 -0.9681
 3463SOL    HW213982   7.251   7.534   9.672 -1.0590  0.7469 -0.7953
 3464SOL     OW13983   0.710   3.952   0.091 -0.2918 -0.0470  0.2514
 3464SOL    HW113984   0.623   3.990   0.080  0.3701  1.4793 -0.0664
 3464SOL    HW213985   0.746   3.949   0.003  0.1445 -0.2550  0.4328
 3465SOL     OW13986   5.252   4.583  10.079 -0.7881  0.7506  0.1397
 3465SOL    HW113987   5.186   4.632  10.127  0.4207  0.7599  1.8708
 3465SOL    HW213988   5.278   4.513  10.139  0.0012  0.0922 -0.9351
 3466SOL     OW13989   9.383   6.736   0.365  0.1576  0.8818  0.3626
 3466SOL    HW113990   9.438   6.744   0.444  0.6314 -1.1490  0.2995
 3466SOL    HW213991   9.440   6.692   0.301 -1.1648 -0.2585 -0.0803
 3467SOL     OW13992   5.395   6.649   9.646 -0.5643 -0.4054  0.0253
 3467SOL    HW113993   5.460   6.591   9.605  1.2482  0.9058  0.8984
 3467SOL    HW213994   5.360   6.598   9.719  0.7444 -0.5629  0.5664
 3468SOL     OW13995   1.807   9.741   7.848  0.4498  1.0173  0.4524
 3468SOL    HW113996   1.772   9.662   7.889  1.0525  0.6404  0.2445
 3468SOL    HW213997   1.730   9.788   7.818  0.0833 -1.9515 -4.1279
 3469SOL     OW13998   3.164   9.939   1.699  0.1050 -0.5525  0.4480
 3469SOL    HW113999   3.121   9.998   1.761 -1.6443 -0.8111 -0.4658
 3469SOL    HW214000   3.163   9.854   1.742 -1.9970 -0.9389 -0.2816
 3470SOL     OW14001   0.116   8.654   2.792  0.2194  0.1132 -0.2193
 3470SOL    HW114002   0.035   8.698   2.819 -0.5614 -0.8775 -0.9215
 3470SOL    HW214003   0.181   8.686   2.855 -0.9922 -0.1123  1.2226
 3471SOL     OW14004   6.361   4.684   2.126 -0.1730 -0.5400  0.0137
 3471SOL    HW114005   6.432   4.624   2.104  0.2781  0.1925 -0.5467
 3471SOL    HW214006   6.383   4.717   2.213  0.1723 -0.3189 -0.1562
 3472SOL     OW14007   3.540   3.649  10.061  0.4088  0.4801  0.0192
 3472SOL    HW114008   3.610   3.617  10.118  1.3368  0.0755 -1.2997
 3472SOL    HW214009   3.535   3.584   9.990  0.7791  2.0420 -1.5029
 3473SOL     OW14010   3.555   1.186   0.049  0.6497  0.1366  0.2364
 3473SOL    HW114011   3.566   1.266  -0.003 -1.0383  1.8671  2.3343
 3473SOL    HW214012   3.592   1.207   0.134 -0.6150 -0.9747  1.1120
 3474SOL     OW14013   5.786   5.100   9.585  0.5346 -0.6055 -0.4974
 3474SOL    HW114014   5.733   5.153   9.645  1.3429  0.2743 -0.5273
 3474SOL    HW214015   5.867   5.150   9.575 -0.5330  0.7109 -4.4399
 3475SOL     OW14016   4.189   5.532   2.674  0.3934 -0.0810 -0.2633
 3475SOL    HW114017   4.250   5.566   2.740  0.5050  0.7648 -0.7882
 3475SOL    HW214018   4.151   5.454   2.715 -0.0029  0.7705  1.0603
 3476SOL     OW14019   5.016   9.565   5.645 -0.1254  0.0168 -0.2195
 3476SOL    HW114020   5.070   9.617   5.704  0.2230 -1.4099  0.8047
 3476SOL    HW214021   4.929   9.604   5.652 -0.0639 -0.0163  1.1870
 3477SOL     OW14022   0.923   4.167   2.743 -0.5882 -0.3775 -0.5980
 3477SOL    HW114023   0.860   4.136   2.809  0.8198  0.6457  1.3279
 3477SOL    HW214024   0.882   4.244   2.705 -0.9054 -0.2309  0.0198
 3478SOL     OW14025   9.604   9.209   6.209  0.0896  0.6708  0.5279
 3478SOL    HW114026   9.655   9.131   6.187 -1.3983 -0.2240  0.1282
 3478SOL    HW214027   9.609   9.216   6.304 -1.0469 -0.8533  0.7304
 3479SOL     OW14028  10.424   0.412   8.693  0.3706  0.0560 -0.3349
 3479SOL    HW114029  10.341   0.458   8.706 -0.9253 -2.3971  0.7291
 3479SOL    HW214030  10.449   0.384   8.781  1.1766 -1.0952 -0.9151
 3480SOL     OW14031   3.704   8.861   4.243 -0.2069  0.5217 -0.1803
 3480SOL    HW114032   3.692   8.884   4.335 -1.6078 -1.4138  0.1851
 3480SOL    HW214033   3.651   8.782   4.231  2.5354 -1.2520 -1.8037
 3481SOL     OW14034  10.397   6.754   8.711  0.0588 -0.0514  0.6987
 3481SOL    HW114035  10.413   6.760   8.806  1.4027  0.1198  0.4716
 3481SOL    HW214036  10.323   6.813   8.697  0.9206  1.2703  1.4100
 3482SOL     OW14037   3.031   7.701   6.959 -0.0369  0.4489  0.0111
 3482SOL    HW114038   3.098   7.662   7.015  1.1584  1.4583 -0.6421
 3482SOL    HW214039   2.948   7.678   7.000  0.7373 -0.1570  1.3018
 3483SOL     OW14040   6.940   0.046   0.581 -0.1299  0.0340  0.1551
 3483SOL    HW114041   6.854   0.005   0.590 -0.0345 -0.3063 -0.4686
 3483SOL    HW214042   6.941   0.114   0.649  0.4094 -2.1520  2.4748
 3484SOL     OW14043   2.784   8.360   1.536 -0.9575  0.2163 -0.3917
 3484SOL    HW114044   2.792   8.437   1.592  0.6638 -0.0549 -0.2023
 3484SOL    HW214045   2.855   8.368   1.474 -1.8461 -0.2460 -1.5020
 3485SOL     OW14046   3.001   2.578   4.033 -0.1831 -0.2208 -0.1650
 3485SOL    HW114047   2.908   2.590   4.051  0.3566  0.5861  2.5442
 3485SOL    HW214048   3.014   2.484   4.036 -0.6433 -0.2592  1.1679
 3486SOL     OW14049   7.658   5.046   9.862 -0.5170 -0.1231 -0.1680
 3486SOL    HW114050   7.688   4.972   9.914 -0.4194  0.0041 -0.0417
 3486SOL    HW214051   7.737   5.081   9.821 -0.5996 -0.2443 -0.4290
 3487SOL     OW14052   4.092  10.624   4.086 -0.3268 -0.4552 -0.3022
 3487SOL    HW114053   4.009  10.605   4.043 -0.2046 -1.8082  0.0202
 3487SOL    HW214054   4.159  10.595   4.024 -0.0137  1.9837 -1.2016
 3488SOL     OW14055  10.608   3.704   6.095  0.1146  0.1099 -0.3571
 3488SOL    HW114056  10.681   3.700   6.156  1.4109  0.3012 -1.8137
 3488SOL    HW214057  10.611   3.793   6.060  0.3587 -0.4187 -1.7609
 3489SOL     OW14058   7.871   6.521   1.423 -0.3380 -0.1218 -0.0554
 3489SOL    HW114059   7.907   6.610   1.415 -0.2379 -0.1363  0.2199
 3489SOL    HW214060   7.943   6.469   1.458 -0.2225 -0.4349 -0.7306
 3490SOL     OW14061   7.858   4.568   6.818 -0.1594  0.3988 -0.4012
 3490SOL    HW114062   7.932   4.511   6.836 -0.5585 -0.0467 -0.1485
 3490SOL    HW214063   7.863   4.586   6.724 -0.2583 -0.3830 -0.5620
 3491SOL     OW14064   3.142   0.760   5.341  0.5212 -0.4888  0.0354
 3491SOL    HW114065   3.201   0.796   5.407  1.1733 -0.1173 -0.7326
 3491SOL    HW214066   3.182   0.677   5.316 -0.3670 -1.2226  0.9632
 3492SOL     OW14067  10.741   4.739   2.240 -0.2587  0.6143 -0.0717
 3492SOL    HW114068  10.779   4.826   2.254 -0.1238  0.4465  0.6274
 3492SOL    HW214069  10.724   4.705   2.328 -0.2609 -0.0877 -0.3348
 3493SOL     OW14070   6.044   6.277   5.234  0.4265 -0.3688 -0.2740
 3493SOL    HW114071   6.014   6.212   5.298 -0.8591 -0.7314 -1.1922
 3493SOL    HW214072   5.979   6.272   5.164  1.4948  0.4041 -1.3516
 3494SOL     OW14073   1.381   0.701   6.999  0.1133 -0.0895 -0.3536
 3494SOL    HW114074   1.338   0.630   7.047  0.1256  0.6071  0.7126
 3494SOL    HW214075   1.474   0.679   7.000  0.3913  0.9587  1.8154
 3495SOL     OW14076   3.944   2.725   3.982 -0.1255  0.3978  0.6880
 3495SOL    HW114077   4.029   2.763   3.964 -0.4674  0.0127 -2.1795
 3495SOL    HW214078   3.884   2.769   3.922 -1.2540 -1.7845  0.0990
 3496SOL     OW14079  11.019   4.523   8.495 -0.5041 -0.1271 -0.1493
 3496SOL    HW114080  10.986   4.526   8.585  0.1473  3.0934  0.1251
 3496SOL    HW214081  11.072   4.444   8.491 -1.2834 -0.8462  1.9913
 3497SOL     OW14082   3.423   4.936   7.215  0.1300  0.0730  0.0244
 3497SOL    HW114083   3.342   4.919   7.168 -0.7343  0.6031  1.2525
 3497SOL    HW214084   3.408   4.900   7.302  0.7510  1.1902  0.6254
 3498SOL     OW14085   3.893   5.760   4.672  0.2100 -0.3758  0.0557
 3498SOL    HW114086   3.967   5.808   4.710  1.0220 -0.2873 -1.5121
 3498SOL    HW214087   3.914   5.755   4.578 -0.8194 -2.0665 -0.1327
 3499SOL     OW14088   7.283   2.866   4.249  0.2753  0.1415 -0.2715
 3499SOL    HW114089   7.256   2.905   4.332  0.2495 -0.3778 -0.0257
 3499SOL    HW214090   7.335   2.933   4.206 -2.0255  1.4827 -1.1072
 3500SOL     OW14091   9.559   1.289   3.324  0.0425 -0.2539 -0.1360
 3500SOL    HW114092   9.574   1.204   3.365 -0.0092 -0.8332 -1.2898
 3500SOL    HW214093   9.590   1.279   3.235  0.0119  0.9385 -0.3045
 3501SOL     OW14094   2.614   6.657   5.714 -0.0832  1.3031  0.7462
 3501SOL    HW114095   2.602   6.645   5.808 -0.7659  0.4751  0.5667
 3501SOL    HW214096   2.531   6.693   5.683 -1.0246 -1.2356  0.0307
 3502SOL     OW14097   4.161   7.794  11.014  0.0142 -0.0205  0.4234
 3502SOL    HW114098   4.112   7.765  11.090 -1.7113  1.9179  0.1261
 3502SOL    HW214099   4.158   7.719  10.954 -2.2390 -0.1670  0.6208
 3503SOL     OW14100   4.139  11.028   9.688  0.2486 -0.5543  0.2809
 3503SOL    HW114101   4.127  10.941   9.652 -0.7791 -0.8675  1.3273
 3503SOL    HW214102   4.219  11.021   9.741  0.3893 -0.7429  0.0469
 3504SOL     OW14103   3.740  10.965   9.985  0.3428 -0.4170  0.1841
 3504SOL    HW114104   3.813  10.905   9.970  0.5040  0.1310 -1.3108
 3504SOL    HW214105   3.664  10.920   9.948  0.5776  0.5457 -1.5511
 3505SOL     OW14106  10.392   0.069   0.199  0.4307 -0.2794 -0.4661
 3505SOL    HW114107  10.373   0.159   0.170  0.3359 -1.0155 -2.9465
 3505SOL    HW214108  10.311   0.039   0.239  0.9748  1.2409  2.0095
 3506SOL     OW14109   7.447   1.113   3.918  0.1661 -0.0530  0.1666
 3506SOL    HW114110   7.498   1.085   3.843 -0.5823 -1.6687  0.2272
 3506SOL    HW214111   7.511   1.120   3.989  0.9563  1.9258 -0.6723
 3507SOL     OW14112   0.713   8.486   2.282 -0.5479  0.2334  0.4018
 3507SOL    HW114113   0.632   8.530   2.258 -0.6898 -0.1512  0.1676
 3507SOL    HW214114   0.769   8.555   2.316  0.5752  1.2775 -3.1511
 3508SOL     OW14115   2.275   1.647   5.687 -0.3867 -0.2703  0.6764
 3508SOL    HW114116   2.305   1.566   5.644 -1.3136 -0.5705  0.5689
 3508SOL    HW214117   2.280   1.627   5.780  1.2705  0.2534  0.7422
 3509SOL     OW14118   5.199  10.181  10.330 -0.4583 -0.2600 -0.3014
 3509SOL    HW114119   5.230  10.186  10.421 -1.4688 -0.0826  0.0493
 3509SOL    HW214120   5.244  10.253  10.286 -0.8673  0.4142  0.3535
 3510SOL     OW14121  10.698   0.341   9.232  0.4779 -0.0792  0.7716
 3510SOL    HW114122  10.733   0.273   9.289 -0.0049 -0.1962  0.9317
 3510SOL    HW214123  10.774   0.374   9.183  0.9370  0.1818  1.6459
 3511SOL     OW14124   8.857   7.110   8.945  0.6619  0.0257 -0.0965
 3511SOL    HW114125   8.918   7.165   8.895  0.5379 -0.9055 -1.3197
 3511SOL    HW214126   8.835   7.163   9.022  1.1656  1.3497 -0.8255
 3512SOL     OW14127   1.310   8.401   4.393 -0.1140  0.0105  0.0231
 3512SOL    HW114128   1.311   8.469   4.326  0.0369  1.6629  1.5974
 3512SOL    HW214129   1.357   8.327   4.354 -1.2558  0.3581 -2.1536
 3513SOL     OW14130   5.955   2.760   6.505  0.1171 -0.1073 -0.3323
 3513SOL    HW114131   5.879   2.816   6.523  0.0319 -0.5419  0.7292
 3513SOL    HW214132   6.022   2.792   6.565 -0.7073 -2.7243  2.1916
 3514SOL     OW14133   5.824   2.956   2.169  0.5583 -0.1076 -0.4400
 3514SOL    HW114134   5.800   3.001   2.250  0.9856  0.4598 -0.6250
 3514SOL    HW214135   5.911   2.989   2.148  1.5422 -2.1300  0.2164
 3515SOL     OW14136   0.926   6.127   6.504 -0.0038  0.9664  0.2666
 3515SOL    HW114137   1.016   6.097   6.517  0.1622  0.3963 -1.8810
 3515SOL    HW214138   0.877   6.048   6.485 -0.0243  1.6752 -3.0868
 3516SOL     OW14139   7.581   1.874   6.998  0.2254  0.0661  0.0544
 3516SOL    HW114140   7.491   1.863   6.966 -0.4252  1.9639  1.0785
 3516SOL    HW214141   7.596   1.969   6.996  2.0531 -0.1848  0.3229
 3517SOL     OW14142   6.545   0.196   1.205  0.0017 -0.7972 -0.0807
 3517SOL    HW114143   6.475   0.250   1.168 -1.5196 -1.5960  1.4778
 3517SOL    HW214144   6.539   0.113   1.159 -0.8373 -1.2462  0.8160
 3518SOL     OW14145   1.103   9.725  10.972  0.3469  0.1663  0.1971
 3518SOL    HW114146   1.149   9.756  10.895 -1.3799 -0.1013 -0.9896
 3518SOL    HW214147   1.076   9.804  11.019  1.1654  0.3298  0.4070
 3519SOL     OW14148  10.941   7.819  10.175 -0.1228  0.2296  0.1782
 3519SOL    HW114149  10.878   7.875  10.221 -0.6917  1.2245 -1.7127
 3519SOL    HW214150  10.967   7.870  10.098  1.8943 -0.7789  0.1194
 3520SOL     OW14151   2.752   6.793   5.177 -0.2434  0.3063 -0.5727
 3520SOL    HW114152   2.803   6.729   5.226 -0.7872 -0.9575 -1.6162
 3520SOL    HW214153   2.812   6.867   5.164  0.4961 -0.1116  0.3653
 3521SOL     OW14154   4.555   7.679   9.989  0.4847 -0.7335 -0.0899
 3521SOL    HW114155   4.500   7.662   9.913 -0.5111 -0.4251  0.5326
 3521SOL    HW214156   4.593   7.765   9.973 -0.9395  0.0289  0.4220
 3522SOL     OW14157  10.482  10.069   3.658  0.3706 -0.5219 -0.5014
 3522SOL    HW114158  10.389  10.061   3.636  0.0277 -0.8678  0.9184
 3522SOL    HW214159  10.493  10.159   3.687 -0.0486 -1.0149  1.3614
 3523SOL     OW14160   9.107   1.737   7.478 -0.2633  0.6243  0.9361
 3523SOL    HW114161   9.147   1.774   7.400 -1.3384 -0.5149 -0.2135
 3523SOL    HW214162   9.156   1.774   7.551  0.9592  1.4888 -0.2873
 3524SOL     OW14163   5.481   5.113   3.263  0.3337 -0.1123  0.2857
 3524SOL    HW114164   5.476   5.068   3.179  0.3280  0.9429 -0.3017
 3524SOL    HW214165   5.487   5.043   3.328 -0.5695 -0.9648 -0.5187
 3525SOL     OW14166  10.241   3.979   7.234 -0.1990  0.2807  0.0392
 3525SOL    HW114167  10.253   3.885   7.218  0.1527  0.7598 -3.0997
 3525SOL    HW214168  10.214   3.984   7.326 -0.7720 -2.9180  0.1697
 3526SOL     OW14169   0.032   8.625   0.773 -0.3665  0.5200  0.0667
 3526SOL    HW114170   0.002   8.704   0.729 -0.0232  1.1537  0.9260
 3526SOL    HW214171   0.057   8.655   0.861 -1.9422 -0.8518  1.0386
 3527SOL     OW14172   1.757   2.679   4.382  0.0588 -0.3020  0.0634
 3527SOL    HW114173   1.793   2.714   4.463 -0.4968  0.7525 -0.1277
 3527SOL    HW214174   1.802   2.595   4.370  2.0019  0.6755  0.1234
 3528SOL     OW14175   8.630   0.427   8.595  0.1857 -0.5906 -0.0144
 3528SOL    HW114176   8.706   0.464   8.639  1.2021 -1.6945 -0.7811
 3528SOL    HW214177   8.562   0.424   8.662  1.2688 -0.9534  1.1044
 3529SOL     OW14178  10.806   2.732   6.859 -0.0823  0.2874  0.0399
 3529SOL    HW114179  10.788   2.643   6.887  2.2294 -1.0019 -2.1429
 3529SOL    HW214180  10.870   2.765   6.922 -0.5812  0.2365  0.5761
 3530SOL     OW14181   3.341   1.634   1.554  0.1772 -0.3758  0.3353
 3530SOL    HW114182   3.400   1.684   1.610  0.6802  0.3790 -0.8397
 3530SOL    HW214183   3.391   1.619   1.474 -1.7359  1.7731 -1.3929
 3531SOL     OW14184   3.235   0.234   9.627 -0.6664 -0.3969  0.3767
 3531SOL    HW114185   3.150   0.263   9.594 -0.5451 -1.6629 -1.1824
 3531SOL    HW214186   3.224   0.140   9.640  0.8803 -0.8664 -1.2972
 3532SOL     OW14187   9.197   3.066   8.773  0.3395  0.2947  0.1790
 3532SOL    HW114188   9.147   3.042   8.695 -0.2369  2.1651 -0.0864
 3532SOL    HW214189   9.238   2.985   8.801  0.0892 -0.5506 -1.7305
 3533SOL     OW14190   1.860   9.253   4.978 -0.3179 -0.4935 -0.1872
 3533SOL    HW114191   1.825   9.279   4.893  0.9968  1.3778 -0.2101
 3533SOL    HW214192   1.795   9.283   5.042 -0.2511  0.1380 -0.4100
 3534SOL     OW14193   1.002   3.041   9.132  0.7980  0.9525  0.0031
 3534SOL    HW114194   1.053   2.997   9.064 -3.1960 -1.0420 -2.0283
 3534SOL    HW214195   0.984   3.128   9.096  0.1722  0.5174 -0.7779
 3535SOL     OW14196  10.010   5.835   1.864 -0.4031 -0.2574  0.0112
 3535SOL    HW114197   9.988   5.913   1.813 -0.1539  1.5477  2.4668
 3535SOL    HW214198   9.925   5.795   1.886 -0.7968  1.2614  1.4705
 3536SOL     OW14199   5.624   6.682   1.263 -0.0598  0.6594  0.1325
 3536SOL    HW114200   5.658   6.623   1.196 -0.0640  1.9991 -1.0973
 3536SOL    HW214201   5.572   6.626   1.320  1.6541 -0.8781  0.2574
 3537SOL     OW14202   5.150   6.176   6.558  0.7683 -0.3668  0.5181
 3537SOL    HW114203   5.071   6.229   6.565  0.3064 -1.0075  0.3110
 3537SOL    HW214204   5.128   6.094   6.603  0.6450 -1.2802 -1.0838
 3538SOL     OW14205  10.988  11.016   4.572 -0.4612 -0.2808 -0.1192
 3538SOL    HW114206  11.008  10.927   4.602  0.1100 -0.1578 -0.1306
 3538SOL    HW214207  11.057  11.037   4.510  0.1474  0.6530  0.8426
 3539SOL     OW14208   9.716   3.425   7.125 -0.4250  0.5386 -0.4099
 3539SOL    HW114209   9.793   3.406   7.072  0.8066  0.5038  1.2871
 3539SOL    HW214210   9.664   3.345   7.124  0.2177  0.1193 -0.5441
 3540SOL     OW14211   7.924   7.100   4.709 -0.2583  0.0059  0.1924
 3540SOL    HW114212   7.911   7.041   4.634 -0.7659 -0.0298  0.3076
 3540SOL    HW214213   7.903   7.187   4.674 -0.9442 -0.0698  0.4179
 3541SOL     OW14214   9.218   5.605   0.280 -0.6685 -0.1377 -0.3606
 3541SOL    HW114215   9.169   5.602   0.362 -1.6292 -1.6398 -0.9376
 3541SOL    HW214216   9.277   5.680   0.289 -1.6613  0.4992  1.1690
 3542SOL     OW14217   5.598   1.527   0.690  0.2757 -0.1221 -0.2756
 3542SOL    HW114218   5.584   1.441   0.730 -3.2892  0.6807  0.5466
 3542SOL    HW214219   5.594   1.588   0.764  1.7615  0.8945 -0.9795
 3543SOL     OW14220   7.679   0.353   2.339  0.2992 -0.6656  0.2835
 3543SOL    HW114221   7.641   0.320   2.420 -0.1557 -0.3138  0.2188
 3543SOL    HW214222   7.637   0.301   2.270 -0.3644 -0.0185  0.1862
 3544SOL     OW14223  10.087  10.732   2.180 -0.3224  0.7913  0.0522
 3544SOL    HW114224  10.043  10.816   2.197  0.2769  0.9386  0.9420
 3544SOL    HW214225  10.133  10.713   2.262 -0.3124 -0.3286 -0.2085
 3545SOL     OW14226   6.719   9.390   9.778 -0.2980 -0.0112 -0.1523
 3545SOL    HW114227   6.695   9.426   9.864  1.5079  3.1383 -0.8161
 3545SOL    HW214228   6.773   9.314   9.799 -0.4663  0.2774  1.5084
 3546SOL     OW14229   3.568  10.983   2.307 -0.8983 -0.8500  0.1703
 3546SOL    HW114230   3.515  11.045   2.258 -1.1283  1.1874  2.7877
 3546SOL    HW214231   3.650  11.029   2.324 -1.0762 -1.2042  2.1972
 3547SOL     OW14232   4.409   9.388   6.560 -0.7772 -0.0165 -0.3553
 3547SOL    HW114233   4.486   9.405   6.507  0.2811 -0.5613  0.9620
 3547SOL    HW214234   4.432   9.418   6.648 -1.0723 -2.4766  0.6419
 3548SOL     OW14235   8.673   0.430   9.975 -0.2111 -0.0091 -0.1256
 3548SOL    HW114236   8.649   0.341   9.998 -0.0132 -0.3711 -1.2281
 3548SOL    HW214237   8.718   0.421   9.891  1.9868  0.8593  0.8868
 3549SOL     OW14238   6.215   9.305   4.837  0.0468  0.7751 -0.1063
 3549SOL    HW114239   6.293   9.289   4.890 -1.8682 -0.9345  2.4963
 3549SOL    HW214240   6.181   9.389   4.868 -0.5082  0.2719  0.6903
 3550SOL     OW14241  10.620   7.548   3.965 -0.8643  0.1693 -0.0051
 3550SOL    HW114242  10.616   7.514   3.876 -0.2816  0.5772 -0.1941
 3550SOL    HW214243  10.666   7.632   3.956  0.5385 -0.4718  0.8779
 3551SOL     OW14244   2.980   5.334   9.675 -0.7077  0.0682  1.2032
 3551SOL    HW114245   2.982   5.313   9.581 -0.6942  0.9635  0.9986
 3551SOL    HW214246   3.067   5.311   9.707 -0.9003 -0.8025  1.1244
 3552SOL     OW14247   9.686   9.227  10.508 -0.6248  0.1502 -0.3103
 3552SOL    HW114248   9.681   9.173  10.429 -1.1063 -0.3073  0.0243
 3552SOL    HW214249   9.622   9.188  10.567 -0.1712  0.4084  0.3605
 3553SOL     OW14250   4.250  10.159   6.732 -0.4564 -0.1041  0.3397
 3553SOL    HW114251   4.333  10.116   6.755 -0.3043  0.0363  0.0611
 3553SOL    HW214252   4.256  10.245   6.773 -2.2085 -1.4826  3.8594
 3554SOL     OW14253   6.316   6.493   4.723  0.1449 -0.2372  0.0942
 3554SOL    HW114254   6.269   6.565   4.681  0.8282  0.6481  0.8240
 3554SOL    HW214255   6.301   6.505   4.816  2.0353  0.2516  0.3762
 3555SOL     OW14256  10.578   9.045   3.173  0.9426 -0.0986 -0.0944
 3555SOL    HW114257  10.533   8.967   3.141  2.9060 -0.7996 -1.2842
 3555SOL    HW214258  10.669   9.034   3.146  1.5583  1.9706  0.9051
 3556SOL     OW14259   2.746   5.214   5.354 -0.2437  0.3641  0.0277
 3556SOL    HW114260   2.760   5.307   5.337 -0.3903  0.4649  0.4645
 3556SOL    HW214261   2.652   5.201   5.343 -0.1571  0.1678 -0.5130
 3557SOL     OW14262   4.254   1.043   3.879 -0.1277  0.5151  0.4061
 3557SOL    HW114263   4.197   0.967   3.866  1.4459 -0.9146  1.3913
 3557SOL    HW214264   4.340   1.005   3.897  0.9891  2.5770 -0.3006
 3558SOL     OW14265   3.098   1.216   2.418 -0.0765 -0.5295  0.2831
 3558SOL    HW114266   3.153   1.192   2.343  1.1342  0.3842  0.8440
 3558SOL    HW214267   3.010   1.185   2.394  0.6906 -2.1896 -0.5615
 3559SOL     OW14268  10.169   3.408  10.944 -0.4733 -0.1174  0.6082
 3559SOL    HW114269  10.118   3.464  11.002 -1.9935 -0.5337 -0.2718
 3559SOL    HW214270  10.141   3.319  10.966 -0.1288 -0.3529  0.0990
 3560SOL     OW14271   8.826  10.887   4.499  0.3585  0.5601  0.3028
 3560SOL    HW114272   8.765  10.940   4.449 -0.0071 -1.0193 -1.0198
 3560SOL    HW214273   8.813  10.914   4.590 -1.5013  1.0450 -0.0735
 3561SOL     OW14274   3.108   6.694   7.206 -0.7967 -0.5471 -0.1662
 3561SOL    HW114275   3.116   6.650   7.121 -1.4757 -1.9371  0.4548
 3561SOL    HW214276   3.031   6.749   7.198 -0.4971 -0.1895 -0.6459
 3562SOL     OW14277   5.943   2.508   6.401 -0.1046  0.2101 -0.1138
 3562SOL    HW114278   5.874   2.481   6.462  1.2238 -0.8914  0.9583
 3562SOL    HW214279   5.952   2.602   6.415 -2.4023  0.6893 -1.3777
 3563SOL     OW14280   5.966   9.621   2.306 -0.3090 -0.2126 -0.4257
 3563SOL    HW114281   5.995   9.530   2.294 -1.4078 -0.5013 -1.0050
 3563SOL    HW214282   5.971   9.659   2.219 -1.7847 -0.3188 -0.5771
 3564SOL     OW14283  10.478  10.610  10.913 -0.3838 -0.1106  0.3287
 3564SOL    HW114284  10.499  10.555  10.988 -1.0587 -3.0134 -1.4632
 3564SOL    HW214285  10.382  10.613  10.912 -0.3841  2.1682  1.0216
 3565SOL     OW14286   2.174   4.730   4.020  0.1922 -0.2713  0.3349
 3565SOL    HW114287   2.172   4.753   4.113  0.2567 -3.1730  1.1322
 3565SOL    HW214288   2.235   4.793   3.982 -0.0002  1.1372  2.1904
 3566SOL     OW14289   8.037   8.711   8.241 -0.0508  0.1056 -0.2601
 3566SOL    HW114290   8.024   8.801   8.268  0.6848  0.5701 -1.3889
 3566SOL    HW214291   8.057   8.716   8.148  2.6205 -0.9586  0.1608
 3567SOL     OW14292   3.297   5.626   9.891 -0.5598 -0.1085  0.2487
 3567SOL    HW114293   3.286   5.717   9.865 -2.2390  0.2877  2.0636
 3567SOL    HW214294   3.268   5.576   9.815 -1.4867  0.9238 -0.1175
 3568SOL     OW14295   0.685   8.396   1.556 -0.2301 -0.1975  0.6408
 3568SOL    HW114296   0.704   8.484   1.524 -0.8630  0.4460  1.9442
 3568SOL    HW214297   0.646   8.410   1.643  0.1906 -1.7876  1.1240
 3569SOL     OW14298   2.201   9.962   8.714 -0.3157 -0.2738  0.2325
 3569SOL    HW114299   2.251   9.978   8.794  1.0415 -1.0175 -0.4267
 3569SOL    HW214300   2.202   9.867   8.703  0.0430 -0.1567 -0.9748
 3570SOL     OW14301   2.754   2.969   2.201  0.0987 -0.4565  0.2301
 3570SOL    HW114302   2.812   2.895   2.215 -0.5090 -1.7438 -3.2037
 3570SOL    HW214303   2.667   2.937   2.227  0.0056 -0.6166 -0.2643
 3571SOL     OW14304   4.335   9.758   4.884  0.5551  0.8988  0.5751
 3571SOL    HW114305   4.426   9.757   4.914  0.5803 -0.0995  0.5227
 3571SOL    HW214306   4.305   9.847   4.900  2.2952  2.0171 -1.7526
 3572SOL     OW14307   5.979   4.500   1.216 -0.5706 -0.0685 -0.8888
 3572SOL    HW114308   5.999   4.568   1.280  2.5133 -0.5591 -1.1694
 3572SOL    HW214309   6.012   4.535   1.133  0.3138 -1.5131 -1.1849
 3573SOL     OW14310   2.916   4.492   6.836 -0.6636 -0.1096 -0.9254
 3573SOL    HW114311   2.924   4.407   6.878  1.3255 -0.5092 -2.0115
 3573SOL    HW214312   2.829   4.491   6.795 -0.9693 -1.2954 -0.2713
 3574SOL     OW14313   1.831   6.701  10.194  0.0515  0.1477 -0.0176
 3574SOL    HW114314   1.908   6.759  10.190  0.4527 -0.2430  1.5131
 3574SOL    HW214315   1.862   6.619  10.153  0.9138 -0.4612  1.7545
 3575SOL     OW14316   7.641   4.400   7.899  0.2705 -0.3845 -1.1839
 3575SOL    HW114317   7.663   4.363   7.984 -0.0229 -0.8526 -1.3054
 3575SOL    HW214318   7.591   4.478   7.918 -0.0977 -0.6830 -0.9272
 3576SOL     OW14319   8.922   7.431   5.381 -0.3603 -0.1135  0.3340
 3576SOL    HW114320   8.851   7.468   5.328 -0.4620  0.9502  1.1762
 3576SOL    HW214321   8.882   7.411   5.465  0.5605  1.6852  1.2572
 3577SOL     OW14322   0.049   5.814   9.264 -0.1224 -0.2214  0.1607
 3577SOL    HW114323  -0.036   5.799   9.303 -0.6688  0.1261 -0.8537
 3577SOL    HW214324   0.088   5.727   9.257 -1.4465 -0.7256 -1.6598
 3578SOL     OW14325   9.194   6.231   1.074 -0.2458  0.2468 -0.1016
 3578SOL    HW114326   9.222   6.146   1.040  0.4168 -0.0509  1.1349
 3578SOL    HW214327   9.111   6.214   1.117 -1.1860  0.6625 -1.6782
 3579SOL     OW14328   4.303   4.159   8.279  0.1818  0.9081 -0.1900
 3579SOL    HW114329   4.345   4.183   8.196  0.8377  1.3739  0.2628
 3579SOL    HW214330   4.376   4.143   8.339 -0.2888  0.9213  0.3981
 3580SOL     OW14331  10.394   6.655  10.163 -0.2708  0.1893  0.8217
 3580SOL    HW114332  10.378   6.561  10.163 -0.6802  0.1884 -1.6839
 3580SOL    HW214333  10.485   6.664  10.193  0.8525 -1.3331 -1.7827
 3581SOL     OW14334   5.998   7.940   0.846 -0.9639  0.4730 -0.1651
 3581SOL    HW114335   5.942   7.863   0.849 -0.5221  0.1587  0.2108
 3581SOL    HW214336   6.020   7.952   0.754 -1.3678  0.3933 -0.2701
 3582SOL     OW14337   6.832   3.113   0.529  0.1334 -0.8422  0.4173
 3582SOL    HW114338   6.803   3.022   0.542 -2.7311 -0.0872 -0.0068
 3582SOL    HW214339   6.765   3.166   0.571  0.7944  1.1344 -0.8698
 3583SOL     OW14340   1.987  10.557  10.944 -0.2510 -0.2376 -0.2777
 3583SOL    HW114341   1.898  10.545  10.976 -0.2722 -1.3210 -0.7040
 3583SOL    HW214342   2.030  10.610  11.012 -0.4742 -1.9345  1.2987
 3584SOL     OW14343   6.078   9.588   7.533  0.1746 -0.1791  0.5297
 3584SOL    HW114344   6.124   9.534   7.469  2.2635  1.7611  0.2767
 3584SOL    HW214345   6.078   9.676   7.495 -2.9892  0.1471  0.9790
 3585SOL     OW14346   4.738   6.509   7.730  0.2212  0.5230  0.5275
 3585SOL    HW114347   4.818   6.525   7.779  0.7112 -0.1068 -0.0434
 3585SOL    HW214348   4.719   6.416   7.743 -0.1619  0.5615  0.2882
 3586SOL     OW14349   5.189  10.207   5.853  0.5376  0.4776 -0.0520
 3586SOL    HW114350   5.264  10.265   5.863  0.9446  0.5113 -2.6441
 3586SOL    HW214351   5.117  10.264   5.824  0.7862 -0.1649 -2.0516
 3587SOL     OW14352   7.825   9.447   0.629  0.0789 -0.2807  0.7656
 3587SOL    HW114353   7.795   9.361   0.599 -0.0971  0.3993 -1.1065
 3587SOL    HW214354   7.920   9.436   0.641  0.3955 -0.2652 -1.3724
 3588SOL     OW14355   3.706   7.061   1.763  0.2243  0.1256 -0.3937
 3588SOL    HW114356   3.720   7.080   1.856 -1.2663 -0.8953  0.0904
 3588SOL    HW214357   3.739   6.971   1.752 -2.3641 -0.9722 -0.0440
 3589SOL     OW14358   1.324   0.926   0.906 -0.3847  0.4603 -0.3076
 3589SOL    HW114359   1.385   0.927   0.979 -0.4549 -1.3718 -0.1679
 3589SOL    HW214360   1.239   0.906   0.946 -0.4749 -0.2524 -0.8330
 3590SOL     OW14361   2.287   2.238   9.871  0.0245  0.5416  0.1225
 3590SOL    HW114362   2.311   2.180   9.799 -0.4487 -0.9275  1.0982
 3590SOL    HW214363   2.271   2.323   9.829 -1.4330 -0.5515 -1.6892
 3591SOL     OW14364   8.924   2.403   5.604  0.1971  0.6226 -0.2805
 3591SOL    HW114365   8.971   2.356   5.673  0.5061  1.4581  0.0985
 3591SOL    HW214366   8.881   2.335   5.553  3.4989 -0.4478 -1.9550
 3592SOL     OW14367   7.314   5.044   2.860 -0.5560  0.0037 -0.1597
 3592SOL    HW114368   7.242   5.105   2.877 -0.6836 -0.1080 -0.2999
 3592SOL    HW214369   7.393   5.093   2.884 -0.8037 -0.6097  2.1490
 3593SOL     OW14370   7.495   9.191   4.549  0.5396 -0.0561  0.1177
 3593SOL    HW114371   7.423   9.206   4.609  0.3383  0.2800 -0.2056
 3593SOL    HW214372   7.565   9.154   4.603  0.6358  0.9721  0.7086
 3594SOL     OW14373   1.068  10.519   5.896 -0.4353  0.1338 -0.1882
 3594SOL    HW114374   0.995  10.458   5.893 -2.0356  1.9706 -0.1779
 3594SOL    HW214375   1.070  10.551   5.986  1.6287 -1.2415  0.3446
 3595SOL     OW14376   9.465  11.104   4.438 -0.0730 -0.3516 -0.2461
 3595SOL    HW114377   9.558  11.083   4.427 -0.4189 -1.3360 -1.4550
 3595SOL    HW214378   9.440  11.058   4.519 -0.0906 -2.1919 -1.2514
 3596SOL     OW14379  10.240  10.335  10.846 -0.5770 -0.3462 -0.1453
 3596SOL    HW114380  10.148  10.308  10.849 -0.8647  0.6245  0.2684
 3596SOL    HW214381  10.251  10.390  10.924 -0.9908  3.6398 -2.6415
 3597SOL     OW14382   8.254   3.275   8.811  0.0623  0.2026  0.2470
 3597SOL    HW114383   8.238   3.223   8.732 -1.0931  0.8710  0.0179
 3597SOL    HW214384   8.246   3.366   8.782 -1.1536  0.4485  1.2819
 3598SOL     OW14385   6.217   5.538  10.141 -0.4242 -0.1528  0.1591
 3598SOL    HW114386   6.123   5.527  10.128 -0.3389 -1.1310  0.2919
 3598SOL    HW214387   6.247   5.453  10.173  0.3512  0.4384  1.0483
 3599SOL     OW14388   8.127   9.102   4.263  0.3709  0.4700 -0.0529
 3599SOL    HW114389   8.066   9.055   4.321  0.2596  0.4205 -0.2096
 3599SOL    HW214390   8.137   9.188   4.305 -0.5605  0.8258 -0.5283
 3600SOL     OW14391  10.730  10.437   3.396  0.5703  0.0929  0.6928
 3600SOL    HW114392  10.769  10.507   3.448  2.7452  0.2222 -0.9790
 3600SOL    HW214393  10.747  10.357   3.446  1.9627  0.3018  0.5843
 3601SOL     OW14394   8.630  11.106   6.947 -0.0428  0.0438 -0.4955
 3601SOL    HW114395   8.658  11.021   6.915 -0.9820 -0.1641 -0.7811
 3601SOL    HW214396   8.613  11.157   6.868 -0.8395  0.0400 -0.3299
 3602SOL     OW14397   2.973   8.479   5.696  0.0229 -0.0066  0.7467
 3602SOL    HW114398   3.060   8.470   5.659 -0.4129 -1.0664 -0.1021
 3602SOL    HW214399   2.941   8.564   5.665  0.9148  0.6018  1.4611
 3603SOL     OW14400   3.116   1.760   8.322  0.1326 -0.1756 -0.4341
 3603SOL    HW114401   3.099   1.682   8.376 -0.7428  0.4260  0.1791
 3603SOL    HW214402   3.105   1.833   8.382 -1.1167  0.5291 -1.4635
 3604SOL     OW14403   5.176   4.767   6.730 -0.1224  0.6166  0.0986
 3604SOL    HW114404   5.263   4.727   6.738  0.0461  0.7589 -0.9198
 3604SOL    HW214405   5.176   4.837   6.796  0.3124  0.2377  0.5125
 3605SOL     OW14406   8.100   5.062   1.735  0.5941 -0.5138  0.0372
 3605SOL    HW114407   8.034   5.004   1.697 -0.0912 -0.2153  0.7561
 3605SOL    HW214408   8.050   5.127   1.783  1.3966  0.0906  0.0715
 3606SOL     OW14409   1.713   8.571   1.908  1.1119 -0.0348  0.5630
 3606SOL    HW114410   1.618   8.577   1.900  1.2578 -0.3013 -2.7577
 3606SOL    HW214411   1.744   8.661   1.908  0.8909  0.0403  0.5429
 3607SOL     OW14412   6.930   3.444  10.313  0.1940 -0.3881 -0.0677
 3607SOL    HW114413   6.912   3.495  10.392  0.2411  1.1054 -0.9810
 3607SOL    HW214414   6.951   3.357  10.345 -0.6856 -0.0600  1.5137
 3608SOL     OW14415   6.735   9.798   7.031  0.4362 -0.0479  0.3381
 3608SOL    HW114416   6.818   9.768   7.067 -0.3933 -2.2936  0.5267
 3608SOL    HW214417   6.690   9.837   7.106  0.2871 -1.2016  0.8720
 3609SOL     OW14418   1.665   2.366   7.760  0.2036  0.5608  0.2198
 3609SOL    HW114419   1.577   2.384   7.795  0.9945  2.7707  1.3140
 3609SOL    HW214420   1.718   2.349   7.838  1.0143  0.6788 -0.2985
 3610SOL     OW14421   4.833   7.804   2.953 -0.2963 -0.1491 -0.0446
 3610SOL    HW114422   4.850   7.741   2.883 -0.8002 -2.2834  1.6527
 3610SOL    HW214423   4.765   7.861   2.918  2.1883  1.4095 -2.7254
 3611SOL     OW14424   7.450   2.700  11.032 -0.3951 -0.1183 -0.5302
 3611SOL    HW114425   7.395   2.716  11.109 -1.2060 -0.1445 -1.1043
 3611SOL    HW214426   7.395   2.651  10.972  0.0829  0.3094 -1.3336
 3612SOL     OW14427   0.177   3.917   7.996  0.2885 -0.2346  0.2777
 3612SOL    HW114428   0.164   4.011   8.007 -0.3155 -0.1557 -0.9418
 3612SOL    HW214429   0.250   3.910   7.933  0.5787 -0.5873  0.6482
 3613SOL     OW14430   6.254   7.031   4.539  0.1980  0.2005  0.1325
 3613SOL    HW114431   6.188   6.994   4.598 -0.0017  0.4571  0.0735
 3613SOL    HW214432   6.207   7.047   4.458  0.9998 -2.3626 -0.9402
 3614SOL     OW14433   9.300   1.646   1.171 -0.3850 -0.6344  0.4818
 3614SOL    HW114434   9.220   1.626   1.123  1.4407 -1.3588 -2.5387
 3614SOL    HW214435   9.293   1.596   1.252 -2.1028 -2.3638 -0.6503
 3615SOL     OW14436   5.691   5.958  10.954  0.3050  0.7431  0.1525
 3615SOL    HW114437   5.617   5.974  11.013 -0.2901  0.8304 -0.6139
 3615SOL    HW214438   5.683   5.865  10.931  0.1573  0.8690 -0.3051
 3616SOL     OW14439   2.895  10.233   9.530 -0.4092  0.0153 -0.0795
 3616SOL    HW114440   2.868  10.178   9.603 -0.3168  0.2954  0.1685
 3616SOL    HW214441   2.983  10.263   9.553 -0.6466  0.6577  0.0176
 3617SOL     OW14442   5.907   0.404   6.463 -0.4306 -0.0708 -0.0316
 3617SOL    HW114443   5.830   0.379   6.514  0.2870  2.1834  2.4218
 3617SOL    HW214444   5.873   0.460   6.394 -1.0292  1.0786  1.1518
 3618SOL     OW14445   9.131   0.597  10.959  0.2101  0.2617  0.0381
 3618SOL    HW114446   9.094   0.602  11.047  1.9916  0.2286  0.8407
 3618SOL    HW214447   9.126   0.687  10.925 -1.1237  0.1444 -0.1516
 3619SOL     OW14448   3.904   9.514   1.798 -0.4655  0.2680 -0.2827
 3619SOL    HW114449   3.849   9.570   1.743  0.4826  1.2337 -0.2784
 3619SOL    HW214450   3.850   9.437   1.816 -1.1580  0.3932 -1.7240
 3620SOL     OW14451   5.680   4.523   2.641 -0.0534  0.1197  0.0712
 3620SOL    HW114452   5.714   4.599   2.594 -1.5569  1.2795  0.7661
 3620SOL    HW214453   5.755   4.492   2.693  0.7989  0.6208 -0.8110
 3621SOL     OW14454  10.682   0.792   3.562  0.0940  0.2841 -0.5818
 3621SOL    HW114455  10.699   0.714   3.509  1.3807 -0.3489  0.7138
 3621SOL    HW214456  10.727   0.776   3.645 -0.4644  1.9731  0.0957
 3622SOL     OW14457  10.472   2.757   8.380 -0.6330  0.0695 -0.2595
 3622SOL    HW114458  10.399   2.810   8.410  1.7387  1.9401  2.7269
 3622SOL    HW214459  10.449   2.667   8.405 -2.2630  0.4559 -0.2830
 3623SOL     OW14460   0.470  10.916   8.590  0.0400 -0.2077  0.0227
 3623SOL    HW114461   0.405  10.961   8.535  0.6343 -0.4273 -0.8822
 3623SOL    HW214462   0.513  10.987   8.639 -1.1603 -0.0984  0.9650
 3624SOL     OW14463   2.667   3.570   8.640  1.1870 -0.5462 -0.1220
 3624SOL    HW114464   2.747   3.613   8.672  0.2020  1.6779 -0.4520
 3624SOL    HW214465   2.613   3.560   8.718  0.8038  0.2694 -0.2708
 3625SOL     OW14466   5.102   7.755   3.834  0.0519 -0.0344 -0.0922
 3625SOL    HW114467   5.036   7.732   3.769 -1.1913 -3.1008  2.0676
 3625SOL    HW214468   5.062   7.827   3.884 -0.1849  0.3973 -0.8813
 3626SOL     OW14469   5.688   2.080   7.805  0.4945  0.2263  0.1850
 3626SOL    HW114470   5.745   2.006   7.787 -0.0199 -0.5035  1.4543
 3626SOL    HW214471   5.628   2.049   7.873 -1.5136  0.9289 -1.1860
 3627SOL     OW14472   3.333   6.152   0.738 -0.2015  0.2565  0.2253
 3627SOL    HW114473   3.302   6.237   0.707 -0.5874 -0.3568 -1.1551
 3627SOL    HW214474   3.424   6.167   0.764  0.2417  0.7554 -1.5342
 3628SOL     OW14475   5.802   1.763   7.583  0.6092  0.5529  0.3502
 3628SOL    HW114476   5.717   1.748   7.541  1.3070  2.5654 -2.0256
 3628SOL    HW214477   5.781   1.765   7.677 -1.8621  0.3815 -0.1096
 3629SOL     OW14478  10.823   3.630   4.590 -0.1411  0.0013  0.6800
 3629SOL    HW114479  10.831   3.680   4.508  1.2938 -0.6455  0.4070
 3629SOL    HW214480  10.795   3.543   4.561  1.5344 -0.5801  0.7423
 3630SOL     OW14481   5.814   4.449   5.090  0.3773 -0.4006  1.0102
 3630SOL    HW114482   5.849   4.530   5.052 -0.9092  1.1361  2.8876
 3630SOL    HW214483   5.828   4.383   5.023 -0.3980  1.8138 -1.4965
 3631SOL     OW14484   1.395   8.169   7.639 -0.3543  0.2284 -0.4495
 3631SOL    HW114485   1.377   8.085   7.595 -3.5065  0.0872  0.8196
 3631SOL    HW214486   1.368   8.154   7.730  1.8001  1.8081  0.5136
 3632SOL     OW14487   3.313   2.310  10.272 -0.4791  0.1542 -0.6242
 3632SOL    HW114488   3.365   2.339  10.348  0.6864 -0.9124 -0.9856
 3632SOL    HW214489   3.308   2.388  10.216  0.6774  0.2965 -0.5474
 3633SOL     OW14490  10.283   0.984   9.393  0.1247  0.0739  0.0248
 3633SOL    HW114491  10.349   1.014   9.456 -1.5542  1.2027  1.3134
 3633SOL    HW214492  10.318   0.901   9.359  2.8929  1.3147 -0.4469
 3634SOL     OW14493   2.685  10.471   9.928 -0.0657 -0.2793 -0.3459
 3634SOL    HW114494   2.771  10.472   9.888 -0.4327  1.3959 -1.1703
 3634SOL    HW214495   2.691  10.405   9.997  1.2445 -1.6416 -1.7038
 3635SOL     OW14496   8.967   3.206   8.831 -0.6597  0.0865  0.0022
 3635SOL    HW114497   9.056   3.174   8.821 -0.1283  1.4260  0.1887
 3635SOL    HW214498   8.914   3.128   8.842  0.3295 -0.8055 -1.2530
 3636SOL     OW14499   4.514   5.595   9.626  0.2760 -0.2312 -0.4470
 3636SOL    HW114500   4.588   5.550   9.665  0.3851 -0.1875 -0.6034
 3636SOL    HW214501   4.438   5.560   9.672  0.5350  1.1557  1.1138
 3637SOL     OW14502   2.444   3.570  10.746 -0.3229 -0.4514 -0.1650
 3637SOL    HW114503   2.393   3.543  10.822  0.1063 -2.3399 -0.4940
 3637SOL    HW214504   2.534   3.544  10.766  0.1672  0.8821 -0.4924
 3638SOL     OW14505  10.014   1.994   8.082  0.3164 -0.7220  0.2784
 3638SOL    HW114506   9.977   2.062   8.139  0.0062 -0.9841  0.3924
 3638SOL    HW214507   9.950   1.982   8.012  0.8103 -0.2314 -0.2640
 3639SOL     OW14508  10.572   6.664   3.453  0.2155 -0.2102 -0.2815
 3639SOL    HW114509  10.557   6.754   3.481 -0.0016 -0.5732  0.8478
 3639SOL    HW214510  10.592   6.617   3.535 -0.0802 -1.2597 -0.7973
 3640SOL     OW14511   0.975   6.721  10.833  0.8438 -0.4256 -0.0147
 3640SOL    HW114512   0.885   6.714  10.801  1.1010  1.0587 -1.1361
 3640SOL    HW214513   0.992   6.636  10.875 -0.5021 -1.3459 -1.2345
 3641SOL     OW14514   5.302   9.581   1.420  0.0825  0.5843  0.0521
 3641SOL    HW114515   5.347   9.576   1.335 -0.4441 -2.5935 -0.1751
 3641SOL    HW214516   5.222   9.630   1.402 -0.4174 -0.7031 -1.5743
 3642SOL     OW14517   6.049  10.407   9.416 -0.3178  0.2133  0.2993
 3642SOL    HW114518   5.963  10.437   9.388 -0.6846  0.4773  1.6504
 3642SOL    HW214519   6.062  10.324   9.370  0.3184  1.8874 -2.7743
 3643SOL     OW14520   8.739   1.274   6.243 -0.4066 -0.0111  0.0007
 3643SOL    HW114521   8.697   1.325   6.312 -0.6864  0.8553 -0.7866
 3643SOL    HW214522   8.669   1.217   6.211 -1.1929  1.7286 -1.5985
 3644SOL     OW14523   8.243   8.789   1.584 -0.7850  0.0643  0.3266
 3644SOL    HW114524   8.312   8.853   1.565 -0.3758 -0.4943 -0.1127
 3644SOL    HW214525   8.289   8.718   1.629 -0.8912 -0.7464 -0.8239
 3645SOL     OW14526   5.838   5.702   1.287  0.2438 -0.1086 -0.6239
 3645SOL    HW114527   5.837   5.735   1.196 -1.3922  0.8665 -0.2919
 3645SOL    HW214528   5.801   5.774   1.338  1.9666 -0.2957  0.9726
 3646SOL     OW14529   8.677   1.753   7.696 -0.3743  0.0375  0.1480
 3646SOL    HW114530   8.752   1.740   7.754 -1.3977  1.8261  2.0354
 3646SOL    HW214531   8.684   1.845   7.669 -1.8187  0.1967  0.2694
 3647SOL     OW14532   2.923   2.616   0.734  0.0842  0.3950 -0.4305
 3647SOL    HW114533   2.997   2.556   0.742  0.7709  1.0659 -1.5314
 3647SOL    HW214534   2.868   2.596   0.809  0.3067 -1.5984 -0.7357
 3648SOL     OW14535   1.478   0.979   5.506 -0.1625  0.2856  0.2386
 3648SOL    HW114536   1.496   0.885   5.504  0.0509  0.3214  0.4171
 3648SOL    HW214537   1.561   1.018   5.534  0.4821  0.7239 -2.0774
 3649SOL     OW14538   5.557   6.257  10.472  0.6626  0.3211 -0.6641
 3649SOL    HW114539   5.529   6.208  10.549  1.3695  1.3422  0.2754
 3649SOL    HW214540   5.477   6.295  10.437  0.2954 -0.3907 -0.6218
 3650SOL     OW14541   7.834  10.121   9.633  0.4467 -0.0938  0.2694
 3650SOL    HW114542   7.888  10.178   9.577  0.9931 -0.0179  0.8635
 3650SOL    HW214543   7.837  10.035   9.590 -0.0751  0.2210 -0.4292
 3651SOL     OW14544   7.660   5.189   0.178 -0.1775  0.5211 -0.0528
 3651SOL    HW114545   7.684   5.240   0.256  0.4573 -3.3746  2.6171
 3651SOL    HW214546   7.571   5.159   0.196 -0.2113 -0.0370 -1.0955
 3652SOL     OW14547   9.570   1.774  10.769 -0.8372  0.2387  0.1660
 3652SOL    HW114548   9.518   1.699  10.799 -1.1136  0.3674  0.0106
 3652SOL    HW214549   9.605   1.811  10.850 -1.4297  0.4726  0.3216
 3653SOL     OW14550   4.639  10.338   0.822  0.5093  0.0496  0.0255
 3653SOL    HW114551   4.614  10.420   0.779  0.1572  0.1566  0.4284
 3653SOL    HW214552   4.659  10.363   0.913 -0.4866 -0.4466  0.3925
 3654SOL     OW14553   7.632   6.265   8.982 -0.3171  0.6130 -0.2056
 3654SOL    HW114554   7.620   6.178   9.020  2.3158  1.2542  2.4322
 3654SOL    HW214555   7.579   6.323   9.035 -1.7684  0.7661 -1.7278
 3655SOL     OW14556   6.005   9.721   2.557  0.0504  0.2746 -0.1897
 3655SOL    HW114557   6.086   9.770   2.542 -0.3248  0.8303 -0.4517
 3655SOL    HW214558   5.985   9.681   2.472  0.3954 -0.4121  0.0415
 3656SOL     OW14559   6.015  10.446   8.288 -0.3580  0.7831  0.5444
 3656SOL    HW114560   6.027  10.357   8.256  0.7416  1.2958 -0.5429
 3656SOL    HW214561   6.010  10.500   8.209 -0.6226  1.7361  1.1877
 3657SOL     OW14562   1.791   7.489   9.019 -0.5451  0.5530 -0.2345
 3657SOL    HW114563   1.834   7.437   8.951  1.5773  1.5186  0.3047
 3657SOL    HW214564   1.850   7.563   9.034 -0.8776  0.3266  2.7356
 3658SOL     OW14565   3.073   3.933   9.200 -0.2195 -0.1170  0.2632
 3658SOL    HW114566   3.087   3.997   9.130 -0.0130 -1.2365 -0.7493
 3658SOL    HW214567   3.110   3.975   9.278  1.3103  0.3882 -0.6824
 3659SOL     OW14568   3.990   7.765   4.339 -0.3580  1.0555 -0.6714
 3659SOL    HW114569   4.064   7.812   4.378  2.6172 -0.4830 -3.9722
 3659SOL    HW214570   4.008   7.673   4.357 -0.9300  0.5858 -2.3597
 3660SOL     OW14571   1.234   0.642   7.758 -0.6154 -0.3685  0.4629
 3660SOL    HW114572   1.161   0.674   7.811  0.5004  1.2345  1.1291
 3660SOL    HW214573   1.244   0.707   7.689  0.2735 -0.4838  0.4695
 3661SOL     OW14574   3.914   2.691   6.154 -0.1947  0.5145 -0.6872
 3661SOL    HW114575   3.962   2.721   6.077 -2.3675  0.5529 -2.1170
 3661SOL    HW214576   3.898   2.771   6.205  2.2655  0.3358  0.5164
 3662SOL     OW14577   6.132   2.717   6.174 -0.3486 -0.0833  0.2370
 3662SOL    HW114578   6.169   2.691   6.089 -0.3753  1.0540 -0.1390
 3662SOL    HW214579   6.181   2.665   6.238 -1.0999 -1.8039 -0.5211
 3663SOL     OW14580   3.196   9.301   2.457  0.2825 -0.2769  0.1274
 3663SOL    HW114581   3.153   9.371   2.506  2.1680  0.8770  0.2430
 3663SOL    HW214582   3.178   9.222   2.508  0.8497  0.6433  1.8539
 3664SOL     OW14583   7.688   7.793   9.114  0.1975  0.2043 -0.2899
 3664SOL    HW114584   7.756   7.859   9.102  0.1925 -0.1313 -2.5617
 3664SOL    HW214585   7.607   7.843   9.124  0.4327  0.5529 -0.0976
 3665SOL     OW14586  10.378   1.369   9.330  0.5328 -0.0121 -0.0684
 3665SOL    HW114587  10.336   1.333   9.408  0.8433 -0.8169 -0.2595
 3665SOL    HW214588  10.455   1.414   9.363  1.5137 -1.6564 -0.0139
 3666SOL     OW14589   4.786   7.085   8.842  0.1791  0.2456 -0.6238
 3666SOL    HW114590   4.845   7.058   8.772  0.8181 -0.0623  0.0169
 3666SOL    HW214591   4.718   7.018   8.843 -0.4152  0.8023 -1.6127
 3667SOL     OW14592   2.279   3.133   2.018  1.1560  0.4598  0.1118
 3667SOL    HW114593   2.224   3.211   2.014  0.9801  0.4556  1.7416
 3667SOL    HW214594   2.327   3.133   1.935 -2.3176 -0.3384 -2.1351
 3668SOL     OW14595   0.984   0.145   6.265  0.0400 -0.1402 -0.1464
 3668SOL    HW114596   0.967   0.184   6.350  0.3551 -0.5517  0.1098
 3668SOL    HW214597   1.018   0.218   6.212  0.1361  0.0492  0.1698
 3669SOL     OW14598   4.019   5.313  10.724 -0.1145 -0.1546 -0.1785
 3669SOL    HW114599   4.017   5.244  10.791 -1.2691  1.3974  1.4559
 3669SOL    HW214600   3.942   5.297  10.671 -0.4604 -0.0600  0.2873
 3670SOL     OW14601   7.200   1.316   1.927 -0.1311  0.0764 -0.3285
 3670SOL    HW114602   7.280   1.321   1.875  0.1260 -1.9670 -0.2358
 3670SOL    HW214603   7.231   1.309   2.018 -0.4737  0.6240 -0.1653
 3671SOL     OW14604   6.197   0.959   4.724  0.1250  0.2498 -0.0893
 3671SOL    HW114605   6.224   0.975   4.633 -1.6549  0.3400 -0.6248
 3671SOL    HW214606   6.248   1.022   4.775  2.8820 -1.3023 -0.7093
 3672SOL     OW14607   8.854  11.060   0.879 -0.2799 -0.5434  0.7857
 3672SOL    HW114608   8.814  11.071   0.965 -0.0600  0.2429  0.7933
 3672SOL    HW214609   8.817  10.978   0.846 -0.1890 -0.9849  1.7221
 3673SOL     OW14610   4.101   1.534   4.264 -0.6662 -0.0130  0.5302
 3673SOL    HW114611   4.074   1.526   4.172 -3.8548 -1.9116  1.4606
 3673SOL    HW214612   4.102   1.629   4.280 -1.5972  0.3179 -1.0980
 3674SOL     OW14613   1.347   9.664   8.064  0.1121  0.1825  0.0779
 3674SOL    HW114614   1.339   9.645   8.157  1.3514  1.3976  0.4515
 3674SOL    HW214615   1.339   9.578   8.021  2.2030 -0.7736  1.4754
 3675SOL     OW14616   1.602   5.547   8.995 -0.0387 -0.4432  0.1413
 3675SOL    HW114617   1.678   5.521   8.943  0.3439  0.8120  0.0378
 3675SOL    HW214618   1.628   5.531   9.086  0.1197 -0.5837  0.0710
 3676SOL     OW14619   4.528   2.381   5.259  0.3701  0.3517 -0.5599
 3676SOL    HW114620   4.498   2.466   5.293 -1.1896 -0.7950  1.1002
 3676SOL    HW214621   4.622   2.394   5.243  0.4688  2.0058  0.9982
 3677SOL     OW14622   8.472   7.032   4.461  0.4910  0.0388 -0.4061
 3677SOL    HW114623   8.387   7.064   4.433  0.2100 -0.8322 -0.5745
 3677SOL    HW214624   8.473   7.043   4.556 -1.1006 -2.8435  0.0527
 3678SOL     OW14625   9.505   9.503   0.239  0.1101 -0.1651  0.4333
 3678SOL    HW114626   9.520   9.579   0.183 -0.1074  0.6839  1.4998
 3678SOL    HW214627   9.456   9.537   0.313 -2.2835 -1.8070 -0.2485
 3679SOL     OW14628   2.553   7.348   1.874 -0.4060  0.2789 -0.1289
 3679SOL    HW114629   2.498   7.421   1.842  1.7876  1.0242 -2.5060
 3679SOL    HW214630   2.564   7.366   1.967 -1.4849  1.9433 -0.2752
 3680SOL     OW14631   1.628   4.331   3.737 -0.1293  0.4285 -0.0295
 3680SOL    HW114632   1.705   4.387   3.743 -0.2470  0.4398  4.3254
 3680SOL    HW214633   1.554   4.391   3.740 -0.2710  0.2398  0.3236
 3681SOL     OW14634   8.991   1.356   9.652 -0.0481 -0.5921  0.4487
 3681SOL    HW114635   8.993   1.262   9.635  0.0320 -0.7054  1.0590
 3681SOL    HW214636   8.939   1.365   9.732 -1.4426  0.0257 -0.4815
 3682SOL     OW14637   8.545   2.633   1.786  0.0254  0.0425  0.2443
 3682SOL    HW114638   8.527   2.538   1.786 -0.7276  0.1790  0.9846
 3682SOL    HW214639   8.458   2.673   1.791  0.0809  0.8532 -2.8636
 3683SOL     OW14640   6.135   8.168  10.399 -0.5129  0.5155  0.2800
 3683SOL    HW114641   6.150   8.096  10.461 -1.8537 -0.2538 -0.2477
 3683SOL    HW214642   6.051   8.147  10.359  0.2854  1.0278 -1.7770
 3684SOL     OW14643   8.484   8.180   5.781  0.7520 -0.5303 -0.1895
 3684SOL    HW114644   8.419   8.113   5.761  1.0263 -0.8315 -0.0920
 3684SOL    HW214645   8.535   8.143   5.853 -0.1907  0.5167  1.0528
 3685SOL     OW14646   7.061   3.127   9.504 -0.3623 -0.6980  0.0965
 3685SOL    HW114647   7.042   3.115   9.597  0.4581  1.1359  0.5324
 3685SOL    HW214648   6.976   3.143   9.464 -0.5850 -0.2401  0.7450
 3686SOL     OW14649   5.971   3.458   3.384  0.0369  0.0934  0.6521
 3686SOL    HW114650   6.005   3.459   3.474  0.3543 -0.7822  0.5535
 3686SOL    HW214651   5.879   3.482   3.393  0.3682  1.2779  1.0639
 3687SOL     OW14652   0.840  10.870   3.365  0.4156  0.9318  0.2915
 3687SOL    HW114653   0.924  10.900   3.331 -0.3844  1.0135 -1.7929
 3687SOL    HW214654   0.862  10.797   3.423  1.8790  0.4998 -0.7538
 3688SOL     OW14655   7.025   6.382   1.789  0.3932  0.3207 -0.1946
 3688SOL    HW114656   7.018   6.477   1.781 -1.3282  0.1215 -1.6572
 3688SOL    HW214657   6.985   6.362   1.873  1.0428  0.8868  0.2639
 3689SOL     OW14658   8.302   4.530   2.646 -0.2083 -0.2807  0.8506
 3689SOL    HW114659   8.380   4.547   2.699 -0.5967 -0.4748  1.4938
 3689SOL    HW214660   8.261   4.616   2.636  1.0899  0.1783 -1.1405
 3690SOL     OW14661   6.044   9.400   1.218 -0.0035  0.4402  0.1136
 3690SOL    HW114662   6.004   9.484   1.195 -1.4942 -1.1017 -3.7729
 3690SOL    HW214663   5.970   9.346   1.247  0.8249  0.1853  1.8681
 3691SOL     OW14664   6.789   6.725   9.758  0.1623 -0.3694 -0.0424
 3691SOL    HW114665   6.804   6.755   9.848  1.5311  0.2014 -0.4456
 3691SOL    HW214666   6.876   6.716   9.720 -0.3858 -0.9686 -1.2095
 3692SOL     OW14667   8.727   6.463   6.103 -0.0512  0.2174  0.2304
 3692SOL    HW114668   8.746   6.542   6.153  1.5444  1.6035 -2.2926
 3692SOL    HW214669   8.756   6.391   6.159  0.5626  1.5742  1.7265
 3693SOL     OW14670   3.062  10.954   3.353 -0.6632  0.5910 -0.1075
 3693SOL    HW114671   3.051  11.018   3.424 -1.1404 -0.2893  0.6385
 3693SOL    HW214672   3.156  10.934   3.353 -0.8996 -0.7411  1.5136
 3694SOL     OW14673   0.876   0.084   6.796  0.7224  0.4572  0.4656
 3694SOL    HW114674   0.849   0.116   6.710  1.5838 -0.1715 -0.0608
 3694SOL    HW214675   0.911  -0.004   6.779  0.1995  0.0194  1.5826
 3695SOL     OW14676   7.129   3.060   5.026 -0.0754  0.0577 -0.5392
 3695SOL    HW114677   7.162   3.028   5.110  0.9778 -0.2692 -1.0590
 3695SOL    HW214678   7.206   3.097   4.982 -0.4488 -0.4812 -1.6850
 3696SOL     OW14679   5.954  10.991   6.425  0.2310 -0.1328  0.3515
 3696SOL    HW114680   6.049  10.991   6.415  0.1154 -0.6426 -1.0448
 3696SOL    HW214681   5.934  11.075   6.466  1.2625  0.0861  0.4401
 3697SOL     OW14682   7.680   0.219   0.587 -0.0457 -0.0237  0.5145
 3697SOL    HW114683   7.617   0.155   0.618 -1.0730 -0.6427 -2.5595
 3697SOL    HW214684   7.632   0.272   0.523  1.6700  1.6953  0.5433
 3698SOL     OW14685   3.922   1.440   9.540 -1.0302 -0.9566 -0.1616
 3698SOL    HW114686   3.832   1.470   9.524 -0.1337  1.6406 -0.8689
 3698SOL    HW214687   3.967   1.453   9.457  0.2622 -1.1187  0.4898
 3699SOL     OW14688   8.360   7.064   2.054  0.0497  0.1219 -0.8348
 3699SOL    HW114689   8.322   6.977   2.062  0.2086  0.1763  0.6897
 3699SOL    HW214690   8.314   7.116   2.120 -0.7147  1.4558 -2.3394
 3700SOL     OW14691   7.353   4.298   6.115  0.6913 -0.0674  0.7004
 3700SOL    HW114692   7.289   4.277   6.047 -0.2261 -0.2150  1.5885
 3700SOL    HW214693   7.323   4.382   6.151  1.8526  0.6211  0.1401
 3701SOL     OW14694  11.000   7.908  10.636 -0.1415 -0.1317 -0.3808
 3701SOL    HW114695  11.003   7.987  10.582 -0.9869  0.2698  0.1450
 3701SOL    HW214696  11.059   7.847  10.591  2.1877  1.4582  0.3473
 3702SOL     OW14697   7.186   8.584   0.641 -0.2569 -0.0626  0.3164
 3702SOL    HW114698   7.240   8.658   0.611 -0.8055 -0.2609 -1.2939
 3702SOL    HW214699   7.216   8.566   0.730  0.1011  1.9044  0.6434
 3703SOL     OW14700   4.187  10.450   6.776 -0.1721  0.3896  0.4413
 3703SOL    HW114701   4.192  10.478   6.684 -0.4425 -1.0316 -0.0318
 3703SOL    HW214702   4.094  10.459   6.798 -0.0747  0.9145  0.6338
 3704SOL     OW14703   5.621   3.633   8.642 -0.4688  0.0772 -0.3934
 3704SOL    HW114704   5.654   3.578   8.713  0.7636  0.6545 -0.4995
 3704SOL    HW214705   5.692   3.694   8.624 -1.7415  1.6422 -0.3608
 3705SOL     OW14706   8.931   1.943   7.740  0.5261  0.1497  0.1217
 3705SOL    HW114707   8.900   1.952   7.650  0.6738  2.3712  0.2237
 3705SOL    HW214708   9.008   1.887   7.733  0.7414  0.5703 -1.2088
 3706SOL     OW14709   9.579   5.357   6.440  0.3222 -0.2427 -0.0439
 3706SOL    HW114710   9.547   5.328   6.354  0.2084  1.6560 -0.6751
 3706SOL    HW214711   9.502   5.350   6.497  0.5246 -2.0165  0.0833
 3707SOL     OW14712   2.452  10.775   9.452 -0.4856 -0.2741  0.4885
 3707SOL    HW114713   2.411  10.770   9.366  0.3157 -1.4777  0.1410
 3707SOL    HW214714   2.385  10.744   9.512 -0.3566 -1.5681  0.0083
 3708SOL     OW14715   8.136   3.555   2.300 -0.1853 -0.1284  0.1704
 3708SOL    HW114716   8.223   3.518   2.314  0.1144  0.4521 -0.1149
 3708SOL    HW214717   8.085   3.526   2.376  0.8071  1.1829  1.4013
 3709SOL     OW14718   4.024   7.524   8.822  0.2448 -0.3555 -0.2249
 3709SOL    HW114719   4.049   7.451   8.878 -1.9992 -0.7106  0.4364
 3709SOL    HW214720   3.958   7.571   8.873 -1.4046 -0.3083 -2.2597
 3710SOL     OW14721   7.836   0.524   0.652 -0.5146 -0.0368  0.3104
 3710SOL    HW114722   7.833   0.433   0.623 -1.3574 -0.0550  0.4376
 3710SOL    HW214723   7.839   0.518   0.747  1.5550  0.0395  0.3058
 3711SOL     OW14724   9.406   7.478   7.318 -0.3816  0.1289 -0.1003
 3711SOL    HW114725   9.441   7.516   7.237  0.2423  1.2274  0.6466
 3711SOL    HW214726   9.456   7.520   7.388 -1.3317 -0.3202  0.8936
 3712SOL     OW14727   0.394   3.102   7.510  0.2952  0.3605 -0.9214
 3712SOL    HW114728   0.402   3.007   7.518  2.0929  0.5719  0.6003
 3712SOL    HW214729   0.442   3.124   7.430 -0.5029 -0.0343 -1.5170
 3713SOL     OW14730   9.434   3.068   6.509 -0.3500 -0.1684 -0.2613
 3713SOL    HW114731   9.377   3.142   6.488  0.2771  0.1241 -1.0066
 3713SOL    HW214732   9.385   3.016   6.572 -1.1481  0.4429 -0.3689
 3714SOL     OW14733   1.182   5.327   2.022  0.1700 -0.0994 -0.1809
 3714SOL    HW114734   1.221   5.273   1.953  0.3082 -0.0709 -0.1267
 3714SOL    HW214735   1.136   5.397   1.975 -0.5024 -0.5908 -0.2675
 3715SOL     OW14736   0.091   9.673   3.205 -0.1543  0.0063 -0.2138
 3715SOL    HW114737   0.136   9.631   3.278 -0.8947  1.5353  1.1863
 3715SOL    HW214738   0.005   9.696   3.239 -0.5299  0.7613 -1.5659
 3716SOL     OW14739   7.477   7.572   5.832  0.1263  0.2360 -0.2615
 3716SOL    HW114740   7.492   7.633   5.904  1.3589 -0.9018  0.4823
 3716SOL    HW214741   7.382   7.575   5.818 -0.1209  0.5676  1.3322
 3717SOL     OW14742   8.647   6.159   3.563  0.1980  0.4578 -0.5335
 3717SOL    HW114743   8.617   6.081   3.516 -1.1873  0.2986  0.5652
 3717SOL    HW214744   8.600   6.232   3.522 -0.9132  0.3337  0.4704
 3718SOL     OW14745   3.811  10.289   5.596  0.1317  0.4156  0.3848
 3718SOL    HW114746   3.895  10.257   5.629  0.0784  0.5839  0.6898
 3718SOL    HW214747   3.825  10.302   5.502  0.2055 -0.3353  0.2867
 3719SOL     OW14748   1.018   7.453   4.432 -0.2016 -0.0925  0.4940
 3719SOL    HW114749   0.990   7.399   4.359 -0.7749  0.6729  0.1360
 3719SOL    HW214750   0.977   7.413   4.509  0.6019 -1.0416  0.4458
 3720SOL     OW14751   3.000   9.501   6.669 -0.1340  0.0974  0.2296
 3720SOL    HW114752   3.040   9.555   6.602 -0.1893  1.1867  1.0442
 3720SOL    HW214753   2.910   9.488   6.640 -0.0268  0.1770 -0.1346
 3721SOL     OW14754   7.716   9.883   6.365 -0.0932  0.1455  0.3194
 3721SOL    HW114755   7.630   9.924   6.356  0.4315  1.3273  0.4415
 3721SOL    HW214756   7.700   9.790   6.350 -1.0888  0.5628 -1.4652
 3722SOL     OW14757   7.814   9.714   1.555  0.7826 -0.2655  0.4218
 3722SOL    HW114758   7.776   9.776   1.618  0.2692  0.3003 -0.4183
 3722SOL    HW214759   7.869   9.656   1.608 -1.5165 -1.3649  1.7774
 3723SOL     OW14760   6.293   2.160   7.832 -0.2441 -0.2986  0.0613
 3723SOL    HW114761   6.240   2.192   7.905 -1.1645 -0.8403 -0.3608
 3723SOL    HW214762   6.230   2.125   7.769  0.6599 -3.2214  0.6092
 3724SOL     OW14763   0.408  10.802   1.540 -0.0671  0.5442  0.0529
 3724SOL    HW114764   0.346  10.738   1.506 -1.1025  0.7385  1.5089
 3724SOL    HW214765   0.361  10.848   1.610  1.6841  0.7279  1.1855
 3725SOL     OW14766   6.193   5.697  10.528 -0.1023  0.1187  0.1314
 3725SOL    HW114767   6.277   5.742  10.525 -0.8836  1.7574  1.2866
 3725SOL    HW214768   6.133   5.756  10.482 -0.4961 -1.3982 -1.3918
 3726SOL     OW14769   5.120   1.828   0.428 -0.4469 -0.0532 -0.1648
 3726SOL    HW114770   5.087   1.746   0.463 -1.4504  0.3810 -0.0641
 3726SOL    HW214771   5.157   1.805   0.343 -0.5140 -0.6370 -0.0399
 3727SOL     OW14772   3.188   0.593   3.297 -0.4006  0.0870  0.3243
 3727SOL    HW114773   3.208   0.589   3.203 -0.4568  0.3499  0.3007
 3727SOL    HW214774   3.248   0.529   3.336 -2.2128 -2.0519 -0.1856
 3728SOL     OW14775  10.917   0.400   9.931  0.3152  0.0596 -0.2314
 3728SOL    HW114776  10.901   0.374   9.841  1.0770 -0.3361 -0.2652
 3728SOL    HW214777  10.915   0.318   9.981  0.5259  0.1996  0.0125
 3729SOL     OW14778   3.194   0.124   3.080  0.0684  0.2143  0.1579
 3729SOL    HW114779   3.124   0.060   3.093  0.7487 -0.7250 -0.6328
 3729SOL    HW214780   3.229   0.139   3.167 -0.8697  0.4239  0.5131
 3730SOL     OW14781   0.899   8.623   4.996 -0.3770 -0.0147  0.6274
 3730SOL    HW114782   0.829   8.686   4.981  0.6123  0.7615 -1.0279
 3730SOL    HW214783   0.899   8.567   4.919 -0.6897 -1.5350  1.6967
 3731SOL     OW14784  10.830   9.390   0.387  0.2314 -0.6077 -0.6438
 3731SOL    HW114785  10.855   9.449   0.315 -1.3484  1.4465  0.3799
 3731SOL    HW214786  10.829   9.446   0.464 -0.6081 -2.1785  0.5328
 3732SOL     OW14787   4.129   5.093   9.067  0.3818  0.1676 -0.4956
 3732SOL    HW114788   4.122   5.036   8.990  0.2396  1.5234 -1.5162
 3732SOL    HW214789   4.039   5.104   9.097 -0.0633  2.6444 -2.4453
 3733SOL     OW14790   2.605   9.569   4.833 -0.3771 -0.4571  0.3898
 3733SOL    HW114791   2.608   9.477   4.860 -2.7655 -0.4351  0.9391
 3733SOL    HW214792   2.564   9.568   4.747 -2.7182  0.1778  1.4046
 3734SOL     OW14793   4.276   8.549   8.529 -0.3368 -0.2071  1.0141
 3734SOL    HW114794   4.253   8.639   8.505  2.8833  0.5815  0.2977
 3734SOL    HW214795   4.242   8.538   8.618 -0.1495  2.0373  1.4140
 3735SOL     OW14796   5.412   0.382   6.167  0.0352  0.0119 -0.1904
 3735SOL    HW114797   5.383   0.464   6.207  0.5918  0.3557 -0.4748
 3735SOL    HW214798   5.477   0.409   6.102  0.0602 -0.6388 -0.4435
 3736SOL     OW14799   8.101   8.452   1.299 -0.7446 -0.2860 -0.1012
 3736SOL    HW114800   8.047   8.403   1.236  1.0496  0.3491 -2.2853
 3736SOL    HW214801   8.062   8.539   1.300 -2.4614 -0.9800  1.9262
 3737SOL     OW14802   3.859   9.672   4.729 -0.0598  0.3114 -0.1666
 3737SOL    HW114803   3.880   9.640   4.642  0.5426  0.0509  0.0734
 3737SOL    HW214804   3.807   9.602   4.769  1.7820 -0.7105  0.5893
 3738SOL     OW14805   7.458   4.885   1.697  0.1015  0.5202 -0.4759
 3738SOL    HW114806   7.533   4.842   1.738 -1.5607  0.6209  3.0974
 3738SOL    HW214807   7.407   4.813   1.660  1.5543  0.3995 -2.3754
 3739SOL     OW14808   4.234   5.271   9.415  0.5094 -0.2603 -0.3544
 3739SOL    HW114809   4.303   5.270   9.481 -0.1699  2.1307  0.4802
 3739SOL    HW214810   4.278   5.246   9.333  2.0285 -0.1771  0.4193
 3740SOL     OW14811   3.384   7.324   9.487 -0.2561 -0.5028 -0.0109
 3740SOL    HW114812   3.440   7.259   9.528  0.5673  0.6308  0.7185
 3740SOL    HW214813   3.381   7.299   9.395  0.2288 -1.4250  0.2136
 3741SOL     OW14814  10.011   8.172   2.645  0.3890  0.6290  0.1764
 3741SOL    HW114815  10.065   8.220   2.707 -0.1548  0.2722  0.9603
 3741SOL    HW214816   9.921   8.195   2.669  0.0074 -1.9515  1.6766
 3742SOL     OW14817   2.598   5.177   3.466  0.2017 -0.0228  0.0102
 3742SOL    HW114818   2.682   5.155   3.505  0.3472  1.1353  0.3953
 3742SOL    HW214819   2.620   5.233   3.391 -0.1805 -0.5569 -0.5149
 3743SOL     OW14820   3.106   6.709   8.527  0.0512  0.0960 -0.9385
 3743SOL    HW114821   3.049   6.681   8.456  0.3017 -1.8005 -0.4506
 3743SOL    HW214822   3.167   6.636   8.540  1.7911  1.5230 -0.5922
 3744SOL     OW14823   6.532   8.138   3.428 -0.3511  0.2400 -0.1201
 3744SOL    HW114824   6.484   8.148   3.345 -0.8660  0.1156  0.1601
 3744SOL    HW214825   6.466   8.155   3.496  0.4474  2.0438  0.2519
 3745SOL     OW14826   0.536   5.697   5.308  0.0889 -0.1980 -0.2971
 3745SOL    HW114827   0.447   5.719   5.337  0.1391 -1.2635  0.7306
 3745SOL    HW214828   0.586   5.778   5.322 -0.2809 -0.1751  1.0482
 3746SOL     OW14829   9.244   0.029   5.952  0.0574  0.1750 -0.1336
 3746SOL    HW114830   9.255  -0.065   5.960  0.1845  0.1361 -0.7141
 3746SOL    HW214831   9.323   0.059   5.907 -0.2787  0.4701 -0.5390
 3747SOL     OW14832   1.279   9.100   5.936  0.0602  0.8144 -0.4863
 3747SOL    HW114833   1.259   9.193   5.941 -1.8447  0.4510 -0.6174
 3747SOL    HW214834   1.306   9.085   5.846 -1.9080  0.8824 -1.1445
 3748SOL     OW14835   8.312  11.028   1.301  0.6352 -0.0249 -0.5347
 3748SOL    HW114836   8.268  10.953   1.261  1.1084 -0.2511 -0.6380
 3748SOL    HW214837   8.317  11.004   1.394  0.0265  0.2590 -0.4204
 3749SOL     OW14838   8.428  10.760   5.805 -0.4871  0.1795  0.4138
 3749SOL    HW114839   8.499  10.726   5.751  0.1515  1.1546  0.6248
 3749SOL    HW214840   8.414  10.691   5.871 -0.8069 -0.7005 -0.5460
 3750SOL     OW14841   4.269  11.047   1.825  0.0302 -0.5800 -0.0299
 3750SOL    HW114842   4.193  10.998   1.857 -0.1129 -0.6133 -0.4203
 3750SOL    HW214843   4.330  10.979   1.795  0.7571 -0.6183  1.4521
 3751SOL     OW14844   0.410   0.490   5.871 -0.0647  0.0552 -0.4219
 3751SOL    HW114845   0.480   0.525   5.925  1.6146 -1.1777 -1.6691
 3751SOL    HW214846   0.357   0.566   5.846  1.9917  1.3454 -1.0444
 3752SOL     OW14847  10.042   7.676   7.443  0.2092  0.2674  0.6001
 3752SOL    HW114848  10.107   7.657   7.375  1.5971  0.9590  1.7001
 3752SOL    HW214849   9.994   7.752   7.410  0.6313  0.3822  0.2445
 3753SOL     OW14850   9.839   3.706   8.489 -0.8179  0.4964  0.0671
 3753SOL    HW114851   9.796   3.687   8.406 -0.8554  2.7981 -0.5152
 3753SOL    HW214852   9.891   3.628   8.508 -2.0004 -0.6857 -1.3107
 3754SOL     OW14853   2.988  10.546   1.080 -0.1549 -0.9408  0.1423
 3754SOL    HW114854   3.076  10.549   1.044 -0.0063 -0.1223  0.5507
 3754SOL    HW214855   2.942  10.481   1.026  1.3684 -3.2627  1.4767
 3755SOL     OW14856   9.960   6.355   4.818  0.4327 -0.1117  0.2811
 3755SOL    HW114857  10.002   6.339   4.733  1.1827 -1.6838  0.8954
 3755SOL    HW214858  10.027   6.400   4.869 -0.9906  3.5456 -0.7889
 3756SOL     OW14859   4.638   0.107   2.944 -0.6541 -0.9069  0.3289
 3756SOL    HW114860   4.582   0.185   2.941  0.4628 -0.1182 -1.3222
 3756SOL    HW214861   4.686   0.108   2.861  0.6452 -2.4322  1.0026
 3757SOL     OW14862   9.985   1.516   9.895  0.7468 -0.2410  0.1377
 3757SOL    HW114863   9.916   1.536   9.832  0.1662 -0.5430  0.6729
 3757SOL    HW214864   9.988   1.593   9.953 -0.6426 -1.1133  1.4390
 3758SOL     OW14865   7.817   8.180   8.302  0.5876 -0.3455  0.4902
 3758SOL    HW114866   7.810   8.123   8.378 -1.3710 -1.9946 -0.8283
 3758SOL    HW214867   7.741   8.238   8.308 -1.0022 -2.0541 -1.2947
 3759SOL     OW14868   3.972   2.015   3.183 -0.1232 -0.0561 -0.0549
 3759SOL    HW114869   4.008   1.926   3.184  0.0129  0.0009  0.1706
 3759SOL    HW214870   3.890   2.007   3.232  0.4529  0.1768  0.9675
 3760SOL     OW14871   4.892   4.629   7.601 -0.2433  0.6783  0.4172
 3760SOL    HW114872   4.835   4.672   7.665 -2.8452 -1.3124 -0.3663
 3760SOL    HW214873   4.961   4.692   7.583 -1.4355  2.7093  2.4985
 3761SOL     OW14874   5.603   4.614   4.851 -0.2183 -0.4292  0.7062
 3761SOL    HW114875   5.653   4.695   4.856 -0.1536 -0.4077 -0.1499
 3761SOL    HW214876   5.563   4.605   4.938  1.2191 -0.4295  1.3991
 3762SOL     OW14877   2.940   0.667   4.122  0.2084  0.0467  0.5031
 3762SOL    HW114878   2.900   0.580   4.125  0.0155  0.0840 -0.5994
 3762SOL    HW214879   2.932   0.700   4.211 -1.5223 -0.2762  0.5016
 3763SOL     OW14880   4.007  10.815   1.322  0.1297  0.0897 -0.0563
 3763SOL    HW114881   4.030  10.726   1.294 -1.0975 -0.3734  0.3504
 3763SOL    HW214882   4.017  10.868   1.243  3.0043  0.0498  0.1792
 3764SOL     OW14883   3.697   9.049  10.144 -0.2171 -0.1699 -0.8639
 3764SOL    HW114884   3.772   9.104  10.121  0.3823 -0.9934 -0.9015
 3764SOL    HW214885   3.661   9.022  10.059 -1.0825  0.9016 -0.8621
 3765SOL     OW14886   7.727  10.127   0.066 -0.2096  0.1715  0.3055
 3765SOL    HW114887   7.660  10.123  -0.003 -0.7707  0.8956  0.7847
 3765SOL    HW214888   7.744  10.221   0.076 -0.2249  0.0861  1.2270
 3766SOL     OW14889   3.029   3.914   3.625 -0.0315 -0.2353 -0.9090
 3766SOL    HW114890   3.080   3.978   3.575  2.5145 -1.3504  0.0803
 3766SOL    HW214891   3.042   3.832   3.577  2.0150 -1.2110  1.1307
 3767SOL     OW14892   7.590   8.419   1.025 -0.0745 -0.5130  0.2162
 3767SOL    HW114893   7.663   8.471   1.059  0.5657 -1.8360  0.9538
 3767SOL    HW214894   7.600   8.334   1.068 -1.7743 -0.8734 -0.0494
 3768SOL     OW14895   1.990   5.440   2.141  0.1678 -0.1553 -0.2727
 3768SOL    HW114896   1.920   5.434   2.207 -0.2274  0.9720 -0.5493
 3768SOL    HW214897   2.023   5.530   2.150 -0.5883  0.3824 -2.2655
 3769SOL     OW14898   2.583   9.278   4.848 -0.7979  0.2869 -0.4340
 3769SOL    HW114899   2.555   9.254   4.760  1.1825 -0.7467 -0.8426
 3769SOL    HW214900   2.644   9.209   4.874  1.2577  2.2506  0.3716
 3770SOL     OW14901   8.235   3.825   8.296  0.4837 -0.1279 -0.3908
 3770SOL    HW114902   8.144   3.856   8.301 -0.1147 -1.3712 -2.4752
 3770SOL    HW214903   8.285   3.902   8.267 -0.2923  0.0235 -1.3945
 3771SOL     OW14904   8.254   1.748   0.443  0.1437  0.7582 -0.0512
 3771SOL    HW114905   8.304   1.690   0.387 -0.0800  0.8559 -0.3530
 3771SOL    HW214906   8.259   1.708   0.530 -2.7790 -1.5913 -0.8137
 3772SOL     OW14907   0.247   6.929   3.189  0.1855  1.1672  0.0407
 3772SOL    HW114908   0.317   6.993   3.200  0.5562  0.7279  0.2492
 3772SOL    HW214909   0.224   6.934   3.096  0.6665  1.1262 -0.0802
 3773SOL     OW14910   0.354   1.348   9.653 -0.0755 -0.0705 -0.3054
 3773SOL    HW114911   0.447   1.330   9.671 -0.0381  0.4807  0.0623
 3773SOL    HW214912   0.307   1.286   9.709  0.0611  0.6375  0.6294
 3774SOL     OW14913   0.684   6.813   6.157 -0.0491  0.3472 -0.2804
 3774SOL    HW114914   0.648   6.839   6.241  0.7835  3.1968 -0.7190
 3774SOL    HW214915   0.777   6.798   6.174  0.2237  1.4320 -0.7664
 3775SOL     OW14916   5.835   9.640   8.851 -0.5487 -0.0691 -0.5236
 3775SOL    HW114917   5.840   9.592   8.934  0.9043 -2.1316 -1.7202
 3775SOL    HW214918   5.768   9.706   8.866  2.3773  2.5080  3.7071
 3776SOL     OW14919   2.577   0.200   3.920  0.1173  0.2195  0.1871
 3776SOL    HW114920   2.632   0.270   3.883  1.4484  0.1802  1.9521
 3776SOL    HW214921   2.492   0.242   3.933  1.0988  1.8373  1.9601
 3777SOL     OW14922   2.838   2.397   7.355  0.0225 -0.3200  0.1179
 3777SOL    HW114923   2.897   2.469   7.336 -1.4985  0.6259 -1.3463
 3777SOL    HW214924   2.851   2.378   7.448  1.2103  1.1141  0.2728
 3778SOL     OW14925   2.285   0.246   4.304 -0.3004  0.3219  0.3585
 3778SOL    HW114926   2.306   0.300   4.380  1.9719  0.9364 -0.6112
 3778SOL    HW214927   2.340   0.168   4.315 -1.6199 -0.6434  0.4200
 3779SOL     OW14928   7.154   0.712   5.387 -0.6633 -0.1562 -0.0418
 3779SOL    HW114929   7.249   0.718   5.379 -0.7768  2.3277 -0.1070
 3779SOL    HW214930   7.138   0.620   5.407  1.7732 -0.5390  0.4692
 3780SOL     OW14931   0.854   4.347   0.954 -0.4800 -0.3867  0.9139
 3780SOL    HW114932   0.844   4.394   1.037  0.1925 -0.8154  1.2447
 3780SOL    HW214933   0.767   4.309   0.937 -1.0217  0.9332  0.6520
 3781SOL     OW14934  10.367   4.235   7.154  0.3380 -0.4357  0.1153
 3781SOL    HW114935  10.432   4.294   7.192  1.0641 -1.9966  1.4883
 3781SOL    HW214936  10.328   4.191   7.230 -0.3672 -1.5012 -0.8271
 3782SOL     OW14937   7.006   7.131   8.057 -0.4136 -0.5801 -0.0553
 3782SOL    HW114938   6.943   7.202   8.052 -2.3478 -2.1906  0.0875
 3782SOL    HW214939   7.032   7.128   8.149 -1.7413 -1.1541  0.3326
 3783SOL     OW14940  10.981  10.794   1.856  0.3031  0.3954  0.2700
 3783SOL    HW114941  10.996  10.759   1.768  0.0980 -0.8312  0.7116
 3783SOL    HW214942  10.913  10.739   1.893  0.5713  0.7341  1.3011
 3784SOL     OW14943   2.475   5.040   8.579  0.6112  0.5900  1.0206
 3784SOL    HW114944   2.474   5.130   8.609 -1.9519  1.0780 -0.2284
 3784SOL    HW214945   2.434   4.990   8.650 -1.9971  1.1720  0.0499
 3785SOL     OW14946   0.168   8.626   2.414 -0.4385 -0.0102 -0.1677
 3785SOL    HW114947   0.217   8.635   2.333 -3.2319 -0.3758 -2.0584
 3785SOL    HW214948   0.153   8.716   2.443  1.6032  0.1003  0.7013
 3786SOL     OW14949   8.372   3.424  10.389 -0.0281 -0.0702  0.3272
 3786SOL    HW114950   8.466   3.437  10.381 -0.0128  0.4149  1.1430
 3786SOL    HW214951   8.338   3.432  10.300  0.7116 -0.3679  0.0154
 3787SOL     OW14952  10.635   9.222   0.479 -0.1338 -0.2550 -0.0914
 3787SOL    HW114953  10.626   9.194   0.570  0.2323  0.0681  0.0471
 3787SOL    HW214954  10.699   9.293   0.482  0.1714 -0.4996 -0.6515
 3788SOL     OW14955   6.349   2.830   4.005  0.0524 -0.2565 -0.1416
 3788SOL    HW114956   6.340   2.764   3.935 -0.8447  1.7097 -1.9837
 3788SOL    HW214957   6.322   2.912   3.964 -1.1927  0.8926  2.7567
 3789SOL     OW14958   9.764   8.853   6.841 -0.0981  0.1500 -0.1891
 3789SOL    HW114959   9.757   8.946   6.863  0.3042  0.4483 -1.2489
 3789SOL    HW214960   9.850   8.846   6.798 -1.2721 -0.1502 -2.6300
 3790SOL     OW14961   4.760   6.419   1.848 -0.6959  0.3968  0.2904
 3790SOL    HW114962   4.826   6.448   1.912 -1.8711  1.1022  1.2275
 3790SOL    HW214963   4.809   6.367   1.785  0.4687 -0.6540  1.9658
 3791SOL     OW14964   6.114   9.492  10.454 -0.2623 -0.1885  0.6904
 3791SOL    HW114965   6.046   9.492  10.522 -0.9137 -1.7357  0.0712
 3791SOL    HW214966   6.196   9.487  10.503 -0.6341  0.5396  1.4113
 3792SOL     OW14967   1.278   4.250   0.130  0.3252 -0.2865  0.4147
 3792SOL    HW114968   1.227   4.326   0.159 -0.5113  0.2291 -2.1233
 3792SOL    HW214969   1.335   4.230   0.204 -0.6940  1.6827  1.8470
 3793SOL     OW14970   7.351   5.019   4.242 -0.4014  0.0160 -0.5460
 3793SOL    HW114971   7.349   4.950   4.176 -1.4143  1.2237 -1.8604
 3793SOL    HW214972   7.261   5.053   4.244  0.2377  1.8270 -0.5518
 3794SOL     OW14973   2.690   8.755  10.940 -0.1935 -0.1624 -0.2360
 3794SOL    HW114974   2.642   8.815  10.883 -0.7193  0.5467  0.9264
 3794SOL    HW214975   2.745   8.811  10.994  1.3474 -0.9226 -0.9621
 3795SOL     OW14976   4.899   5.302   3.501  0.6099 -0.0279 -0.2710
 3795SOL    HW114977   4.973   5.241   3.501  1.5370  0.9540  2.3862
 3795SOL    HW214978   4.831   5.258   3.551 -0.1511 -0.3857 -1.5849
 3796SOL     OW14979   2.028  10.380  10.223  0.2288 -0.8765  0.2195
 3796SOL    HW114980   1.946  10.423  10.249 -0.0144 -1.1536 -0.0900
 3796SOL    HW214981   2.016  10.360  10.130  0.2435 -1.8469  0.4191
 3797SOL     OW14982   4.704   5.491   1.056  0.0221 -0.0158  0.0479
 3797SOL    HW114983   4.681   5.579   1.087 -0.6336 -0.3481  0.5033
 3797SOL    HW214984   4.791   5.503   1.016 -1.0263  1.3239 -2.0481
 3798SOL     OW14985   9.096   7.731   2.888  0.1507 -0.4554 -0.1464
 3798SOL    HW114986   9.170   7.671   2.892  1.0234  0.3881 -2.3331
 3798SOL    HW214987   9.019   7.674   2.889  0.9665 -1.7728 -2.8876
 3799SOL     OW14988  10.058   0.414   2.331 -0.4776  0.1723 -0.2583
 3799SOL    HW114989  10.038   0.507   2.341 -1.9637  0.0792 -1.8899
 3799SOL    HW214990  10.128   0.398   2.394 -1.2035  2.0422  1.1292
 3800SOL     OW14991   4.650   1.732  10.369 -0.4172  0.0959  0.5532
 3800SOL    HW114992   4.671   1.691  10.285 -0.5462 -0.7919  0.9336
 3800SOL    HW214993   4.568   1.690  10.395 -0.2903  0.2407  1.1989
 3801SOL     OW14994   6.061   8.782  10.000  0.1829 -0.2701 -0.5005
 3801SOL    HW114995   6.107   8.830   9.931 -0.7592  1.2982 -0.0826
 3801SOL    HW214996   5.968   8.792   9.978 -0.1356  0.2909  0.9930
 3802SOL     OW14997   4.553   6.248   2.749  0.1307  0.0187 -0.2478
 3802SOL    HW114998   4.546   6.343   2.747 -0.9857 -0.0324  0.5309
 3802SOL    HW214999   4.550   6.222   2.656 -0.2129  0.6926 -0.4312
 3803SOL     OW15000   5.136   2.386   0.005 -0.3633 -0.1194  0.5834
 3803SOL    HW115001   5.158   2.393   0.098  0.4732  3.5907  0.2531
 3803SOL    HW215002   5.216   2.352  -0.035  0.6486  1.8257  0.8422
 3804SOL     OW15003   6.327   5.649   7.245 -0.0924 -0.2393 -0.4989
 3804SOL    HW115004   6.353   5.632   7.335  1.2736 -1.6266 -1.0864
 3804SOL    HW215005   6.274   5.573   7.220  1.4744 -1.0891 -1.5049
 3805SOL     OW15006   6.914   7.797   1.714 -0.1430  0.0735 -0.6436
 3805SOL    HW115007   6.961   7.835   1.639 -0.9978  1.6687 -0.4109
 3805SOL    HW215008   6.835   7.759   1.676 -1.7266  2.8387 -0.4162
 3806SOL     OW15009   9.943   9.846   4.746  0.2063  0.2016  0.5040
 3806SOL    HW115010   9.900   9.779   4.694 -1.2433  0.9275  0.7223
 3806SOL    HW215011   9.946   9.810   4.834  1.0772 -0.3058  0.2775
 3807SOL     OW15012   7.467   7.101   5.239 -0.7994 -0.6598 -0.0217
 3807SOL    HW115013   7.535   7.096   5.173 -1.1906  0.8163 -0.5839
 3807SOL    HW215014   7.393   7.054   5.201 -0.8198 -0.3514 -0.3667
 3808SOL     OW15015   7.930   0.006   4.508  0.0832 -0.5286  0.0021
 3808SOL    HW115016   7.958   0.076   4.448 -0.0584 -0.0637  0.4695
 3808SOL    HW215017   7.862  -0.041   4.460 -1.0576  0.7319  0.3252
 3809SOL     OW15018  10.376   9.058   9.578 -0.0223  0.0663  0.0036
 3809SOL    HW115019  10.432   9.134   9.596 -0.3283  0.6060 -1.2245
 3809SOL    HW215020  10.290   9.096   9.560 -0.5278 -0.6840  0.7784
 3810SOL     OW15021   7.351   9.680   6.819  0.6493 -0.2482 -0.0629
 3810SOL    HW115022   7.356   9.766   6.860  1.0355 -0.4170  0.2529
 3810SOL    HW215023   7.436   9.669   6.776 -0.2323  0.5139 -2.1301
 3811SOL     OW15024   9.372   4.615   1.010 -0.1669 -0.1050 -0.2227
 3811SOL    HW115025   9.464   4.632   1.026  0.1508 -0.9989 -1.0367
 3811SOL    HW215026   9.326   4.685   1.056  0.9456  0.8043 -0.4728
 3812SOL     OW15027   4.585   2.979   6.293 -0.3691 -0.0793 -0.5293
 3812SOL    HW115028   4.588   2.924   6.215 -0.4155  0.5488 -0.9845
 3812SOL    HW215029   4.587   2.917   6.366 -0.8680 -0.7053 -1.0259
 3813SOL     OW15030   6.675   7.260   8.730 -0.1509  0.1264 -0.4401
 3813SOL    HW115031   6.617   7.191   8.700  0.5102 -0.6648  0.0686
 3813SOL    HW215032   6.618   7.337   8.739 -1.1301 -0.6450  0.0975
 3814SOL     OW15033   9.777   1.213   2.871  0.0129  0.0342 -0.2537
 3814SOL    HW115034   9.696   1.244   2.912  0.9316  2.2286  0.0374
 3814SOL    HW215035   9.780   1.119   2.892 -1.1052  0.4383  2.0422
 3815SOL     OW15036   6.004   3.510   5.810 -0.0218 -0.2659  0.1198
 3815SOL    HW115037   5.960   3.439   5.764  0.2392  0.6531 -1.6516
 3815SOL    HW215038   6.094   3.479   5.820  0.3218  0.1003 -1.4447
 3816SOL     OW15039   6.993   9.298  10.040  0.0581  0.1154  0.4330
 3816SOL    HW115040   6.960   9.265   9.956  1.2133  2.5561 -1.0869
 3816SOL    HW215041   6.958   9.237  10.105 -2.5903 -0.7100 -1.5826
 3817SOL     OW15042   0.406   2.590   3.932  0.3026 -0.0154 -0.1616
 3817SOL    HW115043   0.500   2.606   3.941  0.3734 -0.8430  0.7258
 3817SOL    HW215044   0.398   2.495   3.925 -0.4199  0.0958 -1.0004
 3818SOL     OW15045   8.530   8.132   6.304  0.7464  0.2396  0.0250
 3818SOL    HW115046   8.549   8.213   6.352  0.1081  0.4821 -0.1273
 3818SOL    HW215047   8.551   8.062   6.366 -0.5686  0.5531  0.8634
 3819SOL     OW15048   9.549   9.130   1.415  0.2275  0.3881 -0.4546
 3819SOL    HW115049   9.625   9.072   1.411  1.0694  1.4545 -0.5507
 3819SOL    HW215050   9.520   9.137   1.324  1.0379  1.2364 -0.6756
 3820SOL     OW15051   4.154   6.626   8.830  0.1647  0.2128 -0.2924
 3820SOL    HW115052   4.218   6.575   8.879  0.1108  0.9452  0.5615
 3820SOL    HW215053   4.206   6.694   8.786 -0.0468  1.1665  0.8595
 3821SOL     OW15054   4.372   5.984   0.111  0.5753 -0.0770  0.4493
 3821SOL    HW115055   4.314   5.999   0.185 -0.2573  0.6370 -0.3266
 3821SOL    HW215056   4.444   5.932   0.147 -0.7999 -1.4559  1.3252
 3822SOL     OW15057   5.539   3.051   6.470 -0.1405  0.0342 -0.0988
 3822SOL    HW115058   5.551   3.026   6.561 -1.8039  0.6889  0.3529
 3822SOL    HW215059   5.498   2.975   6.429  0.7665 -0.3231 -0.3467
 3823SOL     OW15060   0.751   1.224   6.274 -0.1035 -0.6650 -0.1936
 3823SOL    HW115061   0.737   1.250   6.183 -0.8336 -2.0562 -0.4953
 3823SOL    HW215062   0.675   1.261   6.321 -0.0744 -0.5210 -0.2573
 3824SOL     OW15063   6.277   0.555   7.585 -0.0151 -0.0598 -0.2995
 3824SOL    HW115064   6.278   0.582   7.677 -0.5154 -1.7049  0.2272
 3824SOL    HW215065   6.325   0.624   7.539 -1.6101  1.9202  0.8538
 3825SOL     OW15066   1.233   3.451   1.070 -0.2127 -0.5563 -0.5764
 3825SOL    HW115067   1.277   3.511   1.011 -1.3827  1.3805  0.4365
 3825SOL    HW215068   1.303   3.393   1.101  1.6188  2.0450  0.5416
 3826SOL     OW15069   7.626   8.249   4.314  0.0577 -0.3022  0.0836
 3826SOL    HW115070   7.610   8.172   4.368 -0.6994 -0.3995 -0.2589
 3826SOL    HW215071   7.699   8.294   4.357 -1.2670  0.2514  1.8904
 3827SOL     OW15072   7.968   2.066   4.625 -0.6266 -0.3127 -0.1675
 3827SOL    HW115073   7.886   2.070   4.674 -0.6500  2.2459 -0.3052
 3827SOL    HW215074   8.030   2.024   4.686 -2.0352 -2.6180 -0.1981
 3828SOL     OW15075   9.238   7.498   9.095  0.3293  0.4147 -0.3994
 3828SOL    HW115076   9.184   7.531   9.023 -1.0208  1.0261  0.8319
 3828SOL    HW215077   9.213   7.406   9.104 -0.3775  0.6305 -0.0001
 3829SOL     OW15078   9.446  10.129   2.604  0.0366  0.1775  0.1194
 3829SOL    HW115079   9.423  10.087   2.688 -1.1647 -0.9034 -0.7088
 3829SOL    HW215080   9.459  10.056   2.544 -0.1764  0.9703 -0.9061
 3830SOL     OW15081   8.459   0.085   0.538  0.1092  0.0991 -0.8285
 3830SOL    HW115082   8.435   0.150   0.603  1.4319 -0.7017  0.5141
 3830SOL    HW215083   8.380   0.074   0.485 -1.8638 -0.8503  2.0510
 3831SOL     OW15084   5.677   2.172   5.513 -0.1127 -0.8802  0.1616
 3831SOL    HW115085   5.760   2.149   5.554  1.6609  2.2304 -1.3156
 3831SOL    HW215086   5.615   2.178   5.586  1.2819 -1.8957  1.4759
 3832SOL     OW15087   7.098   7.148   2.185  0.3891 -0.1559  0.1005
 3832SOL    HW115088   7.023   7.167   2.129  0.6583 -0.5501 -0.4005
 3832SOL    HW215089   7.121   7.232   2.224 -0.0692  0.0383 -0.0442
 3833SOL     OW15090   1.838   0.006   6.118 -0.1932 -0.2919 -0.1931
 3833SOL    HW115091   1.915   0.022   6.172 -0.2236  1.3257 -0.5918
 3833SOL    HW215092   1.866   0.024   6.028 -0.6429 -1.1313 -0.5122
 3834SOL     OW15093   4.643   8.979   3.134  0.0504  0.1648  0.2036
 3834SOL    HW115094   4.611   9.070   3.132 -0.0793  0.1200  0.2047
 3834SOL    HW215095   4.738   8.986   3.129 -0.0115  0.2479 -1.1536
 3835SOL     OW15096   2.654   3.188   4.911 -0.0007 -0.6426  0.0286
 3835SOL    HW115097   2.636   3.280   4.889  0.6668 -0.5274 -0.0487
 3835SOL    HW215098   2.699   3.192   4.995  0.5772 -0.8512 -0.2640
 3836SOL     OW15099   7.490   6.820   9.028  0.7004  0.6836  0.0160
 3836SOL    HW115100   7.540   6.767   8.965 -1.2409 -1.1023 -0.1218
 3836SOL    HW215101   7.462   6.897   8.977  1.0515  0.3807 -0.6522
 3837SOL     OW15102   5.542   1.346   1.097 -0.4696  0.3364 -0.2324
 3837SOL    HW115103   5.594   1.410   1.145 -0.4943  0.8218 -0.8376
 3837SOL    HW215104   5.460   1.340   1.146  0.3612 -0.8874  1.0700
 3838SOL     OW15105  11.068   2.075  10.182  0.0127  0.0589 -0.1637
 3838SOL    HW115106  11.158   2.053  10.204 -0.0875 -0.1767  0.0100
 3838SOL    HW215107  11.063   2.170  10.195 -0.3749 -0.2075  2.1319
 3839SOL     OW15108   9.585   7.699   0.586 -0.3856  0.0139  0.1298
 3839SOL    HW115109   9.510   7.649   0.556 -1.1066  0.6910  0.7436
 3839SOL    HW215110   9.555   7.743   0.666 -0.6051  3.2667 -1.5566
 3840SOL     OW15111   5.413   1.686   5.124 -0.0032  0.7693  0.4843
 3840SOL    HW115112   5.419   1.743   5.201  1.9783  1.1325  0.1140
 3840SOL    HW215113   5.418   1.598   5.159 -0.6571  0.8757  0.8693
 3841SOL     OW15114   4.187   6.315   9.196  0.6188 -0.4981  0.3155
 3841SOL    HW115115   4.097   6.347   9.183  1.4743  2.9543  1.7578
 3841SOL    HW215116   4.194   6.239   9.138 -2.9904 -0.5175 -0.3356
 3842SOL     OW15117   7.519   6.655   5.824 -0.0792  0.2870  0.0795
 3842SOL    HW115118   7.460   6.728   5.840  0.6599  0.6704  1.1280
 3842SOL    HW215119   7.592   6.669   5.883  0.2346 -1.1316  0.0746
 3843SOL     OW15120   6.595   3.418  10.855 -0.1366  0.1769 -0.2951
 3843SOL    HW115121   6.649   3.361  10.910  0.7661  1.1448 -0.1513
 3843SOL    HW215122   6.505   3.401  10.883 -0.2036 -3.1073 -2.0333
 3844SOL     OW15123   9.749   9.270   1.988  0.2132  0.4031  1.1055
 3844SOL    HW115124   9.823   9.266   1.927  0.4522  2.0663  1.2422
 3844SOL    HW215125   9.692   9.198   1.961  1.1151  0.0807 -0.0206
 3845SOL     OW15126   9.343   3.018   7.217  0.1828  0.0296 -0.6114
 3845SOL    HW115127   9.421   2.988   7.264  0.2580 -2.4498 -2.1792
 3845SOL    HW215128   9.271   2.972   7.260 -0.6885  3.0321  1.4645
 3846SOL     OW15129  10.292   9.261   7.762  0.1356  0.2680 -0.0034
 3846SOL    HW115130  10.369   9.206   7.747 -1.1106 -1.1259 -1.7006
 3846SOL    HW215131  10.288   9.272   7.857  0.6446 -2.3155  0.3910
 3847SOL     OW15132   9.566   4.942   5.890 -0.1563 -0.3738 -0.3692
 3847SOL    HW115133   9.526   4.967   5.974 -0.3595 -0.7785 -0.3452
 3847SOL    HW215134   9.493   4.908   5.838  0.0192 -0.3774 -0.6168
 3848SOL     OW15135   5.037   4.338   5.462  0.0802 -0.2108 -0.4372
 3848SOL    HW115136   5.001   4.408   5.516  1.9870  0.3048  0.2274
 3848SOL    HW215137   5.010   4.257   5.506 -0.3162  0.1443 -0.0232
 3849SOL     OW15138   9.598  10.548   0.616 -0.2855  0.0125 -0.1659
 3849SOL    HW115139   9.679  10.515   0.654 -0.7345  0.5462  1.3386
 3849SOL    HW215140   9.612  10.543   0.521  1.4658  0.0183  0.0591
 3850SOL     OW15141   3.120   3.322   6.592 -0.3127  0.4348  0.4499
 3850SOL    HW115142   3.095   3.319   6.500 -1.3548  0.7771  0.7140
 3850SOL    HW215143   3.215   3.333   6.590 -0.2835  0.0753 -0.5787
 3851SOL     OW15144   4.149   1.972   7.726  0.0239 -0.1557  0.1546
 3851SOL    HW115145   4.201   1.901   7.763  1.4197  0.9439  0.3929
 3851SOL    HW215146   4.163   1.965   7.631  0.5158  0.0503  0.2080
 3852SOL     OW15147   6.097   6.321   2.713  0.5255 -0.7792 -0.2504
 3852SOL    HW115148   6.062   6.245   2.667  0.2627 -0.1188 -1.1597
 3852SOL    HW215149   6.083   6.302   2.806 -1.7489 -0.7849 -0.5476
 3853SOL     OW15150   8.611  10.253  10.982  0.4920 -0.6530 -0.8712
 3853SOL    HW115151   8.651  10.299  10.909 -0.2507 -0.3729 -1.1054
 3853SOL    HW215152   8.673  10.182  11.003  1.9422  0.7761 -0.1046
 3854SOL     OW15153   7.880   9.577  10.078  0.2673  0.0174 -0.1036
 3854SOL    HW115154   7.870   9.572   9.983 -0.9963 -0.6809  0.0456
 3854SOL    HW215155   7.971   9.604  10.091  0.2401  0.9004 -1.5144
 3855SOL     OW15156   3.795   1.688   0.996 -0.2112  0.1753  0.6186
 3855SOL    HW115157   3.794   1.594   0.974 -0.4106  0.5234 -1.0567
 3855SOL    HW215158   3.715   1.702   1.047 -1.1654 -0.2650 -0.6898
 3856SOL     OW15159   6.176   5.339   8.768  0.1047  0.6534  0.1419
 3856SOL    HW115160   6.086   5.371   8.769  0.2207  1.0222 -0.5471
 3856SOL    HW215161   6.195   5.318   8.860 -1.4314 -1.5780  0.0372
 3857SOL     OW15162   1.653   9.473   7.019  0.3955 -0.1197  0.2755
 3857SOL    HW115163   1.663   9.386   7.056  1.4275  0.4742  1.4621
 3857SOL    HW215164   1.741   9.509   7.015 -0.0370  0.9801  0.0832
 3858SOL     OW15165   1.593   7.636   6.285 -1.2651 -0.0469 -0.9623
 3858SOL    HW115166   1.506   7.675   6.290  0.2514  3.8279 -1.4362
 3858SOL    HW215167   1.636   7.683   6.214  2.8347  2.0378  2.4588
 3859SOL     OW15168   7.840   4.735   6.561 -0.5090 -0.2392  0.1177
 3859SOL    HW115169   7.870   4.711   6.474 -2.2990  0.0807 -0.6298
 3859SOL    HW215170   7.750   4.766   6.548 -0.2064  1.6036  1.7954
 3860SOL     OW15171   2.754   0.185   9.524 -0.0009 -0.5365 -0.1052
 3860SOL    HW115172   2.746   0.235   9.443  1.2247 -0.8049 -0.4051
 3860SOL    HW215173   2.707   0.104   9.507  0.7331 -0.8354 -0.7628
 3861SOL     OW15174   4.649   0.088   8.356  0.5032  0.1864  0.6787
 3861SOL    HW115175   4.684   0.112   8.271  2.2926 -0.7202  1.0977
 3861SOL    HW215176   4.569   0.039   8.337  1.9934 -1.9312 -0.6751
 3862SOL     OW15177   3.660   9.645   2.507  0.2994  0.1677 -0.0291
 3862SOL    HW115178   3.719   9.606   2.572  0.6324 -1.1474 -1.0783
 3862SOL    HW215179   3.572   9.628   2.541  0.4515 -1.0507 -0.1858
 3863SOL     OW15180   1.760   5.057   5.678 -0.1177 -0.3053 -0.0918
 3863SOL    HW115181   1.774   4.969   5.643  1.6937  0.0629 -0.3862
 3863SOL    HW215182   1.760   5.113   5.601 -2.3041 -0.1238  0.0007
 3864SOL     OW15183   0.112   8.663   5.442 -0.0596  0.2308 -1.0464
 3864SOL    HW115184   0.179   8.617   5.391  0.8945 -0.4638  0.7566
 3864SOL    HW215185   0.155   8.686   5.524 -2.0902 -0.5242  0.3208
 3865SOL     OW15186   0.995   0.058   5.292 -0.1676 -0.1135  0.1075
 3865SOL    HW115187   0.998  -0.035   5.266 -1.5595 -0.5969  1.5272
 3865SOL    HW215188   0.980   0.104   5.209 -1.1918 -1.3210 -0.4329
 3866SOL     OW15189   3.085   8.798   5.319  0.2586 -0.4157  0.3588
 3866SOL    HW115190   3.033   8.723   5.349 -0.2752 -0.0342  0.3825
 3866SOL    HW215191   3.117   8.838   5.400  1.3795 -1.1942  0.3274
 3867SOL     OW15192   8.283   4.108   9.108  0.0306 -0.3087  0.2870
 3867SOL    HW115193   8.203   4.123   9.158 -0.4788  0.0117 -0.6045
 3867SOL    HW215194   8.315   4.196   9.088 -0.0522 -0.4270 -0.3832
 3868SOL     OW15195  10.198   4.426   8.143  0.1551  0.5155  0.0779
 3868SOL    HW115196  10.160   4.450   8.058 -3.4142 -1.1689  0.9909
 3868SOL    HW215197  10.171   4.496   8.202  0.9652  0.7164  0.2221
 3869SOL     OW15198   8.919   6.551   7.994 -0.1762 -0.3007  0.0496
 3869SOL    HW115199   8.863   6.628   7.985  0.0090  0.0256  1.5090
 3869SOL    HW215200   8.877   6.498   8.062  1.5044  0.1902  1.5403
 3870SOL     OW15201   9.158   5.415   9.351 -0.0606 -0.3552  0.1559
 3870SOL    HW115202   9.233   5.369   9.312 -0.3571 -0.2677 -0.5424
 3870SOL    HW215203   9.190   5.445   9.436  1.0683  0.6442 -0.5872
 3871SOL     OW15204  10.442   5.288   3.112  0.1353 -0.4398  0.1436
 3871SOL    HW115205  10.532   5.257   3.113 -0.1360 -1.2913 -0.1529
 3871SOL    HW215206  10.444   5.373   3.155  1.1799 -0.1449 -0.4562
 3872SOL     OW15207   7.988   2.326   1.961  0.1182 -0.2213  0.3102
 3872SOL    HW115208   7.974   2.418   1.939 -1.3206 -0.6029 -0.4897
 3872SOL    HW215209   7.943   2.277   1.892  2.9007 -1.6083 -0.7138
 3873SOL     OW15210   2.750   0.582   1.678 -0.3741 -0.2750  0.1709
 3873SOL    HW115211   2.672   0.617   1.719 -0.5099  0.2600 -0.5144
 3873SOL    HW215212   2.719   0.539   1.598 -0.1612 -1.6240  0.7928
 3874SOL     OW15213   1.512   4.935   8.785  0.1554 -0.3536 -0.5383
 3874SOL    HW115214   1.481   4.994   8.853  0.3213  0.1552 -0.8977
 3874SOL    HW215215   1.510   4.849   8.825  0.7068  0.0005  0.2691
 3875SOL     OW15216  10.692   6.652  10.973  0.0830 -0.0460 -0.6341
 3875SOL    HW115217  10.745   6.625  10.898  2.5703  3.4816 -0.3952
 3875SOL    HW215218  10.645   6.730  10.942  2.0327  2.1801  1.5928
 3876SOL     OW15219   0.807   7.262   1.453  0.5795  0.0751  0.1052
 3876SOL    HW115220   0.745   7.288   1.520 -2.0695 -1.6081 -1.5191
 3876SOL    HW215221   0.787   7.318   1.378  2.4317  0.8603  0.1411
 3877SOL     OW15222   0.876   5.922   8.251  0.0576  0.4220  0.1538
 3877SOL    HW115223   0.807   5.861   8.279  2.0373 -2.0608 -0.0424
 3877SOL    HW215224   0.829   5.999   8.220 -2.5643 -0.6282  1.2563
 3878SOL     OW15225   4.716   3.665   8.327  0.3529 -0.9354  0.5684
 3878SOL    HW115226   4.745   3.726   8.396 -0.1196  0.7195 -0.6403
 3878SOL    HW215227   4.626   3.643   8.351 -0.2235  0.5746 -0.0981
 3879SOL     OW15228   9.080   3.683   2.793  0.1788 -0.7726  0.3454
 3879SOL    HW115229   9.171   3.678   2.761 -0.0284  0.5973 -0.5625
 3879SOL    HW215230   9.038   3.605   2.757  0.5015 -0.3556 -1.0197
 3880SOL     OW15231   4.691   3.458   3.247 -0.0906 -0.0088 -0.1368
 3880SOL    HW115232   4.661   3.496   3.331 -1.4330  1.5100 -1.2274
 3880SOL    HW215233   4.611   3.424   3.207  0.6945 -1.6076 -0.4199
 3881SOL     OW15234   1.534   1.327   8.564  0.3020  0.1264  0.5160
 3881SOL    HW115235   1.450   1.371   8.576  0.5201  2.6361 -4.4171
 3881SOL    HW215236   1.600   1.394   8.581  0.7527  1.1253 -3.8194
 3882SOL     OW15237   8.100   8.785   0.518 -0.3325 -0.0516 -0.0896
 3882SOL    HW115238   8.172   8.723   0.528  0.3173  0.7444  0.2945
 3882SOL    HW215239   8.040   8.763   0.589 -1.2440 -1.7057 -1.3186
 3883SOL     OW15240   8.397   5.385   4.013  0.3966 -0.2176  0.3489
 3883SOL    HW115241   8.436   5.412   3.930  2.8061 -0.1946  1.4012
 3883SOL    HW215242   8.336   5.315   3.990 -0.7167  1.2916 -1.6447
 3884SOL     OW15243  10.213   3.255   4.826 -0.4100 -0.3265  0.4487
 3884SOL    HW115244  10.166   3.172   4.822 -0.8521 -0.0333 -0.8223
 3884SOL    HW215245  10.145   3.321   4.833 -0.0965 -0.0180  0.6132
 3885SOL     OW15246   1.628   2.501   1.946  0.7889  0.0239 -0.2538
 3885SOL    HW115247   1.675   2.426   1.983  1.5288 -0.2138 -1.6136
 3885SOL    HW215248   1.697   2.560   1.915  0.1983  0.7276 -0.2593
 3886SOL     OW15249   8.250   9.012   1.376 -0.1775  0.3932  0.8818
 3886SOL    HW115250   8.251   8.946   1.307 -2.6844  0.5771  0.5693
 3886SOL    HW215251   8.330   9.063   1.362  0.1474 -0.5371 -0.8901
 3887SOL     OW15252   2.595   1.143   8.219  0.5994  0.1109 -0.1635
 3887SOL    HW115253   2.660   1.079   8.191  0.6999 -0.9344  2.1941
 3887SOL    HW215254   2.529   1.142   8.150  0.5868 -2.6149 -0.2137
 3888SOL     OW15255   6.126   5.333  10.642 -0.1115 -0.6850 -0.7307
 3888SOL    HW115256   6.098   5.245  10.666  1.2626 -1.0236 -0.2393
 3888SOL    HW215257   6.175   5.364  10.718 -0.5185  0.4821 -0.9299
 3889SOL     OW15258   0.357  10.655   2.754 -0.2574 -0.1016  0.2952
 3889SOL    HW115259   0.352  10.647   2.849 -0.0643 -1.2479  0.2212
 3889SOL    HW215260   0.446  10.686   2.736 -1.0346  2.5864  0.5924
 3890SOL     OW15261   0.163   2.740   0.920  0.5652 -0.5125 -0.2428
 3890SOL    HW115262   0.218   2.689   0.860 -0.1467 -3.2276  1.2527
 3890SOL    HW215263   0.084   2.760   0.869  2.0271  1.7709 -1.7825
 3891SOL     OW15264  10.913   7.175   8.334  0.0486 -0.2225  0.2828
 3891SOL    HW115265  10.859   7.233   8.387 -0.7649 -0.5244 -0.2038
 3891SOL    HW215266  10.952   7.114   8.397  0.2482  0.3200  0.6923
 3892SOL     OW15267   6.858   4.544   3.609  0.3200  0.4152 -0.1022
 3892SOL    HW115268   6.786   4.484   3.588  0.9333 -0.4788  0.2460
 3892SOL    HW215269   6.872   4.532   3.703  1.4545 -0.0571 -0.3067
 3893SOL     OW15270   9.143   5.635   9.179  0.7771 -0.1763 -0.0479
 3893SOL    HW115271   9.146   5.576   9.255 -0.1992 -1.3240 -0.8582
 3893SOL    HW215272   9.148   5.576   9.104 -3.7746  0.3097 -0.9993
 3894SOL     OW15273   9.234   2.412   5.426 -0.4747 -0.6002 -0.0091
 3894SOL    HW115274   9.213   2.398   5.518 -1.0226  1.0309  0.1491
 3894SOL    HW215275   9.320   2.455   5.428  0.1419 -1.7898 -0.3419
 3895SOL     OW15276   2.494   9.706   6.912 -0.0873  0.4174  0.1623
 3895SOL    HW115277   2.550   9.657   6.973  0.0171  0.9499  0.4972
 3895SOL    HW215278   2.555   9.751   6.854 -0.1178  1.8619  1.1981
 3896SOL     OW15279  10.288   9.294   8.040  0.1455  0.5931  0.2751
 3896SOL    HW115280  10.207   9.283   8.091 -0.3123  2.0164 -0.0994
 3896SOL    HW215281  10.324   9.377   8.070  1.6712 -0.1719  0.6592
 3897SOL     OW15282   2.783   7.964   1.500  0.0352  0.0441 -0.0343
 3897SOL    HW115283   2.694   7.953   1.533 -0.0321 -2.2523 -0.8303
 3897SOL    HW215284   2.831   8.002   1.574 -0.7832 -2.1441  1.7439
 3898SOL     OW15285   7.025   0.364  10.178 -0.7667 -0.1075 -0.6548
 3898SOL    HW115286   7.064   0.283  10.211 -2.0440 -0.8010 -0.7904
 3898SOL    HW215287   7.100   0.422  10.164  0.0157 -0.5812  1.2473
 3899SOL     OW15288   2.454   2.047   7.980  0.1408 -0.5668 -0.3297
 3899SOL    HW115289   2.535   2.040   8.029  0.3028  1.1197 -0.2720
 3899SOL    HW215290   2.459   1.978   7.914  2.3501  0.4504 -1.3244
 3900SOL     OW15291   3.409   3.705   4.266 -0.0301 -0.0942  0.0661
 3900SOL    HW115292   3.432   3.672   4.179  1.6963 -0.3846  0.5969
 3900SOL    HW215293   3.374   3.629   4.312 -1.5713  0.2072 -0.5484
 3901SOL     OW15294   0.153   8.472   2.628  0.4774 -0.0533  0.0408
 3901SOL    HW115295   0.158   8.547   2.688 -0.3814  0.0241  0.0238
 3901SOL    HW215296   0.135   8.511   2.543 -1.7080 -0.3498  0.3097
 3902SOL     OW15297   5.068  10.215   7.118  0.3815 -0.2959 -0.1020
 3902SOL    HW115298   5.118  10.135   7.133  0.4873 -0.7054 -2.3017
 3902SOL    HW215299   5.009  10.193   7.046  0.0323  1.4608 -0.3941
 3903SOL     OW15300   5.751   0.540   6.740  0.3884  0.2202 -0.0120
 3903SOL    HW115301   5.671   0.488   6.743 -0.1783  1.0958  0.3974
 3903SOL    HW215302   5.813   0.490   6.794  0.5227 -1.0686 -1.2815
 3904SOL     OW15303   8.581   8.800   1.297 -0.2395  1.0325  0.7344
 3904SOL    HW115304   8.523   8.731   1.267  1.6809 -0.7560  0.9010
 3904SOL    HW215305   8.576   8.868   1.230 -1.0090  0.0437 -0.2337
 3905SOL     OW15306   1.872   9.373   5.902 -0.4594  0.2205 -0.1793
 3905SOL    HW115307   1.860   9.323   5.983  1.8677 -0.8286 -0.4166
 3905SOL    HW215308   1.842   9.314   5.833  1.1822 -0.4531 -0.3595
 3906SOL     OW15309   0.707   5.145   1.419 -0.4246  0.0323  0.5524
 3906SOL    HW115310   0.642   5.134   1.489 -0.4809  0.6059  0.5907
 3906SOL    HW215311   0.748   5.229   1.438  0.4791 -0.4193  0.6496
 3907SOL     OW15312  10.215   8.863   9.697 -0.0532 -0.2296  0.0626
 3907SOL    HW115313  10.276   8.931   9.666 -0.7008  0.3892  0.1149
 3907SOL    HW215314  10.146   8.862   9.631  0.1906 -1.1812 -0.1833
 3908SOL     OW15315   3.516   2.081   4.556 -0.9405 -0.0224 -0.2305
 3908SOL    HW115316   3.492   1.998   4.598 -0.1740 -1.3038 -2.1420
 3908SOL    HW215317   3.492   2.068   4.464 -1.5330  2.2189 -0.4423
 3909SOL     OW15318   3.680   7.754   2.445  0.6874  0.0293  0.8068
 3909SOL    HW115319   3.738   7.783   2.374  0.1291 -1.7320 -0.4399
 3909SOL    HW215320   3.731   7.688   2.492  0.5808  0.2808  1.2867
 3910SOL     OW15321   5.800   2.342   8.842  0.3518  0.0272  0.5253
 3910SOL    HW115322   5.895   2.343   8.845  0.4924 -3.3059  2.9353
 3910SOL    HW215323   5.773   2.416   8.896  1.5584  0.7309  0.1860
 3911SOL     OW15324   7.172   1.072   4.742  0.3720  0.2924  0.4330
 3911SOL    HW115325   7.091   1.121   4.729  0.4624  0.1458 -0.8339
 3911SOL    HW215326   7.233   1.135   4.781 -0.2929  0.4546  1.2116
 3912SOL     OW15327   0.474   7.454   5.686  0.2290 -0.2139 -0.2897
 3912SOL    HW115328   0.422   7.486   5.759  1.9221  2.0496  0.0504
 3912SOL    HW215329   0.508   7.370   5.716  0.0262  0.1766  1.1003
 3913SOL     OW15330  10.155   7.756   7.024  0.2881  0.2808 -0.0227
 3913SOL    HW115331  10.224   7.692   7.038  0.8625  1.3507  2.7313
 3913SOL    HW215332  10.201   7.840   7.022 -0.7260  0.8359 -0.4335
 3914SOL     OW15333  10.034   1.781  10.752 -0.2343  0.0741  0.4021
 3914SOL    HW115334  10.004   1.872  10.748 -0.1236  0.2364  2.2303
 3914SOL    HW215335   9.954   1.729  10.755 -0.2996  0.1722  0.3574
 3915SOL     OW15336   9.505   8.864   4.706 -0.2076 -0.3888  0.3615
 3915SOL    HW115337   9.563   8.860   4.630 -0.5890  0.8885 -0.0225
 3915SOL    HW215338   9.553   8.917   4.769 -0.0045 -1.2296  0.9326
 3916SOL     OW15339  10.897   0.615   1.543 -0.4173 -0.0445  0.3454
 3916SOL    HW115340  10.865   0.619   1.453 -0.2571  0.0539  0.2918
 3916SOL    HW215341  10.898   0.522   1.565 -1.3023 -0.0088  0.5526
 3917SOL     OW15342   2.184   3.010   1.254  0.0326 -0.1387  0.5299
 3917SOL    HW115343   2.220   3.082   1.305 -2.7445  0.4516  1.8914
 3917SOL    HW215344   2.260   2.960   1.225  1.9611  2.1979  1.2251
 3918SOL     OW15345   6.904   0.784  10.659 -0.1498 -0.1238  0.1823
 3918SOL    HW115346   6.957   0.837  10.599 -0.7412  0.4047  0.1150
 3918SOL    HW215347   6.939   0.803  10.746  0.4568 -0.5904  0.0428
 3919SOL     OW15348   8.195   8.991  10.426 -0.9561 -0.5390 -0.4581
 3919SOL    HW115349   8.105   9.010  10.451 -0.0721  1.2543  1.7185
 3919SOL    HW215350   8.227   8.934  10.496 -0.4166 -1.3396 -1.3280
 3920SOL     OW15351   2.855   9.803   8.271  0.1986  0.0049 -0.3728
 3920SOL    HW115352   2.816   9.887   8.249  0.3706  0.0711 -0.4248
 3920SOL    HW215353   2.949   9.818   8.266  0.2332 -0.3108 -0.8522
 3921SOL     OW15354   3.812   5.937   5.449 -0.3124  0.0615  0.0505
 3921SOL    HW115355   3.752   5.886   5.395  0.6887 -0.1059 -0.9384
 3921SOL    HW215356   3.896   5.935   5.402  0.3114  0.8285  1.0616
 3922SOL     OW15357   5.403   2.459   7.596 -0.5178  0.6329 -0.5078
 3922SOL    HW115358   5.369   2.532   7.647 -0.0466  0.2013  0.4374
 3922SOL    HW215359   5.356   2.465   7.512 -2.5439  0.3590  0.5517
 3923SOL     OW15360   6.582  11.091   1.028 -0.0463  0.0434  0.2932
 3923SOL    HW115361   6.489  11.113   1.023  0.1183  0.6577 -0.2553
 3923SOL    HW215362   6.584  11.002   1.063 -0.7682  0.6808  2.0897
 3924SOL     OW15363   5.450   8.764   7.081 -0.6844 -1.1089 -0.3281
 3924SOL    HW115364   5.494   8.849   7.071 -0.3316 -0.6056  3.7844
 3924SOL    HW215365   5.357   8.783   7.069 -0.5779 -0.1660  0.2411
 3925SOL     OW15366   6.294  10.596   3.206 -0.5857  0.3423  0.4599
 3925SOL    HW115367   6.244  10.670   3.241 -1.3373  0.1384 -0.1738
 3925SOL    HW215368   6.246  10.519   3.235 -0.0019  0.1012  0.8091
 3926SOL     OW15369   4.869   9.816   6.838  0.0838  0.2752 -0.1096
 3926SOL    HW115370   4.961   9.813   6.810  0.5140  0.4027  1.2388
 3926SOL    HW215371   4.826   9.752   6.781  0.9862  0.2782 -0.8286
 3927SOL     OW15372   3.836   8.790   2.595 -0.0378 -0.2216 -0.4212
 3927SOL    HW115373   3.921   8.818   2.630 -0.9932  0.5141  1.4379
 3927SOL    HW215374   3.854   8.770   2.503  2.0317  0.4278 -0.2215
 3928SOL     OW15375   0.393  10.127   8.664 -0.3350 -0.2423 -0.1611
 3928SOL    HW115376   0.482  10.161   8.653 -0.5983  0.3225 -0.6211
 3928SOL    HW215377   0.370  10.149   8.755  0.1890 -0.8827  0.1344
 3929SOL     OW15378   7.044   3.560   6.091 -0.1744  0.5770  0.4527
 3929SOL    HW115379   7.046   3.648   6.054 -0.3503  1.6647  2.8410
 3929SOL    HW215380   6.992   3.569   6.171  0.0574 -1.6557  0.9221
 3930SOL     OW15381   6.481   4.838   1.567  0.3702  0.3208  0.0091
 3930SOL    HW115382   6.516   4.879   1.646 -2.1696  0.0149  1.4156
 3930SOL    HW215383   6.398   4.884   1.551  0.2292 -0.4579 -1.7608
 3931SOL     OW15384   5.953   6.300   1.158 -0.6496 -0.4095  0.1445
 3931SOL    HW115385   5.861   6.325   1.146 -0.5379  0.7230  1.3682
 3931SOL    HW215386   5.957   6.209   1.129 -1.9529 -0.2015 -0.7835
 3932SOL     OW15387   8.072   5.565   9.425 -0.8128  0.5570 -0.0364
 3932SOL    HW115388   8.067   5.507   9.349 -0.5921  0.3176  0.1298
 3932SOL    HW215389   7.982   5.573   9.454 -0.8054  0.0078  0.1515
 3933SOL     OW15390   2.466   3.804   9.119  0.1163 -0.4429  0.9664
 3933SOL    HW115391   2.456   3.889   9.161  0.6899  0.1907 -0.1501
 3933SOL    HW215392   2.382   3.760   9.135 -0.5248  0.6795  0.7861
 3934SOL     OW15393   8.205   3.472   1.229  0.1014 -0.4224  0.5545
 3934SOL    HW115394   8.294   3.483   1.196  0.4760  0.2791  1.7379
 3934SOL    HW215395   8.149   3.493   1.155  0.9055  1.2036  0.3661
 3935SOL     OW15396   4.217   8.263   3.447 -0.0180 -0.1846  0.2084
 3935SOL    HW115397   4.192   8.354   3.462 -0.3354 -0.3551  0.7447
 3935SOL    HW215398   4.137   8.213   3.463  0.5360 -0.6980  1.5327
 3936SOL     OW15399   7.970   1.287   2.809  0.1552 -0.4818  0.0273
 3936SOL    HW115400   7.986   1.294   2.715 -1.2244  1.2725 -0.1463
 3936SOL    HW215401   8.055   1.304   2.849  1.0013 -2.3110 -0.8708
 3937SOL     OW15402   5.799   3.660   5.522 -0.3370  0.0391  0.0016
 3937SOL    HW115403   5.763   3.660   5.434 -0.5937 -0.0581  0.1055
 3937SOL    HW215404   5.893   3.675   5.510 -0.5027  0.9382 -0.2334
 3938SOL     OW15405  10.082   0.991   4.384 -0.0111 -0.0118  0.5347
 3938SOL    HW115406  10.042   1.075   4.404  0.9358  0.2357  1.4909
 3938SOL    HW215407  10.103   0.996   4.291 -0.2455  0.6869  0.5159
 3939SOL     OW15408   5.586   0.364   8.289  0.2270  0.9959  1.1131
 3939SOL    HW115409   5.681   0.367   8.273  0.7731 -1.0630  3.2500
 3939SOL    HW215410   5.576   0.298   8.358 -2.9953 -0.4363 -0.5068
 3940SOL     OW15411   6.335  10.947   1.107  0.3135 -0.3147 -0.2550
 3940SOL    HW115412   6.338  10.853   1.125  1.6427 -0.5462 -1.4652
 3940SOL    HW215413   6.336  10.989   1.193  0.5242 -1.3906  0.2837
 3941SOL     OW15414   4.311   4.666   9.750 -0.2337 -0.7337  0.1681
 3941SOL    HW115415   4.314   4.758   9.726  1.7006 -0.6348  0.5881
 3941SOL    HW215416   4.269   4.665   9.836  2.3736  0.1945  1.5793
 3942SOL     OW15417   1.709   6.266   0.906 -0.1562 -0.0895  0.0483
 3942SOL    HW115418   1.714   6.361   0.904 -0.1886 -0.0887  0.0165
 3942SOL    HW215419   1.626   6.247   0.951 -0.8459 -0.0967 -1.1760
 3943SOL     OW15420   7.572   2.496   3.615  0.6963  0.1766  0.3871
 3943SOL    HW115421   7.626   2.420   3.636  2.5514  1.8513  2.1616
 3943SOL    HW215422   7.634   2.560   3.580 -0.7567  1.0045 -0.7414
 3944SOL     OW15423   2.589   3.839   4.032  0.1342  0.6776  0.2836
 3944SOL    HW115424   2.638   3.921   4.038 -0.5386  1.1261 -0.1780
 3944SOL    HW215425   2.618   3.800   3.950  0.0612  0.7102  0.2428
 3945SOL     OW15426  10.988   4.194   2.614  0.1171 -0.1069 -0.2038
 3945SOL    HW115427  11.077   4.226   2.629 -0.5276  1.4772  0.4880
 3945SOL    HW215428  10.986   4.107   2.655  0.3628  1.2956  3.0818
 3946SOL     OW15429   3.528   8.585   0.294 -0.3030  0.3720 -0.6713
 3946SOL    HW115430   3.440   8.589   0.330 -0.2019  2.5267 -0.5599
 3946SOL    HW215431   3.519   8.532   0.215 -1.1616 -1.5650  0.6492
 3947SOL     OW15432  10.266   0.214   4.565 -0.1952 -0.1505 -0.7383
 3947SOL    HW115433  10.215   0.140   4.599 -0.2071 -0.4109 -1.3206
 3947SOL    HW215434  10.257   0.209   4.470  1.0286 -0.2716 -0.8604
 3948SOL     OW15435   9.801   1.473   5.738 -0.5312 -0.3412 -0.8164
 3948SOL    HW115436   9.826   1.563   5.754  1.4396 -1.2567  1.9654
 3948SOL    HW215437   9.710   1.467   5.766 -0.0039  0.3245  1.1474
 3949SOL     OW15438   8.554   1.275   6.706 -0.0504  0.2068  0.3485
 3949SOL    HW115439   8.635   1.239   6.670 -0.9328 -1.7688  0.2099
 3949SOL    HW215440   8.499   1.290   6.629 -0.7806 -1.0085  0.6203
 3950SOL     OW15441   2.864   2.174   4.478 -0.0580  0.1991 -0.6528
 3950SOL    HW115442   2.854   2.108   4.546 -1.1553  0.8336 -0.1706
 3950SOL    HW215443   2.828   2.134   4.399  0.9041 -0.4122 -0.8031
 3951SOL     OW15444   4.219   6.359  10.324  0.0662 -0.0200 -0.6793
 3951SOL    HW115445   4.301   6.408  10.327 -0.8051  1.4503 -0.1186
 3951SOL    HW215446   4.191   6.354  10.416 -0.8633  0.1722 -0.9432
 3952SOL     OW15447   6.287   7.103   5.783 -0.6068  0.0910 -0.3043
 3952SOL    HW115448   6.286   7.117   5.878 -1.6108 -0.1170 -0.2790
 3952SOL    HW215449   6.361   7.156   5.752  0.4888 -0.7864  0.7294
 3953SOL     OW15450   8.916   4.726   3.974  0.3944 -0.1743 -0.2928
 3953SOL    HW115451   8.852   4.673   3.926  0.4875 -1.5512  1.0081
 3953SOL    HW215452   8.938   4.797   3.914 -1.1765 -0.5397 -1.3776
 3954SOL     OW15453  10.362   6.840   0.987 -0.0521 -0.7346 -0.0216
 3954SOL    HW115454  10.317   6.756   0.992  0.6717 -1.2721 -1.6418
 3954SOL    HW215455  10.337   6.886   1.067 -1.3322 -2.0483  0.3784
 3955SOL     OW15456   7.506  10.424   6.819 -0.0941  0.1056  0.1123
 3955SOL    HW115457   7.459  10.443   6.738 -0.9350  0.8326  0.7606
 3955SOL    HW215458   7.474  10.488   6.882 -1.1862 -1.8696  1.6807
 3956SOL     OW15459   6.742   8.996  10.929 -0.0413  0.2437  0.0854
 3956SOL    HW115460   6.672   9.032  10.875  0.1094 -0.3147 -0.4968
 3956SOL    HW215461   6.814   8.981  10.868  0.6745  1.0221  0.7173
 3957SOL     OW15462   7.794   0.969  10.098  0.0046  0.0144  0.4652
 3957SOL    HW115463   7.820   1.040  10.040 -0.4789 -0.4915 -0.3866
 3957SOL    HW215464   7.699   0.982  10.110 -0.4023 -1.3984 -0.9934
 3958SOL     OW15465   1.233   0.257   2.692  0.0102 -0.5416 -0.2641
 3958SOL    HW115466   1.161   0.316   2.669 -0.0904 -0.0896  1.1238
 3958SOL    HW215467   1.271   0.295   2.771  2.1012 -0.4900 -1.2233
 3959SOL     OW15468   2.723   8.211   7.075 -0.0991 -0.6079 -0.0248
 3959SOL    HW115469   2.748   8.230   7.165 -1.2685  0.2488  0.1468
 3959SOL    HW215470   2.781   8.265   7.022  0.8525 -1.4043  0.1782
 3960SOL     OW15471   3.663   2.554   8.314  0.2832  0.1001  0.2794
 3960SOL    HW115472   3.757   2.570   8.308  0.9591 -3.0875  0.6461
 3960SOL    HW215473   3.636   2.532   8.225 -0.1070  0.8544  0.2041
 3961SOL     OW15474   1.098   2.118  10.940  0.2000 -0.6759 -0.3900
 3961SOL    HW115475   1.038   2.172  10.991 -1.0381 -1.2017 -1.2383
 3961SOL    HW215476   1.137   2.179  10.877  0.9284 -0.2393  0.4697
 3962SOL     OW15477   8.984   1.132   3.914  0.1350  0.0231 -0.2913
 3962SOL    HW115478   8.923   1.116   3.842 -0.2538  1.2101 -0.2386
 3962SOL    HW215479   9.030   1.212   3.890 -0.5115  0.8487  1.0933
 3963SOL     OW15480   9.826   7.047   5.935  0.0003 -0.5383 -0.6079
 3963SOL    HW115481   9.793   6.959   5.955 -1.8116 -0.1889 -1.7684
 3963SOL    HW215482   9.882   7.035   5.858  2.1548 -1.0425  0.9682
 3964SOL     OW15483   6.597   6.903   9.707 -0.3805 -0.9013 -0.2732
 3964SOL    HW115484   6.655   6.827   9.708 -0.0974 -0.6818  0.4005
 3964SOL    HW215485   6.653   6.976   9.730 -0.5447 -0.3974 -1.4200
 3965SOL     OW15486   5.897   0.937   1.521 -0.1463 -0.0969  0.0519
 3965SOL    HW115487   5.865   1.018   1.560  0.4100  0.3614 -0.4150
 3965SOL    HW215488   5.828   0.872   1.538 -0.8229  0.5988 -0.0047
 3966SOL     OW15489   7.382   6.183   8.134 -0.1669  0.7387  0.0064
 3966SOL    HW115490   7.419   6.267   8.161  0.2221  0.8024 -0.7102
 3966SOL    HW215491   7.431   6.159   8.055 -0.7035  0.1434 -0.1531
 3967SOL     OW15492  10.453   7.970   7.431 -0.0757  0.2926 -0.6426
 3967SOL    HW115493  10.428   7.907   7.498 -2.4675 -0.3377 -2.0016
 3967SOL    HW215494  10.417   8.053   7.462  2.0872  0.8572  0.5877
 3968SOL     OW15495  11.003   3.765   1.683  0.0520  0.3786 -0.3305
 3968SOL    HW115496  10.944   3.740   1.754 -0.4443 -0.0509 -0.8875
 3968SOL    HW215497  11.014   3.860   1.693  0.5749  0.2176  0.7606
 3969SOL     OW15498  10.798   1.664   1.660 -0.6645  0.4918 -0.3048
 3969SOL    HW115499  10.759   1.584   1.696  1.8925  0.0154  1.6746
 3969SOL    HW215500  10.877   1.635   1.616  0.1092  1.8801  0.1211
 3970SOL     OW15501   1.253  10.031   0.546 -0.0702  0.2559  0.0346
 3970SOL    HW115502   1.165  10.066   0.561 -0.3749 -0.9845  1.2934
 3970SOL    HW215503   1.242   9.970   0.474  0.1475  1.4455 -1.0498
 3971SOL     OW15504   5.668   3.022   7.480 -0.3395 -0.2972  0.3799
 3971SOL    HW115505   5.592   3.081   7.476 -1.8362 -2.1640 -0.4923
 3971SOL    HW215506   5.702   3.033   7.568  0.0399  2.5165 -0.0293
 3972SOL     OW15507   0.087   9.847   1.705 -0.0679 -0.2472  0.1766
 3972SOL    HW115508   0.054   9.770   1.752  0.8246 -0.2288  0.8618
 3972SOL    HW215509   0.056   9.922   1.757 -0.7313 -0.1395 -0.3565
 3973SOL     OW15510  10.481  11.009   4.569  0.0664 -0.5031 -0.6127
 3973SOL    HW115511  10.516  10.920   4.558  2.5746  0.0123  1.9232
 3973SOL    HW215512  10.546  11.053   4.624 -1.4590  2.7102 -1.1769
 3974SOL     OW15513   9.819   1.048   3.844  0.2144 -0.3230  0.0654
 3974SOL    HW115514   9.841   0.958   3.821 -0.7155 -0.5454  0.0118
 3974SOL    HW215515   9.734   1.042   3.888 -1.0536  0.7536 -2.0443
 3975SOL     OW15516   8.510   6.531   1.131 -0.4969 -0.1993  0.1465
 3975SOL    HW115517   8.468   6.617   1.134 -1.4248 -0.6532  1.0633
 3975SOL    HW215518   8.597   6.545   1.168 -0.6966  0.3200  0.4274
 3976SOL     OW15519   7.968   2.160   0.865 -0.5800 -0.1426 -0.1588
 3976SOL    HW115520   7.891   2.217   0.869 -0.7811 -0.4316  0.1186
 3976SOL    HW215521   7.955   2.108   0.785 -1.0270 -0.6804  0.2499
 3977SOL     OW15522   3.562   7.816   3.164  0.3163 -0.1900 -0.1441
 3977SOL    HW115523   3.629   7.879   3.190  1.2341 -0.8337 -0.8740
 3977SOL    HW215524   3.496   7.820   3.234  0.0032  2.0356 -0.4972
 3978SOL     OW15525   4.861   8.842   4.894 -0.3660  0.1460  0.0180
 3978SOL    HW115526   4.904   8.829   4.979 -3.5778 -0.1495  1.7765
 3978SOL    HW215527   4.859   8.937   4.883 -0.9362  0.2500  0.8948
 3979SOL     OW15528   7.798   4.676   3.635  0.5534 -0.0909  0.2094
 3979SOL    HW115529   7.822   4.658   3.726  0.2821  0.1098  0.3208
 3979SOL    HW215530   7.882   4.676   3.588  0.5694 -1.8852  0.1548
 3980SOL     OW15531   8.942   6.610   0.636  1.1153 -0.4388  0.0012
 3980SOL    HW115532   8.938   6.516   0.651  0.8413 -0.5239 -0.5933
 3980SOL    HW215533   9.017   6.623   0.579  0.6757 -0.3920 -0.5793
 3981SOL     OW15534   9.486   2.383   0.746 -0.0037 -0.1679 -0.0789
 3981SOL    HW115535   9.465   2.445   0.816  2.0613  0.3672  0.1446
 3981SOL    HW215536   9.461   2.429   0.666 -0.5498  0.0348  0.2029
 3982SOL     OW15537   2.955   0.570   9.711 -0.2947  0.1956 -0.4659
 3982SOL    HW115538   2.961   0.541   9.802  0.9340  1.7253 -0.0163
 3982SOL    HW215539   2.893   0.643   9.712  0.1839  0.6126 -0.7416
 3983SOL     OW15540   9.607   0.701   5.108  0.0077  0.0401 -0.2114
 3983SOL    HW115541   9.623   0.726   5.199  0.2369  2.9586 -0.9578
 3983SOL    HW215542   9.514   0.719   5.094  0.3203  1.1790 -0.9556
 3984SOL     OW15543   5.310   5.208   9.010 -0.0556 -0.1520  0.5766
 3984SOL    HW115544   5.242   5.225   8.945  0.3766  0.2066  0.2106
 3984SOL    HW215545   5.312   5.286   9.065  2.0518  1.1673 -1.2119
 3985SOL     OW15546   5.619   8.661   1.949 -0.3715  0.3854 -0.0658
 3985SOL    HW115547   5.536   8.691   1.986 -1.1661  1.6026 -2.5933
 3985SOL    HW215548   5.601   8.574   1.914  0.3986 -0.7950  2.2308
 3986SOL     OW15549   8.816   7.467   6.943 -0.3100  0.8151 -0.5937
 3986SOL    HW115550   8.739   7.447   6.996 -0.2695  0.9682 -0.4777
 3986SOL    HW215551   8.781   7.518   6.870 -0.7433 -1.3689 -2.0187
 3987SOL     OW15552   9.295   2.308   1.069  0.2965 -0.3751 -0.3624
 3987SOL    HW115553   9.221   2.362   1.040  0.5022  2.1159  3.0632
 3987SOL    HW215554   9.257   2.246   1.131  0.9753  0.9475  1.4519
 3988SOL     OW15555   4.912   6.755   5.510 -0.1657  0.3564 -0.0730
 3988SOL    HW115556   4.942   6.700   5.583 -0.5930 -0.9851 -0.8764
 3988SOL    HW215557   4.924   6.701   5.432 -3.2276  0.3131 -0.6088
 3989SOL     OW15558   8.877   9.638   1.662  0.0398  0.1095  0.0116
 3989SOL    HW115559   8.785   9.651   1.687 -0.0037 -1.9200  1.0797
 3989SOL    HW215560   8.883   9.677   1.574 -1.8892  0.1024 -0.1709
 3990SOL     OW15561   2.272  11.058   6.511 -0.1177  0.0982 -0.2098
 3990SOL    HW115562   2.277  11.115   6.588  0.1069  0.1041 -0.2288
 3990SOL    HW215563   2.294  10.971   6.543  0.6134  0.2110 -0.3854
 3991SOL     OW15564   3.774   6.552   4.874 -0.0573 -0.3182  0.0574
 3991SOL    HW115565   3.849   6.560   4.815  1.0456 -0.8372  1.3311
 3991SOL    HW215566   3.809   6.510   4.953 -1.5313  0.1102  0.9975
 3992SOL     OW15567   9.819   8.529   2.505 -0.3569 -0.2137 -0.3499
 3992SOL    HW115568   9.782   8.479   2.578 -1.7687 -1.6116 -1.9371
 3992SOL    HW215569   9.748   8.587   2.478  0.6757  1.4347  0.3164
 3993SOL     OW15570   6.804   6.421   4.276 -0.3455 -0.3005 -0.0442
 3993SOL    HW115571   6.895   6.395   4.260 -0.9394 -1.6346 -1.5663
 3993SOL    HW215572   6.764   6.421   4.189 -1.5305  1.4683  0.4477
 3994SOL     OW15573   5.764   9.292   2.504  0.2880  0.4279 -0.1220
 3994SOL    HW115574   5.844   9.272   2.456  0.7800 -1.8484  1.5105
 3994SOL    HW215575   5.711   9.342   2.441  2.0087  0.0029 -2.0323
 3995SOL     OW15576   5.139   2.385   7.216  0.0651 -0.2529 -0.2860
 3995SOL    HW115577   5.221   2.337   7.205 -0.8265 -1.6377 -1.1955
 3995SOL    HW215578   5.155   2.470   7.174  1.2713 -0.1946  0.2588
 3996SOL     OW15579   2.828   0.763   3.608 -0.2700  0.4234  0.3827
 3996SOL    HW115580   2.778   0.704   3.551  0.0948 -0.9475  1.4233
 3996SOL    HW215581   2.912   0.774   3.564  0.4144 -1.4953  1.1020
 3997SOL     OW15582   3.270   2.320   4.138  0.2134 -0.1756 -0.2173
 3997SOL    HW115583   3.250   2.347   4.228 -0.7292 -0.2788 -0.3850
 3997SOL    HW215584   3.323   2.241   4.148  0.2677 -0.0839  0.2451
 3998SOL     OW15585  10.044   4.766  10.286 -0.3504  0.2432 -0.2516
 3998SOL    HW115586   9.952   4.765  10.259 -0.5659 -1.5309  0.4244
 3998SOL    HW215587  10.045   4.723  10.371  1.3441 -1.7064 -1.1722
 3999SOL     OW15588   0.527   9.680   2.203  0.1404 -0.3400 -0.3631
 3999SOL    HW115589   0.491   9.769   2.203 -0.6333 -0.6433 -0.4832
 3999SOL    HW215590   0.524   9.653   2.111  0.7745 -0.3406 -0.3895
 4000SOL     OW15591  10.058   3.695   9.899  0.3107 -0.8399 -0.0635
 4000SOL    HW115592  10.001   3.625   9.931  0.2175 -1.0966 -0.7781
 4000SOL    HW215593  10.103   3.727   9.977  0.1401 -1.4987  0.3093
 4001SOL     OW15594  10.197   0.005   0.415  0.1710 -0.1414  0.5336
 4001SOL    HW115595  10.102  -0.006   0.405  0.1424 -0.2819  0.9492
 4001SOL    HW215596  10.209   0.099   0.425  0.2820  0.1368 -1.6319
 4002SOL     OW15597   1.917   1.101   8.366  0.1836  0.4226  0.8196
 4002SOL    HW115598   1.881   1.144   8.289  0.7085 -2.7720 -1.3855
 4002SOL    HW215599   2.011   1.119   8.362  0.0903  1.0769  1.3303
 4003SOL     OW15600   8.680   1.666  10.421 -0.2114 -0.4032 -0.3920
 4003SOL    HW115601   8.734   1.607  10.368 -0.6888 -0.7612 -0.4896
 4003SOL    HW215602   8.691   1.636  10.511  0.0232 -0.2551 -0.3703
 4004SOL     OW15603   0.036   1.851   7.954  0.2462 -0.0979  0.0914
 4004SOL    HW115604   0.090   1.824   8.028  1.1028  1.7733  0.1945
 4004SOL    HW215605   0.098   1.888   7.891 -0.5211 -1.2035 -1.3797
 4005SOL     OW15606   8.868   1.102   8.522  0.2684 -0.3624 -0.0378
 4005SOL    HW115607   8.897   1.033   8.582  2.2171 -0.4982 -1.0508
 4005SOL    HW215608   8.949   1.146   8.496 -0.7327  0.9057 -1.0872
 4006SOL     OW15609   5.532   6.715   6.031  0.5181 -0.0433  0.6356
 4006SOL    HW115610   5.601   6.744   6.090  0.0114 -0.2651  1.3572
 4006SOL    HW215611   5.453   6.715   6.085 -0.0273  0.1016 -0.1426
 4007SOL     OW15612   1.425   8.685   6.230  0.0617 -0.2961 -0.0417
 4007SOL    HW115613   1.357   8.736   6.185 -0.3725 -1.2668 -0.5287
 4007SOL    HW215614   1.395   8.594   6.222  0.8495 -0.6358  0.7446
 4008SOL     OW15615  10.276   4.728   4.557 -0.0811 -0.0352 -0.5534
 4008SOL    HW115616  10.248   4.757   4.643 -1.5249  2.0947 -1.6423
 4008SOL    HW215617  10.346   4.789   4.532 -1.7080  1.3350 -2.0295
 4009SOL     OW15618   1.075   5.582   8.642 -0.4103 -0.0898  0.1426
 4009SOL    HW115619   1.051   5.666   8.603  1.7925  0.4459 -0.2005
 4009SOL    HW215620   1.092   5.525   8.568 -1.5659 -0.7800  0.3782
 4010SOL     OW15621   1.931  10.850   6.011 -0.0459 -0.0077 -0.7727
 4010SOL    HW115622   1.998  10.782   6.019  0.9660  0.8148 -1.8184
 4010SOL    HW215623   1.889  10.853   6.097  1.2021 -0.6302 -0.1160
 4011SOL     OW15624   6.588   6.091   2.732 -0.2834  0.0997 -0.3465
 4011SOL    HW115625   6.546   6.166   2.690 -0.3410  0.2545 -0.0139
 4011SOL    HW215626   6.663   6.127   2.778 -0.8507  0.1066  0.6110
 4012SOL     OW15627   6.778   8.831   9.865  0.0996  0.4381  0.3523
 4012SOL    HW115628   6.758   8.774   9.791 -0.2258 -0.1112  0.8495
 4012SOL    HW215629   6.814   8.772   9.932  1.2662  1.0719  0.3007
 4013SOL     OW15630   1.822   6.725   8.189 -0.1969  0.1718  0.1423
 4013SOL    HW115631   1.817   6.809   8.234  2.7161  0.1476  0.7131
 4013SOL    HW215632   1.915   6.716   8.165 -0.7124 -2.1671 -1.3126
 4014SOL     OW15633   1.584   9.262   4.042 -0.1070 -0.6744  0.7584
 4014SOL    HW115634   1.654   9.196   4.047 -1.0821 -1.7954  0.0053
 4014SOL    HW215635   1.512   9.225   4.093 -1.3800 -1.1288 -1.2660
 4015SOL     OW15636   5.694   2.133   0.941  0.1596  0.4713 -0.3417
 4015SOL    HW115637   5.649   2.156   1.023  2.4025 -1.6544  1.6540
 4015SOL    HW215638   5.779   2.175   0.948  0.0777  1.0121 -2.0913
 4016SOL     OW15639   7.369   0.873   4.773  0.3038  0.0247  0.0148
 4016SOL    HW115640   7.306   0.942   4.751 -0.3549 -0.1071  1.3448
 4016SOL    HW215641   7.317   0.808   4.821  0.8905 -1.4911 -1.3181
 4017SOL     OW15642   2.654   3.776   1.096 -1.3333  0.4051  0.1801
 4017SOL    HW115643   2.647   3.820   1.012  1.5200 -0.9679 -0.9233
 4017SOL    HW215644   2.702   3.837   1.152  1.3101 -0.5277 -0.8913
 4018SOL     OW15645   3.675   9.086   3.041 -0.7167 -0.4916  0.2006
 4018SOL    HW115646   3.680   9.167   2.991 -1.0246 -1.1734 -0.9668
 4018SOL    HW215647   3.611   9.033   2.995  0.4539 -1.9374  0.1424
 4019SOL     OW15648   8.666   4.439   5.130  0.1153 -0.6065  0.1025
 4019SOL    HW115649   8.695   4.524   5.162 -2.0650  0.4884 -0.6250
 4019SOL    HW215650   8.571   4.440   5.143 -0.3394 -1.7728 -2.4961
 4020SOL     OW15651   1.128   9.222   2.609 -0.7362 -0.0137 -0.3262
 4020SOL    HW115652   1.188   9.174   2.552  1.0121 -0.0417  1.3914
 4020SOL    HW215653   1.074   9.155   2.650  1.0573 -0.5560  1.3454
 4021SOL     OW15654   9.453   4.371   1.125  0.2101  0.4906 -0.1814
 4021SOL    HW115655   9.447   4.285   1.084 -2.2954 -0.2812  1.5427
 4021SOL    HW215656   9.388   4.424   1.079 -1.0999  0.2334  1.2922
 4022SOL     OW15657   7.438   1.638   2.610  0.5216 -0.7517  0.9122
 4022SOL    HW115658   7.484   1.563   2.648  0.0925 -0.9063  1.1384
 4022SOL    HW215659   7.351   1.634   2.650  0.1075 -0.8334  0.0183
 4023SOL     OW15660   9.450   8.079   0.764 -0.4547  0.1022  0.2041
 4023SOL    HW115661   9.538   8.044   0.749  0.7060  2.3714  1.2100
 4023SOL    HW215662   9.400   8.005   0.798  1.0980 -1.1993 -0.2276
 4024SOL     OW15663   7.602   0.840   4.601  0.2918 -0.5170 -0.4322
 4024SOL    HW115664   7.540   0.836   4.674  1.7927 -1.2243  0.8692
 4024SOL    HW215665   7.649   0.922   4.613  1.0999 -1.0160 -0.1088
 4025SOL     OW15666  11.084  10.880  10.110 -0.1107  0.1740  0.0285
 4025SOL    HW115667  11.034  10.855  10.032  0.1171 -0.4924  0.0892
 4025SOL    HW215668  11.096  10.797  10.158  0.6808  0.4024  0.2264
 4026SOL     OW15669   3.656   6.349   8.077 -0.6065  0.4001 -0.4742
 4026SOL    HW115670   3.654   6.268   8.128  0.0972  0.7191  0.0659
 4026SOL    HW215671   3.738   6.391   8.102  0.2500  0.0903 -2.6252
 4027SOL     OW15672   1.302   0.351   1.699  0.0597 -0.8940  0.1814
 4027SOL    HW115673   1.320   0.387   1.612 -3.0139 -1.3917 -0.7758
 4027SOL    HW215674   1.309   0.256   1.687 -1.6499 -1.0306  0.0916
 4028SOL     OW15675   1.994   1.384   7.368 -0.6502  0.5325  0.2398
 4028SOL    HW115676   2.045   1.439   7.308 -0.7579 -0.2548 -0.5913
 4028SOL    HW215677   1.981   1.302   7.321  0.1745 -0.5160  1.7520
 4029SOL     OW15678   3.432   8.070   5.154  0.2508  0.5715 -0.3008
 4029SOL    HW115679   3.502   8.004   5.149 -0.0210  0.2998 -0.6242
 4029SOL    HW215680   3.370   8.043   5.086 -1.4490 -0.6822  1.6421
 4030SOL     OW15681   3.703   5.278   8.863  0.7715 -0.0098 -0.3839
 4030SOL    HW115682   3.740   5.303   8.778  0.6176  1.6932  0.0136
 4030SOL    HW215683   3.774   5.295   8.926  0.4473 -0.0100 -0.0132
 4031SOL     OW15684   0.516   8.449   3.039  0.6991  0.0484  0.4306
 4031SOL    HW115685   0.601   8.409   3.019  0.3525 -0.6471  0.3057
 4031SOL    HW215686   0.452   8.390   2.999  0.2092  1.7750 -1.5210
 4032SOL     OW15687   5.471   6.808   3.993  0.1853 -0.5151 -0.5730
 4032SOL    HW115688   5.387   6.781   4.031  0.5918  0.2822  0.9846
 4032SOL    HW215689   5.508   6.869   4.057  2.3705 -1.5212 -0.7647
 4033SOL     OW15690   5.966  11.019   7.062  0.0337 -0.1713  0.0122
 4033SOL    HW115691   5.930  11.030   6.975  0.9770 -0.3582 -0.4110
 4033SOL    HW215692   6.051  10.978   7.048 -0.2195 -1.1100  1.0780
 4034SOL     OW15693  10.292   4.885   5.132 -0.4005 -0.2172  0.0577
 4034SOL    HW115694  10.375   4.837   5.136  0.0650  0.5084 -0.6516
 4034SOL    HW215695  10.259   4.868   5.044 -0.6167  0.1291  0.0727
 4035SOL     OW15696   5.370   8.030   2.596  0.1502  0.4279 -0.0014
 4035SOL    HW115697   5.345   8.098   2.534  1.0585  0.5590 -0.2451
 4035SOL    HW215698   5.291   7.978   2.608 -0.0740  0.4529 -1.2126
 4036SOL     OW15699   7.551   9.622   9.217 -0.0202  0.6058 -0.0912
 4036SOL    HW115700   7.535   9.692   9.153 -0.8677  0.7532  0.2673
 4036SOL    HW215701   7.537   9.664   9.302  0.9439  0.3736  0.1991
 4037SOL     OW15702  10.891   4.460  10.800  0.0828 -0.8102  0.7948
 4037SOL    HW115703  10.931   4.447  10.886 -0.0632 -1.3901  0.7762
 4037SOL    HW215704  10.822   4.394  10.795  0.4405 -1.1455  0.0162
 4038SOL     OW15705   9.058   1.026   1.297  0.2608  0.0045 -0.1538
 4038SOL    HW115706   9.090   1.108   1.259 -1.7775  1.6284  1.4000
 4038SOL    HW215707   9.031   0.973   1.222  1.6775  0.6868 -1.1944
 4039SOL     OW15708   3.635   0.420   4.152  0.1939 -0.1629  0.5288
 4039SOL    HW115709   3.730   0.411   4.139  0.4385  1.7859  0.6248
 4039SOL    HW215710   3.598   0.397   4.066  1.0375  2.2175 -0.5630
 4040SOL     OW15711   0.375   5.216   5.607 -0.3346 -0.1856  0.1441
 4040SOL    HW115712   0.361   5.131   5.650 -1.3072  0.1334  0.4900
 4040SOL    HW215713   0.470   5.221   5.593 -0.3364 -1.6395 -0.5495
 4041SOL     OW15714   3.165   9.653   1.786  0.1348 -0.0827  0.3441
 4041SOL    HW115715   3.091   9.607   1.825 -0.6829  0.7806 -0.1613
 4041SOL    HW215716   3.172   9.617   1.697  0.9062 -0.7961  0.6671
 4042SOL     OW15717   4.742   6.762   6.710 -0.3442 -0.4288 -0.2496
 4042SOL    HW115718   4.708   6.841   6.668  0.4182 -0.4168 -0.8705
 4042SOL    HW215719   4.836   6.779   6.720 -0.6936  0.3444  3.1171
 4043SOL     OW15720   7.876   7.850  10.129  0.3162  1.1447  0.1103
 4043SOL    HW115721   7.910   7.761  10.137  1.2018  1.4257 -0.3149
 4043SOL    HW215722   7.863   7.862  10.035 -2.2090  0.6290  0.3185
 4044SOL     OW15723   2.818   3.885  10.790  0.2844 -0.0277 -0.0242
 4044SOL    HW115724   2.849   3.975  10.777  0.4737 -0.0010  0.6036
 4044SOL    HW215725   2.831   3.843  10.705 -2.1204  1.2053 -1.1043
 4045SOL     OW15726   7.794   8.883   3.110 -0.4725 -0.0880 -0.3647
 4045SOL    HW115727   7.796   8.864   3.017 -0.3472 -2.6585  0.0894
 4045SOL    HW215728   7.704   8.912   3.127 -0.7916 -0.6325 -1.0910
 4046SOL     OW15729   1.398  10.939   2.786  0.4520 -0.4928  0.5667
 4046SOL    HW115730   1.457  10.917   2.714 -0.1799 -0.5922  0.0719
 4046SOL    HW215731   1.401  11.034   2.791 -0.7287 -0.3527 -0.6759
 4047SOL     OW15732   2.872   6.819   3.054 -0.2680 -0.1923  0.5316
 4047SOL    HW115733   2.862   6.807   2.959  1.2623 -0.3475  0.3725
 4047SOL    HW215734   2.966   6.816   3.069 -0.1787  3.2830  1.6049
 4048SOL     OW15735   0.615   9.170  10.628 -0.3737  0.1616  0.1925
 4048SOL    HW115736   0.703   9.188  10.660  0.3668 -0.2379 -1.5633
 4048SOL    HW215737   0.624   9.094  10.571 -2.1317 -0.8825  1.1963
 4049SOL     OW15738   4.492   1.259   5.992  0.6929 -0.0606 -0.0229
 4049SOL    HW115739   4.474   1.242   5.900  2.6071  1.2670 -0.7178
 4049SOL    HW215740   4.467   1.350   6.005 -1.6806 -0.8530  1.4199
 4050SOL     OW15741   1.153   1.754   9.372  0.1494 -0.3886  0.2171
 4050SOL    HW115742   1.144   1.690   9.301  1.5922 -1.8728  1.2920
 4050SOL    HW215743   1.066   1.755   9.414 -0.2887 -0.5902 -0.6507
 4051SOL     OW15744   1.875   7.847   6.567 -0.3673  0.0997  0.0908
 4051SOL    HW115745   1.930   7.883   6.637 -0.0538 -1.3395  0.6356
 4051SOL    HW215746   1.887   7.752   6.575 -0.0956 -0.0956 -2.1236
 4052SOL     OW15747   7.268   8.453   9.248  0.0431 -0.2359 -0.1544
 4052SOL    HW115748   7.198   8.514   9.224 -2.7060 -3.0303  0.1281
 4052SOL    HW215749   7.295   8.415   9.164 -0.4468 -0.8122 -0.0556
 4053SOL     OW15750   9.467   2.556   4.260  0.3308  0.7341  0.7270
 4053SOL    HW115751   9.403   2.559   4.331 -1.9196  0.4645 -1.1472
 4053SOL    HW215752   9.504   2.644   4.257 -1.6852  1.6406  0.4582
 4054SOL     OW15753   9.936  10.662   5.068 -0.2691 -0.0830  0.5860
 4054SOL    HW115754  10.016  10.612   5.085 -0.3451 -0.6054 -0.5004
 4054SOL    HW215755   9.934  10.673   4.973 -0.5839  1.4646  0.7506
 4055SOL     OW15756   9.044   7.673   9.530  0.6726 -0.3292  0.0207
 4055SOL    HW115757   9.043   7.758   9.484  0.0147 -0.7017 -0.6726
 4055SOL    HW215758   8.982   7.619   9.481  1.1061 -1.2230  0.4472
 4056SOL     OW15759   2.462   8.292  10.896 -0.1502  0.1146 -0.0056
 4056SOL    HW115760   2.413   8.291  10.979  2.1318 -0.7279  1.4083
 4056SOL    HW215761   2.536   8.351  10.913 -0.1913  0.7594 -1.8357
 4057SOL     OW15762   9.144  10.827   0.296  0.3972 -0.4380  0.1177
 4057SOL    HW115763   9.116  10.881   0.371 -2.9245 -1.7271 -0.0305
 4057SOL    HW215764   9.223  10.784   0.326  0.1054  0.3825  2.2654
 4058SOL     OW15765   5.044   1.621   0.631 -0.5210  0.2934 -0.2929
 4058SOL    HW115766   4.969   1.677   0.649  0.5868  1.2403  1.5312
 4058SOL    HW215767   5.104   1.635   0.703  0.1296 -2.7507 -0.0784
 4059SOL     OW15768   2.503   9.801   8.136 -0.3918 -0.2768 -0.1862
 4059SOL    HW115769   2.473   9.823   8.047  2.2215  0.5918 -0.9383
 4059SOL    HW215770   2.512   9.886   8.179 -2.5595 -0.7336  1.3258
 4060SOL     OW15771   9.073   8.162   4.409  0.2082  0.3283  0.1272
 4060SOL    HW115772   9.139   8.104   4.372 -0.7270 -1.2958  0.8710
 4060SOL    HW215773   9.089   8.159   4.503 -0.8073 -0.0052  0.3088
 4061SOL     OW15774  10.382   2.335   0.061 -0.2618  0.5881 -0.1150
 4061SOL    HW115775  10.301   2.301   0.098 -0.5487  0.3339 -0.9517
 4061SOL    HW215776  10.451   2.304   0.119 -0.3842 -2.2955 -1.3473
 4062SOL     OW15777   4.117   9.908  10.048  0.0689  0.0327 -0.2500
 4062SOL    HW115778   4.041   9.949  10.090 -0.2537 -0.4864 -0.3278
 4062SOL    HW215779   4.119   9.945   9.960  1.3473  1.9277  0.4912
 4063SOL     OW15780   0.018   0.275   3.190  0.0234  0.2578 -0.3458
 4063SOL    HW115781  -0.039   0.345   3.159  0.0304  1.0261  1.2641
 4063SOL    HW215782   0.103   0.318   3.203  0.3010 -0.2972 -0.3122
 4064SOL     OW15783   7.723   7.008   1.748  0.2510 -0.2130  0.0342
 4064SOL    HW115784   7.745   6.946   1.818  1.3524  0.7503  0.5793
 4064SOL    HW215785   7.700   7.088   1.794 -1.2687 -0.2181 -0.6626
 4065SOL     OW15786   6.109   4.761   3.299  0.5912 -0.5128  0.0439
 4065SOL    HW115787   6.147   4.765   3.212 -0.1060 -1.0783 -0.2992
 4065SOL    HW215788   6.021   4.725   3.286 -0.2965  1.2667  0.7350
 4066SOL     OW15789   3.541   9.818   4.634  0.1175  0.1204 -0.3005
 4066SOL    HW115790   3.493   9.738   4.615  0.4241  0.1963 -1.4580
 4066SOL    HW215791   3.501   9.884   4.577 -0.8356  1.0770  1.3741
 4067SOL     OW15792   7.297   5.859   5.586 -0.2688 -0.2819  0.0655
 4067SOL    HW115793   7.238   5.890   5.518  0.5645  2.2689  0.4049
 4067SOL    HW215794   7.275   5.766   5.597 -0.2919 -0.8671 -3.7730
 4068SOL     OW15795   0.343   1.660   8.723  0.2310 -0.0629 -0.2387
 4068SOL    HW115796   0.418   1.625   8.674  0.5421  0.2176  0.0357
 4068SOL    HW215797   0.357   1.754   8.726 -0.7135  0.1212 -1.1437
 4069SOL     OW15798   8.828   8.275   1.652  0.1529  0.2139  0.5065
 4069SOL    HW115799   8.774   8.253   1.728  2.2938 -1.4986  1.6427
 4069SOL    HW215800   8.815   8.202   1.592  1.3104 -0.3284  0.8861
 4070SOL     OW15801   8.179  10.538   6.955 -0.3486 -0.2787  0.2029
 4070SOL    HW115802   8.169  10.627   6.922  0.6405 -0.2110  0.0559
 4070SOL    HW215803   8.155  10.543   7.048 -1.2644 -0.0742 -0.0366
 4071SOL     OW15804   3.745   1.249   8.997  0.1629 -0.6758 -0.3923
 4071SOL    HW115805   3.675   1.232   8.934 -1.7350 -1.5907  1.8472
 4071SOL    HW215806   3.707   1.311   9.059  2.1579  0.5919 -0.3370
 4072SOL     OW15807   5.756   3.971   0.198 -0.0518  0.2214 -0.3941
 4072SOL    HW115808   5.695   3.977   0.125 -0.3525  1.9584 -0.0344
 4072SOL    HW215809   5.805   3.890   0.181 -1.9206 -0.8392 -1.0769
 4073SOL     OW15810   1.568   5.988   0.885  0.1109  0.0169 -0.0104
 4073SOL    HW115811   1.663   5.980   0.896  0.0453 -0.5350  0.2013
 4073SOL    HW215812   1.542   6.052   0.951  0.1448 -0.9712  1.0076
 4074SOL     OW15813   6.443   3.595   1.948 -0.0561  0.0230  0.7840
 4074SOL    HW115814   6.522   3.560   1.989  0.4085 -0.1641 -0.2461
 4074SOL    HW215815   6.407   3.522   1.898 -0.3229  0.3921  0.4303
 4075SOL     OW15816  10.237  10.173   7.618  0.0156  0.2600  0.4333
 4075SOL    HW115817  10.256  10.116   7.543 -1.5782 -0.6621  0.6869
 4075SOL    HW215818  10.161  10.224   7.590  0.2345  0.8794  0.9471
 4076SOL     OW15819   4.496   8.778   5.746  0.3641  0.1345  0.5596
 4076SOL    HW115820   4.436   8.837   5.702  0.6841  0.6405  0.7931
 4076SOL    HW215821   4.582   8.799   5.709  0.0887 -2.7950 -2.2429
 4077SOL     OW15822   6.378   9.160   2.309 -0.0619 -0.1427 -0.2270
 4077SOL    HW115823   6.408   9.193   2.224 -2.1185 -0.2786 -1.0517
 4077SOL    HW215824   6.298   9.111   2.290 -0.1851 -0.8104  1.7106
 4078SOL     OW15825   8.944   7.582   1.836 -0.3612 -0.4970  0.1688
 4078SOL    HW115826   9.024   7.562   1.885 -0.3505 -0.0120  0.3566
 4078SOL    HW215827   8.889   7.505   1.846  0.0289 -0.7785  0.1553
 4079SOL     OW15828   5.746   4.545   8.986 -0.5497  0.0404  0.5709
 4079SOL    HW115829   5.815   4.510   8.931 -0.2612  0.4111  0.6906
 4079SOL    HW215830   5.729   4.633   8.951  1.4767  1.3718  2.6255
 4080SOL     OW15831   6.462   2.365   5.433 -0.2804  0.0389 -0.1405
 4080SOL    HW115832   6.456   2.366   5.338  0.0680 -2.6736 -0.2776
 4080SOL    HW215833   6.555   2.368   5.452 -0.3153 -0.2311  0.0789
 4081SOL     OW15834   5.998   1.696  10.892  0.5420 -0.3166 -0.1021
 4081SOL    HW115835   5.999   1.606  10.859  2.0553 -0.4819  0.3455
 4081SOL    HW215836   5.931   1.695  10.960  0.6748 -1.1590  0.0315
 4082SOL     OW15837   1.252   0.035   4.631 -0.2226  0.4982 -0.1677
 4082SOL    HW115838   1.287  -0.051   4.657 -0.0969  0.3601 -0.7636
 4082SOL    HW215839   1.199   0.063   4.705 -1.2592 -0.6534 -0.4366
 4083SOL     OW15840   4.991   9.142   7.677  0.3542  0.5940  0.1185
 4083SOL    HW115841   4.993   9.049   7.700  0.4663  0.0443 -1.9205
 4083SOL    HW215842   4.902   9.158   7.646  0.8716  0.6056 -1.4825
 4084SOL     OW15843   2.501   9.198   6.910 -0.4599 -0.7719 -0.5206
 4084SOL    HW115844   2.592   9.221   6.889 -0.3841  1.9522  2.0195
 4084SOL    HW215845   2.509   9.130   6.977 -0.3506 -1.6513 -1.4231
 4085SOL     OW15846   3.065   3.421   9.621  0.3339 -0.2530  0.2826
 4085SOL    HW115847   3.029   3.429   9.710 -1.3563  0.3500 -0.4134
 4085SOL    HW215848   3.031   3.338   9.589 -1.6990  0.9479 -0.8737
 4086SOL     OW15849   0.303   8.615   1.008  0.9194  0.0069 -0.3078
 4086SOL    HW115850   0.245   8.541   1.023  1.3971 -0.7452 -1.9124
 4086SOL    HW215851   0.245   8.691   1.000  0.1361 -0.7002 -1.7271
 4087SOL     OW15852   7.998   9.552   2.104  0.1524  0.2911  0.7096
 4087SOL    HW115853   8.056   9.486   2.067  0.6628  0.8823  0.4370
 4087SOL    HW215854   7.917   9.505   2.123  0.3021 -0.2827 -0.0403
 4088SOL     OW15855   0.798   1.188   3.579  0.1771 -0.2151  0.6112
 4088SOL    HW115856   0.734   1.154   3.517  0.5453  0.4537 -0.1347
 4088SOL    HW215857   0.749   1.249   3.634  0.2048  0.4485 -0.0875
 4089SOL     OW15858   4.654   4.567   8.013 -0.2458 -0.3781 -0.0676
 4089SOL    HW115859   4.633   4.586   8.105 -0.7568  1.2933 -0.4938
 4089SOL    HW215860   4.749   4.565   8.010 -0.1981  0.7822  0.2896
 4090SOL     OW15861   0.071   2.381   8.877 -0.1605  0.2233  0.1679
 4090SOL    HW115862   0.157   2.405   8.910 -0.5809  0.2892  1.2458
 4090SOL    HW215863   0.021   2.357   8.955 -0.8013 -0.8468 -0.5433
 4091SOL     OW15864   0.838   9.298   7.919  0.0962 -0.1980 -0.6161
 4091SOL    HW115865   0.877   9.356   7.853 -0.6313  0.5073 -0.4521
 4091SOL    HW215866   0.804   9.224   7.869 -0.1463  0.1674 -1.0049
 4092SOL     OW15867   8.787   5.435   6.345 -0.0955 -0.3003  0.2551
 4092SOL    HW115868   8.777   5.420   6.439 -1.1812  1.6347  0.5011
 4092SOL    HW215869   8.699   5.459   6.315  0.1929 -1.0977 -1.3138
 4093SOL     OW15870   4.096   4.038   4.230  0.1583 -0.7726 -0.4914
 4093SOL    HW115871   4.172   3.982   4.213  0.8996 -0.3406  1.2235
 4093SOL    HW215872   4.021   3.979   4.226  0.5782 -1.2577 -1.9404
 4094SOL     OW15873  10.951   8.648   7.240  0.3961  0.4865 -0.0500
 4094SOL    HW115874  10.932   8.586   7.169  0.9278  1.1006 -0.7510
 4094SOL    HW215875  10.884   8.716   7.230  0.8271  0.8749 -0.3453
 4095SOL     OW15876  11.101  11.018   8.655 -0.1952  0.0662  0.4851
 4095SOL    HW115877  11.038  11.032   8.584  0.3013  2.0990  0.4011
 4095SOL    HW215878  11.051  11.034   8.735 -0.5161 -1.3068  0.5822
 4096SOL     OW15879   7.362   7.770   0.060 -0.4432  0.6144  0.7462
 4096SOL    HW115880   7.435   7.742   0.004 -0.1011  1.3572  0.8105
 4096SOL    HW215881   7.327   7.689   0.097 -0.0262  0.2035  0.2487
 4097SOL     OW15882   6.804   0.486  10.075 -0.6472  0.0822  0.2241
 4097SOL    HW115883   6.799   0.457   9.984 -0.1089  2.2686 -0.5683
 4097SOL    HW215884   6.890   0.456  10.105 -0.5634 -0.0985 -0.1937
 4098SOL     OW15885   5.695   5.537   6.775  0.1281  0.5391 -0.1179
 4098SOL    HW115886   5.626   5.474   6.798 -1.0593  1.9112  0.2813
 4098SOL    HW215887   5.697   5.536   6.679 -0.5015  0.5245 -0.1357
 4099SOL     OW15888   4.865   6.875  11.037  0.0507  0.5604  0.0196
 4099SOL    HW115889   4.774   6.849  11.049 -0.0421  0.0211 -1.6592
 4099SOL    HW215890   4.893   6.830  10.957  2.6867 -1.6643  1.9661
 4100SOL     OW15891   3.623   8.538   5.638 -0.1908  0.1272 -0.0195
 4100SOL    HW115892   3.588   8.601   5.575 -2.0075  1.1466  1.8942
 4100SOL    HW215893   3.558   8.535   5.709  0.7690 -2.4782  0.8937
 4101SOL     OW15894   7.479   6.816   7.010 -0.4131 -0.5203  0.0971
 4101SOL    HW115895   7.516   6.749   7.068 -1.8501 -1.0204  0.4579
 4101SOL    HW215896   7.431   6.766   6.943  0.2463  0.0949 -0.8646
 4102SOL     OW15897   4.902   8.065   4.513  0.0537  0.2755  0.5105
 4102SOL    HW115898   4.934   8.099   4.596  0.7454 -0.5234  0.5877
 4102SOL    HW215899   4.812   8.096   4.506  0.7045  2.2604  0.4870
 4103SOL     OW15900   2.100   3.572   2.456 -0.1498  0.1300  0.2011
 4103SOL    HW115901   2.140   3.488   2.479  0.7766  0.7236  0.8049
 4103SOL    HW215902   2.048   3.595   2.533  0.9526  0.9104  0.7361
 4104SOL     OW15903   5.187  10.875   2.988 -0.3182 -0.1897 -0.0965
 4104SOL    HW115904   5.224  10.949   3.036 -0.7332 -1.1957  1.8887
 4104SOL    HW215905   5.255  10.851   2.925  0.0649  1.4614 -0.3705
 4105SOL     OW15906   9.327   0.919  10.720  0.3890  0.1203  0.4403
 4105SOL    HW115907   9.271   0.955  10.651  1.2264  1.2596  0.3300
 4105SOL    HW215908   9.267   0.895  10.790 -0.4432 -0.7290 -0.5380
 4106SOL     OW15909   2.487   1.184   7.541 -0.2835  0.3654  0.6061
 4106SOL    HW115910   2.484   1.244   7.466 -0.0970 -0.8262 -0.4040
 4106SOL    HW215911   2.422   1.117   7.519  1.3536 -1.2373  0.3739
 4107SOL     OW15912   4.221   6.701   2.994 -0.5063 -0.1715 -0.1062
 4107SOL    HW115913   4.271   6.666   3.068 -0.3415 -0.3931 -0.3196
 4107SOL    HW215914   4.285   6.713   2.925 -0.4071  1.3946  0.2320
 4108SOL     OW15915   0.785   5.083   6.104 -0.5212  0.3798 -0.6610
 4108SOL    HW115916   0.812   4.995   6.131 -0.5465  0.2579 -1.0187
 4108SOL    HW215917   0.790   5.080   6.008 -3.4703 -0.2172 -0.8818
 4109SOL     OW15918   8.078   1.243   2.524  0.2576 -0.0270 -0.0337
 4109SOL    HW115919   8.042   1.288   2.447  0.7287 -0.9320 -0.8090
 4109SOL    HW215920   8.171   1.234   2.505  0.6495  0.9706  1.2931
 4110SOL     OW15921   5.561  10.314   2.675 -0.0464 -0.0034 -0.3843
 4110SOL    HW115922   5.518  10.389   2.633  0.1804  0.6267  0.4750
 4110SOL    HW215923   5.489  10.255   2.698 -0.4485  0.9117  0.7834
 4111SOL     OW15924   7.324   0.926   2.929  0.2907  0.0338  0.3366
 4111SOL    HW115925   7.405   0.906   2.882 -1.6117 -3.7670 -1.8487
 4111SOL    HW215926   7.278   0.988   2.872  1.0008  1.1086  0.8985
 4112SOL     OW15927  10.063   5.686   8.156 -0.0832 -0.0174 -0.9029
 4112SOL    HW115928  10.018   5.646   8.081  0.9855 -0.0948 -1.5333
 4112SOL    HW215929  10.081   5.613   8.215 -3.9830  0.4480  1.2066
 4113SOL     OW15930   5.896   4.644   7.996 -0.3380  0.0001 -0.1440
 4113SOL    HW115931   5.864   4.559   7.967 -1.3008 -0.0715  1.0744
 4113SOL    HW215932   5.841   4.707   7.949 -0.6857 -0.0828  0.1483
 4114SOL     OW15933   8.547   8.779   2.975 -0.2400  0.4992 -0.4706
 4114SOL    HW115934   8.604   8.854   2.962 -0.7560  0.9563 -0.1606
 4114SOL    HW215935   8.516   8.788   3.065 -0.3023 -0.0914 -0.4261
 4115SOL     OW15936   8.761   8.805   0.791  0.1661 -0.8143 -0.0813
 4115SOL    HW115937   8.829   8.797   0.858  0.2136  0.5875  0.0634
 4115SOL    HW215938   8.680   8.782   0.836  0.3834 -1.2665  0.0792
 4116SOL     OW15939   0.471   9.896  11.006 -0.1709  0.5216 -0.0661
 4116SOL    HW115940   0.403   9.963  10.996  0.6244  1.7328  2.0444
 4116SOL    HW215941   0.549   9.935  10.968 -0.3666 -0.4464 -1.5252
 4117SOL     OW15942   8.452   6.652   5.167  0.0897  0.6250 -0.0500
 4117SOL    HW115943   8.387   6.583   5.179  1.2845 -0.5047  0.1422
 4117SOL    HW215944   8.405   6.722   5.121 -1.5477  0.3336  1.1097
 4118SOL     OW15945   9.409   1.413   8.129  0.7715 -0.4088  0.4144
 4118SOL    HW115946   9.402   1.376   8.217  3.5269  0.0914  0.9443
 4118SOL    HW215947   9.466   1.489   8.139 -1.1643  1.4116 -1.3764
 4119SOL     OW15948   3.965  10.486   9.970  0.2777  0.2138 -0.2954
 4119SOL    HW115949   4.005  10.403   9.945  0.0005  0.0105 -0.0774
 4119SOL    HW215950   3.871  10.472   9.958  0.3615  1.3163 -2.6783
 4120SOL     OW15951   3.692   7.392   7.970  0.2551 -0.9594  0.2992
 4120SOL    HW115952   3.631   7.433   7.908 -1.7390 -1.2456  1.9661
 4120SOL    HW215953   3.761   7.457   7.980 -0.5407  0.0692 -0.5162
 4121SOL     OW15954   1.642   2.256   2.132 -0.7848  0.4538 -0.5563
 4121SOL    HW115955   1.637   2.203   2.211 -1.7732 -1.2163 -1.6964
 4121SOL    HW215956   1.554   2.290   2.119 -0.6714  0.5803 -1.0307
 4122SOL     OW15957   9.532   6.815   9.078  0.5994  0.9746  0.3626
 4122SOL    HW115958   9.581   6.747   9.124 -0.7357 -1.0338 -1.0008
 4122SOL    HW215959   9.521   6.781   8.989 -0.3613  2.8692 -0.2991
 4123SOL     OW15960   4.283   9.453   8.446 -0.8180 -0.5652 -0.0448
 4123SOL    HW115961   4.188   9.464   8.459 -1.0546 -2.2009 -0.2009
 4123SOL    HW215962   4.321   9.481   8.530 -1.4546 -0.2464  0.1487
 4124SOL     OW15963   0.006   8.871   8.193 -0.0640  0.2537  0.4017
 4124SOL    HW115964   0.041   8.798   8.143  2.0743  0.7867  1.0117
 4124SOL    HW215965  -0.088   8.854   8.198  0.1595 -1.6185 -0.7736
 4125SOL     OW15966   3.562   9.914   9.134  0.4998  0.3878 -0.2410
 4125SOL    HW115967   3.466   9.913   9.133  0.4495  0.8468  1.3563
 4125SOL    HW215968   3.585   9.993   9.183  1.6778 -0.3072  0.3758
 4126SOL     OW15969   5.832   9.571   1.008 -0.0680  0.8501 -0.0941
 4126SOL    HW115970   5.922   9.599   0.993  0.9456 -0.5033  2.8345
 4126SOL    HW215971   5.794   9.641   1.062  0.1652  0.0944  1.0762
 4127SOL     OW15972   6.848   5.408   2.845  0.4029 -0.2047  0.1261
 4127SOL    HW115973   6.817   5.363   2.923 -0.7148 -0.3124 -0.3679
 4127SOL    HW215974   6.898   5.483   2.879  1.8826 -1.5064  0.9393
 4128SOL     OW15975   8.108   3.636   7.351  0.1862  0.3438  0.1169
 4128SOL    HW115976   8.035   3.678   7.397 -0.1096 -1.2002  1.1472
 4128SOL    HW215977   8.185   3.657   7.404 -0.4402 -3.3336  2.9233
 4129SOL     OW15978   0.108   9.433   6.162 -0.6060  0.0708 -0.2608
 4129SOL    HW115979   0.030   9.401   6.207  0.1099  1.1193  1.8641
 4129SOL    HW215980   0.113   9.525   6.186  2.1204 -0.3142  0.9814
 4130SOL     OW15981   4.752   9.652   2.570 -0.6312 -0.3115  0.2443
 4130SOL    HW115982   4.822   9.664   2.634 -1.7281 -1.5747  1.7398
 4130SOL    HW215983   4.675   9.691   2.610 -1.0513  0.0665 -0.8999
 4131SOL     OW15984  10.351  10.975   3.842  0.7111  0.5160 -0.0734
 4131SOL    HW115985  10.380  11.029   3.768  0.7577  0.4931 -0.0716
 4131SOL    HW215986  10.427  10.972   3.900  1.1145 -0.5068 -0.6214
 4132SOL     OW15987   8.212   3.222   2.428  0.0652  0.5482  0.2157
 4132SOL    HW115988   8.242   3.312   2.418 -0.3248  1.1030  3.1850
 4132SOL    HW215989   8.287   3.176   2.465  0.1434 -0.3055 -0.9559
 4133SOL     OW15990   5.303   2.595   2.223 -0.4368  0.1816  0.6961
 4133SOL    HW115991   5.267   2.508   2.243 -0.2805  0.3953  1.9643
 4133SOL    HW215992   5.303   2.599   2.127 -0.4270 -1.2219  0.6172
 4134SOL     OW15993  10.507   7.444   7.719  0.4634 -0.5055  0.2681
 4134SOL    HW115994  10.427   7.435   7.666  1.6732  1.3412 -2.0701
 4134SOL    HW215995  10.480   7.497   7.794 -0.7607 -0.8759  0.1100
 4135SOL     OW15996  10.180  11.107   8.822 -0.3531 -0.2698 -0.4850
 4135SOL    HW115997  10.246  11.176   8.825  0.2631 -0.8289 -0.7771
 4135SOL    HW215998  10.102  11.147   8.859  0.2536  0.2966  0.2327
 4136SOL     OW15999   4.294   1.179   9.406 -0.1888 -0.2308  0.2395
 4136SOL    HW116000   4.333   1.216   9.485 -1.0605  2.7483 -0.5587
 4136SOL    HW216001   4.204   1.161   9.430 -0.1860 -0.2859  0.2077
 4137SOL     OW16002   5.738  10.368   4.255 -0.3197  0.8271 -0.4508
 4137SOL    HW116003   5.766  10.365   4.164  1.4094 -0.6599  0.0793
 4137SOL    HW216004   5.795  10.307   4.301 -3.4576 -1.2626  1.0669
 4138SOL     OW16005   6.521   2.081   1.150  0.3099  0.4360 -0.0459
 4138SOL    HW116006   6.488   2.125   1.228 -0.5985  1.1921 -0.8366
 4138SOL    HW216007   6.508   2.144   1.080  2.6673  0.4441 -0.5582
 4139SOL     OW16008   9.134   1.903   8.250  0.0661  0.5793  0.3051
 4139SOL    HW116009   9.111   1.872   8.337 -0.3910  0.3718  0.1186
 4139SOL    HW216010   9.065   1.867   8.193  1.0816 -0.4141 -0.3549
 4140SOL     OW16011   5.128   4.426   8.862  0.2583 -0.2404 -0.4113
 4140SOL    HW116012   5.216   4.457   8.844  0.0726  0.0559 -0.8207
 4140SOL    HW216013   5.080   4.503   8.891  0.0539 -0.3416 -0.4769
 4141SOL     OW16014   6.712   0.072   8.847 -0.4239  0.2424 -0.4317
 4141SOL    HW116015   6.757   0.152   8.821  0.7743 -0.5401 -0.8411
 4141SOL    HW216016   6.630   0.073   8.798  0.9634 -0.2965 -2.9533
 4142SOL     OW16017   7.947   9.701   7.813  0.2340 -0.1294 -0.0694
 4142SOL    HW116018   8.027   9.660   7.779  0.9468 -0.6491  2.0814
 4142SOL    HW216019   7.908   9.635   7.870 -0.5732  0.8679  0.5814
 4143SOL     OW16020   4.440   7.250   1.107 -0.4546  0.3411 -0.4757
 4143SOL    HW116021   4.454   7.188   1.036 -0.4859 -0.1621 -0.0453
 4143SOL    HW216022   4.503   7.320   1.091 -0.3148  0.1249 -0.8749
 4144SOL     OW16023  10.399  10.737  10.317 -0.1072 -0.3403 -0.2699
 4144SOL    HW116024  10.400  10.646  10.347 -1.2099  0.1324  1.3696
 4144SOL    HW216025  10.490  10.764  10.320  0.2393 -1.3786 -0.7795
 4145SOL     OW16026   4.452   2.413   1.860 -0.1428 -0.0639 -0.1006
 4145SOL    HW116027   4.434   2.338   1.917  0.3947 -0.3214 -0.2621
 4145SOL    HW216028   4.546   2.429   1.870 -0.2623  0.6177 -0.0342
 4146SOL     OW16029   2.836   8.167   6.313 -0.5565 -0.2558 -0.1559
 4146SOL    HW116030   2.845   8.260   6.336 -1.4363 -0.5751  1.6290
 4146SOL    HW216031   2.841   8.166   6.217 -0.0476  1.5711 -0.1929
 4147SOL     OW16032   2.746   8.958   0.318  0.0183  0.5647  0.1511
 4147SOL    HW116033   2.702   8.890   0.267  0.7456  0.6958 -0.6623
 4147SOL    HW216034   2.771   8.913   0.399  0.0434 -0.0093 -0.1656
 4148SOL     OW16035   3.981   7.534   1.408  0.5388  0.4649 -0.3631
 4148SOL    HW116036   3.927   7.455   1.409  0.0514  0.7767  1.3341
 4148SOL    HW216037   3.926   7.601   1.367  0.0656  0.4859  0.2951
 4149SOL     OW16038   1.250   5.530   7.774 -0.0209 -0.5697 -0.2165
 4149SOL    HW116039   1.208   5.599   7.723  1.2249  1.0881  0.9097
 4149SOL    HW216040   1.187   5.509   7.843  0.0956  0.3883  0.1968
 4150SOL     OW16041  10.133   8.734   2.800 -0.3323 -0.5213 -0.0966
 4150SOL    HW116042  10.184   8.656   2.821 -0.2129 -0.6394 -0.7901
 4150SOL    HW216043  10.191   8.807   2.823  0.1331 -0.6537 -0.7887
 4151SOL     OW16044   7.959   2.343   0.609  0.1858  0.0728 -0.2566
 4151SOL    HW116045   7.948   2.393   0.690  3.7937  0.4301  0.1763
 4151SOL    HW216046   7.873   2.306   0.592 -1.1743  1.5448  2.6855
 4152SOL     OW16047   3.571   3.889   4.371 -0.7267 -0.2111 -0.4016
 4152SOL    HW116048   3.508   3.829   4.329  1.1345 -2.0710 -0.7186
 4152SOL    HW216049   3.646   3.890   4.312  1.0229 -1.0169  1.6598
 4153SOL     OW16050   2.651   9.568   3.722 -0.4073 -0.3631  0.0858
 4153SOL    HW116051   2.696   9.573   3.806  0.1495 -2.1590 -0.0655
 4153SOL    HW216052   2.712   9.606   3.659 -0.8829  1.1155  0.4804
 4154SOL     OW16053   9.247   7.848   0.005  0.4515 -0.4846 -0.2411
 4154SOL    HW116054   9.243   7.773  -0.054  0.0987 -1.5680  1.0997
 4154SOL    HW216055   9.286   7.814   0.085  1.8946  1.1894 -0.1712
 4155SOL     OW16056   8.967   9.530   5.037  0.5351  0.5114 -0.6184
 4155SOL    HW116057   9.022   9.452   5.045 -0.3293  0.0057  0.6236
 4155SOL    HW216058   8.972   9.572   5.123 -1.0299  0.4350 -0.4716
 4156SOL     OW16059   2.940   2.262   7.898  0.2518 -0.9274 -0.1079
 4156SOL    HW116060   2.850   2.291   7.917  0.3973 -0.4730 -0.1077
 4156SOL    HW216061   2.937   2.167   7.911  0.3231 -0.6800  2.1723
 4157SOL     OW16062   6.758   7.550   5.585  0.3231 -0.3499  0.0922
 4157SOL    HW116063   6.721   7.525   5.501  1.8809 -0.4230 -0.6159
 4157SOL    HW216064   6.696   7.614   5.621 -0.7648 -0.9164 -0.7247
 4158SOL     OW16065  10.827  10.270   2.088  0.2024 -0.6352  0.4833
 4158SOL    HW116066  10.849  10.277   2.181  3.0658 -1.2158 -0.0456
 4158SOL    HW216067  10.898  10.315   2.043 -1.2500 -0.1211 -1.4633
 4159SOL     OW16068   9.228   5.018   1.508 -0.0878 -0.7041 -0.3103
 4159SOL    HW116069   9.171   5.090   1.537  1.8000  0.3927  0.8892
 4159SOL    HW216070   9.221   5.019   1.413 -0.2586  0.9388 -0.3034
 4160SOL     OW16071   6.180   8.215   1.148  0.0576  0.1326  0.0474
 4160SOL    HW116072   6.270   8.237   1.126 -0.0067  1.2389  0.8210
 4160SOL    HW216073   6.186   8.134   1.198  0.7215  0.6705  0.8659
 4161SOL     OW16074   8.835   6.516   6.832 -0.4285 -0.1609  0.1619
 4161SOL    HW116075   8.746   6.482   6.843 -0.6871 -0.0849 -1.4550
 4161SOL    HW216076   8.836   6.598   6.882 -1.3228 -0.0607  0.0272
 4162SOL     OW16077   9.239   9.769   7.055 -0.0209 -0.1129  0.3695
 4162SOL    HW116078   9.250   9.714   6.978  1.5193  0.2492  0.2988
 4162SOL    HW216079   9.318   9.823   7.057 -0.8913  1.1720  1.1718
 4163SOL     OW16080   1.131   5.158   5.760  0.2737 -0.3075  0.2207
 4163SOL    HW116081   1.037   5.146   5.745  0.2252  1.0198 -0.6850
 4163SOL    HW216082   1.170   5.148   5.674  0.4850  3.0838 -0.2237
 4164SOL     OW16083   2.005   0.402   7.234 -0.3921  0.0261 -0.0608
 4164SOL    HW116084   1.985   0.308   7.239  0.0644 -0.3358 -3.0887
 4164SOL    HW216085   1.927   0.445   7.269 -1.2642 -1.4725 -0.0668
 4165SOL     OW16086   3.642   5.665   6.307  0.0556  0.4761  0.0329
 4165SOL    HW116087   3.555   5.647   6.271  0.1871 -2.0850  0.8260
 4165SOL    HW216088   3.696   5.592   6.277  2.2755  2.4789 -1.2626
 4166SOL     OW16089   9.552  10.649  10.937 -0.8164  0.0114  0.4106
 4166SOL    HW116090   9.642  10.656  10.904 -0.6743 -1.1530  0.5319
 4166SOL    HW216091   9.508  10.725  10.898 -0.0044  0.1133 -0.3687
 4167SOL     OW16092   0.548  10.485   3.747  0.4637  0.5042 -0.1407
 4167SOL    HW116093   0.617  10.551   3.749 -0.1374  1.1792 -0.7906
 4167SOL    HW216094   0.475  10.528   3.701 -0.2150 -0.3495  0.1033
 4168SOL     OW16095   1.482   5.839   3.694 -0.0395  0.1058  0.8844
 4168SOL    HW116096   1.533   5.870   3.769 -0.9383  1.0561  1.1173
 4168SOL    HW216097   1.421   5.910   3.674 -0.9261 -0.7911  0.2787
 4169SOL     OW16098   0.842   5.549   9.810 -0.2502 -0.1268 -0.5095
 4169SOL    HW116099   0.851   5.578   9.719 -1.7019  1.7161 -0.1266
 4169SOL    HW216100   0.786   5.615   9.851 -1.7434 -2.2605  1.1005
 4170SOL     OW16101   0.249   1.410   7.891  0.4422 -0.7393 -0.1974
 4170SOL    HW116102   0.271   1.353   7.817  1.1596 -0.9720  0.1775
 4170SOL    HW216103   0.212   1.351   7.956 -1.5825 -0.3082 -0.9115
 4171SOL     OW16104   4.145   1.300   9.157  0.0905  0.2144  0.3652
 4171SOL    HW116105   4.114   1.254   9.235  0.8349  0.9277  1.1081
 4171SOL    HW216106   4.078   1.367   9.140 -2.1951 -2.4311 -2.0705
 4172SOL     OW16107   8.501   0.429   3.322  0.5986  0.3872 -0.3031
 4172SOL    HW116108   8.486   0.487   3.247 -0.8195  0.7328  0.2262
 4172SOL    HW216109   8.558   0.360   3.287  1.3873  1.4687 -1.2382
 4173SOL     OW16110   6.080   7.680   5.688  0.3991  0.4903 -0.5061
 4173SOL    HW116111   6.014   7.737   5.649 -0.4902  0.5270  0.9484
 4173SOL    HW216112   6.102   7.723   5.771  0.3563 -0.8067  0.2071
 4174SOL     OW16113  10.691   3.988   9.727  0.6628  0.6710  0.1794
 4174SOL    HW116114  10.725   4.077   9.737 -0.1986  1.1164 -0.6513
 4174SOL    HW216115  10.624   3.996   9.659  1.1998 -0.7864 -0.5646
 4175SOL     OW16116   9.146   3.840   9.480  0.5104  0.0997  0.5374
 4175SOL    HW116117   9.081   3.907   9.462 -0.1383 -0.6232  0.1116
 4175SOL    HW216118   9.130   3.814   9.571 -0.2619 -0.5539  0.2257
 4176SOL     OW16119  10.556   9.451   6.735 -0.1149  0.5998  0.5450
 4176SOL    HW116120  10.641   9.464   6.694 -0.0502 -0.7006  0.2146
 4176SOL    HW216121  10.571   9.383   6.802 -0.2025  2.6582  2.8079
 4177SOL     OW16122   2.523   5.395   8.029  0.1937 -0.1180 -0.5548
 4177SOL    HW116123   2.576   5.436   8.098 -0.7351 -0.8149  0.6158
 4177SOL    HW216124   2.520   5.460   7.959  0.7491  0.8189  0.2684
 4178SOL     OW16125   2.047   9.990   3.872  0.6493 -0.6198  0.3260
 4178SOL    HW116126   2.031  10.003   3.965  0.1344  0.1905  0.1333
 4178SOL    HW216127   2.078   9.900   3.865 -0.5974 -1.1401  1.1338
 4179SOL     OW16128   1.465   4.341   5.943 -0.3050 -0.4196 -0.4680
 4179SOL    HW116129   1.530   4.274   5.965 -1.3111 -1.8238 -1.5994
 4179SOL    HW216130   1.387   4.314   5.992 -0.1375  1.1530  0.7421
 4180SOL     OW16131   9.079   0.396   1.115  0.2598  0.2614  0.1700
 4180SOL    HW116132   9.105   0.360   1.030  1.7671  0.6400  0.4338
 4180SOL    HW216133   9.130   0.346   1.179 -1.7606 -0.8538  0.9857
 4181SOL     OW16134  11.030   9.154   5.638  0.0912  0.6271 -0.2770
 4181SOL    HW116135  11.093   9.087   5.665 -1.2273 -0.3421  0.5234
 4181SOL    HW216136  11.081   9.215   5.585  2.0097  0.6525  1.4867
 4182SOL     OW16137   8.812   5.069   2.246  0.1254 -0.0775 -0.0357
 4182SOL    HW116138   8.717   5.063   2.235  0.3096 -0.5368 -1.6432
 4182SOL    HW216139   8.846   5.070   2.157  1.7233 -1.3657  0.5201
 4183SOL     OW16140   1.564   9.617   2.562  0.1162 -0.6883 -0.0123
 4183SOL    HW116141   1.648   9.647   2.598 -1.1445  0.2438  2.3981
 4183SOL    HW216142   1.555   9.527   2.595  0.7116 -1.2771 -1.3760
 4184SOL     OW16143  10.827   5.091   4.157 -0.1033 -0.5534 -0.1961
 4184SOL    HW116144  10.822   5.045   4.240 -1.1539 -1.8305 -0.9373
 4184SOL    HW216145  10.781   5.174   4.173  0.7972 -0.2193  0.8154
 4185SOL     OW16146   2.422   1.632   4.687 -0.0776  0.0879 -0.0141
 4185SOL    HW116147   2.405   1.714   4.641 -1.5688 -0.5360 -0.6398
 4185SOL    HW216148   2.474   1.657   4.763  0.0831  1.5092 -0.5757
 4186SOL     OW16149   9.686   1.402  10.176  1.0385 -0.3764  0.0904
 4186SOL    HW116150   9.674   1.316  10.218  2.0103 -1.5003 -1.8046
 4186SOL    HW216151   9.781   1.412  10.170  0.9341 -0.2109 -1.6672
 4187SOL     OW16152   8.219   1.493   6.811  0.0100  0.5098  0.1331
 4187SOL    HW116153   8.243   1.554   6.879 -0.0451  0.1070  0.5197
 4187SOL    HW216154   8.288   1.501   6.745  0.4334  0.4076  0.5586
 4188SOL     OW16155  10.836   0.786   1.017 -0.1660 -0.1895  0.5788
 4188SOL    HW116156  10.899   0.835   0.965 -1.4766 -0.4452 -1.3407
 4188SOL    HW216157  10.884   0.710   1.049  0.3505 -0.7574 -1.4458
 4189SOL     OW16158   1.768   3.138   2.730 -0.2123 -0.4626 -0.1613
 4189SOL    HW116159   1.709   3.124   2.656 -0.5341  1.5914 -0.3639
 4189SOL    HW216160   1.762   3.232   2.747  0.1360 -0.8156  2.2480
 4190SOL     OW16161   2.800   8.323   3.366 -0.1028  0.2018  0.2153
 4190SOL    HW116162   2.706   8.339   3.376 -0.4554 -0.6664 -1.3837
 4190SOL    HW216163   2.812   8.233   3.397  0.0780  0.0608 -0.2717
 4191SOL     OW16164   9.426   6.659   1.310 -0.0835  0.4973  0.0355
 4191SOL    HW116165   9.345   6.614   1.284 -0.2892  0.0970  1.2892
 4191SOL    HW216166   9.452   6.707   1.232 -1.7908  1.0021 -0.2832
 4192SOL     OW16167   2.808   5.097   3.671 -0.2435 -0.4054 -0.4764
 4192SOL    HW116168   2.889   5.053   3.647  0.0430 -0.5254  0.6547
 4192SOL    HW216169   2.833   5.156   3.743 -1.3823 -1.4075  0.7854
 4193SOL     OW16170   4.810   4.592  11.014  0.3782  0.2775 -0.1498
 4193SOL    HW116171   4.750   4.666  11.025 -0.8682 -0.8862  1.4457
 4193SOL    HW216172   4.854   4.584  11.099  0.2048 -1.0233 -0.1565
 4194SOL     OW16173   0.059   8.643   3.193  0.0226  0.6661 -0.6206
 4194SOL    HW116174   0.153   8.625   3.194  0.3649  2.1612 -1.4099
 4194SOL    HW216175   0.047   8.709   3.261 -0.6814 -0.3800  0.2950
 4195SOL     OW16176   8.967   2.006   6.969  0.0136 -0.2381  0.5067
 4195SOL    HW116177   8.915   2.031   7.046 -0.7732  0.6858 -0.3046
 4195SOL    HW216178   9.048   1.971   7.006 -0.3716  0.1208  1.7563
 4196SOL     OW16179   7.640  10.966  10.871  0.5961 -0.1332 -0.1403
 4196SOL    HW116180   7.567  10.921  10.829 -0.1640 -0.9514  1.9358
 4196SOL    HW216181   7.604  11.051  10.898 -0.4702 -1.4520  3.0696
 4197SOL     OW16182   2.319   3.580   3.741 -0.0327  0.1882 -0.2925
 4197SOL    HW116183   2.347   3.489   3.731  1.3480  0.6524 -0.8125
 4197SOL    HW216184   2.288   3.586   3.831  1.7335 -0.3282  0.3802
 4198SOL     OW16185   4.377   1.304   9.624 -0.1937  0.6380  0.8616
 4198SOL    HW116186   4.466   1.304   9.660  0.1658  1.2654 -0.0113
 4198SOL    HW216187   4.357   1.397   9.610 -0.3320  0.4107 -0.5289
 4199SOL     OW16188   5.433   6.848   2.578  0.3491 -0.3826 -0.1728
 4199SOL    HW116189   5.494   6.868   2.507  0.2256 -0.1883 -0.2252
 4199SOL    HW216190   5.368   6.791   2.538  1.8123 -2.6078  0.4619
 4200SOL     OW16191   2.836   0.318   4.743 -0.1291  0.0859  0.5038
 4200SOL    HW116192   2.765   0.378   4.721 -1.1402 -1.3153 -0.2147
 4200SOL    HW216193   2.804   0.232   4.716  1.2449 -0.7989  1.5441
 4201SOL     OW16194   8.125   1.764   2.209 -0.4437 -0.2588 -0.2566
 4201SOL    HW116195   8.096   1.765   2.301  1.0435  1.4823  0.2719
 4201SOL    HW216196   8.085   1.842   2.171 -1.2035 -1.0726 -1.1761
 4202SOL     OW16197   7.740   2.826   3.726  0.4218  0.5585  0.2257
 4202SOL    HW116198   7.784   2.795   3.805  1.0057  1.3673  0.2405
 4202SOL    HW216199   7.806   2.817   3.657  0.2958  0.8979  0.0559
 4203SOL     OW16200   5.441   0.330   5.681 -0.9188 -0.3331  0.2852
 4203SOL    HW116201   5.468   0.245   5.716 -0.5655 -0.7921 -1.0498
 4203SOL    HW216202   5.346   0.331   5.693 -0.7691 -0.3066  1.5856
 4204SOL     OW16203   9.428   1.576  10.876 -0.6451 -0.6732 -0.5854
 4204SOL    HW116204   9.394   1.517  10.808 -0.1805  0.4206 -1.8103
 4204SOL    HW216205   9.510   1.535  10.904  0.3650  0.0004 -2.3856
 4205SOL     OW16206   4.733   8.677   7.667  0.2201 -0.5389 -0.6615
 4205SOL    HW116207   4.747   8.613   7.597  0.8038 -0.2532 -0.8182
 4205SOL    HW216208   4.814   8.675   7.718  0.0674 -0.2504 -0.4063
 4206SOL     OW16209   2.226   4.731   9.354 -0.1196  0.3053 -0.4292
 4206SOL    HW116210   2.277   4.668   9.304 -0.5585 -0.8812  0.5676
 4206SOL    HW216211   2.157   4.760   9.294  1.1863  1.3008 -1.5117
 4207SOL     OW16212  10.852   7.407   1.758 -0.0381  0.2631  0.3089
 4207SOL    HW116213  10.823   7.409   1.667  0.4084 -1.3817  0.1002
 4207SOL    HW216214  10.773   7.423   1.809 -0.7639 -1.1431 -0.3252
 4208SOL     OW16215   6.087   7.000   1.016 -0.0136 -0.4362 -0.3732
 4208SOL    HW116216   6.175   6.967   1.031 -0.1632 -1.1679 -1.0432
 4208SOL    HW216217   6.086   7.086   1.058  0.4774 -1.1326  1.1388
 4209SOL     OW16218   4.027   5.357   2.830 -0.6250  0.1124 -0.0768
 4209SOL    HW116219   4.004   5.268   2.856 -2.3706  0.3738 -0.5725
 4209SOL    HW216220   3.995   5.412   2.902 -0.9672  0.4529 -0.4865
 4210SOL     OW16221   3.520   5.154   4.895  0.4534  0.1595  0.0732
 4210SOL    HW116222   3.496   5.167   4.987  1.0953 -0.8684  0.4083
 4210SOL    HW216223   3.442   5.177   4.846  0.0261  0.5034  0.8969
 4211SOL     OW16224   5.709   7.012   9.624 -0.3331  0.2931  0.2875
 4211SOL    HW116225   5.729   7.047   9.711  1.1428  2.1672 -0.7254
 4211SOL    HW216226   5.793   7.014   9.578 -1.1212 -0.4821 -1.2398
 4212SOL     OW16227   2.631   3.457   7.762 -0.3735  0.2497 -0.0929
 4212SOL    HW116228   2.690   3.512   7.813  1.7154  0.7390 -2.8439
 4212SOL    HW216229   2.562   3.517   7.733  0.7088  1.0005 -1.2420
 4213SOL     OW16230   6.325   8.614   1.898  0.0329  0.4360  0.1912
 4213SOL    HW116231   6.378   8.600   1.977 -1.1904  0.7427  1.1034
 4213SOL    HW216232   6.267   8.538   1.894 -0.7476  1.0121  0.2967
 4214SOL     OW16233   4.796   0.345   9.831  0.1433 -0.1480 -0.3226
 4214SOL    HW116234   4.807   0.274   9.895  2.9142 -0.1594 -0.6675
 4214SOL    HW216235   4.836   0.310   9.751  1.9788  1.9001 -0.3836
 4215SOL     OW16236   6.828   8.966   4.863 -0.1003  0.0103  0.2824
 4215SOL    HW116237   6.762   9.011   4.810  0.1299 -0.6825 -0.6201
 4215SOL    HW216238   6.879   9.037   4.902 -1.7220  0.5699  1.4767
 4216SOL     OW16239  10.475   0.254   8.153 -0.8381 -0.0226  0.3308
 4216SOL    HW116240  10.450   0.162   8.166  2.2573 -1.1066 -0.5766
 4216SOL    HW216241  10.419   0.284   8.081 -1.5598 -1.3519  0.3134
 4217SOL     OW16242   6.234   6.442   0.638 -0.3735 -0.1380 -0.2293
 4217SOL    HW116243   6.194   6.375   0.583  0.7165 -1.2287  0.2463
 4217SOL    HW216244   6.305   6.477   0.586  1.4345 -2.0152  0.8130
 4218SOL     OW16245  10.000   5.971   4.571  0.0766  0.0557 -0.3592
 4218SOL    HW116246  10.076   5.964   4.513 -0.0517 -0.0511 -0.5161
 4218SOL    HW216247  10.020   5.914   4.645 -0.4132 -0.9990 -1.0229
 4219SOL     OW16248   9.030   4.955   8.865 -0.4845  0.0406  0.3544
 4219SOL    HW116249   8.946   4.917   8.890  0.4947 -1.9184  0.8784
 4219SOL    HW216250   9.011   5.006   8.786 -2.2993  0.3809  0.9563
 4220SOL     OW16251  10.020   2.043   7.653  0.7002 -0.0500  0.7794
 4220SOL    HW116252  10.063   1.966   7.690  1.5387 -0.2219 -0.5012
 4220SOL    HW216253  10.091   2.098   7.622  0.0518  0.0673 -0.5841
 4221SOL     OW16254   2.407   5.606   7.028 -0.4858 -0.0938 -0.3939
 4221SOL    HW116255   2.382   5.668   7.097 -1.3104  0.0250 -0.7880
 4221SOL    HW216256   2.496   5.630   7.005 -0.1857 -0.1456  0.6402
 4222SOL     OW16257   5.686   0.504   4.914 -0.8120 -0.1871 -0.4078
 4222SOL    HW116258   5.717   0.594   4.921 -0.9431 -0.0178 -1.7715
 4222SOL    HW216259   5.723   0.472   4.832 -0.2849 -1.5831  0.3529
 4223SOL     OW16260  10.087   8.991  10.687 -0.2589  0.0684 -0.6202
 4223SOL    HW116261  10.080   8.897  10.703  1.0548  0.2176  1.1482
 4223SOL    HW216262  10.115   8.998  10.596 -1.1885 -1.2092 -1.0306
 4224SOL     OW16263   1.522   8.146   5.222 -0.7416  0.0509  0.1199
 4224SOL    HW116264   1.483   8.085   5.160 -1.0275  0.6351 -0.2860
 4224SOL    HW216265   1.463   8.222   5.221  0.3183  0.8965 -0.3952
 4225SOL     OW16266   3.435   4.534   2.436  0.1171 -0.0089 -0.7055
 4225SOL    HW116267   3.372   4.606   2.438 -0.6572 -0.6757  0.4289
 4225SOL    HW216268   3.394   4.468   2.381 -0.1552 -0.4035 -0.0469
 4226SOL     OW16269   9.516   3.998  10.125  0.8516 -0.4492 -0.1257
 4226SOL    HW116270   9.571   3.936  10.172 -0.2976 -2.2417 -1.0305
 4226SOL    HW216271   9.578   4.058  10.083  1.9748 -0.6671  1.1540
 4227SOL     OW16272   1.142   8.086   4.638 -0.4237 -0.1307  0.5194
 4227SOL    HW116273   1.094   8.160   4.674 -0.4942  0.2801 -0.3768
 4227SOL    HW216274   1.147   8.105   4.544  1.6406 -0.0754  0.6005
 4228SOL     OW16275   4.493   3.269   0.830  0.2503 -0.1630 -0.1440
 4228SOL    HW116276   4.557   3.261   0.901  0.2436  0.7251 -0.0277
 4228SOL    HW216277   4.529   3.218   0.758 -0.0360 -1.6034  0.6937
 4229SOL     OW16278   2.485   7.694   7.001 -0.0253 -0.4274  0.1953
 4229SOL    HW116279   2.503   7.788   6.990 -2.2898  0.2522  1.7346
 4229SOL    HW216280   2.407   7.678   6.949 -0.4360 -1.1568  1.0188
 4230SOL     OW16281   5.191   1.807   6.343  0.1922  0.4589  0.4410
 4230SOL    HW116282   5.230   1.892   6.327  0.9343  0.1790  0.7549
 4230SOL    HW216283   5.248   1.764   6.406 -0.1428 -0.2925  0.2585
 4231SOL     OW16284   6.454   0.145   5.285 -0.1244  0.0366  0.7723
 4231SOL    HW116285   6.515   0.073   5.301 -0.3576 -0.4146 -0.3049
 4231SOL    HW216286   6.385   0.107   5.231  0.6630  1.4639 -1.4032
 4232SOL     OW16287   6.539   8.628   3.265 -0.5727  0.5514 -0.0030
 4232SOL    HW116288   6.456   8.669   3.289  0.0733  2.1701 -0.4063
 4232SOL    HW216289   6.517   8.537   3.246 -1.7994  0.2306  2.5846
 4233SOL     OW16290   7.788  10.928   1.710  0.0102  0.0539 -0.6654
 4233SOL    HW116291   7.865  10.984   1.721 -0.8954  1.0238  1.1739
 4233SOL    HW216292   7.785  10.910   1.616  1.7232  1.0711 -0.9631
 4234SOL     OW16293   7.633   5.792   7.646 -0.5948  0.0557 -0.4015
 4234SOL    HW116294   7.649   5.858   7.578  0.0395  0.3595  0.0351
 4234SOL    HW216295   7.668   5.711   7.610 -1.9908 -0.2135 -1.2261
 4235SOL     OW16296   0.156   0.642   7.703  0.3294 -0.5924  0.4336
 4235SOL    HW116297   0.083   0.621   7.761  0.4075  0.0532  0.7713
 4235SOL    HW216298   0.226   0.672   7.761 -0.2533  1.9715 -0.0840
 4236SOL     OW16299  10.163   1.839   2.814  0.0068  0.3540  0.5227
 4236SOL    HW116300  10.245   1.828   2.863 -0.6420 -0.1743  1.5082
 4236SOL    HW216301  10.164   1.768   2.749 -0.0518 -0.1449  1.0658
 4237SOL     OW16302   0.735   2.803   4.350  0.0575 -0.4204 -0.3170
 4237SOL    HW116303   0.657   2.771   4.304 -1.4276 -0.3758  2.0195
 4237SOL    HW216304   0.763   2.729   4.404 -1.0537  0.8402  2.1577
 4238SOL     OW16305   5.542   3.293   9.684 -0.2711  0.3343 -0.2979
 4238SOL    HW116306   5.476   3.362   9.688  1.8416  2.4503  0.4155
 4238SOL    HW216307   5.571   3.291   9.593 -0.8368 -0.1290 -0.4704
 4239SOL     OW16308   1.853   0.138   7.495  0.4565 -0.4704  0.5051
 4239SOL    HW116309   1.915   0.101   7.432 -0.7186 -1.4629 -0.1164
 4239SOL    HW216310   1.879   0.229   7.505  1.1088 -0.4890 -0.8737
 4240SOL     OW16311   5.585   3.279   1.021  0.9820  0.1480 -0.0055
 4240SOL    HW116312   5.645   3.338   1.067  0.4326  0.4812  0.2992
 4240SOL    HW216313   5.635   3.199   1.009  1.6161  0.5488 -0.0938
 4241SOL     OW16314   5.719   7.919   6.281  0.0175  0.0901  0.1608
 4241SOL    HW116315   5.645   7.979   6.287 -0.4144 -0.3069 -0.8924
 4241SOL    HW216316   5.680   7.832   6.290 -0.4094 -0.4693 -4.6412
 4242SOL     OW16317   1.634   0.677   5.621 -0.1189 -0.3882  0.0935
 4242SOL    HW116318   1.568   0.678   5.551 -0.2611 -0.0379  0.2302
 4242SOL    HW216319   1.711   0.717   5.581 -0.2741  0.0254  0.2081
 4243SOL     OW16320   3.407   6.743   8.067 -0.1305  0.0969 -0.5349
 4243SOL    HW116321   3.344   6.813   8.053 -2.8836 -2.3207 -1.1669
 4243SOL    HW216322   3.458   6.740   7.986 -0.1715  1.1454 -0.6157
 4244SOL     OW16323   2.671   5.931   8.668 -0.0606  0.1917 -0.1039
 4244SOL    HW116324   2.624   6.007   8.634  1.7687  0.5825 -1.9665
 4244SOL    HW216325   2.626   5.909   8.750 -4.1989 -0.1993 -2.1992
 4245SOL     OW16326   1.574  10.017   2.423 -0.2195 -0.8122  0.3146
 4245SOL    HW116327   1.619   9.934   2.404 -0.7958 -1.2976  1.0367
 4245SOL    HW216328   1.640  10.084   2.403  0.0168 -1.3955 -0.9803
 4246SOL     OW16329   8.212   0.178   6.143  0.0613 -0.4164  0.5811
 4246SOL    HW116330   8.268   0.124   6.199 -0.1393 -0.8431  0.3738
 4246SOL    HW216331   8.195   0.123   6.067  0.3412  0.1638  0.0975
 4247SOL     OW16332   4.136   1.160  10.989 -0.2418 -0.0076  0.4865
 4247SOL    HW116333   4.100   1.210  11.062  1.2142 -1.9038  2.6404
 4247SOL    HW216334   4.062   1.147  10.930 -2.1092 -0.2779  2.7252
 4248SOL     OW16335   2.996   8.628   5.934  0.6515  0.3696 -0.3505
 4248SOL    HW116336   3.007   8.560   5.867  0.1141  1.6149 -1.7432
 4248SOL    HW216337   2.902   8.627   5.953  1.0144 -1.2210  1.8092
 4249SOL     OW16338   7.470  10.260   3.723  0.5462 -0.0680 -0.9913
 4249SOL    HW116339   7.514  10.291   3.802  1.0433  1.6129 -1.8535
 4249SOL    HW216340   7.382  10.298   3.728 -0.1588 -1.7200 -0.2594
 4250SOL     OW16341   3.462   4.377   7.212 -0.3089  0.0779  0.4169
 4250SOL    HW116342   3.441   4.464   7.178  2.2654  1.5188  2.1807
 4250SOL    HW216343   3.412   4.371   7.294 -1.1448 -0.4952 -0.1232
 4251SOL     OW16344   2.007   2.437   6.843  0.0528  0.8661 -0.1202
 4251SOL    HW116345   2.051   2.396   6.917  0.1812  1.0148 -0.1140
 4251SOL    HW216346   1.915   2.443   6.869  0.1990  1.4625  0.2667
 4252SOL     OW16347   2.845   4.906   5.715 -0.3249  0.0742  0.1143
 4252SOL    HW116348   2.824   4.996   5.688 -0.1704  0.4524  1.2167
 4252SOL    HW216349   2.800   4.851   5.651  1.9708  0.9042 -2.4304
 4253SOL     OW16350   1.078   2.948  10.306  0.1784  0.2398  0.5042
 4253SOL    HW116351   1.014   2.902  10.360  2.0419 -2.1810  0.8266
 4253SOL    HW216352   1.076   3.038  10.338 -2.1318 -0.0279  1.3174
 4254SOL     OW16353   7.431   6.518  10.958 -0.2625  0.1326  0.2799
 4254SOL    HW116354   7.437   6.605  10.997  0.2411  0.0149  0.4688
 4254SOL    HW216355   7.384   6.532  10.876  0.1317  0.6359  0.1379
 4255SOL     OW16356  10.894   8.042   8.848 -0.4871 -0.3632  0.0477
 4255SOL    HW116357  10.976   8.082   8.819 -0.3692 -0.1352  0.6898
 4255SOL    HW216358  10.893   8.053   8.943 -2.3951  1.7989 -0.1349
 4256SOL     OW16359   5.660   4.812   6.279  0.7516  0.0289  0.2227
 4256SOL    HW116360   5.719   4.737   6.272  0.6874  0.1470 -2.8540
 4256SOL    HW216361   5.711   4.879   6.323  2.2523 -0.5109 -0.6106
 4257SOL     OW16362   9.628   6.277   4.648  0.6018  0.8231  0.3136
 4257SOL    HW116363   9.661   6.338   4.714  0.9755 -1.3057  2.2248
 4257SOL    HW216364   9.689   6.203   4.652 -1.1412 -0.6946 -0.2031
 4258SOL     OW16365   1.294   4.845  10.693 -0.1340  0.0999  0.0863
 4258SOL    HW116366   1.201   4.867  10.685 -0.4310 -0.3821  1.7932
 4258SOL    HW216367   1.331   4.914  10.749  0.3875 -0.0556 -0.0591
 4259SOL     OW16368   3.993   4.289   4.326 -0.3309  0.4461  0.4902
 4259SOL    HW116369   4.060   4.342   4.284  1.2923  0.9522  3.4843
 4259SOL    HW216370   4.020   4.198   4.310  1.2877  0.6459  1.9025
 4260SOL     OW16371   7.893   4.535   7.871 -0.6208  0.1396 -0.0075
 4260SOL    HW116372   7.980   4.500   7.893 -0.7766 -0.3798 -0.2032
 4260SOL    HW216373   7.836   4.458   7.871 -1.3168  0.6234  1.2703
 4261SOL     OW16374   2.349   4.473   8.711 -0.4512  0.2579  0.3740
 4261SOL    HW116375   2.437   4.496   8.743  0.1466  0.4650 -1.2900
 4261SOL    HW216376   2.290   4.501   8.781  0.7044  1.4367  0.9374
 4262SOL     OW16377   2.444   8.063   3.148  0.2918 -0.3614 -0.4213
 4262SOL    HW116378   2.442   8.137   3.209  0.6939 -0.5015 -0.2380
 4262SOL    HW216379   2.390   8.092   3.074 -0.2671 -0.2214  0.0314
 4263SOL     OW16380   7.618   7.208   7.832 -0.1263  0.6493 -0.2350
 4263SOL    HW116381   7.677   7.135   7.812 -0.8384  0.1169 -0.4334
 4263SOL    HW216382   7.651   7.281   7.780  0.4564  0.4094 -0.2124
 4264SOL     OW16383   9.878   8.728   4.741  0.3180  0.1300  0.1526
 4264SOL    HW116384   9.965   8.726   4.781  1.4694 -1.8785 -2.1533
 4264SOL    HW216385   9.888   8.786   4.665 -0.5325  0.3608  0.2085
 4265SOL     OW16386   1.102   5.213   6.346 -0.0007 -0.3632 -0.3012
 4265SOL    HW116387   1.159   5.158   6.292 -0.1825 -1.1749  0.3228
 4265SOL    HW216388   1.160   5.250   6.413 -0.0355 -0.4546 -0.2208
 4266SOL     OW16389   0.072   7.341   0.405  0.2458  0.4275 -1.1325
 4266SOL    HW116390   0.092   7.433   0.421  0.9666  0.4560 -2.0867
 4266SOL    HW216391  -0.023   7.335   0.414  0.0873  1.4490 -1.8524
 4267SOL     OW16392   3.924   8.489   2.750  0.0126  0.2692  0.7232
 4267SOL    HW116393   3.874   8.408   2.741 -0.5134  0.5562  1.0157
 4267SOL    HW216394   4.015   8.464   2.732 -0.2414 -0.2480  0.1224
 4268SOL     OW16395   2.395   6.643   0.060 -0.5320 -0.4859 -0.4383
 4268SOL    HW116396   2.386   6.705   0.132  0.1513 -2.1585  1.2016
 4268SOL    HW216397   2.306   6.625   0.032 -0.9400 -0.7194  0.8921
 4269SOL     OW16398   6.114   7.909   1.684 -0.1559 -0.5343 -0.2306
 4269SOL    HW116399   6.200   7.871   1.701  0.1286  0.3064  0.2557
 4269SOL    HW216400   6.132   7.992   1.641 -0.7437 -0.5547 -0.5288
 4270SOL     OW16401  10.698   5.794   7.752  0.0685 -0.5896 -0.2017
 4270SOL    HW116402  10.696   5.812   7.658  1.8021  3.9646  0.3387
 4270SOL    HW216403  10.789   5.769   7.769  0.5066  1.2457  0.4564
 4271SOL     OW16404   5.853   6.919   4.162 -0.2598 -0.1702 -0.2314
 4271SOL    HW116405   5.786   6.860   4.197 -0.3369 -0.1569 -0.3550
 4271SOL    HW216406   5.936   6.877   4.184 -0.3203 -0.5018 -0.6265
 4272SOL     OW16407   6.291  10.046  10.844 -0.0933  0.1146 -0.3941
 4272SOL    HW116408   6.236  10.068  10.769 -1.0621  0.3916  0.3880
 4272SOL    HW216409   6.341  10.127  10.861 -1.0003  0.5589  0.2118
 4273SOL     OW16410   8.446   3.503   3.903  0.4293 -0.3042  0.0486
 4273SOL    HW116411   8.373   3.483   3.845  1.2983 -0.9089 -0.8861
 4273SOL    HW216412   8.406   3.519   3.989 -0.6078 -3.2325  0.2112
 4274SOL     OW16413   0.722   1.865   9.023  0.3715  0.1475  0.4983
 4274SOL    HW116414   0.688   1.877   9.111  0.0145  1.5336  0.1852
 4274SOL    HW216415   0.698   1.944   8.976  0.8606 -0.4150 -0.7574
 4275SOL     OW16416   5.700   2.936   8.631 -0.0361 -0.3625  0.5175
 4275SOL    HW116417   5.793   2.914   8.640 -0.0291  0.1787  1.8773
 4275SOL    HW216418   5.699   3.014   8.575  0.2915 -0.6118  0.1561
 4276SOL     OW16419   1.721   9.284   6.412  0.3287 -0.3501 -0.0210
 4276SOL    HW116420   1.675   9.280   6.495  1.2803 -0.0138  0.5409
 4276SOL    HW216421   1.700   9.370   6.376 -0.6472 -0.7656 -0.4811
 4277SOL     OW16422   7.582   4.999   7.869  0.3909  0.1180 -0.0993
 4277SOL    HW116423   7.629   4.916   7.862  1.2945  0.4188  1.7784
 4277SOL    HW216424   7.501   4.976   7.916  1.1981  0.4433  1.5229
 4278SOL     OW16425   0.878   2.831   5.718 -0.7344  0.2105  0.1666
 4278SOL    HW116426   0.952   2.891   5.709 -1.2576  1.1038  1.5287
 4278SOL    HW216427   0.917   2.751   5.755 -0.2103  0.0437 -0.6911
 4279SOL     OW16428   7.610   6.119   1.529 -0.1290  0.1349 -0.1422
 4279SOL    HW116429   7.572   6.042   1.571  0.8436 -0.8258 -0.9446
 4279SOL    HW216430   7.560   6.130   1.449 -0.6058  0.6765  0.2194
 4280SOL     OW16431   4.487   3.135   1.863 -0.2202 -0.1141  0.5017
 4280SOL    HW116432   4.564   3.081   1.878  0.2506  0.0998 -0.9169
 4280SOL    HW216433   4.464   3.119   1.771 -1.8482 -0.1426  0.8796
 4281SOL     OW16434   4.895   0.948   4.024  0.3633 -0.3204 -0.9488
 4281SOL    HW116435   4.820   0.891   4.005 -0.8050  0.7705  0.1646
 4281SOL    HW216436   4.946   0.949   3.943 -1.2026 -0.5468 -1.9758
 4282SOL     OW16437   4.810   7.479   1.792  0.2287 -0.7836  0.0751
 4282SOL    HW116438   4.901   7.450   1.801 -0.5310 -3.8846 -0.7126
 4282SOL    HW216439   4.787   7.455   1.702 -1.1531  0.7193 -0.0091
 4283SOL     OW16440   8.436   8.994   0.418 -0.2634  0.3681  0.2450
 4283SOL    HW116441   8.511   9.006   0.477 -1.9739 -1.2888  2.9708
 4283SOL    HW216442   8.377   9.066   0.440  0.2587  1.4016 -1.5683
 4284SOL     OW16443   8.216   5.728  10.250 -0.1988 -0.0042  0.0068
 4284SOL    HW116444   8.268   5.712  10.172  0.4914  0.2014  0.4087
 4284SOL    HW216445   8.272   5.783  10.305 -0.6937 -0.0931  0.6175
 4285SOL     OW16446   4.547  11.050   6.248  0.0218  0.0022  0.0150
 4285SOL    HW116447   4.474  11.110   6.260  0.4249  0.5899 -0.4069
 4285SOL    HW216448   4.622  11.107   6.228  0.9357 -0.4620  1.8840
 4286SOL     OW16449   8.182   0.390   1.190 -0.2816 -0.3874  0.0792
 4286SOL    HW116450   8.172   0.413   1.098  1.5244  0.9201  0.1587
 4286SOL    HW216451   8.152   0.299   1.196  0.5845 -0.8589 -2.0139
 4287SOL     OW16452   6.666   8.619   8.962 -0.7746 -0.1847 -0.7760
 4287SOL    HW116453   6.591   8.628   8.903  0.0434 -2.7323 -2.3450
 4287SOL    HW216454   6.727   8.686   8.932 -2.0046  1.3916  0.0191
 4288SOL     OW16455   5.996   6.513  10.256  0.4813  0.0382  0.1329
 4288SOL    HW116456   6.083   6.554  10.258  0.7392 -0.5197  1.5723
 4288SOL    HW216457   5.969   6.511  10.348 -0.8292 -0.2957 -0.2469
 4289SOL     OW16458   4.437  10.177   0.503 -0.0246 -0.0001  0.3028
 4289SOL    HW116459   4.427  10.094   0.455  1.9194 -1.5812  2.4114
 4289SOL    HW216460   4.514  10.164   0.558  0.5564  3.3941  0.4962
 4290SOL     OW16461   2.631   9.254   4.014  0.0418  0.1020  0.1371
 4290SOL    HW116462   2.536   9.257   4.024  0.0923  0.0107  0.6808
 4290SOL    HW216463   2.664   9.238   4.102  0.6459  1.8262  0.2729
 4291SOL     OW16464   1.368   2.477   0.142 -0.9087 -0.3788  0.4393
 4291SOL    HW116465   1.336   2.397   0.101  2.8945 -0.6622 -2.5010
 4291SOL    HW216466   1.395   2.451   0.230 -1.9656 -1.7030  0.3936
 4292SOL     OW16467   4.531   9.531   6.782 -0.2949  0.1623  0.1832
 4292SOL    HW116468   4.596   9.584   6.736 -0.3652  0.5862  0.5617
 4292SOL    HW216469   4.581   9.456   6.815 -0.8133 -1.8871 -3.2651
 4293SOL     OW16470   6.459   0.843   0.899  0.0620  0.4176 -0.2565
 4293SOL    HW116471   6.524   0.821   0.833  0.5828  3.3619 -0.8589
 4293SOL    HW216472   6.509   0.889   0.967 -0.9517  0.0855  0.7394
 4294SOL     OW16473  10.599   8.263   0.014  0.1094  0.1215  0.1929
 4294SOL    HW116474  10.688   8.269  -0.020 -0.5439  0.0407 -1.6393
 4294SOL    HW216475  10.562   8.186  -0.029 -0.2088 -1.1617  2.5703
 4295SOL     OW16476   3.990   6.825   8.970  0.0537 -0.2107 -0.7751
 4295SOL    HW116477   4.055   6.759   8.948  1.4685  1.7924 -3.1323
 4295SOL    HW216478   3.922   6.816   8.903 -0.8251 -0.5698  0.1282
 4296SOL     OW16479   5.370   4.162   5.780 -0.2382  0.0205  0.5363
 4296SOL    HW116480   5.374   4.238   5.722  1.5575 -0.4202  0.0229
 4296SOL    HW216481   5.386   4.197   5.867 -0.5212  0.3676  0.4526
 4297SOL     OW16482   4.723   1.857   0.398  0.9298 -0.6673 -0.2428
 4297SOL    HW116483   4.694   1.858   0.490  0.7884 -0.4905 -0.2898
 4297SOL    HW216484   4.727   1.949   0.373  0.1397 -0.7461 -0.6766
 4298SOL     OW16485   1.233   6.520  10.266 -0.5236  0.2654 -0.4658
 4298SOL    HW116486   1.319   6.479  10.259 -0.1797  0.3536  2.2968
 4298SOL    HW216487   1.244   6.588  10.332 -2.6547  0.4944 -0.2682
 4299SOL     OW16488   8.906   3.937  10.804 -0.1189 -0.0742  0.3687
 4299SOL    HW116489   8.960   4.015  10.809 -1.6005  1.0299 -0.0891
 4299SOL    HW216490   8.958   3.874  10.754 -0.3388  1.9644 -2.6804
 4300SOL     OW16491   9.211   2.992   1.909 -0.3155 -0.2296 -1.1998
 4300SOL    HW116492   9.276   2.985   1.839  3.3520  3.3600  1.3300
 4300SOL    HW216493   9.247   2.940   1.981 -1.1645  0.3585 -0.3167
 4301SOL     OW16494   6.954   9.482   3.629  0.3380 -0.1166  0.2263
 4301SOL    HW116495   6.937   9.531   3.709  0.7487  0.3009  0.0652
 4301SOL    HW216496   7.042   9.509   3.603  0.3098 -0.4475 -0.2240
 4302SOL     OW16497   0.457   2.473   0.078  0.1260 -0.3592 -0.1609
 4302SOL    HW116498   0.416   2.495   0.162  1.1906 -0.1743  0.3304
 4302SOL    HW216499   0.414   2.530   0.014 -0.1056  0.1042  0.4037
 4303SOL     OW16500   5.879  10.095   0.191  0.2615  0.7639  0.2554
 4303SOL    HW116501   5.797  10.055   0.220 -0.3208  0.3659 -1.7695
 4303SOL    HW216502   5.947  10.032   0.214 -0.3987 -0.4266 -0.9423
 4304SOL     OW16503   2.339   6.387   4.360  0.8836  0.4383 -0.0531
 4304SOL    HW116504   2.248   6.400   4.335  1.1185  1.8784 -0.2569
 4304SOL    HW216505   2.387   6.386   4.278  1.2053  1.1203  0.1202
 4305SOL     OW16506   4.015   2.784   9.257 -0.2975 -0.3184  0.3602
 4305SOL    HW116507   4.064   2.755   9.334 -0.4109 -1.5745 -0.0249
 4305SOL    HW216508   3.941   2.833   9.293  0.4569  0.3949  0.9896
 4306SOL     OW16509   6.948   8.805   5.551 -0.7267 -0.1560  0.7508
 4306SOL    HW116510   7.018   8.770   5.496  0.2572  0.0837  1.8145
 4306SOL    HW216511   6.941   8.743   5.624 -1.7739 -0.2859  0.5564
 4307SOL     OW16512   8.926   3.018   3.230 -0.4904  0.2036 -0.1468
 4307SOL    HW116513   9.006   3.070   3.230 -0.4503  0.1649 -1.3288
 4307SOL    HW216514   8.953   2.933   3.197 -1.1037  0.3416 -1.0353
 4308SOL     OW16515   2.820   4.568   6.411 -0.3459 -0.2028 -0.1497
 4308SOL    HW116516   2.819   4.485   6.364 -1.5205 -0.0262 -0.4630
 4308SOL    HW216517   2.778   4.631   6.352  0.8147  0.7007 -0.0526
 4309SOL     OW16518   1.924   0.566   2.369 -0.3312  0.0328  0.3760
 4309SOL    HW116519   1.931   0.658   2.344  0.6459  0.1415  0.9947
 4309SOL    HW216520   1.962   0.562   2.457  2.1797 -1.4102 -0.6874
 4310SOL     OW16521   6.769   0.005   1.809 -0.2444  0.1733 -0.1599
 4310SOL    HW116522   6.765  -0.090   1.816  0.6544  0.1259 -0.1594
 4310SOL    HW216523   6.853   0.029   1.848 -0.5890  0.9975  0.1064
 4311SOL     OW16524   7.415   0.017   3.818  0.1407 -0.0598  0.4447
 4311SOL    HW116525   7.380   0.097   3.857  1.1117  0.4509  0.2989
 4311SOL    HW216526   7.452  -0.032   3.892  0.6261  0.1998  0.3785
 4312SOL     OW16527   4.337   3.953   9.457  0.6864 -0.1562  0.1213
 4312SOL    HW116528   4.390   4.023   9.495  0.4203 -0.0106  0.2287
 4312SOL    HW216529   4.289   3.995   9.385 -0.8268  0.2099  1.2991
 4313SOL     OW16530   2.575   7.370   7.888 -0.2156  0.6224  0.1695
 4313SOL    HW116531   2.506   7.421   7.931 -0.8325  0.6177 -0.7706
 4313SOL    HW216532   2.607   7.311   7.956 -3.1382 -1.4072  0.0009
 4314SOL     OW16533   5.684   8.075   5.117  0.7186 -0.3392 -0.0175
 4314SOL    HW116534   5.661   8.019   5.191  1.7885 -1.1630 -0.2783
 4314SOL    HW216535   5.628   8.152   5.127 -0.1734 -1.0642  0.8374
 4315SOL     OW16536   9.908   6.515   5.670 -0.3164  0.2723 -0.4147
 4315SOL    HW116537   9.879   6.426   5.689 -0.1399 -0.0980 -1.7281
 4315SOL    HW216538   9.846   6.571   5.715  0.1457 -0.5043  1.2408
 4316SOL     OW16539   1.079   1.047   3.521  0.0659  0.3105 -0.4820
 4316SOL    HW116540   1.033   1.078   3.599  0.6072 -1.1081  0.4381
 4316SOL    HW216541   1.169   1.076   3.534  0.1433  0.1275 -0.6186
 4317SOL     OW16542   7.589   5.084   1.184 -0.3354 -0.2578 -0.1213
 4317SOL    HW116543   7.607   4.991   1.170 -1.1664 -0.6260  1.1049
 4317SOL    HW216544   7.495   5.093   1.170 -0.1353  0.5719 -1.0381
 4318SOL     OW16545   2.391   1.866   6.481 -0.8655  0.0429  0.3107
 4318SOL    HW116546   2.428   1.873   6.393 -0.9406 -0.0608  0.2714
 4318SOL    HW216547   2.336   1.788   6.478 -2.5360  1.1983 -0.1568
 4319SOL     OW16548   4.239   7.848   6.460  0.1130  0.1158 -0.7271
 4319SOL    HW116549   4.314   7.865   6.518  0.5857 -1.1126 -0.9528
 4319SOL    HW216550   4.236   7.925   6.403  0.1242  0.9827  0.3885
 4320SOL     OW16551   2.615  10.041   7.750 -0.0805  0.6936  0.2521
 4320SOL    HW116552   2.569   9.977   7.805 -2.5932  2.3653  0.2373
 4320SOL    HW216553   2.560  10.119   7.753  1.2874  1.8529 -2.1979
 4321SOL     OW16554  10.036   4.854   5.840 -0.0294  0.2516  0.0215
 4321SOL    HW116555  10.042   4.950   5.845  1.4389  0.2338 -0.8377
 4321SOL    HW216556   9.952   4.833   5.880 -1.3038  2.0490 -1.5870
 4322SOL     OW16557  10.602   6.030   6.887  0.1603  0.0698  0.1719
 4322SOL    HW116558  10.682   6.043   6.938 -0.1694  0.7759  0.5113
 4322SOL    HW216559  10.592   5.935   6.882  0.4990 -0.0105  0.9398
 4323SOL     OW16560   5.525   8.355   5.135  0.4320 -0.3818 -0.2408
 4323SOL    HW116561   5.611   8.393   5.118  0.0040  1.2120  0.8798
 4323SOL    HW216562   5.491   8.406   5.209 -1.0417 -1.6713  0.0187
 4324SOL     OW16563   8.299  10.681   3.682  0.4947  0.1694  0.5419
 4324SOL    HW116564   8.249  10.742   3.629 -1.3625 -2.1504 -0.6069
 4324SOL    HW216565   8.391  10.698   3.660 -0.0150  1.8761 -0.3995
 4325SOL     OW16566   6.920   8.242   8.089 -0.1419 -0.0212 -0.1071
 4325SOL    HW116567   6.991   8.292   8.047 -0.2587  0.7570  0.5880
 4325SOL    HW216568   6.956   8.154   8.100 -0.1906 -0.3250 -2.0254
 4326SOL     OW16569   5.805   7.472   3.449  0.5156  0.5415  0.4764
 4326SOL    HW116570   5.741   7.536   3.419 -2.3895 -0.8787  3.0759
 4326SOL    HW216571   5.832   7.503   3.535  0.8408 -0.5340  0.7847
 4327SOL     OW16572   0.227   6.760   6.835  0.8012  0.1960 -0.1737
 4327SOL    HW116573   0.204   6.689   6.894  0.7801  0.6308  0.3533
 4327SOL    HW216574   0.151   6.769   6.777  0.5289  0.2225  0.1830
 4328SOL     OW16575   8.176   0.387   8.014  0.3710  0.5219  0.0034
 4328SOL    HW116576   8.213   0.355   7.932 -0.8558 -0.2181 -0.3036
 4328SOL    HW216577   8.085   0.407   7.992  0.5363  2.2227  0.7241
 4329SOL     OW16578   6.198   2.386   2.875 -0.1908  0.3007  0.2086
 4329SOL    HW116579   6.288   2.420   2.874 -0.7429  1.8185  0.3043
 4329SOL    HW216580   6.171   2.392   2.966  0.0482 -1.4507  0.4339
 4330SOL     OW16581   5.954   0.646   4.504  0.3025 -0.3218  0.1954
 4330SOL    HW116582   6.041   0.643   4.542  1.0391  1.7208 -1.1575
 4330SOL    HW216583   5.905   0.705   4.561  0.7439  0.9325 -0.6687
 4331SOL     OW16584   7.378   3.088   3.584 -0.2874  0.3350 -0.0553
 4331SOL    HW116585   7.378   3.011   3.526 -0.2942 -0.0355  0.4280
 4331SOL    HW216586   7.318   3.064   3.655 -0.0540  0.6660  0.2581
 4332SOL     OW16587   9.377   3.600   3.910 -0.4073  0.5811  0.0332
 4332SOL    HW116588   9.302   3.651   3.879  0.5696  1.4095 -1.0632
 4332SOL    HW216589   9.372   3.606   4.005 -2.2875 -0.2362  0.0438
 4333SOL     OW16590   3.776   9.513   2.695 -0.0131  0.2394  0.2618
 4333SOL    HW116591   3.764   9.423   2.725 -0.2953  0.1851 -0.0011
 4333SOL    HW216592   3.863   9.538   2.726  0.1777 -0.2157  0.1033
 4334SOL     OW16593   6.346   5.193   2.935  0.0967 -0.8279 -0.4585
 4334SOL    HW116594   6.300   5.128   2.881  0.4206  1.1516 -3.3432
 4334SOL    HW216595   6.313   5.277   2.904  4.3596  0.6578 -1.5582
 4335SOL     OW16596   1.103   5.725   9.631  0.0555  0.4848  0.9655
 4335SOL    HW116597   1.122   5.637   9.599  1.7110  1.4301 -0.8434
 4335SOL    HW216598   1.007   5.732   9.627  0.0199 -0.4809 -1.0983
 4336SOL     OW16599   0.762  10.548   1.209  0.2786 -0.3626  0.5317
 4336SOL    HW116600   0.708  10.477   1.243 -0.6960  0.7284  1.3838
 4336SOL    HW216601   0.852  10.522   1.229 -0.0304 -1.5388  0.4263
 4337SOL     OW16602   3.838   2.100   3.759 -0.2368 -0.0515  0.2736
 4337SOL    HW116603   3.897   2.151   3.704 -1.1548  0.5704 -0.1654
 4337SOL    HW216604   3.765   2.078   3.702 -1.3579  0.8507  1.2833
 4338SOL     OW16605   6.510   2.637   1.994 -0.7516 -0.3171  0.2428
 4338SOL    HW116606   6.490   2.634   1.901 -1.6287  0.2558  0.3962
 4338SOL    HW216607   6.552   2.722   2.007  1.3050 -1.2326  0.0429
 4339SOL     OW16608   2.781   7.833   7.128  0.5618  0.1306 -0.9822
 4339SOL    HW116609   2.844   7.894   7.165 -0.5664  0.3644  0.6390
 4339SOL    HW216610   2.739   7.881   7.057  0.2897  0.9442 -0.2790
 4340SOL     OW16611   5.905   5.319  10.401  0.6035 -0.6702  0.2308
 4340SOL    HW116612   5.851   5.261  10.453 -0.4627 -0.4611 -0.6104
 4340SOL    HW216613   5.912   5.399  10.453 -0.0037 -0.6552  0.2894
 4341SOL     OW16614   2.916   5.144   1.893  0.2152 -0.2307 -0.4215
 4341SOL    HW116615   2.984   5.200   1.856 -1.4486  1.4512 -1.0976
 4341SOL    HW216616   2.937   5.056   1.860  2.7462 -0.0470  0.4613
 4342SOL     OW16617   5.731   9.925   2.874  0.1424  0.5477  0.1004
 4342SOL    HW116618   5.639   9.950   2.879 -0.8274 -1.8934 -2.7932
 4342SOL    HW216619   5.757   9.909   2.965 -2.0845  1.7676  1.0277
 4343SOL     OW16620   0.813   8.163   0.057  0.1445  0.3940 -0.5103
 4343SOL    HW116621   0.733   8.214   0.068  0.1283  0.4810 -1.0107
 4343SOL    HW216622   0.791   8.098  -0.011  0.0121 -0.6029  0.4456
 4344SOL     OW16623   9.535   4.285   1.368  0.1526 -0.5472 -0.2435
 4344SOL    HW116624   9.546   4.305   1.275 -2.0026 -0.6713 -0.5631
 4344SOL    HW216625   9.506   4.368   1.407  0.3704 -0.6740  0.2012
 4345SOL     OW16626   8.352   2.068   4.347 -0.9135  0.7005  0.1000
 4345SOL    HW116627   8.392   1.995   4.300  2.2463  0.6940  2.4513
 4345SOL    HW216628   8.261   2.042   4.360  0.1152 -3.0033  1.0389
 4346SOL     OW16629  10.328   5.678   9.106  0.1100 -0.3917 -0.1281
 4346SOL    HW116630  10.298   5.759   9.147  0.1764  0.1232 -1.0800
 4346SOL    HW216631  10.400   5.648   9.161  1.7646  1.5279 -1.1400
 4347SOL     OW16632   2.631   4.635   6.925 -0.0146  0.0183 -0.1816
 4347SOL    HW116633   2.618   4.690   6.847  3.6436  0.6632 -0.5087
 4347SOL    HW216634   2.706   4.674   6.970 -0.6104 -1.6659  2.4931
 4348SOL     OW16635   8.679   5.955   7.132  0.0444  0.8926 -1.0427
 4348SOL    HW116636   8.589   5.925   7.135  0.2626  0.0590 -2.4345
 4348SOL    HW216637   8.674   6.041   7.091 -0.3592  2.0418  1.2193
 4349SOL     OW16638   9.343   9.907  10.249  0.2556  0.2304  0.8364
 4349SOL    HW116639   9.253   9.903  10.283  0.2293  0.2682  0.7730
 4349SOL    HW216640   9.347   9.838  10.183  0.1271  0.5452  0.4932
 4350SOL     OW16641   4.338   3.965  10.098  0.2709 -0.2217 -0.0921
 4350SOL    HW116642   4.326   3.907  10.173 -0.7283 -0.1647 -0.1926
 4350SOL    HW216643   4.275   3.934  10.033  0.3819  0.3894 -0.5005
 4351SOL     OW16644   8.229   5.302   6.386 -0.8678  0.1965 -0.2900
 4351SOL    HW116645   8.292   5.230   6.379 -2.0710 -0.9922  0.6747
 4351SOL    HW216646   8.275   5.368   6.437  0.1900  0.0640 -1.0277
 4352SOL     OW16647   4.466   2.885   4.451 -0.4042  0.6588  0.0976
 4352SOL    HW116648   4.399   2.846   4.507 -1.0764  0.1124 -1.0494
 4352SOL    HW216649   4.542   2.896   4.508 -0.3244 -1.9123  0.5995
 4353SOL     OW16650   2.121   7.463   1.165 -0.0527  0.1825  0.0215
 4353SOL    HW116651   2.137   7.447   1.258  0.7455 -0.2545 -0.1813
 4353SOL    HW216652   2.035   7.505   1.162  0.3266  1.0839  1.0369
 4354SOL     OW16653   6.506   4.036   6.291 -0.1770  0.1144 -0.3116
 4354SOL    HW116654   6.543   4.051   6.378  1.2652 -0.3673 -0.7995
 4354SOL    HW216655   6.412   4.040   6.303 -0.0262  3.0870  0.7304
 4355SOL     OW16656   8.832  10.994   6.620 -0.1789 -0.2672  0.3675
 4355SOL    HW116657   8.763  11.058   6.638  1.2731  1.0590  1.5158
 4355SOL    HW216658   8.891  11.038   6.558  0.8958 -0.4042  1.2522
 4356SOL     OW16659   3.450   9.779  11.059 -0.0365 -0.1088  0.3038
 4356SOL    HW116660   3.448   9.809  10.968 -0.2629 -0.2749  0.2505
 4356SOL    HW216661   3.374   9.721  11.066  0.0490 -0.1909  0.5668
 4357SOL     OW16662   7.337   9.486   7.345  0.5370  0.7047  0.2816
 4357SOL    HW116663   7.293   9.402   7.329  0.0769  0.4112  2.6132
 4357SOL    HW216664   7.413   9.485   7.288  0.7871 -1.5322  0.5575
 4358SOL     OW16665   9.979   2.726   9.516  0.5132  0.0410  0.5652
 4358SOL    HW116666   9.935   2.678   9.587 -0.0194 -0.3316 -0.0053
 4358SOL    HW216667  10.021   2.658   9.464 -0.4470  0.1557 -0.3896
 4359SOL     OW16668   6.139   9.263   5.566  0.1634 -0.6350  0.2811
 4359SOL    HW116669   6.196   9.333   5.535 -0.4424 -0.4221 -0.3970
 4359SOL    HW216670   6.089   9.237   5.489 -0.0134 -1.4364  0.6536
 4360SOL     OW16671   0.663   9.715   0.944 -0.1522 -0.6861  0.7073
 4360SOL    HW116672   0.615   9.774   0.886  0.5571 -0.9355 -0.1585
 4360SOL    HW216673   0.594   9.662   0.986 -0.7314  0.1404  0.8181
 4361SOL     OW16674   1.110   5.462   7.991  0.1614  0.4191 -0.3261
 4361SOL    HW116675   1.116   5.533   8.055  0.7927 -0.3546  0.5136
 4361SOL    HW216676   1.017   5.442   7.985  0.0822  0.6021  0.2505
 4362SOL     OW16677   0.553  10.727   4.488 -0.4497 -0.2037  0.2127
 4362SOL    HW116678   0.488  10.727   4.417  0.7836  0.2048 -0.9596
 4362SOL    HW216679   0.581  10.818   4.495 -2.4783  0.3329  3.1426
 4363SOL     OW16680   8.438  10.291   3.074 -0.3971  0.1683  0.7757
 4363SOL    HW116681   8.390  10.372   3.053 -0.1668  0.3476  0.9323
 4363SOL    HW216682   8.526  10.305   3.038 -0.9304 -0.8505 -1.0375
 4364SOL     OW16683   4.946   2.465   8.478 -0.5965  0.1044 -0.5953
 4364SOL    HW116684   4.933   2.480   8.571  1.5352 -0.4721 -0.1431
 4364SOL    HW216685   4.982   2.547   8.445  0.2955 -0.2440 -0.5191
 4365SOL     OW16686  11.059  10.719   9.421  0.3999 -0.5482 -0.2798
 4365SOL    HW116687  10.998  10.655   9.385 -1.8229  0.0196  2.1652
 4365SOL    HW216688  11.012  10.803   9.414 -0.8794 -0.5182  4.7339
 4366SOL     OW16689   7.163   5.124   6.427  0.6210  0.6964  0.2192
 4366SOL    HW116690   7.148   5.190   6.495  1.2950  1.1425 -0.0468
 4366SOL    HW216691   7.240   5.156   6.380 -0.1744  0.7204 -1.1437
 4367SOL     OW16692   4.573   6.540   8.801  0.8466 -0.0765 -0.2287
 4367SOL    HW116693   4.635   6.478   8.764  1.1730  0.6806 -0.9833
 4367SOL    HW216694   4.490   6.492   8.806  1.3912 -0.9838  0.4653
 4368SOL     OW16695   6.722   0.580   3.562  0.5066  0.7151 -0.1536
 4368SOL    HW116696   6.749   0.650   3.501  0.8853  0.2487 -0.5319
 4368SOL    HW216697   6.791   0.579   3.628  1.1076 -0.0435 -0.7664
 4369SOL     OW16698   7.293   8.590   5.300 -0.2755  0.0941  0.1590
 4369SOL    HW116699   7.300   8.684   5.286 -0.5116  0.1212  0.2148
 4369SOL    HW216700   7.265   8.581   5.391 -1.3486  0.0130 -0.1599
 4370SOL     OW16701   5.106   5.777   5.403  0.6084 -0.1787  0.1325
 4370SOL    HW116702   5.115   5.747   5.494  1.1447 -0.2801  0.0478
 4370SOL    HW216703   5.066   5.703   5.357  2.9686 -1.2512 -0.3247
 4371SOL     OW16704   7.083   9.278   9.608 -0.1304 -0.7291  0.1317
 4371SOL    HW116705   7.158   9.308   9.659  2.1526 -0.3190 -3.2034
 4371SOL    HW216706   7.108   9.190   9.579  0.0981  0.1669 -2.6784
 4372SOL     OW16707   0.527   6.148   3.770 -0.2025  0.1726  0.3089
 4372SOL    HW116708   0.437   6.165   3.741 -1.2111 -1.4216  2.2960
 4372SOL    HW216709   0.558   6.079   3.711 -0.2198  0.7732 -0.4260
 4373SOL     OW16710  10.613   3.737   7.813  0.5389 -0.4349  0.3310
 4373SOL    HW116711  10.527   3.760   7.848  0.5588 -3.0087  2.4264
 4373SOL    HW216712  10.674   3.756   7.884  1.8828  1.8444 -1.3017
 4374SOL     OW16713  10.764   4.304   1.339 -0.3902  0.0152 -0.2201
 4374SOL    HW116714  10.776   4.385   1.290  0.5252 -0.6772 -1.1800
 4374SOL    HW216715  10.835   4.305   1.404 -0.3278 -0.0641 -0.2882
 4375SOL     OW16716   9.562   1.330   6.415  0.1572  0.1922 -0.3515
 4375SOL    HW116717   9.508   1.257   6.386 -1.4395  1.5271 -0.9127
 4375SOL    HW216718   9.603   1.363   6.335  0.9660 -0.1242 -0.0848
 4376SOL     OW16719   8.097   4.820   8.885  0.2444 -0.2617  0.0302
 4376SOL    HW116720   8.137   4.806   8.799 -0.7408  1.1386 -0.6969
 4376SOL    HW216721   8.042   4.743   8.899 -1.3578  0.4847 -1.6753
 4377SOL     OW16722   7.274   2.551  10.886 -0.2351  0.6735  0.3218
 4377SOL    HW116723   7.272   2.479  10.949  1.4034  0.2398 -0.0486
 4377SOL    HW216724   7.281   2.508  10.801 -3.4877  1.2204 -0.3390
 4378SOL     OW16725   0.607   4.520   3.788  0.0857 -0.5803 -0.6455
 4378SOL    HW116726   0.600   4.608   3.750 -1.0303 -0.1339  0.5205
 4378SOL    HW216727   0.558   4.526   3.870  1.5792 -1.7832  0.3683
 4379SOL     OW16728   4.685   6.850   5.626 -0.1331  0.4658  0.3379
 4379SOL    HW116729   4.769   6.818   5.594 -0.1633 -0.4111  1.1018
 4379SOL    HW216730   4.675   6.810   5.713 -1.8273 -0.3049 -0.1697
 4380SOL     OW16731   3.322   0.844   9.862 -0.4002 -0.2151  0.0149
 4380SOL    HW116732   3.233   0.861   9.894  0.4570  1.9626  1.4062
 4380SOL    HW216733   3.349   0.926   9.822  1.4007 -0.4716  0.6349
 4381SOL     OW16734   2.244   8.017   6.123 -0.0929 -0.1776 -0.1720
 4381SOL    HW116735   2.177   8.068   6.077  0.4424 -0.0089 -0.7621
 4381SOL    HW216736   2.325   8.067   6.112 -0.0490  0.1523  1.4170
 4382SOL     OW16737   8.669  10.685   0.164 -0.0295  0.0848  0.0719
 4382SOL    HW116738   8.758  10.668   0.196 -0.0971  0.3583  0.4072
 4382SOL    HW216739   8.680  10.698   0.070  0.1627 -0.8108 -0.0368
 4383SOL     OW16740   2.751   9.812   0.947  0.1535 -0.0484  0.0898
 4383SOL    HW116741   2.717   9.740   0.894 -1.3345  1.5623 -1.2998
 4383SOL    HW216742   2.706   9.804   1.031 -2.2704  0.8417 -1.0304
 4384SOL     OW16743   1.372   8.014   3.588 -0.2145 -0.2972  0.5058
 4384SOL    HW116744   1.395   7.922   3.571  1.8054  0.2735 -0.1669
 4384SOL    HW216745   1.289   8.027   3.541  0.9449 -1.0512 -1.9047
 4385SOL     OW16746   1.401  10.443   5.102 -0.1443  0.7429  0.7049
 4385SOL    HW116747   1.335  10.510   5.086  0.1788  0.7195 -0.9395
 4385SOL    HW216748   1.386  10.377   5.035 -0.4412 -0.8775  2.2739
 4386SOL     OW16749   6.065   8.474   1.112 -0.2487 -0.3819 -0.1374
 4386SOL    HW116750   6.121   8.509   1.180  0.0034 -1.8212  0.4429
 4386SOL    HW216751   6.090   8.381   1.106 -1.8596 -0.8222 -0.5600
 4387SOL     OW16752  10.392   8.370   3.175 -0.0250  0.2279  0.2479
 4387SOL    HW116753  10.377   8.322   3.094  0.8972  1.2429 -0.5562
 4387SOL    HW216754  10.338   8.325   3.241  1.1675 -2.1720 -0.3407
 4388SOL     OW16755   2.271   7.621   9.732 -0.4558 -0.0442 -0.1544
 4388SOL    HW116756   2.234   7.650   9.815  2.0023  1.5471  0.4902
 4388SOL    HW216757   2.325   7.545   9.754 -3.2255 -2.4861 -1.1190
 4389SOL     OW16758   1.686   0.828   0.942 -0.5699  0.0023 -0.0337
 4389SOL    HW116759   1.626   0.886   0.988 -0.9437  1.2317 -1.9587
 4389SOL    HW216760   1.764   0.882   0.927  0.4134 -1.0692  1.0217
 4390SOL     OW16761   3.544   5.534   1.886  0.7181 -0.4930  0.1906
 4390SOL    HW116762   3.499   5.607   1.929  0.9348 -0.5823  0.5721
 4390SOL    HW216763   3.622   5.573   1.847  0.9592 -0.5623  0.6002
 4391SOL     OW16764  11.017  10.961   6.630 -0.2934 -0.2964 -0.6975
 4391SOL    HW116765  10.993  11.010   6.708 -0.2183 -1.2400 -0.0641
 4391SOL    HW216766  11.093  11.008   6.595  0.1131 -0.2510  0.2010
 4392SOL     OW16767   9.076   2.409   0.918 -0.2609  0.3763  0.4505
 4392SOL    HW116768   9.035   2.419   0.833  0.2471  0.2306  0.1868
 4392SOL    HW216769   9.061   2.493   0.962  0.1263  0.7180 -0.0645
 4393SOL     OW16770   0.909   7.097   8.237  0.1093 -0.0382  0.7565
 4393SOL    HW116771   0.941   7.187   8.233 -0.4837  0.1308 -0.8601
 4393SOL    HW216772   0.821   7.105   8.275  0.1478  0.0387  0.8294
 4394SOL     OW16773   1.952  10.182   4.128  0.6003  0.5380  0.2044
 4394SOL    HW116774   1.951  10.144   4.215  0.4079  2.3679  1.0451
 4394SOL    HW216775   1.902  10.121   4.074 -1.1539  0.4478  1.8442
 4395SOL     OW16776   2.698   9.746   9.017  0.2985  0.1946 -0.2348
 4395SOL    HW116777   2.727   9.833   9.042  0.9180  0.1647 -0.8326
 4395SOL    HW216778   2.659   9.757   8.931 -0.4832  0.0417  0.0933
 4396SOL     OW16779   8.868  10.402   2.670  0.1248  0.6763  0.5658
 4396SOL    HW116780   8.823  10.415   2.754 -1.1410  1.7024 -0.2237
 4396SOL    HW216781   8.811  10.446   2.606  1.6159  0.8718 -0.6756
 4397SOL     OW16782   7.374   1.332   5.158  0.0523 -0.0076  0.1462
 4397SOL    HW116783   7.282   1.337   5.133 -0.2856  3.9230  1.5632
 4397SOL    HW216784   7.373   1.298   5.248  0.1736 -1.1670 -0.2642
 4398SOL     OW16785   2.372  10.325   3.721  0.1818 -1.0957  0.0649
 4398SOL    HW116786   2.295  10.283   3.683 -1.4794  1.3661  0.4691
 4398SOL    HW216787   2.345  10.348   3.810  1.3169  0.0185  0.1440
 4399SOL     OW16788  11.105   6.316   7.108 -0.2537 -0.0336  0.1415
 4399SOL    HW116789  11.191   6.314   7.066 -0.1591 -1.3070  0.3803
 4399SOL    HW216790  11.124   6.328   7.201 -0.1818 -2.5979  0.5196
 4400SOL     OW16791   4.859   3.747   5.634  0.6204  0.5231 -0.8227
 4400SOL    HW116792   4.900   3.707   5.558 -1.4720 -1.1867 -1.1521
 4400SOL    HW216793   4.893   3.698   5.709  1.0483  0.7830 -0.8422
 4401SOL     OW16794   4.916   4.017   2.233 -0.1479 -0.1938  0.6845
 4401SOL    HW116795   4.846   3.978   2.180 -1.8062  2.5360  0.6570
 4401SOL    HW216796   4.890   4.109   2.242  1.6099  0.1218  3.7401
 4402SOL     OW16797   1.388   1.704   6.570 -0.5386 -0.3015 -0.0418
 4402SOL    HW116798   1.334   1.625   6.567 -0.7543 -0.1231 -1.0945
 4402SOL    HW216799   1.470   1.679   6.529 -1.0059  0.3096 -1.3893
 4403SOL     OW16800   6.639  10.601   7.159 -0.0509 -0.3387 -0.2816
 4403SOL    HW116801   6.717  10.589   7.214 -0.6146  0.9300  0.8316
 4403SOL    HW216802   6.668  10.660   7.089 -0.2234  0.8547  0.6333
 4404SOL     OW16803   8.405   8.781   8.788 -0.5710 -0.2663 -0.3269
 4404SOL    HW116804   8.325   8.762   8.739 -0.8669 -1.5456  0.5900
 4404SOL    HW216805   8.385   8.754   8.878  0.8197 -0.4185 -0.0409
 4405SOL     OW16806   6.909   5.856   6.664 -0.0150 -0.1156  0.4598
 4405SOL    HW116807   6.816   5.859   6.642  0.4115 -0.2118 -1.5818
 4405SOL    HW216808   6.931   5.946   6.690 -0.5965 -0.0193  0.6214
 4406SOL     OW16809   8.911   5.737   4.341  0.0390 -0.1776  0.3447
 4406SOL    HW116810   8.832   5.773   4.299  0.0567 -1.7414 -1.1763
 4406SOL    HW216811   8.884   5.717   4.430 -1.2454 -0.4155 -0.0652
 4407SOL     OW16812   1.206   5.193   8.121  0.4764 -0.1955  0.5185
 4407SOL    HW116813   1.241   5.282   8.108 -1.0102  0.9397  3.4468
 4407SOL    HW216814   1.111   5.203   8.113  0.2264 -1.3362  1.7434
 4408SOL     OW16815   5.078   5.755   2.883  0.1524 -0.0886  0.1141
 4408SOL    HW116816   5.036   5.669   2.885 -0.7949  0.3752  1.4400
 4408SOL    HW216817   5.007   5.817   2.902  1.2486  0.7810  1.5752
 4409SOL     OW16818   1.366   0.944   3.791  0.1931  0.0143  0.9847
 4409SOL    HW116819   1.453   0.906   3.802  1.0084  0.9829 -1.3275
 4409SOL    HW216820   1.366   1.021   3.847  0.4188 -0.5891  1.8236
 4410SOL     OW16821   5.411   1.301   4.344  0.0014 -0.6567  0.4002
 4410SOL    HW116822   5.365   1.233   4.293  0.0242 -0.0115 -0.5147
 4410SOL    HW216823   5.447   1.359   4.277  0.2240  0.0943  1.1690
 4411SOL     OW16824   1.277   9.387   4.126  0.4266 -0.1533  0.0137
 4411SOL    HW116825   1.259   9.355   4.215 -1.4265 -0.3169 -0.3761
 4411SOL    HW216826   1.212   9.344   4.071 -0.9311  2.7381 -0.8558
 4412SOL     OW16827   4.319   5.285   4.037 -0.0877 -0.1553 -0.0940
 4412SOL    HW116828   4.324   5.336   4.117 -0.6848 -0.7682  0.3436
 4412SOL    HW216829   4.294   5.197   4.065  0.3634 -0.5549 -0.8859
 4413SOL     OW16830   3.017   9.768   4.338 -0.2818  0.3736 -0.3606
 4413SOL    HW116831   3.106   9.795   4.361  0.1424 -1.2187  0.0048
 4413SOL    HW216832   2.986   9.836   4.278  0.5117  1.8835  0.8412
 4414SOL     OW16833  10.651   4.121   7.018  0.0893 -0.5156  0.1111
 4414SOL    HW116834  10.586   4.173   6.970 -0.4283  0.4877  1.8114
 4414SOL    HW216835  10.691   4.183   7.079  1.1296 -1.6093  0.5810
 4415SOL     OW16836   1.955   8.802   4.208  1.1045  0.0412  0.2296
 4415SOL    HW116837   2.032   8.800   4.265  0.8213 -0.6148  0.6053
 4415SOL    HW216838   1.965   8.726   4.151 -0.0737 -1.0558  1.4001
 4416SOL     OW16839   8.814   2.702  10.247 -0.5110 -0.2345 -0.3806
 4416SOL    HW116840   8.824   2.797  10.250 -0.3475 -0.2661  0.8647
 4416SOL    HW216841   8.745   2.687  10.182 -1.1175  0.7855 -0.0049
 4417SOL     OW16842   2.979  11.015   3.108  0.0468 -0.0912  0.2819
 4417SOL    HW116843   2.990  11.000   3.202  0.1744  0.1840  0.3148
 4417SOL    HW216844   3.052  10.970   3.067  0.5757  0.6333  0.3987
 4418SOL     OW16845   7.795   1.308   3.050 -0.4363  0.1864  0.3212
 4418SOL    HW116846   7.860   1.276   2.987  0.0044 -0.0802  0.9010
 4418SOL    HW216847   7.846   1.331   3.128 -1.1129 -0.9629  1.1558
 4419SOL     OW16848   2.597   3.598   9.628  0.3986  0.0494 -0.0814
 4419SOL    HW116849   2.613   3.532   9.560  1.6095  0.3906 -0.1567
 4419SOL    HW216850   2.633   3.679   9.591 -0.0868  0.5131  0.4526
 4420SOL     OW16851   2.347  10.837   4.771  0.2220  0.1880  0.3316
 4420SOL    HW116852   2.428  10.843   4.821  0.5454 -0.4187 -0.1127
 4420SOL    HW216853   2.342  10.919   4.723  2.2551 -1.0373 -2.1548
 4421SOL     OW16854   0.156  10.400  10.086  0.2940  0.3543  0.5023
 4421SOL    HW116855   0.195  10.393   9.999  0.3168 -0.0300  0.5403
 4421SOL    HW216856   0.217  10.453  10.137  0.1626  0.7841  0.2179
 4422SOL     OW16857   6.822   2.698   1.897  0.5153  0.0023  0.3552
 4422SOL    HW116858   6.861   2.613   1.917  0.7031  0.0212  0.0729
 4422SOL    HW216859   6.839   2.711   1.804 -1.2495 -0.5442 -0.0744
 4423SOL     OW16860   2.933   5.363   6.481  0.0777 -0.0448 -0.0578
 4423SOL    HW116861   2.946   5.300   6.551 -1.8553  1.2424  1.5593
 4423SOL    HW216862   2.853   5.410   6.505 -0.1438  1.0862 -2.6619
 4424SOL     OW16863   3.624   0.792   2.072  0.0790 -0.1333  0.5312
 4424SOL    HW116864   3.623   0.740   1.992 -1.7839 -0.3255  0.6312
 4424SOL    HW216865   3.536   0.830   2.077  0.5739  0.9352  1.8120
 4425SOL     OW16866   8.694   5.889   3.849  0.2389  0.2037  0.5322
 4425SOL    HW116867   8.736   5.848   3.774 -0.8364 -1.9750  1.0269
 4425SOL    HW216868   8.612   5.924   3.814  0.1037 -0.1016  0.5443
 4426SOL     OW16869  11.112   2.348   9.123 -0.2098  0.4683  0.1029
 4426SOL    HW116870  11.114   2.255   9.104 -0.6387  0.5055 -0.1353
 4426SOL    HW216871  11.172   2.359   9.198  0.4417  0.1289 -0.3608
 4427SOL     OW16872   4.789   7.327   7.495 -0.3415  0.1375  0.3633
 4427SOL    HW116873   4.819   7.318   7.586 -0.1165  2.0786  0.5074
 4427SOL    HW216874   4.745   7.412   7.493  0.9974  0.8322 -1.7089
 4428SOL     OW16875  10.245   1.596   8.616 -0.6267  0.1395 -0.0898
 4428SOL    HW116876  10.237   1.513   8.569  0.9373  0.5811 -1.2079
 4428SOL    HW216877  10.270   1.572   8.705  1.0653 -0.5891 -0.7254
 4429SOL     OW16878   9.630   9.917   4.950 -0.2562  0.4148  0.2591
 4429SOL    HW116879   9.719   9.891   4.973  0.4836  1.0010 -1.7546
 4429SOL    HW216880   9.601   9.972   5.022  1.5536  1.3801  0.2832
 4430SOL     OW16881   1.742   4.168   5.686  0.6237 -0.2885 -0.2225
 4430SOL    HW116882   1.784   4.175   5.600  0.4358 -1.5052 -0.4314
 4430SOL    HW216883   1.721   4.076   5.695 -2.1723  0.2650 -0.2019
 4431SOL     OW16884   4.872   2.170   1.684 -0.7529  0.5486  0.5782
 4431SOL    HW116885   4.848   2.080   1.704  1.1988 -0.1799 -0.1438
 4431SOL    HW216886   4.857   2.179   1.590 -0.5475  0.8586  0.5732
 4432SOL     OW16887   1.066   8.650   9.456 -0.1303  0.1261  0.5616
 4432SOL    HW116888   1.075   8.645   9.360  0.2800 -2.8346  0.6771
 4432SOL    HW216889   1.011   8.727   9.470 -1.0431  0.0901 -2.1181
 4433SOL     OW16890   9.650   9.695   3.997  0.5274  0.3440 -0.1887
 4433SOL    HW116891   9.574   9.744   4.028 -0.9173 -0.8297 -1.6726
 4433SOL    HW216892   9.703   9.759   3.950 -0.8598  0.7093 -1.3164
 4434SOL     OW16893   5.679   2.288   4.490  0.3527  0.1425 -0.4045
 4434SOL    HW116894   5.755   2.293   4.548  0.7885 -1.4107 -0.7935
 4434SOL    HW216895   5.698   2.351   4.420  1.3179 -0.2814 -0.5392
 4435SOL     OW16896   5.401   2.355   6.516 -0.1989  0.0187 -0.3384
 4435SOL    HW116897   5.342   2.321   6.584  1.8537 -0.8844  1.0893
 4435SOL    HW216898   5.393   2.292   6.445  1.8495 -2.4040  1.3860
 4436SOL     OW16899   0.610   1.615   2.969  0.3514  0.1664  0.1397
 4436SOL    HW116900   0.515   1.610   2.963  0.3960  0.9658 -1.8667
 4436SOL    HW216901   0.639   1.524   2.961 -0.2398 -0.1738  1.5657
 4437SOL     OW16902   4.849  10.111   0.109 -0.2397  0.2370  0.4987
 4437SOL    HW116903   4.753  10.102   0.112  0.0102 -4.4208  1.8509
 4437SOL    HW216904   4.873  10.073   0.024  0.5034  0.2640  0.6976
 4438SOL     OW16905   9.413   8.355   1.888  0.7676 -0.3324  0.8610
 4438SOL    HW116906   9.474   8.282   1.882 -0.7277 -1.5554  0.0605
 4438SOL    HW216907   9.369   8.344   1.972  1.4445  0.4092  1.3269
 4439SOL     OW16908   5.901   2.808   7.110  0.4185 -0.0805 -0.1441
 4439SOL    HW116909   5.905   2.882   7.171  1.2163  0.6767 -1.0833
 4439SOL    HW216910   5.991   2.776   7.105  0.1439 -0.8967 -0.0261
 4440SOL     OW16911   3.984   4.584   7.889  0.7401 -0.5628  0.3426
 4440SOL    HW116912   4.022   4.570   7.975  1.4034 -0.9203 -0.0016
 4440SOL    HW216913   3.990   4.499   7.846 -2.8125 -1.3787  1.1643
 4441SOL     OW16914   6.413  10.516   2.295 -0.1601 -0.2431  0.0948
 4441SOL    HW116915   6.482  10.569   2.334 -2.0827  1.1925  1.7851
 4441SOL    HW216916   6.398  10.556   2.209 -0.3963  0.8986  0.6457
 4442SOL     OW16917   1.261   3.046   3.836 -0.4154  0.4462 -0.4504
 4442SOL    HW116918   1.214   3.091   3.766 -1.1513 -0.5218 -0.5974
 4442SOL    HW216919   1.329   2.996   3.790 -0.9020 -0.1933 -0.4915
 4443SOL     OW16920   8.229  10.728   8.576 -0.0254  0.5523 -0.8701
 4443SOL    HW116921   8.177  10.776   8.511  1.5412  2.4857 -0.7658
 4443SOL    HW216922   8.196  10.758   8.660  2.8586  3.9603 -0.7221
 4444SOL     OW16923   2.000   9.575   5.260 -0.0897 -0.2328  0.4869
 4444SOL    HW116924   1.945   9.633   5.312  0.8848  0.2892  0.9622
 4444SOL    HW216925   2.013   9.623   5.178 -2.3393 -1.4238 -0.6794
 4445SOL     OW16926   6.329   6.855   1.046  0.4462 -0.2107  0.4899
 4445SOL    HW116927   6.370   6.789   1.102 -1.0262 -1.4854  0.1122
 4445SOL    HW216928   6.343   6.824   0.957 -0.0311  0.1134  0.2992
 4446SOL     OW16929   3.712   4.751   0.015 -0.0854 -0.1238  0.0461
 4446SOL    HW116930   3.655   4.678   0.040 -0.2010 -0.1322 -0.2397
 4446SOL    HW216931   3.749   4.781   0.098 -1.8819  1.0394  0.5002
 4447SOL     OW16932   5.762   5.247   4.344 -0.4534  0.4757 -0.6933
 4447SOL    HW116933   5.735   5.159   4.315  1.8228  0.1929 -2.2187
 4447SOL    HW216934   5.679   5.294   4.358 -1.7264 -1.3434 -1.6534
 4448SOL     OW16935   9.535   7.948  10.252 -0.3454 -0.4186 -0.3054
 4448SOL    HW116936   9.534   8.038  10.220  1.5986 -0.1986  0.1228
 4448SOL    HW216937   9.498   7.953  10.340  0.5846  0.1472  0.0714
 4449SOL     OW16938   8.221   5.085   8.150  0.0180  0.1429  0.0470
 4449SOL    HW116939   8.242   5.062   8.240  1.0508  0.1471 -0.1819
 4449SOL    HW216940   8.217   5.002   8.104 -0.0342  0.1735 -0.0044
 4450SOL     OW16941   3.138  10.400   6.184 -0.0737 -0.3696 -0.4767
 4450SOL    HW116942   3.151  10.306   6.182 -1.2904 -0.5389 -2.2416
 4450SOL    HW216943   3.047  10.411   6.213 -0.4299  0.1764 -1.7480
 4451SOL     OW16944   5.711   8.890   8.769  0.3412  0.0662 -0.5027
 4451SOL    HW116945   5.736   8.953   8.837  3.8043  1.8248 -3.0717
 4451SOL    HW216946   5.674   8.943   8.699  0.1445 -1.2168 -1.4107
 4452SOL     OW16947   5.659  10.488   9.942  0.2446  0.4343  0.1016
 4452SOL    HW116948   5.740  10.529   9.912 -0.0096  0.2700 -0.8390
 4452SOL    HW216949   5.608  10.560   9.979  1.2829  0.3559  1.8076
 4453SOL     OW16950   9.782   0.975   1.916 -0.7498  0.5367  0.4409
 4453SOL    HW116951   9.842   1.015   1.853 -0.1141  1.9180  1.8534
 4453SOL    HW216952   9.707   0.948   1.864 -0.4796  2.1122 -0.8425
 4454SOL     OW16953   3.185   4.193   7.250 -0.4258 -0.3050 -0.6629
 4454SOL    HW116954   3.211   4.101   7.260  0.3725 -0.0597 -0.4307
 4454SOL    HW216955   3.176   4.204   7.155 -0.7281 -0.6787 -0.6799
 4455SOL     OW16956  10.015   2.959   5.553 -0.2610  0.0111  0.6695
 4455SOL    HW116957   9.920   2.949   5.559 -0.1929 -0.1558  1.6538
 4455SOL    HW216958  10.050   2.885   5.603  0.3730  0.3267  0.7040
 4456SOL     OW16959   3.353  11.074   1.703  0.4889  0.4523 -0.2464
 4456SOL    HW116960   3.386  11.083   1.613  0.5464  0.5092 -0.2199
 4456SOL    HW216961   3.420  11.116   1.757 -0.4818  2.2193 -0.3401
 4457SOL     OW16962   3.435   2.515  10.434 -0.3310  0.4109  0.1263
 4457SOL    HW116963   3.529   2.501  10.448 -0.1160  0.3177 -1.3032
 4457SOL    HW216964   3.401   2.537  10.521  0.9799  0.2865  0.6911
 4458SOL     OW16965   5.411   3.396   5.224 -0.0218 -0.3836 -0.2077
 4458SOL    HW116966   5.435   3.436   5.140 -0.1414  1.5739  0.6356
 4458SOL    HW216967   5.442   3.306   5.217  1.0064  0.0516 -1.9286
 4459SOL     OW16968   9.618   5.834   2.975  0.5253  0.2478 -0.1151
 4459SOL    HW116969   9.688   5.900   2.974  0.0618  0.7566 -1.2488
 4459SOL    HW216970   9.551   5.870   2.917  0.1724 -1.1510 -0.6064
 4460SOL     OW16971   4.660   5.219   2.437  0.6342 -0.4808 -0.5654
 4460SOL    HW116972   4.668   5.224   2.533  0.2180  1.4828 -0.5778
 4460SOL    HW216973   4.573   5.182   2.422  0.0796  0.5994 -0.1340
 4461SOL     OW16974   6.625   9.541   7.574 -0.0195  0.0326 -0.3314
 4461SOL    HW116975   6.584   9.626   7.559  0.1560  0.2676  0.4785
 4461SOL    HW216976   6.596   9.515   7.662  1.3436  0.0799  0.1496
 4462SOL     OW16977   6.332   9.604   3.196  0.5532 -0.2892  0.2570
 4462SOL    HW116978   6.370   9.558   3.122 -0.4516 -2.9249  1.2566
 4462SOL    HW216979   6.362   9.694   3.187  0.9266 -0.6509 -2.9852
 4463SOL     OW16980   0.700   0.391   9.363  0.0763 -0.0425 -0.7253
 4463SOL    HW116981   0.648   0.370   9.441  2.0873  0.1397  0.7440
 4463SOL    HW216982   0.647   0.453   9.314 -1.7756 -1.1112 -0.1436
 4464SOL     OW16983   2.578  10.508  10.996  0.2254  0.3783  0.5679
 4464SOL    HW116984   2.652  10.568  10.988  0.2951  0.4525  1.6340
 4464SOL    HW216985   2.601  10.451  11.069 -0.7433  0.3771  0.8923
 4465SOL     OW16986   8.444   8.446   7.416 -0.4010  0.7005  0.0085
 4465SOL    HW116987   8.365   8.392   7.424 -0.6904  1.0339 -0.4870
 4465SOL    HW216988   8.515   8.384   7.403 -0.8985  0.4535 -1.9015
 4466SOL     OW16989   8.762  10.226   4.851 -0.2261  0.1697 -0.2082
 4466SOL    HW116990   8.847  10.197   4.818 -0.7567  0.4986 -1.9774
 4466SOL    HW216991   8.711  10.146   4.861 -0.0846  0.0709 -0.2848
 4467SOL     OW16992   2.107   9.188   9.276 -0.4952 -0.4991 -0.5255
 4467SOL    HW116993   2.189   9.226   9.244  0.1584 -0.0087  1.5778
 4467SOL    HW216994   2.130   9.147   9.360 -2.0018 -2.1520 -0.8366
 4468SOL     OW16995   8.484  10.418  10.180  0.4667 -0.2202 -0.1956
 4468SOL    HW116996   8.507  10.504  10.144  0.8504  0.0533  0.6770
 4468SOL    HW216997   8.437  10.375  10.109 -0.2030  0.9113 -0.4720
 4469SOL     OW16998   8.685   1.172   4.923  0.4640 -0.3697 -0.0481
 4469SOL    HW116999   8.727   1.174   5.010 -1.3150 -0.3540  0.8527
 4469SOL    HW217000   8.666   1.263   4.904 -0.9908 -0.5229  0.5224
 4470SOL     OW17001   1.348   9.580   6.181  0.1693 -0.8291  0.2057
 4470SOL    HW117002   1.397   9.662   6.192 -0.5574 -0.5007  1.1389
 4470SOL    HW217003   1.281   9.602   6.116  0.1997 -0.7873  0.1877
 4471SOL     OW17004   5.827   7.991   4.600 -0.1302 -0.7706  0.8114
 4471SOL    HW117005   5.795   7.975   4.689 -0.8579  1.2942  0.9587
 4471SOL    HW217006   5.919   8.014   4.611 -0.3157 -0.1364  1.0903
 4472SOL     OW17007   1.480   6.409  10.282  0.0454  0.5602 -0.1308
 4472SOL    HW117008   1.497   6.350  10.356  0.0563  1.1265  0.3222
 4472SOL    HW217009   1.518   6.493  10.308 -1.4786  1.2587 -0.0124
 4473SOL     OW17010  10.292   7.448   3.348  0.0424  0.4722  0.2901
 4473SOL    HW117011  10.208   7.481   3.316  0.3100 -0.2726 -1.2776
 4473SOL    HW217012  10.269   7.379   3.410 -0.5732 -1.0487 -1.5325
 4474SOL     OW17013   6.289   0.471   2.342  0.4832 -0.6886 -0.3837
 4474SOL    HW117014   6.310   0.381   2.366 -0.9469 -0.5948  1.4192
 4474SOL    HW217015   6.196   0.469   2.321  0.1370  0.5609  0.8637
 4475SOL     OW17016   3.538   3.262   0.299 -0.4400  0.6101  0.1061
 4475SOL    HW117017   3.564   3.176   0.268 -0.2111  0.6479  0.1943
 4475SOL    HW217018   3.443   3.266   0.283 -0.0989  1.2400 -2.1320
 4476SOL     OW17019   2.329   5.558   9.853  0.0415 -0.7485  0.0670
 4476SOL    HW117020   2.383   5.579   9.776 -0.0489  2.4557  0.7230
 4476SOL    HW217021   2.369   5.609   9.924 -0.2527 -3.1243  2.0477
 4477SOL     OW17022   8.677   1.441   3.344  0.5829 -0.1278  0.1598
 4477SOL    HW117023   8.645   1.516   3.395 -0.4305  0.6539 -1.5410
 4477SOL    HW217024   8.715   1.480   3.265  1.0172 -1.3626 -0.2594
 4478SOL     OW17025   4.816   4.637   6.201 -0.2947  0.5291 -0.1016
 4478SOL    HW117026   4.790   4.729   6.204 -1.0027  0.3218  0.1785
 4478SOL    HW217027   4.785   4.600   6.283  0.8195  0.2477  0.2104
 4479SOL     OW17028   2.846   9.298   6.998 -0.5477  0.4538 -0.4320
 4479SOL    HW117029   2.890   9.216   7.021 -1.1450  0.7229  1.8115
 4479SOL    HW217030   2.803   9.279   6.914 -0.6775 -1.5159  0.0378
 4480SOL     OW17031   9.754   4.633   7.698  0.2862 -0.3598  0.1436
 4480SOL    HW117032   9.776   4.569   7.631  1.1642  0.4732 -0.4029
 4480SOL    HW217033   9.743   4.582   7.778  3.4261 -1.0003  0.2866
 4481SOL     OW17034   8.569   4.916   5.371 -0.2982  0.7028 -0.1698
 4481SOL    HW117035   8.574   4.948   5.461  0.4226 -0.0185  0.0674
 4481SOL    HW217036   8.633   4.845   5.368 -1.6498 -0.5403 -0.7363
 4482SOL     OW17037   4.974  10.682   2.584 -0.4764  0.2584 -0.2002
 4482SOL    HW117038   5.010  10.746   2.523 -0.2969  0.1553 -0.2016
 4482SOL    HW217039   5.050  10.644   2.628 -0.5886  0.1334 -0.1112
 4483SOL     OW17040   0.406   0.010   9.417  0.0021  0.3420 -0.1293
 4483SOL    HW117041   0.453  -0.012   9.498 -0.3543  1.5230  0.4255
 4483SOL    HW217042   0.460  -0.027   9.347  0.4020 -0.5564  0.6348
 4484SOL     OW17043   4.376   2.082  10.036 -0.4076  0.0193 -0.3227
 4484SOL    HW117044   4.335   2.111   9.955 -0.8582 -2.0897 -0.9107
 4484SOL    HW217045   4.323   2.008  10.064 -0.6941  1.0913  2.3150
 4485SOL     OW17046   4.370   8.145   4.402  0.3434 -0.3148  0.6024
 4485SOL    HW117047   4.321   8.224   4.426  0.5840  0.2451 -0.6453
 4485SOL    HW217048   4.455   8.178   4.372  0.3046 -1.0048 -0.3103
 4486SOL     OW17049  10.739   2.904   9.877  0.0472 -0.2764 -0.4454
 4486SOL    HW117050  10.658   2.898   9.926  1.5683 -1.5574  2.1372
 4486SOL    HW217051  10.767   2.995   9.886 -1.5897  0.4868 -2.3679
 4487SOL     OW17052   4.182   5.992   6.808 -0.4095  0.1332  0.3635
 4487SOL    HW117053   4.172   6.005   6.903  1.1131  1.5718  0.3870
 4487SOL    HW217054   4.168   6.079   6.771  1.6873  0.1740 -0.4392
 4488SOL     OW17055   9.836   3.941   7.155  0.1518  0.7508 -0.3536
 4488SOL    HW117056   9.879   3.986   7.082  0.4442  0.6293 -0.2599
 4488SOL    HW217057   9.857   3.848   7.141 -1.0378  0.5567 -0.9373
 4489SOL     OW17058   4.555  10.995   9.124 -0.3777 -0.1673  0.4381
 4489SOL    HW117059   4.573  11.089   9.115  1.6936 -0.4230  1.3149
 4489SOL    HW217060   4.462  10.990   9.147 -0.4271  1.6970  0.7959
 4490SOL     OW17061   9.043  10.471   5.133 -0.2566  0.4514  0.2663
 4490SOL    HW117062   9.114  10.415   5.101 -0.9464  0.0377 -0.5875
 4490SOL    HW217063   9.074  10.504   5.217  0.3618 -0.8377  0.5566
 4491SOL     OW17064   7.084   5.722   3.376  0.1277 -0.8494 -0.2831
 4491SOL    HW117065   7.179   5.710   3.379  0.6892  2.6672  1.3854
 4491SOL    HW217066   7.069   5.772   3.295  0.2051  1.1573  0.8736
 4492SOL     OW17067   1.362   3.027   9.546 -0.4516  0.4171 -0.0436
 4492SOL    HW117068   1.269   3.009   9.552 -0.5773  0.3961 -1.6332
 4492SOL    HW217069   1.398   2.994   9.628 -1.5563 -1.4199 -0.2353
 4493SOL     OW17070   3.775   1.758   1.464  0.2683 -0.5925 -0.4007
 4493SOL    HW117071   3.767   1.756   1.559  1.0962  0.7840 -0.2706
 4493SOL    HW217072   3.832   1.684   1.443 -1.8392 -2.3926 -0.1057
 4494SOL     OW17073   4.872   2.349   8.239  0.0261 -0.3276  0.3223
 4494SOL    HW117074   4.858   2.258   8.265  2.0743 -1.3957 -1.8826
 4494SOL    HW217075   4.930   2.385   8.306 -0.0835 -0.9359  0.7503
 4495SOL     OW17076  10.458   6.683   4.363  0.2411  0.2945 -0.7689
 4495SOL    HW117077  10.477   6.701   4.271  1.5366  0.6131 -0.4571
 4495SOL    HW217078  10.451   6.770   4.403  0.6551  0.1599 -0.3929
 4496SOL     OW17079  10.145   2.167  10.358  0.3305 -0.4273 -0.0144
 4496SOL    HW117080  10.051   2.173  10.343  0.0908 -2.8820  0.1045
 4496SOL    HW217081  10.183   2.226  10.293 -1.2769  1.1142  0.3674
 4497SOL     OW17082   7.344  10.040   1.178 -0.1045  0.1237  0.1104
 4497SOL    HW117083   7.329  10.024   1.085 -0.4163 -1.3710  0.3918
 4497SOL    HW217084   7.330  10.134   1.189 -2.3932 -0.0403 -0.9341
 4498SOL     OW17085   7.977   5.038   8.416  0.2518  0.1672 -0.2401
 4498SOL    HW117086   7.999   5.019   8.325 -2.7061 -0.2634 -0.9587
 4498SOL    HW217087   7.970   4.952   8.457 -0.3210  0.2589 -0.1335
 4499SOL     OW17088   7.761   5.091   3.465  0.6637 -0.4651  0.2215
 4499SOL    HW117089   7.758   5.117   3.557 -1.1102  0.8527 -0.1538
 4499SOL    HW217090   7.726   5.002   3.464 -2.4905  0.6582  0.5378
 4500SOL     OW17091   3.017   6.531   7.552 -0.4426 -0.0418  0.3287
 4500SOL    HW117092   3.019   6.459   7.615 -0.1512 -0.7948 -0.5200
 4500SOL    HW217093   3.022   6.610   7.605 -1.9867 -0.5948  1.3765
 4501SOL     OW17094   2.912   1.720   9.075 -0.0203 -0.4003 -0.0951
 4501SOL    HW117095   2.825   1.685   9.096 -0.2673  0.2275 -0.0470
 4501SOL    HW217096   2.946   1.661   9.007 -0.7694 -0.2456 -0.6098
 4502SOL     OW17097   8.556   1.097   5.649  0.1893  0.0210  0.2388
 4502SOL    HW117098   8.516   1.159   5.711 -1.1924  0.3056 -0.8856
 4502SOL    HW217099   8.622   1.149   5.603 -1.1798  0.8121 -0.9208
 4503SOL     OW17100   2.043   9.991   5.347 -0.1423  0.0584  0.3457
 4503SOL    HW117101   2.022  10.008   5.438 -0.4111 -0.2288  0.3362
 4503SOL    HW217102   2.088   9.907   5.348  0.8062  0.5396  0.3386
 4504SOL     OW17103   3.346   8.575   1.107 -0.3289 -0.7386  0.2417
 4504SOL    HW117104   3.423   8.523   1.083 -0.0888  0.1846 -1.0756
 4504SOL    HW217105   3.375   8.631   1.179  0.0625 -0.8069  0.1342
 4505SOL     OW17106   6.596   8.709   7.198  0.2817 -0.1589 -0.6322
 4505SOL    HW117107   6.592   8.699   7.103 -0.3418  2.2598 -0.9300
 4505SOL    HW217108   6.637   8.795   7.211  2.2592 -1.2910  1.3664
 4506SOL     OW17109   3.757   4.400   2.764  0.6181  0.6323 -0.1018
 4506SOL    HW117110   3.831   4.363   2.812  0.9509  1.2879 -0.1005
 4506SOL    HW217111   3.792   4.478   2.721  0.0978  0.5648 -0.6673
 4507SOL     OW17112   2.994   7.963   6.397 -0.6549  0.1355  0.6830
 4507SOL    HW117113   2.933   8.031   6.371 -1.3065 -0.3828  0.8267
 4507SOL    HW217114   2.939   7.887   6.415  0.0656 -0.4691  0.3961
 4508SOL     OW17115   7.046  10.849   3.156 -0.3751 -0.3095 -0.2515
 4508SOL    HW117116   7.011  10.930   3.192  0.1160 -0.1124 -0.2041
 4508SOL    HW217117   7.127  10.834   3.205  0.5182  0.1687 -1.5267
 4509SOL     OW17118   4.072   4.286  10.799  0.7283  0.1048  0.2287
 4509SOL    HW117119   4.066   4.197  10.764  0.7156  1.0527 -2.4181
 4509SOL    HW217120   4.136   4.281  10.869  2.4711 -1.6070 -1.3696
 4510SOL     OW17121  10.277   3.366   0.534 -0.6152 -0.0349 -0.0174
 4510SOL    HW117122  10.343   3.415   0.485 -0.5113 -0.9408 -0.7987
 4510SOL    HW217123  10.294   3.389   0.626 -0.3139  1.0672 -0.3268
 4511SOL     OW17124   9.177   6.690   3.169  0.0884 -0.2304 -0.0019
 4511SOL    HW117125   9.101   6.637   3.146 -1.4314  2.0073 -0.3342
 4511SOL    HW217126   9.233   6.687   3.091 -1.2048  0.7175 -0.9947
 4512SOL     OW17127   3.444   7.520   4.117  0.3028 -0.4795  0.1280
 4512SOL    HW117128   3.387   7.567   4.177 -2.2019 -0.5814 -2.0085
 4512SOL    HW217129   3.523   7.502   4.168 -1.2939  0.2180  3.0469
 4513SOL     OW17130   3.042   7.947   7.118  0.2264  0.3410  0.0966
 4513SOL    HW117131   3.053   7.975   7.027 -0.9542  2.2045  0.4815
 4513SOL    HW217132   3.054   8.027   7.170  0.1497 -0.5395  1.5420
 4514SOL     OW17133   9.213   7.625   6.755  0.4179  0.3547  0.0396
 4514SOL    HW117134   9.191   7.552   6.697 -0.6539  0.5904  0.1184
 4514SOL    HW217135   9.302   7.650   6.731  0.6013 -0.6385 -0.3421
 4515SOL     OW17136   0.897   3.942   4.051 -0.4557 -0.4979 -0.7499
 4515SOL    HW117137   0.963   3.947   3.982  2.1552  0.7512  1.6228
 4515SOL    HW217138   0.859   3.855   4.043 -0.6024 -0.2567 -3.9295
 4516SOL     OW17139  10.056   2.282   4.423 -0.2815  0.1200  0.5311
 4516SOL    HW117140  10.114   2.355   4.443  0.6480 -0.0578 -1.3096
 4516SOL    HW217141   9.968   2.315   4.441  0.2077  1.2959  0.8459
 4517SOL     OW17142   7.393   5.730   5.231  0.0035 -0.3384  0.2027
 4517SOL    HW117143   7.442   5.782   5.296  0.8067 -0.1310 -0.5412
 4517SOL    HW217144   7.456   5.664   5.201 -0.0274  0.1939 -1.0830
 4518SOL     OW17145   7.937   3.739   6.957 -0.3912 -0.1646  0.5016
 4518SOL    HW117146   7.988   3.792   7.019  1.2728  0.4211 -1.2520
 4518SOL    HW217147   7.987   3.659   6.947 -0.0653  0.1776 -0.8185
 4519SOL     OW17148   9.569   4.544  10.404 -0.3446 -0.4732  0.6597
 4519SOL    HW117149   9.641   4.519  10.462  0.8864  1.5060  0.1069
 4519SOL    HW217150   9.528   4.619  10.448  0.4768  0.9307 -0.8247
 4520SOL     OW17151   3.419  10.449   0.730 -0.3838 -0.1012 -0.3797
 4520SOL    HW117152   3.361  10.506   0.679  1.3861  2.1087 -0.0992
 4520SOL    HW217153   3.493  10.432   0.673  0.4656  0.3252  0.5594
 4521SOL     OW17154   5.389   4.898   8.740  0.4739 -0.2576 -0.0147
 4521SOL    HW117155   5.394   4.806   8.712  1.1813 -0.8781  1.9771
 4521SOL    HW217156   5.314   4.901   8.799 -0.8381  0.9567 -1.6460
 4522SOL     OW17157   5.648   0.761   4.328  0.1435  0.6682 -0.1188
 4522SOL    HW117158   5.573   0.749   4.386  0.1390  0.8771 -0.0786
 4522SOL    HW217159   5.707   0.819   4.377  0.4265  0.3340 -0.0641
 4523SOL     OW17160   0.937   7.396   6.074  0.4812 -0.0807  0.1887
 4523SOL    HW117161   0.976   7.470   6.027  1.0222 -0.4099  0.1158
 4523SOL    HW217162   0.883   7.352   6.009 -0.5181  0.7266  0.4432
 4524SOL     OW17163   3.049  10.065   7.038  0.6423  0.0753 -0.0943
 4524SOL    HW117164   2.962  10.082   7.074  0.9806 -0.5612  1.1070
 4524SOL    HW217165   3.064   9.972   7.056  2.1996  0.5291  1.2388
 4525SOL     OW17166   2.068   5.692   2.161 -0.1823  0.4386 -0.3295
 4525SOL    HW117167   2.049   5.724   2.073 -0.8511  1.1375  0.0614
 4525SOL    HW217168   2.152   5.731   2.184 -1.0769  2.0966  0.2184
 4526SOL     OW17169   7.612   0.976   3.161  0.1472  0.4327 -0.4928
 4526SOL    HW117170   7.588   0.891   3.124 -1.7970  0.5864  0.2708
 4526SOL    HW217171   7.688   1.004   3.110 -0.6840 -0.6294 -2.4443
 4527SOL     OW17172  10.433   8.859   0.845 -0.0748 -0.2218  0.0216
 4527SOL    HW117173  10.429   8.775   0.801 -1.3955  0.2760 -0.8619
 4527SOL    HW217174  10.487   8.843   0.923  0.1496 -1.7295 -0.4158
 4528SOL     OW17175   3.361   8.740   1.951 -0.3170  0.3066  0.0805
 4528SOL    HW117176   3.420   8.665   1.941  1.1268  1.1603  1.5929
 4528SOL    HW217177   3.368   8.763   2.044 -1.2011  1.9356 -0.2245
 4529SOL     OW17178   9.292  10.817   7.469 -0.2077 -0.4021 -0.4357
 4529SOL    HW117179   9.315  10.747   7.407  2.2991  0.0370 -0.0851
 4529SOL    HW217180   9.302  10.777   7.555  2.6497  0.6607 -0.1776
 4530SOL     OW17181   3.118   0.524  10.700 -0.0411 -0.9023 -0.3018
 4530SOL    HW117182   3.129   0.551  10.609  0.2646  1.8863  0.4871
 4530SOL    HW217183   3.206   0.527  10.737 -0.3541 -0.5987  0.4391
 4531SOL     OW17184   3.369   7.045  10.986 -0.6181  0.1776 -0.0826
 4531SOL    HW117185   3.291   6.988  10.990 -0.4559  0.0230  1.2474
 4531SOL    HW217186   3.338   7.129  11.018 -0.1219 -0.0321  0.9695
 4532SOL     OW17187   3.589   8.501   4.032 -0.1288  0.6772 -0.7286
 4532SOL    HW117188   3.531   8.543   3.969  0.2372  0.6120 -1.1172
 4532SOL    HW217189   3.569   8.544   4.116 -0.2087  1.1791 -0.9982
 4533SOL     OW17190   5.475   0.601   2.994  0.2821 -0.4205 -0.3336
 4533SOL    HW117191   5.492   0.603   3.088  0.0013 -0.4723 -0.2821
 4533SOL    HW217192   5.448   0.511   2.977  2.6584 -1.1096 -0.8689
 4534SOL     OW17193   2.885   3.417   5.189 -0.5617 -0.1800 -0.2044
 4534SOL    HW117194   2.818   3.349   5.184 -0.4085 -0.4779  1.3403
 4534SOL    HW217195   2.968   3.369   5.179 -0.3886 -0.4390  2.0166
 4535SOL     OW17196   2.618   2.573   2.565 -0.5104  0.1586  0.4072
 4535SOL    HW117197   2.543   2.518   2.587  0.2884 -0.8086  0.7770
 4535SOL    HW217198   2.672   2.572   2.644 -0.4024  1.3563  0.3588
 4536SOL     OW17199   9.896   1.546   5.341 -0.1700  0.3498  0.0929
 4536SOL    HW117200   9.842   1.536   5.263 -0.5196 -1.0445  0.4906
 4536SOL    HW217201   9.876   1.469   5.395  1.3778  0.3779  0.7624
 4537SOL     OW17202   5.606   4.678   4.541 -0.0199 -0.1904  0.2140
 4537SOL    HW117203   5.545   4.619   4.585 -1.2059  0.3816 -0.5865
 4537SOL    HW217204   5.665   4.620   4.493  1.8777 -0.8710  3.1151
 4538SOL     OW17205  10.628   4.530   7.799 -0.3985  0.0086 -0.4760
 4538SOL    HW117206  10.625   4.588   7.722  0.7542  1.2443  0.3574
 4538SOL    HW217207  10.712   4.486   7.793 -0.7206 -0.6160 -0.4266
 4539SOL     OW17208   7.035  10.969   7.774 -0.2942  0.2606 -0.4884
 4539SOL    HW117209   6.984  10.922   7.840  0.5647 -0.4608 -0.3232
 4539SOL    HW217210   6.995  10.944   7.691  0.0975 -0.7201 -0.3990
 4540SOL     OW17211   5.589   2.570   4.570  0.5493  0.2533  0.2460
 4540SOL    HW117212   5.593   2.527   4.656 -0.6373  1.5110  0.9693
 4540SOL    HW217213   5.680   2.587   4.548  0.8319  0.8379  1.7575
 4541SOL     OW17214  10.881   3.057   2.916  0.3164 -0.0849 -0.0733
 4541SOL    HW117215  10.819   3.008   2.970  1.4338  0.5089  1.8429
 4541SOL    HW217216  10.894   3.002   2.838 -2.2141 -0.4218 -0.3278
 4542SOL     OW17217   8.000   0.714   0.592 -1.0682 -0.4703  0.2709
 4542SOL    HW117218   7.934   0.647   0.610 -0.4809 -0.8265  1.1987
 4542SOL    HW217219   8.061   0.707   0.666 -0.0381 -0.1035 -0.5220
 4543SOL     OW17220   3.316   6.413   9.428  0.5016  0.4665  0.4947
 4543SOL    HW117221   3.340   6.332   9.383 -1.9102  0.5741 -1.1857
 4543SOL    HW217222   3.220   6.411   9.431  0.3688  3.2324  0.4140
 4544SOL     OW17223   5.657   5.347   2.265 -0.4849 -0.7532 -0.0257
 4544SOL    HW117224   5.639   5.266   2.314 -0.9608  0.1843  1.4067
 4544SOL    HW217225   5.584   5.355   2.205 -0.5868 -1.2286  0.0283
 4545SOL     OW17226   5.713   0.453   9.830 -0.3853 -0.2532 -0.3720
 4545SOL    HW117227   5.711   0.419   9.740  0.0886  1.3994 -1.0560
 4545SOL    HW217228   5.644   0.405   9.875 -0.0892 -1.7120 -1.3817
 4546SOL     OW17229   6.844   8.042   4.533 -0.0809 -0.5352  0.0354
 4546SOL    HW117230   6.926   8.014   4.573  0.1123 -0.4720 -0.3163
 4546SOL    HW217231   6.864   8.053   4.440  0.8003  4.0744  0.5071
 4547SOL     OW17232   5.602  10.094   6.901 -0.2947 -0.4216 -0.0040
 4547SOL    HW117233   5.568  10.182   6.915 -0.3158 -0.4479  0.1065
 4547SOL    HW217234   5.622  10.061   6.988 -0.0763 -0.4432 -0.0614
 4548SOL     OW17235   2.799   5.776   7.143  0.0764 -0.5986 -0.0343
 4548SOL    HW117236   2.822   5.869   7.149  1.3442 -0.9510  1.4877
 4548SOL    HW217237   2.709   5.771   7.174  0.7343 -0.0802  2.1677
 4549SOL     OW17238   4.978   1.767   8.871 -0.4200 -0.6693 -0.5761
 4549SOL    HW117239   4.887   1.792   8.887  0.1459 -0.1501  2.4163
 4549SOL    HW217240   5.026   1.850   8.874  0.2899 -1.0501 -1.1123
 4550SOL     OW17241   7.727   4.056   2.439 -0.4233 -0.1428  0.0516
 4550SOL    HW117242   7.723   4.053   2.535 -2.8729 -1.0503 -0.0188
 4550SOL    HW217243   7.678   4.134   2.415 -1.9110 -1.1981 -0.4919
 4551SOL     OW17244   7.841   8.021   9.105  0.5198  0.1373 -0.0252
 4551SOL    HW117245   7.924   7.984   9.133  0.8553  0.9700  0.1114
 4551SOL    HW217246   7.855   8.047   9.014  0.1792 -0.3776 -0.2291
 4552SOL     OW17247   4.824   8.928  10.729 -0.6537  0.0888 -0.1157
 4552SOL    HW117248   4.799   8.997  10.668  0.3395  1.7030  1.2112
 4552SOL    HW217249   4.761   8.935  10.801  0.3863  0.7016  0.7678
 4553SOL     OW17250   6.128   3.779   0.925 -0.1311  0.0960 -0.5125
 4553SOL    HW117251   6.156   3.796   0.835  0.2267 -1.3749 -0.6951
 4553SOL    HW217252   6.204   3.803   0.978  1.1393 -2.6557 -0.9164
 4554SOL     OW17253  10.996   4.736   7.160 -0.5580 -0.2561 -0.3624
 4554SOL    HW117254  11.045   4.812   7.129  0.1956  0.1989  1.8105
 4554SOL    HW217255  10.906   4.768   7.170 -0.3135  0.2662  0.2226
 4555SOL     OW17256   2.740   0.892   1.962 -0.2223  0.2588  0.1031
 4555SOL    HW117257   2.722   0.907   1.869  0.7660 -0.2534 -0.1867
 4555SOL    HW217258   2.732   0.797   1.972  1.4713  0.0961  0.1201
 4556SOL     OW17259   6.634   0.668   7.001  0.1388 -0.0784  0.3588
 4556SOL    HW117260   6.558   0.706   7.045 -1.3942 -2.1212 -0.4047
 4556SOL    HW217261   6.602   0.643   6.915  2.1113  0.3867 -0.5579
 4557SOL     OW17262   2.780   1.170   3.535  0.4236 -0.2219 -0.1500
 4557SOL    HW117263   2.715   1.108   3.565  0.8647 -0.1124  1.0902
 4557SOL    HW217264   2.864   1.125   3.548  0.7121  0.4208  0.2758
 4558SOL     OW17265   0.062   9.628   0.352  0.6068 -0.4091 -0.6744
 4558SOL    HW117266   0.141   9.648   0.302  0.1340  2.3192 -0.5072
 4558SOL    HW217267  -0.009   9.669   0.302 -0.6448 -2.2444 -0.4895
 4559SOL     OW17268   3.347   7.545   9.139 -0.2742  0.3325 -0.4333
 4559SOL    HW117269   3.350   7.552   9.044 -1.5512 -0.5683 -0.5713
 4559SOL    HW217270   3.390   7.625   9.171 -0.1516  0.8188 -1.7596
 4560SOL     OW17271   2.596   8.853   7.308 -0.1316  0.4134  0.0852
 4560SOL    HW117272   2.535   8.860   7.382 -0.7289 -0.3354 -0.3274
 4560SOL    HW217273   2.625   8.762   7.310  2.2132  1.1014  1.2196
 4561SOL     OW17274   3.663   7.203   0.935  0.5020  0.2198 -0.1283
 4561SOL    HW117275   3.658   7.130   0.874  0.0874  0.6614 -0.6401
 4561SOL    HW217276   3.745   7.190   0.982  0.4080 -0.5961 -0.1734
 4562SOL     OW17277   9.087  10.798   8.426  0.2544 -0.1069 -0.4465
 4562SOL    HW117278   9.038  10.843   8.494  0.8553  1.7451 -1.1713
 4562SOL    HW217279   9.114  10.715   8.467 -0.2676  0.4905  1.2017
 4563SOL     OW17280   8.659   0.761   9.217 -0.0616  0.4605  0.4733
 4563SOL    HW117281   8.697   0.841   9.180  0.7857  0.8859  2.1395
 4563SOL    HW217282   8.718   0.691   9.189 -0.5813  0.4623 -0.6574
 4564SOL     OW17283   5.273   3.635   7.466  0.0226 -0.0712 -0.1172
 4564SOL    HW117284   5.301   3.549   7.496 -1.0844 -0.3966  0.0555
 4564SOL    HW217285   5.314   3.645   7.380 -0.8480 -1.3370 -0.7150
 4565SOL     OW17286   5.429   6.640   3.414 -0.2376  0.7747  0.2736
 4565SOL    HW117287   5.484   6.570   3.379 -0.4017  0.4300  0.6942
 4565SOL    HW217288   5.397   6.605   3.497 -1.4452  0.8047 -0.1685
 4566SOL     OW17289   4.233   1.384   4.461 -0.1152 -0.1544 -0.1330
 4566SOL    HW117290   4.320   1.373   4.424  0.2566 -1.9199  1.1714
 4566SOL    HW217291   4.181   1.421   4.389  1.5631  0.4678 -1.0737
 4567SOL     OW17292   7.201   8.373   3.447  0.4508  1.0759 -0.3381
 4567SOL    HW117293   7.150   8.302   3.409  0.2620  1.0786 -0.0987
 4567SOL    HW217294   7.217   8.345   3.538  1.8769  0.5357 -0.7247
 4568SOL     OW17295   5.180   1.311  10.677 -0.1439  0.1852  0.5584
 4568SOL    HW117296   5.134   1.227  10.682 -2.8930  1.6270  1.3686
 4568SOL    HW217297   5.143   1.363  10.748 -0.4191  2.9538 -1.4700
 4569SOL     OW17298   0.004   4.728  10.523 -0.3102 -0.5783 -0.3978
 4569SOL    HW117299   0.010   4.801  10.461  0.9334  0.7714  1.2007
 4569SOL    HW217300  -0.013   4.770  10.607 -0.6725 -2.2450  0.4028
 4570SOL     OW17301   9.429   6.352   8.660  0.5645  0.1821  0.4535
 4570SOL    HW117302   9.455   6.415   8.594  0.9233  0.0935  0.5121
 4570SOL    HW217303   9.364   6.399   8.713 -1.0101 -0.2751 -0.9638
 4571SOL     OW17304   5.735   0.109   1.159 -0.4156 -0.4041 -0.4894
 4571SOL    HW117305   5.676   0.178   1.192  0.1818 -0.2587  0.3007
 4571SOL    HW217306   5.696   0.028   1.189 -0.1148 -0.2957  0.2132
 4572SOL     OW17307   8.877   2.647   6.359 -0.3935 -0.1363  0.1534
 4572SOL    HW117308   8.897   2.737   6.333 -0.8562  0.1220  0.6666
 4572SOL    HW217309   8.823   2.656   6.437  1.3357 -0.9081  1.5095
 4573SOL     OW17310   0.716  10.576   5.926 -0.0230 -0.0464 -0.0658
 4573SOL    HW117311   0.802  10.534   5.928  0.4580  0.9144  0.5472
 4573SOL    HW217312   0.681  10.564   6.014 -0.2064  0.1889 -0.1054
 4574SOL     OW17313   9.176   4.643   1.474  0.2804 -0.2170  0.6238
 4574SOL    HW117314   9.242   4.635   1.406  1.1021 -1.3281  1.5138
 4574SOL    HW217315   9.101   4.593   1.441  1.6359 -3.1537  1.6018
 4575SOL     OW17316   6.082   9.161   8.306  0.0339  0.3678 -0.2487
 4575SOL    HW117317   6.137   9.218   8.359 -0.0646  0.5257 -0.3164
 4575SOL    HW217318   6.001   9.154   8.356  0.6422 -1.0733  0.5920
 4576SOL     OW17319   1.024  10.915   5.172  0.0716 -0.1560 -0.3969
 4576SOL    HW117320   0.952  10.947   5.117 -0.0992 -0.2268 -0.2164
 4576SOL    HW217321   0.984  10.848   5.227  0.0824  0.4064  0.3114
 4577SOL     OW17322   9.200   1.648   8.547  0.3305  0.0323  0.0733
 4577SOL    HW117323   9.136   1.713   8.519  2.0364  1.4962 -0.6093
 4577SOL    HW217324   9.232   1.680   8.631 -0.5396 -1.2566  0.9365
 4578SOL     OW17325   6.068   7.220   9.332 -0.1536 -0.0427  0.2444
 4578SOL    HW117326   6.011   7.212   9.255 -1.0982  0.8127  0.8287
 4578SOL    HW217327   6.139   7.277   9.302 -0.4359  0.1682 -0.0382
 4579SOL     OW17328   3.966  10.885   2.272 -0.3700 -0.2784 -0.2282
 4579SOL    HW117329   4.045  10.938   2.264 -1.2495  0.9856 -0.9674
 4579SOL    HW217330   3.957  10.841   2.187 -0.5447 -0.2691 -0.2164
 4580SOL     OW17331   7.309   4.219   7.702 -0.1655  0.1400  0.3938
 4580SOL    HW117332   7.311   4.203   7.608 -0.3854 -0.3924  0.4711
 4580SOL    HW217333   7.393   4.188   7.734  0.1716  0.9357  0.2851
 4581SOL     OW17334   2.647   2.869  10.991  0.4119 -0.0157 -0.3124
 4581SOL    HW117335   2.588   2.832  10.924  0.0595  0.2198 -0.1328
 4581SOL    HW217336   2.683   2.948  10.951 -1.1450  1.1065  0.4045
 4582SOL     OW17337  10.173   3.097   1.165  0.1276  0.5593 -0.0243
 4582SOL    HW117338  10.131   3.061   1.244  1.5155  1.3114  1.1028
 4582SOL    HW217339  10.241   3.155   1.199  0.7362  0.9301 -1.8025
 4583SOL     OW17340   5.155   6.053   9.081  0.1746  0.0791 -0.2984
 4583SOL    HW117341   5.220   6.122   9.068 -0.2529  0.1738 -2.0559
 4583SOL    HW217342   5.204   5.971   9.068 -0.2042  0.1620 -2.7192
 4584SOL     OW17343   7.758   6.474   1.179 -0.1205  0.0834 -0.2477
 4584SOL    HW117344   7.793   6.509   1.261  0.1554 -0.3537 -0.1795
 4584SOL    HW217345   7.739   6.383   1.198  0.5909 -0.1997 -0.8668
 4585SOL     OW17346   2.881   1.969   6.517  0.3028  0.2178  0.6439
 4585SOL    HW117347   2.925   1.952   6.600 -2.4668 -1.0410  1.9836
 4585SOL    HW217348   2.859   1.882   6.483 -1.2756  0.7445  0.1971
 4586SOL     OW17349   4.308   1.270   0.869  0.0801  0.0258 -0.0784
 4586SOL    HW117350   4.376   1.325   0.908  0.4353 -1.6138  1.7327
 4586SOL    HW217351   4.341   1.249   0.782  0.9501  0.8896  0.0267
 4587SOL     OW17352  10.172   3.768   9.133 -0.4448  0.8173 -0.1660
 4587SOL    HW117353  10.264   3.763   9.159 -0.3217  2.5976 -0.1591
 4587SOL    HW217354  10.152   3.681   9.098  0.8381 -0.0167  1.0922
 4588SOL     OW17355   4.150   8.626  10.744 -0.0944 -0.1653 -0.1993
 4588SOL    HW117356   4.103   8.546  10.766 -0.0175 -0.1635 -0.0264
 4588SOL    HW217357   4.218   8.599  10.683 -1.1512  0.0320 -1.4970
 4589SOL     OW17358   2.415   8.556   7.864  0.5516 -0.3134  0.1209
 4589SOL    HW117359   2.419   8.523   7.954 -1.2245 -0.6485  0.1117
 4589SOL    HW217360   2.458   8.487   7.812  2.5516  0.3690  0.7870
 4590SOL     OW17361   6.128   0.419   4.344  0.1388  0.2839  0.2376
 4590SOL    HW117362   6.170   0.505   4.344 -0.8621  0.7975 -0.4375
 4590SOL    HW217363   6.036   0.437   4.324  0.1619 -1.0493 -1.3340
 4591SOL     OW17364   2.552   7.438   2.502 -0.4637 -0.2717 -0.1107
 4591SOL    HW117365   2.515   7.504   2.443 -0.2530 -0.2362 -0.2019
 4591SOL    HW217366   2.643   7.428   2.474 -1.3090 -3.0593 -2.3443
 4592SOL     OW17367   8.989   1.703   1.334 -0.8362 -0.8842 -0.4284
 4592SOL    HW117368   8.904   1.667   1.309 -0.7589 -1.4380  0.0687
 4592SOL    HW217369   8.971   1.748   1.417 -0.2250 -2.9955  0.9325
 4593SOL     OW17370   2.030   4.379   4.103  0.7031  0.0765 -0.2390
 4593SOL    HW117371   1.943   4.388   4.141  0.8275  1.9985 -0.3159
 4593SOL    HW217372   2.022   4.417   4.015  1.4313 -0.5020 -0.5717
 4594SOL     OW17373   0.979   6.544  10.401  0.0367  0.5753  0.5219
 4594SOL    HW117374   1.026   6.499  10.331 -3.0905 -1.0112 -0.7203
 4594SOL    HW217375   0.999   6.637  10.386  0.4127  0.1878 -1.7471
 4595SOL     OW17376   8.638   1.897   0.950 -0.0699 -0.0456  0.7662
 4595SOL    HW117377   8.677   1.971   0.904 -1.2600  0.0367 -0.1503
 4595SOL    HW217378   8.636   1.924   1.042 -0.2852  0.9741  0.4705
 4596SOL     OW17379   1.527   9.655  10.310  0.3571  0.2224  0.2456
 4596SOL    HW117380   1.448   9.651  10.256 -0.3000 -0.4803  1.2279
 4596SOL    HW217381   1.509   9.597  10.384  2.6161 -1.6419 -0.5724
 4597SOL     OW17382   7.345   9.819  10.652  0.5487 -0.1670 -0.2256
 4597SOL    HW117383   7.252   9.842  10.648  0.0603 -2.0024 -0.0701
 4597SOL    HW217384   7.379   9.867  10.728  0.1019  1.6736 -1.1413
 4598SOL     OW17385   1.869   2.160   8.878 -0.4037 -0.0063 -0.7467
 4598SOL    HW117386   1.851   2.093   8.945 -0.3006  2.3052  1.7535
 4598SOL    HW217387   1.965   2.167   8.878 -0.4808  1.8523  0.9320
 4599SOL     OW17388   9.536   7.175   9.355 -0.2514 -0.3241 -0.2856
 4599SOL    HW117389   9.453   7.144   9.392 -0.0069 -0.5237  0.0975
 4599SOL    HW217390   9.510   7.230   9.281 -0.7005 -0.9190 -0.5689
 4600SOL     OW17391   6.277   0.553   3.523  0.0535  0.1919 -0.1420
 4600SOL    HW117392   6.285   0.600   3.606  1.1251 -0.6426  0.2600
 4600SOL    HW217393   6.184   0.535   3.514 -0.2329  1.3906  0.2433
 4601SOL     OW17394  10.893   0.699   8.852 -0.3207 -0.1066  0.5247
 4601SOL    HW117395  10.971   0.693   8.797 -1.1271 -1.3815 -0.5455
 4601SOL    HW217396  10.859   0.609   8.857 -1.2752  0.2784  1.6391
 4602SOL     OW17397   6.179   8.552   9.838 -0.5812 -0.7822 -0.1110
 4602SOL    HW117398   6.115   8.559   9.908  0.0038 -0.1764  0.3894
 4602SOL    HW217399   6.252   8.608   9.868 -0.2393 -0.6855 -1.1006
 4603SOL     OW17400   7.821   1.844   6.833  0.2205 -0.0394 -0.0207
 4603SOL    HW117401   7.732   1.827   6.864  0.6163 -0.5529  0.8719
 4603SOL    HW217402   7.821   1.937   6.810 -1.0084 -0.4167 -1.6581
 4604SOL     OW17403   1.481   6.166   1.102  0.8015  0.1491 -0.0766
 4604SOL    HW117404   1.385   6.163   1.098  0.7715  0.2315  0.4856
 4604SOL    HW217405   1.500   6.200   1.190  1.3630 -0.9821  0.2563
 4605SOL     OW17406   6.402   6.561   2.333 -0.1356  0.8187 -0.0480
 4605SOL    HW117407   6.315   6.584   2.366 -0.5831  0.5575 -1.0368
 4605SOL    HW217408   6.387   6.493   2.268  0.7010  1.5837 -1.0667
 4606SOL     OW17409   1.229   1.928   7.544 -0.3518  0.2210 -0.0466
 4606SOL    HW117410   1.170   1.947   7.617 -0.7256 -1.1799  0.0447
 4606SOL    HW217411   1.312   1.905   7.585  0.0150  1.2991 -0.1473
 4607SOL     OW17412   1.167   9.216   8.628  0.1098  0.5596 -0.2992
 4607SOL    HW117413   1.183   9.235   8.721 -0.3696 -0.0832 -0.0764
 4607SOL    HW217414   1.139   9.299   8.591 -0.5170  0.6313  0.3210
 4608SOL     OW17415  10.807  10.370   5.864 -0.1135  0.1670  0.8656
 4608SOL    HW117416  10.892  10.396   5.897 -0.6862  1.5693  1.3240
 4608SOL    HW217417  10.798  10.278   5.888  0.0162  0.7900  3.5205
 4609SOL     OW17418   3.552   0.375   2.208 -1.2041  0.2272 -0.4530
 4609SOL    HW117419   3.501   0.333   2.278 -0.1413 -0.0887  0.1566
 4609SOL    HW217420   3.505   0.353   2.128 -1.8790 -0.2836  0.0674
 4610SOL     OW17421   7.699   2.783   4.657  0.0433  0.0368  0.6118
 4610SOL    HW117422   7.646   2.863   4.658  0.9482  0.6660 -0.1487
 4610SOL    HW217423   7.785   2.812   4.629  0.0105 -1.4451 -1.2056
 4611SOL     OW17424   1.035   8.722   5.455 -0.1858  0.2557 -0.4087
 4611SOL    HW117425   1.011   8.794   5.513  0.3501  0.4921 -0.4695
 4611SOL    HW217426   0.981   8.649   5.483  0.1604  0.3315  0.4854
 4612SOL     OW17427   2.477   6.122   1.169 -0.0278  0.4177 -0.0214
 4612SOL    HW117428   2.524   6.175   1.235 -0.4345 -0.9124  1.3958
 4612SOL    HW217429   2.530   6.043   1.161  1.0192  1.2964 -2.7398
 4613SOL     OW17430   7.763   8.840   3.881 -0.1803  0.0294 -0.0617
 4613SOL    HW117431   7.740   8.932   3.898 -0.4482  0.2730 -1.5299
 4613SOL    HW217432   7.837   8.822   3.939 -0.6555  0.9107  0.8520
 4614SOL     OW17433   8.732   6.345   9.475 -0.2179 -0.1847  0.7284
 4614SOL    HW117434   8.684   6.359   9.556 -1.3119  0.1826  0.0353
 4614SOL    HW217435   8.678   6.284   9.425 -0.5111  1.0365 -0.4994
 4615SOL     OW17436   6.744   3.547   4.386 -0.1507 -0.2576 -0.2198
 4615SOL    HW117437   6.839   3.542   4.380 -0.1234 -0.4491  0.3357
 4615SOL    HW217438   6.714   3.464   4.350 -0.1199 -0.0871 -0.6422
 4616SOL     OW17439   5.574   1.643   8.418  0.1112  0.5317 -0.5505
 4616SOL    HW117440   5.667   1.667   8.420 -0.0301  1.7519 -3.4017
 4616SOL    HW217441   5.573   1.551   8.446  2.1984  0.4610 -0.5245
 4617SOL     OW17442   9.636   2.870   5.309  0.5368  0.3903 -0.2706
 4617SOL    HW117443   9.626   2.780   5.342  0.1776  0.3917 -0.3763
 4617SOL    HW217444   9.554   2.913   5.331 -0.1719  0.0718 -2.1696
 4618SOL     OW17445  10.564   2.571   2.722 -0.0967 -0.0460  0.0219
 4618SOL    HW117446  10.518   2.632   2.781  1.8562  1.8469 -0.2795
 4618SOL    HW217447  10.596   2.501   2.778 -1.8463 -0.5243  0.4866
 4619SOL     OW17448   4.256   4.521   7.524 -0.3406 -0.0865 -0.5217
 4619SOL    HW117449   4.275   4.581   7.596  3.6467 -0.9705 -0.6454
 4619SOL    HW217450   4.248   4.435   7.565 -0.1108 -0.3022 -0.9244
 4620SOL     OW17451   9.015   4.825   9.591  0.1676  0.1954  0.6728
 4620SOL    HW117452   8.941   4.782   9.547  1.5875  0.1012 -1.8597
 4620SOL    HW217453   9.004   4.918   9.570  1.8717 -0.0509 -1.7337
 4621SOL     OW17454   9.433   3.248   3.616 -0.1580  0.1929  0.3755
 4621SOL    HW117455   9.449   3.280   3.527  0.0048  1.1674  0.7481
 4621SOL    HW217456   9.398   3.160   3.603  0.0012  0.2634 -0.6490
 4622SOL     OW17457   7.283   1.279   2.189  0.2756 -0.3933  0.6241
 4622SOL    HW117458   7.342   1.204   2.183  0.5660 -0.1241  0.0750
 4622SOL    HW217459   7.252   1.277   2.280  0.8851 -0.7212  0.8323
 4623SOL     OW17460  10.283   4.163   6.599 -0.4996 -0.6173  0.2273
 4623SOL    HW117461  10.194   4.184   6.569 -0.2864 -1.4613 -1.0429
 4623SOL    HW217462  10.330   4.246   6.593 -1.2812 -0.0629  1.2962
 4624SOL     OW17463   5.501   4.009   9.099  0.0441 -0.0261  0.6754
 4624SOL    HW117464   5.415   4.041   9.073  0.1237  1.2033  1.8485
 4624SOL    HW217465   5.516   4.047   9.185  1.5109 -0.7210  0.7547
 4625SOL     OW17466   0.873   9.551   7.785  0.0549  0.0139  0.4119
 4625SOL    HW117467   0.966   9.531   7.796  0.5540  1.7462 -0.2337
 4625SOL    HW217468   0.853   9.613   7.856 -0.3108  0.5169 -0.1234
 4626SOL     OW17469   3.898   6.046   8.976  0.6850  0.3063  0.0956
 4626SOL    HW117470   3.883   6.097   9.056 -1.5777 -1.3678  0.8317
 4626SOL    HW217471   3.963   5.980   9.001  0.0636 -0.1445  0.5487
 4627SOL     OW17472  10.301   0.683   2.657  0.1598 -0.1103  0.4150
 4627SOL    HW117473  10.237   0.754   2.666  1.1223  0.5231  3.3436
 4627SOL    HW217474  10.287   0.628   2.734  1.7929 -1.1079  0.0478
 4628SOL     OW17475   7.316   4.732   2.082 -0.3701 -0.0670 -0.1912
 4628SOL    HW117476   7.297   4.825   2.091  1.3145  0.3476 -0.6245
 4628SOL    HW217477   7.375   4.712   2.154 -0.1713 -0.6312 -0.4998
 4629SOL     OW17478   3.147   9.215   5.626 -0.5027 -0.8195  0.0478
 4629SOL    HW117479   3.202   9.169   5.563 -1.9975 -0.9533 -1.2265
 4629SOL    HW217480   3.139   9.154   5.700  0.7567 -0.9228  0.1197
 4630SOL     OW17481   3.009   5.769   5.963  0.0214  0.0051 -0.4972
 4630SOL    HW117482   3.032   5.680   5.936  0.0619 -0.2251  0.2789
 4630SOL    HW217483   2.920   5.761   5.999  0.4031  0.0836  0.4877
 4631SOL     OW17484  10.508   9.476   7.687  0.0086  0.4349 -0.4212
 4631SOL    HW117485  10.492   9.385   7.662 -2.2976  0.6609  0.0601
 4631SOL    HW217486  10.547   9.471   7.774 -1.0602 -0.0952  0.0424
 4632SOL     OW17487  10.321   2.283   9.033 -0.1717  0.2975 -0.1213
 4632SOL    HW117488  10.264   2.316   8.963  1.9327  3.5084 -0.5464
 4632SOL    HW217489  10.407   2.276   8.993  0.3595 -1.6284  1.2188
 4633SOL     OW17490   6.316  10.411  10.054  0.5376  0.2081 -0.8643
 4633SOL    HW117491   6.372  10.445   9.984 -1.1942  0.1563 -2.3359
 4633SOL    HW217492   6.227  10.422  10.021 -0.3753  0.7003  1.5949
 4634SOL     OW17493   3.966   2.585   7.985  0.2610  0.5994  0.4890
 4634SOL    HW117494   3.896   2.536   8.027 -0.1601  0.5460 -0.2785
 4634SOL    HW217495   4.044   2.562   8.036  0.4016 -2.1355 -0.7955
 4635SOL     OW17496   2.537   6.120  10.571  0.7476  0.1938 -0.8304
 4635SOL    HW117497   2.512   6.212  10.579 -0.4763 -0.0265 -1.8281
 4635SOL    HW217498   2.523   6.100  10.478 -0.9919 -1.5237 -0.2558
 4636SOL     OW17499   7.017   3.124   1.637 -0.4513  0.3359  0.1848
 4636SOL    HW117500   7.100   3.099   1.598  1.0040  2.8594  1.3854
 4636SOL    HW217501   6.969   3.169   1.567 -1.1464 -1.6443 -0.6790
 4637SOL     OW17502   4.486   3.424   6.599  0.1266  0.1502  1.0969
 4637SOL    HW117503   4.563   3.392   6.553  0.4094 -0.5276  2.0163
 4637SOL    HW217504   4.502   3.403   6.691 -1.2371 -0.1940  1.2837
 4638SOL     OW17505   8.151  10.074   3.011  0.0528 -0.2665 -0.0185
 4638SOL    HW117506   8.090  10.108   3.076 -1.1335  1.2868 -1.8142
 4638SOL    HW217507   8.100  10.070   2.930  1.5879 -1.6555 -0.9937
 4639SOL     OW17508   4.978   1.736   2.324 -0.3582  0.2782  0.1123
 4639SOL    HW117509   4.981   1.641   2.334  3.1998  0.2552  0.1503
 4639SOL    HW217510   4.919   1.751   2.251  0.0084 -2.0768 -0.7594
 4640SOL     OW17511   9.208   0.601  10.521  0.0288  0.5939  0.1184
 4640SOL    HW117512   9.185   0.550  10.443  0.7595 -0.5700  0.6391
 4640SOL    HW217513   9.124   0.631  10.555 -0.3627  0.3870 -0.6387
 4641SOL     OW17514   9.939   6.389   3.247  0.0247 -0.0163  0.3123
 4641SOL    HW117515   9.962   6.382   3.340  0.1528 -0.6788  0.2367
 4641SOL    HW217516  10.007   6.445   3.210 -0.4264  0.8433  0.7498
 4642SOL     OW17517   5.729   2.729  10.522 -0.2056  0.0912  0.5786
 4642SOL    HW117518   5.731   2.651  10.467  0.3978  0.1956  0.4474
 4642SOL    HW217519   5.750   2.801  10.462  1.2560  0.1186  1.0950
 4643SOL     OW17520   6.537  11.098   6.840  0.0228 -0.2317  0.3328
 4643SOL    HW117521   6.532  11.193   6.831 -1.6799 -0.1848  1.3047
 4643SOL    HW217522   6.495  11.080   6.924  0.2505 -1.8591  0.1326
 4644SOL     OW17523   7.225   0.761   1.243  0.3579 -0.0065  0.3506
 4644SOL    HW117524   7.164   0.809   1.189  0.5533 -0.6418 -0.4559
 4644SOL    HW217525   7.219   0.802   1.329 -1.7571 -0.5339  0.5082
 4645SOL     OW17526   6.292   4.011   9.102 -0.1855 -0.2949  0.0088
 4645SOL    HW117527   6.207   4.034   9.140 -0.2587 -0.0379 -0.3048
 4645SOL    HW217528   6.281   3.921   9.071 -0.7655  0.1603 -1.1957
 4646SOL     OW17529   9.532   6.067   0.590 -0.3218 -0.2389 -0.5498
 4646SOL    HW117530   9.600   6.126   0.556 -1.5304  2.1746  0.9332
 4646SOL    HW217531   9.576   5.982   0.597  1.9237  0.7403 -1.5533
 4647SOL     OW17532   9.065   4.881   3.759 -0.4007  0.6955 -0.4069
 4647SOL    HW117533   9.004   4.893   3.686 -0.3377 -0.1968 -0.6099
 4647SOL    HW217534   9.135   4.827   3.723  0.2510  1.2608 -0.0186
 4648SOL     OW17535   6.433   1.039   3.643  0.4144 -0.9764  0.1919
 4648SOL    HW117536   6.454   0.948   3.625 -0.0251 -1.1546  0.5571
 4648SOL    HW217537   6.511   1.088   3.617  0.8961 -1.5161  0.6037
 4649SOL     OW17538   9.429   8.859   7.553  0.6078 -0.0907 -0.3881
 4649SOL    HW117539   9.398   8.803   7.482  1.7276 -0.3724 -0.6850
 4649SOL    HW217540   9.486   8.802   7.605 -0.7379 -0.0816  1.1537
 4650SOL     OW17541   8.356   9.785   1.309 -0.2226  0.3311 -0.2012
 4650SOL    HW117542   8.352   9.839   1.230  1.5082  0.8606  0.0393
 4650SOL    HW217543   8.266   9.786   1.343 -0.3988  2.4782 -0.5900
 4651SOL     OW17544   1.005   8.167   2.822 -0.5397 -0.0155 -0.0620
 4651SOL    HW117545   1.006   8.188   2.916 -2.2302 -0.4300  0.0736
 4651SOL    HW217546   1.084   8.209   2.787 -0.5986  1.2793  1.2958
 4652SOL     OW17547   1.866   6.693   1.067  0.0614  0.2216  0.8169
 4652SOL    HW117548   1.952   6.694   1.026  0.8924 -1.3124  2.4118
 4652SOL    HW217549   1.852   6.784   1.094  0.9899  0.5708  0.1843
 4653SOL     OW17550  10.536   9.801   5.946 -0.1339 -0.0368 -0.3178
 4653SOL    HW117551  10.598   9.838   6.008  0.6711 -2.3062  0.3293
 4653SOL    HW217552  10.578   9.812   5.861  1.0767 -1.2630  0.0813
 4654SOL     OW17553   8.406   9.022  10.700  0.2010 -0.2520  0.9802
 4654SOL    HW117554   8.313   9.001  10.702 -0.3192  1.7698  0.5802
 4654SOL    HW217555   8.409   9.118  10.695  2.3281 -0.0518  3.7076
 4655SOL     OW17556   2.209   9.873  10.819  0.6232 -0.3771  0.0311
 4655SOL    HW117557   2.224   9.896  10.727 -0.6090 -0.7078 -0.2710
 4655SOL    HW217558   2.286   9.821  10.844  0.2129 -1.6705 -1.3049
 4656SOL     OW17559   0.674   1.342   6.026 -0.0079  0.3104 -0.0617
 4656SOL    HW117560   0.685   1.339   5.931 -2.2847  2.4306 -0.4724
 4656SOL    HW217561   0.677   1.435   6.048 -0.4270 -0.0872  1.8226
 4657SOL     OW17562   5.516   5.490   8.457 -0.3820  0.5812 -0.6634
 4657SOL    HW117563   5.523   5.447   8.371 -0.8308 -0.8075 -0.0258
 4657SOL    HW217564   5.530   5.583   8.438  0.4781  0.1911 -2.1050
 4658SOL     OW17565   0.939   1.426   3.688  0.7496 -0.0546  0.1678
 4658SOL    HW117566   0.904   1.508   3.654 -1.8756 -0.7569  0.9733
 4658SOL    HW217567   0.933   1.365   3.615 -0.1098 -0.2582  0.3941
 4659SOL     OW17568   2.566   1.492   3.156  0.0612 -0.0535  0.1324
 4659SOL    HW117569   2.640   1.446   3.117 -0.3894  0.1038 -0.9362
 4659SOL    HW217570   2.512   1.422   3.195 -0.0436 -0.3272 -0.4976
 4660SOL     OW17571   9.662   9.261   8.269  0.7544 -0.1916 -0.0825
 4660SOL    HW117572   9.640   9.284   8.179 -0.9285 -2.5300 -0.3813
 4660SOL    HW217573   9.672   9.345   8.314 -3.0721  1.1897 -1.3877
 4661SOL     OW17574  10.455  11.025   4.301  0.0313  0.3854  0.2765
 4661SOL    HW117575  10.438  11.040   4.394  1.3229  1.4168  0.3707
 4661SOL    HW217576  10.390  11.080   4.256  0.9231  1.7339  0.5994
 4662SOL     OW17577   8.735   6.425   4.284 -0.3035  0.7431 -0.5977
 4662SOL    HW117578   8.744   6.500   4.225 -1.7840  0.4392 -1.2609
 4662SOL    HW217579   8.813   6.371   4.267 -0.5073  0.8570 -2.0115
 4663SOL     OW17580   1.802   0.059   5.273 -0.3738 -0.0710  0.6700
 4663SOL    HW117581   1.895   0.035   5.276 -0.2692  0.1775 -0.3364
 4663SOL    HW217582   1.791   0.120   5.345  0.8985  2.0931 -0.8498
 4664SOL     OW17583  10.579   6.856   4.720  0.2382 -0.2483 -0.5738
 4664SOL    HW117584  10.538   6.870   4.805  0.6841 -2.1635 -0.0118
 4664SOL    HW217585  10.670   6.881   4.733  1.0706 -3.4714  0.4732
 4665SOL     OW17586   7.257   5.972   4.582 -0.0676 -0.2816  0.2321
 4665SOL    HW117587   7.332   5.930   4.540 -0.3031 -1.1451  0.6532
 4665SOL    HW217588   7.280   5.974   4.675 -0.1179  0.4189  0.2366
 4666SOL     OW17589   6.111  10.762   6.735 -0.2179 -0.6289 -0.0727
 4666SOL    HW117590   6.066  10.737   6.655  0.5820 -0.9992 -0.4172
 4666SOL    HW217591   6.160  10.684   6.760 -0.2144 -0.4153  0.6052
 4667SOL     OW17592   2.485   7.661   7.551 -0.2204 -0.0058  0.6965
 4667SOL    HW117593   2.398   7.665   7.512 -0.3418 -0.9345  0.8556
 4667SOL    HW217594   2.536   7.728   7.504 -0.0157 -1.8523 -1.8812
 4668SOL     OW17595   6.658   2.758   5.960 -0.2849  0.4097 -0.1512
 4668SOL    HW117596   6.746   2.773   5.994 -0.5092  0.0429  0.6159
 4668SOL    HW217597   6.606   2.829   5.998 -0.7373 -0.5564  1.0915
 4669SOL     OW17598   6.048   7.193   4.073  0.2170 -0.5653 -0.2943
 4669SOL    HW117599   6.053   7.146   3.989  0.2200  1.5229 -1.5427
 4669SOL    HW217600   5.960   7.230   4.073  1.3714  2.4600 -1.1687
 4670SOL     OW17601   1.637   6.373   5.769  0.5244 -0.0669  0.0488
 4670SOL    HW117602   1.609   6.346   5.857  1.1128 -1.6053 -0.2082
 4670SOL    HW217603   1.558   6.407   5.728  0.3112  1.0301  1.2744
 4671SOL     OW17604   3.100   5.982   3.009 -0.1989 -0.1235 -0.2164
 4671SOL    HW117605   3.069   6.068   2.984  0.9263  0.4303  0.2270
 4671SOL    HW217606   3.194   5.993   3.021 -0.1349 -1.2612  0.4654
 4672SOL     OW17607   0.588   4.795   8.173  0.2365 -0.3395  0.8629
 4672SOL    HW117608   0.554   4.820   8.087  0.4907 -2.4748  0.0628
 4672SOL    HW217609   0.682   4.784   8.159  0.4448  0.3243  1.6966
 4673SOL     OW17610   2.110   1.329   5.234 -0.0330  0.2829  0.1302
 4673SOL    HW117611   2.037   1.268   5.221  1.0362 -1.0729  0.2554
 4673SOL    HW217612   2.108   1.347   5.328  1.5538 -2.1465  0.7152
 4674SOL     OW17613   0.609   1.148   5.300 -0.1234  0.1779  0.0039
 4674SOL    HW117614   0.690   1.156   5.352 -0.9066 -0.2411  1.3333
 4674SOL    HW217615   0.602   1.232   5.255  1.1567  0.1443 -0.3085
 4675SOL     OW17616   4.373   2.144   7.254 -0.0575 -0.2379  0.0592
 4675SOL    HW117617   4.285   2.132   7.290  0.2982  0.1768  1.1028
 4675SOL    HW217618   4.366   2.224   7.202 -0.9103 -1.5416 -1.9722
 4676SOL     OW17619   3.406   8.082  10.629  0.2180  0.2265 -0.0905
 4676SOL    HW117620   3.373   8.126  10.708  0.4392 -1.2728  0.8792
 4676SOL    HW217621   3.497   8.111  10.622  0.5184 -0.4226  0.8385
 4677SOL     OW17622   3.823   8.314   8.602 -0.1629 -0.4004  0.2003
 4677SOL    HW117623   3.868   8.308   8.518 -0.0250 -0.2565  0.2620
 4677SOL    HW217624   3.751   8.376   8.586  0.6069  0.6122  0.4989
 4678SOL     OW17625   1.903  10.877   5.301  0.5110 -0.2157  0.1379
 4678SOL    HW117626   1.924  10.834   5.218  1.9297  1.1053 -0.2304
 4678SOL    HW217627   1.808  10.868   5.309  0.3996 -0.7356 -1.4123
 4679SOL     OW17628   6.555   8.420   9.087  0.2374 -0.8790  0.2601
 4679SOL    HW117629   6.602   8.489   9.040  1.7725 -0.7361  1.9397
 4679SOL    HW217630   6.468   8.418   9.045  1.4176 -0.6406 -2.4272
 4680SOL     OW17631   5.544   0.118   9.485  0.0516 -0.5494 -0.6388
 4680SOL    HW117632   5.468   0.159   9.446 -0.0446 -0.8145 -0.7329
 4680SOL    HW217633   5.607   0.109   9.413  1.2224  2.0608 -0.0460
 4681SOL     OW17634   1.812   9.385   5.398  0.2982 -0.0897 -0.1430
 4681SOL    HW117635   1.759   9.459   5.426  1.1189  1.3663 -2.1888
 4681SOL    HW217636   1.899   9.423   5.382  1.0101 -1.7028 -0.3191
 4682SOL     OW17637   3.024   1.986   8.778  0.1071 -0.1461 -0.4386
 4682SOL    HW117638   3.016   2.062   8.721  0.8050  0.5148  0.3153
 4682SOL    HW217639   2.939   1.943   8.774 -0.6691  1.3096  0.0115
 4683SOL     OW17640   2.937   0.771   4.408  0.3044  0.0864  0.1088
 4683SOL    HW117641   2.978   0.857   4.411  1.3710 -0.3524 -0.9137
 4683SOL    HW217642   3.006   0.711   4.438 -0.2124 -0.4780  0.1922
 4684SOL     OW17643   8.001   4.425  10.334 -0.3027  0.0334 -0.1519
 4684SOL    HW117644   7.980   4.460  10.248 -0.6674  0.4392  0.0981
 4684SOL    HW217645   8.045   4.496  10.380  1.3094 -0.6792 -0.5290
 4685SOL     OW17646   8.467  10.435   6.824 -0.1275 -0.7902  0.1084
 4685SOL    HW117647   8.405  10.437   6.752 -1.2617  0.5979  1.0596
 4685SOL    HW217648   8.463  10.523   6.862  2.5204 -0.6090  0.1551
 4686SOL     OW17649   4.734   7.828   4.988 -0.1590  1.0153 -0.2865
 4686SOL    HW117650   4.800   7.813   4.920 -0.8297  0.1010 -0.7507
 4686SOL    HW217651   4.662   7.871   4.941 -0.7288  0.1509 -0.2064
 4687SOL     OW17652   2.858   6.215   5.880 -0.0852  0.0216  0.2378
 4687SOL    HW117653   2.923   6.238   5.946 -0.0689  2.7379 -0.6021
 4687SOL    HW217654   2.814   6.138   5.915  1.5116 -0.0367  2.2693
 4688SOL     OW17655   1.195  10.941   0.266 -0.0941  0.2143 -0.4531
 4688SOL    HW117656   1.278  10.901   0.244  0.1520  1.1282 -1.2787
 4688SOL    HW217657   1.217  11.011   0.328 -0.5220 -0.9149  1.0184
 4689SOL     OW17658   8.911   2.513   3.794  0.6010 -0.0420  0.0877
 4689SOL    HW117659   9.001   2.485   3.812  1.6950  1.6831 -2.2493
 4689SOL    HW217660   8.886   2.463   3.716 -0.0137  0.3688  0.0178
 4690SOL     OW17661   2.611   1.497   4.549  0.3810 -0.4915  0.3781
 4690SOL    HW117662   2.531   1.536   4.585  0.9616  1.8661 -0.7160
 4690SOL    HW217663   2.614   1.410   4.589 -1.9440 -0.1214  1.5854
 4691SOL     OW17664   8.416   8.498   9.537  0.2048 -0.4455 -0.0007
 4691SOL    HW117665   8.327   8.509   9.571 -0.5459 -1.5620 -1.4423
 4691SOL    HW217666   8.442   8.585   9.508 -0.9483 -0.3118 -0.7111
 4692SOL     OW17667  11.008   0.220   7.913  0.9759  0.9751  0.1054
 4692SOL    HW117668  11.012   0.150   7.979  1.4329 -0.7918 -1.7067
 4692SOL    HW217669  10.914   0.238   7.904  0.8408  0.4942  0.4728
 4693SOL     OW17670   4.622   4.497   0.357  0.0333  0.2904 -0.3538
 4693SOL    HW117671   4.604   4.524   0.267 -0.2340 -0.4738 -0.5346
 4693SOL    HW217672   4.650   4.406   0.350 -0.3294  0.1170  0.3672
 4694SOL     OW17673   3.847  10.006   0.526 -0.3989 -0.5510  0.2091
 4694SOL    HW117674   3.942  10.018   0.518 -0.2943 -2.0318 -1.2336
 4694SOL    HW217675   3.837   9.938   0.593 -0.3771 -1.1404 -0.3787
 4695SOL     OW17676   3.756   8.445   3.800 -0.4993  0.6559  0.9662
 4695SOL    HW117677   3.695   8.450   3.874 -0.2219 -0.0753  1.2468
 4695SOL    HW217678   3.705   8.402   3.731  0.2394 -1.7078  1.7996
 4696SOL     OW17679   0.198   4.606   0.357  0.2182 -0.4178 -0.5761
 4696SOL    HW117680   0.275   4.552   0.341  1.2045 -0.6211  3.7342
 4696SOL    HW217681   0.232   4.683   0.403 -1.9700  0.3277 -0.0955
 4697SOL     OW17682   3.297   7.853   9.146  0.0311  0.4208  0.0046
 4697SOL    HW117683   3.220   7.908   9.162  0.6477  0.8078  2.0621
 4697SOL    HW217684   3.292   7.829   9.054 -1.9136  1.3992 -0.1857
 4698SOL     OW17685   1.624   6.476   9.562 -0.4942 -0.4240  0.4978
 4698SOL    HW117686   1.666   6.399   9.600  0.5469 -1.0732 -1.8266
 4698SOL    HW217687   1.669   6.550   9.602 -0.9163 -0.9843  2.1043
 4699SOL     OW17688   4.623   9.670   4.302  0.1549  0.2433 -0.0690
 4699SOL    HW117689   4.546   9.689   4.250 -0.5610 -0.0581  0.8485
 4699SOL    HW217690   4.593   9.607   4.368  1.4174 -0.6602 -0.3160
 4700SOL     OW17691   5.141   9.330  10.612  0.4424 -0.1748 -0.9842
 4700SOL    HW117692   5.218   9.344  10.666 -0.8200  0.2111  0.8243
 4700SOL    HW217693   5.159   9.248  10.565  1.4638 -0.7077  0.2830
 4701SOL     OW17694  10.288   2.238  10.874 -0.0196 -0.1377  0.0420
 4701SOL    HW117695  10.220   2.178  10.904 -1.9276  1.3038 -1.1827
 4701SOL    HW217696  10.328   2.271  10.955 -1.4399 -0.3023  0.8434
 4702SOL     OW17697   2.750   6.893   3.287 -0.0811 -0.1477  0.0770
 4702SOL    HW117698   2.798   6.841   3.352  1.6314 -0.7692 -1.5832
 4702SOL    HW217699   2.788   6.867   3.203 -2.1842  0.6454 -1.2048
 4703SOL     OW17700   6.826   5.889   3.686  0.9363  0.4670  0.0300
 4703SOL    HW117701   6.795   5.800   3.696 -0.5736  0.4834 -3.2164
 4703SOL    HW217702   6.917   5.880   3.658  1.7335  0.1463  2.5022
 4704SOL     OW17703   5.507   5.086   4.283  0.3435  0.0071 -0.1800
 4704SOL    HW117704   5.430   5.054   4.236  1.6789 -0.9579 -1.8336
 4704SOL    HW217705   5.581   5.061   4.227  1.9089  0.3503  1.6405
 4705SOL     OW17706   4.431   7.152   6.093 -0.9599  0.1712 -0.1030
 4705SOL    HW117707   4.384   7.229   6.063 -0.6585  1.1232  1.6984
 4705SOL    HW217708   4.507   7.188   6.139 -1.3441 -1.1481  1.6446
 4706SOL     OW17709   1.825   1.019  10.655  0.1756 -0.7494 -0.3235
 4706SOL    HW117710   1.858   0.960  10.723  0.2794 -0.5150 -0.1702
 4706SOL    HW217711   1.855   0.981  10.573 -0.6648 -1.5073 -0.3017
 4707SOL     OW17712   7.078   1.390   2.715 -0.3647  0.2698 -0.1769
 4707SOL    HW117713   7.116   1.476   2.733 -0.8726  0.1091  1.8850
 4707SOL    HW217714   6.991   1.394   2.756  0.5746 -2.0516  2.3324
 4708SOL     OW17715   8.479   3.939   8.132 -0.1699 -0.0359  0.1655
 4708SOL    HW117716   8.469   3.846   8.112  2.3215 -0.6179  1.2480
 4708SOL    HW217717   8.546   3.970   8.072 -0.7759  1.0340  0.0013
 4709SOL     OW17718   7.441  10.622   0.150  0.0836 -0.4729 -0.1737
 4709SOL    HW117719   7.453  10.531   0.178 -2.0544 -1.1248 -1.1801
 4709SOL    HW217720   7.492  10.673   0.214  1.4274 -2.3369  0.3530
 4710SOL     OW17721   6.953   3.350   7.526 -0.2140 -0.2553  0.6388
 4710SOL    HW117722   7.021   3.334   7.591 -1.0850 -0.3221  1.5564
 4710SOL    HW217723   6.981   3.300   7.449  0.8211 -0.1903  0.9547
 4711SOL     OW17724   3.797   0.031   4.454 -0.4948  0.0907 -0.3779
 4711SOL    HW117725   3.817   0.119   4.484  1.6936 -0.2747 -0.5323
 4711SOL    HW217726   3.728   0.000   4.512  0.6490  0.9374  1.5272
 4712SOL     OW17727   9.656   5.248   8.011  0.0321 -0.2344  0.2559
 4712SOL    HW117728   9.601   5.175   8.039 -0.5661  0.1545  0.1273
 4712SOL    HW217729   9.715   5.263   8.085  0.5636 -1.2311  0.0394
 4713SOL     OW17730   4.418   4.202   3.573  0.2251 -0.2535  0.0016
 4713SOL    HW117731   4.480   4.194   3.646 -2.4891 -1.7227  2.3438
 4713SOL    HW217732   4.372   4.284   3.592  2.0380  1.4811 -2.3947
 4714SOL     OW17733   9.805   4.284   7.180 -0.4239 -0.1444 -0.0325
 4714SOL    HW117734   9.822   4.289   7.086  0.0192  1.6109  0.1106
 4714SOL    HW217735   9.730   4.225   7.188  0.9866 -2.2479 -1.2773
 4715SOL     OW17736  10.104   0.909   3.934 -0.7334  0.0590 -0.2967
 4715SOL    HW117737  10.126   0.838   3.873 -0.5013  0.2632 -0.4530
 4715SOL    HW217738  10.083   0.864   4.016  0.6200 -0.1442 -0.0299
 4716SOL     OW17739   5.557   4.962   5.781  0.1384  0.3293  0.2733
 4716SOL    HW117740   5.577   4.878   5.739 -0.7358  0.9409 -1.4507
 4716SOL    HW217741   5.639   4.987   5.825  0.8999 -0.6574 -0.5403
 4717SOL     OW17742   9.925   8.502   8.021  0.7012  0.0906 -0.0200
 4717SOL    HW117743   9.930   8.535   8.111  3.0833 -0.3477  0.0771
 4717SOL    HW217744   9.947   8.409   8.028 -0.0503 -0.1779 -0.9791
 4718SOL     OW17745   7.273   9.951   3.871  0.1831  0.0847  0.5711
 4718SOL    HW117746   7.320  10.013   3.926 -0.5522 -0.0636  1.3800
 4718SOL    HW217747   7.192   9.934   3.917  0.1710 -1.1365  0.1402
 4719SOL     OW17748   0.996   8.742   9.925  0.0674 -0.0775 -0.1667
 4719SOL    HW117749   0.987   8.825   9.971  0.3355 -0.3026  0.3016
 4719SOL    HW217750   0.944   8.680   9.976  0.0964 -0.2582 -0.3538
 4720SOL     OW17751   4.487   6.923  10.682 -0.3571  0.8514  0.2288
 4720SOL    HW117752   4.481   7.018  10.692 -3.2823  0.7308  0.5612
 4720SOL    HW217753   4.475   6.888  10.770  0.8897  0.1532  0.1387
 4721SOL     OW17754   0.190   6.663   9.440 -0.0202  0.0446 -0.8500
 4721SOL    HW117755   0.279   6.696   9.427  0.2098  0.3670  1.1016
 4721SOL    HW217756   0.201   6.569   9.455 -0.0919 -0.0393 -1.3221
 4722SOL     OW17757  10.917   0.556   6.842 -0.4767 -0.5600  0.4706
 4722SOL    HW117758  10.956   0.612   6.775 -2.6051  1.9628  1.1553
 4722SOL    HW217759  10.891   0.477   6.795  1.3374 -0.4151 -0.8704
 4723SOL     OW17760   9.846   3.715   9.145  0.2885 -0.0143 -0.3603
 4723SOL    HW117761   9.864   3.766   9.065 -1.5721  1.3625  0.0148
 4723SOL    HW217762   9.893   3.761   9.214  0.9768 -0.5448 -0.4638
 4724SOL     OW17763   5.122   1.997   8.878  0.0390  0.2787 -0.2189
 4724SOL    HW117764   5.117   2.072   8.819  0.3376  1.4117  1.1633
 4724SOL    HW217765   5.198   2.014   8.934  0.4595 -1.3299 -0.2348
 4725SOL     OW17766   5.819   9.470   8.567  0.0923  0.7263  0.1171
 4725SOL    HW117767   5.747   9.439   8.622 -0.5723  0.0902 -1.0682
 4725SOL    HW217768   5.869   9.529   8.624 -0.6959  0.2843  1.3177
 4726SOL     OW17769   1.177   3.574   4.815 -0.2159  0.3729 -0.1618
 4726SOL    HW117770   1.202   3.530   4.734 -1.5880  0.8896 -0.8991
 4726SOL    HW217771   1.185   3.667   4.795  1.2296  0.5023  0.9108
 4727SOL     OW17772   1.089   3.246   4.970  0.5898  0.3314 -0.1575
 4727SOL    HW117773   1.115   3.337   4.988 -0.3557  0.7013 -0.5779
 4727SOL    HW217774   1.001   3.254   4.931 -0.3309 -0.8866  1.5792
 4728SOL     OW17775   6.658   6.354   1.728  0.0868 -0.5014  0.0194
 4728SOL    HW117776   6.666   6.449   1.737  2.2392 -0.7864  1.8490
 4728SOL    HW217777   6.734   6.328   1.677 -0.7635 -1.2106 -0.9098
 4729SOL     OW17778   2.823   2.346   4.890  0.1468  0.0841  0.6583
 4729SOL    HW117779   2.751   2.368   4.831 -0.0300 -1.0764  0.4085
 4729SOL    HW217780   2.902   2.357   4.837  0.0951  0.5860  0.6880
 4730SOL     OW17781   1.908   0.253   9.415 -0.0452 -0.2328 -0.1603
 4730SOL    HW117782   1.944   0.332   9.455  0.9929 -0.6158 -0.3017
 4730SOL    HW217783   1.822   0.279   9.381 -0.1896  0.5354  0.7834
 4731SOL     OW17784   4.670   8.776   1.840 -0.0364 -0.4729 -0.7273
 4731SOL    HW117785   4.700   8.865   1.854  1.3861 -1.1058  0.5254
 4731SOL    HW217786   4.593   8.767   1.896  0.9360 -0.5711  0.6522
 4732SOL     OW17787   8.782   8.014   8.991 -0.4633 -0.1303  0.0193
 4732SOL    HW117788   8.792   8.039   8.899  1.5304  1.0636  0.5201
 4732SOL    HW217789   8.774   8.097   9.038 -0.2068 -0.6802  1.0636
 4733SOL     OW17790  10.025   3.688   6.006  0.1098 -0.0678  0.1583
 4733SOL    HW117791  10.076   3.608   6.017 -0.4942 -0.5152 -0.2052
 4733SOL    HW217792   9.958   3.684   6.074 -1.2276 -0.9357 -1.1236
 4734SOL     OW17793  10.342   4.754   1.279  0.2076 -0.0234 -0.8357
 4734SOL    HW117794  10.306   4.785   1.362  1.4345 -0.9816  0.0891
 4734SOL    HW217795  10.266   4.739   1.223 -0.5804  1.6022 -0.2561
 4735SOL     OW17796   2.290   5.514   0.157  0.5537 -0.5272  0.0793
 4735SOL    HW117797   2.216   5.454   0.148 -0.8944  1.2861 -0.9120
 4735SOL    HW217798   2.348   5.493   0.083 -0.4758 -0.0572 -0.8973
 4736SOL     OW17799  10.522   7.418   0.588  0.3416  0.2597 -0.2572
 4736SOL    HW117800  10.502   7.446   0.498  0.4661  0.3505 -0.2578
 4736SOL    HW217801  10.499   7.493   0.642 -0.9526 -0.2434 -0.0673
 4737SOL     OW17802   6.854   6.393   5.752  0.6639  0.2407 -0.0026
 4737SOL    HW117803   6.762   6.368   5.741 -0.2470  2.6092  1.6145
 4737SOL    HW217804   6.888   6.330   5.815 -0.1991  0.1155  0.3532
 4738SOL     OW17805   1.633   4.532  10.203 -0.7279  0.0894  0.3435
 4738SOL    HW117806   1.604   4.610  10.251 -1.5457 -0.1499  0.2578
 4738SOL    HW217807   1.634   4.559  10.111 -0.6497  0.1053  0.3490
 4739SOL     OW17808   0.252   6.009   7.151 -0.8114  0.1773 -0.2695
 4739SOL    HW117809   0.226   6.092   7.110  0.0670  0.2073 -0.7926
 4739SOL    HW217810   0.238   5.943   7.082  2.3220  0.4538 -1.3276
 4740SOL     OW17811   5.341   0.018   8.145 -0.6521 -0.5180 -0.1543
 4740SOL    HW117812   5.429   0.040   8.114 -1.2327  0.2188 -1.3574
 4740SOL    HW217813   5.338  -0.078   8.142 -0.3523 -0.5038 -1.5071
 4741SOL     OW17814   3.990   1.689   6.317  0.3602  0.3472 -0.2407
 4741SOL    HW117815   3.920   1.645   6.365  1.2335  0.1428  0.8856
 4741SOL    HW217816   3.945   1.738   6.248 -0.8870  0.2118  0.4480
 4742SOL     OW17817   4.042   9.450   9.850 -0.1513 -0.0096  0.4673
 4742SOL    HW117818   4.035   9.483   9.939  0.0409 -0.3557  0.6140
 4742SOL    HW217819   3.957   9.409   9.833 -0.8059  1.4976 -0.1146
 4743SOL     OW17820   7.572  10.474   4.792 -0.0733 -0.6164  0.2234
 4743SOL    HW117821   7.571  10.543   4.726  2.5612  0.7919  1.4703
 4743SOL    HW217822   7.532  10.398   4.749 -1.2877  1.0849 -1.8653
 4744SOL     OW17823   4.888   1.770   5.483 -0.2110  0.1092 -0.6195
 4744SOL    HW117824   4.869   1.827   5.558 -0.6134 -0.9859  0.1464
 4744SOL    HW217825   4.805   1.766   5.435 -0.1735  0.2093 -0.6912
 4745SOL     OW17826   9.026  11.093   1.368  0.3895  0.0911  0.6094
 4745SOL    HW117827   8.955  11.154   1.390  0.6816  0.1401  1.4576
 4745SOL    HW217828   9.012  11.073   1.275  0.9091  2.2904 -0.0103
 4746SOL     OW17829   8.313   0.611   4.498  0.1392 -0.4019  0.0130
 4746SOL    HW117830   8.397   0.618   4.545 -0.9309  0.8116  1.8808
 4746SOL    HW217831   8.303   0.696   4.455 -0.2889 -0.4061  0.0990
 4747SOL     OW17832  10.039   0.764   5.018  0.0367 -0.1771 -0.0476
 4747SOL    HW117833  10.095   0.747   4.943 -0.1235 -0.1306 -0.1786
 4747SOL    HW217834  10.085   0.832   5.068 -1.0971  1.7649 -1.4971
 4748SOL     OW17835   9.449   9.087   5.793  0.0776  0.0038  0.0632
 4748SOL    HW117836   9.465   9.180   5.775  1.4127 -0.1244  0.4789
 4748SOL    HW217837   9.457   9.079   5.888  0.5537 -0.6408 -0.0285
 4749SOL     OW17838   5.491   3.096   0.301  0.1507  0.0236  0.0315
 4749SOL    HW117839   5.428   3.024   0.310 -1.1824  1.0668 -0.5614
 4749SOL    HW217840   5.438   3.170   0.271  1.5701  1.1258  0.1584
 4750SOL     OW17841   3.124   9.138   2.254 -0.1258  0.2194  0.4911
 4750SOL    HW117842   3.135   9.190   2.334  1.5811  1.5308 -0.5436
 4750SOL    HW217843   3.034   9.155   2.227 -0.5169  0.2833  1.7416
 4751SOL     OW17844   0.173   0.365  10.492 -0.7201 -0.0284  0.4843
 4751SOL    HW117845   0.200   0.415  10.415 -1.8139 -0.7294 -0.3760
 4751SOL    HW217846   0.136   0.285  10.457  0.5121 -1.2501  1.8204
 4752SOL     OW17847   2.213  10.527   7.983  0.3237 -0.8604 -0.5562
 4752SOL    HW117848   2.140  10.563   7.933  1.0896  0.5335 -0.7334
 4752SOL    HW217849   2.181  10.444   8.018 -0.9544 -0.8026 -1.5521
 4753SOL     OW17850  10.957   0.081   3.280  0.0748 -0.2292 -0.0590
 4753SOL    HW117851  10.930   0.024   3.208 -0.1427 -2.3536  1.6001
 4753SOL    HW217852  11.028   0.133   3.244 -1.1616  0.0425 -2.2981
 4754SOL     OW17853   2.068   9.887   7.074 -0.4960  0.0611  0.5044
 4754SOL    HW117854   2.134   9.840   7.125  2.2275  1.2070 -1.6912
 4754SOL    HW217855   2.068   9.975   7.110 -1.3027 -0.0824  0.8718
 4755SOL     OW17856   4.704   0.465   3.697  0.1961 -0.0456  0.5088
 4755SOL    HW117857   4.787   0.513   3.702  0.0206  0.3396 -0.1818
 4755SOL    HW217858   4.659   0.486   3.779 -0.2655  1.7157 -0.1524
 4756SOL     OW17859   0.862   6.657   9.839 -0.0257  0.3399 -0.1073
 4756SOL    HW117860   0.935   6.719   9.844 -0.9659  1.4289  0.4259
 4756SOL    HW217861   0.903   6.574   9.817  1.1290  1.4486 -2.4781
 4757SOL     OW17862  10.123   7.403   7.136 -0.6527  0.6043  0.0935
 4757SOL    HW117863  10.181   7.474   7.107  0.1933  0.0383  0.3729
 4757SOL    HW217864  10.137   7.334   7.071 -2.2914  1.0658 -0.8115
 4758SOL     OW17865   1.297   6.770  10.039 -0.5663  0.7437  0.3096
 4758SOL    HW117866   1.287   6.678  10.064  0.9587 -0.0523 -1.7275
 4758SOL    HW217867   1.315   6.816  10.121  0.0781 -1.0014  1.2015
 4759SOL     OW17868   9.102   3.481   3.938  0.1630 -0.2172  0.1323
 4759SOL    HW117869   9.170   3.431   3.893  1.0290 -0.1091  1.3041
 4759SOL    HW217870   9.134   3.492   4.027 -0.3054  1.8845  0.0929
 4760SOL     OW17871  10.936   5.300   5.407  0.2233 -0.3302 -0.1976
 4760SOL    HW117872  11.019   5.325   5.366  0.4550  0.8389  0.9248
 4760SOL    HW217873  10.879   5.376   5.397 -0.3602 -0.7307 -0.0324
 4761SOL     OW17874   9.419   9.072   2.647 -0.5494  0.1598 -0.4884
 4761SOL    HW117875   9.497   9.120   2.673 -0.0687 -1.0341  0.3845
 4761SOL    HW217876   9.425   9.066   2.552  1.8668 -2.1714 -0.3094
 4762SOL     OW17877  10.854   7.313   1.495  0.0725  0.0466 -0.3637
 4762SOL    HW117878  10.884   7.252   1.428 -1.5132  0.2859 -1.3484
 4762SOL    HW217879  10.760   7.295   1.503  0.0110  0.8363  0.9483
 4763SOL     OW17880   9.516   3.077   5.519 -0.1372 -0.4142  0.3050
 4763SOL    HW117881   9.571   3.006   5.553 -0.1033 -1.4334 -1.7019
 4763SOL    HW217882   9.568   3.115   5.448 -1.6365 -0.8622 -1.0931
 4764SOL     OW17883   1.693  10.213  10.714  0.4022 -0.1308  0.4400
 4764SOL    HW117884   1.612  10.194  10.761 -1.3334  1.2553 -1.8153
 4764SOL    HW217885   1.692  10.308  10.703  2.4584 -0.0663  0.4927
 4765SOL     OW17886   6.666   8.269   4.592 -0.0240  0.6674 -0.1420
 4765SOL    HW117887   6.719   8.203   4.547  0.2391  0.7886 -0.0098
 4765SOL    HW217888   6.649   8.335   4.525  0.0877  0.6832 -0.1558
 4766SOL     OW17889   8.104   5.016   7.154  0.1868  0.6012  0.7070
 4766SOL    HW117890   8.188   5.024   7.109  1.3065  0.7826  2.7226
 4766SOL    HW217891   8.041   5.057   7.094  0.5575 -3.6675 -3.0803
 4767SOL     OW17892   1.427   1.304   6.523 -0.9744  0.1382  0.6843
 4767SOL    HW117893   1.477   1.335   6.598 -1.0155 -1.6296  1.4773
 4767SOL    HW217894   1.336   1.326   6.544 -0.7146  2.4727 -0.3207
 4768SOL     OW17895   4.540   3.666   3.416  0.6288  0.0414  0.6556
 4768SOL    HW117896   4.503   3.754   3.410  0.0637 -0.1730  0.8618
 4768SOL    HW217897   4.501   3.618   3.343  1.2378  0.0691  0.3134
 4769SOL     OW17898   1.163   3.924   6.035  0.1089 -0.0835  0.3620
 4769SOL    HW117899   1.082   3.929   6.085 -0.6292  0.6710 -0.8844
 4769SOL    HW217900   1.198   4.013   6.036 -0.3654  0.1377 -1.1753
 4770SOL     OW17901   2.137   0.143  11.017 -0.0588  0.0515 -0.0066
 4770SOL    HW117902   2.132   0.067  10.959 -1.4437 -0.9833  1.3821
 4770SOL    HW217903   2.226   0.141  11.053  0.1439 -0.4821 -0.5357
 4771SOL     OW17904   8.335   6.691   0.865 -0.5040  0.3905  0.0438
 4771SOL    HW117905   8.387   6.640   0.803  0.9642  0.0231  1.4957
 4771SOL    HW217906   8.358   6.782   0.847 -1.3117  0.4144 -0.9714
 4772SOL     OW17907   5.615   5.592   1.836 -0.3530  0.0537 -0.5199
 4772SOL    HW117908   5.697   5.585   1.787  0.6236 -0.5498  1.1115
 4772SOL    HW217909   5.547   5.571   1.772  0.8493 -0.5608 -1.6526
 4773SOL     OW17910   7.054   1.681   3.223  0.3480 -0.1559 -0.2736
 4773SOL    HW117911   6.981   1.647   3.171 -0.2931  1.9023 -0.8225
 4773SOL    HW217912   7.014   1.745   3.282  1.3728 -0.8637  1.2531
 4774SOL     OW17913   0.499  10.373   9.993  0.6754 -0.5326  0.1315
 4774SOL    HW117914   0.579  10.418   9.967  0.5354  0.1076  0.7741
 4774SOL    HW217915   0.429  10.420   9.949  0.6481 -1.1869 -0.5535
 4775SOL     OW17916   1.389   5.455   8.073  0.1728  0.8399  0.0098
 4775SOL    HW117917   1.300   5.487   8.060 -0.6654 -1.0369  0.8029
 4775SOL    HW217918   1.399   5.454   8.169 -0.0379 -1.6295  0.0621
 4776SOL     OW17919   2.807  10.975   1.103 -0.1615 -0.7604  0.2230
 4776SOL    HW117920   2.788  11.020   1.021  2.2293 -1.2627 -0.6886
 4776SOL    HW217921   2.798  11.042   1.170 -0.2711  0.1434 -0.6768
 4777SOL     OW17922   1.749   2.786   7.118  0.1906 -0.3339 -0.5551
 4777SOL    HW117923   1.736   2.714   7.180  1.9208  0.6163  1.0054
 4777SOL    HW217924   1.783   2.744   7.039 -0.2890 -1.3763 -0.2245
 4778SOL     OW17925   7.665   6.185   3.969 -0.3421 -0.2634  0.2020
 4778SOL    HW117926   7.719   6.227   4.036  0.5145 -0.5028 -0.3234
 4778SOL    HW217927   7.577   6.217   3.986  0.1578  1.1156  0.3106
 4779SOL     OW17928   2.833   4.239   7.813  0.2122 -0.5048  0.2762
 4779SOL    HW117929   2.832   4.330   7.844 -1.4716  0.1701 -1.4908
 4779SOL    HW217930   2.899   4.238   7.744 -0.0104 -0.5137  0.0598
 4780SOL     OW17931   7.372   7.065   7.943 -0.6806 -0.3555 -0.1562
 4780SOL    HW117932   7.335   7.035   7.860 -0.1292 -0.0317 -0.5321
 4780SOL    HW217933   7.406   6.986   7.985  2.1006 -0.1998 -1.8035
 4781SOL     OW17934   3.889   7.351   7.174  0.1794  0.5837  0.0984
 4781SOL    HW117935   3.854   7.267   7.202  2.6794 -0.6337 -0.0980
 4781SOL    HW217936   3.902   7.401   7.255  0.6286 -0.0782  0.4456
 4782SOL     OW17937   5.529   5.411   3.667 -0.1529 -0.2348 -0.1293
 4782SOL    HW117938   5.489   5.421   3.754 -1.0316 -0.2399 -0.5180
 4782SOL    HW217939   5.517   5.497   3.626 -0.1721 -0.3738 -0.4145
 4783SOL     OW17940   5.967  10.751   1.344  0.0575  0.3893 -0.0059
 4783SOL    HW117941   5.966  10.658   1.322  0.3211  0.3487  0.1514
 4783SOL    HW217942   5.929  10.755   1.432 -0.1888  0.4584 -0.1151
 4784SOL     OW17943   7.247   9.678   9.685  0.0621 -0.2882 -0.5359
 4784SOL    HW117944   7.168   9.685   9.631  1.3083  2.5056 -2.2485
 4784SOL    HW217945   7.216   9.685   9.775 -1.6383  1.7142 -1.1979
 4785SOL     OW17946   1.556   6.867   0.164 -0.2378 -0.2025 -0.2305
 4785SOL    HW117947   1.566   6.899   0.074 -0.3208  0.0992 -0.1331
 4785SOL    HW217948   1.475   6.815   0.162 -0.5930  0.3393 -0.1828
 4786SOL     OW17949   0.944   3.913   1.806 -0.0866  0.0572 -0.3154
 4786SOL    HW117950   0.969   4.006   1.807  0.8456 -0.1758  1.5360
 4786SOL    HW217951   0.974   3.881   1.721 -0.7464  1.5010 -1.1410
 4787SOL     OW17952   9.686   1.028   4.106 -0.3283 -0.0485  0.3503
 4787SOL    HW117953   9.752   0.960   4.120 -0.1814  0.2948  1.5219
 4787SOL    HW217954   9.613   1.002   4.162 -0.7052  0.1834 -0.0365
 4788SOL     OW17955   5.261   1.703   4.341 -0.3890 -0.2875  0.7156
 4788SOL    HW117956   5.218   1.755   4.273  0.7751 -1.7039 -1.2267
 4788SOL    HW217957   5.354   1.724   4.332 -0.3960  2.1786  4.3502
 4789SOL     OW17958   8.401   0.656   6.038  0.7443 -0.1090  0.1943
 4789SOL    HW117959   8.373   0.699   5.958 -0.9726 -0.5107  0.5224
 4789SOL    HW217960   8.371   0.565   6.028  1.5226 -0.4505  0.8166
 4790SOL     OW17961   2.438   9.965   3.299 -0.1877 -0.2117  0.5501
 4790SOL    HW117962   2.413   9.917   3.378  2.1309 -0.0681  1.4721
 4790SOL    HW217963   2.502  10.030   3.330 -0.5738  1.0854 -1.1951
 4791SOL     OW17964   4.949   9.989   9.188  0.1126  0.5337 -0.4050
 4791SOL    HW117965   5.008   9.938   9.244 -2.5321 -0.5667  1.5689
 4791SOL    HW217966   4.923   9.928   9.119 -0.3280  0.3266 -0.0598
 4792SOL     OW17967   8.002  10.441   4.769  0.0509 -0.3529 -0.3578
 4792SOL    HW117968   8.048  10.444   4.685  0.8629 -0.2793  0.0762
 4792SOL    HW217969   7.969  10.530   4.782  0.6630 -0.1404 -0.2089
 4793SOL     OW17970   2.044   6.888   6.445  0.4209  0.3390 -0.5789
 4793SOL    HW117971   1.992   6.949   6.498 -0.0537 -0.3199 -0.2734
 4793SOL    HW217972   2.119   6.940   6.416 -1.3464  1.9075 -2.6584
 4794SOL     OW17973  10.413   1.469   1.594  0.0127 -0.4073  0.0293
 4794SOL    HW117974  10.498   1.457   1.637 -0.3244  0.5981  1.0205
 4794SOL    HW217975  10.364   1.389   1.614 -0.1720  0.0707  1.6613
 4795SOL     OW17976   7.995   1.368   1.132  0.0056 -0.4099  0.2419
 4795SOL    HW117977   7.928   1.380   1.199 -0.3065 -1.3033  0.1074
 4795SOL    HW217978   8.072   1.337   1.179 -0.0890 -0.6478  0.2430
 4796SOL     OW17979   7.655   5.714   1.471  0.4277  0.0256 -0.1204
 4796SOL    HW117980   7.652   5.628   1.428 -1.0705 -0.6034  1.1563
 4796SOL    HW217981   7.727   5.759   1.427  2.2773 -2.4001  0.1856
 4797SOL     OW17982   1.671  10.245   7.101 -0.3385  0.2584  0.6780
 4797SOL    HW117983   1.638  10.301   7.171 -1.3169 -1.0798  1.3525
 4797SOL    HW217984   1.602  10.245   7.035 -0.1308  0.2531  0.4611
 4798SOL     OW17985   6.296   3.452   9.007 -0.4593  0.0957 -0.2523
 4798SOL    HW117986   6.246   3.420   8.933 -1.8741 -1.2367  1.2110
 4798SOL    HW217987   6.382   3.411   8.998 -0.4374  0.3673 -1.3990
 4799SOL     OW17988   2.471   2.862   3.284  0.5198  0.5056  0.2863
 4799SOL    HW117989   2.532   2.875   3.211  0.5381  1.4266  0.4569
 4799SOL    HW217990   2.384   2.868   3.244  0.5283  1.1823  0.3639
 4800SOL     OW17991   8.309   8.265   6.600 -0.7520  0.4722  0.2296
 4800SOL    HW117992   8.340   8.216   6.676  0.8310  0.6769 -0.2462
 4800SOL    HW217993   8.281   8.197   6.537 -0.0935  0.2312  0.1928
 4801SOL     OW17994   9.822   4.383   8.132  0.0434  0.0458  0.5457
 4801SOL    HW117995   9.835   4.476   8.112 -0.8092  0.8230  3.2183
 4801SOL    HW217996   9.887   4.364   8.200 -0.0734 -1.2180  0.3216
 4802SOL     OW17997  10.304   6.181   5.310 -0.1872  0.5124 -0.0514
 4802SOL    HW117998  10.271   6.270   5.296 -1.2605  0.0641 -0.4824
 4802SOL    HW217999  10.248   6.146   5.380 -2.5838 -1.1854 -2.5848
 4803SOL     OW18000   3.083   0.927   0.230  0.5488  0.5294  0.3813
 4803SOL    HW118001   3.145   0.881   0.287  0.9702  0.2416 -0.2956
 4803SOL    HW218002   3.106   1.020   0.239 -0.7512  0.7371  2.2919
 4804SOL     OW18003   7.239   3.532   9.314  0.5225 -0.3000  0.0987
 4804SOL    HW118004   7.259   3.439   9.303  0.0548 -0.4123  0.1743
 4804SOL    HW218005   7.169   3.534   9.380  0.1393  0.0682 -0.3107
 4805SOL     OW18006   3.464   5.375   0.782 -0.1479  0.3813 -0.2431
 4805SOL    HW118007   3.376   5.404   0.758 -0.1144  0.0306 -0.8154
 4805SOL    HW218008   3.521   5.411   0.713  0.4584  2.2851  1.1712
 4806SOL     OW18009   7.635   1.845   2.239 -0.2594 -0.2636 -0.4594
 4806SOL    HW118010   7.615   1.839   2.146  0.1550  2.2490 -0.7884
 4806SOL    HW218011   7.672   1.933   2.250 -1.9068  0.2139  2.3538
 4807SOL     OW18012   7.174  10.541   6.059  0.3843 -0.6345  0.1369
 4807SOL    HW118013   7.117  10.559   5.985  0.1494 -0.9720  0.2311
 4807SOL    HW218014   7.173  10.621   6.111  1.4142  0.0115 -0.7762
 4808SOL     OW18015   7.882   9.714   5.293 -0.3390 -0.2394 -0.3737
 4808SOL    HW118016   7.824   9.699   5.367 -1.3219  0.3801 -0.9989
 4808SOL    HW218017   7.853   9.798   5.256  1.2602  0.3376 -0.4185
 4809SOL     OW18018   2.774   3.175   6.773 -0.0600 -0.1465  0.8518
 4809SOL    HW118019   2.796   3.253   6.722  0.9118 -0.1182  1.2859
 4809SOL    HW218020   2.806   3.194   6.861 -0.6458 -0.6724  1.1869
 4810SOL     OW18021   4.305   0.382   5.308  0.5515 -0.3200  0.0864
 4810SOL    HW118022   4.287   0.459   5.254 -1.8927  0.2132  1.5358
 4810SOL    HW218023   4.244   0.315   5.276 -0.1047 -0.3711  1.3935
 4811SOL     OW18024   2.052   0.191   3.383  0.6692  0.2474 -0.4977
 4811SOL    HW118025   2.133   0.174   3.334 -0.3187  0.3138 -2.2201
 4811SOL    HW218026   2.016   0.269   3.343 -0.9782 -0.6014 -0.7366
 4812SOL     OW18027   2.730   3.819   5.083  0.2898  0.6660 -1.1800
 4812SOL    HW118028   2.649   3.855   5.048  0.2964 -0.3590 -2.3160
 4812SOL    HW218029   2.713   3.807   5.177 -1.2507 -0.4681 -1.5714
 4813SOL     OW18030   3.996  10.770   6.804  0.2308  0.7481 -0.6375
 4813SOL    HW118031   4.083  10.730   6.812  0.1572  0.5455 -0.8565
 4813SOL    HW218032   3.946  10.733   6.876  0.3228  0.8659 -0.5097
 4814SOL     OW18033   2.535  10.615   3.591  0.3063  0.7517 -0.0828
 4814SOL    HW118034   2.577  10.545   3.641 -0.2733 -0.1629 -0.8262
 4814SOL    HW218035   2.524  10.686   3.654  1.0830  0.2482  0.6494
 4815SOL     OW18036   0.141   9.318   0.871 -0.6220 -0.0095 -0.4175
 4815SOL    HW118037   0.232   9.300   0.897 -0.4509  0.0485 -0.9664
 4815SOL    HW218038   0.121   9.251   0.807 -0.7279  0.4100 -0.8289
 4816SOL     OW18039   6.714   9.111   5.182 -0.0282  0.4968  0.7717
 4816SOL    HW118040   6.652   9.081   5.116  1.3721 -0.9590  0.0527
 4816SOL    HW218041   6.671   9.186   5.224 -2.3933 -0.6683  0.5507
 4817SOL     OW18042   9.215  10.219   1.749 -0.0916  0.5297 -0.5457
 4817SOL    HW118043   9.256  10.296   1.789  0.2008 -0.0208  0.2532
 4817SOL    HW218044   9.190  10.247   1.661  1.4251  1.0811 -0.8325
 4818SOL     OW18045  10.043   1.590  11.017  0.0744  0.0569 -0.9135
 4818SOL    HW118046   9.981   1.519  10.998  0.9844 -1.1136  0.2557
 4818SOL    HW218047  10.084   1.608  10.932 -0.5138 -0.4895 -1.3310
 4819SOL     OW18048  10.265   9.307   9.846 -0.3387 -0.5682  0.0266
 4819SOL    HW118049  10.259   9.358   9.926  0.5830  0.6989 -0.6753
 4819SOL    HW218050  10.262   9.216   9.875  0.6421 -0.1460  1.5587
 4820SOL     OW18051   9.331   1.882  10.995  0.4276 -0.7226 -0.1950
 4820SOL    HW118052   9.248   1.922  11.020  1.4083  0.5893  1.1286
 4820SOL    HW218053   9.325   1.870  10.900 -0.7500  0.5672 -0.3035
 4821SOL     OW18054  10.194   4.498  10.175  0.4401 -0.2154 -0.2435
 4821SOL    HW118055  10.181   4.578  10.226 -0.6208 -0.2388 -0.4565
 4821SOL    HW218056  10.213   4.431  10.240  3.9926  0.6541 -0.2001
 4822SOL     OW18057   7.952   7.393   7.677 -0.1027 -0.2959  0.2661
 4822SOL    HW118058   7.976   7.362   7.765 -0.1071 -0.5483  0.1780
 4822SOL    HW218059   7.863   7.425   7.687 -0.0004 -0.0522  0.4207
 4823SOL     OW18060  10.462   9.117   2.504 -0.2200 -0.4273 -0.0560
 4823SOL    HW118061  10.445   9.030   2.539  0.2139 -0.0566  1.1239
 4823SOL    HW218062  10.484   9.170   2.580 -0.5881  0.7500 -0.7417
 4824SOL     OW18063   6.715   3.947   9.395  0.2539 -0.0004  0.0107
 4824SOL    HW118064   6.625   3.977   9.383 -0.4190 -1.6814  0.4734
 4824SOL    HW218065   6.745   3.927   9.306 -0.8747 -2.0997  0.0197
 4825SOL     OW18066   8.364   7.419   8.246 -0.5040 -0.3929  0.1891
 4825SOL    HW118067   8.381   7.436   8.154 -0.5618 -0.3656  0.1836
 4825SOL    HW218068   8.274   7.449   8.260 -0.1827  0.4869  0.4718
 4826SOL     OW18069   1.630   9.555   7.978 -0.1597  0.6579 -0.0465
 4826SOL    HW118070   1.599   9.618   8.044  0.5028 -0.2638  1.1920
 4826SOL    HW218071   1.553   9.537   7.924 -0.6696  1.5908  0.3325
 4827SOL     OW18072   6.860   1.307   3.691 -0.2215 -0.2134  0.0326
 4827SOL    HW118073   6.937   1.316   3.747 -0.0751 -1.5986  0.0847
 4827SOL    HW218074   6.786   1.323   3.749 -0.1018 -2.2498  0.8359
 4828SOL     OW18075   7.128   3.967   5.475  0.7631  0.2660  0.3331
 4828SOL    HW118076   7.170   3.915   5.406 -1.8696 -0.7076 -0.6453
 4828SOL    HW218077   7.092   3.902   5.535 -0.6603  0.9984  0.3005
 4829SOL     OW18078   0.161   7.116   0.270  0.5332  0.0024 -0.0016
 4829SOL    HW118079   0.127   7.189   0.322 -2.2595 -0.2423 -1.2635
 4829SOL    HW218080   0.235   7.152   0.222 -0.4669  1.9039 -0.2060
 4830SOL     OW18081   8.999   0.773   9.123 -0.5659  0.0741  0.4741
 4830SOL    HW118082   9.070   0.753   9.184 -1.6386  0.4776  1.9065
 4830SOL    HW218083   8.983   0.691   9.077 -1.5448 -1.0614  2.6945
 4831SOL     OW18084   3.981   3.966   8.419  0.3293  0.1810 -0.0770
 4831SOL    HW118085   3.927   3.950   8.497 -1.1146  1.0163 -0.8732
 4831SOL    HW218086   4.018   3.880   8.398 -1.7868 -0.7510 -0.2759
 4832SOL     OW18087   3.679  10.565   6.815  0.4461 -0.2949 -0.1210
 4832SOL    HW118088   3.640  10.586   6.900 -0.0223 -0.1140 -0.3791
 4832SOL    HW218089   3.605  10.564   6.754  0.7502 -0.6362 -0.4882
 4833SOL     OW18090   5.947   1.583   3.150  0.3597 -0.8729 -0.6484
 4833SOL    HW118091   5.992   1.605   3.068 -2.2508 -0.4516 -2.0549
 4833SOL    HW218092   5.937   1.487   3.147  2.2369 -1.1455  0.3239
 4834SOL     OW18093   4.277   8.839   9.777 -0.7017 -0.1388 -0.7557
 4834SOL    HW118094   4.253   8.747   9.788  0.8285 -0.3904  0.8461
 4834SOL    HW218095   4.358   8.837   9.726 -0.3375  0.2616 -0.2081
 4835SOL     OW18096   6.061   9.285   6.043  0.0792 -0.0136 -0.1224
 4835SOL    HW118097   6.039   9.259   5.953 -2.5149  0.5121  0.2810
 4835SOL    HW218098   6.128   9.222   6.070  1.7152  0.4465 -2.7301
 4836SOL     OW18099   0.738   3.267   9.763  0.1783 -0.1283 -0.4935
 4836SOL    HW118100   0.795   3.245   9.837  0.1031 -1.3133 -0.7726
 4836SOL    HW218101   0.797   3.308   9.699  0.4708 -0.1716 -0.2548
 4837SOL     OW18102   1.081   4.241   8.421 -0.1785 -0.3958  0.1024
 4837SOL    HW118103   1.043   4.276   8.501  0.5166  0.3088  0.1416
 4837SOL    HW218104   1.157   4.190   8.450 -1.4874 -2.4744  0.0932
 4838SOL     OW18105   5.280   1.363   9.088  0.2997 -0.0330  0.1710
 4838SOL    HW118106   5.314   1.290   9.036  3.1562 -0.4002  2.3163
 4838SOL    HW218107   5.300   1.441   9.036 -0.3093 -0.5615 -0.9001
 4839SOL     OW18108   0.570   2.666   7.021 -0.6541 -0.3981 -0.4888
 4839SOL    HW118109   0.622   2.729   6.970 -0.0022  0.9022  1.6546
 4839SOL    HW218110   0.533   2.607   6.955  1.8755 -0.1459 -2.2970
 4840SOL     OW18111   1.690   4.518  10.503  0.4814  0.6918  0.6310
 4840SOL    HW118112   1.660   4.606  10.478 -1.3611  0.9784  3.3336
 4840SOL    HW218113   1.622   4.459  10.471  1.0411  0.4014 -0.0288
 4841SOL     OW18114   9.351   3.453   4.685 -1.0842 -0.2549 -0.1433
 4841SOL    HW118115   9.268   3.500   4.679 -0.3628  1.3135  1.4370
 4841SOL    HW218116   9.417   3.516   4.656 -0.2985 -1.0141 -0.0422
 4842SOL     OW18117   2.082  10.106  10.561  0.0536  0.4537  0.1177
 4842SOL    HW118118   2.168  10.063  10.566  0.4214  1.0567 -0.7574
 4842SOL    HW218119   2.062  10.107  10.467 -0.9438  0.2676  0.3231
 4843SOL     OW18120   5.507   9.150   7.992  0.0661  0.0092 -0.1576
 4843SOL    HW118121   5.530   9.084   7.926 -0.3195 -0.1333 -0.1538
 4843SOL    HW218122   5.578   9.146   8.056  0.8884  0.7434 -0.9955
 4844SOL     OW18123   1.514   3.421   6.729 -0.1133 -0.0154  0.0433
 4844SOL    HW118124   1.507   3.428   6.634  0.2458 -0.1765  0.0014
 4844SOL    HW218125   1.599   3.379   6.743  0.9070  2.0900  0.5010
 4845SOL     OW18126   5.841   5.754   1.028 -0.0436 -0.2060 -0.6319
 4845SOL    HW118127   5.898   5.694   0.979 -0.7996 -0.3304 -1.3912
 4845SOL    HW218128   5.757   5.748   0.983 -0.3860  0.7241 -0.1354
 4846SOL     OW18129   4.157   4.207   1.879 -0.4377  0.2023 -0.3263
 4846SOL    HW118130   4.232   4.147   1.882  0.2948  1.0974  2.1096
 4846SOL    HW218131   4.117   4.192   1.794  1.9223 -1.0443 -1.3095
 4847SOL     OW18132   0.391   5.210   4.349  0.2477 -1.1692 -0.0620
 4847SOL    HW118133   0.337   5.131   4.352 -1.4934 -0.0980 -1.4044
 4847SOL    HW218134   0.351   5.264   4.281  3.1293 -0.3370 -1.2416
 4848SOL     OW18135   2.194   2.326   7.061 -0.0131 -0.2876  0.2319
 4848SOL    HW118136   2.253   2.397   7.088 -0.8019  0.2425  0.6012
 4848SOL    HW218137   2.167   2.285   7.144  1.3199 -1.7836 -0.0100
 4849SOL     OW18138   6.926   3.980   5.926 -0.2940 -0.2205 -0.1689
 4849SOL    HW118139   6.855   3.916   5.921 -1.1003  0.6040  0.4685
 4849SOL    HW218140   6.894   4.047   5.986  1.6916 -0.6714  1.5216
 4850SOL     OW18141   7.009   0.459   5.454 -0.0149 -0.8443  0.0869
 4850SOL    HW118142   6.923   0.493   5.479  0.6944  1.6616 -0.5179
 4850SOL    HW218143   7.046   0.426   5.536 -0.1802  1.3975  1.1399
 4851SOL     OW18144   6.962  10.542   7.638  0.4805  0.9763 -0.3418
 4851SOL    HW118145   6.995  10.476   7.699 -0.1163 -0.7269 -1.7839
 4851SOL    HW218146   6.995  10.625   7.672  0.3219  0.0876  2.1865
 4852SOL     OW18147   1.330   2.490   5.215 -0.4045 -0.1952  1.0459
 4852SOL    HW118148   1.286   2.432   5.276  0.4020  0.0503  1.8733
 4852SOL    HW218149   1.404   2.526   5.264  0.8993 -0.8109 -0.3942
 4853SOL     OW18150   1.769   3.728   5.170  0.0357  0.0251 -0.2350
 4853SOL    HW118151   1.843   3.715   5.230 -0.5374  0.2149  0.5203
 4853SOL    HW218152   1.747   3.820   5.179 -0.6710 -0.1614 -0.0085
 4854SOL     OW18153   2.368   0.230  10.384 -0.2806  0.1521  0.4848
 4854SOL    HW118154   2.274   0.243  10.374 -0.3476  0.4622  1.4348
 4854SOL    HW218155   2.389   0.270  10.468  0.9435  1.3266 -0.3477
 4855SOL     OW18156   8.661   6.821   1.422  0.4526  0.2797 -0.6067
 4855SOL    HW118157   8.581   6.871   1.407  0.5545  0.0801 -1.8893
 4855SOL    HW218158   8.716   6.838   1.346  1.2288 -0.3752 -0.2183
 4856SOL     OW18159   6.887  10.002   9.780 -0.0015  0.4588 -0.0260
 4856SOL    HW118160   6.858  10.034   9.866  1.3636 -0.0736  0.6602
 4856SOL    HW218161   6.888   9.907   9.790  2.3342  0.4426  0.1494
 4857SOL     OW18162   0.665   3.092   0.562  0.2945 -0.2283  0.6182
 4857SOL    HW118163   0.570   3.083   0.564  0.2839 -1.7694 -2.3008
 4857SOL    HW218164   0.698   3.002   0.556  1.9178  0.3060  0.9583
 4858SOL     OW18165   1.579   8.593   4.533  0.3330 -0.0888 -0.4419
 4858SOL    HW118166   1.652   8.653   4.547 -0.1968  0.9919 -2.0189
 4858SOL    HW218167   1.501   8.648   4.538 -0.5571 -1.3950  2.3818
 4859SOL     OW18168   2.647   2.415   2.845 -0.5349 -0.1109  0.0670
 4859SOL    HW118169   2.735   2.381   2.833 -1.0175 -1.4159  0.0275
 4859SOL    HW218170   2.655   2.480   2.914  0.0661 -2.0080  1.8810
 4860SOL     OW18171   3.502   1.857   9.863  0.0111 -0.1071  0.3807
 4860SOL    HW118172   3.427   1.894   9.817  1.1808 -0.1274 -1.6574
 4860SOL    HW218173   3.476   1.858   9.956 -2.2730  0.3377 -0.1976
 4861SOL     OW18174   9.097   4.062   9.159 -0.6590 -0.2358 -0.0355
 4861SOL    HW118175   9.047   4.099   9.232 -1.2732 -1.2500  0.0802
 4861SOL    HW218176   9.119   3.973   9.188 -0.0475 -0.3059 -0.6864
 4862SOL     OW18177   4.962   8.231   0.666  0.6337  0.0107  0.0440
 4862SOL    HW118178   5.009   8.222   0.582 -0.3040 -3.3662 -0.2649
 4862SOL    HW218179   4.963   8.325   0.683  0.9182  0.8884 -3.7415
 4863SOL     OW18180   3.007   1.213   7.091  0.2407 -0.1166  0.1038
 4863SOL    HW118181   3.013   1.165   7.008  1.4632  2.7014 -1.6097
 4863SOL    HW218182   2.932   1.272   7.079  0.2696  0.1452  1.1267
 4864SOL     OW18183   0.775   5.892   7.731  0.2893  0.4720 -0.1169
 4864SOL    HW118184   0.767   5.877   7.825  0.5767  2.0423  0.1757
 4864SOL    HW218185   0.697   5.943   7.708 -0.3819 -0.8570 -0.9811
 4865SOL     OW18186   3.118   2.876   2.829  0.1765 -0.1136 -0.0571
 4865SOL    HW118187   3.031   2.861   2.867  0.2274  1.2818  0.6623
 4865SOL    HW218188   3.131   2.801   2.771 -2.0540  0.2796 -1.2095
 4866SOL     OW18189  10.142   8.925   4.595  0.9874 -0.8306 -0.0995
 4866SOL    HW118190  10.188   8.922   4.511  2.8346 -0.2779  0.8246
 4866SOL    HW218191  10.212   8.922   4.661  0.0440  3.3703  1.4037
 4867SOL     OW18192   8.349   3.105   3.213 -0.1636  0.3460 -0.1486
 4867SOL    HW118193   8.418   3.060   3.262  0.8902  1.0224 -0.9608
 4867SOL    HW218194   8.299   3.153   3.280  0.9650  0.8916  0.3345
 4868SOL     OW18195   9.767   8.940   5.293 -0.1303 -0.6115 -0.6459
 4868SOL    HW118196   9.734   9.030   5.301 -0.3813 -0.8113  0.7749
 4868SOL    HW218197   9.704   8.896   5.237 -0.7005 -0.2278 -0.3138
 4869SOL     OW18198   0.045   6.819  10.558  0.1429  0.0470  0.4311
 4869SOL    HW118199   0.076   6.887  10.619  0.7697 -1.2040  1.5712
 4869SOL    HW218200  -0.050   6.819  10.569  0.1616  0.5572  0.6256
 4870SOL     OW18201   7.505   5.647   9.383  0.7696 -0.2009  0.1086
 4870SOL    HW118202   7.549   5.699   9.450  0.7909 -0.3324  0.1960
 4870SOL    HW218203   7.548   5.672   9.301  0.0899  0.6910  0.0073
 4871SOL     OW18204   6.450  11.026   5.759 -0.0153 -0.5237 -0.0639
 4871SOL    HW118205   6.463  11.112   5.720  1.9020 -1.4165 -1.5816
 4871SOL    HW218206   6.361  11.001   5.732 -0.6250  0.9705  0.4724
 4872SOL     OW18207   2.792  11.078   4.191  0.3648  0.1792  0.2438
 4872SOL    HW118208   2.697  11.084   4.187  0.2422 -1.1412  0.5434
 4872SOL    HW218209   2.812  11.070   4.284  0.6812 -0.4458  0.1328
 4873SOL     OW18210   2.008   0.797   8.668  0.0167  0.0576  0.1708
 4873SOL    HW118211   2.035   0.839   8.587  2.9585 -1.3450  0.3152
 4873SOL    HW218212   2.077   0.819   8.731 -1.0113 -0.7661  1.6610
 4874SOL     OW18213   0.990   8.648   7.266  0.6302 -0.1729  0.3785
 4874SOL    HW118214   1.058   8.687   7.210  0.9327 -1.1110  0.0768
 4874SOL    HW218215   0.954   8.723   7.314  0.1521  0.7221 -1.2704
 4875SOL     OW18216  10.100   0.331   6.718 -0.1852 -0.3939  0.0854
 4875SOL    HW118217  10.080   0.268   6.649 -0.9097  0.0604 -0.1324
 4875SOL    HW218218  10.023   0.388   6.721 -0.5274 -0.8892  1.8266
 4876SOL     OW18219   4.143   1.667   4.845 -0.2135  0.0915  0.2225
 4876SOL    HW118220   4.160   1.648   4.937 -0.0759  2.5860  0.7730
 4876SOL    HW218221   4.222   1.635   4.800 -0.4337 -1.4722  0.8796
 4877SOL     OW18222   1.990   6.004   5.329 -0.2975 -0.3905  0.3679
 4877SOL    HW118223   2.053   6.049   5.385 -1.5520  1.2719  0.5141
 4877SOL    HW218224   1.934   6.073   5.294 -1.8396 -1.7609 -0.0413
 4878SOL     OW18225   8.959   1.709   3.570  0.2298  0.0006 -0.4235
 4878SOL    HW118226   8.893   1.758   3.619 -1.8703  0.9625 -3.8773
 4878SOL    HW218227   9.024   1.775   3.545  0.2616 -0.0723 -0.5319
 4879SOL     OW18228   2.329   0.349   6.687 -0.2596 -0.5737  0.2334
 4879SOL    HW118229   2.237   0.375   6.680 -0.1185 -0.1324  0.0219
 4879SOL    HW218230   2.361   0.392   6.765  0.3372  1.0101 -0.8493
 4880SOL     OW18231   5.653   4.372   3.181  0.0294 -0.0775 -0.1403
 4880SOL    HW118232   5.688   4.378   3.093 -2.1855  0.1876 -1.0674
 4880SOL    HW218233   5.646   4.278   3.198  0.7031 -0.1304 -0.1008
 4881SOL     OW18234   7.478   9.553  10.792  0.2236  0.3065 -0.2326
 4881SOL    HW118235   7.511   9.533  10.880  0.4651 -1.1107 -0.6134
 4881SOL    HW218236   7.476   9.649  10.788 -0.1150  0.4047  1.4297
 4882SOL     OW18237   0.041   1.729   5.095 -0.0466 -0.0374 -0.2982
 4882SOL    HW118238  -0.043   1.703   5.057 -0.0050 -0.5014 -0.0760
 4882SOL    HW218239   0.035   1.824   5.104 -0.7803 -0.1276  0.2696
 4883SOL     OW18240   3.733   9.552   8.014  0.4488  0.1004  0.4293
 4883SOL    HW118241   3.818   9.587   8.038 -0.4175  1.5772  1.4801
 4883SOL    HW218242   3.728   9.563   7.920  0.5564  2.0775  0.6199
 4884SOL     OW18243  10.358   7.065   7.529 -0.2121  0.0080  0.3362
 4884SOL    HW118244  10.329   7.149   7.566 -1.1374 -0.2869  0.3066
 4884SOL    HW218245  10.418   7.030   7.595 -0.1103  0.5256  0.5236
 4885SOL     OW18246   1.628   6.878  10.420  0.1037 -0.0346  0.3501
 4885SOL    HW118247   1.590   6.967  10.420 -1.0702 -0.5130  0.3062
 4885SOL    HW218248   1.722   6.892  10.426 -0.0608  1.2236  0.2899
 4886SOL     OW18249   7.450   5.792   1.627  0.4303  0.0760  0.7245
 4886SOL    HW118250   7.509   5.753   1.562 -0.7275 -2.1288  0.9362
 4886SOL    HW218251   7.425   5.720   1.684 -2.4054  0.9475  0.7146
 4887SOL     OW18252   7.298   0.350   5.028 -0.0728  0.1557  0.0639
 4887SOL    HW118253   7.280   0.440   4.998  1.6458  0.7802  0.7699
 4887SOL    HW218254   7.254   0.344   5.113 -0.4606  0.2051 -0.1274
 4888SOL     OW18255   9.744   9.068   5.699 -0.8521  0.1419 -0.4210
 4888SOL    HW118256   9.678   9.085   5.766  0.5964  1.2996  0.7714
 4888SOL    HW218257   9.756   8.973   5.701 -1.6044  0.0475  0.1885
 4889SOL     OW18258   4.156   9.882   5.771 -0.0375 -0.2661 -0.5368
 4889SOL    HW118259   4.176   9.934   5.693 -0.2524 -2.2557 -2.0117
 4889SOL    HW218260   4.137   9.794   5.736  1.6232 -1.7061  1.9052
 4890SOL     OW18261  10.337  10.838   5.652  0.0682 -0.2612  0.3408
 4890SOL    HW118262  10.367  10.797   5.571 -0.0464  0.1939  0.0618
 4890SOL    HW218263  10.414  10.884   5.685  0.0227 -0.1631  0.3100
 4891SOL     OW18264   5.991   7.405   7.639 -0.0108 -0.0506  0.4085
 4891SOL    HW118265   6.057   7.400   7.708 -0.2185  0.0978  0.6229
 4891SOL    HW218266   6.040   7.423   7.559  0.1595  0.6536  0.6622
 4892SOL     OW18267   4.427   1.710   7.268  0.1498  0.1351 -0.1125
 4892SOL    HW118268   4.482   1.667   7.203  0.3638 -1.4038  1.0130
 4892SOL    HW218269   4.445   1.803   7.257  2.7526 -0.2714 -0.0316
 4893SOL     OW18270  10.509   3.150   2.723 -0.6665 -0.2029 -0.1167
 4893SOL    HW118271  10.588   3.201   2.708  0.1059 -0.4414  2.6678
 4893SOL    HW218272  10.454   3.206   2.777 -1.6468 -0.7232 -0.5506
 4894SOL     OW18273   2.904  11.066   1.405 -0.3684 -0.5091 -0.2036
 4894SOL    HW118274   2.998  11.062   1.424 -0.1664  3.1566  0.3296
 4894SOL    HW218275   2.862  11.035   1.485  0.4751  1.4213  1.0629
 4895SOL     OW18276   2.220   8.240   8.466 -0.1034 -0.1249 -0.5530
 4895SOL    HW118277   2.309   8.222   8.436 -0.9588 -0.5020 -3.0843
 4895SOL    HW218278   2.179   8.154   8.473 -1.0242  0.1554 -2.0883
 4896SOL     OW18279   7.399   4.525   1.891  0.2662 -0.0374 -0.1667
 4896SOL    HW118280   7.370   4.608   1.928 -0.0666 -0.1143 -0.2496
 4896SOL    HW218281   7.476   4.547   1.839  1.5384 -0.1088  1.6053
 4897SOL     OW18282   4.202   2.268   7.482  0.4837 -0.2149  0.1348
 4897SOL    HW118283   4.133   2.238   7.423  1.0612 -0.9575 -0.1878
 4897SOL    HW218284   4.156   2.301   7.559 -0.2153 -1.0608  0.0889
 4898SOL     OW18285   3.004   4.296   9.904  0.1161  0.0175  0.4139
 4898SOL    HW118286   2.961   4.382   9.901 -0.9920 -0.4610  1.6481
 4898SOL    HW218287   2.961   4.250   9.975  2.4765 -0.6251  1.5489
 4899SOL     OW18288   6.067   0.448   7.774  0.0764 -0.2341  0.6899
 4899SOL    HW118289   6.001   0.516   7.771 -0.7695 -0.9905 -2.7806
 4899SOL    HW218290   6.150   0.495   7.785 -0.7265  1.0103  1.6520
 4900SOL     OW18291   5.830  10.280   2.567 -0.2845 -0.2215 -0.5085
 4900SOL    HW118292   5.816  10.194   2.527  3.1849 -1.4609  0.5720
 4900SOL    HW218293   5.754  10.292   2.625 -1.2741 -2.1613 -1.3041
 4901SOL     OW18294   9.525  10.832   6.216 -0.1417 -0.0631  0.1587
 4901SOL    HW118295   9.495  10.784   6.138 -0.1554  0.0792  0.0762
 4901SOL    HW218296   9.548  10.919   6.183  0.0976 -0.0837  0.2695
 4902SOL     OW18297   2.239   2.298   4.112  0.0118 -0.1037 -0.0569
 4902SOL    HW118298   2.167   2.361   4.109 -0.3351 -0.4637 -3.4038
 4902SOL    HW218299   2.311   2.346   4.153 -1.5642  0.8642  1.6987
 4903SOL     OW18300   4.519   0.249   0.282 -0.0466 -0.1596  1.0830
 4903SOL    HW118301   4.500   0.156   0.278 -0.2778 -0.1296  1.3802
 4903SOL    HW218302   4.540   0.274   0.192  2.8020 -1.0402  1.4156
 4904SOL     OW18303   2.005  10.200   2.130 -0.2190 -0.3458 -0.0909
 4904SOL    HW118304   1.964  10.178   2.213  0.3181  0.1434  0.3131
 4904SOL    HW218305   1.975  10.289   2.111  0.9702  0.1859  0.4266
 4905SOL     OW18306   7.050   6.163   2.774 -0.3141  0.3079 -0.1461
 4905SOL    HW118307   7.111   6.236   2.760 -1.8283  1.8972  1.0477
 4905SOL    HW218308   7.088   6.114   2.847  0.4186  0.2175 -0.5758
 4906SOL     OW18309  10.167   7.044   0.647 -0.4120  0.2535  0.4585
 4906SOL    HW118310  10.076   7.014   0.646 -0.1719 -0.4845  0.5546
 4906SOL    HW218311  10.219   6.965   0.659  0.2601  0.6450  0.2096
 4907SOL     OW18312   4.011   1.916   0.891 -0.2214  0.1704 -0.0517
 4907SOL    HW118313   3.996   1.993   0.945 -0.1670  0.8538 -0.9854
 4907SOL    HW218314   3.985   1.842   0.946 -1.6082  0.9394  0.3672
 4908SOL     OW18315  10.249   6.883   1.766 -0.5869 -0.4244  0.1379
 4908SOL    HW118316  10.186   6.900   1.836  0.7181 -0.2475  1.3078
 4908SOL    HW218317  10.305   6.814   1.800  0.3889  0.0129 -0.5178
 4909SOL     OW18318   7.899   3.483   0.681  0.7941 -0.3498  0.2604
 4909SOL    HW118319   7.913   3.576   0.700  1.6103 -0.0653 -1.5179
 4909SOL    HW218320   7.987   3.449   0.662  0.1033 -0.1930 -4.3106
 4910SOL     OW18321   7.747   3.940   9.983 -0.1990  0.0841 -0.0815
 4910SOL    HW118322   7.731   4.009   9.919  0.0843  1.7189  1.5335
 4910SOL    HW218323   7.835   3.908   9.961  0.2141  1.1587 -0.0451
 4911SOL     OW18324   9.344   6.995   0.292  0.4214  0.4243  0.1714
 4911SOL    HW118325   9.355   7.011   0.198  2.7074  0.9778  0.4633
 4911SOL    HW218326   9.367   6.903   0.304  3.4811  1.1205  0.5253
 4912SOL     OW18327   1.444   6.633   2.271 -0.2596 -0.1220 -0.3658
 4912SOL    HW118328   1.445   6.727   2.250  2.2702 -0.4940 -2.4794
 4912SOL    HW218329   1.352   6.608   2.267 -0.8956  2.0688 -0.7252
 4913SOL     OW18330   6.229   0.140   6.982  0.6774  0.0033  0.1698
 4913SOL    HW118331   6.284   0.129   7.059  0.4869  2.4092  0.7320
 4913SOL    HW218332   6.150   0.184   7.014 -0.8225 -1.7491 -0.9145
 4914SOL     OW18333  10.617   5.473   2.141  0.1845 -0.1991 -0.4486
 4914SOL    HW118334  10.660   5.544   2.189  1.6753 -0.8921 -0.7098
 4914SOL    HW218335  10.535   5.512   2.111 -0.2080  0.6246  1.5647
 4915SOL     OW18336   0.256   8.048   6.319 -0.2787  0.2593  0.0712
 4915SOL    HW118337   0.217   8.029   6.405  0.0180  1.6827  0.5441
 4915SOL    HW218338   0.181   8.068   6.263 -0.6058 -2.1491 -0.4504
 4916SOL     OW18339  10.292   6.023   6.342 -0.2710 -0.1211 -0.0835
 4916SOL    HW118340  10.240   6.030   6.422  2.0289 -1.6410  1.6716
 4916SOL    HW218341  10.341   6.106   6.338  0.9605 -0.7454  1.1710
 4917SOL     OW18342   5.261  10.110   7.408  0.7789  0.2711 -0.7997
 4917SOL    HW118343   5.245  10.195   7.366 -1.6611  0.0369 -0.5196
 4917SOL    HW218344   5.248  10.127   7.501  0.1623 -0.4061 -0.7527
 4918SOL     OW18345   8.455   0.989   6.445  0.0804 -0.1134  0.1894
 4918SOL    HW118346   8.467   1.051   6.373  0.3475  0.8982  1.0825
 4918SOL    HW218347   8.363   0.999   6.470 -0.0900 -0.6781 -0.1892
 4919SOL     OW18348   6.026   5.627   8.321  0.3542 -0.4077  0.5861
 4919SOL    HW118349   6.028   5.550   8.378  1.3548 -0.9693 -0.1836
 4919SOL    HW218350   6.055   5.699   8.377  0.3162 -0.7599  1.0664
 4920SOL     OW18351   5.069   9.061   5.929  0.6439  0.2658 -0.6037
 4920SOL    HW118352   5.032   8.974   5.917  0.2873  0.3352 -0.0300
 4920SOL    HW218353   5.148   9.061   5.875  1.1146 -0.6971  0.0601
 4921SOL     OW18354   5.012   5.831   7.905  0.1572  0.6905 -0.2283
 4921SOL    HW118355   5.095   5.853   7.949  0.8245 -0.4258 -0.8957
 4921SOL    HW218356   4.979   5.755   7.952  0.4647 -0.0138 -1.1409
 4922SOL     OW18357   0.937   8.949   5.617  0.0301 -0.2389  0.2329
 4922SOL    HW118358   0.998   9.019   5.592 -0.4434 -0.0227 -0.3514
 4922SOL    HW218359   0.857   8.995   5.644  0.0096 -0.5284  0.6728
 4923SOL     OW18360   5.731   2.403   7.308  0.4306  0.0656 -1.1207
 4923SOL    HW118361   5.715   2.324   7.255  1.1035 -0.3410 -0.7292
 4923SOL    HW218362   5.720   2.475   7.246 -2.4082 -0.1635 -1.0116
 4924SOL     OW18363   0.759   5.850  10.923 -0.2040 -0.6161  0.1099
 4924SOL    HW118364   0.751   5.919  10.989  2.8635 -0.5462  0.5807
 4924SOL    HW218365   0.793   5.894  10.845 -0.0903 -1.2808 -0.2257
 4925SOL     OW18366   0.548   3.486   9.995  0.2954 -0.6355  0.1476
 4925SOL    HW118367   0.555   3.411   9.936 -0.7553 -0.0301 -0.7791
 4925SOL    HW218368   0.487   3.457  10.063  0.4430 -0.8570  0.1878
 4926SOL     OW18369   8.331   4.092   5.199  0.1615  0.8885 -0.1406
 4926SOL    HW118370   8.426   4.080   5.191  0.2400  0.2648  1.4389
 4926SOL    HW218371   8.294   4.018   5.152  0.4825  0.2781  0.5637
 4927SOL     OW18372   5.630   4.733   3.511 -0.4588 -0.5193  0.1593
 4927SOL    HW118373   5.603   4.653   3.556  0.7533 -0.7847  0.4465
 4927SOL    HW218374   5.593   4.724   3.423 -0.4504 -1.3358  0.2337
 4928SOL     OW18375   2.566   4.262  10.539  0.0074 -0.0358 -0.2428
 4928SOL    HW118376   2.655   4.279  10.568  0.1344 -1.2211  0.0982
 4928SOL    HW218377   2.571   4.178  10.494 -0.9949 -0.2514  0.0245
 4929SOL     OW18378   0.281   1.231   0.385  0.1494 -0.3823  0.5991
 4929SOL    HW118379   0.213   1.181   0.428  2.1656 -1.9114  2.1964
 4929SOL    HW218380   0.319   1.285   0.455  0.6008  0.4425 -0.2564
 4930SOL     OW18381   3.626   2.246   4.744 -0.0261  0.8858  0.5966
 4930SOL    HW118382   3.601   2.187   4.673  0.5662  0.9010  0.3724
 4930SOL    HW218383   3.588   2.207   4.823 -3.1061  2.2750 -0.0131
 4931SOL     OW18384   4.620   1.268   2.542  0.5578  0.0834 -0.0634
 4931SOL    HW118385   4.691   1.247   2.602  1.1691 -0.7100 -1.0371
 4931SOL    HW218386   4.590   1.183   2.510 -0.9367  0.3940  0.4341
 4932SOL     OW18387  10.918   6.076   5.232 -0.2033  0.0011  0.0867
 4932SOL    HW118388  10.904   6.106   5.142  0.6369 -0.1128 -0.0969
 4932SOL    HW218389  10.974   6.143   5.271 -1.7364  0.8060  0.9997
 4933SOL     OW18390   5.554  10.241  10.005  0.4629 -0.7480 -0.1609
 4933SOL    HW118391   5.503  10.229   9.924 -0.0020 -0.4623  0.0859
 4933SOL    HW218392   5.622  10.304   9.981 -1.4606  1.7142  0.4076
 4934SOL     OW18393   0.016   0.770   0.063 -0.2689  0.7128 -0.3013
 4934SOL    HW118394   0.042   0.706  -0.003 -0.0428  2.0781 -1.6019
 4934SOL    HW218395   0.096   0.785   0.114 -0.1060  0.5307 -0.5010
 4935SOL     OW18396  10.185   6.357   5.036 -0.7722  0.8675  0.0121
 4935SOL    HW118397  10.193   6.379   5.129  0.8917  1.6141 -0.2665
 4935SOL    HW218398  10.273   6.371   5.001 -0.2137 -3.4949 -0.8360
 4936SOL     OW18399  11.092  10.369   6.309  0.3724 -0.3132  0.6028
 4936SOL    HW118400  11.024  10.320   6.354  0.2611  0.2745  1.0978
 4936SOL    HW218401  11.098  10.451   6.358  1.8068 -0.5713  0.9069
 4937SOL     OW18402   8.152   7.340   7.483 -0.1140  0.4052 -0.9202
 4937SOL    HW118403   8.102   7.381   7.554  0.3668 -0.4330 -0.0687
 4937SOL    HW218404   8.232   7.309   7.526  0.1742 -0.1335 -1.8340
 4938SOL     OW18405   7.221   6.478   6.450 -0.6504  0.4588  0.2229
 4938SOL    HW118406   7.303   6.442   6.415  0.0207  1.3345  0.8476
 4938SOL    HW218407   7.213   6.563   6.408 -0.6537  0.8537  1.0130
 4939SOL     OW18408   2.990   4.764   0.055 -0.1116  0.3703  0.4921
 4939SOL    HW118409   3.027   4.679   0.035 -2.0349 -0.5535  0.6263
 4939SOL    HW218410   3.065   4.823   0.058  1.3629 -1.4475  1.1703
 4940SOL     OW18411   7.335   4.245   0.617 -0.5441 -0.4669 -0.4047
 4940SOL    HW118412   7.383   4.165   0.593 -0.0828 -1.1715  2.5358
 4940SOL    HW218413   7.243   4.222   0.606 -0.3820 -0.9469 -0.8141
 4941SOL     OW18414  10.057   0.538   9.062 -0.0245  0.5113  0.0929
 4941SOL    HW118415  10.008   0.508   9.138 -0.4061  1.6370  0.3078
 4941SOL    HW218416  10.028   0.628   9.048  2.3013  1.3941  0.5236
 4942SOL     OW18417   9.876   1.381   6.448 -0.3281  0.0413 -0.1725
 4942SOL    HW118418   9.969   1.389   6.472 -0.3902 -1.2344  0.6166
 4942SOL    HW218419   9.875   1.394   6.353  1.0558 -2.2754 -0.5997
 4943SOL     OW18420   4.615   5.472   0.133 -0.0003  0.1824 -0.0096
 4943SOL    HW118421   4.522   5.469   0.112 -0.6495  0.9165  2.4665
 4943SOL    HW218422   4.618   5.481   0.228  2.6235 -0.6779  0.0711
 4944SOL     OW18423   3.270   2.492   5.530  0.7377 -0.0793 -0.5203
 4944SOL    HW118424   3.278   2.545   5.451 -0.6592  0.2066 -0.4930
 4944SOL    HW218425   3.249   2.405   5.498 -0.7748  0.2340 -0.4803
 4945SOL     OW18426   7.927   6.059   7.009 -0.1621 -0.4320 -0.2074
 4945SOL    HW118427   7.926   5.994   7.079 -1.3883 -0.0691  0.1367
 4945SOL    HW218428   7.947   6.009   6.930 -4.3596 -1.9261 -0.5349
 4946SOL     OW18429   3.338   8.216   9.220 -0.0097 -0.0260 -0.1337
 4946SOL    HW118430   3.243   8.231   9.213 -0.2106 -0.6981  0.9491
 4946SOL    HW218431   3.371   8.231   9.131 -0.9624  1.2827 -0.2974
 4947SOL     OW18432   9.736   3.404   6.169  0.0409 -0.0468  0.2540
 4947SOL    HW118433   9.742   3.360   6.084 -0.5797  0.3541 -0.0062
 4947SOL    HW218434   9.655   3.454   6.164 -0.3190 -0.5024  1.3200
 4948SOL     OW18435   6.164   8.125   1.910  0.2251 -0.5793 -0.0048
 4948SOL    HW118436   6.175   8.049   1.967 -0.5340 -0.8088 -0.1530
 4948SOL    HW218437   6.075   8.117   1.876  1.0378 -1.0933 -2.1633
 4949SOL     OW18438   5.382   7.150   0.863 -0.0520  0.5221  0.1625
 4949SOL    HW118439   5.356   7.231   0.907  2.3426  1.5456 -0.1429
 4949SOL    HW218440   5.344   7.156   0.775 -0.1075  1.1757  0.2314
 4950SOL     OW18441   9.153   1.849   2.331  0.0782  0.3351 -0.1329
 4950SOL    HW118442   9.117   1.929   2.294  0.3446 -0.2460 -1.7516
 4950SOL    HW218443   9.227   1.879   2.385  0.3976  1.1541 -0.9988
 4951SOL     OW18444   5.239   3.192   9.652 -0.2639 -0.0630 -0.1355
 4951SOL    HW118445   5.222   3.256   9.583 -1.0008 -0.7835 -0.6347
 4951SOL    HW218446   5.250   3.109   9.605  2.5178 -0.0559  0.3151
 4952SOL     OW18447   2.027   0.355   2.221  0.3275 -0.4607 -0.5911
 4952SOL    HW118448   1.963   0.418   2.255 -0.0313 -0.9259 -0.3938
 4952SOL    HW218449   2.110   0.383   2.258  0.0191 -0.6653  0.2836
 4953SOL     OW18450   5.067   8.069   6.293 -0.1733 -0.7829 -0.4032
 4953SOL    HW118451   5.013   8.011   6.347 -1.5485 -0.6005 -1.5247
 4953SOL    HW218452   5.056   8.155   6.333 -1.2882 -0.6263 -0.9934
 4954SOL     OW18453   6.783   4.812  10.504 -0.2584  0.7427 -0.4280
 4954SOL    HW118454   6.745   4.773  10.583 -0.5949  0.4785 -0.7158
 4954SOL    HW218455   6.838   4.744  10.467 -0.7794  0.5592 -0.8850
 4955SOL     OW18456  10.189   6.695   1.434  0.2732 -0.7768 -0.2775
 4955SOL    HW118457  10.162   6.604   1.449  0.5817 -0.8405 -0.0814
 4955SOL    HW218458  10.124   6.747   1.482 -1.0341 -0.7887 -1.9743
 4956SOL     OW18459   2.961   1.337   4.268  0.2941 -0.4693 -0.2216
 4956SOL    HW118460   3.004   1.335   4.183 -1.5848  0.8829 -1.2777
 4956SOL    HW218461   2.929   1.427   4.277 -1.1369 -1.0593  1.0812
 4957SOL     OW18462   5.863   9.894   0.521 -0.1846  0.5658 -0.2132
 4957SOL    HW118463   5.814   9.906   0.602  1.0252 -0.5789  0.7163
 4957SOL    HW218464   5.944   9.943   0.534  1.0777 -1.5454  0.2705
 4958SOL     OW18465   2.047   9.921   1.461 -0.5354 -0.0498  0.2731
 4958SOL    HW118466   1.973   9.940   1.517 -0.4329 -0.2866  0.4897
 4958SOL    HW218467   2.119   9.901   1.521  0.2618  2.1109  0.1278
 4959SOL     OW18468   7.284   4.484   6.274 -0.4228  0.2714 -0.9819
 4959SOL    HW118469   7.189   4.483   6.270 -0.5354 -1.5983  0.6884
 4959SOL    HW218470   7.304   4.496   6.367  0.8028 -3.6635 -0.5577
 4960SOL     OW18471   9.474   0.669   8.999  0.1983  0.2858 -0.3487
 4960SOL    HW118472   9.560   0.654   9.038  0.0829  2.4809  0.9174
 4960SOL    HW218473   9.468   0.604   8.929  2.2300 -0.9350  0.5202
 4961SOL     OW18474   9.165   7.173   9.544 -0.0862  0.6473  0.0704
 4961SOL    HW118475   9.233   7.185   9.610 -0.9214 -1.6857  1.4883
 4961SOL    HW218476   9.196   7.100   9.491 -1.0602  0.1131  0.2097
 4962SOL     OW18477   7.638   9.950   1.209 -0.3718 -0.2894 -0.3439
 4962SOL    HW118478   7.549   9.981   1.187 -0.9749 -1.9757 -0.3899
 4962SOL    HW218479   7.645   9.965   1.303 -0.5565  0.2128 -0.4059
 4963SOL     OW18480   2.376   2.605   8.679 -0.1894 -0.5360 -0.0858
 4963SOL    HW118481   2.352   2.521   8.640  2.4169 -1.7603  0.7188
 4963SOL    HW218482   2.296   2.634   8.724 -1.6580 -1.6893 -1.8087
 4964SOL     OW18483   8.094   9.674   1.471  0.1074 -0.1535  0.0522
 4964SOL    HW118484   8.008   9.713   1.454 -0.2090 -0.8463  0.0380
 4964SOL    HW218485   8.077   9.580   1.478  0.7589 -0.2249  0.7594
 4965SOL     OW18486   7.298  10.642   9.069  0.2449 -0.0872  0.0374
 4965SOL    HW118487   7.216  10.678   9.102  0.5661  0.3166  0.4079
 4965SOL    HW218488   7.316  10.568   9.127  0.9145  0.7468  0.9147
 4966SOL     OW18489   6.935   4.744   1.826  0.2266  0.6567 -0.2688
 4966SOL    HW118490   6.881   4.795   1.766 -1.4996  0.0305  0.6953
 4966SOL    HW218491   6.938   4.657   1.787  1.0907  0.8334 -0.6286
 4967SOL     OW18492   6.189  10.267   5.723 -0.2227  0.3646 -0.1535
 4967SOL    HW118493   6.277  10.302   5.732  0.0960 -0.6363  0.8894
 4967SOL    HW218494   6.196  10.176   5.754 -0.6315 -1.2264 -4.0987
 4968SOL     OW18495   9.362   7.901   9.663 -0.4292 -0.5151  0.0697
 4968SOL    HW118496   9.329   7.930   9.578  1.9440  0.7549 -0.5164
 4968SOL    HW218497   9.423   7.831   9.642  0.5373  0.1299  0.6580
 4969SOL     OW18498   0.524   6.417  10.595  0.0654  0.6464 -0.6462
 4969SOL    HW118499   0.467   6.469  10.539 -1.8138  0.0947  0.6252
 4969SOL    HW218500   0.501   6.326  10.574  0.4863  0.4171 -0.1236
 4970SOL     OW18501   0.315   3.676   3.130 -0.1780 -0.1914  0.0397
 4970SOL    HW118502   0.314   3.646   3.221  0.8418 -0.9546 -0.1831
 4970SOL    HW218503   0.235   3.727   3.121 -0.1665  0.1188  1.4392
 4971SOL     OW18504   5.035   2.692   8.411  0.4726  0.7688 -0.1107
 4971SOL    HW118505   5.105   2.703   8.347 -0.0560  2.4796 -0.4425
 4971SOL    HW218506   5.006   2.781   8.431 -1.2780  0.1380  0.3848
 4972SOL     OW18507  10.548   3.190   1.931  0.1203  0.0806  0.0673
 4972SOL    HW118508  10.492   3.125   1.888  1.2318 -0.1241 -1.1177
 4972SOL    HW218509  10.629   3.190   1.880  0.6045  1.5360  0.7800
 4973SOL     OW18510   2.259   7.766   2.801 -0.5027 -0.1127 -0.0479
 4973SOL    HW118511   2.316   7.773   2.724  0.1082  1.5392  0.5115
 4973SOL    HW218512   2.300   7.823   2.866 -2.0473  0.0073  0.8522
 4974SOL     OW18513   9.528   2.427   9.982  0.0100 -0.3622 -0.2546
 4974SOL    HW118514   9.593   2.493  10.004 -0.5439  0.9138 -2.1883
 4974SOL    HW218515   9.579   2.355   9.945  0.3746  0.6790 -1.8762
 4975SOL     OW18516   6.709   6.686   0.253 -0.1043  0.1893  0.3834
 4975SOL    HW118517   6.726   6.623   0.323 -0.0392 -0.1917  0.0274
 4975SOL    HW218518   6.649   6.640   0.193 -0.7218  0.7643  0.5500
 4976SOL     OW18519   5.208   7.384   0.579 -0.4875  0.5085  0.2046
 4976SOL    HW118520   5.276   7.446   0.605  1.6168 -0.5053 -2.3587
 4976SOL    HW218521   5.146   7.384   0.651  1.4716  2.6122  2.0414
 4977SOL     OW18522   3.578   7.254   8.444 -0.1949 -0.1424 -0.1841
 4977SOL    HW118523   3.653   7.302   8.408  0.1229 -0.8538 -0.4961
 4977SOL    HW218524   3.528   7.320   8.492  0.4037  0.4314 -0.3309
 4978SOL     OW18525   6.268   1.384   9.176 -0.0500  0.4604 -0.3388
 4978SOL    HW118526   6.353   1.423   9.158 -0.3617  1.3737  0.1018
 4978SOL    HW218527   6.275   1.294   9.145  0.9508  0.6390 -0.6408
 4979SOL     OW18528   5.808   5.443   5.526 -0.0241 -0.2753 -0.0923
 4979SOL    HW118529   5.748   5.454   5.600  0.3240 -1.1453  0.3378
 4979SOL    HW218530   5.891   5.418   5.566 -0.2164 -2.2987 -0.8335
 4980SOL     OW18531   9.240  10.264   7.773  0.0055  0.2876  0.0146
 4980SOL    HW118532   9.173  10.308   7.827  0.0453 -0.6280  0.8318
 4980SOL    HW218533   9.280  10.335   7.723  0.4824  1.2960  1.7539
 4981SOL     OW18534   0.386   2.867   8.468 -0.2829  0.4678 -0.9795
 4981SOL    HW118535   0.437   2.924   8.526  0.9749 -0.4230 -1.1682
 4981SOL    HW218536   0.419   2.886   8.380  0.1103 -0.4827 -1.0531
 4982SOL     OW18537   5.382   7.568   0.177  0.2956  0.6217 -0.1733
 4982SOL    HW118538   5.373   7.482   0.219 -0.7505 -0.0847 -1.7399
 4982SOL    HW218539   5.475   7.575   0.159  0.6493  0.5805  1.4568
 4983SOL     OW18540   0.613   3.359   2.173  0.2689  0.2751 -0.3103
 4983SOL    HW118541   0.628   3.342   2.080 -1.1569 -0.0992 -0.5051
 4983SOL    HW218542   0.582   3.275   2.208 -1.9144  1.0701 -0.1503
 4984SOL     OW18543   9.914   2.690   3.930 -0.3709  0.1409 -0.0897
 4984SOL    HW118544   9.870   2.747   3.993 -0.9212 -0.5055  0.1306
 4984SOL    HW218545   9.845   2.667   3.867  0.3495  1.4361 -1.4303
 4985SOL     OW18546   8.309   8.162   6.851 -0.0203 -0.1183 -0.0954
 4985SOL    HW118547   8.270   8.092   6.904 -2.5840  2.0256  1.1228
 4985SOL    HW218548   8.379   8.197   6.906  1.5637 -1.8558 -0.8821
 4986SOL     OW18549   4.592   0.746   4.681 -0.3461  0.3043  0.1055
 4986SOL    HW118550   4.629   0.827   4.715 -0.8591  0.5353  0.1234
 4986SOL    HW218551   4.543   0.709   4.755 -1.3659  0.7472 -0.3298
 4987SOL     OW18552   8.346   7.437   0.927  0.1077 -0.0064  0.4785
 4987SOL    HW118553   8.423   7.482   0.893 -0.6682 -0.0846 -1.5332
 4987SOL    HW218554   8.305   7.500   0.986  1.7754 -0.0551  1.7934
 4988SOL     OW18555   3.842   6.064   0.063  0.2547 -0.9267  0.7936
 4988SOL    HW118556   3.783   6.106   0.126  0.0093 -0.3188  0.1653
 4988SOL    HW218557   3.840   6.120  -0.014 -0.6060 -2.4366 -0.3348
 4989SOL     OW18558   7.206   1.367   4.224 -0.1769  0.4139  0.5865
 4989SOL    HW118559   7.266   1.429   4.182 -0.5509 -0.3703 -1.2022
 4989SOL    HW218560   7.237   1.281   4.196 -1.4979 -0.0517  0.4817
 4990SOL     OW18561   1.533   6.334   7.797  0.3758  0.0982 -0.2182
 4990SOL    HW118562   1.488   6.344   7.713 -0.5245  1.0743  0.3499
 4990SOL    HW218563   1.476   6.276   7.847  0.5223  0.1325 -0.0109
 4991SOL     OW18564  10.732   0.649   5.904  0.1692  0.4959  0.0703
 4991SOL    HW118565  10.751   0.623   5.814 -0.1490  1.0335 -0.1578
 4991SOL    HW218566  10.813   0.690   5.935  0.7187 -0.8561  0.4785
 4992SOL     OW18567   5.880  10.000   8.668  0.2412 -0.3245  0.1458
 4992SOL    HW118568   5.851  10.026   8.756 -1.2838 -3.9533  0.9162
 4992SOL    HW218569   5.800  10.000   8.616  0.7053 -0.5053 -0.5816
 4993SOL     OW18570   1.249   1.356   7.391  0.2030 -0.0630  0.0906
 4993SOL    HW118571   1.325   1.414   7.384 -0.1119  0.4866  0.9650
 4993SOL    HW218572   1.221   1.366   7.482 -0.7468 -0.4747 -0.1499
 4994SOL     OW18573   7.278   0.420   0.749 -0.1661 -0.0946 -0.5642
 4994SOL    HW118574   7.224   0.490   0.784 -0.1375 -1.6725  3.0464
 4994SOL    HW218575   7.365   0.460   0.737 -0.1108  0.4983  1.5767
 4995SOL     OW18576   0.276   9.433   7.644 -0.0573 -0.5108  0.5525
 4995SOL    HW118577   0.365   9.466   7.645  0.1910 -0.9636 -1.5426
 4995SOL    HW218578   0.286   9.338   7.639 -0.6729 -0.5969  0.8469
 4996SOL     OW18579   1.168   7.439   4.061  0.0913  0.1310 -0.0245
 4996SOL    HW118580   1.220   7.511   4.023 -1.8315  1.5815 -0.0394
 4996SOL    HW218581   1.218   7.412   4.138  2.5911 -0.9037 -1.8726
 4997SOL     OW18582   1.325   3.010   2.606 -0.3038  0.1751 -0.0323
 4997SOL    HW118583   1.413   3.045   2.591 -1.0307  1.0774 -2.7471
 4997SOL    HW218584   1.338   2.940   2.670  2.4400 -0.0120 -0.6554
 4998SOL     OW18585   7.699  10.976   4.371  0.3736  0.2112  0.1768
 4998SOL    HW118586   7.630  10.927   4.416  0.2415  0.3767  0.1540
 4998SOL    HW218587   7.694  10.948   4.280 -0.6467  1.3146 -0.1392
 4999SOL     OW18588   4.683   5.144  10.522 -0.2768 -0.6048 -0.2593
 4999SOL    HW118589   4.756   5.138  10.582  0.4902 -0.8772 -1.1986
 4999SOL    HW218590   4.650   5.233  10.534 -0.0237 -0.5967  0.4224
 5000SOL     OW18591   3.873   5.177   7.536  0.7188 -0.5133 -0.4360
 5000SOL    HW118592   3.945   5.115   7.548  1.3609  0.1752 -0.6045
 5000SOL    HW218593   3.797   5.123   7.518  1.4854 -1.2332 -1.6713
 5001SOL     OW18594   0.307   2.026   1.751 -0.2396  0.2412  0.1769
 5001SOL    HW118595   0.265   2.028   1.665 -0.1041  0.0312  0.1043
 5001SOL    HW218596   0.362   1.947   1.749  0.9399  1.0397 -0.0958
 5002SOL     OW18597   0.738   9.103   2.382  0.2719  0.4241 -0.4435
 5002SOL    HW118598   0.677   9.041   2.343  0.4450  0.2867 -0.4988
 5002SOL    HW218599   0.745   9.076   2.473  1.7720 -0.8045 -0.8748
 5003SOL     OW18600   5.820   7.889   5.953  0.3736  0.1233 -0.0915
 5003SOL    HW118601   5.778   7.961   5.906 -0.5902 -0.0475  0.4694
 5003SOL    HW218602   5.858   7.929   6.030 -1.4743 -0.1250  1.0300
 5004SOL     OW18603   7.147  10.034   9.481 -0.5181 -0.0644  0.2993
 5004SOL    HW118604   7.230  10.002   9.447  0.3009  0.5573  1.6468
 5004SOL    HW218605   7.081   9.981   9.435  0.6086 -0.6887 -0.6595
 5005SOL     OW18606   3.337   6.920   1.089 -0.2409  0.1588 -0.1123
 5005SOL    HW118607   3.393   6.995   1.110 -0.5835  0.5342 -0.5202
 5005SOL    HW218608   3.276   6.915   1.162  0.1507 -0.0908  0.2057
 5006SOL     OW18609   9.538   7.928  11.099  0.2408  0.1875 -0.2982
 5006SOL    HW118610   9.458   7.959  11.056 -0.1234 -0.2907  0.0221
 5006SOL    HW218611   9.594   7.900  11.027  0.4716  1.3057 -0.5808
 5007SOL     OW18612   5.113   0.594   4.654  0.5692  0.3695  0.1207
 5007SOL    HW118613   5.156   0.680   4.649  0.8598  0.1540 -1.5564
 5007SOL    HW218614   5.131   0.553   4.570 -0.6132 -0.8571  0.4333
 5008SOL     OW18615   3.828   5.908   9.927 -0.5377 -0.1346  0.3637
 5008SOL    HW118616   3.768   5.981   9.939  0.1845  0.6439 -0.6014
 5008SOL    HW218617   3.805   5.872   9.842  0.2741  0.1006  0.0354
 5009SOL     OW18618   6.582  10.504   9.356  0.6432  0.2305 -0.2184
 5009SOL    HW118619   6.568  10.424   9.406 -1.2751  1.4619  1.3923
 5009SOL    HW218620   6.639  10.557   9.412 -0.7924  1.2600  0.3478
 5010SOL     OW18621   3.672   4.880   1.383  0.3470 -0.3159  0.2281
 5010SOL    HW118622   3.744   4.941   1.372 -0.9879  1.3140  0.1009
 5010SOL    HW218623   3.712   4.793   1.378  2.0561  0.5088 -1.3903
 5011SOL     OW18624   0.091   1.507   9.270 -0.2379 -0.8825  0.1854
 5011SOL    HW118625   0.092   1.458   9.188 -0.3560 -0.5850  0.0072
 5011SOL    HW218626   0.019   1.468   9.320  0.7752 -2.0951  0.7832
 5012SOL     OW18627  11.006   7.546  10.222  0.0273 -0.6568  0.2097
 5012SOL    HW118628  11.101   7.538  10.214  0.2679  0.8703  1.1824
 5012SOL    HW218629  10.983   7.619  10.165 -0.6258 -1.2629 -0.3175
 5013SOL     OW18630   9.026   8.227   7.197 -0.0456 -0.4009 -0.7356
 5013SOL    HW118631   9.037   8.134   7.217 -0.0669 -0.3213 -0.3493
 5013SOL    HW218632   9.081   8.242   7.120  1.2591 -0.3815  0.1719
 5014SOL     OW18633   3.145   1.930   3.620  0.4745  0.4180 -0.4925
 5014SOL    HW118634   3.077   1.877   3.578  0.1107 -0.6473  1.3071
 5014SOL    HW218635   3.205   1.953   3.550 -2.1934  2.2149 -2.3734
 5015SOL     OW18636   6.058   1.951   7.919 -0.0394  0.2695  0.3434
 5015SOL    HW118637   6.101   2.035   7.934  0.1391  0.3388 -0.5003
 5015SOL    HW218638   6.057   1.942   7.823  0.3482 -0.8929  0.4410
 5016SOL     OW18639   6.910   8.044   6.444 -0.4113  0.1224  0.8942
 5016SOL    HW118640   7.002   8.037   6.469  0.4906  1.5962 -1.6588
 5016SOL    HW218641   6.872   8.101   6.512  1.5895  2.8467 -0.0685
 5017SOL     OW18642   1.026   6.926   5.735  0.2982  0.1652 -0.5331
 5017SOL    HW118643   0.938   6.915   5.701  0.0654  1.7967 -0.5324
 5017SOL    HW218644   1.023   7.006   5.786  1.4202 -0.5681  0.7664
 5018SOL     OW18645  10.390   5.482   6.526 -0.1395  0.6888 -0.2864
 5018SOL    HW118646  10.436   5.411   6.480  0.2050  1.9038 -1.9182
 5018SOL    HW218647  10.430   5.562   6.492 -1.0291  1.6919  0.9582
 5019SOL     OW18648   4.816   5.756   8.571  0.4785  0.0844  0.0379
 5019SOL    HW118649   4.896   5.710   8.597  0.6909  0.7748  0.6304
 5019SOL    HW218650   4.828   5.774   8.477  1.0343  0.2172  0.1331
 5020SOL     OW18651   2.138   3.355  10.629  0.2793  0.8033 -0.0821
 5020SOL    HW118652   2.186   3.359  10.711  1.6911 -0.5141 -0.7906
 5020SOL    HW218653   2.122   3.446  10.605 -0.0559  1.2101  1.5649
 5021SOL     OW18654   8.196   4.651   5.932 -0.6952 -0.0789 -0.3452
 5021SOL    HW118655   8.122   4.711   5.944 -2.0247 -1.6113 -0.5957
 5021SOL    HW218656   8.205   4.643   5.837  1.5295  2.0779 -0.4294
 5022SOL     OW18657   9.737   3.660   9.891 -0.2666 -0.0915  0.0860
 5022SOL    HW118658   9.769   3.604   9.820  1.7374  1.3125 -0.2008
 5022SOL    HW218659   9.769   3.617   9.971 -1.3825 -0.9572  0.0949
 5023SOL     OW18660   6.323   9.862   1.964  0.2281  0.2570  0.3192
 5023SOL    HW118661   6.300   9.954   1.977  1.8626  0.6833  0.4256
 5023SOL    HW218662   6.406   9.865   1.915  1.0711 -1.1225  1.5759
 5024SOL     OW18663   7.738   4.976   0.932  0.2647  0.3819 -0.2747
 5024SOL    HW118664   7.767   4.969   1.023 -0.8816  0.4544  0.1101
 5024SOL    HW218665   7.644   4.958   0.936  0.3078 -0.1776 -1.5236
 5025SOL     OW18666   7.853   2.422   9.463 -0.1098 -0.0596 -0.0372
 5025SOL    HW118667   7.810   2.474   9.395 -3.4811 -0.6678  1.4275
 5025SOL    HW218668   7.783   2.399   9.523  2.1073 -2.4201  1.8647
 5026SOL     OW18669  11.038   2.746   7.759 -0.8473  0.5069  0.2958
 5026SOL    HW118670  11.114   2.802   7.743 -1.0753  0.4346 -1.1150
 5026SOL    HW218671  11.075   2.665   7.794 -0.2727  0.5048 -0.2933
 5027SOL     OW18672   4.963   2.451   0.451  0.2774 -0.1723 -0.0878
 5027SOL    HW118673   5.021   2.381   0.480 -0.9893 -1.6164 -0.8993
 5027SOL    HW218674   4.930   2.422   0.366 -1.4455  0.6854  0.2341
 5028SOL     OW18675   3.844  10.200   9.246 -0.0024  0.0920  0.2372
 5028SOL    HW118676   3.876  10.232   9.330  0.5030 -1.3922  0.6417
 5028SOL    HW218677   3.921  10.161   9.204 -0.0826  1.4036 -1.2344
 5029SOL     OW18678   4.696   8.554   5.438 -0.2328  0.0529  0.4410
 5029SOL    HW118679   4.684   8.532   5.345 -0.9534  1.3869  0.2002
 5029SOL    HW218680   4.739   8.477   5.474  2.7419  0.6141 -1.5687
 5030SOL     OW18681   1.557   3.753   0.062  0.3836  0.2856  0.0602
 5030SOL    HW118682   1.527   3.751   0.153  1.4964  0.8044  0.4467
 5030SOL    HW218683   1.483   3.790   0.014 -0.4982 -0.6903  0.6334
 5031SOL     OW18684   7.391   3.165   5.029  0.5332 -0.0288 -0.3461
 5031SOL    HW118685   7.455   3.120   5.083  0.3324 -0.4474 -0.4500
 5031SOL    HW218686   7.367   3.243   5.079  0.1231 -0.5677  0.3173
 5032SOL     OW18687   5.263   2.090   6.355  0.0719 -0.1370 -0.3103
 5032SOL    HW118688   5.358   2.075   6.359  0.1129 -0.2490 -1.5061
 5032SOL    HW218689   5.241   2.083   6.262 -1.3655 -1.6335  0.1006
 5033SOL     OW18690   3.062   4.600   0.826  0.4329  0.3087 -0.5257
 5033SOL    HW118691   3.073   4.646   0.744  0.0778 -1.3591 -1.5693
 5033SOL    HW218692   3.055   4.507   0.801  2.3820 -0.4972  1.5263
 5034SOL     OW18693   6.071   4.380   9.930 -0.2481 -0.1020 -0.2232
 5034SOL    HW118694   6.155   4.410   9.965  0.2998  0.0146 -1.5697
 5034SOL    HW218695   6.054   4.299   9.976  1.0635 -0.5957 -0.5489
 5035SOL     OW18696   5.895   0.986   5.122 -0.1429 -0.2553  0.0162
 5035SOL    HW118697   5.951   0.913   5.148  0.3210 -0.0495 -0.3819
 5035SOL    HW218698   5.952   1.063   5.125  0.1032 -0.2926 -2.0528
 5036SOL     OW18699  10.162   8.036   2.247 -0.4052  0.0579  0.7916
 5036SOL    HW118700  10.151   7.986   2.328  0.6914  0.9780  1.5392
 5036SOL    HW218701  10.240   7.999   2.207 -1.0506 -0.5229  0.0279
 5037SOL     OW18702   0.374   1.895   5.628 -0.5028  0.0827 -0.1304
 5037SOL    HW118703   0.351   1.807   5.596 -0.6119  0.3734 -0.8815
 5037SOL    HW218704   0.292   1.928   5.665 -0.5093 -0.0579 -0.0153
 5038SOL     OW18705   4.001   9.865   7.094 -0.0672  0.3405  0.8138
 5038SOL    HW118706   3.918   9.906   7.117 -0.0184  0.3210  1.0273
 5038SOL    HW218707   4.006   9.873   6.998 -0.3141  0.3371  0.7999
 5039SOL     OW18708   2.911   0.354   1.453 -0.2172 -0.6464 -0.0446
 5039SOL    HW118709   2.925   0.342   1.359 -0.6478 -0.7080 -0.1053
 5039SOL    HW218710   2.820   0.383   1.460  0.0156  0.0264  0.3007
 5040SOL     OW18711   7.781   5.616   2.039 -0.5580  0.0534  0.2663
 5040SOL    HW118712   7.871   5.647   2.049 -0.8254  0.5834  1.2017
 5040SOL    HW218713   7.787   5.541   1.981  0.4022  0.4994 -0.2312
 5041SOL     OW18714   1.070   1.083   7.596  0.6191  0.3799 -0.3485
 5041SOL    HW118715   1.127   1.070   7.520 -1.2085  0.5358 -1.8133
 5041SOL    HW218716   0.991   1.124   7.560  0.2345  1.6992  1.8618
 5042SOL     OW18717   5.678   9.641   9.919  0.2247  0.0621 -0.6581
 5042SOL    HW118718   5.636   9.678   9.842 -0.2440 -1.6317 -1.2687
 5042SOL    HW218719   5.612   9.646   9.988  0.4251  0.9929 -0.5170
 5043SOL     OW18720   3.542  10.974   6.164 -0.7161 -0.4725  0.0909
 5043SOL    HW118721   3.575  11.064   6.160 -0.4196 -0.5026  1.2838
 5043SOL    HW218722   3.450  10.981   6.138 -1.1401  0.4637  1.6592
 5044SOL     OW18723   2.145   2.144   8.862  0.4522 -0.4123  0.3148
 5044SOL    HW118724   2.165   2.056   8.893 -1.5550 -1.6340 -1.5686
 5044SOL    HW218725   2.138   2.135   8.767  1.0282  1.9882 -0.0146
 5045SOL     OW18726   2.932   9.281   1.822  0.1539  0.4566  0.1564
 5045SOL    HW118727   2.952   9.372   1.841 -0.0247  0.5938 -0.2974
 5045SOL    HW218728   2.995   9.230   1.873  2.4709  0.8648 -2.1191
 5046SOL     OW18729  10.748   4.834   7.132 -0.1436 -0.1294 -0.5089
 5046SOL    HW118730  10.726   4.904   7.071 -0.3237 -1.2477 -1.7842
 5046SOL    HW218731  10.663   4.798   7.159 -0.0346 -0.3994 -0.5226
 5047SOL     OW18732  10.869   3.344   5.300  0.1820 -0.5414 -0.6358
 5047SOL    HW118733  10.875   3.277   5.232  1.3285  0.2941 -1.4011
 5047SOL    HW218734  10.802   3.404   5.269 -0.9798 -1.3981  0.1408
 5048SOL     OW18735  10.555   5.711   0.637  0.0694  0.1701 -0.2829
 5048SOL    HW118736  10.462   5.714   0.658 -0.1682  1.7431 -1.4103
 5048SOL    HW218737  10.561   5.740   0.546  1.6078 -0.5232 -0.4360
 5049SOL     OW18738  11.013   3.435   6.479 -0.3806  0.3040 -0.5211
 5049SOL    HW118739  11.032   3.431   6.573  0.2187  2.8931 -0.4690
 5049SOL    HW218740  10.917   3.437   6.474 -0.4210 -0.0213 -0.0023
 5050SOL     OW18741   8.346   2.359   4.641  0.3070 -0.5871 -0.0790
 5050SOL    HW118742   8.274   2.350   4.578  1.6389 -0.1085 -1.7409
 5050SOL    HW218743   8.304   2.387   4.722 -1.3552 -0.0737 -1.0747
 5051SOL     OW18744   7.402   8.211   3.730 -0.2365  0.0036 -0.3467
 5051SOL    HW118745   7.425   8.170   3.813  0.4444  1.8709  0.4430
 5051SOL    HW218746   7.307   8.218   3.732 -0.1122  1.9707  1.2999
 5052SOL     OW18747  10.355   4.183   2.050  0.0017 -0.3347  0.2223
 5052SOL    HW118748  10.295   4.194   1.976 -0.3454  4.0180  0.8766
 5052SOL    HW218749  10.297   4.168   2.125  0.1500 -1.6265  0.0925
 5053SOL     OW18750   8.656  10.209   9.209  0.1997 -0.0377 -0.3547
 5053SOL    HW118751   8.616  10.188   9.125  0.5460  0.5685 -0.6746
 5053SOL    HW218752   8.735  10.257   9.187  1.0865 -1.1614  0.2794
 5054SOL     OW18753   3.522   9.296  10.085  0.2271  0.2123  0.4177
 5054SOL    HW118754   3.568   9.279  10.002 -0.8695  2.8757 -0.8644
 5054SOL    HW218755   3.431   9.273  10.066  0.3204 -1.3920  1.7137
 5055SOL     OW18756   1.889   1.532   4.670  0.2121 -0.1342 -0.3929
 5055SOL    HW118757   1.916   1.573   4.588  2.5480 -0.9028 -0.1007
 5055SOL    HW218758   1.968   1.486   4.701 -1.4222 -2.3527  0.7857
 5056SOL     OW18759   2.759   3.251  10.272  0.0177  0.5203 -0.5222
 5056SOL    HW118760   2.840   3.282  10.232  0.0794 -0.1325 -0.9222
 5056SOL    HW218761   2.788   3.187  10.338 -0.1204  1.0928  0.1081
 5057SOL     OW18762   8.638  10.091   7.534  1.0325 -0.0730  0.4797
 5057SOL    HW118763   8.629  10.141   7.614  0.5620  1.7303 -0.6494
 5057SOL    HW218764   8.548  10.073   7.507  1.1824 -1.6536  0.8894
 5058SOL     OW18765  10.040   2.501   7.360  0.4929  0.4517 -0.0367
 5058SOL    HW118766   9.961   2.530   7.406 -0.7436 -2.0034 -0.4227
 5058SOL    HW218767  10.063   2.573   7.302 -3.1450  0.3044 -1.9498
 5059SOL     OW18768   7.188   6.565   5.066  0.7270 -0.2667 -0.7899
 5059SOL    HW118769   7.217   6.550   4.976  1.6913 -0.6739 -0.4219
 5059SOL    HW218770   7.123   6.636   5.058  0.4566 -0.6114 -1.8492
 5060SOL     OW18771   2.866  11.090   4.475 -0.1325  0.1265 -0.1327
 5060SOL    HW118772   2.795  11.108   4.537 -1.1576  0.9625 -1.4680
 5060SOL    HW218773   2.914  11.016   4.513 -0.3437  0.9844  1.9115
 5061SOL     OW18774   1.066   7.644   0.306 -0.2050 -0.1018  0.0351
 5061SOL    HW118775   1.158   7.645   0.334 -0.4148  0.2247  0.7430
 5061SOL    HW218776   1.051   7.731   0.271 -0.2581 -0.1377 -0.0306
 5062SOL     OW18777   6.151   1.964   7.060 -0.5424 -0.1434  0.0103
 5062SOL    HW118778   6.124   1.872   7.065 -1.2517  0.0172 -0.7080
 5062SOL    HW218779   6.209   1.967   6.984  0.4252 -0.2075  0.7182
 5063SOL     OW18780   0.149   1.613  11.093 -0.0988  0.5555  0.2284
 5063SOL    HW118781   0.188   1.540  11.043 -0.8249  0.3647 -0.0733
 5063SOL    HW218782   0.100   1.663  11.028 -0.0266  1.0284  0.5328
 5064SOL     OW18783  10.138   8.390   7.261 -0.2151 -0.1817 -0.3774
 5064SOL    HW118784  10.054   8.423   7.230 -0.5691 -1.7297 -1.1625
 5064SOL    HW218785  10.118   8.346   7.344  0.3977  2.2057  1.1208
 5065SOL     OW18786   5.231   2.979   6.628  0.0396 -0.2314  0.7893
 5065SOL    HW118787   5.226   2.982   6.532  0.6485 -1.0289  0.7216
 5065SOL    HW218788   5.304   2.920   6.646  0.9145  1.0760  1.7471
 5066SOL     OW18789   5.611   8.989   4.801  0.4089 -0.3926 -0.4562
 5066SOL    HW118790   5.599   8.929   4.874 -0.3443 -0.1613 -0.3821
 5066SOL    HW218791   5.558   8.951   4.730  0.4513 -0.1576 -0.6141
 5067SOL     OW18792   0.440   6.453   9.283 -0.2556 -0.5920  0.2679
 5067SOL    HW118793   0.362   6.403   9.307  0.4331 -1.3376  1.0134
 5067SOL    HW218794   0.435   6.460   9.187 -1.7822  0.3143  0.3846
 5068SOL     OW18795   6.024   3.555   3.641 -0.2299  0.4024 -0.0418
 5068SOL    HW118796   6.016   3.644   3.609 -0.5585  0.7450  0.9422
 5068SOL    HW218797   6.106   3.555   3.691 -0.6347  0.3895  0.6429
 5069SOL     OW18798   4.748   9.668   6.640 -0.4708  0.2813  0.2109
 5069SOL    HW118799   4.778   9.746   6.594  0.4939 -0.6194 -0.7613
 5069SOL    HW218800   4.755   9.598   6.575 -2.7825 -0.3752  0.5616
 5070SOL     OW18801   3.096   8.416   6.131  0.6660 -0.0356 -0.7762
 5070SOL    HW118802   3.066   8.446   6.045  1.9740 -1.3511 -1.7332
 5070SOL    HW218803   3.112   8.323   6.120 -1.0197 -0.6910  1.4691
 5071SOL     OW18804   3.508   1.949   8.385  0.3880 -0.8909  0.0808
 5071SOL    HW118805   3.550   2.020   8.337  1.9863 -0.7537  1.5778
 5071SOL    HW218806   3.457   1.902   8.319  2.4778 -0.7322 -1.7596
 5072SOL     OW18807   2.217   8.725   3.765 -0.3399 -0.2474  0.0170
 5072SOL    HW118808   2.125   8.748   3.756 -0.6460  0.9051  3.9752
 5072SOL    HW218809   2.217   8.630   3.776 -1.2766 -0.1255  1.3145
 5073SOL     OW18810   9.523   6.870   2.860  0.3235 -0.0178  0.5699
 5073SOL    HW118811   9.475   6.797   2.897 -0.4808 -0.6421 -1.5752
 5073SOL    HW218812   9.466   6.905   2.792  0.8483  2.3944  1.2445
 5074SOL     OW18813   6.230   2.670   4.949 -0.2956 -0.3542 -0.1161
 5074SOL    HW118814   6.168   2.597   4.956  1.6598 -2.0448  0.8087
 5074SOL    HW218815   6.231   2.692   4.856 -1.7677 -0.6990 -0.2420
 5075SOL     OW18816   7.415   6.179   8.643  0.1861 -0.5028 -0.3137
 5075SOL    HW118817   7.488   6.238   8.625  0.0945 -0.0902  0.6248
 5075SOL    HW218818   7.440   6.135   8.724 -0.7611 -0.0918  0.2131
 5076SOL     OW18819   4.760   0.220  10.697  0.1025  0.6545 -0.1436
 5076SOL    HW118820   4.695   0.151  10.684  1.0799 -0.3935  0.3825
 5076SOL    HW218821   4.754   0.273  10.618  0.3803 -0.9094 -1.2550
 5077SOL     OW18822   9.119   9.539   0.949  0.0964  0.1049  0.2395
 5077SOL    HW118823   9.026   9.547   0.929  0.0353 -0.9024  0.0358
 5077SOL    HW218824   9.134   9.599   1.022 -0.8077 -0.0384  0.5518
 5078SOL     OW18825   6.690   9.340   2.742  0.2491  1.3882 -0.3344
 5078SOL    HW118826   6.715   9.433   2.738 -1.4863  1.9268  0.6794
 5078SOL    HW218827   6.617   9.333   2.681 -0.3650  0.9529  0.4404
 5079SOL     OW18828   6.816   2.767   0.855  0.2228  0.3536 -0.1178
 5079SOL    HW118829   6.830   2.805   0.942 -1.2169 -0.5152  0.5261
 5079SOL    HW218830   6.812   2.672   0.870  0.7791  0.1205 -1.2653
 5080SOL     OW18831  10.700   3.883   6.497  0.3215  0.3148  0.0694
 5080SOL    HW118832  10.605   3.872   6.490  0.3276  1.1001 -1.9938
 5080SOL    HW218833  10.724   3.833   6.575 -1.7163 -0.2504  0.4078
 5081SOL     OW18834   7.678   6.658   9.796  0.3883 -0.0474 -0.2089
 5081SOL    HW118835   7.628   6.577   9.805 -3.1678  1.7981 -1.4438
 5081SOL    HW218836   7.621   6.725   9.833  1.5657  2.3593 -2.4784
 5082SOL     OW18837   9.379   5.051   9.467 -0.0370  0.0144  0.0406
 5082SOL    HW118838   9.456   5.012   9.426 -0.4482  0.2675 -1.0048
 5082SOL    HW218839   9.305   5.009   9.424 -0.5323  2.6929 -1.9690
 5083SOL     OW18840   2.812   8.184   2.066 -0.4232 -0.2465  0.4516
 5083SOL    HW118841   2.799   8.110   2.126 -1.9929  0.2487  0.7684
 5083SOL    HW218842   2.752   8.166   1.993  0.7107 -0.3180 -0.4967
 5084SOL     OW18843   5.266   9.051   1.325 -0.0487  0.4048 -0.0018
 5084SOL    HW118844   5.174   9.071   1.307 -0.6138 -0.1112  2.0318
 5084SOL    HW218845   5.315   9.107   1.265 -1.6648  2.4587  0.5012
 5085SOL     OW18846   0.687   8.848   2.272 -0.3335  0.0291 -0.0252
 5085SOL    HW118847   0.762   8.790   2.287 -2.4254 -2.8633  0.0058
 5085SOL    HW218848   0.647   8.859   2.358 -0.3538  1.0078 -0.1467
 5086SOL     OW18849  10.850   8.824   8.247 -0.2023 -0.1114 -0.1665
 5086SOL    HW118850  10.817   8.775   8.323  0.9191 -0.0376  0.3865
 5086SOL    HW218851  10.829   8.768   8.172 -0.9289 -0.3895  0.2316
 5087SOL     OW18852   7.160  11.098   5.158 -0.0613 -0.4194  0.0001
 5087SOL    HW118853   7.155  11.142   5.073 -0.6026 -1.3348 -0.4683
 5087SOL    HW218854   7.213  11.156   5.213  0.0186  0.3452 -0.8635
 5088SOL     OW18855  10.480   7.386   3.752  0.2044  0.0064 -0.4005
 5088SOL    HW118856  10.390   7.417   3.760 -0.9897 -2.8688 -1.1288
 5088SOL    HW218857  10.502   7.399   3.660  0.9674  1.6723 -0.0028
 5089SOL     OW18858  10.642   4.158  10.367 -0.1404 -0.0069 -0.1727
 5089SOL    HW118859  10.563   4.105  10.375  0.1489 -1.0898 -2.9993
 5089SOL    HW218860  10.613   4.240  10.327  0.1193 -0.4450 -1.3061
 5090SOL     OW18861   6.094  10.817   5.934 -0.3107 -0.2899  0.1686
 5090SOL    HW118862   6.189  10.814   5.951  0.0600  2.0473 -1.0278
 5090SOL    HW218863   6.058  10.867   6.007 -0.1957  1.0566 -0.6608
 5091SOL     OW18864   4.927   8.642   2.478  0.0169  0.1256  0.2330
 5091SOL    HW118865   4.850   8.672   2.429  1.4217  2.4216 -0.7330
 5091SOL    HW218866   4.921   8.687   2.562  0.0770 -0.0406  0.3267
 5092SOL     OW18867   4.965  10.737   6.236  0.0137  0.2642  0.0646
 5092SOL    HW118868   5.038  10.676   6.248  0.2235 -0.1516 -2.5743
 5092SOL    HW218869   4.888  10.681   6.231 -0.2441  0.5333  0.9006
 5093SOL     OW18870   6.434   1.776   4.273  0.0017 -0.5764 -0.3835
 5093SOL    HW118871   6.459   1.689   4.304  1.7638  0.2595  0.7160
 5093SOL    HW218872   6.429   1.830   4.352 -0.5914  0.4352 -1.0765
 5094SOL     OW18873   3.689   7.600   5.034 -0.1092  0.3595  0.4661
 5094SOL    HW118874   3.748   7.639   4.970  0.8246 -0.8351  0.5736
 5094SOL    HW218875   3.746   7.557   5.097 -1.0293 -3.6927 -1.1992
 5095SOL     OW18876   2.885   8.188   2.674 -0.5234  0.0625  0.1167
 5095SOL    HW118877   2.909   8.223   2.589  0.2293 -2.1193 -0.6360
 5095SOL    HW218878   2.799   8.226   2.692 -0.9358  0.1836 -1.8618
 5096SOL     OW18879   5.673   2.424   4.200  0.2337 -0.0539 -0.1750
 5096SOL    HW118880   5.736   2.393   4.136  1.3550 -1.7041  1.6113
 5096SOL    HW218881   5.591   2.381   4.175  0.7804 -1.1115 -0.2219
 5097SOL     OW18882   7.857   6.009  10.960 -0.6839 -0.2785  0.3934
 5097SOL    HW118883   7.927   5.970  11.012 -0.0416  1.8105  1.2142
 5097SOL    HW218884   7.820   6.076  11.018 -2.6649 -0.6149 -0.4231
 5098SOL     OW18885   2.607  10.985   3.218  0.5818  0.6736 -0.2878
 5098SOL    HW118886   2.635  11.008   3.129 -2.5386  1.1143 -1.2992
 5098SOL    HW218887   2.563  10.900   3.207 -0.8739  1.2867  0.5621
 5099SOL     OW18888   5.630  10.675   3.907 -0.2001 -0.1808  0.0051
 5099SOL    HW118889   5.550  10.630   3.931 -0.2255 -1.1171 -1.7228
 5099SOL    HW218890   5.698  10.608   3.912  0.3251  0.3643  0.4669
 5100SOL     OW18891   9.982   7.558   0.409  0.8599  0.4506 -0.2640
 5100SOL    HW118892  10.015   7.557   0.319 -0.9882  1.4141 -1.0061
 5100SOL    HW218893   9.897   7.515   0.404  0.8405  0.3031  1.0822
 5101SOL     OW18894   9.889   5.166   2.766 -0.1234 -0.3716 -0.0170
 5101SOL    HW118895   9.815   5.141   2.821  0.5127  1.2119  1.6412
 5101SOL    HW218896   9.960   5.108   2.793  0.7517  1.6157  2.3590
 5102SOL     OW18897   1.538   0.315   8.912 -0.1058 -0.1698  0.2453
 5102SOL    HW118898   1.458   0.340   8.959 -0.2323 -1.0404  0.5125
 5102SOL    HW218899   1.608   0.357   8.961 -0.3852  0.4672  0.1042
 5103SOL     OW18900   6.698   3.196   8.477 -0.2050 -0.9558 -0.0593
 5103SOL    HW118901   6.746   3.167   8.399 -1.9296 -0.1285 -1.4880
 5103SOL    HW218902   6.606   3.192   8.452 -0.8690 -1.4097  2.2191
 5104SOL     OW18903   5.680   5.686   0.434 -0.2890 -0.1892 -0.3967
 5104SOL    HW118904   5.691   5.711   0.525 -0.5550 -1.5568  0.0323
 5104SOL    HW218905   5.639   5.762   0.392  0.6941  0.8016  0.4024
 5105SOL     OW18906   1.810   5.790   7.258  0.2751 -0.7887 -0.0137
 5105SOL    HW118907   1.821   5.799   7.353 -0.6072 -0.5682  0.0748
 5105SOL    HW218908   1.716   5.788   7.245  0.3885 -1.7259 -0.8112
 5106SOL     OW18909   3.076  10.763   5.475  0.2647 -0.3132 -0.2495
 5106SOL    HW118910   3.068  10.772   5.380  0.7703 -0.4123 -0.3027
 5106SOL    HW218911   3.161  10.721   5.488 -0.5344 -1.8683  0.1566
 5107SOL     OW18912   6.085   4.590   6.256  0.0902  0.3360  0.3558
 5107SOL    HW118913   6.133   4.512   6.229  0.8776  1.2389 -0.9557
 5107SOL    HW218914   6.141   4.630   6.323  0.6800  0.8044 -0.3914
 5108SOL     OW18915   4.192   8.603  11.052 -0.4114  0.2716  0.1807
 5108SOL    HW118916   4.263   8.665  11.033  0.9565 -1.3802 -0.3128
 5108SOL    HW218917   4.162   8.574  10.966 -1.0445  0.2141  0.4144
 5109SOL     OW18918   8.629   0.961   3.982 -0.2083  0.7580  0.4068
 5109SOL    HW118919   8.566   0.915   4.037 -1.2911  2.1298  0.3706
 5109SOL    HW218920   8.691   1.000   4.044 -0.3795  0.8084  0.5451
 5110SOL     OW18921   8.548   1.543   8.288 -0.7148 -0.2181 -0.4166
 5110SOL    HW118922   8.533   1.629   8.328  0.6171 -0.1996  0.0674
 5110SOL    HW218923   8.504   1.549   8.203 -1.1694  0.7215 -0.1308
 5111SOL     OW18924   2.046   5.349   4.881  0.1824  0.1731  0.0962
 5111SOL    HW118925   2.110   5.301   4.934 -0.3677 -1.0660 -0.3351
 5111SOL    HW218926   1.977   5.285   4.862 -0.4399  1.0593 -0.7254
 5112SOL     OW18927   4.233   1.263   4.054  0.5089 -0.4024  0.3688
 5112SOL    HW118928   4.234   1.188   3.995  0.5213 -0.5030  0.4965
 5112SOL    HW218929   4.232   1.225   4.141 -0.4056 -0.2601  0.4272
 5113SOL     OW18930   2.453   5.700   8.740 -0.1665 -0.0637 -0.3540
 5113SOL    HW118931   2.369   5.658   8.760  0.4366 -1.0130  0.2733
 5113SOL    HW218932   2.442   5.790   8.772 -0.4542 -0.5820  1.1304
 5114SOL     OW18933   4.088   6.732  10.579 -0.0685  0.3414 -0.3902
 5114SOL    HW118934   4.019   6.679  10.619  1.5465 -2.1937 -0.7466
 5114SOL    HW218935   4.051   6.758  10.494 -1.5060  1.2640  0.4674
 5115SOL     OW18936   9.558   5.276   7.703  0.1977 -0.8727 -0.0674
 5115SOL    HW118937   9.633   5.289   7.645  0.7793 -0.8673  0.6866
 5115SOL    HW218938   9.550   5.180   7.710  0.1427 -0.8727 -0.1203
 5116SOL     OW18939   3.384   7.572   4.600 -0.0056  0.4705  0.1231
 5116SOL    HW118940   3.334   7.569   4.519  1.1563 -0.2109 -0.5947
 5116SOL    HW218941   3.384   7.482   4.632  1.1400  0.3641 -0.1388
 5117SOL     OW18942   4.418   8.825  10.125  0.5999  0.6087 -0.4502
 5117SOL    HW118943   4.437   8.801  10.034 -0.3885 -1.4948 -0.1452
 5117SOL    HW218944   4.324   8.811  10.134  0.8114 -0.0066  1.1139
 5118SOL     OW18945   3.291   0.880   6.220  0.0612  0.2377 -0.0215
 5118SOL    HW118946   3.233   0.942   6.178  0.0049  0.1210 -0.1163
 5118SOL    HW218947   3.374   0.927   6.231 -0.0641  0.4171  0.1524
 5119SOL     OW18948   9.767   4.705  10.196  0.1558  0.5361 -0.4268
 5119SOL    HW118949   9.714   4.784  10.185 -0.0208  0.2919 -1.4287
 5119SOL    HW218950   9.718   4.651  10.258  0.2149  1.1536  0.1668
 5120SOL     OW18951   7.199   2.442   1.316 -0.1018 -0.4840 -0.4354
 5120SOL    HW118952   7.232   2.368   1.265 -1.6869 -0.6756 -1.2639
 5120SOL    HW218953   7.177   2.404   1.401 -0.4888 -0.8776 -0.7058
 5121SOL     OW18954   2.551   3.584   2.606  0.1773  0.5155  0.5646
 5121SOL    HW118955   2.463   3.554   2.628  0.0455 -0.2429 -0.9159
 5121SOL    HW218956   2.600   3.504   2.587  0.5843  1.0513 -0.7511
 5122SOL     OW18957   1.770   2.852   5.759  0.2494  0.4642  0.4390
 5122SOL    HW118958   1.742   2.943   5.764 -0.0340  0.4328 -0.4066
 5122SOL    HW218959   1.856   2.850   5.802  0.5584  1.2551 -0.1342
 5123SOL     OW18960   2.489   8.413   1.893  0.7030 -0.0965 -0.9758
 5123SOL    HW118961   2.565   8.448   1.940  1.2982 -0.1843 -1.8434
 5123SOL    HW218962   2.508   8.431   1.801 -0.8327  0.8354 -1.1465
 5124SOL     OW18963   3.154   2.471   0.742  0.3450 -0.2815 -0.4562
 5124SOL    HW118964   3.194   2.542   0.693 -0.8888  0.7863  0.0403
 5124SOL    HW218965   3.211   2.458   0.818 -0.0205  0.9434  0.0367
 5125SOL     OW18966   0.461   0.047   3.526 -0.3046 -0.1260  0.8315
 5125SOL    HW118967   0.436   0.043   3.618  0.5413 -2.0263  1.0344
 5125SOL    HW218968   0.555   0.063   3.527 -0.2461 -0.4090  0.2982
 5126SOL     OW18969   3.082   6.303  10.876 -0.1037  0.7936  0.1758
 5126SOL    HW118970   3.146   6.359  10.832  0.6311 -0.8540 -0.9573
 5126SOL    HW218971   3.088   6.327  10.968  1.6713  1.1614  0.0047
 5127SOL     OW18972   0.734   1.835   1.898  0.3749  0.5869 -0.1634
 5127SOL    HW118973   0.717   1.880   1.981 -2.8623  0.8375 -0.8395
 5127SOL    HW218974   0.687   1.752   1.906 -0.3298  0.7846 -1.8544
 5128SOL     OW18975   1.793   0.879   9.825 -0.2913 -0.0858 -0.3650
 5128SOL    HW118976   1.835   0.796   9.845  2.9181  1.3627 -0.4344
 5128SOL    HW218977   1.785   0.880   9.730  2.4823  0.7791 -0.6772
 5129SOL     OW18978   2.474   5.044   1.072 -0.0436 -0.1915  0.0191
 5129SOL    HW118979   2.466   5.001   0.987  0.0344  0.4757 -0.3355
 5129SOL    HW218980   2.559   5.017   1.106 -0.3049 -0.8880  0.1335
 5130SOL     OW18981   5.182   3.768   1.468 -1.1332 -0.1839 -0.1859
 5130SOL    HW118982   5.131   3.839   1.508  1.1841 -0.2689  3.4411
 5130SOL    HW218983   5.131   3.690   1.485 -1.6522  0.1525 -0.1825
 5131SOL     OW18984   1.487   0.048   7.235  0.1734  0.2537 -0.1887
 5131SOL    HW118985   1.543   0.028   7.311  0.8053  2.4212 -0.0237
 5131SOL    HW218986   1.548   0.069   7.165 -0.4014 -1.8429 -1.4255
 5132SOL     OW18987   6.944   3.486   7.909 -0.2029 -0.2136  0.5015
 5132SOL    HW118988   6.882   3.524   7.846  0.3366  0.5610  0.4204
 5132SOL    HW218989   6.934   3.541   7.987  0.5339  0.0454  0.4142
 5133SOL     OW18990   0.685   5.714   9.965 -0.1534 -0.5235 -0.0528
 5133SOL    HW118991   0.647   5.801   9.947  1.0358  0.3164  1.2919
 5133SOL    HW218992   0.625   5.674  10.028  0.4669  0.2872  1.0936
 5134SOL     OW18993   9.843   7.848  11.066 -0.0624  0.0813  0.2949
 5134SOL    HW118994   9.809   7.924  11.019 -0.2016 -0.1667 -0.0105
 5134SOL    HW218995   9.809   7.856  11.155  1.0886  1.1397  0.6646
 5135SOL     OW18996   1.406   9.980   8.477 -0.8048  0.0115 -0.5362
 5135SOL    HW118997   1.413  10.072   8.501 -0.8961  0.0412 -0.6211
 5135SOL    HW218998   1.487   9.960   8.430 -1.0881  0.2322 -1.1284
 5136SOL     OW18999   3.158   6.169   0.390 -0.2467 -0.2055 -0.0214
 5136SOL    HW119000   3.090   6.164   0.323  0.5419 -0.4091 -0.8247
 5136SOL    HW219001   3.225   6.225   0.352  0.2306 -0.3448  0.5898
 5137SOL     OW19002  10.105   8.378   3.495 -0.1398 -0.2655  0.3831
 5137SOL    HW119003  10.098   8.472   3.479  1.8102  0.2848  2.2337
 5137SOL    HW219004  10.030   8.357   3.550  0.8510  0.8789  2.2967
 5138SOL     OW19005   5.475   1.736   0.984 -0.0594  0.2915  0.3321
 5138SOL    HW119006   5.434   1.734   1.071  0.3934  1.0036  0.5683
 5138SOL    HW219007   5.569   1.743   1.001 -0.0555  2.1537 -0.1784
 5139SOL     OW19008   9.101  10.939   0.541  0.0264  0.6878  0.5544
 5139SOL    HW119009   9.190  10.922   0.571  0.4960  0.6062 -0.7925
 5139SOL    HW219010   9.095  11.034   0.537  0.0076  0.6959  0.8016
 5140SOL     OW19011   4.178   4.404   1.461 -0.5075  0.1989  0.4095
 5140SOL    HW119012   4.258   4.354   1.451  0.5734  1.7880  0.7365
 5140SOL    HW219013   4.172   4.457   1.381 -0.6683  0.8576  0.8503
 5141SOL     OW19014   8.316   1.548   2.420  0.0470 -0.1180  0.4330
 5141SOL    HW119015   8.271   1.516   2.342  0.1386 -0.3620  0.4793
 5141SOL    HW219016   8.378   1.479   2.442  0.0201 -0.0497  0.7239
 5142SOL     OW19017   6.783   5.537   8.279  0.0491 -0.0476  0.0971
 5142SOL    HW119018   6.826   5.612   8.319 -0.2235  0.0500  0.2123
 5142SOL    HW219019   6.812   5.537   8.188  0.9227 -0.4531  0.3684
 5143SOL     OW19020   6.629   4.016   7.494  0.2631  0.1683 -0.0915
 5143SOL    HW119021   6.621   4.089   7.433 -2.1321 -0.1472 -0.2631
 5143SOL    HW219022   6.711   3.972   7.469  0.1490  0.9735 -2.0240
 5144SOL     OW19023   5.863   4.113   2.523 -0.1020  0.4679 -0.7104
 5144SOL    HW119024   5.814   4.032   2.507 -0.1466  0.4004 -0.2560
 5144SOL    HW219025   5.812   4.158   2.591  0.2107  0.6237 -0.5805
 5145SOL     OW19026   0.690   5.318   9.810  0.5442  0.5915 -0.5675
 5145SOL    HW119027   0.742   5.395   9.836 -0.7007  1.2026  0.2032
 5145SOL    HW219028   0.755   5.254   9.782  1.7945  1.0290  1.1706
 5146SOL     OW19029   4.867   0.392   1.986 -0.3789  0.3862 -0.0566
 5146SOL    HW119030   4.825   0.478   1.986 -0.4345  0.3889  1.2649
 5146SOL    HW219031   4.894   0.380   2.077  1.1531 -0.2593 -0.5701
 5147SOL     OW19032   3.207   8.813   5.556  0.4959  0.0029  0.4146
 5147SOL    HW119033   3.271   8.840   5.622 -0.3372  0.1491  1.1932
 5147SOL    HW219034   3.208   8.717   5.561 -0.2574  0.0243  1.3602
 5148SOL     OW19035   5.446   0.298   3.259 -0.4096 -0.0309 -0.3906
 5148SOL    HW119036   5.512   0.360   3.291  1.4485 -2.3325  0.5657
 5148SOL    HW219037   5.366   0.349   3.254  0.8013  2.2261  1.1981
 5149SOL     OW19038   3.675   9.449   0.725  0.2708  0.5792 -0.1439
 5149SOL    HW119039   3.640   9.529   0.763 -1.0310  0.1246 -0.3198
 5149SOL    HW219040   3.736   9.479   0.658  1.0733  1.3959  0.9287
 5150SOL     OW19041   7.482   5.305  10.645 -0.2538 -0.2638  0.1137
 5150SOL    HW119042   7.526   5.375  10.597 -1.2027 -0.7407 -1.5277
 5150SOL    HW219043   7.478   5.337  10.735  0.3389  1.2962 -0.3745
 5151SOL     OW19044   1.572   4.696   1.696  0.2046 -0.3595  0.1811
 5151SOL    HW119045   1.510   4.751   1.649  0.6857  0.0820  0.0534
 5151SOL    HW219046   1.593   4.626   1.633  0.6285  0.0711 -0.1610
 5152SOL     OW19047   8.652   2.226   1.997 -0.6712  0.0796 -0.5032
 5152SOL    HW119048   8.703   2.246   2.075  0.4634 -1.8382 -0.6755
 5152SOL    HW219049   8.563   2.253   2.019  0.0278  1.6846  0.5615
 5153SOL     OW19050   9.231   0.298   5.716  0.0626 -0.2275  0.5788
 5153SOL    HW119051   9.306   0.257   5.760  0.3331 -2.1154 -1.4657
 5153SOL    HW219052   9.160   0.235   5.726 -1.1868  1.3477  2.0980
 5154SOL     OW19053   8.515  10.638   5.263 -0.5173 -0.1176 -0.6901
 5154SOL    HW119054   8.598  10.615   5.305 -0.6626 -2.0151 -1.3567
 5154SOL    HW219055   8.540  10.668   5.176 -0.5376 -0.8688 -0.9573
 5155SOL     OW19056   2.762   7.021   4.960 -0.3051  0.2195  0.3358
 5155SOL    HW119057   2.789   6.935   4.928 -1.2292 -0.5003  1.4140
 5155SOL    HW219058   2.811   7.033   5.041 -0.4536  0.5399  0.3798
 5156SOL     OW19059   9.030   2.966   0.508  0.0445 -0.3966  0.0184
 5156SOL    HW119060   9.000   2.909   0.437 -0.1513 -0.7083  0.3503
 5156SOL    HW219061   9.118   2.935   0.527  1.0939  1.2418 -1.7296
 5157SOL     OW19062   8.744   9.366   7.060  0.7189 -0.0804 -0.0769
 5157SOL    HW119063   8.692   9.445   7.049  1.5727  0.3172 -1.5693
 5157SOL    HW219064   8.741   9.348   7.154 -1.1054  0.5755  0.0273
 5158SOL     OW19065   0.495   1.637   9.842  0.3952  0.1951 -0.4895
 5158SOL    HW119066   0.423   1.580   9.869  1.8171 -1.5264 -0.1158
 5158SOL    HW219067   0.560   1.628   9.912  1.6929  0.2802 -1.6311
 5159SOL     OW19068   2.644   1.990   2.467  0.0584 -0.3585  0.6515
 5159SOL    HW119069   2.603   2.076   2.474 -1.4370 -0.7925 -1.5945
 5159SOL    HW219070   2.571   1.930   2.452  1.2472 -1.6063 -0.4968
 5160SOL     OW19071   6.474   1.805   3.648 -0.3467  0.1552  0.2027
 5160SOL    HW119072   6.394   1.841   3.687 -0.6742 -0.1654 -0.1635
 5160SOL    HW219073   6.524   1.772   3.722  0.0035  1.4407  0.5608
 5161SOL     OW19074   9.400   9.496   1.510  0.1109 -0.1709 -0.0316
 5161SOL    HW119075   9.365   9.448   1.585  1.2661 -0.1598  0.5413
 5161SOL    HW219076   9.494   9.502   1.527  0.2018  1.0557 -0.7932
 5162SOL     OW19077   1.174   0.031   0.497 -0.5229  0.2481  0.7386
 5162SOL    HW119078   1.174   0.101   0.563 -0.3809 -0.1963  1.2140
 5162SOL    HW219079   1.082   0.003   0.493 -0.5170  0.2202  0.8017
 5163SOL     OW19080   8.279   5.725   9.349  0.4240  0.0154  0.0976
 5163SOL    HW119081   8.215   5.659   9.375 -1.5752  0.8322 -2.3337
 5163SOL    HW219082   8.242   5.808   9.381 -0.2208  0.5809 -1.9466
 5164SOL     OW19083   1.332   0.565   7.360  0.6969  0.2769 -0.0156
 5164SOL    HW119084   1.334   0.470   7.364 -0.4546  0.1986 -0.6796
 5164SOL    HW219085   1.242   0.586   7.332  0.5348  1.5954  1.3317
 5165SOL     OW19086   3.208   6.500   5.204 -0.2772  0.0361 -0.2932
 5165SOL    HW119087   3.152   6.423   5.194  0.1553 -0.4206  0.6862
 5165SOL    HW219088   3.184   6.536   5.289  0.6642  0.0317 -0.0148
 5166SOL     OW19089   1.219   1.968   0.864 -0.4236 -0.3091  0.6163
 5166SOL    HW119090   1.209   1.881   0.904 -0.0709 -0.4927  0.3184
 5166SOL    HW219091   1.277   2.015   0.924 -1.9415  0.3016  1.6476
 5167SOL     OW19092   3.448   2.473   7.151 -0.0704  0.9700 -0.1295
 5167SOL    HW119093   3.376   2.430   7.197  0.1226  1.4177  0.6001
 5167SOL    HW219094   3.454   2.560   7.191  0.4743  1.1576 -0.6060
 5168SOL     OW19095   6.814   0.639   9.795  0.2182  0.4200 -0.3105
 5168SOL    HW119096   6.805   0.544   9.802 -1.4310  0.5818  0.2201
 5168SOL    HW219097   6.728   0.673   9.819  0.7659  2.0554 -0.5356
 5169SOL     OW19098   9.892   9.354  11.109  0.3169 -0.3793 -0.3671
 5169SOL    HW119099   9.893   9.261  11.088  0.5724 -0.2600 -0.8992
 5169SOL    HW219100   9.852   9.359  11.196  0.2815 -0.9810 -0.3474
 5170SOL     OW19101   6.566   9.280   1.446  0.0307 -0.2818 -0.3138
 5170SOL    HW119102   6.527   9.295   1.360  0.3590 -0.7128 -0.5427
 5170SOL    HW219103   6.599   9.190   1.442 -1.2043 -0.8268  0.7398
 5171SOL     OW19104  10.078  10.939   4.395  0.3378  0.1133  0.3987
 5171SOL    HW119105  10.002  10.997   4.389  0.5735  0.4009  0.1521
 5171SOL    HW219106  10.148  10.988   4.353  0.1359 -1.0269 -1.3771
 5172SOL     OW19107   9.429   2.025   6.228  0.2905  0.1136  0.2857
 5172SOL    HW119108   9.427   2.121   6.238 -0.0271 -0.0311  1.7186
 5172SOL    HW219109   9.356   2.007   6.168  0.3153  0.7497  0.0448
 5173SOL     OW19110   3.913   4.407   4.561 -0.3891 -0.1087  0.4697
 5173SOL    HW119111   3.959   4.381   4.481 -1.1828  1.3637 -0.5158
 5173SOL    HW219112   3.982   4.415   4.627  0.4062 -0.4697 -0.2950
 5174SOL     OW19113   0.406   3.895   8.550  0.6965  0.2306  0.1891
 5174SOL    HW119114   0.474   3.902   8.616  1.0851 -0.9546 -0.0692
 5174SOL    HW219115   0.434   3.822   8.494  0.3930  1.1905 -1.2929
 5175SOL     OW19116   1.171   4.155   2.352 -0.3445 -0.3138 -0.0886
 5175SOL    HW119117   1.153   4.240   2.391  0.5785 -1.0146  2.0357
 5175SOL    HW219118   1.109   4.095   2.393  1.4289 -1.2923  1.3029
 5176SOL     OW19119   7.975   2.732   3.963  0.4004  0.0346  0.4637
 5176SOL    HW119120   7.883   2.743   3.988  0.3169  1.7747 -0.4608
 5176SOL    HW219121   7.991   2.638   3.974 -1.6018 -0.3944  0.2586
 5177SOL     OW19122  10.111   1.152   5.797  0.2818  0.3477  0.1690
 5177SOL    HW119123  10.090   1.245   5.788 -1.4188 -0.0015  0.2743
 5177SOL    HW219124  10.056   1.122   5.869  0.0022 -0.9807 -0.5665
 5178SOL     OW19125   7.657   8.223   8.981  0.0824  0.0992 -0.2713
 5178SOL    HW119126   7.622   8.312   8.983 -1.6387 -0.5352  1.3809
 5178SOL    HW219127   7.739   8.228   9.029 -0.9076  0.5124  1.4508
 5179SOL     OW19128   8.261   5.183   7.573  0.0050  0.2525  0.2165
 5179SOL    HW119129   8.326   5.172   7.503  0.3706 -2.8433  0.9218
 5179SOL    HW219130   8.191   5.123   7.550 -0.1670 -0.3342  2.1648
 5180SOL     OW19131   8.475   7.772   6.650 -0.6657  0.4117 -0.4312
 5180SOL    HW119132   8.503   7.697   6.703 -0.3927  1.0657  0.3626
 5180SOL    HW219133   8.465   7.736   6.562  0.2667 -0.3856 -0.2284
 5181SOL     OW19134  11.073   8.378   3.326  0.2489 -0.4820  0.0457
 5181SOL    HW119135  11.105   8.313   3.264 -0.4667 -0.8357  0.0307
 5181SOL    HW219136  11.082   8.462   3.281 -1.1330 -0.8174 -0.9330
 5182SOL     OW19137   0.536   7.546  10.441 -0.5620  0.0833  0.3785
 5182SOL    HW119138   0.499   7.510  10.522 -2.2597  0.2389 -0.2771
 5182SOL    HW219139   0.536   7.641  10.455 -0.8315  0.1088  0.2167
 5183SOL     OW19140  10.506   4.535   7.492 -0.0213 -0.8213 -0.2180
 5183SOL    HW119141  10.499   4.459   7.551  2.1178 -1.0835 -0.2440
 5183SOL    HW219142  10.535   4.606   7.549 -0.5526 -0.3817 -0.4884
 5184SOL     OW19143   5.165   1.904   3.861 -0.4736  0.0712  0.5183
 5184SOL    HW119144   5.126   1.990   3.876  0.9389  0.6689  1.0026
 5184SOL    HW219145   5.255   1.914   3.892 -0.5600 -1.8764  1.5341
 5185SOL     OW19146   0.115   1.833   0.118 -0.1216  0.2789  0.3439
 5185SOL    HW119147   0.052   1.822   0.189  1.7517 -1.3041  1.8783
 5185SOL    HW219148   0.122   1.746   0.079  1.8773  0.1367  0.9329
 5186SOL     OW19149   3.695   3.722   9.115 -0.1060  0.2305  0.7657
 5186SOL    HW119150   3.735   3.663   9.051 -1.4106  0.0794  0.0419
 5186SOL    HW219151   3.614   3.752   9.073 -0.3314  1.1778  1.8206
 5187SOL     OW19152   7.121   3.835   6.056  0.0820  0.0667  0.7192
 5187SOL    HW119153   7.075   3.887   5.990  0.7378  0.3330  0.4542
 5187SOL    HW219154   7.214   3.846   6.034  0.2352 -2.8231 -0.6264
 5188SOL     OW19155   9.776   8.330   5.686  0.4105 -0.2974  0.2079
 5188SOL    HW119156   9.777   8.421   5.715  0.5249 -0.6154  1.2563
 5188SOL    HW219157   9.824   8.283   5.755 -0.2853 -1.2538  0.0557
 5189SOL     OW19158   9.647   4.535   6.816  0.2336  0.1767  0.1957
 5189SOL    HW119159   9.683   4.587   6.744 -0.1095  1.7672  1.1303
 5189SOL    HW219160   9.552   4.534   6.800 -0.1321  2.3988  1.6966
 5190SOL     OW19161   4.733   8.163  10.776  0.5977 -0.6416 -0.0754
 5190SOL    HW119162   4.675   8.173  10.701  1.0587 -0.5458 -0.4195
 5190SOL    HW219163   4.815   8.130  10.740  1.3363  0.8290  0.1496
 5191SOL     OW19164   8.437   5.302   6.068 -0.0326 -0.0401  0.5158
 5191SOL    HW119165   8.462   5.352   6.145  2.8321 -0.0728 -0.2500
 5191SOL    HW219166   8.520   5.289   6.021 -1.3789 -1.6366 -1.5876
 5192SOL     OW19167   9.837   5.623   7.507  0.2824  0.0408 -0.3812
 5192SOL    HW119168   9.857   5.685   7.577  0.0585 -0.0587 -0.2299
 5192SOL    HW219169   9.789   5.675   7.443 -0.7609 -0.1954  0.1881
 5193SOL     OW19170   2.633   6.062   7.323 -0.3954 -0.4788  0.4968
 5193SOL    HW119171   2.538   6.061   7.328 -0.3373 -0.1645  1.9163
 5193SOL    HW219172   2.663   6.080   7.412  1.0075 -0.9487  0.1594
 5194SOL     OW19173  10.623   5.000   7.490 -0.4188 -0.5363 -0.1797
 5194SOL    HW119174  10.714   5.017   7.466 -0.1097 -1.3257  0.3804
 5194SOL    HW219175  10.574   5.014   7.409  0.1868 -0.0171 -0.4641
 5195SOL     OW19176   5.181   8.509   5.421  0.0207 -1.0326 -0.1540
 5195SOL    HW119177   5.144   8.420   5.415 -2.5635 -0.1462  1.1039
 5195SOL    HW219178   5.149   8.553   5.342  2.1662 -1.4190 -1.3209
 5196SOL     OW19179   1.638   2.443   1.233 -0.2308  0.1855  0.0334
 5196SOL    HW119180   1.642   2.385   1.157 -2.1040  1.2191 -0.9361
 5196SOL    HW219181   1.673   2.527   1.202  1.9024 -0.1817  1.2476
 5197SOL     OW19182   2.258  10.958   8.078  0.2983  0.6624 -0.0909
 5197SOL    HW119183   2.277  11.021   8.007 -0.7926 -0.0972 -1.0949
 5197SOL    HW219184   2.308  10.991   8.153  0.2456  2.3876 -0.7580
 5198SOL     OW19185   8.844   8.256   3.943  0.1977  0.5956  0.2941
 5198SOL    HW119186   8.866   8.212   4.025 -2.7232  0.2543  1.0204
 5198SOL    HW219187   8.786   8.328   3.969 -2.9305 -1.0310 -1.4973
 5199SOL     OW19188  10.841  10.462   7.005  0.0207  0.3010 -0.5205
 5199SOL    HW119189  10.781  10.533   7.029  0.5974  0.5091  0.3752
 5199SOL    HW219190  10.883  10.438   7.088 -0.5280 -1.4499 -0.7201
 5200SOL     OW19191   0.288   2.652   8.591  0.0153  0.2062 -0.6913
 5200SOL    HW119192   0.302   2.731   8.539 -0.2397  0.0770 -0.9622
 5200SOL    HW219193   0.371   2.637   8.635 -0.1636  1.0431 -0.0473
 5201SOL     OW19194   0.098   1.245   8.048  0.3833 -0.0252 -0.5871
 5201SOL    HW119195   0.123   1.160   8.083 -0.1650 -0.1059 -0.3712
 5201SOL    HW219196   0.074   1.297   8.125  1.0615  0.4448 -0.6861
 5202SOL     OW19197   3.708   4.794   3.651  0.1511  0.1140 -0.1367
 5202SOL    HW119198   3.656   4.725   3.611  0.1987  0.3169 -0.5477
 5202SOL    HW219199   3.648   4.868   3.661  0.3957  0.4085 -0.7727
 5203SOL     OW19200   5.384   2.906   3.386 -0.8151 -0.1509 -0.4304
 5203SOL    HW119201   5.426   2.933   3.305  1.0086 -1.0146  0.1883
 5203SOL    HW219202   5.416   2.817   3.402 -4.4589 -1.7698 -0.9687
 5204SOL     OW19203   0.753   3.596  10.121  0.3003 -0.1936 -0.5245
 5204SOL    HW119204   0.674   3.566  10.075  0.2258  0.3343 -0.7541
 5204SOL    HW219205   0.814   3.523  10.116 -1.2883 -1.9126  2.4581
 5205SOL     OW19206   8.943   8.419   5.681 -0.5652 -0.1582  0.4429
 5205SOL    HW119207   8.930   8.365   5.759 -2.6704  1.8483  1.5965
 5205SOL    HW219208   8.860   8.414   5.634 -0.2694  0.8668 -0.2231
 5206SOL     OW19209   8.538   7.200   3.135  0.3080  0.7522  0.0227
 5206SOL    HW119210   8.477   7.262   3.176 -1.0077 -1.6467  1.9801
 5206SOL    HW219211   8.572   7.148   3.208  1.2870 -0.8876 -1.5258
 5207SOL     OW19212   8.018  10.349   8.744  0.1174 -0.5704  0.2008
 5207SOL    HW119213   7.970  10.430   8.730  2.4902  0.9091  0.0993
 5207SOL    HW219214   8.109  10.376   8.753  0.8082 -3.0710  1.8505
 5208SOL     OW19215   0.143   6.924  10.090 -0.0014  0.3286  0.5018
 5208SOL    HW119216   0.199   6.847  10.082 -1.0141 -0.3777 -0.0350
 5208SOL    HW219217   0.096   6.928  10.006 -1.8299  0.0372  1.4757
 5209SOL     OW19218   7.391   1.217   1.563  0.3521 -0.2383 -0.1379
 5209SOL    HW119219   7.396   1.297   1.511 -0.1537 -0.3380 -0.3467
 5209SOL    HW219220   7.407   1.245   1.653  1.4072 -0.0887 -0.3555
 5210SOL     OW19221   2.814   7.823   0.103  0.2878  0.0881 -0.0374
 5210SOL    HW119222   2.809   7.887   0.032 -1.1258  1.9369  1.6317
 5210SOL    HW219223   2.908   7.813   0.120  0.5817  0.7346 -1.1779
 5211SOL     OW19224   7.798   7.660   3.434  0.0522 -0.6777  0.0842
 5211SOL    HW119225   7.850   7.693   3.507 -1.2024 -0.2565  0.8307
 5211SOL    HW219226   7.756   7.737   3.396  1.2558 -0.7978 -1.5816
 5212SOL     OW19227   0.796   1.463   2.598 -0.1465  0.2111 -0.1980
 5212SOL    HW119228   0.879   1.446   2.642 -0.9077 -0.9099  0.8796
 5212SOL    HW219229   0.794   1.400   2.525 -0.0143  0.3045 -0.2825
 5213SOL     OW19230   7.392   4.930   3.625 -0.0583  0.2554  0.5271
 5213SOL    HW119231   7.338   5.009   3.630  1.3538  1.3476 -0.6968
 5213SOL    HW219232   7.389   4.905   3.533  3.1384  1.5842 -0.0534
 5214SOL     OW19233   8.337   8.948   9.099 -0.4729 -0.7353 -0.4572
 5214SOL    HW119234   8.421   8.960   9.055  0.3059 -0.4192  1.0632
 5214SOL    HW219235   8.316   8.856   9.086 -0.2991 -0.6468 -1.5074
 5215SOL     OW19236   3.696  11.040   3.720 -0.5438 -0.5459  0.0505
 5215SOL    HW119237   3.668  11.038   3.812  1.0165  0.9888  0.6213
 5215SOL    HW219238   3.635  10.981   3.675 -1.0660 -1.7023  2.1343
 5216SOL     OW19239   5.454   5.359   4.854  0.2593  0.5662 -0.1696
 5216SOL    HW119240   5.413   5.442   4.829 -0.3259  0.3352  0.0194
 5216SOL    HW219241   5.383   5.295   4.852  0.9469 -0.2046 -1.5720
 5217SOL     OW19242   0.538   3.647   8.169  0.4304  0.1346  0.7036
 5217SOL    HW119243   0.501   3.623   8.084 -2.1870  0.0292  1.7560
 5217SOL    HW219244   0.612   3.588   8.181  0.0139 -0.7816 -0.9174
 5218SOL     OW19245   1.264   9.401   4.989 -0.5737  0.3181 -0.1851
 5218SOL    HW119246   1.181   9.364   5.019  0.2926 -2.4131 -0.8834
 5218SOL    HW219247   1.312   9.422   5.070 -0.5133 -1.6090  0.3280
 5219SOL     OW19248   5.909  10.639   3.255 -0.1676 -0.2472 -0.2193
 5219SOL    HW119249   5.910  10.563   3.313 -0.1690  0.1440  0.3027
 5219SOL    HW219250   5.880  10.605   3.171 -2.2977 -0.4634  0.5384
 5220SOL     OW19251   3.567  10.406   4.349  0.3138  0.5013  0.0385
 5220SOL    HW119252   3.634  10.473   4.367  1.5741 -0.4153 -1.0477
 5220SOL    HW219253   3.616  10.335   4.308 -1.2993 -0.3621 -0.4321
 5221SOL     OW19254   2.069   9.637  10.746  0.1360 -0.1808 -0.1480
 5221SOL    HW119255   2.108   9.719  10.778 -2.8378  0.8422  1.2489
 5221SOL    HW219256   2.037   9.658  10.659  0.6202 -0.3066 -0.3595
 5222SOL     OW19257   4.272   2.490   3.770 -0.8287 -0.1155  0.1866
 5222SOL    HW119258   4.242   2.445   3.691  2.1784 -0.6065 -0.8335
 5222SOL    HW219259   4.277   2.582   3.745 -1.3986 -0.0336  0.3563
 5223SOL     OW19260   0.969   0.745   7.511  0.7475  0.3519  0.3746
 5223SOL    HW119261   1.050   0.793   7.528  0.6836 -0.4067  3.6682
 5223SOL    HW219262   0.904   0.813   7.495  1.4904  1.1176  0.4916
 5224SOL     OW19263   0.578   1.231   3.271  0.1289  0.5149  0.3187
 5224SOL    HW119264   0.672   1.225   3.254 -0.1053  0.3951 -0.9618
 5224SOL    HW219265   0.540   1.159   3.223 -0.7206  1.1054  0.0872
 5225SOL     OW19266   6.866   3.269   4.585  0.0060 -0.1201  0.2247
 5225SOL    HW119267   6.921   3.218   4.645  0.5116  1.0860  0.8231
 5225SOL    HW219268   6.924   3.339   4.553 -0.5647 -0.1195 -0.8532
 5226SOL     OW19269   5.645   3.885   5.916  0.2429 -0.5212  0.1019
 5226SOL    HW119270   5.717   3.829   5.888  1.0866 -0.6454  2.3365
 5226SOL    HW219271   5.571   3.858   5.861  1.7718 -0.6084 -2.0162
 5227SOL     OW19272   6.494   4.792   8.468  0.1272  0.3088 -0.8673
 5227SOL    HW119273   6.458   4.777   8.555 -2.0419  1.4010 -1.5247
 5227SOL    HW219274   6.543   4.874   8.476 -0.5299  0.7023 -0.7795
 5228SOL     OW19275   0.229   2.419   0.409  0.3391  0.3110  0.4749
 5228SOL    HW119276   0.194   2.432   0.497 -0.1930  0.2623  0.2766
 5228SOL    HW219277   0.156   2.381   0.360  0.5398  0.6029 -0.0583
 5229SOL     OW19278   3.415   4.411   8.672  0.3593  0.2276  0.3398
 5229SOL    HW119279   3.488   4.355   8.702  0.2421 -0.2814 -0.3089
 5229SOL    HW219280   3.350   4.404   8.742  0.2805 -0.5905  0.1983
 5230SOL     OW19281   4.686   2.977   4.272 -0.3130  0.2058 -0.2718
 5230SOL    HW119282   4.627   2.922   4.323  0.1708  0.1190  0.1972
 5230SOL    HW219283   4.628   3.026   4.213 -0.8702  0.2775  0.3293
 5231SOL     OW19284   0.808   6.665   1.839  0.0554 -0.5373  0.6177
 5231SOL    HW119285   0.872   6.683   1.907  1.5068  1.7527 -1.2101
 5231SOL    HW219286   0.746   6.738   1.845 -0.2551 -0.7405 -0.0132
 5232SOL     OW19287  10.915   9.990  10.982  0.3419  0.0098  0.1162
 5232SOL    HW119288  10.965   9.961  11.058  0.2602  1.3770  0.7199
 5232SOL    HW219289  10.846   9.925  10.972 -0.0360  0.1561  1.6129
 5233SOL     OW19290   2.777   5.017   6.399  0.1386  0.4279 -0.4120
 5233SOL    HW119291   2.696   4.966   6.397 -0.5334  1.4424 -0.1597
 5233SOL    HW219292   2.753   5.097   6.445  1.3152  0.7214 -0.2802
 5234SOL     OW19293   5.290   4.906   8.111 -0.7865 -0.0237  0.1354
 5234SOL    HW119294   5.336   4.974   8.063  0.9261  0.7264  2.6175
 5234SOL    HW219295   5.359   4.851   8.148 -1.9620 -0.3983  1.9142
 5235SOL     OW19296   7.095   0.552   9.136  0.0950  0.1469  0.0553
 5235SOL    HW119297   7.154   0.490   9.093  0.4333  0.9353 -0.6568
 5235SOL    HW219298   7.131   0.638   9.114  1.0680  0.6129  3.0134
 5236SOL     OW19299   6.010  10.796   1.082 -0.1083  0.0404  0.0340
 5236SOL    HW119300   5.998  10.815   1.175 -1.0097 -0.0497 -0.0557
 5236SOL    HW219301   6.043  10.706   1.079 -1.9228 -0.6744  0.2081
 5237SOL     OW19302   9.636   5.881   5.558 -0.3767  0.0992 -0.0270
 5237SOL    HW119303   9.602   5.797   5.588 -1.8684  0.5389 -0.4123
 5237SOL    HW219304   9.560   5.926   5.521  0.2687  1.8472  0.6781
 5238SOL     OW19305   8.842   0.184  10.257  0.1128  0.7800 -0.6337
 5238SOL    HW119306   8.910   0.181  10.190  0.9462 -1.1623  0.2312
 5238SOL    HW219307   8.837   0.095  10.291  1.9948  2.1899  4.0978
 5239SOL     OW19308   4.917   5.546   9.331  0.4242  0.2838  0.5410
 5239SOL    HW119309   4.964   5.626   9.354 -1.2129  1.7485 -0.8165
 5239SOL    HW219310   4.833   5.577   9.296  0.2420 -1.9752 -1.2886
 5240SOL     OW19311   9.367   2.044   4.512 -0.1541  0.6444 -0.2777
 5240SOL    HW119312   9.293   2.018   4.457 -0.8335 -0.9150  1.2867
 5240SOL    HW219313   9.360   2.140   4.518 -0.0850  0.8718 -2.7796
 5241SOL     OW19314   5.876   5.896   0.150  0.1501  0.3735 -0.3107
 5241SOL    HW119315   5.847   5.909   0.240 -0.7263  0.5817 -0.6185
 5241SOL    HW219316   5.804   5.851   0.107  1.3114 -1.4855 -0.4384
 5242SOL     OW19317   4.875   8.522   7.356  0.0686  0.2164 -0.2706
 5242SOL    HW119318   4.948   8.573   7.392 -1.9879  1.5552  2.4912
 5242SOL    HW219319   4.888   8.434   7.391 -0.0261  0.6603  0.9597
 5243SOL     OW19320   1.788   3.050  11.069 -0.3466  0.0139 -0.1230
 5243SOL    HW119321   1.793   3.084  11.158  0.5453 -1.2787  0.3475
 5243SOL    HW219322   1.702   3.078  11.038 -0.4551  0.9353  0.9379
 5244SOL     OW19323   2.013   4.353   8.568 -0.1954 -0.3382  0.4242
 5244SOL    HW119324   2.005   4.381   8.660 -2.8514 -0.6050  0.3731
 5244SOL    HW219325   2.089   4.400   8.535 -0.4434  1.4574  2.1997
 5245SOL     OW19326   9.139   3.653   8.609 -0.2739 -0.0067 -0.1861
 5245SOL    HW119327   9.087   3.702   8.546 -0.3287 -0.0106 -0.1448
 5245SOL    HW219328   9.214   3.710   8.628  1.1890 -1.1068 -2.2764
 5246SOL     OW19329   4.148   3.468   0.764  0.0121 -0.5022 -0.0179
 5246SOL    HW119330   4.130   3.560   0.745 -0.0387 -0.2434  1.2217
 5246SOL    HW219331   4.234   3.452   0.725 -0.5553 -0.3052 -1.3864
 5247SOL     OW19332   4.041   7.572   4.572 -0.5627 -0.6386  0.8135
 5247SOL    HW119333   4.023   7.653   4.620  0.1848  0.4425 -0.6879
 5247SOL    HW219334   4.124   7.587   4.528 -1.1640 -1.6369 -0.7439
 5248SOL     OW19335   7.554   6.998   9.652 -0.5032 -0.6123 -0.3070
 5248SOL    HW119336   7.503   7.067   9.610 -0.3828  0.1002  0.6784
 5248SOL    HW219337   7.505   6.918   9.635 -1.2237 -0.1317 -0.5390
 5249SOL     OW19338   2.731   6.629  10.616 -0.1458 -0.0072 -0.8136
 5249SOL    HW119339   2.668   6.592  10.554 -2.1872  1.3718  0.3441
 5249SOL    HW219340   2.780   6.693  10.564 -1.4613  0.7426 -1.1778
 5250SOL     OW19341   0.893   1.002   9.868 -0.4765 -0.0558  0.3444
 5250SOL    HW119342   0.907   0.933   9.804  0.7546  0.1806  0.3210
 5250SOL    HW219343   0.942   1.077   9.834  1.1151 -0.2406  2.0337
 5251SOL     OW19344   9.678  11.082   2.953 -0.2171  0.6430 -0.2474
 5251SOL    HW119345   9.721  11.160   2.987  0.6540  0.8567 -1.7430
 5251SOL    HW219346   9.650  11.107   2.864 -1.1664 -0.3083 -0.2401
 5252SOL     OW19347   7.624   3.247   1.846 -0.1844  0.0956  0.1199
 5252SOL    HW119348   7.544   3.281   1.806 -0.4273 -0.4731  0.1271
 5252SOL    HW219349   7.688   3.317   1.831 -0.3116 -0.0277 -1.1057
 5253SOL     OW19350  10.168   7.228   2.708 -0.2051 -0.1125  0.8589
 5253SOL    HW119351  10.094   7.264   2.660  0.0269 -0.6655  0.0705
 5253SOL    HW219352  10.237   7.218   2.643  0.4652  0.1023  1.5213
 5254SOL     OW19353   9.918   5.930   3.955 -0.8686  0.1040  0.4381
 5254SOL    HW119354   9.995   5.888   3.994 -1.5452  0.0097  1.7423
 5254SOL    HW219355   9.923   6.021   3.984 -0.2446  0.5636 -1.0693
 5255SOL     OW19356   1.196  10.033   7.303 -0.4447 -0.2818 -0.1431
 5255SOL    HW119357   1.255   9.973   7.255 -0.9867  0.3808 -1.6925
 5255SOL    HW219358   1.120   9.979   7.324  0.3032 -0.9114  1.1224
 5256SOL     OW19359   5.965   7.455   5.233 -0.3621 -0.2003 -0.5003
 5256SOL    HW119360   6.045   7.479   5.278 -0.8949 -0.5259  0.6816
 5256SOL    HW219361   5.983   7.368   5.196 -0.7263 -1.1373  1.3712
 5257SOL     OW19362   4.840   0.569  10.402 -0.0937 -0.4706  0.0101
 5257SOL    HW119363   4.782   0.556  10.477 -0.5227  0.1024 -0.2160
 5257SOL    HW219364   4.908   0.629  10.434 -0.8495  0.5986 -0.3385
 5258SOL     OW19365   1.143  10.045   1.336  0.4225 -0.0938 -0.0828
 5258SOL    HW119366   1.049  10.058   1.323  0.4797 -0.0521 -0.4554
 5258SOL    HW219367   1.184  10.082   1.258  0.6832 -1.0216 -0.3969
 5259SOL     OW19368   2.603   4.862   9.025 -0.6089 -0.5440 -0.3847
 5259SOL    HW119369   2.617   4.905   9.109  2.2484  0.6726 -1.3287
 5259SOL    HW219370   2.590   4.770   9.047  1.4268 -0.4982  1.3947
 5260SOL     OW19371   6.672   2.335   5.681 -0.1451 -0.2618  0.0207
 5260SOL    HW119372   6.631   2.416   5.712  0.4727  0.2160 -0.3923
 5260SOL    HW219373   6.663   2.275   5.755  1.5579  0.9480  1.2886
 5261SOL     OW19374   2.521   5.817   0.046  0.8859 -0.4374 -0.3295
 5261SOL    HW119375   2.605   5.788   0.080  1.7524  2.0108 -0.1384
 5261SOL    HW219376   2.470   5.841   0.124 -1.1799 -4.4566 -0.2203
 5262SOL     OW19377   1.322   8.836  10.261 -0.2169  0.7137 -0.0016
 5262SOL    HW119378   1.351   8.790  10.340 -0.1593 -0.3602 -0.6200
 5262SOL    HW219379   1.242   8.790  10.234 -1.7657  2.7369  0.8821
 5263SOL     OW19380   4.632   8.300   2.965  0.1575 -0.5390  0.3194
 5263SOL    HW119381   4.635   8.283   3.059  0.6131  2.4776  0.9601
 5263SOL    HW219382   4.708   8.357   2.949 -0.0996 -0.7355 -1.8135
 5264SOL     OW19383   0.178   8.273  10.777 -0.1222  0.2618  0.3322
 5264SOL    HW119384   0.225   8.195  10.806 -1.0579 -1.4195 -2.2822
 5264SOL    HW219385   0.232   8.309  10.708 -0.0403  1.5679  1.0521
 5265SOL     OW19386   1.168   9.094   0.220 -0.2429 -0.2237  0.1245
 5265SOL    HW119387   1.184   9.090   0.125  1.8590 -1.1847  0.4747
 5265SOL    HW219388   1.250   9.126   0.257 -1.0747  0.2544  1.6429
 5266SOL     OW19389   6.280   3.664   3.042  1.0540  0.0274  0.0478
 5266SOL    HW119390   6.211   3.615   3.087 -0.1097  0.3190 -1.3338
 5266SOL    HW219391   6.254   3.755   3.051  2.1382  0.2712  0.8812
 5267SOL     OW19392   5.041  10.211   1.888 -0.7324  0.6512  0.4862
 5267SOL    HW119393   5.008  10.293   1.925 -1.6550 -0.0770  1.3449
 5267SOL    HW219394   4.989  10.143   1.930 -0.0453 -0.3825 -0.2738
 5268SOL     OW19395   0.736   3.994   6.678  0.1002  0.3780 -0.6705
 5268SOL    HW119396   0.649   3.982   6.717  0.5138 -2.9374 -0.4526
 5268SOL    HW219397   0.731   3.946   6.595  1.2385  1.6225 -1.4819
 5269SOL     OW19398   1.609   1.959   8.654 -0.1957 -0.1435 -0.1143
 5269SOL    HW119399   1.540   1.970   8.589  0.2291  1.3014 -0.3464
 5269SOL    HW219400   1.687   1.935   8.604  0.4339  2.1649 -0.3132
 5270SOL     OW19401   5.426   4.565   0.525  0.0849  0.4156 -0.2019
 5270SOL    HW119402   5.506   4.617   0.531  1.0079 -1.0696  3.3032
 5270SOL    HW219403   5.455   4.480   0.493 -0.1352  0.0032  0.6683
 5271SOL     OW19404  10.487   7.980   4.650 -0.1970  0.0444 -0.3579
 5271SOL    HW119405  10.532   8.002   4.569 -1.1320 -0.2001 -0.9559
 5271SOL    HW219406  10.513   7.890   4.669 -0.8809 -0.2998 -1.0205
 5272SOL     OW19407   6.607   1.346   9.783 -0.1686  0.3470  0.2556
 5272SOL    HW119408   6.616   1.337   9.878  1.5312 -0.0790  0.0789
 5272SOL    HW219409   6.694   1.327   9.749 -0.5766  1.2196 -1.3485
 5273SOL     OW19410   4.655   4.626   4.015  0.3253 -0.3143 -0.1245
 5273SOL    HW119411   4.731   4.683   4.006 -0.4101  0.5612 -1.1696
 5273SOL    HW219412   4.638   4.622   4.109  1.5950 -0.4617  0.1109
 5274SOL     OW19413  10.688   0.841   4.607 -0.4967  0.4003 -0.4931
 5274SOL    HW119414  10.648   0.906   4.549 -1.8822  0.5472  0.5717
 5274SOL    HW219415  10.730   0.779   4.547 -1.9894  0.4779 -1.6814
 5275SOL     OW19416   0.092   4.241   4.935 -0.3275  0.2098 -0.1322
 5275SOL    HW119417   0.079   4.333   4.911  1.0206  0.4512 -0.0706
 5275SOL    HW219418   0.116   4.244   5.028 -2.8116 -0.4630  0.5933
 5276SOL     OW19419   4.783   2.451  10.757  0.0018 -0.5888  0.3718
 5276SOL    HW119420   4.687   2.450  10.747  0.1049  0.5585 -1.0581
 5276SOL    HW219421   4.797   2.473  10.849 -1.2191  4.1915 -0.2840
 5277SOL     OW19422   3.497   1.718   3.707 -0.1344  0.4321 -0.5320
 5277SOL    HW119423   3.592   1.707   3.698 -0.2326  0.1352 -1.3481
 5277SOL    HW219424   3.486   1.779   3.780  0.6480 -0.2893  0.2037
 5278SOL     OW19425   9.740   9.018   7.492  0.1859  0.4703 -0.2569
 5278SOL    HW119426   9.680   8.971   7.434 -0.8858  0.8673  0.4875
 5278SOL    HW219427   9.755   9.102   7.448 -0.7667  0.8432  0.0888
 5279SOL     OW19428   3.238  10.338   8.284 -0.4139  0.7802 -0.0116
 5279SOL    HW119429   3.176  10.392   8.234 -0.9566  0.4808  0.3297
 5279SOL    HW219430   3.321  10.349   8.238 -1.2785 -0.9830 -2.1513
 5280SOL     OW19431   6.536   9.436   3.062 -0.4055 -0.3950 -0.1097
 5280SOL    HW119432   6.601   9.452   3.130 -1.7718  1.3502  0.8909
 5280SOL    HW219433   6.517   9.342   3.068 -0.4243 -0.3020  1.8973
 5281SOL     OW19434   0.456   7.308   9.758  0.3909 -0.4083 -0.4420
 5281SOL    HW119435   0.417   7.359   9.829 -0.0629  0.3536 -1.2174
 5281SOL    HW219436   0.546   7.291   9.787  0.6078  0.9945 -0.2424
 5282SOL     OW19437   9.031   6.861   1.694  0.0259  0.3903  0.3459
 5282SOL    HW119438   9.098   6.864   1.625  1.8659  0.3515  2.0545
 5282SOL    HW219439   9.071   6.904   1.769 -2.1911  1.0527  1.2295
 5283SOL     OW19440   3.838   2.100   6.992 -0.3674 -0.2611 -0.0618
 5283SOL    HW119441   3.902   2.102   6.920  0.5046  0.4752  0.7084
 5283SOL    HW219442   3.883   2.142   7.065 -1.2066 -1.0673  0.9521
 5284SOL     OW19443   1.518   4.778  10.554 -0.1017 -0.3397 -0.0030
 5284SOL    HW119444   1.436   4.798  10.599 -0.0526 -1.2432  0.5086
 5284SOL    HW219445   1.585   4.825  10.605 -0.1464 -0.6842  0.3797
 5285SOL     OW19446   3.485   3.685   0.581  0.3178  0.7914  0.3811
 5285SOL    HW119447   3.529   3.668   0.665  1.3520  1.0777 -0.0865
 5285SOL    HW219448   3.401   3.642   0.589  0.6386  0.3164  1.3564
 5286SOL     OW19449   6.520  10.724   0.191 -0.8590 -0.2557  0.1887
 5286SOL    HW119450   6.586  10.659   0.165 -1.1417 -0.3013 -0.4042
 5286SOL    HW219451   6.561  10.770   0.265  0.6484  0.9969 -1.3444
 5287SOL     OW19452   9.828   9.769   7.848 -0.0049  0.3774 -0.9164
 5287SOL    HW119453   9.840   9.781   7.943  2.0357 -0.7445 -0.9654
 5287SOL    HW219454   9.861   9.850   7.810  0.1813  0.4084 -0.6968
 5288SOL     OW19455  10.029   5.773   7.262 -0.8944 -0.3020  0.4165
 5288SOL    HW119456   9.947   5.761   7.309 -0.6099 -1.0262  0.7364
 5288SOL    HW219457  10.096   5.734   7.318 -0.4420 -0.4829 -0.2302
 5289SOL     OW19458   7.786   7.337   4.403 -0.3704 -0.2399 -0.0634
 5289SOL    HW119459   7.804   7.337   4.497 -0.5587 -0.2782 -0.0276
 5289SOL    HW219460   7.712   7.278   4.393 -1.4470  1.0702 -0.0312
 5290SOL     OW19461   8.534   0.144   1.311 -0.0131 -0.1121 -0.5831
 5290SOL    HW119462   8.494   0.149   1.398  1.0342  1.2035 -0.1491
 5290SOL    HW219463   8.482   0.078   1.265  0.4552 -2.1170  1.5721
 5291SOL     OW19464   0.733   2.821   0.549 -0.0507  0.1319  0.2791
 5291SOL    HW119465   0.819   2.852   0.576  0.3975 -0.3222 -0.5993
 5291SOL    HW219466   0.751   2.745   0.493 -1.0365 -0.3175  0.5407
 5292SOL     OW19467   7.683   6.268   8.435 -0.4332 -0.4472  0.0050
 5292SOL    HW119468   7.702   6.358   8.459  0.5288  0.1872 -2.7954
 5292SOL    HW219469   7.717   6.216   8.508  0.8608  1.3335  0.7407
 5293SOL     OW19470   6.175   6.881   8.703 -0.2904 -0.1278 -0.1457
 5293SOL    HW119471   6.154   6.791   8.729 -0.7926 -0.9254 -2.9447
 5293SOL    HW219472   6.099   6.933   8.731 -0.2142 -0.6468  1.0573
 5294SOL     OW19473   9.011   1.061   9.848  0.0432 -0.4540  0.6758
 5294SOL    HW119474   9.049   1.084   9.763  1.1112 -1.3340  0.8752
 5294SOL    HW219475   8.941   1.123   9.862  0.8762  0.7022 -0.1363
 5295SOL     OW19476   6.675   4.237   8.536  0.0649 -0.4541 -0.2885
 5295SOL    HW119477   6.677   4.195   8.450 -0.3532  0.5354 -0.7990
 5295SOL    HW219478   6.703   4.169   8.597 -3.5202 -2.5013 -0.6386
 5296SOL     OW19479  10.802   3.317   2.823  0.1137  0.4627  0.4501
 5296SOL    HW119480  10.775   3.296   2.733 -0.1140  0.6194  0.4793
 5296SOL    HW219481  10.837   3.235   2.857  1.3415  0.7117 -0.1821
 5297SOL     OW19482   4.552   2.982   9.876 -0.1138  0.5513 -0.1238
 5297SOL    HW119483   4.528   2.890   9.889 -1.5140  0.9876  0.6068
 5297SOL    HW219484   4.642   2.979   9.844  0.0591 -1.0534  0.4101
 5298SOL     OW19485   0.076  11.059   8.084  0.4304  0.1363 -0.6649
 5298SOL    HW119486   0.014  11.127   8.112  1.2638 -0.1842  2.2532
 5298SOL    HW219487   0.159  11.106   8.072  0.9639 -0.2506  1.1809
 5299SOL     OW19488   2.555   6.032   2.120  0.1050  0.0219 -0.1172
 5299SOL    HW119489   2.487   5.993   2.065  0.3922  0.9884 -1.1866
 5299SOL    HW219490   2.584   5.960   2.177 -1.1803 -0.6305 -0.2522
 5300SOL     OW19491   1.991   9.267   3.146 -0.2661  0.1628 -0.3046
 5300SOL    HW119492   1.996   9.252   3.241 -1.4623  1.2350 -0.0440
 5300SOL    HW219493   2.076   9.306   3.124  0.2413 -0.6110  0.2026
 5301SOL     OW19494   5.469   0.381   6.496 -0.4631 -0.4789  0.3783
 5301SOL    HW119495   5.457   0.329   6.576 -0.1105 -3.4715 -1.3605
 5301SOL    HW219496   5.380   0.408   6.472 -0.7323 -0.7557  1.0362
 5302SOL     OW19497  10.053   7.129   4.359  0.2669  0.4502 -0.3127
 5302SOL    HW119498  10.055   7.090   4.272  0.3510 -2.1662  0.7711
 5302SOL    HW219499  10.125   7.192   4.359  0.0682  0.7205 -2.2068
 5303SOL     OW19500   2.351   2.343   0.702 -0.0917  0.2110 -0.4198
 5303SOL    HW119501   2.401   2.272   0.660 -1.3798 -1.5809  0.9072
 5303SOL    HW219502   2.294   2.375   0.632 -0.2825 -0.8664 -0.7906
 5304SOL     OW19503   0.713   5.528   8.244  0.2220 -0.1218 -0.4483
 5304SOL    HW119504   0.741   5.499   8.157 -1.6459  0.2009 -1.2102
 5304SOL    HW219505   0.682   5.618   8.230  0.3882  0.1258  0.6724
 5305SOL     OW19506   2.215   6.521   6.604 -0.3255  0.0680 -0.3144
 5305SOL    HW119507   2.187   6.432   6.580 -0.7348  0.0471  0.2129
 5305SOL    HW219508   2.135   6.564   6.635 -0.2009  0.7499 -0.9234
 5306SOL     OW19509   3.254   1.472   6.364 -0.0334 -0.1507 -0.0308
 5306SOL    HW119510   3.218   1.482   6.452  1.1927  0.3652  0.4316
 5306SOL    HW219511   3.340   1.515   6.368 -0.0739  0.1291 -1.5490
 5307SOL     OW19512   9.573   9.370   4.452 -0.4303  0.1154 -0.1410
 5307SOL    HW119513   9.612   9.435   4.394  0.8648  0.5372  1.1377
 5307SOL    HW219514   9.481   9.368   4.429 -0.1644  1.1502 -1.3629
 5308SOL     OW19515   8.494   5.336   5.651  0.0900 -0.1475  0.6566
 5308SOL    HW119516   8.498   5.294   5.737 -1.0845  1.1796  1.4101
 5308SOL    HW219517   8.581   5.322   5.614  1.6041  1.5282  3.2264
 5309SOL     OW19518   4.341   9.471   9.854 -0.2062 -0.0080  0.6544
 5309SOL    HW119519   4.350   9.530   9.928  0.4677 -0.1107  0.6621
 5309SOL    HW219520   4.246   9.464   9.840 -0.2936  1.1602  0.5732
 5310SOL     OW19521   3.002   3.623  10.857 -0.2360 -0.0241  0.4150
 5310SOL    HW119522   2.944   3.615  10.782 -2.4729  0.9148  1.9409
 5310SOL    HW219523   3.037   3.711  10.852  1.1993 -0.6108 -0.5388
 5311SOL     OW19524   3.329   0.809   2.606 -0.1811  0.1654 -0.9197
 5311SOL    HW119525   3.249   0.852   2.637  0.3491  1.5282 -1.3435
 5311SOL    HW219526   3.299   0.735   2.554 -1.1399 -0.0155 -0.1374
 5312SOL     OW19527   3.275   3.375   3.743  0.6772  0.0795 -0.2175
 5312SOL    HW119528   3.356   3.332   3.715  0.0933 -0.7465 -0.6757
 5312SOL    HW219529   3.270   3.359   3.837  1.7604  1.3715  0.0978
 5313SOL     OW19530   5.393   4.190   1.585 -0.0316  0.3036 -0.0369
 5313SOL    HW119531   5.429   4.250   1.519 -0.2604  0.0553 -0.3881
 5313SOL    HW219532   5.355   4.118   1.535  0.8230 -0.4723  0.4055
 5314SOL     OW19533   8.572   8.671   2.437  0.1136 -0.0947 -0.0489
 5314SOL    HW119534   8.645   8.638   2.385  0.3714  1.5853 -0.8198
 5314SOL    HW219535   8.613   8.702   2.518 -0.0340 -0.9649  0.3717
 5315SOL     OW19536   0.726   8.864   5.948  0.0790  0.0319 -0.2402
 5315SOL    HW119537   0.739   8.958   5.938 -0.3887  0.1630  0.3623
 5315SOL    HW219538   0.771   8.842   6.030  2.5391 -0.7620 -1.6911
 5316SOL     OW19539  10.638   0.018   8.312  0.2151 -0.3890 -0.5616
 5316SOL    HW119540  10.685  -0.003   8.392 -2.6425 -0.1633  1.3244
 5316SOL    HW219541  10.654  -0.057   8.254  0.7953 -1.4894  0.9722
 5317SOL     OW19542  10.672   5.027   3.859 -0.2307 -0.1274 -0.1283
 5317SOL    HW119543  10.747   4.986   3.815  0.3737 -1.8343  2.3169
 5317SOL    HW219544  10.674   4.992   3.948 -3.6587  0.1349  0.1822
 5318SOL     OW19545  10.083   1.413   1.255  0.4929 -0.5770  0.2419
 5318SOL    HW119546  10.104   1.372   1.339  0.0862 -0.5589  0.3528
 5318SOL    HW219547  10.141   1.489   1.250  1.5626 -1.3967 -0.1559
 5319SOL     OW19548   3.457   3.657   3.642 -0.2057 -0.2686 -0.3897
 5319SOL    HW119549   3.417   3.572   3.659 -0.5953 -0.0486 -0.1641
 5319SOL    HW219550   3.407   3.692   3.568 -2.8703  1.5014  2.0121
 5320SOL     OW19551   9.568   4.501   6.334 -0.3888  0.0676  0.3871
 5320SOL    HW119552   9.640   4.471   6.389  0.1161  0.4026 -0.0834
 5320SOL    HW219553   9.584   4.462   6.249 -1.3057 -0.6533  0.5240
 5321SOL     OW19554   5.842   8.398   7.785  0.2938 -0.1049  0.0795
 5321SOL    HW119555   5.754   8.371   7.759 -0.5926  1.8484  0.8467
 5321SOL    HW219556   5.828   8.471   7.845  2.3596 -1.6281  2.6376
 5322SOL     OW19557   3.681   2.115   5.927  0.7896 -0.0080 -0.3386
 5322SOL    HW119558   3.717   2.201   5.905  0.1562  0.3591  0.0067
 5322SOL    HW219559   3.757   2.061   5.945  1.2275  0.2820 -1.2715
 5323SOL     OW19560   4.099   1.193   5.361 -0.2700 -0.1818 -0.0544
 5323SOL    HW119561   4.086   1.220   5.270 -3.0653 -0.7080  0.1033
 5323SOL    HW219562   4.073   1.101   5.363  1.1987 -0.6054  1.0184
 5324SOL     OW19563  10.766   5.756   2.013  0.6689  0.2042 -0.3723
 5324SOL    HW119564  10.680   5.754   2.054 -0.0801 -0.2391 -1.8672
 5324SOL    HW219565  10.791   5.849   2.014 -0.0716  0.4093 -0.3691
 5325SOL     OW19566   7.499   4.133   1.903 -0.1679 -0.4966 -0.1420
 5325SOL    HW119567   7.511   4.220   1.942 -1.0478  0.1267 -1.2184
 5325SOL    HW219568   7.580   4.117   1.855  0.1210 -0.4141  0.3071
 5326SOL     OW19569   1.859   9.499   7.340  0.6031  0.6507 -0.3197
 5326SOL    HW119570   1.906   9.430   7.388  2.1033  1.0814 -1.1007
 5326SOL    HW219571   1.889   9.490   7.250 -1.4914  0.4311 -1.0503
 5327SOL     OW19572   4.399  10.986   9.829 -0.2761 -0.2362 -0.0403
 5327SOL    HW119573   4.412  11.079   9.849 -0.9824  0.1034 -1.0714
 5327SOL    HW219574   4.455  10.940   9.892 -1.4296  0.7933  1.8211
 5328SOL     OW19575   7.093  10.434   1.624  0.4570  0.0019 -0.4103
 5328SOL    HW119576   7.178  10.436   1.668  0.4929  0.5321 -0.4924
 5328SOL    HW219577   7.114  10.430   1.531  0.4875  2.9711 -0.6391
 5329SOL     OW19578  10.141  10.922  10.376 -0.5335  0.9877 -0.0739
 5329SOL    HW119579  10.222  10.897  10.331 -0.3998  0.7141  0.3144
 5329SOL    HW219580  10.164  10.920  10.469 -0.8644  1.3452  0.0182
 5330SOL     OW19581  10.615   8.092   7.752 -0.0110  0.1574 -0.0465
 5330SOL    HW119582  10.677   8.148   7.798 -0.1292 -0.2106  0.5796
 5330SOL    HW219583  10.670   8.032   7.701  0.1270  0.3980 -0.1789
 5331SOL     OW19584   6.759   1.940   0.862  0.6075  0.7867 -0.0837
 5331SOL    HW119585   6.768   1.942   0.957  1.1957 -1.4169 -0.0397
 5331SOL    HW219586   6.711   1.860   0.844 -0.9437  1.9782 -1.5990
 5332SOL     OW19587   9.015   1.694   5.488  0.4128  0.3997  0.3631
 5332SOL    HW119588   8.926   1.723   5.470  0.5160  1.2023  1.0488
 5332SOL    HW219589   9.020   1.605   5.454 -0.6679  0.3261  0.3789
 5333SOL     OW19590   0.667   3.099   4.419 -0.0927  0.6040  0.4531
 5333SOL    HW119591   0.620   3.084   4.501 -0.9347  2.6055  0.3893
 5333SOL    HW219592   0.700   3.013   4.395 -1.4428 -0.3825  1.8983
 5334SOL     OW19593   4.299   4.915   0.911 -0.3202  0.1029 -0.0147
 5334SOL    HW119594   4.293   4.819   0.912 -0.0719  0.0868  0.4236
 5334SOL    HW219595   4.332   4.937   0.998  0.7499  0.5074 -0.5025
 5335SOL     OW19596   2.748   1.280   2.001 -0.3413 -0.2212  1.1617
 5335SOL    HW119597   2.666   1.322   2.028 -0.4231  0.5721 -0.2534
 5335SOL    HW219598   2.724   1.226   1.927  0.5797  0.8927  0.0004
 5336SOL     OW19599   7.779   9.384  10.283  0.2085  0.2357  0.3634
 5336SOL    HW119600   7.857   9.393  10.337  0.9680 -0.1683 -0.6210
 5336SOL    HW219601   7.783   9.457  10.221 -0.0197  0.0374  0.1056
 5337SOL     OW19602   0.324   0.024   6.323 -0.1243  0.2031  0.6265
 5337SOL    HW119603   0.280  -0.042   6.377  0.7401  0.0059  1.1050
 5337SOL    HW219604   0.377  -0.026   6.262  0.0786  0.4481  0.6011
 5338SOL     OW19605   8.549   8.199   0.664  0.6848 -0.0646  0.3877
 5338SOL    HW119606   8.622   8.158   0.618  1.1766 -1.2171  2.0626
 5338SOL    HW219607   8.474   8.142   0.647  0.5971  0.1270  0.1252
 5339SOL     OW19608   9.083   7.054   2.929 -0.1150  0.5754  0.1980
 5339SOL    HW119609   9.021   7.079   2.998  1.3406 -0.5371  2.0222
 5339SOL    HW219610   9.066   6.961   2.914 -0.4649  0.8279 -1.0240
 5340SOL     OW19611   9.520   6.870  10.830 -0.4802  0.3275  0.1685
 5340SOL    HW119612   9.462   6.891  10.903 -0.3053  0.3075  0.3149
 5340SOL    HW219613   9.466   6.880  10.752 -1.4626 -2.3442  0.4073
 5341SOL     OW19614   3.451  11.088   9.768 -0.0644 -0.1326 -0.4910
 5341SOL    HW119615   3.535  11.049   9.747 -0.7309 -1.5170 -0.7182
 5341SOL    HW219616   3.462  11.182   9.750  1.3483 -0.3226 -0.6931
 5342SOL     OW19617   4.134  10.521  10.503 -0.1794 -0.0336 -0.0953
 5342SOL    HW119618   4.213  10.549  10.457 -0.5960  0.1973 -0.6804
 5342SOL    HW219619   4.100  10.601  10.544 -0.1480 -0.1177  0.0953
 5343SOL     OW19620  10.409   9.111   4.038  0.8607  0.5183  0.4270
 5343SOL    HW119621  10.334   9.163   4.067  1.4283  1.3655  0.3904
 5343SOL    HW219622  10.375   9.060   3.964  0.4473  1.2755  0.0802
 5344SOL     OW19623   0.604   5.994   8.588 -0.0378 -0.2212  0.0598
 5344SOL    HW119624   0.584   6.067   8.529  0.3873  0.5617  0.8751
 5344SOL    HW219625   0.520   5.974   8.630 -0.0532  0.1113  0.1884
 5345SOL     OW19626   8.136   4.346  10.833 -0.4313  0.2452 -0.1300
 5345SOL    HW119627   8.182   4.426  10.858  0.9159 -0.3734 -0.5547
 5345SOL    HW219628   8.197   4.275  10.853 -0.6561 -0.5119 -1.9197
 5346SOL     OW19629   5.499   6.907   8.180 -0.3455  0.0387 -0.0323
 5346SOL    HW119630   5.585   6.939   8.205  0.8566 -2.9631  0.1392
 5346SOL    HW219631   5.447   6.914   8.260  0.5673 -0.5014  0.6372
 5347SOL     OW19632   5.708   3.895   4.957 -0.1690 -0.2754 -0.5000
 5347SOL    HW119633   5.770   3.925   5.024 -0.5886 -1.9079  0.6884
 5347SOL    HW219634   5.738   3.937   4.877  2.1493 -0.5621  0.1350
 5348SOL     OW19635  10.107   4.934   6.220 -0.1749  0.2033  0.3461
 5348SOL    HW119636  10.158   4.984   6.283  0.8079 -1.5235  0.9676
 5348SOL    HW219637  10.172   4.896   6.161 -1.0497  1.5524 -1.6114
 5349SOL     OW19638   7.465   6.871   8.103  0.2905  0.2104  0.1860
 5349SOL    HW119639   7.509   6.785   8.103  0.6150  0.3686 -0.8852
 5349SOL    HW219640   7.510   6.921   8.171  1.3937  0.1706 -0.4987
 5350SOL     OW19641  10.910   6.688   5.418  0.3032 -0.3674  0.1467
 5350SOL    HW119642  10.910   6.606   5.468  0.7945 -0.3440  0.1930
 5350SOL    HW219643  10.854   6.747   5.468  0.3117 -0.5363  0.3550
 5351SOL     OW19644  10.329   6.557   7.620 -0.2430 -0.1771  0.2250
 5351SOL    HW119645  10.316   6.650   7.599 -0.8585 -0.3464 -0.1631
 5351SOL    HW219646  10.389   6.557   7.694 -0.2122  0.5327  0.2025
 5352SOL     OW19647   7.688   9.574   7.513 -0.2482 -0.1782  0.8497
 5352SOL    HW119648   7.632   9.578   7.436  1.0301  1.1441 -0.0586
 5352SOL    HW219649   7.651   9.639   7.573 -0.6397 -0.4803  0.9405
 5353SOL     OW19650   1.339   2.709   7.852  0.0181 -0.3011 -0.4308
 5353SOL    HW119651   1.421   2.689   7.896  0.4994  1.4187 -0.4692
 5353SOL    HW219652   1.353   2.684   7.761  0.6723  0.3627 -0.5237
 5354SOL     OW19653   1.350   1.895   9.916  0.0982  0.2599  0.3787
 5354SOL    HW119654   1.408   1.888   9.991  0.5416 -0.3167 -0.0102
 5354SOL    HW219655   1.343   1.990   9.899  1.5845  0.3048 -0.0688
 5355SOL     OW19656   5.942   3.770   1.536 -0.4977  0.4101 -0.1677
 5355SOL    HW119657   5.997   3.840   1.571  1.0098 -0.8881  0.1934
 5355SOL    HW219658   5.861   3.775   1.587 -0.2105  1.5321  0.2136
 5356SOL     OW19659   4.063   8.299   4.713  0.6673 -0.1608 -0.2291
 5356SOL    HW119660   4.017   8.375   4.678  0.6896 -0.4173 -0.8336
 5356SOL    HW219661   4.013   8.224   4.680  1.1398 -0.4239 -0.3483
 5357SOL     OW19662   4.993   7.901   3.151  0.4926 -0.3494 -0.2544
 5357SOL    HW119663   5.078   7.872   3.116  0.7976  0.9375 -0.6500
 5357SOL    HW219664   4.929   7.869   3.088  0.8595  0.1498 -0.8972
 5358SOL     OW19665   6.710   3.570   5.337 -0.1481  0.2409  0.4755
 5358SOL    HW119666   6.728   3.641   5.275 -1.4073  0.5869  0.4784
 5358SOL    HW219667   6.796   3.546   5.371  0.2694  2.0859  0.8211
 5359SOL     OW19668   1.937   9.629   8.737 -0.0670 -0.3874 -0.1631
 5359SOL    HW119669   1.989   9.550   8.723 -0.2797 -0.6007  0.2668
 5359SOL    HW219670   1.965   9.688   8.666  0.2977 -0.7352 -0.3132
 5360SOL     OW19671   7.093   1.302   3.837  0.2410 -0.2962 -0.2980
 5360SOL    HW119672   7.160   1.319   3.771  0.7155  1.4762  0.5752
 5360SOL    HW219673   7.128   1.340   3.917 -0.9668 -1.0831  0.6335
 5361SOL     OW19674   5.831   4.008   2.088  0.0287 -0.5850 -0.1502
 5361SOL    HW119675   5.861   4.085   2.137  1.0106 -2.0580  1.6768
 5361SOL    HW219676   5.893   4.000   2.016  1.7737 -1.3182  1.3478
 5362SOL     OW19677   4.058   9.499   6.996  0.2403 -0.0614  0.0827
 5362SOL    HW119678   4.013   9.544   6.925  0.5433  1.2800  0.7061
 5362SOL    HW219679   4.113   9.434   6.953 -0.1966  0.1747 -0.8417
 5363SOL     OW19680   1.490   8.197   4.356  0.5151 -0.3806 -0.0186
 5363SOL    HW119681   1.497   8.102   4.351  0.7496 -0.3275 -0.9883
 5363SOL    HW219682   1.558   8.229   4.296  0.3436  0.3901  0.1862
 5364SOL     OW19683   0.094   9.804   6.961 -0.7329 -0.2262 -0.2238
 5364SOL    HW119684   0.018   9.754   6.989 -2.0979  1.2500 -1.1635
 5364SOL    HW219685   0.140   9.744   6.901 -0.8192 -1.3224  0.7660
 5365SOL     OW19686   4.912   7.877   5.351 -0.0300 -0.1850  0.4524
 5365SOL    HW119687   4.893   7.875   5.444  1.5430  3.1062  0.9791
 5365SOL    HW219688   5.003   7.848   5.344  0.5060  1.4633  0.2423
 5366SOL     OW19689   7.548   0.433   4.631 -0.0875 -0.3030 -0.3557
 5366SOL    HW119690   7.515   0.492   4.563  0.9085  1.4030  0.5724
 5366SOL    HW219691   7.605   0.488   4.684 -0.8230 -1.5839  1.8683
 5367SOL     OW19692   6.822   8.895   8.086  0.4199 -0.2649 -0.8007
 5367SOL    HW119693   6.828   8.803   8.113  2.0161  0.4720  1.7163
 5367SOL    HW219694   6.732   8.921   8.107  0.8399 -0.4761  1.6204
 5368SOL     OW19695   5.003  10.086   3.097 -0.2748 -0.0348  0.5866
 5368SOL    HW119696   4.936  10.155   3.108  0.1545  0.6216 -0.7043
 5368SOL    HW219697   5.023  10.088   3.004  1.2388 -0.5212  0.8883
 5369SOL     OW19698   5.454   6.655   6.510  0.2754 -0.2089 -0.4670
 5369SOL    HW119699   5.385   6.635   6.573  1.9997 -0.0714  1.5573
 5369SOL    HW219700   5.421   6.619   6.427 -0.2588 -4.3952  1.2838
 5370SOL     OW19701  10.028  10.527   1.124 -0.1930  0.1878 -0.3476
 5370SOL    HW119702  10.118  10.509   1.095 -0.6513  2.6118 -3.8759
 5370SOL    HW219703  10.038  10.584   1.200  1.1579 -1.4147  0.7524
 5371SOL     OW19704   4.416   5.581  10.891  1.1732 -0.1855 -0.4291
 5371SOL    HW119705   4.497   5.571  10.840  0.8392  0.8023 -1.2081
 5371SOL    HW219706   4.424   5.668  10.930  0.4539 -0.0365 -0.5954
 5372SOL     OW19707   1.878   3.147   1.836  0.1832 -0.2287  0.7021
 5372SOL    HW119708   1.901   3.062   1.799  2.0948  0.4642  0.1752
 5372SOL    HW219709   1.808   3.180   1.779 -0.0516 -1.1179  0.4702
 5373SOL     OW19710   7.282   9.978   0.921 -0.7289  0.1976  0.4295
 5373SOL    HW119711   7.189   9.968   0.905 -0.6511  0.5074 -0.2537
 5373SOL    HW219712   7.318  10.007   0.837 -0.2088  1.2335  0.9831
 5374SOL     OW19713   3.145   6.995   3.811 -0.1027 -0.4866  0.2782
 5374SOL    HW119714   3.132   6.922   3.750 -0.2314  0.1161 -0.4272
 5374SOL    HW219715   3.235   6.985   3.842  0.1867 -0.4261 -0.5243
 5375SOL     OW19716   5.877   9.999   2.196 -0.5208 -0.3860  0.0128
 5375SOL    HW119717   5.846   9.996   2.286 -0.8273  0.4355 -0.0575
 5375SOL    HW219718   5.973  10.003   2.204 -0.2348 -4.2266  0.2047
 5376SOL     OW19719   1.379   0.085   1.517  0.4389 -0.0571  0.3931
 5376SOL    HW119720   1.324   0.007   1.509 -0.1601  0.4620 -1.0645
 5376SOL    HW219721   1.414   0.098   1.429 -0.9605  2.3351  0.0930
 5377SOL     OW19722   5.394   2.655   4.837 -0.0913  0.1796 -0.2025
 5377SOL    HW119723   5.482   2.617   4.840 -0.1488  0.1021  1.3229
 5377SOL    HW219724   5.397   2.717   4.764  1.4865  0.7979  0.3514
 5378SOL     OW19725   9.602   8.337   2.184  0.2047  0.2423 -0.0823
 5378SOL    HW119726   9.672   8.342   2.119  0.1989  0.1150 -0.0985
 5378SOL    HW219727   9.527   8.302   2.136 -0.5183  2.3480 -0.6003
 5379SOL     OW19728   4.518   9.079   6.823  0.0158  0.2916 -0.3680
 5379SOL    HW119729   4.428   9.080   6.790  0.2029 -0.4693 -0.9238
 5379SOL    HW219730   4.514   9.025   6.902  0.0121  0.1596 -0.4593
 5380SOL     OW19731   2.931   5.757   3.062  0.3208 -0.0989 -0.3374
 5380SOL    HW119732   2.970   5.841   3.037  1.1340 -0.1660  0.6145
 5380SOL    HW219733   2.858   5.745   3.002  2.3210 -0.4111 -2.8850
 5381SOL     OW19734   9.394   1.256   8.743 -0.0671 -0.4720 -0.7426
 5381SOL    HW119735   9.414   1.318   8.813 -0.0626 -1.9415  0.6258
 5381SOL    HW219736   9.300   1.240   8.750  0.0887 -1.3408 -0.4130
 5382SOL     OW19737   9.692   3.359   9.950  0.2511  0.0071  0.0887
 5382SOL    HW119738   9.729   3.274   9.974 -0.7188 -0.4796 -0.0981
 5382SOL    HW219739   9.744   3.386   9.874 -1.6130 -2.1044 -2.1350
 5383SOL     OW19740   8.509   2.611   2.325 -0.1368 -0.1261  0.0876
 5383SOL    HW119741   8.474   2.590   2.412  0.0272 -1.0113 -0.0488
 5383SOL    HW219742   8.444   2.575   2.264 -0.5226  0.9672 -0.1674
 5384SOL     OW19743   8.192  10.980   2.631 -0.1698  0.5691 -0.4292
 5384SOL    HW119744   8.102  10.975   2.600 -0.3182  0.7680 -0.0417
 5384SOL    HW219745   8.187  10.958   2.724  0.0863  1.2088 -0.2521
 5385SOL     OW19746   5.820   1.824   1.391  0.7422  0.1889  0.1070
 5385SOL    HW119747   5.910   1.812   1.362  0.4413  0.1607 -0.8337
 5385SOL    HW219748   5.803   1.918   1.383 -0.2039 -0.1273 -2.5007
 5386SOL     OW19749   8.750  10.424   6.709  0.0646  0.5041  0.6849
 5386SOL    HW119750   8.816  10.493   6.711  0.1040  0.4696  0.5568
 5386SOL    HW219751   8.710  10.430   6.622  1.9352 -1.3986 -0.4003
 5387SOL     OW19752   7.516   0.622   3.720 -0.3007 -0.2825 -0.2095
 5387SOL    HW119753   7.593   0.575   3.687  0.8881  0.9753  0.6737
 5387SOL    HW219754   7.487   0.675   3.647  0.1838 -0.1384 -0.2995
 5388SOL     OW19755   1.565  10.295   1.059  0.5285 -0.1019  0.1566
 5388SOL    HW119756   1.548  10.389   1.056  1.4634  0.0850  0.2614
 5388SOL    HW219757   1.553  10.265   0.969  2.5477  0.5724 -0.3765
 5389SOL     OW19758   5.630   5.752   3.773  0.0680 -0.1745  0.4398
 5389SOL    HW119759   5.596   5.829   3.818 -0.8295  0.7933 -1.7583
 5389SOL    HW219760   5.670   5.786   3.692  2.6573 -1.7021  0.9396
 5390SOL     OW19761   5.363   4.408   5.630  0.3781  0.4923  0.4283
 5390SOL    HW119762   5.274   4.443   5.632  0.1619 -0.1174  1.6993
 5390SOL    HW219763   5.417   4.485   5.610 -0.4631  0.7489 -1.0251
 5391SOL     OW19764   7.488  10.520   5.178  0.4270  0.1718 -0.0695
 5391SOL    HW119765   7.526  10.607   5.192 -0.0717  0.3669  0.1232
 5391SOL    HW219766   7.560  10.467   5.146  1.1011  0.2626  1.2508
 5392SOL     OW19767   9.455  10.987   7.121 -0.1135 -0.8045 -0.3061
 5392SOL    HW119768   9.460  10.892   7.115 -0.0018 -0.8053 -0.2050
 5392SOL    HW219769   9.406  11.014   7.044 -0.9476 -1.0128  0.1425
 5393SOL     OW19770  10.979  10.628  11.070 -0.2466  0.5312 -0.2596
 5393SOL    HW119771  10.952  10.694  11.006  0.0671  1.0010  0.0849
 5393SOL    HW219772  11.057  10.665  11.111 -0.8216  0.5447  0.8639
 5394SOL     OW19773   3.139   8.067   1.228 -0.1657  0.2875  0.5274
 5394SOL    HW119774   3.202   8.137   1.210  2.1323 -1.3170  1.7235
 5394SOL    HW219775   3.131   8.020   1.145  1.9604 -0.7091  0.8018
 5395SOL     OW19776   3.016   4.747   3.125 -0.1105 -1.1103  0.5362
 5395SOL    HW119777   3.021   4.739   3.029  0.5189  1.2124  0.3241
 5395SOL    HW219778   3.070   4.676   3.158 -0.1280 -1.7948 -0.8402
 5396SOL     OW19779   1.252  10.588   8.935 -0.5768 -0.1738  0.3205
 5396SOL    HW119780   1.255  10.507   8.988 -0.2959  0.5106  1.3900
 5396SOL    HW219781   1.161  10.616   8.941 -0.5641 -0.1429  0.3733
 5397SOL     OW19782   1.423   5.666   1.811 -0.2745 -0.0585 -0.0188
 5397SOL    HW119783   1.370   5.696   1.885  1.9561  2.1214  0.8320
 5397SOL    HW219784   1.416   5.737   1.747  0.7437 -0.2271 -0.3272
 5398SOL     OW19785   1.469   3.308   0.643 -0.1148 -0.2836  0.6865
 5398SOL    HW119786   1.394   3.365   0.625 -0.3844 -0.7636  0.2554
 5398SOL    HW219787   1.470   3.246   0.570 -0.7666 -1.8042  1.9104
 5399SOL     OW19788   3.533   0.382   1.779 -0.6326 -0.1781 -0.3579
 5399SOL    HW119789   3.477   0.343   1.846 -0.4870 -0.1652 -0.2262
 5399SOL    HW219790   3.621   0.352   1.802 -0.1364  2.2075  1.2287
 5400SOL     OW19791   7.169   7.684   9.373 -0.0707 -0.3130 -0.4867
 5400SOL    HW119792   7.251   7.636   9.358  0.4446  0.6783 -0.8848
 5400SOL    HW219793   7.181   7.768   9.329 -1.1684 -0.0044 -0.2392
 5401SOL     OW19794   6.820   6.271   2.786 -0.0159  0.5766  0.6026
 5401SOL    HW119795   6.904   6.228   2.802 -0.0286  0.5381  0.5675
 5401SOL    HW219796   6.796   6.310   2.870 -1.0625 -1.3191  1.2444
 5402SOL     OW19797   0.028   9.292   9.740  0.4217 -0.0795 -0.0309
 5402SOL    HW119798  -0.009   9.316   9.825 -1.6588 -0.8659 -0.6513
 5402SOL    HW219799  -0.044   9.301   9.679  1.2389 -1.7842 -1.3282
 5403SOL     OW19800   3.520   4.029   3.989 -0.0991  0.2156 -0.9108
 5403SOL    HW119801   3.439   3.978   3.986  0.2133 -0.4190  0.3042
 5403SOL    HW219802   3.582   3.979   3.936  0.3469 -1.0097  0.6716
 5404SOL     OW19803   2.856   6.498   0.512  0.3707  0.4365 -0.1198
 5404SOL    HW119804   2.869   6.532   0.423 -0.4947  0.8551 -0.0973
 5404SOL    HW219805   2.850   6.403   0.501 -1.7550  0.5973 -0.8057
 5405SOL     OW19806   2.071   6.919   5.310 -0.0166 -0.2485  0.0564
 5405SOL    HW119807   2.070   6.825   5.289  0.6152  0.0887 -1.6770
 5405SOL    HW219808   2.162   6.937   5.332 -0.3694 -0.2570  1.5946
 5406SOL     OW19809   7.495   1.252   7.931  0.9862 -0.0546  0.2595
 5406SOL    HW119810   7.542   1.205   7.862  0.7660  0.5890 -0.3330
 5406SOL    HW219811   7.478   1.185   7.998  0.3511 -0.9046 -0.7274
 5407SOL     OW19812   6.358   3.362  11.020  0.0366  0.5058 -0.4434
 5407SOL    HW119813   6.313   3.278  11.022  1.0680 -0.0701 -0.2067
 5407SOL    HW219814   6.424   3.355  11.089  1.0597  0.9695 -1.3410
 5408SOL     OW19815  10.016  10.155   2.157 -0.0291  0.2075 -0.9480
 5408SOL    HW119816  10.106  10.124   2.159  0.1014  0.5723 -1.0881
 5408SOL    HW219817   9.986  10.148   2.248 -0.2255 -0.9592 -1.0970
 5409SOL     OW19818   8.735   7.474   4.694  0.3254 -0.1312  0.6556
 5409SOL    HW119819   8.694   7.445   4.613 -0.3772 -2.5708  1.7872
 5409SOL    HW219820   8.829   7.471   4.675  0.2675  4.2135 -1.5310
 5410SOL     OW19821   9.184   6.862   6.477  0.0905 -0.0543  0.0236
 5410SOL    HW119822   9.243   6.932   6.451 -0.8631 -0.1059 -2.5241
 5410SOL    HW219823   9.209   6.843   6.568  0.8067  3.1113  0.6431
 5411SOL     OW19824   8.244   6.445   5.912 -0.5737  0.2693 -0.1820
 5411SOL    HW119825   8.172   6.415   5.968  1.0382 -1.5652  1.0417
 5411SOL    HW219826   8.206   6.450   5.825 -2.8465  1.9601  0.7946
 5412SOL     OW19827   8.232   3.751   2.555  0.5103 -0.1369 -0.1000
 5412SOL    HW119828   8.325   3.726   2.557  0.0840 -1.9306 -0.7423
 5412SOL    HW219829   8.216   3.776   2.464  0.0144 -1.3464 -0.3564
 5413SOL     OW19830   8.635   9.501   3.905  0.2467 -0.2111 -0.3462
 5413SOL    HW119831   8.631   9.517   3.811 -0.5548 -1.6591 -0.5927
 5413SOL    HW219832   8.713   9.447   3.917  1.7437  1.9813  0.1847
 5414SOL     OW19833   3.551   0.674   8.803 -0.0293  0.2485 -0.6036
 5414SOL    HW119834   3.619   0.704   8.742  2.1959 -2.7874  0.1241
 5414SOL    HW219835   3.598   0.619   8.865 -2.5893  1.2122  2.4660
 5415SOL     OW19836   4.858   4.668   0.340  0.4876  0.4216  0.2816
 5415SOL    HW119837   4.892   4.701   0.422  0.5869  1.2423 -0.0800
 5415SOL    HW219838   4.792   4.603   0.365  1.9533 -0.8365  0.9793
 5416SOL     OW19839   5.879   8.830   6.322  0.2058 -0.0014 -0.1474
 5416SOL    HW119840   5.943   8.900   6.335  0.5579  0.1413 -2.2868
 5416SOL    HW219841   5.931   8.750   6.317 -0.0798 -0.2718  1.0607
 5417SOL     OW19842   1.816   9.466   8.169  0.2957 -0.0309  0.0387
 5417SOL    HW119843   1.756   9.397   8.200  0.4638 -0.3784 -0.3963
 5417SOL    HW219844   1.758   9.534   8.136  0.1317 -0.5435 -0.7588
 5418SOL     OW19845   8.301   6.549   1.529  0.3142 -0.2199 -0.0760
 5418SOL    HW119846   8.242   6.618   1.561 -0.0918 -0.7863  0.4058
 5418SOL    HW219847   8.388   6.589   1.532  0.2840 -0.2039  1.6472
 5419SOL     OW19848   9.261   5.766   6.278  0.3552  0.0114 -0.1443
 5419SOL    HW119849   9.302   5.759   6.364  0.2323  0.0629 -0.0814
 5419SOL    HW219850   9.167   5.764   6.296  0.2880  1.7640 -0.1125
 5420SOL     OW19851   1.388  10.131   2.729  1.0742  0.6328 -0.8007
 5420SOL    HW119852   1.483  10.136   2.736  1.0937 -0.3780 -0.1021
 5420SOL    HW219853   1.367  10.041   2.754 -0.2538  1.4870  1.5205
 5421SOL     OW19854   4.367   6.134   8.535  1.3785  0.1701  0.1620
 5421SOL    HW119855   4.418   6.126   8.616  2.5721 -0.0546 -0.5928
 5421SOL    HW219856   4.358   6.044   8.503 -1.5541 -0.0998  1.4730
 5422SOL     OW19857   4.791   1.802   9.207  0.0694 -0.0947  0.1065
 5422SOL    HW119858   4.868   1.746   9.213 -0.1820 -0.3392  1.1653
 5422SOL    HW219859   4.754   1.802   9.295 -0.8800  0.3909 -0.2795
 5423SOL     OW19860   1.145  10.123   4.006  0.9118  0.2469  0.9425
 5423SOL    HW119861   1.099  10.042   4.031  1.3421 -0.3080  0.0066
 5423SOL    HW219862   1.235  10.108   4.036  0.8691  0.6206  1.2611
 5424SOL     OW19863  10.889   7.036   6.038  0.7115 -0.2665  0.3860
 5424SOL    HW119864  10.946   6.981   5.985 -0.3061  0.4979 -1.6119
 5424SOL    HW219865  10.807   7.041   5.989  0.0862  1.4065  1.4849
 5425SOL     OW19866   0.219   0.096   2.586  0.4304  0.4252  0.2612
 5425SOL    HW119867   0.213   0.153   2.510 -0.6633  0.5149  0.4065
 5425SOL    HW219868   0.150   0.126   2.645  0.9077  0.0109  1.0629
 5426SOL     OW19869   5.458   4.863  10.599 -0.4591  0.2494 -0.0791
 5426SOL    HW119870   5.474   4.815  10.681 -1.7837  0.3025  0.2333
 5426SOL    HW219871   5.389   4.814  10.556  1.1039 -0.5416 -1.8472
 5427SOL     OW19872   2.157   6.091   3.800  0.0179 -0.5031  0.5040
 5427SOL    HW119873   2.182   6.095   3.893 -0.9277  1.4235  0.7145
 5427SOL    HW219874   2.217   6.152   3.757 -0.7718  0.0348  0.1593
 5428SOL     OW19875   9.074   4.793   4.704 -0.1746 -0.3201  0.4853
 5428SOL    HW119876   9.007   4.804   4.772 -0.0183 -1.9642  0.9754
 5428SOL    HW219877   9.133   4.867   4.716 -0.0278 -0.6812  2.3295
 5429SOL     OW19878   3.694   9.886  10.157 -0.4848 -0.4602 -0.6208
 5429SOL    HW119879   3.712   9.792  10.155 -1.4436 -0.6641 -0.4030
 5429SOL    HW219880   3.601   9.892  10.181 -0.2756  0.5652 -0.0011
 5430SOL     OW19881   9.381   2.919   1.689  0.0235 -0.4432  0.7328
 5430SOL    HW119882   9.328   2.847   1.656  0.7465 -0.9048  0.5625
 5430SOL    HW219883   9.455   2.924   1.629  0.2742  0.0642  1.0789
 5431SOL     OW19884  10.254  10.344   3.748  0.6730 -0.1082 -0.0249
 5431SOL    HW119885  10.161  10.338   3.728  0.5746  0.2747  0.3030
 5431SOL    HW219886  10.270  10.275   3.812  0.2031  1.0567  1.3846
 5432SOL     OW19887   9.148   7.582   1.480  0.0290 -0.0140  0.0419
 5432SOL    HW119888   9.172   7.658   1.428  0.1448  0.6042  0.9741
 5432SOL    HW219889   9.053   7.575   1.469  0.2456 -0.9177 -1.5817
 5433SOL     OW19890   4.810   7.713   2.081 -0.2524 -0.3735  0.3115
 5433SOL    HW119891   4.738   7.682   2.135 -0.6777 -1.3247 -0.7691
 5433SOL    HW219892   4.884   7.656   2.105 -0.5925 -1.1668 -0.4985
 5434SOL     OW19893   4.039   1.655   5.640  0.1295  0.0844 -0.3060
 5434SOL    HW119894   4.018   1.586   5.577  0.1714 -1.3255  1.1821
 5434SOL    HW219895   4.104   1.710   5.594  0.3782 -1.0583 -1.3820
 5435SOL     OW19896   9.305   4.561   7.329  0.1680  0.1222 -0.2149
 5435SOL    HW119897   9.263   4.496   7.385  0.4011 -0.8166 -1.0884
 5435SOL    HW219898   9.394   4.528   7.317  0.0344  0.1399 -1.3657
 5436SOL     OW19899  10.335  10.918  10.069  0.2918 -0.1003  0.1212
 5436SOL    HW119900  10.391  10.874  10.005  0.7063 -0.0561  0.4479
 5436SOL    HW219901  10.259  10.860  10.078  0.0478  0.0857 -0.6945
 5437SOL     OW19902   6.410   4.722   3.899  0.0399  0.1505 -0.9567
 5437SOL    HW119903   6.315   4.712   3.893 -0.0471  0.8838 -0.9132
 5437SOL    HW219904   6.443   4.691   3.814 -0.2064 -0.3742 -0.8667
 5438SOL     OW19905   6.838   5.164   2.338 -0.1163 -0.0812 -0.1906
 5438SOL    HW119906   6.793   5.083   2.313 -0.7007  0.0423  0.4312
 5438SOL    HW219907   6.802   5.230   2.280 -0.9136  0.0564  0.4353
 5439SOL     OW19908  10.001   1.997   9.293 -0.5415 -0.4646  0.5081
 5439SOL    HW119909   9.918   1.981   9.337 -0.9741 -0.1593 -0.1792
 5439SOL    HW219910  10.055   2.042   9.359 -0.9318 -0.6268  0.9402
 5440SOL     OW19911   2.694   2.900   4.989 -0.0746 -0.6135  0.4235
 5440SOL    HW119912   2.677   2.995   4.988 -0.9629 -0.7643 -1.1094
 5440SOL    HW219913   2.761   2.889   5.057  1.3659  1.3381 -0.5919
 5441SOL     OW19914   7.423   1.211  10.786 -0.0339  0.2007  0.0341
 5441SOL    HW119915   7.376   1.143  10.739 -0.9444  1.2699 -0.6395
 5441SOL    HW219916   7.493   1.238  10.726  0.2547 -0.0533  0.2539
 5442SOL     OW19917  10.241   6.341   3.463 -0.4780  0.2411  0.1437
 5442SOL    HW119918  10.269   6.427   3.430  0.8621  0.0120  0.6045
 5442SOL    HW219919  10.288   6.331   3.546 -0.1808 -1.1682 -0.1704
 5443SOL     OW19920   9.389   8.701   9.050  0.2135 -0.3620 -0.2272
 5443SOL    HW119921   9.429   8.760   8.987 -0.0485 -1.3619 -1.3656
 5443SOL    HW219922   9.413   8.613   9.019 -0.6795 -0.9037  0.5538
 5444SOL     OW19923   4.610   0.523   7.195 -0.0732 -0.0759  0.3553
 5444SOL    HW119924   4.619   0.522   7.100 -0.3160 -0.2463  0.3321
 5444SOL    HW219925   4.524   0.483   7.211 -0.3011  0.5178  0.6148
 5445SOL     OW19926   5.223   8.112  10.910 -0.7741  0.8778  0.3027
 5445SOL    HW119927   5.299   8.056  10.923 -0.1041  1.7700  0.3068
 5445SOL    HW219928   5.149   8.058  10.938 -0.4109 -0.7523 -1.6148
 5446SOL     OW19929   2.645   6.802   8.516  0.3579  0.0677 -0.5817
 5446SOL    HW119930   2.598   6.759   8.588 -1.1244  0.9171 -0.9999
 5446SOL    HW219931   2.714   6.852   8.559  0.7887 -1.0380  0.0711
 5447SOL     OW19932   1.276   5.055   4.962  0.3188 -0.1246 -0.2848
 5447SOL    HW119933   1.230   5.062   4.879  1.5795  1.7029 -0.9094
 5447SOL    HW219934   1.249   4.971   4.999 -1.8464 -0.0443 -1.5555
 5448SOL     OW19935   5.375   4.720   9.080 -0.2714 -0.2424 -0.4120
 5448SOL    HW119936   5.354   4.803   9.124 -1.5123 -1.8867  2.3577
 5448SOL    HW219937   5.470   4.716   9.080 -0.1925  0.0783  1.8378
 5449SOL     OW19938   2.696   3.785   7.766  0.0159  0.6161  0.8519
 5449SOL    HW119939   2.727   3.766   7.855  0.0164  0.3250  0.7918
 5449SOL    HW219940   2.612   3.739   7.759 -0.3134  1.2072  0.9327
 5450SOL     OW19941   1.872   2.281   0.056 -0.4400 -0.2913  0.4167
 5450SOL    HW119942   1.835   2.209   0.004 -1.7647  0.9719 -0.4685
 5450SOL    HW219943   1.962   2.255   0.072  0.3470 -0.4320 -3.2603
 5451SOL     OW19944   2.046  10.739   1.837  0.3052 -0.2874  0.0936
 5451SOL    HW119945   2.019  10.723   1.746  0.3716 -0.9524  0.1850
 5451SOL    HW219946   2.124  10.794   1.829 -0.5247  0.8919 -0.1972
 5452SOL     OW19947   5.096   9.301   3.070  0.3205 -0.7521  0.4213
 5452SOL    HW119948   5.084   9.385   3.114 -0.2868 -1.0363  0.8037
 5452SOL    HW219949   5.063   9.236   3.132 -0.3335 -1.1770 -0.3590
 5453SOL     OW19950   0.916   4.472   4.249  0.9358  0.3646  0.0888
 5453SOL    HW119951   0.865   4.460   4.169 -0.2700 -0.1511  0.9130
 5453SOL    HW219952   0.936   4.383   4.278  0.7202  0.5355  0.7664
 5454SOL     OW19953   1.382   2.540   1.812  0.2188  0.0936 -0.6607
 5454SOL    HW119954   1.380   2.451   1.776  1.6944 -0.8556  1.4021
 5454SOL    HW219955   1.458   2.540   1.870 -0.9194  2.1159  0.9263
 5455SOL     OW19956   0.828   5.715   7.479 -0.2508  0.3689 -0.0699
 5455SOL    HW119957   0.781   5.645   7.525 -0.0511 -0.6523 -1.3467
 5455SOL    HW219958   0.885   5.753   7.545 -0.6432 -0.4343  0.7554
 5456SOL     OW19959   2.203   9.534   1.557 -0.3111  0.2696  0.1022
 5456SOL    HW119960   2.286   9.531   1.605  0.6110  3.0375 -1.0914
 5456SOL    HW219961   2.213   9.608   1.497 -2.7863 -0.7471 -1.7553
 5457SOL     OW19962   2.601   9.520   2.422 -0.0349  0.1114  0.0753
 5457SOL    HW119963   2.542   9.586   2.459 -0.5076  0.1715 -0.7594
 5457SOL    HW219964   2.547   9.473   2.358  0.5061 -0.5964  0.1342
 5458SOL     OW19965   7.929  10.289   8.451  0.0333 -0.1388  0.3764
 5458SOL    HW119966   7.941  10.199   8.483  2.6862 -0.7916 -2.0385
 5458SOL    HW219967   8.013  10.331   8.468 -0.7711  1.5413  0.3640
 5459SOL     OW19968   9.424   6.791   3.936  0.2027  0.4428 -0.2443
 5459SOL    HW119969   9.395   6.870   3.982  1.7925  0.4872  0.7943
 5459SOL    HW219970   9.369   6.721   3.971  0.1563  0.7750  0.3635
 5460SOL     OW19971   2.332   7.600   7.240 -0.5079  0.1311  0.3677
 5460SOL    HW119972   2.348   7.664   7.171  2.6971  0.0704  0.8935
 5460SOL    HW219973   2.285   7.648   7.308 -0.3871  1.2206 -0.2959
 5461SOL     OW19974  11.059   5.680   1.818 -0.3806 -0.4463  0.1481
 5461SOL    HW119975  10.991   5.689   1.750 -1.9818 -2.1382  1.4103
 5461SOL    HW219976  11.016   5.630   1.888  1.7039 -0.1641  1.7249
 5462SOL     OW19977   0.187   8.977   1.844 -0.2778  0.0857 -0.2630
 5462SOL    HW119978   0.259   9.012   1.792 -0.0925 -0.5979 -0.4707
 5462SOL    HW219979   0.218   8.892   1.875 -0.6405  0.1970  0.4204
 5463SOL     OW19980   1.593   2.136   5.151 -0.1569  0.8074  0.3152
 5463SOL    HW119981   1.613   2.108   5.061 -2.7607  0.0859 -0.1013
 5463SOL    HW219982   1.650   2.082   5.205  0.4417  0.2365 -0.8378
 5464SOL     OW19983   6.332   2.261   8.502 -0.0858  0.4415 -0.1434
 5464SOL    HW119984   6.336   2.181   8.449 -1.8517 -0.4514  0.9916
 5464SOL    HW219985   6.285   2.323   8.447  1.0825  0.6701 -0.9330
 5465SOL     OW19986   8.266   9.164   1.795  0.0354 -0.0539  0.1918
 5465SOL    HW119987   8.339   9.163   1.858 -0.3042 -0.8360  0.5856
 5465SOL    HW219988   8.216   9.086   1.816 -1.3967  0.9116  0.4900
 5466SOL     OW19989   8.450   1.030   0.770 -0.4831  0.1242 -0.1065
 5466SOL    HW119990   8.503   1.090   0.824  1.7525 -1.0473 -0.8784
 5466SOL    HW219991   8.388   1.087   0.725  0.1276  1.5938  0.8353
 5467SOL     OW19992  10.686  10.856   1.319 -0.1395 -0.0198 -0.1190
 5467SOL    HW119993  10.598  10.844   1.283  0.2945 -1.0343 -0.9011
 5467SOL    HW219994  10.672  10.879   1.411 -1.2245 -0.4757 -0.1591
 5468SOL     OW19995   7.374   6.970   8.381  0.6141 -0.1782  0.3797
 5468SOL    HW119996   7.327   7.024   8.318  0.0413 -0.9214  0.1599
 5468SOL    HW219997   7.307   6.911   8.417  1.2443 -0.8083  0.5375
 5469SOL     OW19998   5.396   1.296   9.846 -0.9292  0.0523 -0.3258
 5469SOL    HW119999   5.447   1.245   9.783 -1.1672  0.8668 -1.2039
 5469SOL    HW220000   5.444   1.288   9.928 -1.2148 -1.9638 -0.3092
 5470SOL     OW20001   7.339   1.456   1.214 -0.1638  0.3593  0.9034
 5470SOL    HW120002   7.355   1.441   1.307 -0.6378 -1.6065  0.7155
 5470SOL    HW220003   7.423   1.434   1.172 -0.8179 -1.9725  0.6411
 5471SOL     OW20004   9.996   0.902   8.576 -0.0548 -0.0374  0.5398
 5471SOL    HW120005   9.985   0.915   8.482 -0.0181 -1.9315  0.2366
 5471SOL    HW220006  10.081   0.859   8.585 -0.3661 -0.5221  1.3543
 5472SOL     OW20007   7.816   8.600   3.165  0.0901  0.0976  0.6061
 5472SOL    HW120008   7.910   8.612   3.155  0.0374 -0.4981 -0.7474
 5472SOL    HW220009   7.780   8.689   3.163  0.5647  0.2874  0.4305
 5473SOL     OW20010   4.858   7.905   6.414  0.0814 -0.1934  0.1176
 5473SOL    HW120011   4.851   7.829   6.356 -5.1455  0.0916 -0.0856
 5473SOL    HW220012   4.862   7.867   6.502 -0.1270 -0.6713 -0.0756
 5474SOL     OW20013   7.845  10.408   2.151  0.3775  0.3603  0.2686
 5474SOL    HW120014   7.827  10.457   2.231 -3.4605 -0.0349 -0.1682
 5474SOL    HW220015   7.919  10.352   2.173  0.3047  1.2527  3.0846
 5475SOL     OW20016   8.502   8.702   8.527 -0.7796 -0.1236  0.2445
 5475SOL    HW120017   8.598   8.705   8.538 -0.7910 -0.5011  0.4741
 5475SOL    HW220018   8.468   8.731   8.612 -0.8698 -0.4562  0.3222
 5476SOL     OW20019   5.412   1.642  10.477 -0.1775 -0.5935 -0.4744
 5476SOL    HW120020   5.494   1.650  10.428  0.1138  0.2174  0.1181
 5476SOL    HW220021   5.379   1.732  10.481  0.2943 -0.4591  1.6292
 5477SOL     OW20022   6.505   1.599   9.678 -0.2278 -0.0514 -0.2749
 5477SOL    HW120023   6.567   1.617   9.608 -1.4260  1.2404 -1.0626
 5477SOL    HW220024   6.544   1.526   9.727  3.6335  2.8553  1.4599
 5478SOL     OW20025   9.121   1.328   3.786 -0.8900 -0.5496  0.6324
 5478SOL    HW120026   9.153   1.345   3.697 -2.0645 -2.2719 -0.1663
 5478SOL    HW220027   9.079   1.410   3.813  1.7711  0.9174  0.7191
 5479SOL     OW20028  10.568   9.638   1.433  0.1222 -0.1232 -0.0131
 5479SOL    HW120029  10.491   9.647   1.376  0.7727 -0.1528 -0.9231
 5479SOL    HW220030  10.595   9.728   1.450  0.1225 -0.1192 -0.0318
 5480SOL     OW20031   8.385   1.498   5.862  0.6075 -0.6343  0.0714
 5480SOL    HW120032   8.461   1.504   5.920  0.8367  1.2120 -0.3469
 5480SOL    HW220033   8.405   1.558   5.790 -0.7762 -0.9546 -0.6151
 5481SOL     OW20034   2.594   6.587   1.348  0.2364 -0.0983  0.1241
 5481SOL    HW120035   2.664   6.599   1.284 -0.2689  0.4228 -0.3396
 5481SOL    HW220036   2.618   6.644   1.421  1.7207 -1.9879  1.1950
 5482SOL     OW20037   3.586   0.803   7.269 -0.2707 -0.3846  0.2559
 5482SOL    HW120038   3.608   0.749   7.345  1.3141 -0.0910  0.0302
 5482SOL    HW220039   3.494   0.782   7.251 -0.3390 -1.3141  1.5396
 5483SOL     OW20040   5.426   9.727   9.432 -0.1030  0.2082  0.3953
 5483SOL    HW120041   5.515   9.714   9.466 -0.3075  1.3407  1.4414
 5483SOL    HW220042   5.408   9.819   9.447 -0.5562  0.6068 -2.0778
 5484SOL     OW20043   7.381   7.126   1.947  0.2665  0.1579 -0.4193
 5484SOL    HW120044   7.292   7.138   1.981  1.1363  2.2830  1.4239
 5484SOL    HW220045   7.425   7.073   2.014  0.8492  0.6577 -0.3984
 5485SOL     OW20046   8.203   9.316   9.683 -0.1624  0.1984  0.2271
 5485SOL    HW120047   8.251   9.289   9.762  1.3958 -2.6457 -1.5334
 5485SOL    HW220048   8.138   9.247   9.670 -0.8059  0.9442 -0.6670
 5486SOL     OW20049   3.713   2.338   8.475  0.2121 -0.6797 -0.7759
 5486SOL    HW120050   3.784   2.366   8.532  0.3659 -1.0911 -0.7610
 5486SOL    HW220051   3.699   2.412   8.415  0.4111 -0.4601 -0.5528
 5487SOL     OW20052   6.356  10.562   2.022 -0.4275 -0.0146 -0.2466
 5487SOL    HW120053   6.363  10.514   1.939 -0.7633  1.6819 -1.3266
 5487SOL    HW220054   6.424  10.630   2.015 -0.8180  0.4809  0.6405
 5488SOL     OW20055  10.881  10.819  10.881  0.1010 -0.3861 -0.2795
 5488SOL    HW120056  10.794  10.859  10.880  0.6685  0.9089  0.7133
 5488SOL    HW220057  10.933  10.874  10.939  1.8474 -0.6288 -1.5265
 5489SOL     OW20058  10.078   5.965  10.421  0.1688  0.3382 -0.1203
 5489SOL    HW120059  10.061   6.057  10.400  1.3879  0.9448  1.4050
 5489SOL    HW220060  10.167   5.949  10.388  1.0751  0.5615  2.0316
 5490SOL     OW20061   9.834   9.007   4.152  0.9638 -0.3873 -0.1730
 5490SOL    HW120062   9.844   9.053   4.236  2.4897 -1.7360  0.4279
 5490SOL    HW220063   9.751   8.961   4.160  0.0570  1.1794 -0.2677
 5491SOL     OW20064   1.935   8.553   4.589  0.3031  0.1660  0.1248
 5491SOL    HW120065   2.010   8.514   4.543 -1.2632 -1.0948 -1.4598
 5491SOL    HW220066   1.960   8.549   4.682  1.7666 -1.1632 -0.2836
 5492SOL     OW20067   0.604   8.429   5.356 -0.9469  0.2014  0.3973
 5492SOL    HW120068   0.595   8.421   5.451 -0.9882 -1.6796  0.2660
 5492SOL    HW220069   0.678   8.489   5.344 -0.1978 -0.4351  1.6220
 5493SOL     OW20070   1.076   2.987   3.461 -0.0125 -0.2314 -0.5083
 5493SOL    HW120071   0.993   3.028   3.435 -0.9408 -0.9494  1.1708
 5493SOL    HW220072   1.124   3.057   3.504 -0.2484 -0.1103 -0.4380
 5494SOL     OW20073   5.390   1.806   2.183  0.2068 -0.1537  0.2656
 5494SOL    HW120074   5.364   1.883   2.234 -0.3694  0.2997 -0.6958
 5494SOL    HW220075   5.339   1.734   2.221  1.2710 -0.2324  1.6340
 5495SOL     OW20076   1.710   7.050   8.676  0.7356  0.5019 -0.9085
 5495SOL    HW120077   1.759   7.124   8.640  0.9536  0.3148 -1.0035
 5495SOL    HW220078   1.654   7.088   8.742 -0.2232  0.9766 -1.9615
 5496SOL     OW20079   6.095   4.663   2.413 -0.0805  0.1395 -0.3785
 5496SOL    HW120080   6.034   4.707   2.355 -0.6166  1.3519  1.0554
 5496SOL    HW220081   6.043   4.595   2.457 -0.6839  1.6678  1.4134
 5497SOL     OW20082   5.494   3.568   5.020  0.5691 -0.6424 -0.0667
 5497SOL    HW120083   5.501   3.640   5.082 -2.7822 -0.8964  0.8521
 5497SOL    HW220084   5.450   3.606   4.944  1.9871 -0.9832 -1.0833
 5498SOL     OW20085   7.513   6.129   6.606 -0.3771 -0.0760 -0.0310
 5498SOL    HW120086   7.486   6.216   6.636 -1.2149 -0.0846 -0.7241
 5498SOL    HW220087   7.563   6.092   6.680  0.8399  1.3582 -0.0998
 5499SOL     OW20088  10.882   6.001   5.517 -0.4197  0.2947  0.3615
 5499SOL    HW120089  10.886   6.024   5.424  1.3070  0.7893  0.5245
 5499SOL    HW220090  10.811   6.055   5.552  0.4333  1.8824 -0.2372
 5500SOL     OW20091   1.551   2.430   7.434  0.0552 -0.5878 -0.7843
 5500SOL    HW120092   1.485   2.391   7.376  0.3962 -0.5408 -1.2136
 5500SOL    HW220093   1.590   2.355   7.480 -0.8789 -0.5427  0.1104
 5501SOL     OW20094  10.069  11.041   9.987  0.1867  0.1361 -0.4394
 5501SOL    HW120095  10.008  11.031  10.059 -0.4348 -0.2799 -1.0084
 5501SOL    HW220096  10.153  11.008  10.021 -0.4312 -1.4571 -0.3517
 5502SOL     OW20097   1.227  10.080   9.629  0.5130  0.0035 -0.5066
 5502SOL    HW120098   1.164  10.070   9.557  0.5555  1.0143 -0.7059
 5502SOL    HW220099   1.182  10.043   9.705  1.3908 -3.3638 -1.4634
 5503SOL     OW20100   8.219   1.227   7.011  0.4185  0.1390  0.3361
 5503SOL    HW120101   8.130   1.258   6.991  0.3322  0.7005  1.4865
 5503SOL    HW220102   8.254   1.293   7.070  1.4666 -0.2932  0.2174
 5504SOL     OW20103   3.848  10.086  10.529 -0.0137  0.3006 -0.2284
 5504SOL    HW120104   3.919  10.075  10.466  1.6917 -1.3188  1.8312
 5504SOL    HW220105   3.891  10.119  10.608 -1.7346  0.2697  0.7643
 5505SOL     OW20106  10.619   3.730   0.507 -0.1744  0.0898 -0.0364
 5505SOL    HW120107  10.556   3.798   0.483  0.4908  0.7767  0.1212
 5505SOL    HW220108  10.703   3.765   0.478  0.3423 -0.0949  1.2158
 5506SOL     OW20109   9.106   2.700   9.417  0.0085  0.3058  0.0292
 5506SOL    HW120110   9.192   2.740   9.409 -0.1890  0.7665  0.1867
 5506SOL    HW220111   9.045   2.772   9.403 -0.3825 -0.4025 -2.4196
 5507SOL     OW20112  10.291   4.059   8.075 -0.9002  0.2304  0.3303
 5507SOL    HW120113  10.208   4.060   8.027 -0.3885 -1.8703 -0.7011
 5507SOL    HW220114  10.357   4.080   8.009 -0.3061 -1.4962  0.3300
 5508SOL     OW20115   0.313   7.251   0.621  0.0487  0.2182 -0.5910
 5508SOL    HW120116   0.338   7.218   0.534  0.9796  0.0385 -0.2659
 5508SOL    HW220117   0.393   7.292   0.654 -0.5902  1.2101 -0.2411
 5509SOL     OW20118   8.723   8.959   2.885  0.1924  0.1014 -0.1142
 5509SOL    HW120119   8.792   8.919   2.939 -0.1184 -0.2111  0.0551
 5509SOL    HW220120   8.769   8.987   2.806  0.5118 -0.1342 -0.0192
 5510SOL     OW20121   7.597   4.399   9.678  0.9918 -0.9064  0.1183
 5510SOL    HW120122   7.660   4.379   9.609  0.2253  0.1136 -0.9276
 5510SOL    HW220123   7.513   4.404   9.632  0.3950 -0.6745  1.2091
 5511SOL     OW20124   4.236   2.158   6.141  0.0438 -0.3383 -0.0630
 5511SOL    HW120125   4.320   2.200   6.123  0.9403 -1.0658  2.1089
 5511SOL    HW220126   4.254   2.065   6.132 -0.1702 -0.5678  1.5670
 5512SOL     OW20127  10.644   1.222   6.915 -0.2526 -0.0492 -0.0912
 5512SOL    HW120128  10.571   1.182   6.868 -0.0325 -0.5048 -0.0510
 5512SOL    HW220129  10.722   1.187   6.873 -0.0540 -0.3214  0.4951
 5513SOL     OW20130   9.879   5.092   7.044 -0.3376  0.0431  0.2197
 5513SOL    HW120131   9.975   5.088   7.037 -0.4020  1.2699 -3.3476
 5513SOL    HW220132   9.861   5.174   7.088  0.2916  0.5453 -0.4348
 5514SOL     OW20133   3.967   8.945   4.671  0.2160 -0.1267  0.1768
 5514SOL    HW120134   4.008   9.000   4.737 -1.5819 -2.1466  3.1900
 5514SOL    HW220135   3.888   8.991   4.646 -0.4611 -0.5451  1.4841
 5515SOL     OW20136  10.748   0.429   2.768  0.0740  0.0802  0.1797
 5515SOL    HW120137  10.714   0.423   2.679  2.0515 -4.0799 -0.5220
 5515SOL    HW220138  10.842   0.437   2.757  0.4672 -1.6669  1.7866
 5516SOL     OW20139   5.483   4.795   6.051  0.4164  0.4151  0.2398
 5516SOL    HW120140   5.575   4.815   6.037  0.3299  0.8908  0.3288
 5516SOL    HW220141   5.438   4.832   5.975  0.3740 -0.4805 -0.1862
 5517SOL     OW20142  10.091   9.535   4.151  0.6454  0.2319 -0.2869
 5517SOL    HW120143  10.046   9.617   4.168  0.3367 -0.4082  2.5101
 5517SOL    HW220144  10.121   9.541   4.061 -0.8079  2.6980 -0.6662
 5518SOL     OW20145   0.159  10.695   1.824 -0.1403 -0.2111  0.4753
 5518SOL    HW120146   0.153  10.779   1.870  0.0791 -0.0863  0.2791
 5518SOL    HW220147   0.172  10.630   1.893  0.7603  0.0364  0.5489
 5519SOL     OW20148   7.816   7.382  10.015 -0.1628 -0.0035  0.3752
 5519SOL    HW120149   7.817   7.474   9.990  0.3935 -0.6013 -2.0630
 5519SOL    HW220150   7.894   7.345   9.973 -1.5391 -1.9957 -0.5851
 5520SOL     OW20151   7.570   3.966   8.814 -0.6331 -0.4384 -0.3626
 5520SOL    HW120152   7.501   4.027   8.786 -0.4466 -0.1156 -0.1295
 5520SOL    HW220153   7.559   3.959   8.909 -1.1101 -1.3423 -0.4789
 5521SOL     OW20154  10.883   5.220   8.253  0.2342  0.0562  0.1046
 5521SOL    HW120155  10.801   5.268   8.243 -0.0403 -0.2798  0.7136
 5521SOL    HW220156  10.944   5.284   8.290 -0.1074 -0.0287  0.8342
 5522SOL     OW20157   8.739   9.324   5.239  0.2304  0.3244  0.4026
 5522SOL    HW120158   8.716   9.368   5.157  0.8211  0.7990  0.4813
 5522SOL    HW220159   8.779   9.393   5.293  2.4849 -0.5608 -0.0046
 5523SOL     OW20160   6.162   3.524   0.546  1.1221  0.1854 -0.4329
 5523SOL    HW120161   6.119   3.468   0.611  1.0202 -2.2998 -2.4813
 5523SOL    HW220162   6.091   3.572   0.505  1.2234  2.1095  1.4442
 5524SOL     OW20163  11.012  10.117   4.561  0.1854  0.3653 -0.3953
 5524SOL    HW120164  11.100  10.079   4.559 -0.7257 -2.0997  1.5911
 5524SOL    HW220165  10.965  10.071   4.492  0.1596  0.9395 -0.7652
 5525SOL     OW20166   8.803   5.595   2.081 -0.0884  0.3188 -0.2203
 5525SOL    HW120167   8.747   5.520   2.061 -0.4427  0.5943 -0.2556
 5525SOL    HW220168   8.787   5.657   2.011 -0.0959  0.5975  0.0246
 5526SOL     OW20169   2.995   3.196   5.911  0.0050  0.2183 -0.0070
 5526SOL    HW120170   3.006   3.113   5.866  0.0984 -0.0360  0.4783
 5526SOL    HW220171   2.982   3.172   6.003 -0.6108  0.7052  0.0417
 5527SOL     OW20172   3.095   8.836   3.789 -0.4405  0.1532 -0.0829
 5527SOL    HW120173   3.003   8.810   3.800 -0.7371  1.0743 -0.3643
 5527SOL    HW220174   3.139   8.755   3.762 -1.3140 -0.1181 -0.7404
 5528SOL     OW20175   9.195   0.075   5.536 -0.0591  0.9196  0.4885
 5528SOL    HW120176   9.203   0.165   5.504 -0.7566  0.1232 -2.1846
 5528SOL    HW220177   9.111   0.044   5.503  0.3447 -0.8494  0.9811
 5529SOL     OW20178   0.679   1.351   2.911 -0.5736  0.1184  0.2654
 5529SOL    HW120179   0.653   1.264   2.880  0.1757 -0.3714  0.9503
 5529SOL    HW220180   0.717   1.334   2.997 -0.6518  1.1676  0.5100
 5530SOL     OW20181   1.116  10.266   7.405 -0.4423 -0.1402 -0.3702
 5530SOL    HW120182   1.158  10.185   7.377  0.3965  1.0425 -2.9397
 5530SOL    HW220183   1.187  10.331   7.402 -1.4168  0.9707  0.0678
 5531SOL     OW20184   1.383   8.417   6.147  0.3787 -0.1314 -0.0293
 5531SOL    HW120185   1.307   8.442   6.096  0.6252  0.5123 -0.0987
 5531SOL    HW220186   1.373   8.323   6.162 -0.4960 -0.0237  0.0905
 5532SOL     OW20187   4.445   5.245   2.069 -0.2965 -0.2405 -0.4874
 5532SOL    HW120188   4.516   5.301   2.102 -0.6193  0.3925 -0.8516
 5532SOL    HW220189   4.426   5.279   1.982 -1.5079  0.0367 -0.1323
 5533SOL     OW20190   0.527   3.138   1.719  1.1751  0.3985 -0.3800
 5533SOL    HW120191   0.500   3.062   1.771  0.0346  0.1692 -1.2855
 5533SOL    HW220192   0.623   3.131   1.715  1.1243 -0.7081 -0.0309
 5534SOL     OW20193   3.748   3.990  10.276 -0.3792 -0.0033 -0.3534
 5534SOL    HW120194   3.690   4.023  10.207 -1.9708  0.7554  1.2454
 5534SOL    HW220195   3.795   4.068  10.306  0.9087 -0.4731 -1.0766
 5535SOL     OW20196   6.851   6.547   4.545 -0.0893 -0.3747  0.1503
 5535SOL    HW120197   6.811   6.525   4.461  0.7858  2.1388 -1.0319
 5535SOL    HW220198   6.791   6.511   4.611 -1.6373 -1.0140 -1.5334
 5536SOL     OW20199   6.906   6.008   8.711 -0.4115 -0.2504  0.2601
 5536SOL    HW120200   6.890   6.009   8.805  0.7588 -2.4335  0.5489
 5536SOL    HW220201   6.966   6.081   8.696 -2.1151  1.3548  0.8315
 5537SOL     OW20202   7.447   1.298   1.821 -0.3544 -0.9525 -0.1469
 5537SOL    HW120203   7.507   1.365   1.855 -0.9539 -0.5098  0.0485
 5537SOL    HW220204   7.481   1.215   1.856  0.3438 -0.7494 -0.3245
 5538SOL     OW20205   8.983   7.049   5.570 -0.4628  0.2425 -0.5325
 5538SOL    HW120206   8.960   6.984   5.504  0.4979 -0.9813  0.2957
 5538SOL    HW220207   8.981   7.001   5.653 -0.5607  1.4800  0.2091
 5539SOL     OW20208   2.603  10.273   2.303 -0.2541 -0.3580 -0.1347
 5539SOL    HW120209   2.685  10.252   2.258 -0.7144  0.0531 -1.1955
 5539SOL    HW220210   2.629  10.290   2.394  1.1163  1.6026 -0.8384
 5540SOL     OW20211   6.553   2.909  10.259 -0.2683  0.5453 -0.0209
 5540SOL    HW120212   6.468   2.876  10.229 -0.2094  1.1043 -0.8500
 5540SOL    HW220213   6.541   2.928  10.352 -0.8307 -0.0682  0.0359
 5541SOL     OW20214   4.681   7.113   9.648 -0.0910  0.1553 -0.0852
 5541SOL    HW120215   4.777   7.110   9.643 -0.0502  1.6290 -0.5211
 5541SOL    HW220216   4.652   7.103   9.557 -0.2948  0.9816 -0.1158
 5542SOL     OW20217   0.269   3.557   5.335  0.2549 -0.1844 -0.2907
 5542SOL    HW120218   0.333   3.588   5.271 -0.6069  1.6605 -0.3447
 5542SOL    HW220219   0.280   3.617   5.409 -1.0749 -0.1231 -0.1228
 5543SOL     OW20220   3.501   8.683   5.392 -0.1687  0.0356  0.4111
 5543SOL    HW120221   3.555   8.762   5.395  0.9385 -0.7139  0.8465
 5543SOL    HW220222   3.413   8.713   5.416  0.4240  0.9961  1.4773
 5544SOL     OW20223   4.879   6.686   5.243 -0.1549 -0.1323 -0.1421
 5544SOL    HW120224   4.809   6.721   5.188 -0.7031 -0.6139  0.2340
 5544SOL    HW220225   4.835   6.623   5.301  0.2827  0.8392  1.3042
 5545SOL     OW20226   1.975   1.591   7.756  0.2500  0.5739 -0.8341
 5545SOL    HW120227   1.901   1.608   7.697 -1.3957 -0.6167  0.7621
 5545SOL    HW220228   2.027   1.672   7.754 -2.1292  2.2017 -0.5856
 5546SOL     OW20229  10.799   8.951   0.855 -0.8044 -0.2782  0.5483
 5546SOL    HW120230  10.829   8.927   0.942 -1.6685 -0.5622  0.7714
 5546SOL    HW220231  10.877   8.940   0.799 -0.1696  0.1876  1.3181
 5547SOL     OW20232   9.979   7.174   0.806 -0.4653  0.4438 -0.6842
 5547SOL    HW120233   9.981   7.264   0.839  0.2644 -0.3496  1.6195
 5547SOL    HW220234  10.058   7.167   0.751  0.7311  0.6104  0.9457
 5548SOL     OW20235   5.783   8.401   1.680 -0.0076 -0.2083  0.1533
 5548SOL    HW120236   5.697   8.417   1.642 -0.4507 -0.8721  0.8547
 5548SOL    HW220237   5.833   8.480   1.660 -0.8717  0.3177  0.0176
 5549SOL     OW20238   8.884   0.442  10.228 -0.0856 -0.8548  0.0997
 5549SOL    HW120239   8.882   0.348  10.245 -1.6254 -0.7632  0.5983
 5549SOL    HW220240   8.827   0.454  10.153  0.5824 -0.3755 -0.3396
 5550SOL     OW20241   6.825   1.591   3.072  0.4990 -0.2576  0.1855
 5550SOL    HW120242   6.785   1.634   2.996  0.6082 -0.5510 -0.0431
 5550SOL    HW220243   6.752   1.571   3.130  0.4091 -0.0644  0.1401
 5551SOL     OW20244   9.007   2.361   2.899 -0.0130 -0.2264 -0.1531
 5551SOL    HW120245   9.016   2.281   2.847 -0.1080  0.5792 -1.4513
 5551SOL    HW220246   8.915   2.360   2.928  0.5877 -1.8121  1.9880
 5552SOL     OW20247   6.776   6.644   6.374 -0.1022 -0.6568  0.2341
 5552SOL    HW120248   6.820   6.601   6.301 -1.6334  1.3726 -2.0301
 5552SOL    HW220249   6.684   6.623   6.362 -0.6773  1.7092  0.0893
 5553SOL     OW20250   0.268   3.260   0.488 -0.1608  0.2925 -0.3041
 5553SOL    HW120251   0.299   3.209   0.562 -1.3358  0.2958  0.2206
 5553SOL    HW220252   0.176   3.279   0.509 -0.0347  1.7563 -0.9575
 5554SOL     OW20253   9.523   0.003   1.985  0.0093 -0.5705 -0.3411
 5554SOL    HW120254   9.506  -0.071   2.043 -0.7502 -0.4093 -0.3465
 5554SOL    HW220255   9.441   0.015   1.937  0.0444  0.4164 -0.1732
 5555SOL     OW20256   6.499   1.534   9.169 -0.3398 -0.3428  0.2642
 5555SOL    HW120257   6.555   1.529   9.247 -1.2602  0.1956  0.9780
 5555SOL    HW220258   6.554   1.572   9.102  0.0230  0.6163  1.0890
 5556SOL     OW20259   4.327   4.222  10.906  0.3164 -0.1283 -0.0917
 5556SOL    HW120260   4.406   4.184  10.945  0.1802 -0.3588 -0.0350
 5556SOL    HW220261   4.273   4.247  10.982  0.4605  0.2988 -0.1284
 5557SOL     OW20262   0.880   4.470   2.352  0.1446 -0.0832 -0.0798
 5557SOL    HW120263   0.836   4.387   2.373  1.3872 -0.6320  0.4881
 5557SOL    HW220264   0.956   4.471   2.410 -0.8733  2.3894  1.3448
 5558SOL     OW20265   0.840   5.234   9.068 -0.1911  0.1044 -0.0406
 5558SOL    HW120266   0.872   5.145   9.086  0.9894  0.7531  1.2639
 5558SOL    HW220267   0.790   5.225   8.987 -1.4121 -2.0306  0.8615
 5559SOL     OW20268   4.962   4.124   0.745 -0.8407  0.5457 -0.2713
 5559SOL    HW120269   4.934   4.148   0.657  1.5511  0.6304 -1.0804
 5559SOL    HW220270   5.036   4.182   0.764  0.6828 -1.5116  0.4990
 5560SOL     OW20271  10.650   3.249   7.334 -0.1771  0.1901 -0.7983
 5560SOL    HW120272  10.677   3.205   7.415 -3.6062 -2.1802 -0.7593
 5560SOL    HW220273  10.648   3.180   7.268 -4.8929  0.1501 -0.9539
 5561SOL     OW20274   5.996   5.732   5.807 -0.0818  0.1511  0.1511
 5561SOL    HW120275   6.054   5.798   5.770 -0.2581 -0.3950 -1.1783
 5561SOL    HW220276   6.019   5.652   5.760 -1.8921 -0.0712 -0.4173
 5562SOL     OW20277   9.246   8.681  10.188 -0.0412 -0.4764  0.0885
 5562SOL    HW120278   9.222   8.752  10.247 -1.6565 -0.1084 -0.9407
 5562SOL    HW220279   9.220   8.601  10.233  0.0276 -0.2960  0.4503
 5563SOL     OW20280  10.226   6.004   3.739 -0.0652  0.2467 -0.3360
 5563SOL    HW120281  10.236   6.069   3.809 -0.3316  0.1947 -0.2494
 5563SOL    HW220282  10.316   5.985   3.711 -0.0195  1.8374 -1.4452
 5564SOL     OW20283   0.959   1.389   2.835  0.0310 -0.1256  0.0242
 5564SOL    HW120284   0.864   1.385   2.851 -0.4908  0.0521 -2.6795
 5564SOL    HW220285   0.990   1.301   2.855 -0.8797 -0.4796 -0.0729
 5565SOL     OW20286   3.394   2.345   4.943 -0.2516  0.5066 -0.7881
 5565SOL    HW120287   3.412   2.388   5.027  1.1095 -0.3566 -0.6163
 5565SOL    HW220288   3.457   2.274   4.939 -1.1589 -0.2515 -1.9780
 5566SOL     OW20289   1.506   6.800   1.260 -0.4264 -0.7669 -0.5161
 5566SOL    HW120290   1.466   6.759   1.183 -2.7650  0.6556 -0.1416
 5566SOL    HW220291   1.573   6.859   1.224  0.0537 -1.7541 -1.2909
 5567SOL     OW20292   9.155   9.571   2.611 -0.2752 -0.5377 -0.2459
 5567SOL    HW120293   9.190   9.590   2.524  0.1700 -0.9525 -0.1621
 5567SOL    HW220294   9.145   9.476   2.613 -2.7419 -0.3527 -0.7572
 5568SOL     OW20295   1.588   8.662   5.420 -0.1736 -0.6676 -0.0981
 5568SOL    HW120296   1.660   8.686   5.479 -1.4195 -0.2365  1.3180
 5568SOL    HW220297   1.550   8.746   5.394  0.0892 -0.8754 -1.1902
 5569SOL     OW20298   7.086   9.418   7.673 -0.0850 -0.5447  0.0520
 5569SOL    HW120299   7.019   9.349   7.666 -1.4462  0.6895  0.5561
 5569SOL    HW220300   7.087   9.459   7.586  2.0372 -2.2743 -0.8643
 5570SOL     OW20301   1.820   0.809   9.558 -0.1702 -0.1883  0.0877
 5570SOL    HW120302   1.863   0.724   9.553  2.0891  0.8982 -0.0064
 5570SOL    HW220303   1.797   0.830   9.467  1.8490  0.5145 -0.3015
 5571SOL     OW20304   0.443   6.524   5.587  0.3848 -0.6551  0.5496
 5571SOL    HW120305   0.359   6.523   5.634  1.0469  1.2085  1.8886
 5571SOL    HW220306   0.419   6.512   5.495 -1.3975  0.2293  0.8586
 5572SOL     OW20307   7.421  10.126   9.037 -0.4478  0.1907  0.2052
 5572SOL    HW120308   7.429  10.205   8.983  1.1334 -0.1764 -0.1471
 5572SOL    HW220309   7.439  10.157   9.126 -2.1432  0.6239  0.4354
 5573SOL     OW20310   4.515   1.972   8.621  0.0849 -0.1577 -0.4313
 5573SOL    HW120311   4.461   2.050   8.627 -0.8354 -0.7935 -0.2001
 5573SOL    HW220312   4.600   1.998   8.657 -0.6575  0.3227  1.0211
 5574SOL     OW20313   0.496   1.702   6.551 -0.1815 -0.2059  0.3974
 5574SOL    HW120314   0.580   1.738   6.580 -0.1484  0.9248 -1.0050
 5574SOL    HW220315   0.432   1.770   6.572 -0.4948 -0.3513 -0.0793
 5575SOL     OW20316   9.134   4.200  11.046 -0.1556  0.2974 -0.3868
 5575SOL    HW120317   9.092   4.150  11.115  1.6516 -0.2053  0.3868
 5575SOL    HW220318   9.228   4.188  11.060  0.3807  3.5084 -0.4185
 5576SOL     OW20319   8.487  10.613   9.247 -0.3367  0.5977 -0.2425
 5576SOL    HW120320   8.574  10.647   9.268  0.0793 -0.0344 -0.8797
 5576SOL    HW220321   8.484  10.528   9.292  0.2475 -0.3955 -1.9589
 5577SOL     OW20322   1.958   2.241  10.068  0.1246 -0.8565  0.1360
 5577SOL    HW120323   2.008   2.252   9.987  1.9855  0.5307  1.3779
 5577SOL    HW220324   1.907   2.322  10.074 -2.6890 -2.3917 -1.2790
 5578SOL     OW20325   1.242   5.017   8.898  0.1457 -0.2526  0.1159
 5578SOL    HW120326   1.307   5.087   8.904 -1.8732  1.7622  0.1335
 5578SOL    HW220327   1.190   5.026   8.978 -1.5131 -0.2874 -0.9116
 5579SOL     OW20328   1.503   8.758  10.841 -0.2076 -0.0830 -0.2495
 5579SOL    HW120329   1.461   8.677  10.870  0.3560 -0.1678  0.3565
 5579SOL    HW220330   1.559   8.783  10.914 -0.5368  0.9786 -0.3436
 5580SOL     OW20331   4.839   5.301   9.435 -0.3665  0.1541 -0.1243
 5580SOL    HW120332   4.746   5.315   9.417 -0.5637  0.4866  1.1208
 5580SOL    HW220333   4.882   5.381   9.405 -0.7227  0.7989  1.0218
 5581SOL     OW20334  10.626   5.284   4.158 -0.3404  0.0466 -0.3948
 5581SOL    HW120335  10.604   5.377   4.162  0.5959  0.2579  0.3620
 5581SOL    HW220336  10.581   5.245   4.233  0.6222  0.2173  0.2953
 5582SOL     OW20337   2.199   0.519   7.488 -0.4435 -0.1462  0.4023
 5582SOL    HW120338   2.290   0.520   7.519  0.3034  0.8200 -1.6164
 5582SOL    HW220339   2.195   0.445   7.427 -0.9581 -0.0939  0.3678
 5583SOL     OW20340   6.014   7.773   2.662 -0.1943  0.4625  1.0068
 5583SOL    HW120341   5.934   7.721   2.668  0.1009  0.0304  1.2163
 5583SOL    HW220342   6.083   7.710   2.645  0.5738  0.4200  3.8343
 5584SOL     OW20343   7.703   5.679   4.794 -0.2520  0.5670  0.7482
 5584SOL    HW120344   7.766   5.736   4.837  0.7078  1.2647 -1.4295
 5584SOL    HW220345   7.696   5.714   4.705 -1.5922 -1.1878  0.1014
 5585SOL     OW20346   6.081   8.336   6.521  0.4644  0.2711 -0.0699
 5585SOL    HW120347   6.007   8.368   6.574  0.1917  0.3414 -0.4931
 5585SOL    HW220348   6.153   8.395   6.542  0.4610  0.0839  0.4956
 5586SOL     OW20349   7.296   1.557   8.495 -0.0937  0.0480 -0.0526
 5586SOL    HW120350   7.345   1.606   8.561  0.4777 -0.4396 -0.0984
 5586SOL    HW220351   7.363   1.522   8.437 -0.4948 -0.6767 -0.0904
 5587SOL     OW20352   8.930  10.282   4.501  0.4636 -0.2607  0.6335
 5587SOL    HW120353   8.945  10.195   4.465  1.1516 -0.3815  1.2033
 5587SOL    HW220354   8.997  10.337   4.460  0.9411 -0.2992  1.3479
 5588SOL     OW20355   9.612   3.934   7.694 -0.0128 -0.2276 -0.6337
 5588SOL    HW120356   9.626   3.840   7.690  0.5085 -0.6953  4.7084
 5588SOL    HW220357   9.699   3.971   7.706 -0.4708  0.5171  0.5961
 5589SOL     OW20358   9.293   0.543   7.769 -0.0937  0.3231 -0.6023
 5589SOL    HW120359   9.375   0.580   7.735  0.8689  0.6319  1.8584
 5589SOL    HW220360   9.283   0.583   7.855 -1.4608 -1.6862  0.2404
 5590SOL     OW20361   1.076   0.162   3.805  0.0029 -0.4007 -0.2536
 5590SOL    HW120362   1.056   0.250   3.773 -1.4786 -0.7999 -0.4865
 5590SOL    HW220363   1.046   0.103   3.735 -1.0683 -1.1771  0.8209
 5591SOL     OW20364   5.527   4.290   0.567 -0.3735 -0.2674  0.0296
 5591SOL    HW120365   5.446   4.240   0.555  0.5918 -1.6774 -1.0232
 5591SOL    HW220366   5.586   4.257   0.499  1.3621  0.1332  1.2621
 5592SOL     OW20367   8.581   5.138   0.539  0.2066 -0.1305  0.0480
 5592SOL    HW120368   8.532   5.078   0.595  1.2140 -1.3620 -0.3378
 5592SOL    HW220369   8.570   5.223   0.580 -1.2993 -0.5599  0.5885
 5593SOL     OW20370   0.326   9.058   6.266 -0.2550  0.4853  0.2240
 5593SOL    HW120371   0.237   9.040   6.236  0.2128  0.9772 -1.5546
 5593SOL    HW220372   0.332   9.014   6.352 -1.9133 -0.2889 -0.0254
 5594SOL     OW20373   9.929   6.654   8.779 -0.4762  0.0509 -0.0963
 5594SOL    HW120374   9.848   6.643   8.729  0.9668 -0.0276 -2.5300
 5594SOL    HW220375   9.976   6.572   8.768  1.3456  1.2051 -1.4354
 5595SOL     OW20376   3.393   6.471   7.088 -0.1756 -0.0987 -0.2133
 5595SOL    HW120377   3.383   6.413   7.163  1.2765 -0.3562 -0.1901
 5595SOL    HW220378   3.304   6.497   7.066 -0.5736  1.2691  2.5851
 5596SOL     OW20379   3.653   6.807   4.616 -0.4424 -0.3876  0.1607
 5596SOL    HW120380   3.737   6.819   4.572 -0.6656 -0.4542 -0.2904
 5596SOL    HW220381   3.606   6.744   4.561 -0.3969 -1.1264  0.9528
 5597SOL     OW20382   2.197   4.983   1.065 -0.5950 -0.0090 -0.2447
 5597SOL    HW120383   2.187   5.071   1.028 -2.2121 -0.7394 -1.6688
 5597SOL    HW220384   2.263   4.994   1.134  0.4967  1.9708 -1.4860
 5598SOL     OW20385   9.210  10.647  11.084  0.1250  0.3479 -0.3914
 5598SOL    HW120386   9.205  10.713  11.014 -1.7840 -0.0458 -0.6811
 5598SOL    HW220387   9.284  10.675  11.138  1.9062  0.4588 -2.7529
 5599SOL     OW20388   9.224   9.192   8.722  0.5924  0.1883  0.4698
 5599SOL    HW120389   9.173   9.262   8.681 -1.5582 -0.8354  1.2560
 5599SOL    HW220390   9.306   9.234   8.747 -0.1118  2.0964 -0.2302
 5600SOL     OW20391   8.228   8.032   1.876  0.5395 -0.2105 -0.6930
 5600SOL    HW120392   8.146   8.062   1.916 -0.1706 -2.0042 -0.6926
 5600SOL    HW220393   8.291   8.101   1.896 -0.6251  0.5478  0.5601
 5601SOL     OW20394   4.646   8.745   8.003 -0.1048 -0.3929 -0.0261
 5601SOL    HW120395   4.559   8.742   8.042 -0.0423  1.3679  0.3361
 5601SOL    HW220396   4.653   8.663   7.954 -2.0511 -0.4629 -0.2718
 5602SOL     OW20397  10.060   1.634   9.401  0.1759  0.5501  0.5468
 5602SOL    HW120398  10.079   1.683   9.321 -0.2683  0.7785  0.5764
 5602SOL    HW220399  10.126   1.664   9.463 -0.0959  1.1377  0.5698
 5603SOL     OW20400   6.123   2.442   5.155  0.2047  0.1337  0.3091
 5603SOL    HW120401   6.034   2.475   5.144 -0.7722 -2.2309  0.4582
 5603SOL    HW220402   6.125   2.359   5.106  2.2412 -0.0240  0.5357
 5604SOL     OW20403   7.295   9.704   2.210 -0.1241 -0.6501  0.0478
 5604SOL    HW120404   7.201   9.692   2.194  0.1853 -1.5791 -1.1600
 5604SOL    HW220405   7.331   9.731   2.126  0.9484 -1.8734  0.0903
 5605SOL     OW20406   5.100   4.249   4.796  0.8949  0.3910  0.0024
 5605SOL    HW120407   5.097   4.302   4.716  0.6643 -2.9842 -2.4725
 5605SOL    HW220408   5.188   4.265   4.832  1.5942  0.9124 -1.8109
 5606SOL     OW20409   3.445   5.238   8.494 -0.4887 -0.8373 -1.0602
 5606SOL    HW120410   3.361   5.211   8.459 -1.5881  1.2441 -0.2061
 5606SOL    HW220411   3.508   5.179   8.454 -2.3084 -2.2891 -1.9265
 5607SOL     OW20412   3.348  10.918   6.633 -0.1196 -0.8048 -0.2865
 5607SOL    HW120413   3.428  10.937   6.585  1.1512  0.7954  2.2819
 5607SOL    HW220414   3.280  10.969   6.587  1.1140  0.9946 -0.1991
 5608SOL     OW20415   2.478   8.515   8.675 -0.4533  0.3055 -0.0714
 5608SOL    HW120416   2.392   8.491   8.641 -0.6304  1.3674 -0.4383
 5608SOL    HW220417   2.501   8.594   8.626  1.0792 -0.3891 -0.5221
 5609SOL     OW20418   9.357   5.470   5.445 -0.2335  0.3860  0.1969
 5609SOL    HW120419   9.304   5.550   5.448 -2.0804 -0.7676 -0.4562
 5609SOL    HW220420   9.428   5.490   5.383 -1.7920  0.8819 -1.4967
 5610SOL     OW20421   4.065   9.210  10.676 -0.1164 -0.1970  0.1114
 5610SOL    HW120422   4.055   9.116  10.662  0.4301 -0.3953  0.9548
 5610SOL    HW220423   4.058   9.221  10.771  0.0692  0.5841  0.0436
 5611SOL     OW20424   7.338   4.832   2.345  0.3683  0.1410 -0.1041
 5611SOL    HW120425   7.353   4.923   2.369  1.4742  0.2009 -0.9685
 5611SOL    HW220426   7.243   4.821   2.354  0.2119  1.3711 -0.0084
 5612SOL     OW20427   5.041   3.597   8.764  0.3018  0.2616 -0.3657
 5612SOL    HW120428   5.012   3.582   8.854  0.4541 -0.9229 -0.5025
 5612SOL    HW220429   5.110   3.533   8.750  1.4407  1.5511 -0.7906
 5613SOL     OW20430   7.584   1.055   7.202  0.4105  0.0598 -0.2845
 5613SOL    HW120431   7.663   1.101   7.174 -0.7999  1.2219 -1.9976
 5613SOL    HW220432   7.512   1.113   7.176 -1.0076 -0.0448  2.9197
 5614SOL     OW20433   8.027   5.555   5.867  0.5932  0.0543  0.1397
 5614SOL    HW120434   8.034   5.536   5.774 -1.8623  0.8405 -0.2843
 5614SOL    HW220435   8.114   5.535   5.903  0.6233 -3.8627 -1.6170
 5615SOL     OW20436   8.550   8.679   0.933  0.6276  0.4282 -0.4686
 5615SOL    HW120437   8.455   8.662   0.935  0.6666 -0.0164 -1.4915
 5615SOL    HW220438   8.586   8.620   0.999  0.4006 -1.0644 -1.6310
 5616SOL     OW20439   6.917   0.426   6.489  0.1484  0.2094 -0.5609
 5616SOL    HW120440   6.938   0.382   6.571  1.9178 -0.2147 -1.2012
 5616SOL    HW220441   6.940   0.362   6.421  1.3809  1.5388 -1.4586
 5617SOL     OW20442   1.764   5.888   4.419  0.3937 -0.0988 -0.3130
 5617SOL    HW120443   1.707   5.840   4.479 -1.1064  0.4037 -1.2674
 5617SOL    HW220444   1.704   5.924   4.353  1.8694  0.1828 -1.5582
 5618SOL     OW20445  10.223  10.489   6.813  0.0078 -0.1242  0.5296
 5618SOL    HW120446  10.302  10.454   6.773 -0.4577 -0.0342 -0.4758
 5618SOL    HW220447  10.256  10.552   6.878  0.7733 -0.5365  0.5547
 5619SOL     OW20448   0.646   6.454   0.031  0.0752 -0.3502  0.0954
 5619SOL    HW120449   0.604   6.413  -0.045 -1.7887 -0.9983  1.4196
 5619SOL    HW220450   0.629   6.547   0.021 -0.5532 -0.4770 -0.0574
 5620SOL     OW20451   8.530   2.839   5.439 -0.9051 -0.1223  0.6502
 5620SOL    HW120452   8.548   2.903   5.508 -2.2702  1.6941 -0.6203
 5620SOL    HW220453   8.504   2.891   5.363 -1.8909 -2.1846 -0.5000
 5621SOL     OW20454   5.537   4.363   2.430  0.0243 -0.0575  0.7382
 5621SOL    HW120455   5.583   4.405   2.502  1.2126 -0.3495  0.1665
 5621SOL    HW220456   5.574   4.275   2.426 -0.3311 -0.1776  0.0398
 5622SOL     OW20457   7.864   6.825   1.604  0.2378 -0.1435 -0.0997
 5622SOL    HW120458   7.817   6.896   1.647  0.2201 -0.5532  0.5848
 5622SOL    HW220459   7.830   6.824   1.515 -0.4286  0.1187  0.1467
 5623SOL     OW20460   3.345   7.241   7.780 -0.2006  0.8516 -0.0301
 5623SOL    HW120461   3.341   7.226   7.875 -0.6723  2.5474  0.2480
 5623SOL    HW220462   3.438   7.230   7.759 -0.4581 -2.6401  0.0030
 5624SOL     OW20463   8.690   5.657   2.320  0.0280  0.2123 -0.1790
 5624SOL    HW120464   8.721   5.592   2.383  1.1469  1.1972  0.3014
 5624SOL    HW220465   8.745   5.643   2.242  1.8171  1.9819  0.6851
 5625SOL     OW20466   3.710   0.064   9.378 -0.5879 -0.3654  0.0301
 5625SOL    HW120467   3.622   0.093   9.402 -0.6012  0.1387 -0.5900
 5625SOL    HW220468   3.764   0.084   9.454 -0.9953 -0.6134  0.3889
 5626SOL     OW20469   6.508   4.609   7.310 -0.0064 -0.1323 -0.1061
 5626SOL    HW120470   6.579   4.616   7.247 -0.3873 -0.4403 -0.5751
 5626SOL    HW220471   6.444   4.551   7.269 -1.5397  1.8280 -0.6499
 5627SOL     OW20472   4.425   4.983   1.142  0.1905  0.1363 -0.2401
 5627SOL    HW120473   4.448   5.074   1.160  1.8122 -0.7006  2.5536
 5627SOL    HW220474   4.418   4.943   1.228 -0.7043 -2.3734 -1.3898
 5628SOL     OW20475   6.995   1.145   7.865 -0.2263 -0.9373  0.0488
 5628SOL    HW120476   6.955   1.060   7.881 -0.8626 -0.8821 -1.1576
 5628SOL    HW220477   6.974   1.165   7.774  0.5045  0.1979  0.1094
 5629SOL     OW20478   2.952   1.943   4.644 -0.2255 -0.0006  0.1150
 5629SOL    HW120479   3.025   1.948   4.582  0.6084  1.7820  1.1482
 5629SOL    HW220480   2.903   1.866   4.617  0.3733  0.4157 -2.4303
 5630SOL     OW20481  10.528   6.216   6.058  0.0880 -0.9002  0.7465
 5630SOL    HW120482  10.460   6.282   6.070  0.1313 -0.6210 -0.4767
 5630SOL    HW220483  10.559   6.198   6.147  0.4571  1.1087  1.0699
 5631SOL     OW20484   5.808   1.546   3.979 -0.0844 -0.6155  0.7522
 5631SOL    HW120485   5.896   1.558   3.945 -0.2450 -0.6742  0.3076
 5631SOL    HW220486   5.798   1.614   4.045 -0.0835  0.0935  0.0412
 5632SOL     OW20487   6.218   7.567   9.347 -0.2850  0.1267 -0.3231
 5632SOL    HW120488   6.211   7.625   9.423 -0.2768 -1.5759  1.0461
 5632SOL    HW220489   6.138   7.583   9.297  0.1516  1.9687 -0.5140
 5633SOL     OW20490   0.662   1.033   9.300 -0.0439 -0.1558 -0.0059
 5633SOL    HW120491   0.605   0.967   9.340 -0.4361  0.7851  1.0359
 5633SOL    HW220492   0.677   1.001   9.211 -2.9040 -0.0598 -0.6459
 5634SOL     OW20493   7.071   2.499   3.569  0.0954 -0.7500  0.0816
 5634SOL    HW120494   7.060   2.590   3.543  0.9630 -0.2899  1.2024
 5634SOL    HW220495   6.990   2.477   3.615 -0.3018 -0.6952 -0.5882
 5635SOL     OW20496   5.326   4.410   0.249  0.1488 -0.3158 -0.3648
 5635SOL    HW120497   5.364   4.497   0.261 -0.4520 -0.2999  1.8798
 5635SOL    HW220498   5.401   4.351   0.242  0.5569  0.2771 -1.0823
 5636SOL     OW20499   9.400   3.128   0.816  0.0898  0.2587  0.2790
 5636SOL    HW120500   9.447   3.068   0.873 -0.3162 -0.5965 -0.2660
 5636SOL    HW220501   9.309   3.096   0.816  0.1983 -0.1644 -1.3160
 5637SOL     OW20502  10.403   8.745   9.450 -0.4089 -0.1686  0.0667
 5637SOL    HW120503  10.395   8.657   9.487  0.6445 -0.0756  0.5655
 5637SOL    HW220504  10.350   8.742   9.371  0.2833 -1.5253 -0.3945
 5638SOL     OW20505   8.234   3.426   3.736 -0.4112  0.3130 -0.1267
 5638SOL    HW120506   8.159   3.454   3.683 -1.4094 -0.9884  0.5309
 5638SOL    HW220507   8.195   3.372   3.805  0.7420  2.5413  2.4389
 5639SOL     OW20508   8.082   9.650  11.059  0.5276  0.2222 -0.7652
 5639SOL    HW120509   8.074   9.738  11.095 -1.5801 -0.5094  0.7702
 5639SOL    HW220510   8.176   9.633  11.056  0.9097  1.4736  1.6993
 5640SOL     OW20511   1.909   6.164   8.467 -0.1115  0.0013 -0.0850
 5640SOL    HW120512   1.821   6.125   8.467 -0.4157  0.6576 -1.0680
 5640SOL    HW220513   1.933   6.169   8.375  0.2912  1.2992  0.0690
 5641SOL     OW20514   9.232   3.066   3.540 -0.1839  0.0462 -0.0591
 5641SOL    HW120515   9.221   3.051   3.634  0.6336 -0.3445 -0.0123
 5641SOL    HW220516   9.254   2.979   3.505 -0.4503  0.1956 -0.6066
 5642SOL     OW20517   8.269   0.879   3.251  0.2080  0.1524  0.5370
 5642SOL    HW120518   8.223   0.888   3.334  1.8755 -0.9854  1.6450
 5642SOL    HW220519   8.303   0.966   3.232 -0.3087  0.4505  0.9461
 5643SOL     OW20520   5.660   6.918   7.243  0.2657  0.2417  0.5830
 5643SOL    HW120521   5.727   6.928   7.311  0.3614  1.7061  0.3216
 5643SOL    HW220522   5.655   6.824   7.227  2.1951  0.0816  0.6745
 5644SOL     OW20523   9.028   6.081   3.978  0.4377  0.2012  0.3718
 5644SOL    HW120524   8.956   6.143   3.985 -0.1266 -0.4817  0.7202
 5644SOL    HW220525   9.107   6.132   3.996  0.0259  0.9156  0.1574
 5645SOL     OW20526   7.906   7.565   5.389  0.2491  0.0623 -0.6841
 5645SOL    HW120527   7.915   7.529   5.301 -1.6274 -0.8331 -0.5621
 5645SOL    HW220528   7.836   7.630   5.381  0.6896  0.6307 -0.0348
 5646SOL     OW20529   0.945   0.313   7.186 -0.5033 -0.1877  0.4042
 5646SOL    HW120530   0.850   0.319   7.176 -0.2476 -0.0243 -3.4635
 5646SOL    HW220531   0.976   0.403   7.186 -0.1941 -0.1567 -3.0057
 5647SOL     OW20532   9.422   8.080   7.093  0.2547  0.2751  0.1598
 5647SOL    HW120533   9.345   8.030   7.065 -1.0645  1.5551  1.3017
 5647SOL    HW220534   9.392   8.129   7.170  2.3399  0.5418  0.8702
 5648SOL     OW20535   6.610   7.037   5.420 -0.5436  0.9621  0.5009
 5648SOL    HW120536   6.531   7.035   5.366  0.7177  1.5238 -1.4780
 5648SOL    HW220537   6.596   7.109   5.481 -1.5839  0.9881  0.2516
 5649SOL     OW20538   5.684   1.427   6.459  0.1816 -0.5358  0.2759
 5649SOL    HW120539   5.767   1.454   6.498 -0.5068  1.0464  0.7191
 5649SOL    HW220540   5.619   1.446   6.527 -0.6734 -0.6649 -0.4898
 5650SOL     OW20541   4.745  10.708   0.899  0.1631  0.0577  0.2713
 5650SOL    HW120542   4.730  10.634   0.957 -1.4845  0.8963  0.9679
 5650SOL    HW220543   4.741  10.785   0.956 -1.3348  0.8901 -0.8743
 5651SOL     OW20544   4.305   5.861   3.949 -0.4173 -0.0786  0.8302
 5651SOL    HW120545   4.371   5.889   4.012  1.1848 -1.3052 -0.2292
 5651SOL    HW220546   4.302   5.766   3.959  0.1378 -0.3447 -1.1607
 5652SOL     OW20547   0.513   4.559   1.027  0.4460 -0.0164  0.1241
 5652SOL    HW120548   0.431   4.552   0.979  0.2503 -0.5781  0.5199
 5652SOL    HW220549   0.562   4.628   0.983  1.0908 -1.7538 -2.1043
 5653SOL     OW20550   4.598   8.280   6.334 -0.6287 -0.3884 -0.3043
 5653SOL    HW120551   4.509   8.252   6.356 -0.5398 -1.6537 -1.4751
 5653SOL    HW220552   4.635   8.208   6.283  1.1791 -0.0018  0.3881
 5654SOL     OW20553   0.699  10.510   3.279  0.4559  0.0165  0.3045
 5654SOL    HW120554   0.784  10.553   3.273 -0.2632  1.3899 -0.4540
 5654SOL    HW220555   0.704  10.436   3.218  0.0328  2.0358 -2.3566
 5655SOL     OW20556   6.217   5.139   8.444  0.1124 -0.0514 -0.0141
 5655SOL    HW120557   6.182   5.057   8.411 -2.6537  0.9963 -0.0031
 5655SOL    HW220558   6.263   5.116   8.524  1.2759 -1.8055 -1.1282
 5656SOL     OW20559   1.935   1.234   0.211 -0.0956  0.0006 -0.4219
 5656SOL    HW120560   1.933   1.250   0.306 -1.1128  0.9565 -0.5857
 5656SOL    HW220561   1.862   1.175   0.195 -0.5668  0.6700 -0.7506
 5657SOL     OW20562  10.677   2.762   8.212  0.5986  0.5948 -0.1730
 5657SOL    HW120563  10.595   2.763   8.261  0.0490 -0.8652 -1.0029
 5657SOL    HW220564  10.671   2.840   8.156  0.1623  0.9565  0.3590
 5658SOL     OW20565   0.508   2.199   1.050 -0.6237  0.5231  0.1821
 5658SOL    HW120566   0.575   2.179   1.115 -0.3241 -0.1360 -0.3134
 5658SOL    HW220567   0.532   2.145   0.974 -2.2591 -0.4836  0.3331
 5659SOL     OW20568   1.810   4.901   4.203  0.1751 -0.4203  0.2140
 5659SOL    HW120569   1.894   4.856   4.195  0.0757 -0.6571  0.5070
 5659SOL    HW220570   1.747   4.832   4.221  0.1257 -0.0905  1.3645
 5660SOL     OW20571   5.638   2.872   1.536 -0.0737  0.2272 -0.2216
 5660SOL    HW120572   5.648   2.852   1.629 -2.7832 -0.9440 -0.0654
 5660SOL    HW220573   5.601   2.960   1.535 -0.7877 -0.0612 -0.1081
 5661SOL     OW20574   6.945   2.133   0.200 -0.4192 -0.8039  0.4723
 5661SOL    HW120575   6.946   2.046   0.160 -0.6013 -1.2604  1.4355
 5661SOL    HW220576   6.972   2.118   0.291 -0.4205  0.1504  0.6372
 5662SOL     OW20577   5.388   2.723   5.123 -0.2534  0.4009  0.1065
 5662SOL    HW120578   5.450   2.792   5.145  0.2545  0.1490 -0.5058
 5662SOL    HW220579   5.393   2.716   5.028  0.3323 -1.0643  0.2281
 5663SOL     OW20580   6.611   3.701   2.213  0.0184  0.1319 -0.2739
 5663SOL    HW120581   6.611   3.644   2.290 -1.6007 -0.4633 -0.6882
 5663SOL    HW220582   6.673   3.659   2.153  0.0867 -0.2835  0.0815
 5664SOL     OW20583   7.306   1.386   7.805  0.4316  0.1421 -0.0620
 5664SOL    HW120584   7.364   1.324   7.849  1.3006  0.2409 -1.0450
 5664SOL    HW220585   7.323   1.470   7.848  0.4277  0.0194  0.1847
 5665SOL     OW20586   9.238  10.507   5.606  0.5492  0.7810 -0.4766
 5665SOL    HW120587   9.283  10.589   5.628  1.5810 -0.5395  2.7564
 5665SOL    HW220588   9.307  10.441   5.606 -0.7895 -0.6581  0.5627
 5666SOL     OW20589   8.817   1.379   4.310 -0.0502  0.1691 -0.2593
 5666SOL    HW120590   8.827   1.317   4.383 -0.6120 -1.0185 -1.1534
 5666SOL    HW220591   8.885   1.445   4.326  0.4048 -0.5255  0.8715
 5667SOL     OW20592   6.647   5.839   9.158 -0.0913  0.3728 -0.2230
 5667SOL    HW120593   6.650   5.882   9.244  1.1422  1.1739 -0.6508
 5667SOL    HW220594   6.680   5.751   9.175 -0.1836  0.4121  0.1882
 5668SOL     OW20595   7.096   2.884  10.658  0.6934  0.4628  0.4143
 5668SOL    HW120596   7.080   2.790  10.650  0.4159  0.6055 -0.9674
 5668SOL    HW220597   7.186   2.891  10.691  0.9510 -0.2865 -0.1181
 5669SOL     OW20598   3.789   4.853  10.697  0.3502  0.2418 -0.4928
 5669SOL    HW120599   3.804   4.941  10.660 -0.9004 -0.5757 -3.2167
 5669SOL    HW220600   3.863   4.801  10.665  0.9129  0.1903  0.8391
 5670SOL     OW20601   6.401   6.163   1.418  0.2408  0.0819 -0.5630
 5670SOL    HW120602   6.433   6.107   1.488 -2.7327  0.1494  1.0289
 5670SOL    HW220603   6.389   6.104   1.344 -0.3476 -0.8643  0.2607
 5671SOL     OW20604  10.588   7.098  10.883 -0.6875  0.4460  0.0019
 5671SOL    HW120605  10.566   7.005  10.876 -0.4947  0.3521  0.5380
 5671SOL    HW220606  10.505   7.143  10.874 -0.7396  0.2390 -0.5853
 5672SOL     OW20607   4.293   1.046   4.982 -0.0254  0.7292 -0.7013
 5672SOL    HW120608   4.331   1.111   5.042  2.5193 -0.3920 -0.9494
 5672SOL    HW220609   4.281   0.968   5.035 -0.6363  0.6246 -0.9834
 5673SOL     OW20610   6.439   3.985   9.337  0.0236  0.3419  0.7083
 5673SOL    HW120611   6.393   3.988   9.253  0.6390 -1.0727  0.2932
 5673SOL    HW220612   6.403   3.907   9.381 -0.6619  1.3457  2.0024
 5674SOL     OW20613  10.767   0.740   9.790  0.1428  0.1675 -0.8075
 5674SOL    HW120614  10.828   0.809   9.764  3.4243 -2.6514 -1.4431
 5674SOL    HW220615  10.697   0.743   9.725  0.0651  2.9146 -0.6914
 5675SOL     OW20616   4.134  10.549  10.233  0.5328  0.2426 -0.0702
 5675SOL    HW120617   4.081  10.505  10.299 -0.0320  0.9065 -0.0699
 5675SOL    HW220618   4.086  10.536  10.151  0.5195  0.5968 -0.1184
 5676SOL     OW20619   7.277   9.643   9.033 -0.8515  0.0020  0.2203
 5676SOL    HW120620   7.208   9.613   8.973 -0.1093 -2.5074  0.5200
 5676SOL    HW220621   7.341   9.572   9.034  1.1970  1.7440  0.8749
 5677SOL     OW20622   9.900   9.595  10.964 -0.2307  0.0557  0.1455
 5677SOL    HW120623   9.885   9.512  11.009 -1.0136  0.2221  0.2170
 5677SOL    HW220624   9.903   9.660  11.034 -0.0762  0.1447  0.0573
 5678SOL     OW20625   0.222   7.437   1.952  0.4315 -0.3220 -0.4267
 5678SOL    HW120626   0.228   7.482   1.867 -0.0234 -1.0130 -0.8328
 5678SOL    HW220627   0.137   7.463   1.987  1.1294  0.9522  0.4104
 5679SOL     OW20628   9.719   2.555   5.882 -0.1499  0.4223  0.2716
 5679SOL    HW120629   9.717   2.573   5.788  3.2995 -2.4998 -0.5597
 5679SOL    HW220630   9.700   2.461   5.889  0.2947  0.4427  2.4301
 5680SOL     OW20631   3.188  10.134   6.825  0.0609  0.3011  0.1500
 5680SOL    HW120632   3.136  10.104   6.900 -1.2698  1.8549 -0.1098
 5680SOL    HW220633   3.144  10.214   6.796  1.8802  0.9697 -0.8858
 5681SOL     OW20634   1.680   1.364   2.243 -0.5355 -0.5425  0.3790
 5681SOL    HW120635   1.754   1.423   2.256 -2.0196  1.0635  2.1849
 5681SOL    HW220636   1.652   1.381   2.154  0.3049 -0.0144  0.1987
 5682SOL     OW20637  10.108   1.887   8.332  0.1453  0.0672 -0.5747
 5682SOL    HW120638  10.033   1.928   8.374 -1.9217 -2.8982 -1.0228
 5682SOL    HW220639  10.086   1.888   8.238  0.2843 -1.4129 -0.6484
 5683SOL     OW20640   2.213  10.265   5.478 -0.5017 -0.1997 -0.1975
 5683SOL    HW120641   2.228  10.195   5.414  0.2467 -0.4918  0.2905
 5683SOL    HW220642   2.118  10.280   5.475 -0.5109 -0.4019 -1.1673
 5684SOL     OW20643   8.236   4.595   3.934  0.0906 -0.1472 -0.0961
 5684SOL    HW120644   8.208   4.543   4.009  1.4354  0.6238  0.9796
 5684SOL    HW220645   8.296   4.538   3.887  2.2497  0.6244  1.5595
 5685SOL     OW20646   3.175   1.137   5.099  0.2893  0.3151 -0.2498
 5685SOL    HW120647   3.194   1.224   5.132  1.4818  1.0037 -2.5310
 5685SOL    HW220648   3.205   1.138   5.008 -1.3796 -1.8898 -0.9353
 5686SOL     OW20649   6.804   2.536   9.654 -0.7910 -0.0376 -0.3629
 5686SOL    HW120650   6.824   2.614   9.603 -2.8483  0.5722 -0.3130
 5686SOL    HW220651   6.887   2.515   9.699  0.0758  1.4880 -1.1623
 5687SOL     OW20652   7.137   3.622   7.441 -0.1685  0.6784 -0.4737
 5687SOL    HW120653   7.072   3.641   7.508 -0.3454 -1.7131  0.1303
 5687SOL    HW220654   7.087   3.580   7.371  0.6612 -1.2036  0.0024
 5688SOL     OW20655   5.945   5.498   0.742  0.1808 -0.2329 -0.4819
 5688SOL    HW120656   5.965   5.450   0.662  0.9722 -0.5628 -0.1010
 5688SOL    HW220657   5.852   5.483   0.757 -0.1075  0.2855 -1.6283
 5689SOL     OW20658   6.675   8.230   2.165  0.1161 -0.6803 -0.1795
 5689SOL    HW120659   6.765   8.258   2.149  0.4674 -1.3121  0.5790
 5689SOL    HW220660   6.647   8.282   2.240 -0.1336 -0.5341 -0.3716
 5690SOL     OW20661   8.360   5.132   6.704 -0.4812 -0.1828 -0.3658
 5690SOL    HW120662   8.450   5.124   6.672 -0.2891  0.9761 -0.1505
 5690SOL    HW220663   8.319   5.048   6.681  0.9715 -1.2071  0.6091
 5691SOL     OW20664   7.554   1.802   9.703 -0.4381 -0.1844  0.1033
 5691SOL    HW120665   7.551   1.753   9.621  0.1074 -0.6218  0.3342
 5691SOL    HW220666   7.569   1.734   9.770 -1.1454  0.1300  0.5925
 5692SOL     OW20667   5.821   7.780   8.202  0.7668  0.1981 -0.4361
 5692SOL    HW120668   5.822   7.875   8.203  0.3473  0.2059 -0.5648
 5692SOL    HW220669   5.897   7.754   8.254  0.1772  0.5984  0.6470
 5693SOL     OW20670   2.069  10.166   3.052  0.5683  0.2017  0.2104
 5693SOL    HW120671   2.005  10.095   3.052  0.7844 -0.0851 -2.4243
 5693SOL    HW220672   2.128  10.146   3.124  0.1777 -1.8753  0.0035
 5694SOL     OW20673   1.107   1.114  10.506  0.7320 -0.0115 -0.2552
 5694SOL    HW120674   1.024   1.161  10.493  0.4045 -0.4504  0.2063
 5694SOL    HW220675   1.090   1.026  10.472  0.1655 -0.8979  2.1013
 5695SOL     OW20676   9.857  10.569   0.885 -0.0353  0.4335  0.0490
 5695SOL    HW120677   9.855  10.476   0.860 -0.3680 -0.0595  1.7756
 5695SOL    HW220678   9.916  10.573   0.959  0.8992  1.8375 -0.7299
 5696SOL     OW20679   9.421   8.649  10.700 -0.5080  0.0476  0.0125
 5696SOL    HW120680   9.349   8.700  10.737  0.5642  0.8499  1.0671
 5696SOL    HW220681   9.400   8.642  10.607 -0.9249  2.0854 -0.0897
 5697SOL     OW20682   1.609   9.179   1.187 -0.9558 -0.3469 -0.8998
 5697SOL    HW120683   1.631   9.122   1.114 -1.9940 -3.5695  1.0845
 5697SOL    HW220684   1.531   9.139   1.226 -1.0379  1.7737  1.3972
 5698SOL     OW20685   6.453   4.835   4.475 -0.0929 -0.0698  0.2893
 5698SOL    HW120686   6.444   4.827   4.380 -0.1198 -1.9418  0.4150
 5698SOL    HW220687   6.537   4.793   4.495 -1.2382 -2.0050  1.3254
 5699SOL     OW20688   8.383   7.124   9.536 -0.0690 -0.0232 -0.7000
 5699SOL    HW120689   8.453   7.059   9.536  0.3599  0.4241  0.5077
 5699SOL    HW220690   8.316   7.088   9.594 -0.6853 -0.2544 -1.5204
 5700SOL     OW20691   9.150   6.860   1.433  0.5675 -0.3112  0.2458
 5700SOL    HW120692   9.217   6.798   1.404  1.3780  0.9990 -0.7950
 5700SOL    HW220693   9.194   6.945   1.432 -1.1323  0.5988 -0.5550
 5701SOL     OW20694   2.732   5.334   2.692  0.0716  0.0551 -0.0567
 5701SOL    HW120695   2.637   5.331   2.688  0.1031 -0.4209 -0.6082
 5701SOL    HW220696   2.757   5.248   2.726  0.2776  0.4452  0.8084
 5702SOL     OW20697  10.891   6.880   1.373 -0.6160 -0.9286 -0.3596
 5702SOL    HW120698  10.823   6.932   1.331  0.3154  0.5528 -0.0875
 5702SOL    HW220699  10.972   6.903   1.326 -0.0167 -1.3314  0.4518
 5703SOL     OW20700   3.305   5.746  10.315 -0.1806  0.2026  0.8244
 5703SOL    HW120701   3.321   5.755  10.221  1.8020  0.1404  1.1304
 5703SOL    HW220702   3.343   5.825  10.354 -2.7935  1.2826  1.4553
 5704SOL     OW20703   4.525   8.164   5.512 -0.9492 -0.1803 -0.1841
 5704SOL    HW120704   4.576   8.139   5.589 -1.1720 -1.2076 -0.3548
 5704SOL    HW220705   4.437   8.180   5.547 -0.5617  1.5036  0.0957
 5705SOL     OW20706   9.456  10.067   9.277  0.1396 -0.4275 -0.4288
 5705SOL    HW120707   9.455  10.105   9.189 -1.5901  0.2042 -0.1823
 5705SOL    HW220708   9.546  10.035   9.288  1.1339  1.7802 -1.4223
 5706SOL     OW20709   9.760   2.200   7.017 -0.2291  0.7004 -0.0512
 5706SOL    HW120710   9.773   2.209   7.112  0.2193 -0.8305  0.0731
 5706SOL    HW220711   9.745   2.289   6.986 -2.1937  1.0669  1.7113
 5707SOL     OW20712   1.074   8.824   4.991 -0.1466  0.0597  0.3943
 5707SOL    HW120713   1.159   8.795   5.024 -0.9932 -0.5550  2.1389
 5707SOL    HW220714   1.020   8.744   4.991 -0.5871  0.3126 -1.2421
 5708SOL     OW20715   8.559   1.145   4.333  0.3200 -0.1064  0.8315
 5708SOL    HW120716   8.621   1.216   4.344  0.3504 -0.2291  1.5153
 5708SOL    HW220717   8.605   1.067   4.365  0.0376 -0.3091  0.7528
 5709SOL     OW20718   6.060  10.394   9.897  0.0553 -0.2916 -1.2195
 5709SOL    HW120719   6.032  10.341   9.972  1.4463 -0.1437 -0.5590
 5709SOL    HW220720   6.002  10.470   9.897  0.6394  0.1903  0.3142
 5710SOL     OW20721   3.089   0.882   2.678  0.0503 -0.7444 -0.3727
 5710SOL    HW120722   3.053   0.842   2.758  1.3135  1.1602  1.2432
 5710SOL    HW220723   3.011   0.912   2.630 -0.7441  0.9598  1.7726
 5711SOL     OW20724   6.910   2.668   9.245  0.4960  0.2482  0.0049
 5711SOL    HW120725   6.946   2.594   9.294  1.2150  0.0567 -0.7767
 5711SOL    HW220726   6.816   2.664   9.262  0.6197 -0.3659  0.6151
 5712SOL     OW20727   0.038   0.332   6.438  0.1755  0.3359 -0.7957
 5712SOL    HW120728   0.010   0.259   6.493  0.8872  1.8481  1.7415
 5712SOL    HW220729   0.115   0.298   6.391  0.9733 -0.3299  0.9282
 5713SOL     OW20730   8.044   2.292   2.236  0.1277  0.2292 -0.3073
 5713SOL    HW120731   8.139   2.296   2.238  0.1572  2.4318 -2.0503
 5713SOL    HW220732   8.021   2.307   2.144 -1.9227  1.0073  0.2602
 5714SOL     OW20733   4.802   5.429   4.155  0.2941 -0.1389 -0.4117
 5714SOL    HW120734   4.761   5.450   4.071 -2.6783 -1.6944  0.5338
 5714SOL    HW220735   4.889   5.395   4.131  0.1463  0.9206 -2.6996
 5715SOL     OW20736   2.454   9.916   0.753 -0.0299 -0.3316 -0.6459
 5715SOL    HW120737   2.425   9.940   0.841 -0.5904 -3.6466  0.2183
 5715SOL    HW220738   2.548   9.938   0.752 -0.2686  0.8313  0.3002
 5716SOL     OW20739   6.283   5.358   0.607 -0.5684 -0.3464 -0.3430
 5716SOL    HW120740   6.379   5.355   0.615 -0.3803 -1.2923 -2.3579
 5716SOL    HW220741   6.252   5.318   0.689  0.7316  0.1515  0.4370
 5717SOL     OW20742   7.650  10.205   2.102 -0.1643 -0.7286  0.0429
 5717SOL    HW120743   7.729  10.259   2.100  2.0919 -3.7150  0.9077
 5717SOL    HW220744   7.586  10.254   2.051  2.2041  1.8792 -0.6727
 5718SOL     OW20745   1.771   7.353   2.511 -0.1287 -0.4722 -0.0689
 5718SOL    HW120746   1.760   7.448   2.508  5.0006  0.3905 -1.2112
 5718SOL    HW220747   1.767   7.331   2.604 -1.4266  0.8336  0.2019
 5719SOL     OW20748   3.296   9.698   2.347 -0.1669  0.2230  0.1661
 5719SOL    HW120749   3.342   9.743   2.418 -0.3315  1.1395 -0.2974
 5719SOL    HW220750   3.345   9.617   2.336  2.2962  1.7817 -1.2726
 5720SOL     OW20751   6.647   4.264  10.217 -0.1256  0.4768 -0.5662
 5720SOL    HW120752   6.615   4.216  10.141 -0.3962 -0.5181  0.1524
 5720SOL    HW220753   6.717   4.208  10.252  1.5766  1.9866 -1.3590
 5721SOL     OW20754   4.911   4.050   5.812  0.3746  0.3219 -0.3072
 5721SOL    HW120755   4.968   4.020   5.740  0.5801  0.6969 -0.3015
 5721SOL    HW220756   4.937   3.995   5.886 -1.8410 -2.1574 -1.2108
 5722SOL     OW20757   4.459   6.212   4.209  0.2244 -0.4276  0.1151
 5722SOL    HW120758   4.502   6.150   4.268 -0.0791 -1.5310 -0.8070
 5722SOL    HW220759   4.503   6.296   4.227 -0.7268 -0.3940  2.8606
 5723SOL     OW20760   4.813   4.418   0.651 -0.4817 -0.3274  0.6167
 5723SOL    HW120761   4.760   4.375   0.718 -1.2323 -0.8722 -0.2929
 5723SOL    HW220762   4.756   4.484   0.614 -0.1739 -0.2230  0.3192
 5724SOL     OW20763   5.801  10.678   6.956 -0.7142  0.2888  0.9005
 5724SOL    HW120764   5.728  10.734   6.983 -0.3040  0.8311  0.9111
 5724SOL    HW220765   5.809  10.613   7.025 -1.8911 -0.4512  0.3606
 5725SOL     OW20766   4.080   7.120   6.382 -0.0864 -0.6791 -0.1551
 5725SOL    HW120767   4.146   7.055   6.360 -0.1775 -0.4164 -1.2856
 5725SOL    HW220768   4.057   7.161   6.298 -1.0599 -0.1778  0.3283
 5726SOL     OW20769  10.059   6.223  10.866  0.0840 -0.5276  0.0647
 5726SOL    HW120770  10.023   6.298  10.818  1.3393 -1.4945 -2.6220
 5726SOL    HW220771   9.984   6.184  10.910 -0.9208  1.2100  0.0070
 5727SOL     OW20772  10.125   7.935   2.499  0.2391  0.0820  0.1927
 5727SOL    HW120773  10.087   7.963   2.582  0.6781  0.5530  0.2454
 5727SOL    HW220774  10.078   7.855   2.476  0.6281 -0.4668  1.2676
 5728SOL     OW20775   5.710  10.065   7.565 -0.2803  0.2975 -0.7449
 5728SOL    HW120776   5.725   9.970   7.564  1.6750  0.4058  2.5182
 5728SOL    HW220777   5.767  10.099   7.496  2.0350 -0.6874  0.5655
 5729SOL     OW20778  10.481   9.694   4.809 -0.1456 -0.1993  0.7220
 5729SOL    HW120779  10.460   9.601   4.819 -1.4267 -0.3682 -2.4098
 5729SOL    HW220780  10.398   9.740   4.825 -0.0554  0.1884  0.1249
 5730SOL     OW20781   0.051   9.023   6.201  0.4609 -0.0133  0.0158
 5730SOL    HW120782   0.050   9.019   6.105 -0.6453 -2.0370  0.0373
 5730SOL    HW220783  -0.038   9.049   6.224  1.1978  2.2734  0.5248
 5731SOL     OW20784   4.716   8.570   8.401  0.1732  0.0555 -0.4616
 5731SOL    HW120785   4.737   8.496   8.344  0.0936  0.3424 -0.8698
 5731SOL    HW220786   4.795   8.582   8.454 -0.0732 -0.7725  0.1102
 5732SOL     OW20787   7.757  10.267   3.294 -0.4217  0.2270 -0.1027
 5732SOL    HW120788   7.732  10.263   3.386  0.6449 -0.0276  0.1844
 5732SOL    HW220789   7.707  10.196   3.253 -1.4184  0.7729  0.1351
 5733SOL     OW20790   3.611   6.096   4.976  0.2169  0.0031 -0.3990
 5733SOL    HW120791   3.681   6.155   4.947 -0.9835  1.4033 -0.5577
 5733SOL    HW220792   3.603   6.032   4.905 -1.1669  2.0652 -2.2615
 5734SOL     OW20793   1.245   0.834   7.524 -0.3954 -0.4065  0.3909
 5734SOL    HW120794   1.328   0.791   7.507 -0.9601 -1.1447 -0.6483
 5734SOL    HW220795   1.241   0.905   7.460 -0.1466  0.2350  1.0799
 5735SOL     OW20796  10.224   7.592   4.228 -0.1013  0.0004  0.3845
 5735SOL    HW120797  10.276   7.610   4.150 -1.0671  0.2565 -0.2328
 5735SOL    HW220798  10.244   7.665   4.287 -1.3451  1.3247 -0.7149
 5736SOL     OW20799   4.351   4.217   2.922 -0.4719 -0.5301 -0.1085
 5736SOL    HW120800   4.353   4.288   2.858 -0.4261 -0.0868  0.3792
 5736SOL    HW220801   4.314   4.256   3.000  0.6908 -0.7215  0.5577
 5737SOL     OW20802  10.020   6.093   7.682 -0.4162  0.5508 -0.3639
 5737SOL    HW120803   9.971   6.133   7.754 -1.4395 -0.1013 -0.6933
 5737SOL    HW220804  10.080   6.162   7.653  2.1601  0.0098  2.9894
 5738SOL     OW20805   0.031   3.742  10.992 -0.6408 -0.5947  0.1346
 5738SOL    HW120806  -0.009   3.698  11.068  1.9674 -0.1919  1.8495
 5738SOL    HW220807   0.103   3.685  10.967  0.5775  0.9044  0.1139
 5739SOL     OW20808   9.868   9.282   1.734 -0.4312  0.3855 -0.1022
 5739SOL    HW120809   9.787   9.266   1.685  0.6970 -1.9628 -1.3767
 5739SOL    HW220810   9.926   9.324   1.670  0.0198  0.2072  0.1906
 5740SOL     OW20811   0.442   0.009   2.293 -0.4496  0.0737  0.0911
 5740SOL    HW120812   0.465   0.008   2.386  0.5168 -0.8041 -0.1395
 5740SOL    HW220813   0.439   0.102   2.270 -1.4325  0.3248  1.1561
 5741SOL     OW20814   7.464   6.728   9.604  0.5310  0.3463  0.2550
 5741SOL    HW120815   7.389   6.706   9.549  1.9879 -1.8665 -0.9636
 5741SOL    HW220816   7.504   6.644   9.625  2.2453  1.4240  1.5268
 5742SOL     OW20817   8.288  11.002   8.434  0.0007 -0.2825  0.2707
 5742SOL    HW120818   8.342  11.044   8.366  0.7753 -1.1337  0.3389
 5742SOL    HW220819   8.313  11.047   8.515 -1.0468  0.8483 -0.0073
 5743SOL     OW20820   9.880   1.883   6.063 -0.1169  0.7407 -0.2506
 5743SOL    HW120821   9.870   1.816   6.130 -0.2766  0.0658 -0.9400
 5743SOL    HW220822   9.952   1.938   6.094 -1.5513  1.7336  1.5399
 5744SOL     OW20823   8.481   0.434   3.609 -0.3546 -0.2594 -0.2268
 5744SOL    HW120824   8.489   0.428   3.514 -1.1567  0.6057 -0.3697
 5744SOL    HW220825   8.545   0.371   3.643  0.2711 -0.2412 -1.3267
 5745SOL     OW20826   2.360   2.118   9.632 -0.3648 -0.1248 -0.1343
 5745SOL    HW120827   2.387   2.186   9.570 -0.2960  1.0273  1.0983
 5745SOL    HW220828   2.425   2.049   9.623  0.2149  0.4798 -0.6321
 5746SOL     OW20829   2.378   1.764   8.702  0.5264  0.3965  0.3069
 5746SOL    HW120830   2.413   1.851   8.722  0.4291  0.2193  1.2952
 5746SOL    HW220831   2.423   1.706   8.764  1.9696 -0.5626 -1.5425
 5747SOL     OW20832   1.432   7.014   5.326  0.4970 -0.6385 -0.5295
 5747SOL    HW120833   1.442   7.103   5.293  0.3214 -0.4151  0.0161
 5747SOL    HW220834   1.507   7.001   5.384 -0.2253 -0.3514  0.4818
 5748SOL     OW20835   9.052  10.815   6.649  0.1962 -0.2597 -0.1848
 5748SOL    HW120836   8.983  10.875   6.680  1.0141  0.5454  0.1029
 5748SOL    HW220837   9.008  10.760   6.584 -0.9383 -0.3229  0.5934
 5749SOL     OW20838   9.559   3.802   8.948  0.2585  0.5659 -0.8179
 5749SOL    HW120839   9.522   3.721   8.912 -0.5955  0.3602  0.4774
 5749SOL    HW220840   9.484   3.860   8.961  0.1719 -0.0968  2.4848
 5750SOL     OW20841   5.800   1.390   5.956  0.0409  0.2399  0.3355
 5750SOL    HW120842   5.819   1.481   5.933 -0.4554  0.2507 -0.0316
 5750SOL    HW220843   5.736   1.361   5.891 -2.5103  0.7133  2.4862
 5751SOL     OW20844   5.482   6.963   3.424 -0.1994  0.1608  0.2854
 5751SOL    HW120845   5.414   6.909   3.384  0.3773 -0.4130  0.0465
 5751SOL    HW220846   5.494   6.924   3.511  1.1375 -0.9650 -0.3643
 5752SOL     OW20847   4.394   2.483   7.471  0.2520  0.7777  0.0891
 5752SOL    HW120848   4.371   2.478   7.564  3.4733 -1.7891  0.9397
 5752SOL    HW220849   4.371   2.397   7.436  0.9683  0.9895 -0.9443
 5753SOL     OW20850   0.933   2.312   2.155 -0.0033 -0.4748 -0.6359
 5753SOL    HW120851   0.975   2.370   2.092 -0.0783  0.6013  0.2880
 5753SOL    HW220852   0.839   2.328   2.144 -0.1689 -2.0410 -1.8948
 5754SOL     OW20853   6.230  10.320   2.422 -0.6716 -0.0135 -0.6970
 5754SOL    HW120854   6.204  10.365   2.502  1.9627 -1.0002  0.8595
 5754SOL    HW220855   6.291  10.380   2.380 -0.8669 -0.1364 -1.1597
 5755SOL     OW20856   3.822   8.186   6.809 -0.0179  0.0493  0.4107
 5755SOL    HW120857   3.881   8.258   6.789  0.0617 -0.2832 -0.5690
 5755SOL    HW220858   3.776   8.214   6.888  2.1308 -0.0992  1.7996
 5756SOL     OW20859   5.482   5.860   9.948 -0.1892 -0.1254  0.0326
 5756SOL    HW120860   5.513   5.946   9.976 -0.4730 -0.1822  0.5156
 5756SOL    HW220861   5.387   5.865   9.951 -0.2131 -0.8442  1.2856
 5757SOL     OW20862   4.254   2.201  10.644 -0.2145  0.1547 -0.3664
 5757SOL    HW120863   4.236   2.239  10.730  0.3107  1.7824 -0.9402
 5757SOL    HW220864   4.276   2.110  10.662 -2.0236 -0.0623  1.0302
 5758SOL     OW20865   8.705   6.091   4.594 -0.0986 -0.1746  0.4291
 5758SOL    HW120866   8.784   6.067   4.545 -0.1741 -2.2301  1.1950
 5758SOL    HW220867   8.641   6.024   4.571 -0.5320 -0.4687  2.3019
 5759SOL     OW20868   5.586   5.850   1.988 -0.3740  0.3403 -0.3784
 5759SOL    HW120869   5.607   5.772   1.936 -2.0302 -0.7615  0.5199
 5759SOL    HW220870   5.661   5.908   1.975  0.1072 -0.6455 -2.5132
 5760SOL     OW20871   4.579   6.046   5.718  0.6022  0.1084 -0.0838
 5760SOL    HW120872   4.541   6.072   5.802  0.0478  1.0853 -0.6280
 5760SOL    HW220873   4.510   5.996   5.674  0.1879  1.2381 -0.7539
 5761SOL     OW20874   8.244   3.718   6.015  0.2439 -0.4451  0.6975
 5761SOL    HW120875   8.210   3.631   5.994  0.2274 -0.4651  0.8056
 5761SOL    HW220876   8.275   3.710   6.105  0.6309 -0.4598  0.5678
 5762SOL     OW20877   7.048   9.256   0.081  0.2231  0.3336  0.1620
 5762SOL    HW120878   7.002   9.321   0.028  0.0966 -0.7119 -1.0677
 5762SOL    HW220879   7.009   9.173   0.055  0.3416 -0.2461  1.7389
 5763SOL     OW20880  10.510   2.940   5.942 -0.0274 -0.6539  0.2504
 5763SOL    HW120881  10.577   2.881   5.908 -0.0147 -0.9816  0.8258
 5763SOL    HW220882  10.448   2.882   5.988  0.3203 -0.1645  1.3574
 5764SOL     OW20883   1.309   0.420   1.444  0.2380  0.4657  0.3871
 5764SOL    HW120884   1.320   0.346   1.384 -0.4920  1.1490 -0.6409
 5764SOL    HW220885   1.252   0.481   1.396 -1.7149  0.3491  2.4234
 5765SOL     OW20886   5.767   3.112   6.321 -0.1089 -0.2999 -0.5245
 5765SOL    HW120887   5.697   3.081   6.379 -0.1034 -2.8808 -1.7389
 5765SOL    HW220888   5.847   3.103   6.373 -0.2972 -0.9244 -0.3217
 5766SOL     OW20889   4.853   1.752   0.790  0.5395 -0.0479 -0.2278
 5766SOL    HW120890   4.912   1.732   0.863  1.1110  0.0016 -0.6706
 5766SOL    HW220891   4.791   1.679   0.789  0.8615 -0.3277 -0.0387
 5767SOL     OW20892   7.889   9.284   8.193  0.2883 -0.1690  0.4627
 5767SOL    HW120893   7.881   9.366   8.243  0.5478  0.1623 -0.0323
 5767SOL    HW220894   7.799   9.266   8.163  0.5012  0.9555 -1.0073
 5768SOL     OW20895   0.080   3.674   5.710 -0.1180 -0.1536  0.6997
 5768SOL    HW120896   0.064   3.592   5.664  0.8875  0.1111 -0.1519
 5768SOL    HW220897   0.154   3.656   5.767  1.0002  0.4970 -0.4840
 5769SOL     OW20898   3.408   6.057   0.175  0.1609 -0.0345 -0.5505
 5769SOL    HW120899   3.361   5.976   0.152 -1.6060  1.2490 -1.6684
 5769SOL    HW220900   3.429   6.097   0.091 -0.0388  1.2486  0.0007
 5770SOL     OW20901   6.191   1.802   4.721  0.2507  0.3492 -0.1063
 5770SOL    HW120902   6.176   1.752   4.641  0.1696 -0.5560  0.4618
 5770SOL    HW220903   6.286   1.812   4.726  0.5983 -2.6397  1.4431
 5771SOL     OW20904   7.253   5.755   3.866  0.1780  0.0662 -0.7500
 5771SOL    HW120905   7.303   5.814   3.810  2.2548  0.1854  1.0854
 5771SOL    HW220906   7.180   5.726   3.812  1.0829  1.5276 -2.8756
 5772SOL     OW20907  11.018   3.140   5.451  0.3056  0.0037 -0.4135
 5772SOL    HW120908  11.009   3.092   5.369  0.1733  0.5814 -0.7410
 5772SOL    HW220909  10.937   3.191   5.458 -0.0649 -0.6699  0.4960
 5773SOL     OW20910  10.022  10.664   1.816  0.3022  0.1736 -0.2952
 5773SOL    HW120911  10.044  10.588   1.870  2.7456  0.2976 -1.0175
 5773SOL    HW220912   9.980  10.725   1.877 -0.2586 -1.0989  0.6331
 5774SOL     OW20913   3.798   5.733   3.347  0.0620  0.0267  0.4230
 5774SOL    HW120914   3.888   5.708   3.365  0.8384  1.2442 -1.4677
 5774SOL    HW220915   3.780   5.805   3.409  0.8476  0.6530 -0.0680
 5775SOL     OW20916   0.236  10.003   1.013  0.0006  0.1398  0.4267
 5775SOL    HW120917   0.206  10.094   1.010  0.0851  0.1591 -1.2863
 5775SOL    HW220918   0.229   9.977   1.105 -0.8559  1.5974  0.7961
 5776SOL     OW20919   8.921   8.448   0.434  0.2807 -0.1991 -0.3783
 5776SOL    HW120920   8.951   8.533   0.464  0.4738  0.3483 -2.0161
 5776SOL    HW220921   8.856   8.467   0.366 -0.9054 -1.3709  0.3674
 5777SOL     OW20922   7.571   2.716   1.337 -0.2801 -0.3349  0.3169
 5777SOL    HW120923   7.615   2.662   1.273  0.7192 -0.9734  1.4975
 5777SOL    HW220924   7.634   2.786   1.357 -0.7990  0.1761  0.2139
 5778SOL     OW20925   6.446   8.392   8.484  0.1958  0.9946  0.6768
 5778SOL    HW120926   6.414   8.393   8.574 -2.1943  3.1163 -0.0693
 5778SOL    HW220927   6.423   8.478   8.450 -0.1234 -0.1579 -2.3276
 5779SOL     OW20928   0.562   6.124   9.278  0.0808 -0.1354  0.0617
 5779SOL    HW120929   0.551   6.055   9.343 -0.1673 -0.1416  0.0139
 5779SOL    HW220930   0.623   6.186   9.319 -0.2429 -0.0284  0.3889
 5780SOL     OW20931   7.681   0.196   4.610 -0.5462 -0.4519 -0.1496
 5780SOL    HW120932   7.760   0.214   4.559  1.4365 -0.2488  2.7217
 5780SOL    HW220933   7.631   0.278   4.606  0.0528 -0.1171 -0.9550
 5781SOL     OW20934   6.474  10.627   3.438 -0.4833 -0.2714 -0.5902
 5781SOL    HW120935   6.546  10.592   3.386 -0.2543 -1.7897  0.6704
 5781SOL    HW220936   6.398  10.575   3.411 -0.4832 -0.6602  0.1292
 5782SOL     OW20937   8.702  10.322  10.758  0.2497 -0.3248  0.3923
 5782SOL    HW120938   8.714  10.244  10.704  0.7723  0.2190 -0.3144
 5782SOL    HW220939   8.716  10.395  10.697 -1.5250  0.3412  0.7216
 5783SOL     OW20940   6.184   9.589   1.896 -0.3941 -0.7000  0.8951
 5783SOL    HW120941   6.100   9.546   1.881  0.6534 -2.6488  0.2105
 5783SOL    HW220942   6.235   9.568   1.818  0.4376  1.2694  0.8615
 5784SOL     OW20943   7.797   7.047   7.308  0.6309 -0.3800 -0.5432
 5784SOL    HW120944   7.860   6.987   7.348  1.3856  0.0093 -1.1276
 5784SOL    HW220945   7.846   7.128   7.294 -0.5660  0.6323  0.8679
 5785SOL     OW20946   8.975   4.024   7.212 -0.3576  0.4363 -0.1960
 5785SOL    HW120947   8.923   4.101   7.233 -0.2858  0.1701  1.0321
 5785SOL    HW220948   9.066   4.054   7.216 -0.3431  0.3919 -0.1841
 5786SOL     OW20949   3.856   5.669  10.075  0.5643  0.1703  0.1291
 5786SOL    HW120950   3.935   5.619  10.097  0.4183 -0.4090 -0.6249
 5786SOL    HW220951   3.888   5.744  10.024  0.7309  0.5642  0.8026
 5787SOL     OW20952   6.086   7.897  10.197  0.0610  0.1874  0.1649
 5787SOL    HW120953   6.098   7.952  10.119  0.8897 -2.7542 -1.9535
 5787SOL    HW220954   6.151   7.929  10.259  0.4522  1.6446 -0.9330
 5788SOL     OW20955   9.252   0.860   6.560  0.1690  0.0123 -0.0233
 5788SOL    HW120956   9.258   0.789   6.625  0.3914 -0.6540 -0.7558
 5788SOL    HW220957   9.277   0.938   6.608 -0.1970 -0.3807  0.8390
 5789SOL     OW20958   8.512   2.894   6.201  0.3729  0.3324  0.4396
 5789SOL    HW120959   8.506   2.886   6.106  0.8146  1.5044  0.2928
 5789SOL    HW220960   8.497   2.805   6.234  0.9274 -0.2251 -0.7546
 5790SOL     OW20961   8.359   2.176   8.069  0.0569  0.0214  0.3721
 5790SOL    HW120962   8.283   2.202   8.017  1.4658  1.2867 -1.2073
 5790SOL    HW220963   8.400   2.107   8.017  0.0277 -0.6337  1.1993
 5791SOL     OW20964   1.832   2.085   0.991 -0.3314  0.3497  0.3003
 5791SOL    HW120965   1.820   2.011   0.932  1.8172  0.2683 -0.1130
 5791SOL    HW220966   1.829   2.162   0.935  0.8653  0.3297  0.1951
 5792SOL     OW20967   1.000   1.274   7.906  0.2444  0.3889 -0.2605
 5792SOL    HW120968   0.980   1.364   7.881 -0.1976  0.6118  0.8320
 5792SOL    HW220969   0.920   1.242   7.947  0.0317 -0.8723 -1.5928
 5793SOL     OW20970   4.877   2.900   5.021 -0.3053  0.1850  0.0747
 5793SOL    HW120971   4.796   2.887   4.972  0.6509 -0.6585 -1.3601
 5793SOL    HW220972   4.946   2.887   4.956  0.9845  1.3399  1.1540
 5794SOL     OW20973  10.619   7.697   8.891 -0.2087  0.3008  0.2805
 5794SOL    HW120974  10.627   7.745   8.973 -0.9528  2.2466 -0.7204
 5794SOL    HW220975  10.684   7.736   8.833  1.0217 -1.7306  0.1892
 5795SOL     OW20976   1.572   4.104   4.767  0.4482 -0.2690 -0.3927
 5795SOL    HW120977   1.652   4.073   4.726  0.3810 -1.0168  0.0067
 5795SOL    HW220978   1.600   4.173   4.826  0.6831  0.0574 -0.8802
 5796SOL     OW20979  10.717   0.044   8.649 -0.0638 -0.2178 -0.4632
 5796SOL    HW120980  10.631   0.024   8.687  0.1299 -0.7269 -0.2985
 5796SOL    HW220981  10.754   0.110   8.708 -1.3485  1.8861 -1.8527
 5797SOL     OW20982   5.731   9.050   3.973 -0.0062  0.3966 -0.0348
 5797SOL    HW120983   5.640   9.074   3.989  0.7342  2.7270  1.0537
 5797SOL    HW220984   5.761   9.014   4.056 -0.1647 -1.3485 -0.6898
 5798SOL     OW20985   0.124   6.655   6.350  0.1227 -0.7373 -0.3954
 5798SOL    HW120986   0.156   6.712   6.281  2.1537 -1.8579 -0.4348
 5798SOL    HW220987   0.171   6.683   6.429  0.3923 -1.6925 -0.2060
 5799SOL     OW20988   1.819   2.375   7.045 -0.7849  0.1229 -0.3813
 5799SOL    HW120989   1.840   2.302   7.103  1.1300  0.6767 -0.3119
 5799SOL    HW220990   1.725   2.388   7.056 -1.7747 -3.9030 -2.2918
 5800SOL     OW20991   9.796   0.183   3.049  0.1155 -0.4859  0.0834
 5800SOL    HW120992   9.854   0.240   2.999 -0.7092 -0.6607 -1.1254
 5800SOL    HW220993   9.731   0.242   3.087 -0.6217 -0.5841 -1.0026
 5801SOL     OW20994   6.826   5.234   7.402 -0.4777  1.1886 -0.3778
 5801SOL    HW120995   6.819   5.322   7.441  0.1832  0.6246  1.0659
 5801SOL    HW220996   6.882   5.246   7.326  0.9230  1.7767  0.7000
 5802SOL     OW20997   2.198   0.408   5.222  0.0641  0.0063  0.5139
 5802SOL    HW120998   2.238   0.328   5.256  1.7149 -1.0261 -3.3450
 5802SOL    HW220999   2.135   0.377   5.157 -0.9231  1.8427  0.5255
 5803SOL     OW21000   4.448   4.606   1.501 -0.3507 -0.0495 -0.9177
 5803SOL    HW121001   4.383   4.536   1.511 -0.1970 -0.1327 -0.4625
 5803SOL    HW221002   4.519   4.567   1.451  0.0071 -0.4120 -0.1475
 5804SOL     OW21003   9.249  10.592   3.236 -0.6120  0.1227 -0.0409
 5804SOL    HW121004   9.255  10.637   3.320  1.3649 -0.7181  0.3258
 5804SOL    HW221005   9.184  10.524   3.249 -1.7090  1.1822  0.1940
 5805SOL     OW21006   0.174   5.350   8.659 -0.2426  0.3726  0.7117
 5805SOL    HW121007   0.114   5.362   8.732 -0.1524 -1.4360  1.1299
 5805SOL    HW221008   0.236   5.284   8.689 -0.5883 -0.9129 -1.2185
 5806SOL     OW21009   0.301   8.292   3.646 -0.3205 -0.4162  0.4634
 5806SOL    HW121010   0.310   8.204   3.608  2.5264  0.7971 -2.0551
 5806SOL    HW221011   0.214   8.292   3.685 -2.1684 -3.0867 -3.0132
 5807SOL     OW21012   2.448   4.219   8.393  0.0409  0.2253  0.2167
 5807SOL    HW121013   2.452   4.134   8.348 -0.4877  1.3607 -2.1124
 5807SOL    HW221014   2.355   4.233   8.407  0.0428  0.8901 -0.3959
 5808SOL     OW21015   5.656   8.947   9.560 -0.2700  0.4659  0.0047
 5808SOL    HW121016   5.580   9.000   9.587  0.7940  2.5048 -0.7647
 5808SOL    HW221017   5.711   8.942   9.638 -0.5747  0.1145  0.1988
 5809SOL     OW21018  10.645   6.597   6.859  0.2544  0.4698  0.3955
 5809SOL    HW121019  10.580   6.615   6.927 -0.6073 -0.0561 -0.2619
 5809SOL    HW221020  10.666   6.504   6.870  1.3290  0.7675  0.9579
 5810SOL     OW21021   6.937   3.770   9.456  0.1607 -0.9688  0.6118
 5810SOL    HW121022   6.929   3.793   9.363  2.6148 -0.8470  0.3768
 5810SOL    HW221023   6.854   3.799   9.494 -0.8793 -0.9436 -1.5043
 5811SOL     OW21024   4.661   4.766  10.202 -0.0859 -0.2241  0.6107
 5811SOL    HW121025   4.568   4.771  10.223  0.0965 -0.3376  1.4947
 5811SOL    HW221026   4.705   4.800  10.280  0.5880  0.6587 -0.1300
 5812SOL     OW21027   5.585   3.246   2.197  0.1631 -0.4294 -0.1304
 5812SOL    HW121028   5.500   3.233   2.240  0.2985 -0.6020  0.0834
 5812SOL    HW221029   5.605   3.338   2.212 -0.4222 -0.1412 -0.9749
 5813SOL     OW21030   1.908   4.370   1.593 -0.3983 -0.3070  0.0364
 5813SOL    HW121031   1.975   4.422   1.550  0.0567 -2.4453 -2.0389
 5813SOL    HW221032   1.828   4.421   1.583  0.4271  1.1109  0.3118
 5814SOL     OW21033   6.449   3.569   8.071  0.6463 -0.1195  0.1772
 5814SOL    HW121034   6.381   3.636   8.067 -1.3899 -1.9737  1.6336
 5814SOL    HW221035   6.521   3.611   8.119  0.3610  1.6921 -0.8990
 5815SOL     OW21036   7.433   7.999   3.924 -0.3020  0.3159 -0.3388
 5815SOL    HW121037   7.430   7.970   3.832 -1.3985 -0.6189 -0.0309
 5815SOL    HW221038   7.448   7.918   3.973 -0.6600  0.6737  0.3681
 5816SOL     OW21039   4.718   2.606   7.445  0.1263 -0.4835  0.0633
 5816SOL    HW121040   4.624   2.610   7.463  0.2324 -1.5992  1.0492
 5816SOL    HW221041   4.758   2.604   7.532  1.3279  3.4393 -0.2052
 5817SOL     OW21042   9.879   8.378   6.589  0.7504  0.2720 -0.2355
 5817SOL    HW121043   9.891   8.473   6.580  1.2370  0.1420 -1.0403
 5817SOL    HW221044   9.866   8.347   6.499 -0.6416 -0.2717  0.1253
 5818SOL     OW21045   5.542   4.327   5.130  0.4454 -0.2157 -0.7257
 5818SOL    HW121046   5.632   4.346   5.104 -0.1679  1.9534 -1.4480
 5818SOL    HW221047   5.545   4.325   5.225  1.5221 -1.8243 -0.7467
 5819SOL     OW21048   8.432  10.307   4.309 -0.3141  0.0046 -0.0964
 5819SOL    HW121049   8.479  10.288   4.228 -1.6141 -0.2886 -0.8033
 5819SOL    HW221050   8.481  10.261   4.377 -0.8341 -2.2156 -1.1251
 5820SOL     OW21051   2.116  10.375   3.577  0.3040 -0.5097 -0.2473
 5820SOL    HW121052   2.034  10.327   3.588 -1.2486  0.7279 -4.4244
 5820SOL    HW221053   2.101  10.457   3.623  1.3282 -2.1411  3.2919
 5821SOL     OW21054  10.008   3.815   0.863  0.1350  0.0790 -0.2316
 5821SOL    HW121055   9.980   3.856   0.945  1.5722 -0.4823  0.5734
 5821SOL    HW221056  10.016   3.721   0.885  1.6858  0.0826 -0.6376
 5822SOL     OW21057   7.735   3.172   7.508  0.0300  0.7361 -0.2168
 5822SOL    HW121058   7.679   3.099   7.484  1.0778 -0.2932  0.3497
 5822SOL    HW221059   7.707   3.243   7.451 -2.1137  0.4135  0.3373
 5823SOL     OW21060   0.522   7.832   5.920 -0.0022  0.0071  0.2586
 5823SOL    HW121061   0.467   7.761   5.953 -1.0349  0.6853  0.0158
 5823SOL    HW221062   0.589   7.844   5.988 -1.2023  0.3697  1.4144
 5824SOL     OW21063   6.890   2.891   2.434 -0.1265 -0.2631 -0.0847
 5824SOL    HW121064   6.835   2.848   2.499  0.7984  0.3620  1.1641
 5824SOL    HW221065   6.888   2.833   2.358 -0.6173 -1.4116  0.7744
 5825SOL     OW21066   0.606  10.331   1.297 -0.1584 -0.1026 -0.4328
 5825SOL    HW121067   0.596  10.368   1.384  0.9428 -0.1977 -0.2484
 5825SOL    HW221068   0.537  10.265   1.291 -1.5242  1.2653 -0.4078
 5826SOL     OW21069   3.443   8.195   1.531  0.3150  0.5458  0.0933
 5826SOL    HW121070   3.434   8.116   1.477  1.0798  1.6856 -1.8363
 5826SOL    HW221071   3.365   8.246   1.511  1.4075  1.7463 -1.3877
 5827SOL     OW21072   8.963   7.583   4.223  0.1770  0.3388 -0.7310
 5827SOL    HW121073   8.969   7.525   4.147  1.1928 -0.2998 -0.1906
 5827SOL    HW221074   9.008   7.663   4.195 -0.3665  0.5051 -1.1465
 5828SOL     OW21075   1.919   8.731   0.407  0.2742 -0.3311  0.1103
 5828SOL    HW121076   2.007   8.741   0.442  0.2441  0.5042 -0.0437
 5828SOL    HW221077   1.927   8.660   0.342  0.4505 -1.4565  1.3209
 5829SOL     OW21078   7.607   6.067  10.430 -0.0539  0.1231 -0.0115
 5829SOL    HW121079   7.518   6.088  10.402 -0.1344 -0.1396  0.0388
 5829SOL    HW221080   7.659   6.070  10.350  0.0900  1.2861  0.1147
 5830SOL     OW21081   8.401   5.596  10.467  0.1877  0.2365  0.4075
 5830SOL    HW121082   8.480   5.613  10.416  0.2849  1.8413  1.0165
 5830SOL    HW221083   8.370   5.684  10.492 -1.3623 -0.3966  0.8060
 5831SOL     OW21084   4.424   8.860   2.320  0.3735 -0.3625 -0.4904
 5831SOL    HW121085   4.351   8.876   2.261 -0.5121 -0.0322  0.6585
 5831SOL    HW221086   4.406   8.774   2.359 -1.0671  0.9426  2.0203
 5832SOL     OW21087   3.192   1.800   9.161 -0.8539 -0.0339 -0.3876
 5832SOL    HW121088   3.119   1.821   9.102  0.5631  1.9373 -1.5648
 5832SOL    HW221089   3.270   1.810   9.107  0.3630 -1.6219  0.9590
 5833SOL     OW21090   6.610   8.673   6.915 -0.6049 -0.5938 -0.1941
 5833SOL    HW121091   6.575   8.762   6.909  0.3677 -0.2628 -1.4794
 5833SOL    HW221092   6.623   8.646   6.825 -0.9915 -2.1093  0.1737
 5834SOL     OW21093   4.887   1.833   9.521 -0.0337  0.0983  0.2539
 5834SOL    HW121094   4.981   1.841   9.505  0.2668  0.2903  1.9664
 5834SOL    HW221095   4.854   1.922   9.511  0.4459  0.5541  2.2438
 5835SOL     OW21096   8.987   4.528   4.631  0.2518 -0.0017 -0.1767
 5835SOL    HW121097   9.011   4.612   4.672  1.6689 -1.1178  1.4527
 5835SOL    HW221098   8.895   4.538   4.608  0.3172  1.9135  0.1712
 5836SOL     OW21099   6.439   7.283   3.744 -0.2722  0.0262 -0.1062
 5836SOL    HW121100   6.433   7.220   3.816 -0.9048  0.4290  0.2000
 5836SOL    HW221101   6.507   7.344   3.771 -1.4648  0.9999  0.8237
 5837SOL     OW21102   6.928   7.748   3.830 -0.0787 -0.3740  0.0210
 5837SOL    HW121103   6.994   7.759   3.760 -0.7402  0.8549 -0.4420
 5837SOL    HW221104   6.872   7.677   3.798 -1.4064  1.2834 -1.5959
 5838SOL     OW21105   6.189   9.614   5.502 -0.0244 -0.0320  0.1645
 5838SOL    HW121106   6.129   9.673   5.547 -0.7302  1.5693 -2.6135
 5838SOL    HW221107   6.266   9.668   5.483  1.1326 -1.2528  1.1815
 5839SOL     OW21108   4.078   8.331   1.455  0.2437  0.1596  0.3115
 5839SOL    HW121109   4.079   8.418   1.414 -2.5299 -0.6466 -1.7382
 5839SOL    HW221110   4.031   8.344   1.537  0.8947  0.7645  0.6066
 5840SOL     OW21111   0.770   1.144   8.015 -0.2066  0.1116  0.4314
 5840SOL    HW121112   0.702   1.103   7.962  0.3286  1.7117 -1.6270
 5840SOL    HW221113   0.724   1.173   8.094 -1.9040  0.9219 -0.7807
 5841SOL     OW21114   9.626   8.794   4.445  0.4013 -0.1132  0.1770
 5841SOL    HW121115   9.630   8.705   4.411  1.3613 -0.3868  0.9414
 5841SOL    HW221116   9.718   8.818   4.459  0.0968 -0.3017  3.1720
 5842SOL     OW21117   8.571   7.578   0.894  0.3708  0.3870 -0.0316
 5842SOL    HW121118   8.642   7.616   0.843 -0.0507 -0.1271 -1.0409
 5842SOL    HW221119   8.563   7.633   0.971  0.7950  1.4014 -0.7033
 5843SOL     OW21120   5.024   5.112   8.023  0.3729 -0.1450  1.0156
 5843SOL    HW121121   4.973   5.034   8.000  0.1024 -0.6835  3.2379
 5843SOL    HW221122   5.107   5.079   8.055  1.8910  0.7044 -1.6925
 5844SOL     OW21123   4.936   4.474   4.037 -0.2997  0.4708 -0.6983
 5844SOL    HW121124   4.884   4.500   4.113 -0.5422 -0.0748 -0.6720
 5844SOL    HW221125   4.907   4.385   4.017  0.2455  0.3554 -1.0119
 5845SOL     OW21126   8.557   4.725   6.704 -0.2931 -0.5748  0.2531
 5845SOL    HW121127   8.601   4.753   6.624  0.6889 -0.4726  0.8068
 5845SOL    HW221128   8.629   4.706   6.765 -0.9989 -1.4104  0.8543
 5846SOL     OW21129   4.010   4.124   4.934 -0.7653 -0.6089 -0.3209
 5846SOL    HW121130   4.034   4.111   4.842 -0.2813  0.2674 -0.3286
 5846SOL    HW221131   3.964   4.207   4.935 -0.1620 -0.2686  0.3271
 5847SOL     OW21132   3.467   4.221   3.560 -0.0551  0.0391  0.0713
 5847SOL    HW121133   3.509   4.301   3.529 -0.2990 -0.9461 -3.1627
 5847SOL    HW221134   3.495   4.154   3.498 -2.1519 -1.7759  0.9446
 5848SOL     OW21135   8.882  10.500   1.626  0.0130 -0.0921 -0.3610
 5848SOL    HW121136   8.932  10.514   1.706 -0.6828 -0.9857  0.2522
 5848SOL    HW221137   8.870  10.405   1.622  1.1131 -0.2026 -2.1913
 5849SOL     OW21138   5.795   3.382   9.562 -0.3151 -0.2147  0.2234
 5849SOL    HW121139   5.815   3.298   9.605  1.2099  0.2289  0.4359
 5849SOL    HW221140   5.875   3.433   9.572 -0.9612  0.9881 -0.6000
 5850SOL     OW21141   5.988  10.861   6.186 -0.3283 -0.1806  0.0700
 5850SOL    HW121142   6.007  10.771   6.210 -0.0365 -0.0549  0.3211
 5850SOL    HW221143   5.975  10.906   6.270  3.4987  0.9006  0.2743
 5851SOL     OW21144   8.118   3.913   7.942 -0.2591 -0.2149  0.3093
 5851SOL    HW121145   8.128   3.838   8.000 -0.1676  1.0656  2.0098
 5851SOL    HW221146   8.136   3.877   7.854 -0.2839 -2.1674  1.0472
 5852SOL     OW21147   5.686   5.975  10.339 -0.0446 -0.2825 -0.4482
 5852SOL    HW121148   5.651   5.924  10.412  1.3572 -0.4006  0.1591
 5852SOL    HW221149   5.631   5.951  10.265 -0.6437 -1.1787  0.2707
 5853SOL     OW21150   8.430   7.916  10.361 -0.0667 -0.2372  0.2759
 5853SOL    HW121151   8.420   7.904  10.455 -0.0818 -0.3004  0.2658
 5853SOL    HW221152   8.481   7.997  10.354 -0.5322  0.0649  0.3255
 5854SOL     OW21153   3.182   2.095   7.456  0.0270 -0.5123 -0.1678
 5854SOL    HW121154   3.189   2.174   7.511  0.2339 -0.6366 -0.0139
 5854SOL    HW221155   3.215   2.025   7.512 -0.9610 -0.8513  0.0050
 5855SOL     OW21156   6.281   8.765   0.613  0.1350 -0.7162 -0.1047
 5855SOL    HW121157   6.274   8.682   0.661 -2.4716  0.2642  1.4331
 5855SOL    HW221158   6.345   8.747   0.545 -0.9263 -4.2812 -0.4056
 5856SOL     OW21159   0.498   5.473   5.820 -0.3650 -0.0142  0.3087
 5856SOL    HW121160   0.423   5.501   5.872  0.1547  1.2736  0.3888
 5856SOL    HW221161   0.482   5.508   5.733  0.5034  0.9483  0.5187
 5857SOL     OW21162   4.649   1.443   1.661 -0.3129 -0.8741 -0.0446
 5857SOL    HW121163   4.674   1.414   1.749 -1.0847 -0.5755  0.2885
 5857SOL    HW221164   4.604   1.367   1.623 -1.8850 -0.3300  0.6387
 5858SOL     OW21165   9.767   7.082   3.931  0.1593 -0.2852  0.3214
 5858SOL    HW121166   9.862   7.089   3.924 -0.0171  1.3001 -1.2342
 5858SOL    HW221167   9.741   7.032   3.854 -0.4206  1.6586 -0.8375
 5859SOL     OW21168   7.322   9.993  10.428 -0.3143  0.9398 -0.4978
 5859SOL    HW121169   7.304   9.902  10.453 -0.4406  0.8523 -0.9016
 5859SOL    HW221170   7.402  10.016  10.475 -1.2472  1.2053  1.0187
 5860SOL     OW21171  10.168   5.074   4.355  0.2999 -0.0417  0.2015
 5860SOL    HW121172  10.158   5.112   4.443 -0.7707 -1.4222  0.7333
 5860SOL    HW221173  10.133   4.985   4.365  1.4338 -0.6756 -1.3090
 5861SOL     OW21174   7.269   2.472   6.387  0.4078 -0.1490  0.0623
 5861SOL    HW121175   7.271   2.568   6.388 -0.7160 -0.1070 -0.5853
 5861SOL    HW221176   7.220   2.450   6.308 -3.9158 -1.1412  2.6788
 5862SOL     OW21177   7.532   8.228   5.761 -0.0078 -0.5880 -0.4144
 5862SOL    HW121178   7.497   8.317   5.762 -0.4750 -0.7288  1.9916
 5862SOL    HW221179   7.627   8.239   5.760 -0.0348  0.0100  1.1411
 5863SOL     OW21180   9.181   2.025   1.625  0.0176 -0.4168 -0.2926
 5863SOL    HW121181   9.265   1.985   1.647 -0.9163 -2.2823  0.0111
 5863SOL    HW221182   9.205   2.098   1.567  1.8956 -0.3055  0.5343
 5864SOL     OW21183   5.539   8.152   6.270  0.5155 -1.1015  0.2973
 5864SOL    HW121184   5.480   8.227   6.281  2.1127  0.5415 -1.3756
 5864SOL    HW221185   5.548   8.144   6.175  1.7856 -2.2795  0.4938
 5865SOL     OW21186  10.100   1.362   1.538  0.0102  0.4758  0.5727
 5865SOL    HW121187  10.122   1.271   1.558  2.2945  1.2174  1.8999
 5865SOL    HW221188  10.115   1.409   1.620 -1.5717  1.9991  0.0430
 5866SOL     OW21189   4.059   0.306   2.595  0.3239 -0.0981  0.7467
 5866SOL    HW121190   4.073   0.249   2.519  1.1396 -0.2420  0.9981
 5866SOL    HW221191   4.002   0.375   2.563  1.9658  0.7581 -0.4429
 5867SOL     OW21192   2.411   6.593   5.066 -0.0291 -0.2582 -0.0594
 5867SOL    HW121193   2.441   6.667   5.118  0.9625  0.4487 -1.5733
 5867SOL    HW221194   2.338   6.556   5.116  0.1862  1.0392  1.2658
 5868SOL     OW21195   9.024   4.705   7.731  0.2312  0.3339  0.1008
 5868SOL    HW121196   8.970   4.783   7.718 -0.0585  0.1523  0.1859
 5868SOL    HW221197   8.966   4.643   7.777  1.0960  0.8086  1.9178
 5869SOL     OW21198   7.726   5.360   8.387 -0.0843 -0.3337 -0.0763
 5869SOL    HW121199   7.771   5.444   8.378  0.7922 -0.7598  0.2496
 5869SOL    HW221200   7.633   5.383   8.386  0.1260  0.8361  1.8109
 5870SOL     OW21201   7.152   5.017   9.717  0.4257 -0.5222  0.3058
 5870SOL    HW121202   7.139   4.962   9.640  1.0660 -1.9193  1.1618
 5870SOL    HW221203   7.239   5.054   9.706  0.7174 -1.1208  0.6007
 5871SOL     OW21204   6.371   3.348   2.959  0.2546 -0.2297  0.3168
 5871SOL    HW121205   6.454   3.307   2.933  0.1146  0.8731 -2.1787
 5871SOL    HW221206   6.390   3.441   2.960 -0.5833 -0.0517  1.3792
 5872SOL     OW21207   8.714   5.802   5.743 -0.0139  0.7017 -0.3170
 5872SOL    HW121208   8.689   5.846   5.824  2.1813  0.8912  0.3256
 5872SOL    HW221209   8.765   5.727   5.771  0.0876  0.3035 -1.5148
 5873SOL     OW21210   7.659   0.245   8.199 -0.1659 -1.0051 -0.1421
 5873SOL    HW121211   7.650   0.149   8.198  1.6966 -1.2931 -3.3956
 5873SOL    HW221212   7.742   0.261   8.153 -0.8555  2.2135 -0.4552
 5874SOL     OW21213   9.860   5.167   3.722  0.1534 -0.4821 -0.0190
 5874SOL    HW121214   9.888   5.149   3.633  0.1088  0.5345 -0.2455
 5874SOL    HW221215   9.930   5.220   3.760  0.1979 -0.9491  0.5657
 5875SOL     OW21216  10.023   1.130  10.621 -0.0860  0.3503 -0.0169
 5875SOL    HW121217   9.932   1.102  10.614  0.2669 -1.7021  2.3058
 5875SOL    HW221218  10.025   1.184  10.700  0.8233 -0.1955  0.3425
 5876SOL     OW21219   6.648   6.237   5.014 -0.5754 -0.0902 -0.3524
 5876SOL    HW121220   6.574   6.296   5.031  0.4573  0.9347  0.8660
 5876SOL    HW221221   6.722   6.296   4.997  0.0781 -1.0829 -1.0470
 5877SOL     OW21222   7.643  10.550   3.428 -0.3461 -0.3616  0.1034
 5877SOL    HW121223   7.735  10.544   3.402  0.1282 -0.4157  1.6812
 5877SOL    HW221224   7.626  10.468   3.475 -1.1928 -0.3275 -0.1258
 5878SOL     OW21225   0.280   1.925   3.106 -0.3125  0.3244 -0.0606
 5878SOL    HW121226   0.371   1.953   3.093 -0.4332  0.6416 -0.2427
 5878SOL    HW221227   0.258   1.876   3.027 -0.2426  0.0943  0.0626
 5879SOL     OW21228   8.153   0.294   8.742 -0.6906  0.0632  0.8626
 5879SOL    HW121229   8.098   0.371   8.756 -0.0969  0.5929  0.3388
 5879SOL    HW221230   8.092   0.221   8.740 -1.2919  0.5537  1.0760
 5880SOL     OW21231   3.602   6.469   1.915  0.1651  0.3027  0.2215
 5880SOL    HW121232   3.626   6.377   1.902  0.5614  0.6000 -1.4353
 5880SOL    HW221233   3.626   6.488   2.006 -1.6826 -1.7128  1.2248
 5881SOL     OW21234   8.984   2.573   1.350 -0.1455 -0.0361 -0.1084
 5881SOL    HW121235   8.926   2.519   1.296  0.2766  0.4173 -1.0307
 5881SOL    HW221236   9.072   2.547   1.324  0.0643  0.2290  0.3279
 5882SOL     OW21237   1.387   1.982   6.141 -0.1768  0.0447 -0.0618
 5882SOL    HW121238   1.363   2.047   6.075  1.0592  0.7170  0.1189
 5882SOL    HW221239   1.362   2.022   6.225  0.6629  0.3373  0.0550
 5883SOL     OW21240   0.396   9.338   0.620 -0.0475 -0.4770  0.8703
 5883SOL    HW121241   0.395   9.243   0.628  3.4922 -1.0562 -2.5318
 5883SOL    HW221242   0.476   9.365   0.667 -0.6301  0.7359  1.2081
 5884SOL     OW21243   5.393   2.826   7.649  0.3168 -0.5890 -0.1129
 5884SOL    HW121244   5.414   2.917   7.672  0.8536 -0.8451  0.4281
 5884SOL    HW221245   5.451   2.806   7.576  0.5372 -0.6495  0.0785
 5885SOL     OW21246   3.004   1.343   3.973 -0.1139 -0.4769 -0.5226
 5885SOL    HW121247   3.046   1.275   3.920 -0.1056 -0.6856 -0.2539
 5885SOL    HW221248   2.915   1.349   3.938 -0.6589 -1.8352  0.5367
 5886SOL     OW21249   9.776   6.265  10.542 -0.3425 -0.0985 -0.0020
 5886SOL    HW121250   9.704   6.206  10.566 -0.0835 -0.6716 -0.5832
 5886SOL    HW221251   9.746   6.352  10.568 -0.7113 -0.4940  0.9130
 5887SOL     OW21252   4.454   3.311   2.907  0.4945  0.0403  0.7861
 5887SOL    HW121253   4.388   3.367   2.948  1.7850  0.6215  2.1938
 5887SOL    HW221254   4.497   3.267   2.981  3.0052  1.1951  0.1279
 5888SOL     OW21255   9.888   8.264  11.045  0.8156 -0.0701 -0.4500
 5888SOL    HW121256   9.959   8.296  10.990  0.4510  0.2930 -0.7103
 5888SOL    HW221257   9.905   8.301  11.131  0.4592  0.7354 -0.7204
 5889SOL     OW21258   2.687  10.117   0.866 -0.3338  0.5018 -0.7204
 5889SOL    HW121259   2.743  10.182   0.907  1.1271 -2.1215  1.8130
 5889SOL    HW221260   2.744  10.071   0.804 -0.1563 -0.9160  0.4475
 5890SOL     OW21261   5.412   1.133   4.960  0.2965  0.3538 -0.2542
 5890SOL    HW121262   5.348   1.098   4.897  0.1196  1.7139 -0.8622
 5890SOL    HW221263   5.477   1.063   4.969 -1.2046 -1.0293  0.3108
 5891SOL     OW21264   3.777   8.116   9.152  0.2259  0.3643  0.1776
 5891SOL    HW121265   3.687   8.086   9.163  0.2514  0.4500  0.6683
 5891SOL    HW221266   3.823   8.084   9.230  0.7517 -0.1474 -0.3222
 5892SOL     OW21267   5.901   7.235   9.103  0.1694  0.2312 -0.8590
 5892SOL    HW121268   5.892   7.326   9.077  0.4531  0.4627 -0.1652
 5892SOL    HW221269   5.853   7.186   9.036 -1.8187  1.0248 -0.0732
 5893SOL     OW21270   1.570   8.332   4.607 -0.0469  0.4863 -0.3596
 5893SOL    HW121271   1.572   8.426   4.587 -0.1282  0.6666  0.4348
 5893SOL    HW221272   1.518   8.293   4.537  0.0071  1.0312 -0.7065
 5894SOL     OW21273   9.773   3.557   0.645 -0.2799  0.4975  1.2592
 5894SOL    HW121274   9.842   3.566   0.579 -1.3935 -0.1017 -0.0478
 5894SOL    HW221275   9.725   3.639   0.640 -1.8238 -0.4304 -0.4736
 5895SOL     OW21276   3.484   5.945   6.288 -0.5388 -0.0679 -0.1554
 5895SOL    HW121277   3.404   5.952   6.339  0.3652 -0.4773  1.3667
 5895SOL    HW221278   3.500   5.851   6.279  0.0180  0.0087 -0.0357
 5896SOL     OW21279   5.725  10.126   5.829  0.0716  0.0540  0.0068
 5896SOL    HW121280   5.708  10.207   5.782 -0.1061  0.0360  0.0408
 5896SOL    HW221281   5.675  10.134   5.910  0.6563  0.2434  0.3592
 5897SOL     OW21282   0.651   7.126   3.734  0.1897 -0.3388  0.4158
 5897SOL    HW121283   0.710   7.053   3.748  0.6397 -0.1656 -0.4936
 5897SOL    HW221284   0.703   7.204   3.753  1.5217  0.0632 -3.8137
 5898SOL     OW21285   1.106   7.705  11.012 -0.0616  0.1986  0.1167
 5898SOL    HW121286   1.039   7.773  11.017 -0.6881 -0.4311  0.4329
 5898SOL    HW221287   1.077   7.638  11.074 -0.4109 -1.1705 -1.4459
 5899SOL     OW21288   0.206   4.546   7.624  0.5927  0.3170  0.1230
 5899SOL    HW121289   0.283   4.526   7.570  1.5460 -0.7746  1.7993
 5899SOL    HW221290   0.138   4.486   7.593  1.7273 -1.7183  1.3453
 5900SOL     OW21291   7.730   5.296   3.684  0.2566 -0.1741  0.4248
 5900SOL    HW121292   7.745   5.391   3.683 -0.7189  0.0335 -1.7479
 5900SOL    HW221293   7.635   5.287   3.674  0.5261 -1.3310 -1.6902
 5901SOL     OW21294   9.706  10.913   6.785  0.1015  0.5109  0.2199
 5901SOL    HW121295   9.703  10.911   6.881  0.0846  1.5390  0.2517
 5901SOL    HW221296   9.795  10.883   6.763  0.4849  1.3411  0.6079
 5902SOL     OW21297   6.421   2.444   9.033  0.1302  0.2792  0.1133
 5902SOL    HW121298   6.432   2.350   9.048  0.0292  0.1630 -0.4820
 5902SOL    HW221299   6.509   2.480   9.041  0.0633  0.2475  1.0471
 5903SOL     OW21300   1.650   4.014   9.766  0.5964  0.4448  0.1655
 5903SOL    HW121301   1.634   4.100   9.806 -0.2694  0.7482 -0.7783
 5903SOL    HW221302   1.745   4.010   9.754  0.8263  0.5364  1.7852
 5904SOL     OW21303   9.395   8.486   3.630  0.0386  0.0768 -0.1231
 5904SOL    HW121304   9.349   8.454   3.552 -1.2271 -1.8651  1.3152
 5904SOL    HW221305   9.348   8.447   3.703  2.3268  0.2927  1.5743
 5905SOL     OW21306   5.237   0.979   0.334  0.5429 -0.0909 -0.4266
 5905SOL    HW121307   5.258   0.899   0.382  4.0760  1.2471  0.5701
 5905SOL    HW221308   5.227   1.046   0.402 -1.7129  0.5218 -1.2698
 5906SOL     OW21309  10.048   5.931   5.092 -0.4531 -0.2739  0.1107
 5906SOL    HW121310  10.005   6.012   5.119  1.2391  0.1261  1.8015
 5906SOL    HW221311  10.096   5.954   5.012 -0.1550  0.3406  0.4608
 5907SOL     OW21312   6.931   3.537   9.170 -0.0216  0.2331 -0.5402
 5907SOL    HW121313   6.866   3.606   9.180 -0.5171 -0.4011  0.7859
 5907SOL    HW221314   6.955   3.514   9.259 -0.3380 -1.7473 -0.9318
 5908SOL     OW21315   8.718   5.424   3.214 -0.3158 -0.3682 -0.6914
 5908SOL    HW121316   8.803   5.391   3.184 -0.0603 -0.2771 -0.0942
 5908SOL    HW221317   8.658   5.405   3.143  0.2465 -0.2705 -1.1998
 5909SOL     OW21318   0.680   2.383   2.087 -0.3170 -0.1782  0.1337
 5909SOL    HW121319   0.720   2.414   2.006  1.6581 -0.5668  0.9046
 5909SOL    HW221320   0.632   2.304   2.062 -0.2594  0.0670 -0.7716
 5910SOL     OW21321   5.033   6.910   7.837  0.2284 -0.3714 -0.1399
 5910SOL    HW121322   5.124   6.892   7.813 -0.0714 -3.6803  0.7142
 5910SOL    HW221323   5.036   6.932   7.930  0.1149 -1.1863  0.0629
 5911SOL     OW21324   8.691   0.811  10.678  0.1116  0.2923  0.1508
 5911SOL    HW121325   8.732   0.860  10.607 -1.0900 -0.7185 -1.3113
 5911SOL    HW221326   8.597   0.830  10.669 -0.0880 -0.1018  1.2707
 5912SOL     OW21327   6.398   1.319   8.801 -0.5697  0.6409  0.1923
 5912SOL    HW121328   6.364   1.396   8.846  0.2671  0.3449  1.3952
 5912SOL    HW221329   6.362   1.245   8.851 -0.4134  0.2693 -0.2331
 5913SOL     OW21330   5.617   2.440   0.696 -0.1085 -0.4865  0.5565
 5913SOL    HW121331   5.667   2.471   0.771  0.1886 -0.9629  0.5638
 5913SOL    HW221332   5.557   2.374   0.732 -0.5795 -0.0917  0.5102
 5914SOL     OW21333   4.126   2.111   6.452 -0.0749  0.1753  0.1096
 5914SOL    HW121334   4.171   2.193   6.431  0.7691 -0.5171 -0.9301
 5914SOL    HW221335   4.169   2.046   6.397 -0.8723 -0.9348  0.7577
 5915SOL     OW21336   6.313   4.439  10.922  0.3303 -0.2193 -0.0188
 5915SOL    HW121337   6.228   4.404  10.895  0.1172 -0.0993  0.4803
 5915SOL    HW221338   6.377   4.382  10.879  0.0170  0.2248 -1.1124
 5916SOL     OW21339   5.305   5.422   9.457 -0.0851  0.2890  0.3967
 5916SOL    HW121340   5.230   5.456   9.506 -1.0795  2.6853 -2.4431
 5916SOL    HW221341   5.347   5.501   9.422  2.4406 -1.1309  0.0383
 5917SOL     OW21342  10.599   6.730   3.117 -0.2497  0.1976 -0.1144
 5917SOL    HW121343  10.590   6.641   3.151  0.6131  0.0289 -0.2957
 5917SOL    HW221344  10.533   6.781   3.164 -3.1922 -1.1648 -2.3877
 5918SOL     OW21345   2.949   3.948   7.573  0.3039 -0.2412 -0.7598
 5918SOL    HW121346   2.875   3.890   7.589  2.0247 -2.3249  0.3433
 5918SOL    HW221347   2.989   3.915   7.493  0.0348  0.8856 -1.3699
 5919SOL     OW21348   7.864   3.332  10.803  0.0703 -0.2528  0.1604
 5919SOL    HW121349   7.953   3.301  10.790  0.6084 -0.2778  3.0746
 5919SOL    HW221350   7.810   3.254  10.792  0.7147 -0.8088  0.8101
 5920SOL     OW21351   3.690   0.217   5.731 -0.0886  0.7131  0.2876
 5920SOL    HW121352   3.623   0.159   5.766  0.7826 -0.5803 -0.0880
 5920SOL    HW221353   3.773   0.180   5.762  0.5710  0.9215 -1.1176
 5921SOL     OW21354   4.319   6.348   3.065 -0.4498 -0.7300  0.1610
 5921SOL    HW121355   4.333   6.443   3.063 -0.6518 -0.7159 -1.7195
 5921SOL    HW221356   4.338   6.324   3.156 -1.0659  1.1982  0.8610
 5922SOL     OW21357   4.415   2.560   4.631  0.2234 -1.2592  0.6999
 5922SOL    HW121358   4.510   2.557   4.629  0.3102  0.3832  0.7965
 5922SOL    HW221359   4.387   2.500   4.562  1.3861 -0.3492 -0.6114
 5923SOL     OW21360   6.082   2.515   5.822  0.0928 -0.0707  0.6195
 5923SOL    HW121361   6.099   2.442   5.881 -0.8625 -0.3670  0.5503
 5923SOL    HW221362   6.009   2.562   5.862 -0.0590  0.1689  0.0708
 5924SOL     OW21363   7.845   9.779   4.130  0.0701 -0.1851  0.1506
 5924SOL    HW121364   7.854   9.742   4.218  1.7405 -1.3100 -0.4527
 5924SOL    HW221365   7.915   9.738   4.079 -1.4554 -0.3240 -1.9794
 5925SOL     OW21366   4.237   1.317   4.858  0.2070  0.0812 -0.1293
 5925SOL    HW121367   4.313   1.260   4.876  0.8034  1.2834  1.3453
 5925SOL    HW221368   4.261   1.401   4.896 -1.8806  0.5082  0.3216
 5926SOL     OW21369   7.200   2.313   3.088 -0.3721  0.0521  0.2816
 5926SOL    HW121370   7.148   2.236   3.109  0.3125 -0.1277  1.4153
 5926SOL    HW221371   7.167   2.381   3.148  1.4823 -0.4068  1.9225
 5927SOL     OW21372   0.138   6.896   0.074 -0.3983 -0.2424 -0.4394
 5927SOL    HW121373   0.059   6.842   0.079 -1.5236  1.4212  0.7071
 5927SOL    HW221374   0.179   6.885   0.160  0.3794 -0.7067 -0.8591
 5928SOL     OW21375   2.825   2.219   0.922  0.1021  0.4736  0.2959
 5928SOL    HW121376   2.755   2.163   0.956 -0.6881  0.0996 -1.7767
 5928SOL    HW221377   2.780   2.300   0.897  0.3671  0.2024 -1.1230
 5929SOL     OW21378   8.845  10.877   0.524 -0.2748 -0.4304  0.2329
 5929SOL    HW121379   8.938  10.900   0.533 -0.0910 -0.8098 -0.6472
 5929SOL    HW221380   8.845  10.799   0.469 -1.1788  0.0749 -0.4938
 5930SOL     OW21381   1.465   1.745   4.898  0.2098  1.0310  0.2140
 5930SOL    HW121382   1.525   1.784   4.961 -0.1626  1.0603  0.5551
 5930SOL    HW221383   1.513   1.745   4.816  0.9734  0.3214  0.6464
 5931SOL     OW21384   9.356   8.332   9.672  0.2548 -0.0123  0.3377
 5931SOL    HW121385   9.335   8.295   9.758 -0.8221 -0.9231 -0.2982
 5931SOL    HW221386   9.446   8.304   9.656  0.7111  0.7464  1.4524
 5932SOL     OW21387   3.384   8.476  10.205 -0.1069  0.4111  0.8046
 5932SOL    HW121388   3.385   8.567  10.174 -0.0964  0.8576  2.0288
 5932SOL    HW221389   3.363   8.424  10.128 -0.0901  1.4530  0.0746
 5933SOL     OW21390   8.678   9.842   4.313  0.2399  0.2721  0.2554
 5933SOL    HW121391   8.694   9.788   4.236 -1.3143  0.5281 -0.2950
 5933SOL    HW221392   8.615   9.908   4.283 -0.6555  0.1700  1.8177
 5934SOL     OW21393   6.958   0.690   1.001  0.1131  0.9059 -0.7758
 5934SOL    HW121394   6.930   0.770   1.048 -0.2722  0.1293  0.3759
 5934SOL    HW221395   6.880   0.634   1.003  0.5840  0.2429 -0.9775
 5935SOL     OW21396   4.783  10.746   6.916 -0.0633 -0.3476 -0.3784
 5935SOL    HW121397   4.808  10.776   6.829  0.1950  1.1154  0.1854
 5935SOL    HW221398   4.855  10.771   6.972 -0.0308 -1.6771  0.2077
 5936SOL     OW21399   6.267   5.294   9.055  0.1356  0.7813 -0.5546
 5936SOL    HW121400   6.186   5.244   9.065  0.4115  0.3368 -0.4954
 5936SOL    HW221401   6.248   5.379   9.094 -0.6440  1.0536 -1.5151
 5937SOL     OW21402   9.202   4.185   6.483 -0.8186  0.1765  0.4105
 5937SOL    HW121403   9.290   4.215   6.462 -1.1415 -0.3459 -1.9547
 5937SOL    HW221404   9.146   4.228   6.419 -2.3090  0.4623  1.8473
 5938SOL     OW21405   7.670   5.719   4.043 -0.1346  0.5517  0.2687
 5938SOL    HW121406   7.626   5.754   4.120 -1.1842  0.4366 -0.2667
 5938SOL    HW221407   7.651   5.625   4.044  0.1076  0.4977  0.0394
 5939SOL     OW21408   5.952  10.152   2.804 -0.3980 -0.1603 -0.0478
 5939SOL    HW121409   5.889  10.083   2.783  0.2031 -0.8893  0.4561
 5939SOL    HW221410   5.965  10.200   2.722 -0.9488 -0.5502 -0.3650
 5940SOL     OW21411   1.192   6.894  10.910  0.3629  0.2703 -0.1418
 5940SOL    HW121412   1.131   6.840  10.859  0.9595 -1.2693  0.6973
 5940SOL    HW221413   1.203   6.846  10.992  0.2184  2.1635  1.0423
 5941SOL     OW21414   1.322   3.493   4.587 -0.0247 -0.1937 -0.0516
 5941SOL    HW121415   1.319   3.506   4.493  2.0479  1.3809  0.0232
 5941SOL    HW221416   1.411   3.462   4.605 -0.1268  0.2606  1.4404
 5942SOL     OW21417   4.268   5.361   5.776  0.5918  0.3302  0.6144
 5942SOL    HW121418   4.302   5.442   5.739  0.6735 -0.4507 -1.1086
 5942SOL    HW221419   4.225   5.388   5.858  2.8127  1.7265  1.3897
 5943SOL     OW21420  11.102  11.026   0.460 -0.1052 -0.6134 -0.2725
 5943SOL    HW121421  11.165  11.052   0.528  0.3243  1.5413 -1.3984
 5943SOL    HW221422  11.017  11.055   0.493  0.0093 -0.1715 -0.3659
 5944SOL     OW21423   3.029   9.380   3.422 -0.1573 -0.0951 -0.2082
 5944SOL    HW121424   3.108   9.429   3.399 -1.3278  1.8187 -0.4213
 5944SOL    HW221425   3.037   9.298   3.373  1.4539  0.2496 -0.5931
 5945SOL     OW21426   6.303   4.391   4.021  0.7775  1.0470 -0.9107
 5945SOL    HW121427   6.380   4.361   3.971  0.3490 -0.2188 -0.8449
 5945SOL    HW221428   6.251   4.312   4.034 -0.7377  1.9557 -1.2762
 5946SOL     OW21429   5.841   1.199   2.261  0.3625  0.1276 -0.4454
 5946SOL    HW121430   5.755   1.161   2.278 -0.0231  0.8174 -0.7768
 5946SOL    HW221431   5.836   1.231   2.170  1.0499 -0.0428 -0.5509
 5947SOL     OW21432   9.607   3.192   4.595  0.6361 -0.1348 -0.3753
 5947SOL    HW121433   9.587   3.281   4.567 -0.1518  0.0878  0.8496
 5947SOL    HW221434   9.547   3.137   4.544  0.7079  0.0751 -0.6907
 5948SOL     OW21435   4.561  10.082  10.224 -0.0747 -0.5126  0.2389
 5948SOL    HW121436   4.500  10.025  10.271 -0.7071 -0.6708 -0.7412
 5948SOL    HW221437   4.626  10.107  10.290 -1.2480 -0.2576  1.3268
 5949SOL     OW21438   8.316   8.946   2.063 -0.8841  0.3334 -0.5293
 5949SOL    HW121439   8.267   8.910   1.988 -1.5417  0.9579 -0.4060
 5949SOL    HW221440   8.387   8.997   2.023  0.4555 -1.5670 -0.7129
 5950SOL     OW21441   7.290   9.958   3.355  0.1641 -0.7659  0.5843
 5950SOL    HW121442   7.229  10.027   3.326  1.5117  1.3022  2.3216
 5950SOL    HW221443   7.311   9.909   3.276 -2.1449 -0.2640 -0.4214
 5951SOL     OW21444  10.559   6.480   8.347  0.2763  0.7410 -0.0093
 5951SOL    HW121445  10.529   6.551   8.291  0.1901  1.6124  1.1087
 5951SOL    HW221446  10.490   6.471   8.413  0.8679  0.4542  0.5814
 5952SOL     OW21447   8.712   5.792   2.592 -0.6660 -0.0887  0.0931
 5952SOL    HW121448   8.688   5.741   2.669 -1.0719  0.2338  0.1852
 5952SOL    HW221449   8.711   5.729   2.520 -4.2807  0.3052 -0.3759
 5953SOL     OW21450   0.271   5.807   4.562  0.2279 -0.3971 -0.1045
 5953SOL    HW121451   0.246   5.798   4.654  1.5847  0.8018  0.4201
 5953SOL    HW221452   0.214   5.876   4.527  0.2331 -0.3169  0.0466
 5954SOL     OW21453   4.979   0.408   4.826 -0.3916  0.1425 -0.0639
 5954SOL    HW121454   5.024   0.328   4.797 -1.4978 -0.9480  1.0951
 5954SOL    HW221455   5.010   0.476   4.766  2.1617 -0.7035  0.1928
 5955SOL     OW21456   7.231   6.592   0.663 -0.0907 -0.6391  0.1901
 5955SOL    HW121457   7.177   6.663   0.629 -0.4990 -0.6363  0.8435
 5955SOL    HW221458   7.275   6.629   0.739 -1.0817 -1.3658  1.1527
 5956SOL     OW21459   1.064   0.932   0.661  0.3760  0.7002  0.1286
 5956SOL    HW121460   1.026   0.917   0.748  0.7204  0.2632  0.2118
 5956SOL    HW221461   1.109   0.849   0.641  1.2184  1.1714  0.0104
 5957SOL     OW21462   9.982   0.950   4.763 -0.0087  0.1025 -0.4194
 5957SOL    HW121463   9.968   0.969   4.671 -1.2198 -0.7299 -0.4349
 5957SOL    HW221464  10.023   0.863   4.764  0.0397  0.1257 -0.1824
 5958SOL     OW21465  10.922   1.305   7.137  0.0979  0.4128 -0.3299
 5958SOL    HW121466  10.877   1.221   7.130 -1.4508  1.2931 -1.7194
 5958SOL    HW221467  11.014   1.284   7.119 -0.4448 -0.8184 -1.9328
 5959SOL     OW21468   0.454   0.944   6.188 -0.1976  0.6706  0.5648
 5959SOL    HW121469   0.518   0.873   6.184 -0.6206  0.3143 -0.1872
 5959SOL    HW221470   0.478   1.001   6.115 -1.0523  0.2399 -0.0765
 5960SOL     OW21471   2.851   4.659   1.906 -0.4510  0.6467  0.6354
 5960SOL    HW121472   2.760   4.662   1.935 -1.0895 -0.9191 -1.0666
 5960SOL    HW221473   2.902   4.672   1.987 -2.1496 -0.4646  1.9540
 5961SOL     OW21474   3.311  10.936   0.041  0.6243 -0.2568 -0.1005
 5961SOL    HW121475   3.386  10.956  -0.015 -0.8790  0.8637 -1.7858
 5961SOL    HW221476   3.235  10.966  -0.008 -0.7809  1.0468  2.6578
 5962SOL     OW21477   7.779   4.398   8.651  0.1729  0.2407  0.2990
 5962SOL    HW121478   7.746   4.488   8.657 -0.1806  0.3813 -2.4461
 5962SOL    HW221479   7.740   4.364   8.570  0.6684 -2.2476  1.0296
 5963SOL     OW21480   1.307   9.205   4.802  0.0980  0.3988 -0.5256
 5963SOL    HW121481   1.218   9.222   4.771  0.2648  0.6293 -0.8805
 5963SOL    HW221482   1.324   9.276   4.864 -0.2421 -0.0723  0.1194
 5964SOL     OW21483   3.907   8.959   4.036  0.2762 -0.6592  0.1237
 5964SOL    HW121484   3.869   9.037   3.994  0.1957 -1.4895 -1.4037
 5964SOL    HW221485   3.851   8.944   4.112  1.0409  1.4902  1.2073
 5965SOL     OW21486   5.145   7.667   6.599  0.2061  0.4738 -0.0210
 5965SOL    HW121487   5.115   7.756   6.616 -0.7688  0.0154  0.8034
 5965SOL    HW221488   5.193   7.642   6.678 -0.3189 -0.0380  0.1474
 5966SOL     OW21489   4.384   2.228   8.581 -0.1572  0.6288 -0.4233
 5966SOL    HW121490   4.297   2.261   8.604 -0.0859  0.4768  0.0908
 5966SOL    HW221491   4.444   2.278   8.637 -0.2186 -1.9534  2.2258
 5967SOL     OW21492   0.849   5.659   6.896  0.0168 -0.0771  0.0887
 5967SOL    HW121493   0.903   5.717   6.842 -1.8640  0.2035 -1.5763
 5967SOL    HW221494   0.761   5.694   6.888 -0.9362 -2.3198  0.2397
 5968SOL     OW21495  10.016   8.069   7.274  0.3394  0.1613 -0.0130
 5968SOL    HW121496  10.023   8.132   7.203 -0.8206  0.2763 -0.0412
 5968SOL    HW221497  10.011   7.984   7.230  0.0805  0.1958 -0.0492
 5969SOL     OW21498   4.160   0.452   1.141 -0.1212  0.3976 -0.6220
 5969SOL    HW121499   4.074   0.435   1.103 -0.8197  0.9024  0.6545
 5969SOL    HW221500   4.219   0.457   1.067 -0.8994 -1.5605 -1.4462
 5970SOL     OW21501   3.465   6.410   5.173 -0.1588 -0.2524  0.0079
 5970SOL    HW121502   3.473   6.436   5.082 -0.5447 -0.1840 -0.0085
 5970SOL    HW221503   3.373   6.426   5.195 -0.5891 -2.2084 -0.1958
 5971SOL     OW21504  10.629   3.473   8.365  0.0644  0.0385 -0.2833
 5971SOL    HW121505  10.693   3.490   8.434 -1.4518  2.5268  0.6558
 5971SOL    HW221506  10.667   3.511   8.286  0.5644 -0.2799 -0.2016
 5972SOL     OW21507   5.141   7.705   1.929 -0.3671  0.1209 -0.3200
 5972SOL    HW121508   5.078   7.644   1.891 -0.1305 -0.2068 -0.1902
 5972SOL    HW221509   5.134   7.783   1.874  0.5797 -0.6355 -1.5742
 5973SOL     OW21510   6.586   8.152  10.457  0.5578 -0.0357 -0.3704
 5973SOL    HW121511   6.668   8.198  10.476 -0.5746  0.9615  2.6476
 5973SOL    HW221512   6.533   8.216  10.410  0.5749  0.2427 -0.0156
 5974SOL     OW21513   1.686   8.730   2.246 -0.5691  0.0831 -0.1967
 5974SOL    HW121514   1.741   8.657   2.221  0.1525  0.3374  0.5947
 5974SOL    HW221515   1.598   8.704   2.219 -0.1524 -0.5637 -0.9748
 5975SOL     OW21516   3.343   3.079   6.135  0.2423 -0.4633 -0.2706
 5975SOL    HW121517   3.399   3.001   6.141 -0.5197 -1.0000  0.1031
 5975SOL    HW221518   3.304   3.086   6.222  1.2467  1.0794  0.0947
 5976SOL     OW21519   3.364   1.091   3.935 -0.1852  0.2700 -0.0570
 5976SOL    HW121520   3.446   1.089   3.986 -0.9240 -0.1599  1.1443
 5976SOL    HW221521   3.296   1.072   3.998 -1.2914  1.1541 -0.9449
 5977SOL     OW21522   0.218   8.728  10.431  0.3050  0.2844  0.1678
 5977SOL    HW121523   0.269   8.787  10.486  0.4346  0.2813  0.0498
 5977SOL    HW221524   0.169   8.674  10.493  0.8427 -0.0666  0.2875
 5978SOL     OW21525   6.135   4.647   0.810 -0.4249 -0.0943 -0.1478
 5978SOL    HW121526   6.057   4.591   0.802 -0.6157  0.2229 -0.5492
 5978SOL    HW221527   6.100   4.736   0.803  0.0703  0.0321 -1.1728
 5979SOL     OW21528   9.592   9.318   2.924  0.3115 -0.2085 -0.2478
 5979SOL    HW121529   9.521   9.373   2.891 -0.9754 -0.3775  2.0383
 5979SOL    HW221530   9.586   9.326   3.019  1.9197 -2.0600  0.0636
 5980SOL     OW21531   5.108   9.326   5.809  0.0522  0.3619  0.1873
 5980SOL    HW121532   5.039   9.372   5.761 -0.7449  0.3466  1.2895
 5980SOL    HW221533   5.063   9.259   5.859  1.2056 -1.6850 -1.3633
 5981SOL     OW21534  10.788   4.288   3.705  0.2223  0.1302  0.4396
 5981SOL    HW121535  10.872   4.306   3.662  0.9467 -0.6400  1.4965
 5981SOL    HW221536  10.783   4.352   3.776 -0.8017  1.1551 -0.5094
 5982SOL     OW21537   6.821   2.584   5.479 -0.0607 -0.2461  0.5444
 5982SOL    HW121538   6.815   2.621   5.567 -1.2867 -1.4119  0.9855
 5982SOL    HW221539   6.781   2.650   5.423 -0.4535 -0.0460  1.0507
 5983SOL     OW21540   4.948   7.414   6.430  0.6530 -0.2042 -0.5677
 5983SOL    HW121541   4.957   7.349   6.361  1.3558  1.6102 -2.2578
 5983SOL    HW221542   4.869   7.388   6.477  1.2240 -2.5695 -0.8187
 5984SOL     OW21543   8.121   7.973   0.165  0.6172 -0.0842 -0.5773
 5984SOL    HW121544   8.034   7.960   0.128  1.1212  2.0114 -2.7519
 5984SOL    HW221545   8.114   8.055   0.215  1.0572 -0.5907  0.3448
 5985SOL     OW21546   4.993   1.097  10.682  0.4939  0.1132 -0.0677
 5985SOL    HW121547   4.911   1.145  10.694  1.0156  0.6431  1.7052
 5985SOL    HW221548   4.986   1.059  10.594 -1.2588  0.8677 -0.2993
 5986SOL     OW21549   3.462   3.517   8.250 -0.1559  0.0373  0.0303
 5986SOL    HW121550   3.475   3.472   8.333 -1.4524 -0.1751  0.1520
 5986SOL    HW221551   3.515   3.468   8.187  1.6984  0.8526  0.8930
 5987SOL     OW21552   3.811   6.631   0.434  0.0276  0.2978 -0.1532
 5987SOL    HW121553   3.824   6.586   0.351  0.4840 -0.3679  0.2701
 5987SOL    HW221554   3.769   6.714   0.410 -0.3432 -0.1219 -0.9883
 5988SOL     OW21555   1.059   5.624   0.102 -0.3794 -0.3459 -0.0489
 5988SOL    HW121556   1.020   5.540   0.126  1.2161 -1.6306 -1.6115
 5988SOL    HW221557   1.028   5.640   0.013 -0.6866  0.7775  0.2369
 5989SOL     OW21558   5.789   9.428   6.300  0.3768 -0.0201 -0.1852
 5989SOL    HW121559   5.721   9.370   6.267 -1.8240  1.7612  0.9828
 5989SOL    HW221560   5.749   9.474   6.373  2.8839  1.0738  0.6256
 5990SOL     OW21561   1.808   7.596   7.265  0.0753  0.1293  0.0007
 5990SOL    HW121562   1.875   7.664   7.254 -1.5611  1.5065 -2.0183
 5990SOL    HW221563   1.837   7.524   7.210  0.3273  0.3692 -0.1812
 5991SOL     OW21564   4.960   2.860   4.356  0.4626 -0.6269 -0.7479
 5991SOL    HW121565   4.920   2.790   4.305 -0.8555 -0.5255  0.1204
 5991SOL    HW221566   4.887   2.915   4.383  1.2781  0.0493  0.1406
 5992SOL     OW21567  10.547   2.675   1.689 -0.1121 -1.0352 -0.4588
 5992SOL    HW121568  10.564   2.595   1.639  0.6338 -0.3456 -1.3375
 5992SOL    HW221569  10.490   2.727   1.633  0.0497 -0.6076 -0.2320
 5993SOL     OW21570   8.887   9.801   2.013 -0.3543  0.0936 -0.3604
 5993SOL    HW121571   8.905   9.709   1.995 -1.2196  0.0405 -0.9862
 5993SOL    HW221572   8.812   9.822   1.958 -0.9586  0.8314  0.7179
 5994SOL     OW21573   3.673   0.614   5.007 -0.3550  0.4200  0.2621
 5994SOL    HW121574   3.763   0.613   5.041 -1.2583  1.2303  2.9355
 5994SOL    HW221575   3.668   0.694   4.955  0.5471  0.2109 -0.1689
 5995SOL     OW21576  10.763   3.584   0.985  0.0507  0.4408 -0.4258
 5995SOL    HW121577  10.750   3.563   1.077 -1.2593  4.7524  0.6178
 5995SOL    HW221578  10.720   3.513   0.937 -1.9570 -0.4137  2.3917
 5996SOL     OW21579   9.020   5.563   2.260  0.4205 -0.2398  0.1689
 5996SOL    HW121580   8.967   5.587   2.184 -1.6440 -0.5236  1.4569
 5996SOL    HW221581   8.999   5.471   2.276  0.6708 -0.1296  1.1950
 5997SOL     OW21582   3.697   0.360   6.732 -0.2152 -0.2752 -0.1743
 5997SOL    HW121583   3.690   0.285   6.790 -0.3202  1.4253  2.1862
 5997SOL    HW221584   3.610   0.401   6.736  0.3997  1.0366  0.1734
 5998SOL     OW21585   0.939   3.391  10.071  0.1993  0.2943 -0.9092
 5998SOL    HW121586   0.900   3.306  10.051 -2.0001  1.4071 -1.6994
 5998SOL    HW221587   0.996   3.410   9.996  0.8465 -0.5279 -0.6405
 5999SOL     OW21588   8.993   5.727   4.041 -0.3873  0.1716  0.3686
 5999SOL    HW121589   8.932   5.770   4.101 -2.1934 -0.7586 -0.7132
 5999SOL    HW221590   9.037   5.661   4.095 -0.0005  1.1301  1.2623
 6000SOL     OW21591   0.357   4.968   5.733 -0.5858  0.1396  0.1352
 6000SOL    HW121592   0.364   5.029   5.806  2.2368  0.2107 -0.0751
 6000SOL    HW221593   0.425   4.902   5.751 -1.9058 -1.5852 -0.8853
 6001SOL     OW21594   1.476   9.291   9.819 -0.5191  0.3080  0.7258
 6001SOL    HW121595   1.466   9.366   9.877 -0.6405  1.0816 -0.2519
 6001SOL    HW221596   1.465   9.328   9.731  1.2107 -0.5375  0.1109
 6002SOL     OW21597  11.017   9.379   4.309 -0.2291  0.3273  0.4431
 6002SOL    HW121598  10.977   9.377   4.396  0.0860  0.1382  0.5867
 6002SOL    HW221599  11.052   9.291   4.297  0.2478  0.5223  0.3738
 6003SOL     OW21600   7.100   2.055  10.198 -0.0627  0.7451 -0.5825
 6003SOL    HW121601   7.023   2.016  10.157 -0.3862 -0.0291  0.7213
 6003SOL    HW221602   7.172   2.035  10.137 -0.5150 -0.4368 -0.7611
 6004SOL     OW21603   0.751   2.202   1.769 -0.1196 -0.0217 -0.3638
 6004SOL    HW121604   0.779   2.120   1.728  0.9837  0.3637 -0.4104
 6004SOL    HW221605   0.832   2.245   1.795 -0.7559  0.0531  1.6689
 6005SOL     OW21606  10.021   8.697   7.723 -1.0358 -0.2043 -0.5253
 6005SOL    HW121607  10.020   8.602   7.708 -0.0279 -0.2869 -0.1284
 6005SOL    HW221608  10.103   8.713   7.769 -1.4713  0.7948 -0.0802
 6006SOL     OW21609   1.244   1.346   8.933  0.3525 -0.8344 -0.3467
 6006SOL    HW121610   1.221   1.255   8.911 -0.1169 -0.6415 -0.6665
 6006SOL    HW221611   1.289   1.339   9.017 -0.5719 -1.2620  0.1308
 6007SOL     OW21612   8.904   5.550   1.384  0.2275 -0.1991 -0.3503
 6007SOL    HW121613   8.839   5.479   1.387 -0.4192  0.3903  0.0024
 6007SOL    HW221614   8.855   5.625   1.349  1.3954 -0.4085 -2.5937
 6008SOL     OW21615   6.531   8.487   9.939  0.6318 -0.0779 -0.1381
 6008SOL    HW121616   6.470   8.417   9.963 -2.0807  2.6831  1.7255
 6008SOL    HW221617   6.587   8.498  10.016 -0.3326  1.1032  0.4215
 6009SOL     OW21618   0.166   7.183  10.675 -0.4606  0.4062 -0.4081
 6009SOL    HW121619   0.194   7.272  10.695 -1.0004  0.6925 -0.8788
 6009SOL    HW221620   0.169   7.178  10.579  1.0635 -0.5864 -0.3485
 6010SOL     OW21621   3.541   4.884   6.281  0.0401 -0.2615 -0.4134
 6010SOL    HW121622   3.616   4.874   6.221  0.7758  0.7152  0.3052
 6010SOL    HW221623   3.566   4.957   6.338 -1.7890  0.5878 -0.6324
 6011SOL     OW21624   1.465  10.612   6.812 -0.2331 -0.2769 -0.3917
 6011SOL    HW121625   1.535  10.569   6.862  0.1593 -1.2844 -1.7292
 6011SOL    HW221626   1.511  10.653   6.738 -0.9504 -0.1976 -0.7960
 6012SOL     OW21627   4.760   5.186   0.679 -0.3438  0.0703  0.0690
 6012SOL    HW121628   4.706   5.208   0.755  0.1905  0.3818  0.3626
 6012SOL    HW221629   4.699   5.148   0.617 -0.6586 -0.9846  0.9833
 6013SOL     OW21630   2.960   2.436  10.105  0.3832 -0.2337  0.4357
 6013SOL    HW121631   2.949   2.359  10.049 -0.4233  0.5980 -0.5915
 6013SOL    HW221632   2.968   2.400  10.194 -0.6700 -1.4726  0.0603
 6014SOL     OW21633   5.435   0.558   0.880  0.0968 -0.1957 -0.3288
 6014SOL    HW121634   5.408   0.470   0.905 -0.5454  0.0874  0.0018
 6014SOL    HW221635   5.502   0.582   0.944 -2.5826  1.1116  2.2347
 6015SOL     OW21636   8.780   6.622   0.888 -0.2423  0.5224 -0.0546
 6015SOL    HW121637   8.762   6.713   0.911 -0.1903  0.7227 -0.7833
 6015SOL    HW221638   8.832   6.628   0.808 -2.2420 -0.1995 -1.4659
 6016SOL     OW21639   8.410   1.861  11.006 -0.1037 -0.1603 -0.1696
 6016SOL    HW121640   8.336   1.903  10.963  0.3491  2.4208  1.3412
 6016SOL    HW221641   8.421   1.909  11.087  0.8838 -2.9490  1.5027
 6017SOL     OW21642   8.396   9.203   2.710 -0.2308 -0.3981 -0.0921
 6017SOL    HW121643   8.364   9.293   2.717 -0.7149 -0.6389  0.9959
 6017SOL    HW221644   8.402   9.172   2.800  0.4387 -1.2878 -0.4259
 6018SOL     OW21645   2.196   0.536   7.111 -0.4180  0.2674  0.0069
 6018SOL    HW121646   2.265   0.471   7.118  1.2728  2.0227  0.4237
 6018SOL    HW221647   2.125   0.502   7.167  0.6008 -0.9517  0.6003
 6019SOL     OW21648   4.511   5.685   6.695 -0.1804 -0.2724 -0.7631
 6019SOL    HW121649   4.442   5.725   6.748  0.2242 -0.8691  0.2339
 6019SOL    HW221650   4.576   5.755   6.684 -1.2400  0.5333 -2.3405
 6020SOL     OW21651   6.376   4.725  10.076  0.5135 -0.6675  0.4351
 6020SOL    HW121652   6.369   4.757   9.987  3.6529 -0.2269  0.2137
 6020SOL    HW221653   6.351   4.799  10.131 -0.5938 -0.6618 -0.0576
 6021SOL     OW21654   0.746  10.598   6.366 -0.3703 -0.1768 -0.1644
 6021SOL    HW121655   0.693  10.546   6.427 -1.9388  0.7342 -0.6777
 6021SOL    HW221656   0.763  10.680   6.414  3.2116 -1.5032  1.1677
 6022SOL     OW21657   9.328   7.671   6.439 -0.1982 -0.2728 -0.3431
 6022SOL    HW121658   9.370   7.728   6.504 -2.1274  1.1881 -0.2894
 6022SOL    HW221659   9.383   7.592   6.437  0.8308  0.3151  1.8323
 6023SOL     OW21660   6.311   3.772   9.448  0.0412  0.5293  0.2463
 6023SOL    HW121661   6.245   3.824   9.495 -0.5923 -0.6506  0.6978
 6023SOL    HW221662   6.324   3.695   9.502  0.1642 -0.3095 -0.9456
 6024SOL     OW21663   3.137  10.806   5.214 -0.5604  0.4082 -0.0970
 6024SOL    HW121664   3.104  10.891   5.183 -0.8144 -0.4308 -2.3530
 6024SOL    HW221665   3.143  10.753   5.135 -0.1534 -1.6147  1.2172
 6025SOL     OW21666   3.452   8.370   4.382 -0.7168  0.1314  0.5829
 6025SOL    HW121667   3.402   8.335   4.455 -0.5662  0.2376  0.7377
 6025SOL    HW221668   3.390   8.374   4.309 -1.2432  1.3069  1.0679
 6026SOL     OW21669  10.370   2.381   1.471 -0.0332 -0.2422  0.0249
 6026SOL    HW121670  10.420   2.399   1.391 -2.4791  4.4455 -0.8294
 6026SOL    HW221671  10.279   2.382   1.443 -0.9539  0.9068  2.6872
 6027SOL     OW21672   5.980  10.758  10.076  0.4935  0.0266 -0.0051
 6027SOL    HW121673   6.043  10.830  10.083 -0.5170  0.8469  0.8869
 6027SOL    HW221674   5.917  10.774  10.146 -2.2162  0.7152 -2.4245
 6028SOL     OW21675   8.415   3.578   1.718 -0.2471 -0.0521  0.4111
 6028SOL    HW121676   8.447   3.611   1.802 -0.1293  0.4455  0.1743
 6028SOL    HW221677   8.322   3.603   1.717 -0.2133  0.0665  0.3298
 6029SOL     OW21678   7.793   3.072   3.520  0.0246 -0.0804  0.0543
 6029SOL    HW121679   7.753   2.990   3.490  1.1340  0.3065 -2.7677
 6029SOL    HW221680   7.727   3.139   3.501  0.4029  0.0612 -0.8056
 6030SOL     OW21681   5.927   3.826   6.363 -0.2071  0.2064 -0.3068
 6030SOL    HW121682   5.897   3.863   6.280 -1.5056 -1.0982 -0.4551
 6030SOL    HW221683   5.936   3.902   6.421 -0.9728  0.9549 -1.1401
 6031SOL     OW21684   3.908   0.338   8.622  0.3584 -0.3136 -0.1355
 6031SOL    HW121685   3.903   0.426   8.660  2.4215 -0.2639  0.1413
 6031SOL    HW221686   3.829   0.294   8.652 -0.9651  1.5667 -0.6423
 6032SOL     OW21687   5.039  11.044   9.645 -0.5678 -0.0602 -0.4920
 6032SOL    HW121688   5.062  11.018   9.556 -1.7198 -3.3014  0.0183
 6032SOL    HW221689   5.110  11.011   9.699 -1.0841 -0.3488  0.0222
 6033SOL     OW21690   1.384   7.667   5.875  0.0044 -0.4738 -0.0721
 6033SOL    HW121691   1.448   7.628   5.815 -0.2203 -2.1148  0.7191
 6033SOL    HW221692   1.325   7.717   5.817  0.8841 -0.4776 -1.0039
 6034SOL     OW21693   0.579   8.017   9.939  0.1703  0.3153 -0.0261
 6034SOL    HW121694   0.541   7.980   9.859 -0.3744  0.4533  0.1656
 6034SOL    HW221695   0.617   8.100   9.912  2.7901 -1.0366 -0.7969
 6035SOL     OW21696   9.687   3.506   4.703 -0.5614 -0.0263  0.7548
 6035SOL    HW121697   9.708   3.530   4.793  0.3001 -1.1669  0.8810
 6035SOL    HW221698   9.607   3.455   4.710 -1.5679  1.4594  0.6397
 6036SOL     OW21699   2.895  10.095   7.648 -0.0013  0.4143 -0.2995
 6036SOL    HW121700   2.814  10.080   7.697 -0.7948  0.6515 -1.4941
 6036SOL    HW221701   2.898  10.190   7.634  0.0951  0.3271 -0.9017
 6037SOL     OW21702   7.437   0.208   0.064  0.0766 -0.4680  0.0786
 6037SOL    HW121703   7.446   0.175  -0.026 -1.0763  0.7545 -0.5080
 6037SOL    HW221704   7.351   0.250   0.066  0.6637  0.7406  1.3553
 6038SOL     OW21705   8.079   0.972   0.755  0.0318  0.3566 -0.0953
 6038SOL    HW121706   8.090   0.879   0.776 -1.1503  0.0559 -0.7072
 6038SOL    HW221707   8.001   0.999   0.803  0.0164  0.8697 -0.4027
 6039SOL     OW21708   5.000   7.642   9.419  0.5418  0.6743  0.2264
 6039SOL    HW121709   5.050   7.724   9.413  2.2974 -0.2747  1.0785
 6039SOL    HW221710   5.060   7.581   9.462 -0.4414 -1.2966 -1.0778
 6040SOL     OW21711   3.624   3.521   7.265 -0.4247  0.2431 -0.2240
 6040SOL    HW121712   3.614   3.430   7.295 -1.7986  0.1301 -0.9123
 6040SOL    HW221713   3.704   3.552   7.307  0.3109 -1.4215 -0.3151
 6041SOL     OW21714   1.230   2.497   6.062 -0.2809  0.3574  0.4460
 6041SOL    HW121715   1.231   2.551   6.141  0.7780  0.6323  0.2573
 6041SOL    HW221716   1.221   2.559   5.990  0.8104  0.3035  0.2360
 6042SOL     OW21717   6.327   0.740   3.901 -0.0317  0.2536 -0.3666
 6042SOL    HW121718   6.416   0.720   3.872  0.8983  0.3388  2.1397
 6042SOL    HW221719   6.288   0.655   3.920  0.0042  0.2716 -0.2063
 6043SOL     OW21720   3.622   4.654   8.290  0.1413  0.1348  0.1583
 6043SOL    HW121721   3.696   4.669   8.231  0.0049  0.9467  0.1796
 6043SOL    HW221722   3.642   4.705   8.368 -0.5811  0.6276  0.0391
 6044SOL     OW21723   0.710   1.390   9.933 -0.1893 -0.2702 -0.2195
 6044SOL    HW121724   0.721   1.481   9.959  0.2486 -0.3128 -0.2564
 6044SOL    HW221725   0.784   1.344   9.973 -1.8037 -1.0893  2.0593
 6045SOL     OW21726   5.079   7.603   3.173 -0.1021  0.1495 -0.6944
 6045SOL    HW121727   5.101   7.658   3.097  2.6774 -1.1314 -0.9645
 6045SOL    HW221728   5.164   7.577   3.208 -1.2892  0.4252  2.7339
 6046SOL     OW21729   8.798   0.230  11.006 -0.6222 -0.0342 -0.0803
 6046SOL    HW121730   8.836   0.172  11.071  1.8473  1.0929 -0.4121
 6046SOL    HW221731   8.781   0.312  11.054 -0.1450  0.3213 -0.5018
 6047SOL     OW21732   6.072   5.536   6.918 -0.2639 -0.4191 -0.1060
 6047SOL    HW121733   6.127   5.490   6.854  0.4844  0.8761 -0.4266
 6047SOL    HW221734   6.109   5.512   7.003 -0.7192 -1.4513 -0.1814
 6048SOL     OW21735   7.033   0.942  10.446 -0.1456  0.7296  0.2476
 6048SOL    HW121736   7.022   0.937  10.351 -0.2513  0.5914  0.2655
 6048SOL    HW221737   7.108   0.999  10.459  1.6829 -1.4547 -0.0317
 6049SOL     OW21738   4.032   9.719   0.792  0.0795  0.7778  0.4228
 6049SOL    HW121739   4.061   9.641   0.839 -1.0951 -0.6839 -1.1755
 6049SOL    HW221740   4.112   9.754   0.752  0.3015 -1.0035 -0.7870
 6050SOL     OW21741   3.313   0.825   7.453  0.6360  0.4981  0.5602
 6050SOL    HW121742   3.349   0.912   7.469 -0.6669  0.8689  1.7603
 6050SOL    HW221743   3.228   0.827   7.497 -0.3271 -0.7090 -1.1314
 6051SOL     OW21744   9.342   8.778   3.810  0.1580 -0.5373  0.6267
 6051SOL    HW121745   9.277   8.710   3.794 -0.3306  0.1329 -0.3698
 6051SOL    HW221746   9.426   8.733   3.803 -0.0895 -0.7296 -1.8558
 6052SOL     OW21747   8.223   8.704   2.360  0.4535 -0.0691  0.4013
 6052SOL    HW121748   8.169   8.720   2.438  0.4602 -2.8463  1.0710
 6052SOL    HW221749   8.238   8.610   2.360  1.0382 -0.0725 -2.6242
 6053SOL     OW21750   7.745  11.065   0.870 -0.0193  0.1573 -0.2048
 6053SOL    HW121751   7.764  11.149   0.912  0.1956  0.8220 -1.5745
 6053SOL    HW221752   7.660  11.078   0.828 -0.6798 -0.8076  0.7944
 6054SOL     OW21753   8.250   0.628  10.984  0.0625  0.2020  0.2016
 6054SOL    HW121754   8.220   0.662  11.069 -2.0179  0.5126 -0.5922
 6054SOL    HW221755   8.235   0.700  10.923  3.3731  0.7165 -0.2081
 6055SOL     OW21756   0.670  10.418   8.261 -0.3210  0.3118 -0.1400
 6055SOL    HW121757   0.703  10.368   8.186  2.2210  2.0794 -0.3370
 6055SOL    HW221758   0.607  10.479   8.223  0.4966  0.7860 -0.7581
 6056SOL     OW21759  10.947   7.996   0.031  0.1770  0.0056 -0.4424
 6056SOL    HW121760  11.033   8.005  -0.011  0.1946  1.4797 -0.1427
 6056SOL    HW221761  10.886   7.984  -0.042  0.3994  0.9857 -0.8061
 6057SOL     OW21762   3.673   8.750   3.805 -0.0216 -0.2215  0.4221
 6057SOL    HW121763   3.668   8.697   3.725  2.1520 -1.7191  1.1968
 6057SOL    HW221764   3.720   8.829   3.779  1.4107 -1.0692  0.3502
 6058SOL     OW21765   0.233   4.576  10.510  0.4314 -0.2507  0.4258
 6058SOL    HW121766   0.165   4.640  10.532 -0.4757 -1.0833  0.1067
 6058SOL    HW221767   0.287   4.571  10.589 -0.8930 -0.8356  1.3228
 6059SOL     OW21768   3.772  10.427   8.196  0.2706 -0.1465 -0.4077
 6059SOL    HW121769   3.849  10.379   8.166 -1.0560 -1.3029 -2.2509
 6059SOL    HW221770   3.772  10.508   8.144 -0.1293 -0.5023 -0.9801
 6060SOL     OW21771   5.960   2.735  10.982  0.3662 -0.0376  0.0453
 6060SOL    HW121772   5.914   2.761  10.902  1.5169  1.0203 -0.3180
 6060SOL    HW221773   6.046   2.705  10.951  1.8089  2.7555  0.9523
 6061SOL     OW21774   4.453   4.891   7.402  0.6063 -0.1489  0.2910
 6061SOL    HW121775   4.364   4.889   7.367  0.6055  1.9276  0.0670
 6061SOL    HW221776   4.467   4.982   7.426  3.5853  0.1464 -2.0542
 6062SOL     OW21777   2.986   9.911   8.656  0.4104 -0.0831 -0.3827
 6062SOL    HW121778   3.005   9.954   8.740 -0.4009 -0.5633  0.0610
 6062SOL    HW221779   2.907   9.954   8.624 -0.3352 -1.1045  0.0001
 6063SOL     OW21780   0.143   1.269   2.249 -0.4340 -0.0337 -0.3777
 6063SOL    HW121781   0.201   1.340   2.222  0.1169  0.8609  2.8340
 6063SOL    HW221782   0.080   1.261   2.177  0.1436  2.9215 -1.3383
 6064SOL     OW21783   9.601   9.771   0.278 -0.2813 -0.3115  1.1030
 6064SOL    HW121784   9.632   9.759   0.368 -1.2798  0.3440  1.5511
 6064SOL    HW221785   9.670   9.823   0.236 -0.9169  1.5502  2.2216
 6065SOL     OW21786   6.113   9.071   8.870 -0.0508  0.1271  0.4527
 6065SOL    HW121787   6.121   9.149   8.815 -0.8252  0.5890  0.9876
 6065SOL    HW221788   6.165   9.004   8.824  1.3393  1.1792  0.4283
 6066SOL     OW21789   1.209   8.855  10.567 -0.3605  0.1803 -0.5217
 6066SOL    HW121790   1.136   8.835  10.626 -0.7039 -2.3271 -1.6563
 6066SOL    HW221791   1.259   8.773  10.564  0.4937  0.7386 -2.4908
 6067SOL     OW21792   5.377   8.895   0.620 -0.3080 -0.1512 -0.0395
 6067SOL    HW121793   5.373   8.928   0.530  2.4627 -2.0099 -0.9678
 6067SOL    HW221794   5.436   8.956   0.665 -0.4905 -0.0875  0.1158
 6068SOL     OW21795  10.076   4.945   2.356 -0.2566  0.7057  0.4349
 6068SOL    HW121796  10.056   5.023   2.407 -0.1753  0.0659  1.4768
 6068SOL    HW221797  10.151   4.905   2.401  0.3123  0.5139 -0.6292
 6069SOL     OW21798  10.040   1.091   7.851  0.1006  0.6944  0.2616
 6069SOL    HW121799  10.068   1.113   7.762 -0.6861  2.4234  0.4011
 6069SOL    HW221800  10.109   1.033   7.884  1.5207  1.7543 -0.7216
 6070SOL     OW21801   7.252   6.197   1.742 -0.1398 -0.7778  0.2713
 6070SOL    HW121802   7.199   6.272   1.770  0.4764 -0.6015  0.9749
 6070SOL    HW221803   7.302   6.229   1.667  0.8782 -0.1703  1.1927
 6071SOL     OW21804   5.985   0.465   0.897  0.4017  0.3627  0.3669
 6071SOL    HW121805   5.947   0.540   0.943  0.3621 -0.0821  1.0788
 6071SOL    HW221806   5.937   0.389   0.929  0.9504 -0.0535  0.2366
 6072SOL     OW21807   3.894   3.729   6.190  0.2910 -0.8920  0.1430
 6072SOL    HW121808   3.965   3.764   6.138  0.6150 -0.2914  0.9645
 6072SOL    HW221809   3.883   3.792   6.262 -1.9539 -0.2476 -0.6730
 6073SOL     OW21810   2.108   2.497   1.998  0.2144 -0.4772  0.4213
 6073SOL    HW121811   2.121   2.404   1.979  1.9814 -0.1376 -0.2398
 6073SOL    HW221812   2.196   2.534   1.997 -0.6018  1.7274 -2.2006
 6074SOL     OW21813   2.974   3.571   0.473 -0.0127  0.2075 -0.2832
 6074SOL    HW121814   2.970   3.483   0.510 -0.2777  0.5372  0.4838
 6074SOL    HW221815   2.972   3.629   0.548  0.8938  0.8652 -0.7451
 6075SOL     OW21816   8.832   5.965   8.621  0.0771 -0.0588  0.0813
 6075SOL    HW121817   8.786   6.046   8.643 -2.4706 -0.9917 -1.3942
 6075SOL    HW221818   8.804   5.902   8.687  1.3427 -0.0010  0.6965
 6076SOL     OW21819   5.237   0.941   3.163 -0.5464  0.2253  0.2687
 6076SOL    HW121820   5.146   0.947   3.194 -0.2131  0.3822  1.2389
 6076SOL    HW221821   5.235   0.872   3.096 -1.4244  0.3928  0.1111
 6077SOL     OW21822   9.859   4.152   0.498  0.2645 -0.3327 -0.1071
 6077SOL    HW121823   9.921   4.101   0.446  0.1226 -0.7236  0.1032
 6077SOL    HW221824   9.850   4.103   0.580  0.5557  0.3227  0.3300
 6078SOL     OW21825   3.659   5.114  10.634 -0.1630 -0.2984  0.1839
 6078SOL    HW121826   3.594   5.048  10.609 -1.3307  0.0804  2.0264
 6078SOL    HW221827   3.632   5.142  10.721  0.4578  2.4192 -0.4107
 6079SOL     OW21828   8.702   9.270   4.245  0.2412 -0.2150 -0.3982
 6079SOL    HW121829   8.778   9.328   4.236 -0.9214  1.6348  0.9733
 6079SOL    HW221830   8.650   9.309   4.315 -1.2177 -2.3087 -0.2213
 6080SOL     OW21831   6.842   8.001   8.775  0.8194  0.6004 -0.3564
 6080SOL    HW121832   6.808   7.964   8.694  0.3512  1.6738 -0.6647
 6080SOL    HW221833   6.811   7.940   8.843 -1.9598  1.5831 -0.5936
 6081SOL     OW21834   7.626   5.882  11.047 -0.2094  0.3461  0.2606
 6081SOL    HW121835   7.548   5.924  11.012  0.0441  0.1888 -0.5136
 6081SOL    HW221836   7.692   5.892  10.978  0.4845  0.5605  0.9418
 6082SOL     OW21837   4.594   8.811   8.387 -0.3810  0.0749  0.1531
 6082SOL    HW121838   4.529   8.789   8.321  0.3346 -0.4824 -0.3752
 6082SOL    HW221839   4.656   8.738   8.386 -1.1952 -0.7622  2.5440
 6083SOL     OW21840   8.688   5.229   9.478  0.4859 -0.6732  0.0915
 6083SOL    HW121841   8.691   5.253   9.570 -0.4795 -0.0132 -0.0448
 6083SOL    HW221842   8.776   5.249   9.445  1.1325 -1.7896  1.0624
 6084SOL     OW21843   4.820   3.212   1.435 -0.0544  0.1082 -0.8728
 6084SOL    HW121844   4.860   3.128   1.460  0.9535  1.0508  0.8686
 6084SOL    HW221845   4.765   3.236   1.509  0.4157  1.4413 -0.9242
 6085SOL     OW21846   9.027   1.221   2.119  0.3311 -0.5784  0.0652
 6085SOL    HW121847   9.060   1.274   2.046  1.5775 -2.6936 -1.0071
 6085SOL    HW221848   8.935   1.206   2.097 -0.5002  2.2472  1.1595
 6086SOL     OW21849   5.837   2.845   5.830  0.3463 -0.3995  0.3189
 6086SOL    HW121850   5.876   2.933   5.827 -0.2642 -0.1241  0.2622
 6086SOL    HW221851   5.764   2.849   5.768  1.0912 -1.3414 -0.6496
 6087SOL     OW21852   9.305   0.559   4.474  0.1527  0.7648 -0.0471
 6087SOL    HW121853   9.225   0.563   4.528  1.1227 -2.4966  1.9217
 6087SOL    HW221854   9.376   0.578   4.536  1.2961 -2.8318 -0.0750
 6088SOL     OW21855   6.984   3.502   9.460 -0.4062  0.1141 -0.2139
 6088SOL    HW121856   6.960   3.595   9.462 -0.7119  0.0689 -1.1870
 6088SOL    HW221857   7.002   3.480   9.551  0.0239  1.2189 -0.0148
 6089SOL     OW21858   1.204   1.923   1.725 -0.1954 -0.7479 -0.3322
 6089SOL    HW121859   1.299   1.933   1.715 -0.2323  0.8941  0.6236
 6089SOL    HW221860   1.184   1.963   1.809 -1.5444 -2.5947  0.2925
 6090SOL     OW21861   0.082   8.998  10.187 -0.4956  0.3284 -0.1782
 6090SOL    HW121862   0.043   8.915  10.161  0.7238 -0.0540 -0.8828
 6090SOL    HW221863   0.094   8.989  10.282  0.6621 -0.7950 -0.3964
 6091SOL     OW21864   0.954  10.388   6.304  0.8849  0.2101 -0.1582
 6091SOL    HW121865   0.888  10.380   6.373  2.1538 -0.8763  0.9974
 6091SOL    HW221866   0.940  10.476   6.267  0.4932  1.0609  1.8728
 6092SOL     OW21867   3.466   6.073  10.692 -0.4076  0.0076  0.0867
 6092SOL    HW121868   3.450   6.165  10.713 -0.8950  0.0541 -0.4696
 6092SOL    HW221869   3.400   6.025  10.744 -1.5973  0.1213 -1.2592
 6093SOL     OW21870   8.275  10.652   6.073  0.6840  0.2943  0.5053
 6093SOL    HW121871   8.217  10.702   6.130  1.8343  0.2682  1.7166
 6093SOL    HW221872   8.222  10.636   5.994 -0.7759  0.6916  1.3700
 6094SOL     OW21873   9.175   9.496   0.291  0.2491  0.3247 -0.6202
 6094SOL    HW121874   9.083   9.480   0.269  0.1025 -0.2841  0.3791
 6094SOL    HW221875   9.171   9.560   0.363  0.4675 -1.4458  1.0462
 6095SOL     OW21876  11.007   8.218   4.046 -0.4336 -0.0396  0.0311
 6095SOL    HW121877  11.081   8.218   4.106 -1.4982  0.2773  1.3801
 6095SOL    HW221878  10.968   8.305   4.055  1.2376  1.2636 -3.5429
 6096SOL     OW21879   3.519   1.726   0.162 -0.0124  0.2102  0.0874
 6096SOL    HW121880   3.494   1.737   0.253  0.7743 -1.0523  0.4729
 6096SOL    HW221881   3.600   1.676   0.164 -0.8539 -1.3079 -1.3503
 6097SOL     OW21882   2.422   3.407   3.508  0.3571 -0.0423  0.6794
 6097SOL    HW121883   2.344   3.373   3.464  0.6822 -0.6731  0.5834
 6097SOL    HW221884   2.448   3.337   3.568  0.6889  0.2819  0.9196
 6098SOL     OW21885   0.245   3.867   1.452  0.1696 -0.0049 -0.4584
 6098SOL    HW121886   0.289   3.944   1.419 -0.7526  0.5641 -0.3979
 6098SOL    HW221887   0.158   3.870   1.413 -0.2628 -0.3950  0.4289
 6099SOL     OW21888   3.542   3.732   1.837 -0.2168 -0.0918  1.0823
 6099SOL    HW121889   3.513   3.752   1.926 -1.0889  0.4583  0.6880
 6099SOL    HW221890   3.527   3.638   1.827  0.1555 -0.2121  1.6079
 6100SOL     OW21891   8.522   1.786   6.512 -0.2711  0.0422 -0.3693
 6100SOL    HW121892   8.475   1.818   6.435  0.2935  0.1276 -0.6883
 6100SOL    HW221893   8.602   1.747   6.477  0.3041  0.6602  0.2164
 6101SOL     OW21894   6.189   9.296   5.226  0.0733 -0.0565 -0.2661
 6101SOL    HW121895   6.157   9.385   5.210 -0.8385 -0.3904 -0.3871
 6101SOL    HW221896   6.284   9.303   5.224  0.0146  0.9708  0.0178
 6102SOL     OW21897   9.361   5.331   4.791  0.1752 -0.5137 -0.1530
 6102SOL    HW121898   9.420   5.374   4.730  1.2619 -0.3919  0.9311
 6102SOL    HW221899   9.410   5.328   4.874 -0.3804 -2.6138  0.1701
 6103SOL     OW21900   6.142   3.915   5.450 -0.6165  0.0548 -0.2028
 6103SOL    HW121901   6.145   3.821   5.432  1.0663  0.0751 -0.1660
 6103SOL    HW221902   6.119   3.955   5.366 -2.4109 -0.4096  0.0128
 6104SOL     OW21903   0.600   2.020   1.546 -0.5944 -0.0176 -0.2622
 6104SOL    HW121904   0.693   2.017   1.569 -0.4988  1.1622 -0.4439
 6104SOL    HW221905   0.555   1.988   1.623 -0.0105 -1.5244 -0.4984
 6105SOL     OW21906   6.288   2.585   8.844 -0.5426  0.1506 -0.0462
 6105SOL    HW121907   6.315   2.676   8.844 -0.0422  0.0115  0.5164
 6105SOL    HW221908   6.343   2.543   8.911 -0.8220 -0.5416 -0.2327
 6106SOL     OW21909   0.269   8.605  10.780 -0.2889 -0.5226 -0.7619
 6106SOL    HW121910   0.322   8.533  10.746  0.7443  0.7335 -1.9468
 6106SOL    HW221911   0.183   8.592  10.741 -0.2047 -1.3080 -0.6931
 6107SOL     OW21912   7.257   9.340   8.376 -0.0122 -0.1134 -0.3285
 6107SOL    HW121913   7.212   9.343   8.461  0.8898 -0.4485  0.1747
 6107SOL    HW221914   7.254   9.430   8.344 -3.1053 -0.5005 -1.4401
 6108SOL     OW21915   0.373   4.439   1.820  0.5205 -0.8575  0.6259
 6108SOL    HW121916   0.406   4.456   1.909  0.1674  1.9326  0.3291
 6108SOL    HW221917   0.451   4.417   1.769  0.8200 -1.8309  1.4769
 6109SOL     OW21918   7.172   0.852   9.826  0.5515 -0.2282 -0.2091
 6109SOL    HW121919   7.170   0.758   9.842  0.3412  0.0027  1.3430
 6109SOL    HW221920   7.081   0.880   9.836  1.0026  0.6003  2.9980
 6110SOL     OW21921   1.656   3.026   0.759 -0.0303 -0.2409  0.4138
 6110SOL    HW121922   1.697   3.105   0.794  1.6923 -0.5329 -0.8259
 6110SOL    HW221923   1.652   3.040   0.664 -2.1468 -0.5657  0.3988
 6111SOL     OW21924   4.981   8.470   4.812 -0.1128  0.0194  0.0234
 6111SOL    HW121925   5.055   8.411   4.825 -0.7999 -1.3076 -1.6656
 6111SOL    HW221926   4.904   8.414   4.822 -0.8710  1.1232  0.6170
 6112SOL     OW21927   5.195   2.770  10.687 -0.5808 -0.4877 -0.3440
 6112SOL    HW121928   5.182   2.711  10.760 -1.5408  0.4744  0.3037
 6112SOL    HW221929   5.271   2.735  10.640 -1.2648 -2.3504 -0.1459
 6113SOL     OW21930   8.301   4.674   9.196  0.0769  0.1162 -0.1017
 6113SOL    HW121931   8.216   4.716   9.210 -0.1181 -0.9713  2.7356
 6113SOL    HW221932   8.365   4.744   9.208 -0.3590  0.5200 -0.1008
 6114SOL     OW21933   9.343   8.123   9.251 -0.5151  0.0232  0.0718
 6114SOL    HW121934   9.395   8.046   9.231 -0.5611  0.2605 -1.0327
 6114SOL    HW221935   9.382   8.158   9.332  0.8049 -0.0208 -0.5159
 6115SOL     OW21936   3.729  10.342   3.557 -0.2072  0.0303  0.2866
 6115SOL    HW121937   3.819  10.320   3.580 -0.0916  0.8821  0.6782
 6115SOL    HW221938   3.734  10.375   3.468 -0.3368 -1.1916 -0.1905
 6116SOL     OW21939  10.265   0.373   9.131 -0.5301 -0.3094 -0.0093
 6116SOL    HW121940  10.205   0.360   9.204 -0.7762  2.2079  0.3211
 6116SOL    HW221941  10.214   0.421   9.066  0.5333  0.0763 -0.5944
 6117SOL     OW21942   3.359   9.578   4.547 -0.4749 -0.4299  0.0549
 6117SOL    HW121943   3.312   9.597   4.465  2.0557 -1.2149 -1.7165
 6117SOL    HW221944   3.298   9.526   4.599 -1.6942 -1.1240 -1.9534
 6118SOL     OW21945   5.985   3.945   8.987 -0.1206  0.0505  0.5563
 6118SOL    HW121946   6.029   3.865   8.958 -0.4346  0.1685 -0.2942
 6118SOL    HW221947   5.893   3.921   8.992 -0.5157  0.8442 -1.6812
 6119SOL     OW21948   5.260   6.722   0.050  0.3265  0.3302  0.4076
 6119SOL    HW121949   5.175   6.760   0.076 -0.4963  0.9689 -2.7876
 6119SOL    HW221950   5.293   6.782  -0.017  2.2548 -1.0876  0.0259
 6120SOL     OW21951   4.125   4.050   3.630  0.0002 -0.5746 -0.4654
 6120SOL    HW121952   4.158   4.140   3.638  1.6835 -1.1877 -0.1082
 6120SOL    HW221953   4.200   3.995   3.652 -1.2901 -2.0711  0.4103
 6121SOL     OW21954   3.331   5.475   1.673 -0.3311  0.5592 -0.4109
 6121SOL    HW121955   3.321   5.570   1.683 -0.6330  0.5772 -0.8424
 6121SOL    HW221956   3.418   5.456   1.709  0.2539  1.1818 -1.4464
 6122SOL     OW21957  10.584   1.759  10.626  0.2228 -0.2689  0.2168
 6122SOL    HW121958  10.595   1.778  10.719 -0.1137  1.2049 -0.0291
 6122SOL    HW221959  10.490   1.761  10.611  0.1187 -2.5378  0.2223
 6123SOL     OW21960   1.393   6.940   9.147 -0.2649 -0.1272 -0.8875
 6123SOL    HW121961   1.307   6.956   9.107 -0.7756 -2.3534 -0.8134
 6123SOL    HW221962   1.454   6.940   9.073 -0.3287  1.2495 -0.9660
 6124SOL     OW21963   4.177   5.749   0.097  0.2101  0.0070 -0.0997
 6124SOL    HW121964   4.242   5.818   0.082 -0.3544  1.4618  3.2805
 6124SOL    HW221965   4.136   5.736   0.011  1.3830  2.7955 -1.2117
 6125SOL     OW21966   6.362   5.870   6.352  0.1977 -0.2022 -0.4630
 6125SOL    HW121967   6.342   5.811   6.279 -1.1993  0.5260 -0.6984
 6125SOL    HW221968   6.333   5.823   6.430 -0.1372 -0.1713 -0.5690
 6126SOL     OW21969   5.477   7.822   2.955  0.0500 -0.1046 -0.4076
 6126SOL    HW121970   5.486   7.868   3.039  2.2940  2.8622 -2.0885
 6126SOL    HW221971   5.543   7.753   2.958 -0.5319 -0.6333  0.6012
 6127SOL     OW21972   9.512   7.135   5.738 -0.1813  0.1595  0.0205
 6127SOL    HW121973   9.541   7.224   5.715  0.8931 -0.0631  0.4904
 6127SOL    HW221974   9.580   7.078   5.704 -1.5785 -0.6236 -1.5816
 6128SOL     OW21975   9.512   7.812   7.691  0.4224  0.0831 -0.3548
 6128SOL    HW121976   9.428   7.794   7.735  0.2813  1.0999 -0.1867
 6128SOL    HW221977   9.577   7.805   7.761  0.6046 -1.5395 -0.6443
 6129SOL     OW21978   6.613   1.679  10.822  0.1423  0.2136  0.3181
 6129SOL    HW121979   6.569   1.764  10.817  1.8715  1.1559  0.5372
 6129SOL    HW221980   6.605   1.642  10.734 -1.5980  0.0475  0.5006
 6130SOL     OW21981   4.931   7.164   2.860 -0.6850  0.1853  0.2318
 6130SOL    HW121982   4.986   7.238   2.833 -0.0852 -0.2724  0.1801
 6130SOL    HW221983   4.976   7.128   2.936 -1.2436  0.1737  0.5631
 6131SOL     OW21984  10.891   9.663  10.936  0.1696  0.0580  0.3652
 6131SOL    HW121985  10.811   9.702  10.973 -0.0370  0.3830 -0.4076
 6131SOL    HW221986  10.862   9.579  10.900  0.5800 -0.7679  1.8658
 6132SOL     OW21987   3.057   0.610   3.685  0.4674 -0.1305 -0.1214
 6132SOL    HW121988   3.049   0.659   3.603  1.3005  1.9910  0.9843
 6132SOL    HW221989   3.044   0.676   3.753 -0.9250 -1.9612  1.4882
 6133SOL     OW21990   5.867   2.479   0.353  0.1666  0.3208  0.2549
 6133SOL    HW121991   5.875   2.546   0.285 -0.8868  0.6726  0.4518
 6133SOL    HW221992   5.780   2.441   0.338  0.7213 -0.9698  0.1846
 6134SOL     OW21993   6.781  10.092  10.008  0.0200  0.0255  0.2404
 6134SOL    HW121994   6.828  10.170  10.038  1.4477 -0.6921 -0.0365
 6134SOL    HW221995   6.774  10.037  10.086  3.0641 -1.5107 -0.4421
 6135SOL     OW21996   1.313   3.103   4.991  0.0231 -0.3029  0.2912
 6135SOL    HW121997   1.374   3.172   5.019  0.0718  0.2828 -1.1866
 6135SOL    HW221998   1.230   3.149   4.980 -0.4440 -0.8898  1.2272
 6136SOL     OW21999   9.388   6.900  10.129  0.0338 -0.5740  0.2417
 6136SOL    HW122000   9.465   6.936  10.172 -1.1461  1.1977  0.9635
 6136SOL    HW222001   9.386   6.942  10.043 -0.2920 -0.3876  0.3397
 6137SOL     OW22002   1.375   2.183   7.130  0.0806  0.6457 -0.2378
 6137SOL    HW122003   1.310   2.179   7.200  0.4344 -1.3089  0.0322
 6137SOL    HW222004   1.331   2.144   7.054  0.4638  0.6338 -0.4574
 6138SOL     OW22005   0.409  10.322   8.425 -0.3025  0.1583 -0.5948
 6138SOL    HW122006   0.467  10.247   8.411 -1.1263 -0.5150 -0.4997
 6138SOL    HW222007   0.468  10.395   8.443  0.4959 -0.8055  0.9876
 6139SOL     OW22008   6.057  10.251   8.880  0.4071  0.7863 -0.0491
 6139SOL    HW122009   6.085  10.182   8.940 -0.5770  0.0443 -0.4174
 6139SOL    HW222010   6.032  10.324   8.937 -0.8176 -0.0188  0.4865
 6140SOL     OW22011   8.657   6.360   0.987  0.1187 -0.3267 -0.5803
 6140SOL    HW122012   8.696   6.423   0.925 -0.0808 -0.7717 -1.1629
 6140SOL    HW222013   8.581   6.406   1.022 -0.4024 -0.4636 -1.4850
 6141SOL     OW22014   0.501   8.254   0.521 -0.2147 -0.1080 -0.2361
 6141SOL    HW122015   0.527   8.346   0.525  1.0778 -0.4418 -0.3843
 6141SOL    HW222016   0.450   8.239   0.600  2.6121 -0.1209  1.7620
 6142SOL     OW22017   8.214   4.081   5.470 -0.4205 -0.4475  0.3113
 6142SOL    HW122018   8.184   4.000   5.428  0.3848  0.1807 -1.5828
 6142SOL    HW222019   8.289   4.054   5.523 -0.0714 -0.9323 -0.4174
 6143SOL     OW22020   7.339  11.107   3.056  0.3292 -0.2758  0.0174
 6143SOL    HW122021   7.391  11.187   3.064  0.1486 -0.1297 -0.2979
 6143SOL    HW222022   7.402  11.037   3.075  1.2031 -0.2624 -2.4943
 6144SOL     OW22023  10.354   3.597   6.643 -0.3698  0.0551 -0.5451
 6144SOL    HW122024  10.290   3.650   6.595  1.9310  1.9589 -1.7382
 6144SOL    HW222025  10.312   3.579   6.727 -1.4391  3.7358 -0.0905
 6145SOL     OW22026  11.068  10.964   0.906 -0.3878 -0.1543  0.4061
 6145SOL    HW122027  11.148  10.922   0.876  0.1690  0.9945  0.2473
 6145SOL    HW222028  11.045  10.916   0.986 -0.1284 -1.1620 -0.1130
 6146SOL     OW22029   9.437   1.940   1.656  0.3754 -0.8552 -0.6664
 6146SOL    HW122030   9.493   1.893   1.593  0.1360 -2.0593 -0.0187
 6146SOL    HW222031   9.458   1.900   1.740 -1.4073 -1.2943 -0.4016
 6147SOL     OW22032   6.835   9.115   3.221 -0.4897  0.1770 -0.2647
 6147SOL    HW122033   6.800   9.121   3.132  0.6969 -1.5531 -0.8946
 6147SOL    HW222034   6.850   9.022   3.235 -0.7503  0.3923  1.8139
 6148SOL     OW22035   8.037   0.784   6.662  0.2154 -0.0857  0.7107
 6148SOL    HW122036   8.099   0.731   6.612 -0.6692 -2.5815  2.0670
 6148SOL    HW222037   8.081   0.869   6.672  3.5295 -1.7370  1.6949
 6149SOL     OW22038   0.913   3.625   2.774 -0.2964 -0.4383 -0.4393
 6149SOL    HW122039   0.971   3.684   2.727 -0.4955  0.9170  0.9524
 6149SOL    HW222040   0.941   3.631   2.866 -0.5007 -2.3091 -0.2160
 6150SOL     OW22041   7.631   2.311   9.081  0.0510 -0.2348 -0.0392
 6150SOL    HW122042   7.643   2.230   9.030  2.9856  0.1137 -0.1211
 6150SOL    HW222043   7.679   2.294   9.162 -1.5816  0.5048  1.1071
 6151SOL     OW22044   3.455   2.954   0.484 -0.0307  0.2367  0.7523
 6151SOL    HW122045   3.549   2.954   0.502 -0.4396  0.5230  3.2174
 6151SOL    HW222046   3.426   2.865   0.503 -0.2694  0.1151 -0.1146
 6152SOL     OW22047   0.572   1.776   1.050  0.2480 -0.1747  0.1909
 6152SOL    HW122048   0.613   1.795   1.135  0.9767  0.7070 -0.3358
 6152SOL    HW222049   0.616   1.697   1.019  0.5124 -0.0732  0.3021
 6153SOL     OW22050   6.500   8.948   8.371  0.6337  0.7000  0.5060
 6153SOL    HW122051   6.422   8.999   8.392 -0.4617 -1.4071  1.8586
 6153SOL    HW222052   6.523   8.975   8.282 -0.4319  2.8002  0.8135
 6154SOL     OW22053   2.662   1.595   1.896 -0.7633 -0.2292  0.6809
 6154SOL    HW122054   2.657   1.532   1.825 -2.8566 -0.4744  0.9925
 6154SOL    HW222055   2.588   1.654   1.882 -0.1089  0.8587  1.6132
 6155SOL     OW22056   2.537   8.301   7.786  0.5852  0.6880  0.2722
 6155SOL    HW122057   2.595   8.256   7.848  2.6260  1.5745 -0.8721
 6155SOL    HW222058   2.518   8.235   7.719 -2.2992 -0.5289  2.1123
 6156SOL     OW22059   3.666   0.982   1.294  0.1439 -0.2094  0.3756
 6156SOL    HW122060   3.576   0.953   1.277 -0.2973  0.3377  1.6062
 6156SOL    HW222061   3.715   0.900   1.306 -0.7942 -0.5524  2.4158
 6157SOL     OW22062   9.636   5.315   1.385 -0.3202 -0.2360 -0.3536
 6157SOL    HW122063   9.664   5.279   1.301 -0.7478 -2.6314  0.4393
 6157SOL    HW222064   9.551   5.274   1.402  0.2505 -0.7189  1.7121
 6158SOL     OW22065   3.824   4.717   8.123 -0.2047 -0.0094 -0.3739
 6158SOL    HW122066   3.898   4.655   8.123 -0.7369 -0.7195  1.2201
 6158SOL    HW222067   3.781   4.703   8.039  0.0649 -1.3748 -0.3129
 6159SOL     OW22068   7.428   3.638   7.841 -0.1036 -0.2192 -0.1552
 6159SOL    HW122069   7.415   3.609   7.932  0.9229  2.0860  0.8038
 6159SOL    HW222070   7.351   3.692   7.823 -0.0557 -0.2613 -0.4803
 6160SOL     OW22071   1.064   2.114   4.975 -0.3618  0.6233  0.3405
 6160SOL    HW122072   1.132   2.095   5.041  0.6906  0.3344 -0.7949
 6160SOL    HW222073   1.052   2.032   4.929  0.2154  1.2652 -0.9943
 6161SOL     OW22074   5.171   9.485   6.973 -0.2263  0.2009  0.4774
 6161SOL    HW122075   5.220   9.463   7.052  1.0846 -0.3531 -0.4600
 6161SOL    HW222076   5.095   9.426   6.975  0.1677 -0.2976  0.9542
 6162SOL     OW22077   9.412   4.519   4.801 -0.0446 -0.1371  0.4160
 6162SOL    HW122078   9.503   4.544   4.784 -0.1475 -1.1349 -1.8102
 6162SOL    HW222079   9.408   4.510   4.897  2.5514 -1.3537  0.5036
 6163SOL     OW22080   4.397   0.474   7.652  0.2012 -0.4648  0.6587
 6163SOL    HW122081   4.411   0.535   7.725 -1.1368 -0.1373  0.6770
 6163SOL    HW222082   4.394   0.388   7.694  1.8217 -0.5487  0.6680
 6164SOL     OW22083   0.160   8.985   5.424  0.0218 -0.2278 -0.1367
 6164SOL    HW122084   0.086   8.964   5.480  0.5374  2.2483  1.6325
 6164SOL    HW222085   0.123   9.038   5.353 -0.1620 -0.6099 -0.3275
 6165SOL     OW22086   1.194   3.978   0.229 -0.0052  0.2263  0.0618
 6165SOL    HW122087   1.126   4.019   0.175 -0.0596  2.2155  1.5189
 6165SOL    HW222088   1.156   3.975   0.317  0.7766 -1.1966  0.3761
 6166SOL     OW22089  10.636   8.469   9.078  0.2785  0.1471 -0.2824
 6166SOL    HW122090  10.566   8.476   9.143 -0.9431 -0.5718 -1.4677
 6166SOL    HW222091  10.595   8.499   8.996  0.9682 -1.4888 -1.2570
 6167SOL     OW22092   9.376   4.773  10.445 -0.0439 -0.3895  0.1067
 6167SOL    HW122093   9.372   4.814  10.532 -2.5575 -0.3623  0.0540
 6167SOL    HW222094   9.425   4.836  10.391 -0.5780  0.7698  0.9286
 6168SOL     OW22095   4.582   8.007   8.435 -0.0097 -0.1113  0.1029
 6168SOL    HW122096   4.546   7.920   8.417  1.4450 -0.7130 -0.0340
 6168SOL    HW222097   4.672   7.990   8.463  0.3064  1.3588  0.0434
 6169SOL     OW22098   3.710   5.931   1.214  0.5226  0.7200  0.6134
 6169SOL    HW122099   3.729   5.870   1.285 -0.6345  0.8068  1.0220
 6169SOL    HW222100   3.756   5.895   1.138  0.7468 -0.0576  1.1062
 6170SOL     OW22101   5.885   6.945   8.705  0.0325 -0.2896  0.0315
 6170SOL    HW122102   5.869   6.935   8.611 -0.2589 -1.6868  0.2056
 6170SOL    HW222103   5.801   6.976   8.740 -0.3541 -1.2991  0.0329
 6171SOL     OW22104   3.535   1.762   1.692  0.5442  0.1013  0.3430
 6171SOL    HW122105   3.628   1.740   1.691  0.2750 -1.1591  1.1912
 6171SOL    HW222106   3.533   1.856   1.714  1.5760 -0.3043  2.4517
 6172SOL     OW22107   7.317   1.846   2.939  0.0157 -0.1234  0.1521
 6172SOL    HW122108   7.340   1.761   2.976 -1.0726  0.4614  2.3450
 6172SOL    HW222109   7.226   1.859   2.965  0.5769  2.3290  1.1545
 6173SOL     OW22110   7.722   5.421   4.635 -0.3118  0.3657 -0.2894
 6173SOL    HW122111   7.763   5.460   4.712 -0.3953  1.8820 -0.9775
 6173SOL    HW222112   7.790   5.424   4.567 -0.5876  0.0768 -0.5844
 6174SOL     OW22113   8.848   7.418   3.233 -0.0936 -0.1527 -0.0942
 6174SOL    HW122114   8.806   7.384   3.153  1.2113  0.3299 -1.0187
 6174SOL    HW222115   8.818   7.508   3.239 -1.0874 -0.5129  0.6180
 6175SOL     OW22116   7.063  10.399   7.826  0.0862 -0.4590 -0.1615
 6175SOL    HW122117   7.156  10.393   7.849  0.0760  0.7613  0.2616
 6175SOL    HW222118   7.022  10.443   7.901 -1.0984 -2.2368  0.2923
 6176SOL     OW22119   5.957   4.382   1.936 -0.1769  0.0270  0.0218
 6176SOL    HW122120   5.939   4.412   1.847 -0.1037  1.1531  0.3797
 6176SOL    HW222121   6.046   4.411   1.954 -0.1969 -0.1829  0.4706
 6177SOL     OW22122   6.875   8.619   2.060  0.1600  0.0032 -0.1357
 6177SOL    HW122123   6.898   8.650   1.973  0.2956 -0.1705 -0.1606
 6177SOL    HW222124   6.937   8.662   2.118  1.4676 -1.5344 -0.3391
 6178SOL     OW22125   0.649   1.453   9.519 -0.6165 -0.1451 -0.8160
 6178SOL    HW122126   0.694   1.413   9.444 -0.5463  1.5213 -1.7017
 6178SOL    HW222127   0.635   1.380   9.580  1.6006 -1.0662 -1.3251
 6179SOL     OW22128   3.486   2.846   8.853  0.3254 -0.1498  0.1747
 6179SOL    HW122129   3.491   2.810   8.764  2.3796 -1.3863  0.7285
 6179SOL    HW222130   3.397   2.826   8.882 -0.4715  0.4999 -1.6696
 6180SOL     OW22131   8.762   4.555   3.821  0.1054  0.1152  0.1136
 6180SOL    HW122132   8.677   4.592   3.844  0.0712  0.0319  0.1189
 6180SOL    HW222133   8.742   4.481   3.765  0.1206 -0.5666  0.9864
 6181SOL     OW22134   5.496   9.807   8.668  0.3285 -0.1624  0.0569
 6181SOL    HW122135   5.541   9.832   8.748  0.7120  1.2991 -0.5923
 6181SOL    HW222136   5.539   9.857   8.599 -0.1574 -1.2006 -1.0404
 6182SOL     OW22137   9.064  10.433   2.991 -0.3384  0.3568  0.5229
 6182SOL    HW122138   9.078  10.426   2.897 -1.9405  0.3141  0.2525
 6182SOL    HW222139   9.102  10.353   3.027  0.0069  0.2186 -0.1319
 6183SOL     OW22140   6.322   5.049   6.594 -0.1956  0.1381 -0.1102
 6183SOL    HW122141   6.295   5.065   6.684  0.0149  1.0649 -0.1954
 6183SOL    HW222142   6.334   5.136   6.557  2.8236 -0.1636 -0.0856
 6184SOL     OW22143   0.192   3.921   8.735  0.0583  0.3552  0.4034
 6184SOL    HW122144   0.241   3.912   8.653 -0.8365  1.2489 -0.2475
 6184SOL    HW222145   0.137   3.842   8.738  1.6211 -0.7598  1.2433
 6185SOL     OW22146   3.825   3.493   4.522 -0.3047  0.5851  0.7796
 6185SOL    HW122147   3.821   3.503   4.427  0.8160  2.2947  0.8744
 6185SOL    HW222148   3.907   3.446   4.538  0.5174  2.0307  0.9718
 6186SOL     OW22149   8.725   0.998   9.040  0.0847 -0.1783  0.0142
 6186SOL    HW122150   8.749   1.087   9.015 -0.3963 -0.5075 -1.7192
 6186SOL    HW222151   8.712   0.952   8.957 -0.3216 -1.6984  0.8794
 6187SOL     OW22152   6.282   9.688   9.253 -0.1920  0.0884  0.4250
 6187SOL    HW122153   6.268   9.782   9.258  1.1430  0.3693 -0.6113
 6187SOL    HW222154   6.342   9.668   9.325  0.7057  0.3027 -0.2405
 6188SOL     OW22155   2.049   7.822   2.104 -0.4509 -0.1250 -0.1303
 6188SOL    HW122156   2.100   7.858   2.176 -1.0583  1.4885 -0.4723
 6188SOL    HW222157   2.060   7.727   2.112  0.2312  0.0602  1.5209
 6189SOL     OW22158   0.568   8.881   9.235 -0.1694 -0.5044  0.3572
 6189SOL    HW122159   0.483   8.894   9.193 -0.0689  2.5835  0.8152
 6189SOL    HW222160   0.628   8.859   9.164 -0.7134  0.9463 -0.5926
 6190SOL     OW22161   7.205  10.848   0.661 -0.3079 -0.2845 -0.0882
 6190SOL    HW122162   7.149  10.870   0.735  0.5363  0.6175  0.3039
 6190SOL    HW222163   7.209  10.752   0.660 -4.0184 -0.5842 -1.7848
 6191SOL     OW22164  10.535   8.259   3.773 -0.3983 -0.4788 -0.0345
 6191SOL    HW122165  10.624   8.228   3.754 -0.0659 -0.8134  1.8695
 6191SOL    HW222166  10.505   8.298   3.690  2.5353  2.1198 -0.0569
 6192SOL     OW22167   1.192   5.126   4.135  0.0818 -0.0173 -0.3136
 6192SOL    HW122168   1.110   5.174   4.151  0.2105  0.5352 -1.2547
 6192SOL    HW222169   1.261   5.187   4.160  0.2375 -0.9992  1.9145
 6193SOL     OW22170   9.482   3.031   7.837 -0.2893 -0.4300  0.1191
 6193SOL    HW122171   9.432   3.093   7.891 -1.1184 -1.1072  0.1548
 6193SOL    HW222172   9.427   3.018   7.760  0.4606 -0.1732 -0.4734
 6194SOL     OW22173   5.328  10.765   5.533 -0.0988  0.2755 -0.3757
 6194SOL    HW122174   5.300  10.744   5.444  2.9878  1.2336 -1.6964
 6194SOL    HW222175   5.340  10.860   5.533  1.9131  0.0750  0.3863
 6195SOL     OW22176   5.051   0.551   2.946 -0.1560  0.0746 -0.8702
 6195SOL    HW122177   5.017   0.521   3.031  0.3910  0.4446 -0.5160
 6195SOL    HW222178   5.073   0.471   2.900  0.4644 -0.1023 -0.2768
 6196SOL     OW22179   1.251   5.286   9.862 -0.1017  0.6638  0.3542
 6196SOL    HW122180   1.319   5.342   9.899  1.8389 -0.1188 -1.7655
 6196SOL    HW222181   1.172   5.340   9.861  1.2875  2.7848 -0.1005
 6197SOL     OW22182   7.211   3.832   4.143  0.4407  0.1654  0.0732
 6197SOL    HW122183   7.293   3.823   4.191 -0.2389 -1.8810  0.9724
 6197SOL    HW222184   7.143   3.810   4.207 -0.7607  0.9205 -0.8922
 6198SOL     OW22185   2.972   1.263   2.694  0.6139 -0.1747  0.3827
 6198SOL    HW122186   3.041   1.210   2.733 -0.3555 -2.1438 -0.4475
 6198SOL    HW222187   3.010   1.294   2.611 -0.5750 -4.5086 -2.0922
 6199SOL     OW22188  10.631   5.342   6.370  0.5453  0.3208  0.2205
 6199SOL    HW122189  10.569   5.327   6.299 -1.4637 -0.8395  2.0856
 6199SOL    HW222190  10.655   5.434   6.362 -1.6972  0.9102 -0.4217
 6200SOL     OW22191   5.775   5.010  10.459  0.1539  0.1345 -0.3111
 6200SOL    HW122192   5.731   5.041  10.538  0.7332  0.7745 -0.2272
 6200SOL    HW222193   5.760   4.916  10.457  0.3657  0.0740  0.7096
 6201SOL     OW22194   0.573   0.296   0.073 -0.5387  0.2033  0.1047
 6201SOL    HW122195   0.498   0.289   0.014  1.6084 -0.2404 -2.8082
 6201SOL    HW222196   0.591   0.205   0.098  0.3211  0.0281 -1.0573
 6202SOL     OW22197   4.460   6.508   2.204  0.8031  0.3830 -0.2890
 6202SOL    HW122198   4.517   6.573   2.245  0.1671  0.0378  1.2064
 6202SOL    HW222199   4.407   6.558   2.141  0.6667  1.2271  0.4815
 6203SOL     OW22200   7.231   7.163   8.717 -0.6159 -0.2666 -0.3279
 6203SOL    HW122201   7.137   7.153   8.702 -0.5191 -0.0581 -1.0885
 6203SOL    HW222202   7.269   7.173   8.630  0.0132  0.5354  0.0253
 6204SOL     OW22203   8.649   5.529   0.389 -0.0927  0.2614  0.3069
 6204SOL    HW122204   8.598   5.605   0.360 -2.1176 -1.7888 -1.9131
 6204SOL    HW222205   8.669   5.481   0.309 -0.2377 -2.3537  1.7339
 6205SOL     OW22206   6.243  11.040   2.911  0.2418  0.0172 -0.2549
 6205SOL    HW122207   6.167  11.097   2.899 -0.9350 -1.2673  0.8265
 6205SOL    HW222208   6.297  11.058   2.834 -0.6477  1.7051 -0.5477
 6206SOL     OW22209  10.918   6.370   5.545 -0.0426  0.3166 -0.3780
 6206SOL    HW122210  10.943   6.338   5.632  0.4878  0.3954 -0.5014
 6206SOL    HW222211  10.992   6.346   5.489 -1.3720 -1.9282 -1.3272
 6207SOL     OW22212   1.010   9.924  10.642  0.3564 -0.3240 -0.2876
 6207SOL    HW122213   1.059   9.953  10.720  2.7473  0.3300 -1.9115
 6207SOL    HW222214   0.979  10.005  10.602 -1.2684 -0.6861  0.1821
 6208SOL     OW22215  10.760   5.581   3.550 -0.1991  0.3744 -0.5830
 6208SOL    HW122216  10.840   5.590   3.498 -0.6524 -3.4429 -2.3252
 6208SOL    HW222217  10.788   5.534   3.629 -0.4743  0.3818 -0.4813
 6209SOL     OW22218   5.542   4.819   2.127  0.2571  0.3053 -0.1084
 6209SOL    HW122219   5.462   4.807   2.077  0.2244  0.7176 -0.1596
 6209SOL    HW222220   5.613   4.805   2.064  0.2554 -1.0718  0.1583
 6210SOL     OW22221   3.416   9.562   8.002 -1.0494  0.3259  0.0937
 6210SOL    HW122222   3.447   9.522   8.083  0.3139  2.2921  0.6216
 6210SOL    HW222223   3.470   9.522   7.933  0.4496  1.3146  0.6356
 6211SOL     OW22224   8.310   1.603   0.714  0.3484 -0.6138  0.7705
 6211SOL    HW122225   8.396   1.636   0.740  0.4220 -0.1149 -0.0536
 6211SOL    HW222226   8.255   1.615   0.791  0.5981  0.6321  0.7816
 6212SOL     OW22227   0.544   3.954  10.906 -0.3247  0.3215  0.1689
 6212SOL    HW122228   0.504   4.001  10.833  0.5972 -1.5012 -1.5760
 6212SOL    HW222229   0.542   3.862  10.880 -0.7619 -0.5086  2.8530
 6213SOL     OW22230   2.896  10.876   6.669 -0.1502 -0.0511 -0.3735
 6213SOL    HW122231   2.845  10.954   6.690  0.2913  0.2756 -0.4911
 6213SOL    HW222232   2.842  10.829   6.606  0.1774  0.8490 -1.3543
 6214SOL     OW22233   1.255   9.152   1.309 -0.0639 -0.0993  1.2331
 6214SOL    HW122234   1.280   9.061   1.296  0.6291  0.1416  0.8438
 6214SOL    HW222235   1.163   9.156   1.284  0.1862 -0.4742  0.2116
 6215SOL     OW22236  10.682   1.029   0.668 -0.4519  0.4377  0.5953
 6215SOL    HW122237  10.633   0.978   0.604  1.3215  0.0605 -0.5318
 6215SOL    HW222238  10.660   1.120   0.648 -0.2471  0.3011 -0.2612
 6216SOL     OW22239   1.800   4.331   4.788 -0.5154 -0.1956  0.0526
 6216SOL    HW122240   1.717   4.367   4.820 -1.1403 -1.9236  0.4821
 6216SOL    HW222241   1.847   4.305   4.867 -0.4919 -1.1626 -0.2681
 6217SOL     OW22242  10.064   4.617   2.962 -0.5352 -0.0107 -0.0952
 6217SOL    HW122243  10.045   4.557   2.890 -0.6560  0.3000 -0.3271
 6217SOL    HW222244  10.013   4.584   3.035 -1.9135  0.7430 -0.6791
 6218SOL     OW22245   0.054   4.554   0.098 -0.2973  0.2571  0.1866
 6218SOL    HW122246   0.105   4.543   0.178  0.0491  0.9727  0.0703
 6218SOL    HW222247  -0.009   4.622   0.119 -0.0821  0.5792 -0.2098
 6219SOL     OW22248   9.763   8.968   6.107  0.0329  0.0372  0.4446
 6219SOL    HW122249   9.731   8.882   6.077 -0.0252  0.4558 -0.7482
 6219SOL    HW222250   9.793   8.952   6.196 -2.7489 -0.5676  1.3913
 6220SOL     OW22251   8.904   4.857   3.552  0.6650 -0.9605  0.4265
 6220SOL    HW122252   8.821   4.905   3.549  0.8261 -0.7216 -0.4625
 6220SOL    HW222253   8.881   4.768   3.526  0.7817 -0.7442 -0.4422
 6221SOL     OW22254   8.552   6.007   5.566  0.4540 -0.0528  0.0352
 6221SOL    HW122255   8.491   5.949   5.611 -0.9114  0.0375 -1.5817
 6221SOL    HW222256   8.629   5.953   5.548 -0.5336 -1.2146 -0.8723
 6222SOL     OW22257   4.341  10.042   0.089 -0.2786 -0.3727  0.2623
 6222SOL    HW122258   4.355  10.010   0.178  2.8033  0.9147  0.3784
 6222SOL    HW222259   4.256  10.008   0.064  0.8853 -5.1304  1.8136
 6223SOL     OW22260   9.826   0.543   9.806  0.0781  0.2328 -0.0725
 6223SOL    HW122261   9.849   0.451   9.811 -0.7675 -0.0182 -0.6038
 6223SOL    HW222262   9.732   0.546   9.823  0.2803  1.1153  1.0092
 6224SOL     OW22263   7.157   1.950   9.571 -0.3369  0.6360  0.0272
 6224SOL    HW122264   7.251   1.963   9.584 -0.5286  0.0387  2.7047
 6224SOL    HW222265   7.120   2.038   9.577  0.0167  0.8655 -0.9711
 6225SOL     OW22266  10.458   8.273   1.289  0.3999  0.4148  0.3333
 6225SOL    HW122267  10.490   8.324   1.363  0.9585  1.8684 -0.8507
 6225SOL    HW222268  10.518   8.294   1.218 -0.1447 -0.9058 -0.5567
 6226SOL     OW22269   1.012   7.572   1.308  0.2385 -0.3030 -0.1360
 6226SOL    HW122270   1.041   7.482   1.323  0.2232  0.0524  2.3781
 6226SOL    HW222271   0.921   7.563   1.278  0.4557 -1.1236 -0.5944
 6227SOL     OW22272   7.937   0.913   7.910 -0.2551  0.1268  0.2440
 6227SOL    HW122273   7.865   0.969   7.939 -0.6717 -1.0318  1.5238
 6227SOL    HW222274   7.994   0.972   7.860 -0.9448  1.5626  1.0929
 6228SOL     OW22275   8.546   3.157   1.056 -0.1805 -0.0639  0.2534
 6228SOL    HW122276   8.606   3.096   1.098 -0.1124 -0.2879 -0.1664
 6228SOL    HW222277   8.465   3.106   1.044  0.0828 -0.2725 -0.6762
 6229SOL     OW22278   5.080   6.232   4.996  0.1127 -0.6591 -0.0280
 6229SOL    HW122279   5.050   6.321   5.011 -0.8498 -0.9610 -0.0991
 6229SOL    HW222280   5.173   6.241   4.972  0.3640  0.2091  1.2144
 6230SOL     OW22281   9.893   8.476   1.736  0.0143  0.0007  0.6472
 6230SOL    HW122282   9.930   8.561   1.760  0.8654 -0.3125  0.4952
 6230SOL    HW222283   9.967   8.427   1.702 -0.5063 -0.7446  0.5627
 6231SOL     OW22284   5.424   1.726   5.801 -0.0421 -1.0470 -0.5341
 6231SOL    HW122285   5.405   1.635   5.776  1.2059 -0.9625 -1.8530
 6231SOL    HW222286   5.398   1.730   5.893 -2.7434 -1.9560 -1.1525
 6232SOL     OW22287   9.290   3.932   8.375 -0.6896  0.0997  0.6070
 6232SOL    HW122288   9.204   3.891   8.375 -0.3000 -0.8228  2.3727
 6232SOL    HW222289   9.337   3.889   8.303 -0.8452 -1.3931  1.3563
 6233SOL     OW22290   8.994   8.514   3.682 -0.4185  0.3078  0.2113
 6233SOL    HW122291   8.913   8.549   3.719 -0.3119  0.9962 -0.1950
 6233SOL    HW222292   9.017   8.575   3.612  0.1273 -0.2170 -0.0775
 6234SOL     OW22293   3.201   4.256   5.850  0.0293  0.0386 -0.1201
 6234SOL    HW122294   3.225   4.287   5.763 -3.8677 -0.4525 -1.5942
 6234SOL    HW222295   3.144   4.324   5.886 -0.2921 -0.7889  1.0270
 6235SOL     OW22296   8.969   1.398   8.876 -0.4960 -0.6655  0.2921
 6235SOL    HW122297   9.006   1.473   8.923 -2.0203  0.0880  0.3626
 6235SOL    HW222298   8.989   1.415   8.784 -1.2027  0.0577  0.2653
 6236SOL     OW22299   4.718   2.886   0.995  0.5254  0.0972 -0.2752
 6236SOL    HW122300   4.804   2.843   0.997 -0.0374 -1.0725 -0.3966
 6236SOL    HW222301   4.710   2.919   0.906  0.4795 -0.6153 -0.5483
 6237SOL     OW22302   9.244   9.766   3.314 -0.4075  0.2237 -0.5806
 6237SOL    HW122303   9.325   9.775   3.364  0.5348  0.7206 -2.1199
 6237SOL    HW222304   9.218   9.856   3.294 -0.5855  0.0348 -1.2377
 6238SOL     OW22305   9.132   3.507   9.562  0.2620 -1.1241 -0.4235
 6238SOL    HW122306   9.077   3.550   9.497  2.2834  1.0064 -0.8523
 6238SOL    HW222307   9.084   3.518   9.644  0.5755  1.9314 -0.5448
 6239SOL     OW22308   4.556   9.091   8.241  0.5427  0.2228  0.0974
 6239SOL    HW122309   4.501   9.118   8.314  0.0453 -0.4050 -0.0396
 6239SOL    HW222310   4.626   9.040   8.282 -0.5347 -1.3745  0.0212
 6240SOL     OW22311   6.915   2.890   5.375  0.4774 -0.6255  0.1901
 6240SOL    HW122312   7.000   2.845   5.369  1.4317  1.0941  0.1104
 6240SOL    HW222313   6.928   2.955   5.444 -1.2546 -1.2419  1.1454
 6241SOL     OW22314   9.037   9.100   3.299  0.1477 -0.0515  0.3255
 6241SOL    HW122315   9.014   9.052   3.220 -2.4418  1.5742 -0.0261
 6241SOL    HW222316   9.108   9.048   3.339 -0.3499 -2.3887 -1.5915
 6242SOL     OW22317   7.598  10.148   2.383 -0.2119 -0.0209 -0.1907
 6242SOL    HW122318   7.551  10.221   2.422  0.7381  0.8914 -0.6838
 6242SOL    HW222319   7.569  10.147   2.292 -0.3778 -0.3973 -0.1352
 6243SOL     OW22320   7.721   2.507   8.908 -0.0684 -0.1323 -0.0956
 6243SOL    HW122321   7.663   2.583   8.912  1.4517  1.0440  2.2858
 6243SOL    HW222322   7.681   2.444   8.968 -0.6123 -0.7071 -1.0374
 6244SOL     OW22323   7.880  10.247   0.756 -0.0186  0.2371 -0.0743
 6244SOL    HW122324   7.828  10.167   0.760 -0.9179  0.7642 -0.7509
 6244SOL    HW222325   7.870  10.287   0.843 -1.1283  0.5552 -0.3371
 6245SOL     OW22326   8.899   2.701   9.145 -0.4194 -0.0235 -0.1011
 6245SOL    HW122327   8.831   2.730   9.084  0.0030  1.5326  0.1286
 6245SOL    HW222328   8.851   2.659   9.216 -1.1564  1.1561  0.1113
 6246SOL     OW22329   1.333   3.913   1.890 -0.2739 -0.1588 -0.2077
 6246SOL    HW122330   1.418   3.918   1.935  0.7896 -1.9621 -1.9114
 6246SOL    HW222331   1.275   3.964   1.947  1.6414  0.1448  1.6558
 6247SOL     OW22332   0.582   0.840   4.005 -0.0001 -0.2965 -0.1877
 6247SOL    HW122333   0.595   0.785   4.082 -2.7216  0.4936  0.9385
 6247SOL    HW222334   0.552   0.924   4.040 -0.7376  0.2753 -2.0780
 6248SOL     OW22335   5.609   0.050   9.031 -0.2587  0.8693  0.8149
 6248SOL    HW122336   5.546   0.063   8.960 -1.4172 -0.1522  1.6228
 6248SOL    HW222337   5.663  -0.024   9.002 -0.6564  0.5278  0.9435
 6249SOL     OW22338   6.188   6.151   7.338  0.0844 -0.2966  0.0169
 6249SOL    HW122339   6.158   6.114   7.255  0.8370 -0.3177 -0.2625
 6249SOL    HW222340   6.260   6.210   7.313 -1.7568  2.2322  0.3419
 6250SOL     OW22341   9.154   6.762  10.703  0.4622  0.2530 -0.0713
 6250SOL    HW122342   9.180   6.850  10.729  1.5507 -0.2980  0.7799
 6250SOL    HW222343   9.061   6.770  10.679  0.1370  1.3287  1.4254
 6251SOL     OW22344   4.741  10.608   7.786  0.0376 -0.7805  0.1854
 6251SOL    HW122345   4.820  10.600   7.732 -0.5623 -0.9916 -0.6783
 6251SOL    HW222346   4.699  10.689   7.755  1.0338  0.6083  2.1706
 6252SOL     OW22347   8.688  10.727   3.645  0.6101  0.6392 -0.6568
 6252SOL    HW122348   8.616  10.790   3.652 -1.7054 -1.6484 -1.8984
 6252SOL    HW222349   8.726  10.743   3.559  1.5912  1.7739 -0.0455
 6253SOL     OW22350   5.600   3.506   9.122  0.2639  0.1725  0.5035
 6253SOL    HW122351   5.564   3.578   9.174  0.5087 -0.6330  1.8243
 6253SOL    HW222352   5.662   3.548   9.062 -2.3212  1.5417 -1.4195
 6254SOL     OW22353   8.599   8.985   7.783 -0.1565  0.4490 -0.1469
 6254SOL    HW122354   8.674   9.027   7.826  0.3201  0.2500 -0.7717
 6254SOL    HW222355   8.584   8.906   7.835  0.7746 -0.0822 -0.6411
 6255SOL     OW22356   1.081   4.464   7.583 -0.2619 -0.2339 -0.1521
 6255SOL    HW122357   1.174   4.440   7.575 -0.2943 -0.5553  0.4202
 6255SOL    HW222358   1.035   4.398   7.532 -0.2801 -0.9026  0.7042
 6256SOL     OW22359   3.087   3.764   3.845 -0.3216 -0.2364 -0.0874
 6256SOL    HW122360   3.019   3.699   3.859 -0.1116 -0.4153  0.1117
 6256SOL    HW222361   3.055   3.818   3.773 -0.7901 -0.1593  0.1739
 6257SOL     OW22362   5.126   0.035   8.839  0.3468  0.2290 -0.4187
 6257SOL    HW122363   5.064   0.107   8.853  0.4388  0.3014 -0.3818
 6257SOL    HW222364   5.116   0.013   8.747 -0.5831 -0.5413 -0.1593
 6258SOL     OW22365   2.278   9.632  10.009 -0.2401 -0.0831 -0.5540
 6258SOL    HW122366   2.188   9.654   9.983  0.2933  0.9771 -1.6332
 6258SOL    HW222367   2.280   9.644  10.104 -1.1443  0.2414 -0.5707
 6259SOL     OW22368   7.202  10.621   4.423 -0.0490  0.2327 -0.5439
 6259SOL    HW122369   7.135  10.620   4.356  0.3113 -1.3372 -0.9184
 6259SOL    HW222370   7.197  10.709   4.461 -1.5178  0.5169 -1.3330
 6260SOL     OW22371   1.616   8.977   3.912 -0.1383  0.6589 -0.2741
 6260SOL    HW122372   1.637   8.894   3.870 -2.4046 -0.4926  0.6929
 6260SOL    HW222373   1.634   8.963   4.004 -0.0690  1.4171 -0.1627
 6261SOL     OW22374   3.343   4.366  10.760  0.9464 -0.1946  0.3065
 6261SOL    HW122375   3.411   4.325  10.814  1.5119  0.6538  0.2608
 6261SOL    HW222376   3.285   4.294  10.737  1.3424 -0.7867  1.0784
 6262SOL     OW22377   7.253  11.033   6.041 -0.2883 -0.2302 -0.2338
 6262SOL    HW122378   7.313  10.979   6.093 -0.9288 -1.4074 -0.7000
 6262SOL    HW222379   7.186  11.061   6.104 -0.0495 -0.1009 -0.0322
 6263SOL     OW22380   6.313   0.198   6.468  0.2007 -0.1569  0.9195
 6263SOL    HW122381   6.314   0.205   6.564  1.9201  0.5755  0.8826
 6263SOL    HW222382   6.280   0.110   6.451 -1.0979  0.0557  2.1360
 6264SOL     OW22383  10.726   6.280   3.275  0.3318 -0.3436  0.0993
 6264SOL    HW122384  10.754   6.198   3.235  0.5600  0.5523 -1.6376
 6264SOL    HW222385  10.808   6.326   3.293  0.1468  0.1990 -0.4473
 6265SOL     OW22386   3.008   9.581   5.448 -0.2469  0.5535  0.2406
 6265SOL    HW122387   2.913   9.571   5.457 -0.3470  0.5361 -0.7262
 6265SOL    HW222388   3.027   9.549   5.360  0.9761 -1.5290  1.2043
 6266SOL     OW22389   0.468   8.761  10.907 -0.0320  0.0038  0.3562
 6266SOL    HW122390   0.389   8.711  10.886  0.2273  0.1361 -1.0647
 6266SOL    HW222391   0.538   8.696  10.909  0.2795  0.2141 -1.3415
 6267SOL     OW22392   3.712   9.396  10.767 -0.0415  0.5959  0.1340
 6267SOL    HW122393   3.743   9.371  10.854 -0.2982  0.1909  0.1120
 6267SOL    HW222394   3.618   9.377  10.768 -0.1963  1.3268  0.0277
 6268SOL     OW22395   6.104   6.096   9.610  0.4877 -0.3654  0.2909
 6268SOL    HW122396   6.083   6.178   9.565 -1.2368 -0.9894 -0.1256
 6268SOL    HW222397   6.083   6.112   9.701 -1.0060 -0.6812  0.0245
 6269SOL     OW22398   7.781   1.134   1.511 -0.1346 -0.2030 -0.5686
 6269SOL    HW122399   7.714   1.067   1.504 -0.6554  0.3963 -1.5124
 6269SOL    HW222400   7.859   1.095   1.470  0.2476 -1.0461  0.8780
 6270SOL     OW22401   0.988   8.434   1.500  0.2206  0.0588  0.0289
 6270SOL    HW122402   0.920   8.475   1.553  0.1142 -1.9967  1.6282
 6270SOL    HW222403   1.069   8.477   1.528  0.1297 -0.7800  1.7384
 6271SOL     OW22404   4.343   3.570   1.022 -0.3813 -0.3140  0.1196
 6271SOL    HW122405   4.358   3.664   1.018  0.9229 -0.5102 -0.5942
 6271SOL    HW222406   4.353   3.541   0.931 -1.9925 -0.9867  0.1352
 6272SOL     OW22407   8.569   1.493   0.952  0.5368  0.4408  0.1236
 6272SOL    HW122408   8.559   1.550   0.876  1.2505  1.4970  0.8026
 6272SOL    HW222409   8.625   1.541   1.012  0.2968 -0.5316  1.1775
 6273SOL     OW22410   9.793   1.965  10.452 -0.5528  0.1526 -0.0057
 6273SOL    HW122411   9.737   1.919  10.515 -1.2616  1.5466  0.4214
 6273SOL    HW222412   9.734   2.027  10.408  0.2364  0.2134 -1.0273
 6274SOL     OW22413   8.587   1.078   6.176  0.2266 -0.0584 -0.3529
 6274SOL    HW122414   8.501   1.049   6.145 -0.6737 -1.6808  3.1796
 6274SOL    HW222415   8.646   1.004   6.157 -0.0672 -0.5631  0.6223
 6275SOL     OW22416   2.115  10.521   6.670  0.5660  0.6898 -0.3869
 6275SOL    HW122417   2.040  10.581   6.668  0.4940  0.6991  1.3545
 6275SOL    HW222418   2.186  10.574   6.706  0.4758 -0.2486  1.2720
 6276SOL     OW22419   4.241   5.332   0.393 -0.3563 -0.2565 -0.2420
 6276SOL    HW122420   4.173   5.266   0.385 -1.9280  1.0867  1.0758
 6276SOL    HW222421   4.264   5.331   0.486 -0.1132  0.7402 -0.2780
 6277SOL     OW22422   5.747   2.211   9.800  0.2515  0.6203  0.2763
 6277SOL    HW122423   5.739   2.288   9.745 -0.7834  0.2437 -0.1354
 6277SOL    HW222424   5.679   2.222   9.867 -0.4206 -0.2724 -0.2324
 6278SOL     OW22425  10.553  10.595   1.280  0.2028 -0.4931  0.0457
 6278SOL    HW122426  10.627  10.656   1.283 -0.1098 -0.1681  1.5664
 6278SOL    HW222427  10.532  10.577   1.371 -0.9606 -1.3682 -0.3676
 6279SOL     OW22428   2.712   7.466   6.812  0.2558 -0.2672 -0.1342
 6279SOL    HW122429   2.687   7.555   6.787 -1.5004 -0.6320  0.1700
 6279SOL    HW222430   2.699   7.414   6.732 -0.2289 -0.4952  0.0813
 6280SOL     OW22431   3.046   0.319   2.386  0.1600  0.5531 -0.3127
 6280SOL    HW122432   3.132   0.287   2.413  1.3493  2.4007 -1.6545
 6280SOL    HW222433   3.008   0.246   2.337  0.3527 -0.7665  1.3984
 6281SOL     OW22434  10.363   9.421   4.817  0.2556  0.3671  0.6948
 6281SOL    HW122435  10.388   9.359   4.748  2.0139  0.3962  1.2598
 6281SOL    HW222436  10.268   9.416   4.819  0.2962 -1.8049  0.2430
 6282SOL     OW22437   6.461   5.822   0.498 -0.2548 -0.2568  0.3334
 6282SOL    HW122438   6.461   5.746   0.556  0.9572 -1.3350 -1.0042
 6282SOL    HW222439   6.385   5.809   0.441 -0.1529 -0.3874  0.2248
 6283SOL     OW22440   3.126  10.758  10.560 -0.3433  0.5688 -0.3623
 6283SOL    HW122441   3.114  10.778  10.653 -0.3586  0.6630 -0.3845
 6283SOL    HW222442   3.123  10.843  10.517  1.2564  0.7041 -0.2778
 6284SOL     OW22443   3.695   2.090   2.816 -0.3026  0.3986 -0.1959
 6284SOL    HW122444   3.628   2.157   2.823  0.1798  1.0656 -1.6110
 6284SOL    HW222445   3.733   2.102   2.729  1.2556 -0.3298  0.3317
 6285SOL     OW22446   7.819   2.565   0.429 -0.0549  0.2637 -0.2031
 6285SOL    HW122447   7.766   2.510   0.487 -1.9425  1.6236 -0.5484
 6285SOL    HW222448   7.756   2.606   0.370  1.7226 -0.4397 -2.7493
 6286SOL     OW22449  10.793   1.985   2.068 -0.2023  0.6375  0.4944
 6286SOL    HW122450  10.726   2.049   2.041 -1.2441 -0.5678  0.1046
 6286SOL    HW222451  10.771   1.906   2.019  1.8993  0.3632 -0.0978
 6287SOL     OW22452   0.707   7.841   0.066  0.2013 -0.7738  0.2500
 6287SOL    HW122453   0.733   7.858  -0.024  0.3428  0.5768  0.5204
 6287SOL    HW222454   0.754   7.761   0.090  0.4513 -0.9355 -0.7450
 6288SOL     OW22455   3.061   4.327   9.249 -0.4317 -0.2548 -0.0078
 6288SOL    HW122456   2.996   4.397   9.243  0.6387  0.7654  0.1599
 6288SOL    HW222457   3.144   4.369   9.229  0.5104 -1.0340  1.9804
 6289SOL     OW22458   3.212   8.815  10.165  0.2333 -0.6405  0.8166
 6289SOL    HW122459   3.213   8.898  10.117 -1.9902 -1.3282 -0.5583
 6289SOL    HW222460   3.303   8.785  10.162  0.8524  1.1320  0.2805
 6290SOL     OW22461   7.111  10.039   3.591  0.1440  0.2092 -0.6805
 6290SOL    HW122462   7.165  10.020   3.515  1.8814 -0.5552  0.6791
 6290SOL    HW222463   7.101   9.954   3.635 -1.9310  0.3844 -0.6928
 6291SOL     OW22464   1.288   5.759  10.394  0.1066  0.7820  0.4145
 6291SOL    HW122465   1.216   5.823  10.402 -0.3357  0.3157  0.1851
 6291SOL    HW222466   1.284   5.709  10.476 -1.8025 -1.2660 -0.8110
 6292SOL     OW22467   4.773   3.696   3.983  0.1997 -0.6428 -0.4276
 6292SOL    HW122468   4.792   3.786   4.008 -1.2825 -0.4698  0.1584
 6292SOL    HW222469   4.767   3.648   4.065  0.2043 -1.1052 -0.6918
 6293SOL     OW22470   4.582   1.918   1.274 -0.1074 -0.2394 -0.0662
 6293SOL    HW122471   4.613   1.884   1.190 -2.8339 -2.4067 -0.3312
 6293SOL    HW222472   4.528   1.994   1.251 -0.3115 -0.4341 -0.2358
 6294SOL     OW22473  10.387  10.739   8.730  0.3292  0.0912 -0.3039
 6294SOL    HW122474  10.399  10.825   8.691 -1.0890  0.4608 -0.0012
 6294SOL    HW222475  10.458  10.686   8.694  0.1726  0.9095 -1.9302
 6295SOL     OW22476   1.627   2.187   8.140 -0.2101 -0.4177  0.1403
 6295SOL    HW122477   1.581   2.152   8.063  0.7267 -0.0845 -0.5839
 6295SOL    HW222478   1.674   2.112   8.176  1.6241 -0.0182 -1.2855
 6296SOL     OW22479  10.233   7.494   3.772 -0.8287  0.3656 -0.4412
 6296SOL    HW122480  10.246   7.588   3.762  1.2745  0.3939  1.6595
 6296SOL    HW222481  10.157   7.474   3.718 -0.8218  3.1077 -1.6066
 6297SOL     OW22482   2.926   0.077   2.285  0.4186 -0.8346 -0.0363
 6297SOL    HW122483   2.857   0.065   2.351  0.9890 -0.4485  0.6505
 6297SOL    HW222484   2.879   0.102   2.206 -0.1138  1.8563  1.0315
 6298SOL     OW22485   3.190   4.521   2.894  0.6832 -0.7997  0.1915
 6298SOL    HW122486   3.217   4.429   2.886 -1.4976 -1.4836  0.2404
 6298SOL    HW222487   3.251   4.558   2.958  2.1674 -1.9542 -0.4811
 6299SOL     OW22488  10.782   7.768   5.172 -0.3358  0.4386  0.5157
 6299SOL    HW122489  10.729   7.724   5.105  0.4806 -0.6541  0.5437
 6299SOL    HW222490  10.731   7.845   5.197 -0.9452  0.5394 -0.9212
 6300SOL     OW22491   3.534  10.808   0.770  0.3822  0.2465 -0.2460
 6300SOL    HW122492   3.468  10.876   0.760  0.1537 -0.0346 -0.6801
 6300SOL    HW222493   3.516  10.746   0.700  0.1950 -0.5838  0.5100
 6301SOL     OW22494   8.328   7.539   7.983  0.8379  0.1197  0.0519
 6301SOL    HW122495   8.286   7.456   7.961 -1.6158  1.0740  0.8311
 6301SOL    HW222496   8.335   7.586   7.900  0.0419  0.0782 -0.0379
 6302SOL     OW22497   4.214   5.469   3.155 -0.3659  0.4829 -0.4186
 6302SOL    HW122498   4.142   5.420   3.197  0.3190 -0.5811 -0.4502
 6302SOL    HW222499   4.228   5.424   3.072  3.1393 -2.1243  1.3379
 6303SOL     OW22500   4.723   3.383  10.124  0.0533  0.3469  0.1925
 6303SOL    HW122501   4.653   3.409  10.063  1.6099  3.3068 -0.5205
 6303SOL    HW222502   4.799   3.368  10.068  1.0410  1.2736  1.2503
 6304SOL     OW22503  10.898   0.160   7.140  0.1531  0.0062  0.1499
 6304SOL    HW122504  10.973   0.150   7.198 -0.4106 -0.3795  0.8283
 6304SOL    HW222505  10.866   0.249   7.157  0.1858  0.0099  0.1905
 6305SOL     OW22506  10.701   1.463   3.734  0.3840  0.1236 -0.0198
 6305SOL    HW122507  10.702   1.373   3.703 -1.5411 -1.0878  2.9386
 6305SOL    HW222508  10.766   1.465   3.805 -0.3470  0.7080  0.6568
 6306SOL     OW22509   5.782   0.335   0.006  0.2278  0.4094 -0.3039
 6306SOL    HW122510   5.818   0.248   0.023 -1.3009 -0.5222 -1.5599
 6306SOL    HW222511   5.699   0.336   0.053 -0.7745  0.3679 -2.0221
 6307SOL     OW22512   7.666   3.945   0.406 -0.4252 -0.6145 -0.1950
 6307SOL    HW122513   7.754   3.908   0.409  0.1131  0.6380  0.3408
 6307SOL    HW222514   7.631   3.933   0.494  0.2583  1.2398  0.3755
 6308SOL     OW22515   3.848   2.646   9.530 -0.0433 -0.3069 -0.5387
 6308SOL    HW122516   3.810   2.694   9.456 -0.4927 -0.9544 -0.7376
 6308SOL    HW222517   3.801   2.678   9.607  0.3985  0.3411 -0.5249
 6309SOL     OW22518   8.041   2.386   0.333  0.0157 -0.4796 -0.2528
 6309SOL    HW122519   7.989   2.461   0.304  0.3625  0.0753  0.5242
 6309SOL    HW222520   8.008   2.368   0.421  2.3819  1.0946  1.0533
 6310SOL     OW22521   3.387   3.234   6.966 -0.1803 -0.2754 -0.1557
 6310SOL    HW122522   3.304   3.201   7.000  0.1596 -0.4940  0.4695
 6310SOL    HW222523   3.363   3.310   6.914 -0.8105 -0.5627 -0.2960
 6311SOL     OW22524   3.343   7.698   9.719  0.3800 -0.3768  0.5599
 6311SOL    HW122525   3.274   7.650   9.675 -0.3633  0.7223  0.4979
 6311SOL    HW222526   3.387   7.747   9.650 -1.2878  1.9666  1.0481
 6312SOL     OW22527  11.084   3.005   7.548  0.1928  0.0434  0.2602
 6312SOL    HW122528  10.992   3.012   7.572 -0.2516  0.9637 -1.5595
 6312SOL    HW222529  11.105   3.089   7.507  1.8635 -0.1413  0.6383
 6313SOL     OW22530   9.685   0.676   5.674 -0.7504 -0.2007  0.2772
 6313SOL    HW122531   9.765   0.670   5.725 -0.2615  0.2879 -0.4210
 6313SOL    HW222532   9.645   0.589   5.682 -1.2858  0.1844  2.4119
 6314SOL     OW22533   2.023   1.223   2.481  0.5227 -0.0044  0.6706
 6314SOL    HW122534   1.929   1.207   2.477  0.7552 -1.8363  1.3784
 6314SOL    HW222535   2.046   1.250   2.392 -0.6846  0.6422  0.5352
 6315SOL     OW22536   4.165   2.636   9.560 -0.2857  0.2661 -0.4121
 6315SOL    HW122537   4.184   2.612   9.469 -0.8742  0.2220 -0.5308
 6315SOL    HW222538   4.070   2.647   9.562 -0.3891 -0.6396  0.4105
 6316SOL     OW22539   0.228   6.920   0.488  0.2420 -0.4807 -0.6343
 6316SOL    HW122540   0.220   6.985   0.418 -1.7132 -1.6630 -1.5945
 6316SOL    HW222541   0.236   6.837   0.443 -1.4592 -1.3240  0.5153
 6317SOL     OW22542   0.168   7.507   3.616 -0.2569 -0.6107 -0.0656
 6317SOL    HW122543   0.251   7.547   3.590 -0.4701  0.2656  0.5403
 6317SOL    HW222544   0.106   7.533   3.547 -0.2145 -0.5603 -0.0851
 6318SOL     OW22545   1.773   0.548   4.402  0.2352  0.1218 -0.1616
 6318SOL    HW122546   1.703   0.501   4.447 -0.2678  0.8159 -0.2079
 6318SOL    HW222547   1.793   0.494   4.325 -0.3265 -0.0251 -0.2070
 6319SOL     OW22548   8.674   2.727   4.265  0.4973 -0.0603 -0.3672
 6319SOL    HW122549   8.589   2.683   4.271 -0.1986  0.9712 -2.1208
 6319SOL    HW222550   8.733   2.658   4.234 -0.0149 -0.4036 -0.6021
 6320SOL     OW22551   3.454   9.197   2.130 -0.1768 -0.5646 -0.0414
 6320SOL    HW122552   3.517   9.246   2.183 -0.4192 -0.8236  0.4834
 6320SOL    HW222553   3.398   9.265   2.093 -0.0844 -0.3919  0.1313
 6321SOL     OW22554   0.470   4.876   0.235 -0.1253 -0.8998  0.1261
 6321SOL    HW122555   0.483   4.947   0.172 -1.5292 -0.7038  0.0216
 6321SOL    HW222556   0.536   4.810   0.211 -0.7735 -0.9396 -1.7359
 6322SOL     OW22557   2.140   8.267   1.792  0.2947  0.2596  0.4394
 6322SOL    HW122558   2.076   8.199   1.770  0.6264  0.5324 -1.5505
 6322SOL    HW222559   2.169   8.302   1.708  1.1919  1.9083  1.3663
 6323SOL     OW22560  10.379   5.965  10.028  0.5766 -0.3952 -0.7036
 6323SOL    HW122561  10.322   6.026   9.981  1.4381  0.5290 -0.5632
 6323SOL    HW222562  10.376   5.994  10.118  0.9658 -0.5926 -0.6259
 6324SOL     OW22563   9.199   9.760   2.066 -0.9219 -0.4998 -0.1490
 6324SOL    HW122564   9.120   9.754   2.012 -0.2870 -0.0175 -1.1509
 6324SOL    HW222565   9.252   9.828   2.024  0.2464 -1.1497  0.2349
 6325SOL     OW22566  10.303   2.599   0.105  0.4985  0.2529  0.1288
 6325SOL    HW122567  10.387   2.628   0.139  1.9004  0.5474 -3.1648
 6325SOL    HW222568  10.322   2.517   0.060 -1.3722 -0.5867  0.7698
 6326SOL     OW22569   6.253   8.823   4.880  0.2831  0.2623  0.5158
 6326SOL    HW122570   6.277   8.875   4.804 -1.4816 -0.4054 -0.5629
 6326SOL    HW222571   6.178   8.870   4.918  1.6107  1.0204  2.3742
 6327SOL     OW22572   5.773   9.338   3.399 -0.3534 -0.5901 -0.6619
 6327SOL    HW122573   5.727   9.337   3.315  0.9723  0.5408 -1.4387
 6327SOL    HW222574   5.705   9.321   3.464 -1.9858  1.3702 -1.7314
 6328SOL     OW22575   3.229   4.693   2.595 -0.1858 -0.0690 -0.7165
 6328SOL    HW122576   3.196   4.772   2.638 -0.4679  0.4128 -1.7787
 6328SOL    HW222577   3.304   4.666   2.648 -2.7402 -1.7612  2.3781
 6329SOL     OW22578   9.386   3.767   4.969 -0.0951  0.0079 -0.3296
 6329SOL    HW122579   9.405   3.819   4.891 -2.9908  2.6696  0.5089
 6329SOL    HW222580   9.293   3.745   4.961  0.1757 -1.9964  1.1665
 6330SOL     OW22581   3.444   4.916   7.775  0.2887 -0.1705  0.6412
 6330SOL    HW122582   3.523   4.867   7.753  1.1274  0.6771  1.6698
 6330SOL    HW222583   3.471   5.008   7.774 -0.5960  0.1163  1.3771
 6331SOL     OW22584   6.436  10.940   3.419 -0.5387  0.6566 -0.7023
 6331SOL    HW122585   6.425  10.898   3.504  1.3422  1.1200 -0.1718
 6331SOL    HW222586   6.377  10.894   3.361 -0.9609 -0.4930  0.5923
 6332SOL     OW22587   6.748   8.726   2.289 -0.3335  0.1168  0.1985
 6332SOL    HW122588   6.794   8.687   2.214 -0.1040 -1.3821  1.0753
 6332SOL    HW222589   6.665   8.678   2.293 -1.5427  1.9989 -0.6541
 6333SOL     OW22590   4.814   8.455   0.043 -0.0283 -0.1905 -0.2187
 6333SOL    HW122591   4.814   8.388  -0.025 -1.7388  1.2587 -1.7340
 6333SOL    HW222592   4.886   8.430   0.101  1.1636 -1.7602 -2.2567
 6334SOL     OW22593   8.562   4.177  10.766 -0.0850 -0.0292 -0.0881
 6334SOL    HW122594   8.501   4.117  10.724 -0.5611  0.2831  0.1513
 6334SOL    HW222595   8.568   4.251  10.705 -1.5029  0.8561  0.8086
 6335SOL     OW22596   6.293   9.477  10.913 -0.1751 -0.7506  0.1537
 6335SOL    HW122597   6.224   9.534  10.881  1.5475  1.7151  0.5858
 6335SOL    HW222598   6.298   9.406  10.848 -2.4596 -0.5388 -0.3223
 6336SOL     OW22599   6.753   0.549   4.642 -0.0576 -0.1638  0.4306
 6336SOL    HW122600   6.716   0.637   4.650  0.0636  0.0526 -1.0754
 6336SOL    HW222601   6.827   0.549   4.702 -0.1539  0.7080  0.5680
 6337SOL     OW22602   3.064  10.418   6.756  0.5552  0.3645  0.7729
 6337SOL    HW122603   3.110  10.398   6.675 -0.1931 -0.9325  0.6509
 6337SOL    HW222604   2.972  10.421   6.732  0.3904  0.7768  1.4252
 6338SOL     OW22605   1.545   3.208   0.160  0.7040  0.4091 -0.0145
 6338SOL    HW122606   1.485   3.282   0.148 -0.1451 -0.1247  0.7754
 6338SOL    HW222607   1.550   3.167   0.074  0.6436  0.9876 -0.2982
 6339SOL     OW22608  10.014   7.154   2.992  0.3595  0.1530 -0.1642
 6339SOL    HW122609  10.081   7.166   3.059  2.0076  1.0324 -1.8900
 6339SOL    HW222610  10.008   7.238   2.948 -0.0140 -0.6471 -1.7226
 6340SOL     OW22611   4.987   2.903   8.771  0.1798  0.5464  0.2320
 6340SOL    HW122612   5.078   2.914   8.797 -0.1186 -0.4316  1.8242
 6340SOL    HW222613   4.938   2.912   8.852 -1.0751  0.2552 -0.4716
 6341SOL     OW22614   4.906   5.174   6.247 -0.3422 -0.0449  0.0525
 6341SOL    HW122615   4.850   5.249   6.228  2.7081  2.1749 -0.9272
 6341SOL    HW222616   4.951   5.156   6.165 -0.2855 -2.3843  0.5357
 6342SOL     OW22617  10.975   5.554   2.058  0.1461  0.3009 -0.3212
 6342SOL    HW122618  10.889   5.595   2.045 -0.4445 -0.0360  2.0331
 6342SOL    HW222619  10.956   5.462   2.073  0.8803  0.2664  0.4796
 6343SOL     OW22620   8.471   7.796   1.086 -0.7347 -0.1922  0.8102
 6343SOL    HW122621   8.469   7.829   0.996  1.1841 -2.8480 -0.3190
 6343SOL    HW222622   8.384   7.816   1.121 -1.9295 -0.1161 -2.0141
 6344SOL     OW22623   5.005   9.273   1.781  0.3695 -0.0649  0.2726
 6344SOL    HW122624   5.012   9.361   1.818  0.3851  0.2332 -0.4179
 6344SOL    HW222625   5.053   9.217   1.842  0.9667  0.5240  0.3493
 6345SOL     OW22626   8.246   0.851  10.112  0.1660 -0.3275  0.1072
 6345SOL    HW122627   8.174   0.906  10.143 -0.1555 -0.9178  0.4166
 6345SOL    HW222628   8.272   0.799  10.188  0.9856 -0.0613  0.0265
 6346SOL     OW22629   0.149   7.060  10.319 -0.3116 -0.6660 -0.1752
 6346SOL    HW122630   0.150   7.047  10.224 -0.8496  0.0874 -0.2960
 6346SOL    HW222631   0.098   7.141  10.332 -0.9910 -1.2233  0.8042
 6347SOL     OW22632   2.560   7.396   1.024 -0.7259 -0.3672  0.4036
 6347SOL    HW122633   2.559   7.492   1.027  0.4327 -0.3599  1.2592
 6347SOL    HW222634   2.469   7.370   1.038 -1.3390  0.6242 -1.4438
 6348SOL     OW22635   9.256   9.004   0.179  0.0315 -0.6212 -0.7864
 6348SOL    HW122636   9.274   9.087   0.224  0.3170 -0.8024 -0.5658
 6348SOL    HW222637   9.343   8.966   0.163 -0.1436 -1.8573  0.9431
 6349SOL     OW22638   3.442   0.459   4.922 -0.0061  0.0975  0.1296
 6349SOL    HW122639   3.436   0.368   4.950 -1.9348  0.4420  1.0112
 6349SOL    HW222640   3.534   0.483   4.936  0.1458 -1.1902  1.6131
 6350SOL     OW22641   3.390   4.891   7.477  0.1028  0.2779 -0.1679
 6350SOL    HW122642   3.307   4.846   7.489  0.5799  0.0274  3.4739
 6350SOL    HW222643   3.368   4.984   7.481 -0.0412  0.2119  1.0296
 6351SOL     OW22644   4.965   5.560   5.300 -0.0758 -0.2539  0.3149
 6351SOL    HW122645   4.988   5.510   5.222  1.5077  1.9776 -0.7747
 6351SOL    HW222646   4.894   5.618   5.271  2.0367  2.2147 -0.2849
 6352SOL     OW22647   1.753   3.437   5.893 -0.2208  0.4652  0.0840
 6352SOL    HW122648   1.777   3.529   5.896 -0.3704  0.5133 -0.1418
 6352SOL    HW222649   1.714   3.425   5.806 -0.1686  0.1819  0.0976
 6353SOL     OW22650   2.888   4.001   6.865 -0.0486  0.2203  0.0410
 6353SOL    HW122651   2.847   3.935   6.809  1.9433 -0.5991 -0.5473
 6353SOL    HW222652   2.817   4.061   6.888 -1.6448 -1.3966 -0.4700
 6354SOL     OW22653   6.929   8.993   7.808 -0.2197  0.0468  0.0753
 6354SOL    HW122654   6.859   8.946   7.764 -0.7624 -1.3415  2.2814
 6354SOL    HW222655   6.911   8.982   7.902  1.6455  1.6461  0.6989
 6355SOL     OW22656   1.919   9.354   2.654 -0.3894 -0.2167 -0.1809
 6355SOL    HW122657   1.972   9.292   2.703 -1.2626  0.9186  2.3716
 6355SOL    HW222658   1.920   9.321   2.564 -0.1494 -3.4422  0.8770
 6356SOL     OW22659   0.229   2.920   4.029 -0.4285 -0.6958 -0.2219
 6356SOL    HW122660   0.266   2.965   3.953  0.6274  1.3954  1.4067
 6356SOL    HW222661   0.305   2.881   4.073 -0.6272  0.2803  1.0599
 6357SOL     OW22662   4.267   0.627  10.336  0.2843  0.6341 -0.6831
 6357SOL    HW122663   4.235   0.549  10.381 -1.4025  0.7959 -1.5105
 6357SOL    HW222664   4.189   0.680  10.321  1.4166  2.6444  0.0931
 6358SOL     OW22665   2.667   5.731   3.230 -0.0089 -0.0601  0.3638
 6358SOL    HW122666   2.676   5.761   3.139  2.2359 -0.1565  0.5038
 6358SOL    HW222667   2.744   5.677   3.246 -0.4006 -0.1324  2.3079
 6359SOL     OW22668   4.941   0.604   0.980  0.0449 -0.5395 -0.1965
 6359SOL    HW122669   4.901   0.639   1.059  1.1742  1.9791 -0.6495
 6359SOL    HW222670   5.032   0.586   1.004 -0.1294 -1.7970 -0.3936
 6360SOL     OW22671   4.086   1.857   2.586 -0.0848  0.2916 -0.7927
 6360SOL    HW122672   4.068   1.931   2.644 -1.5333 -1.4894  1.1598
 6360SOL    HW222673   4.024   1.868   2.514 -0.9060  0.5111 -0.0649
 6361SOL     OW22674   0.808   3.648   9.206  0.3704  0.2806 -0.4218
 6361SOL    HW122675   0.804   3.555   9.230  0.5329  0.1406 -0.9184
 6361SOL    HW222676   0.831   3.692   9.287 -2.6442  0.2512  0.5718
 6362SOL     OW22677   5.689   5.033   1.152 -0.4872  0.4499 -0.6022
 6362SOL    HW122678   5.620   5.098   1.143  1.2305  2.1454 -2.9031
 6362SOL    HW222679   5.680   4.978   1.074  0.4511  0.4113 -0.6974
 6363SOL     OW22680  10.301   0.378   7.292 -0.0230 -0.2194  0.0639
 6363SOL    HW122681  10.219   0.334   7.272 -1.2950  1.5151  1.1607
 6363SOL    HW222682  10.359   0.309   7.324 -0.7933 -1.5804 -1.3810
 6364SOL     OW22683   0.998   7.190   2.007  0.1791 -0.3115  0.2301
 6364SOL    HW122684   0.967   7.134   2.078  1.0482 -0.3906  0.5622
 6364SOL    HW222685   0.943   7.168   1.932 -2.6738  1.7231  1.5452
 6365SOL     OW22686   7.780   2.078   0.146  0.1984  0.0253  0.6601
 6365SOL    HW122687   7.734   2.155   0.179 -0.5101 -0.2566  0.3621
 6365SOL    HW222688   7.843   2.112   0.084  0.4405  0.4282  1.1220
 6366SOL     OW22689   2.465   4.011  10.948 -0.1703  0.6783 -0.3236
 6366SOL    HW122690   2.375   3.977  10.948 -0.0052  0.2401 -0.1307
 6366SOL    HW222691   2.509   3.961  10.879 -0.0983  0.9707 -0.4935
 6367SOL     OW22692   9.338   8.713   0.887 -0.0380 -0.2314  0.2470
 6367SOL    HW122693   9.334   8.798   0.842 -0.1613 -0.0307  0.6360
 6367SOL    HW222694   9.431   8.701   0.906 -0.1316  0.3129  1.1195
 6368SOL     OW22695   9.230   4.701  10.729  0.3482  0.0529  0.4261
 6368SOL    HW122696   9.312   4.660  10.756  0.8932  1.1304  0.4785
 6368SOL    HW222697   9.210   4.762  10.800 -1.5757 -1.5790  1.3977
 6369SOL     OW22698   2.323   8.432   5.639  0.0530  0.3530  0.1934
 6369SOL    HW122699   2.311   8.517   5.597 -1.0980  0.7309  1.2247
 6369SOL    HW222700   2.412   8.405   5.615  0.6079  2.0547  0.2240
 6370SOL     OW22701   8.873   9.580  10.967  0.3449  0.1525 -0.7111
 6370SOL    HW122702   8.817   9.630  11.027  1.0461  0.0360  0.0702
 6370SOL    HW222703   8.854   9.616  10.881 -0.2052  0.7904 -0.3370
 6371SOL     OW22704   9.991   4.567   9.808  0.3505  0.3791 -0.2754
 6371SOL    HW122705  10.026   4.611   9.731  1.3889 -0.2853 -0.1931
 6371SOL    HW222706   9.912   4.617   9.830  0.8314  1.4497 -0.9024
 6372SOL     OW22707  10.388   5.448   1.112  0.3123 -0.0202 -0.0836
 6372SOL    HW122708  10.308   5.499   1.101  0.3330  0.1850  0.6762
 6372SOL    HW222709  10.425   5.443   1.024 -0.8411 -0.6414 -0.5455
 6373SOL     OW22710  10.358   8.233   7.453 -0.3781 -0.0440  0.1422
 6373SOL    HW122711  10.269   8.260   7.476 -0.5677  0.7874 -1.3825
 6373SOL    HW222712  10.385   8.296   7.385  0.8513 -1.1081 -0.4101
 6374SOL     OW22713   7.131   1.980   8.192 -0.9090  0.1573 -0.1907
 6374SOL    HW122714   7.045   1.970   8.151 -0.5164 -1.5488 -0.6418
 6374SOL    HW222715   7.192   1.993   8.119 -0.4935 -0.7949 -0.0227
 6375SOL     OW22716   5.594   2.719   7.472 -0.0727  0.0460  0.4344
 6375SOL    HW122717   5.634   2.686   7.392 -1.8440 -1.3136  0.0364
 6375SOL    HW222718   5.661   2.773   7.513  0.9845  0.5511 -1.8218
 6376SOL     OW22719   9.705   9.934   2.971 -0.6879  0.2925  0.7024
 6376SOL    HW122720   9.725   9.840   2.974 -2.0427 -0.0006  1.2186
 6376SOL    HW222721   9.609   9.938   2.971 -0.6642  1.6470 -0.6913
 6377SOL     OW22722   6.280   2.430   3.545  0.1613 -0.6116 -0.0844
 6377SOL    HW122723   6.220   2.405   3.475  0.8434 -1.8778 -0.2494
 6377SOL    HW222724   6.226   2.433   3.624 -0.6917  1.1818 -0.6669
 6378SOL     OW22725   7.530   7.730   6.058  0.4898  0.3611  0.0069
 6378SOL    HW122726   7.442   7.766   6.063  0.3901  0.3480 -1.3861
 6378SOL    HW222727   7.588   7.805   6.073  0.2617  0.5127  0.1353
 6379SOL     OW22728   4.764   5.393   3.044  0.0518  0.2032  0.1409
 6379SOL    HW122729   4.747   5.386   3.138 -1.6191 -0.0399 -0.1477
 6379SOL    HW222730   4.679   5.377   3.003  0.7549  0.2855 -1.4210
 6380SOL     OW22731   0.140   1.968   5.733 -0.0813 -0.3507 -0.1413
 6380SOL    HW122732   0.088   1.902   5.779 -1.7700 -0.2044 -1.7010
 6380SOL    HW222733   0.120   2.050   5.778  1.1433 -0.7031  1.0959
 6381SOL     OW22734   9.747   8.603   4.935 -0.4282  0.2955  0.4855
 6381SOL    HW122735   9.781   8.636   4.852  1.7252 -2.8386 -0.0514
 6381SOL    HW222736   9.692   8.529   4.911 -0.7510  0.0742  1.8173
 6382SOL     OW22737   4.554   7.843   8.834  0.4525 -0.1997  0.4618
 6382SOL    HW122738   4.483   7.907   8.836 -0.4139 -1.1098 -0.3370
 6382SOL    HW222739   4.511   7.759   8.822  1.5767 -0.9587  1.5299
 6383SOL     OW22740  10.489   8.110   9.811 -0.0712 -0.4952  0.3009
 6383SOL    HW122741  10.462   8.020   9.827  1.2241 -0.9086  0.2173
 6383SOL    HW222742  10.532   8.137   9.892 -0.6712  0.1417  0.4168
 6384SOL     OW22743   3.600   8.473   2.222  0.0791  0.6202 -0.3283
 6384SOL    HW122744   3.538   8.449   2.291 -1.2904  1.5294 -1.1866
 6384SOL    HW222745   3.664   8.402   2.222 -2.1269 -1.5390 -0.7696
 6385SOL     OW22746   9.879   7.041   2.480 -0.1540 -0.0108  0.0019
 6385SOL    HW122747   9.827   6.999   2.548 -1.1085  0.9790 -0.0834
 6385SOL    HW222748   9.967   7.006   2.492 -0.7441 -1.4677  0.3815
 6386SOL     OW22749   5.391   5.285  10.097 -0.2717  0.1868  0.4504
 6386SOL    HW122750   5.358   5.310  10.183  0.4266 -2.1975  1.4846
 6386SOL    HW222751   5.317   5.244  10.054 -0.3334  0.4595  0.2896
 6387SOL     OW22752   2.509   3.922   9.642  0.3316  0.0959  0.1015
 6387SOL    HW122753   2.485   3.858   9.575  2.0968  0.1153 -0.6066
 6387SOL    HW222754   2.427   3.942   9.687 -0.3633 -2.3696  0.0985
 6388SOL     OW22755   3.420   1.767   5.800 -0.3751 -0.1418  0.2492
 6388SOL    HW122756   3.384   1.706   5.735  0.6820 -0.3120 -0.1873
 6388SOL    HW222757   3.379   1.740   5.882 -1.4000 -0.1993 -0.2577
 6389SOL     OW22758   5.570   1.740   1.591 -0.0876  0.6434  0.3192
 6389SOL    HW122759   5.666   1.732   1.587 -0.0141  0.9260  1.1790
 6389SOL    HW222760   5.537   1.666   1.540  0.5905  0.4784  0.1083
 6390SOL     OW22761   7.839   4.494   5.186 -0.0205  0.1148 -0.6516
 6390SOL    HW122762   7.915   4.514   5.132  0.2820  1.0882  0.0906
 6390SOL    HW222763   7.782   4.571   5.176 -0.1319  0.1361  0.1152
 6391SOL     OW22764   9.597   1.602   4.144  0.2388 -0.1325  0.1030
 6391SOL    HW122765   9.594   1.511   4.115 -0.4078  0.4243 -1.7075
 6391SOL    HW222766   9.688   1.615   4.170  0.3713 -1.2467  0.2745
 6392SOL     OW22767   4.546   1.093   3.216 -0.4600 -0.1858 -0.1896
 6392SOL    HW122768   4.526   1.026   3.151 -0.8465  0.8525 -1.1809
 6392SOL    HW222769   4.498   1.170   3.186  3.1373  1.8118 -1.4251
 6393SOL     OW22770   5.611   2.681   1.144 -0.0599 -0.2726 -0.4963
 6393SOL    HW122771   5.550   2.618   1.183  1.4740 -1.8915 -0.5811
 6393SOL    HW222772   5.672   2.627   1.094  1.2510  1.3176 -0.6849
 6394SOL     OW22773   3.950   2.317   3.637  0.6166 -0.1940 -0.1215
 6394SOL    HW122774   3.998   2.398   3.616  1.3733  0.0709  2.2932
 6394SOL    HW222775   3.870   2.323   3.585  2.1503  0.4206 -2.6158
 6395SOL     OW22776   5.336   8.733  10.747  0.2052 -0.2996  0.6131
 6395SOL    HW122777   5.257   8.787  10.754 -0.7692 -1.6305  0.1532
 6395SOL    HW222778   5.311   8.649  10.785  0.4760 -1.6936 -2.0690
 6396SOL     OW22779   1.026   9.801   7.982  0.3928  0.0516  0.0564
 6396SOL    HW122780   1.112   9.843   7.987  0.2393  0.2979  0.7087
 6396SOL    HW222781   1.004   9.804   7.889  0.9905  0.1859 -0.0864
 6397SOL     OW22782   1.547   3.571   1.517 -0.0150 -0.1861  0.1621
 6397SOL    HW122783   1.539   3.630   1.591  1.8368  0.3854 -0.0425
 6397SOL    HW222784   1.460   3.532   1.508 -0.3455 -0.1239  2.4751
 6398SOL     OW22785   6.127   8.873   1.024 -0.6590 -0.5254  0.2178
 6398SOL    HW122786   6.115   8.882   1.119 -2.5837  0.8642 -0.0984
 6398SOL    HW222787   6.039   8.865   0.989  0.1103 -3.7743 -1.2926
 6399SOL     OW22788   9.456   3.789   0.227  0.3765  0.0275 -0.4581
 6399SOL    HW122789   9.514   3.713   0.234 -0.3698 -0.5487 -0.3001
 6399SOL    HW222790   9.465   3.835   0.310 -0.4932 -0.8863  0.1651
 6400SOL     OW22791   8.990   3.468   0.181 -0.7281  0.3416 -0.0557
 6400SOL    HW122792   8.901   3.494   0.155 -1.0677 -1.6763 -1.1435
 6400SOL    HW222793   8.979   3.423   0.264 -0.3025  2.4088  1.1979
 6401SOL     OW22794   2.451   0.459   4.958  0.2885 -0.0758 -0.3148
 6401SOL    HW122795   2.527   0.402   4.970  0.7232  0.5530 -0.0230
 6401SOL    HW222796   2.376   0.400   4.961  0.7245 -0.6171  0.0961
 6402SOL     OW22797   7.607   2.936   8.800  0.1474 -0.1594 -0.0918
 6402SOL    HW122798   7.549   3.003   8.834 -1.0552 -0.0683 -2.1507
 6402SOL    HW222799   7.686   2.983   8.774 -0.2462  0.2775 -0.4959
 6403SOL     OW22800   1.730   5.765   1.376  0.2683 -0.4626 -0.2602
 6403SOL    HW122801   1.710   5.847   1.330 -0.2819  0.6012  1.7596
 6403SOL    HW222802   1.645   5.731   1.403  0.5987 -0.8902  0.2708
 6404SOL     OW22803   9.598   2.797   8.000 -0.1249 -0.2048  0.0470
 6404SOL    HW122804   9.600   2.880   7.952  0.7955 -1.0457 -1.4301
 6404SOL    HW222805   9.510   2.793   8.037  0.0969  1.8380  0.9435
 6405SOL     OW22806  10.324   7.021   9.534  0.2383  0.9197  0.3082
 6405SOL    HW122807  10.297   7.102   9.576  0.7921  1.1648  0.2033
 6405SOL    HW222808  10.334   7.044   9.441 -0.0628  0.6108  0.1922
 6406SOL     OW22809   8.435   0.230   1.774 -0.1117  0.1818 -0.0468
 6406SOL    HW122810   8.441   0.301   1.710  0.6761  2.5147  2.4158
 6406SOL    HW222811   8.343   0.230   1.800 -0.4558 -0.8391 -1.1655
 6407SOL     OW22812   4.216  10.709   5.820 -0.4912 -0.0803 -0.2612
 6407SOL    HW122813   4.241  10.798   5.845 -0.6185  0.7030 -2.6699
 6407SOL    HW222814   4.241  10.702   5.728 -2.7797 -1.6632 -0.8516
 6408SOL     OW22815   5.789  10.077   9.214  0.5938 -0.4631 -0.3886
 6408SOL    HW122816   5.872  10.107   9.251 -0.4069  0.7766  0.9386
 6408SOL    HW222817   5.775   9.991   9.254  1.0062 -0.4878 -0.2908
 6409SOL     OW22818   7.084  10.689   9.215  0.5479 -0.2739  0.5238
 6409SOL    HW122819   7.014  10.721   9.158 -0.1444 -1.3532  0.7290
 6409SOL    HW222820   7.042  10.622   9.269  1.2366  0.6139  2.2140
 6410SOL     OW22821   3.374   5.847   2.436 -0.6315  0.5242 -0.4361
 6410SOL    HW122822   3.449   5.876   2.385  0.2040 -0.7366  0.0410
 6410SOL    HW222823   3.314   5.922   2.434 -0.1292  0.9246 -2.2581
 6411SOL     OW22824   9.996   2.637   2.775 -0.1019  0.0301 -0.5653
 6411SOL    HW122825  10.050   2.717   2.782 -0.1132  0.2739 -2.7014
 6411SOL    HW222826   9.919   2.665   2.726 -0.6099 -1.0844 -0.4137
 6412SOL     OW22827   8.207   7.237   1.159 -0.9046  0.2398  0.0797
 6412SOL    HW122828   8.161   7.153   1.150 -0.6007  0.1120 -0.3055
 6412SOL    HW222829   8.144   7.294   1.203 -0.4461 -0.7252  2.0747
 6413SOL     OW22830   1.201   1.495   4.443 -0.5194 -0.3432 -0.8438
 6413SOL    HW122831   1.255   1.438   4.388 -0.3147 -0.8118 -0.1782
 6413SOL    HW222832   1.231   1.477   4.532  0.7051  2.0183 -0.7109
 6414SOL     OW22833   3.116   6.155   5.012 -0.3481 -0.0671 -0.5068
 6414SOL    HW122834   3.197   6.150   4.962 -0.5422 -0.3771 -0.7958
 6414SOL    HW222835   3.058   6.209   4.957 -1.0960 -1.6990 -1.3875
 6415SOL     OW22836   4.383   3.476   8.912 -0.3539 -0.4479 -0.1803
 6415SOL    HW122837   4.305   3.423   8.895 -0.8534 -0.0916  0.8875
 6415SOL    HW222838   4.348   3.557   8.949  0.5223 -0.2264  0.1834
 6416SOL     OW22839   5.617  10.354   2.958  0.5209 -0.3040 -0.0091
 6416SOL    HW122840   5.631  10.313   2.873  0.5727  2.4872 -1.4667
 6416SOL    HW222841   5.553  10.298   3.002  1.1302 -2.2766 -1.5222
 6417SOL     OW22842   2.044   5.848   4.334  0.3091  0.0758 -0.0708
 6417SOL    HW122843   2.116   5.857   4.396  0.6928  1.1839 -0.6514
 6417SOL    HW222844   1.965   5.848   4.388  0.5713  2.1252  0.3942
 6418SOL     OW22845   6.081   8.868   0.184  0.4719  0.1198 -0.2853
 6418SOL    HW122846   6.118   8.838   0.101  0.0671 -0.0485 -0.4082
 6418SOL    HW222847   6.026   8.795   0.213  1.9177 -0.4982  0.9687
 6419SOL     OW22848   0.491   1.167   7.376  0.0684 -0.0294  0.2768
 6419SOL    HW122849   0.474   1.074   7.360 -1.9768  0.1201  1.3131
 6419SOL    HW222850   0.496   1.206   7.289  0.3826 -1.0082 -0.1575
 6420SOL     OW22851   6.641   9.408  10.035 -0.3790 -0.6954 -0.2331
 6420SOL    HW122852   6.566   9.360  10.072 -2.3298  1.5899 -0.9570
 6420SOL    HW222853   6.655   9.481  10.095  0.2674 -0.2336 -0.9306
 6421SOL     OW22854   3.442   8.046   9.725  0.2454 -0.4790 -0.0647
 6421SOL    HW122855   3.448   7.977   9.659 -2.4992 -2.2902  1.4066
 6421SOL    HW222856   3.364   8.096   9.701  0.8941  0.6954  0.2002
 6422SOL     OW22857   2.451   6.565   1.068  0.2369 -0.4971 -0.4726
 6422SOL    HW122858   2.500   6.636   1.110 -1.4993  0.4792 -0.0384
 6422SOL    HW222859   2.415   6.514   1.141 -0.8364 -0.1729 -0.7605
 6423SOL     OW22860  10.203   8.360   4.452 -0.2587 -0.0079 -0.1490
 6423SOL    HW122861  10.117   8.332   4.484 -0.5585 -0.6167 -1.3919
 6423SOL    HW222862  10.258   8.282   4.462 -0.4363 -0.3108 -1.3116
 6424SOL     OW22863   4.736  11.041   0.404  0.0251 -0.5220  0.9086
 6424SOL    HW122864   4.799  10.969   0.396 -1.2347 -1.4822 -0.9905
 6424SOL    HW222865   4.673  11.026   0.334 -0.8491  1.9028  1.0825
 6425SOL     OW22866   3.422   3.605   9.429 -0.6469 -0.0102  0.0024
 6425SOL    HW122867   3.512   3.628   9.405 -1.5040  2.3855 -1.2503
 6425SOL    HW222868   3.377   3.591   9.346 -1.4282 -1.3232  0.6118
 6426SOL     OW22869   5.560   6.886   0.094 -0.0026 -0.4418  0.1529
 6426SOL    HW122870   5.618   6.810   0.098  0.0562 -0.3945  0.2072
 6426SOL    HW222871   5.514   6.876   0.010  1.9417  0.8619 -1.1608
 6427SOL     OW22872   8.972   1.799   8.509  0.0212 -0.6376  0.8012
 6427SOL    HW122873   8.928   1.723   8.471  1.3451 -0.9080 -0.2509
 6427SOL    HW222874   8.900   1.858   8.534 -0.9593 -0.2979 -2.4204
 6428SOL     OW22875   4.973   4.651   8.953 -0.1791  0.3166 -0.6119
 6428SOL    HW122876   4.952   4.637   9.046 -1.7015 -0.3071 -1.0209
 6428SOL    HW222877   4.899   4.702   8.920 -0.1669 -0.3703 -1.7251
 6429SOL     OW22878  10.484  10.583   2.250 -0.1692 -0.2117  0.5439
 6429SOL    HW122879  10.568  10.558   2.288  1.0413  0.3780 -1.5729
 6429SOL    HW222880  10.476  10.528   2.171 -0.8858  1.0058 -0.2663
 6430SOL     OW22881   7.290   8.835   0.594 -0.2171  0.5249 -0.4871
 6430SOL    HW122882   7.368   8.798   0.635 -0.0523 -0.4040 -1.5883
 6430SOL    HW222883   7.322   8.887   0.521 -0.5920  0.6867 -0.5416
 6431SOL     OW22884   1.465  10.725   6.341  0.5850  0.5004  0.7784
 6431SOL    HW122885   1.376  10.692   6.360  0.5098 -0.9693 -1.7470
 6431SOL    HW222886   1.451  10.815   6.313  0.1575  0.9725  2.4042
 6432SOL     OW22887   8.786   2.362  10.129  0.4444 -0.6007 -0.0747
 6432SOL    HW122888   8.805   2.363  10.035  2.1113 -1.2176  0.2087
 6432SOL    HW222889   8.866   2.396  10.170  0.1128 -1.2217  1.1523
 6433SOL     OW22890   1.058  11.009   7.047 -0.0533 -0.3620 -0.0900
 6433SOL    HW122891   1.114  11.036   7.119  0.1880 -0.9830 -0.0407
 6433SOL    HW222892   1.110  11.025   6.968  0.4539 -1.5372 -0.0095
 6434SOL     OW22893   6.033   2.921   0.065 -0.4110  0.4558 -0.1150
 6434SOL    HW122894   6.056   2.862  -0.006 -0.8400  1.1536 -0.8469
 6434SOL    HW222895   5.980   2.989   0.024 -2.5927 -0.3293  1.2821
 6435SOL     OW22896   7.826   3.150   7.761 -0.3998  0.1293  0.3123
 6435SOL    HW122897   7.767   3.193   7.823 -1.2999 -0.0519 -0.4022
 6435SOL    HW222898   7.788   3.167   7.676 -0.7792 -2.0657 -0.0116
 6436SOL     OW22899   0.684   7.726  10.707  0.4223 -0.2661  0.3725
 6436SOL    HW122900   0.765   7.775  10.696 -0.7517  1.6033 -0.5397
 6436SOL    HW222901   0.635   7.742  10.627 -1.7280  0.4731  1.7282
 6437SOL     OW22902   7.245   0.780   3.139  0.0225 -0.3892 -0.1614
 6437SOL    HW122903   7.270   0.828   3.061  1.5125  1.2004  1.2095
 6437SOL    HW222904   7.213   0.847   3.200 -0.4831 -1.4836  0.8327
 6438SOL     OW22905   5.551   6.974  10.510 -0.1234  0.7283 -0.1599
 6438SOL    HW122906   5.456   6.985  10.505  0.0338  2.9271  0.5908
 6438SOL    HW222907   5.581   6.981  10.420 -0.6315  0.2157 -0.3764
 6439SOL     OW22908   8.802   2.007   9.208  0.5278 -0.2233 -0.1903
 6439SOL    HW122909   8.792   2.006   9.303 -0.5738 -0.7352 -0.2950
 6439SOL    HW222910   8.896   2.007   9.193  0.7788  2.2712  0.9081
 6440SOL     OW22911   2.776   7.456  11.083  0.3214 -0.3224  0.7751
 6440SOL    HW122912   2.844   7.491  11.140  0.9309 -0.0526 -0.0938
 6440SOL    HW222913   2.794   7.362  11.079 -1.1883 -0.7676  2.9414
 6441SOL     OW22914   3.822   9.235   9.526  0.4093  0.2902  0.0847
 6441SOL    HW122915   3.914   9.258   9.541  0.6426 -0.2876 -0.3864
 6441SOL    HW222916   3.788   9.216   9.613  1.0837 -0.6883  0.1562
 6442SOL     OW22917   0.931   9.778   6.745  0.7881  0.0496  0.0095
 6442SOL    HW122918   0.883   9.841   6.799  0.0383 -0.5483  0.0627
 6442SOL    HW222919   0.930   9.697   6.796  2.0451  0.0789  0.0918
 6443SOL     OW22920   8.066  10.128   4.571  0.5570 -0.1137 -0.7550
 6443SOL    HW122921   8.136  10.157   4.629  0.1075  0.3854 -0.4524
 6443SOL    HW222922   7.995  10.190   4.586  0.3146 -0.1635 -1.6071
 6444SOL     OW22923   4.239  10.880   7.833 -0.2508 -0.1630 -0.2904
 6444SOL    HW122924   4.236  10.792   7.796 -0.6662 -1.1175  1.8592
 6444SOL    HW222925   4.272  10.935   7.761  0.3529 -2.1007 -1.5875
 6445SOL     OW22926   3.441   9.641  10.336  0.2241 -0.3588 -0.0815
 6445SOL    HW122927   3.487   9.627  10.253 -0.6834  0.0862 -0.6897
 6445SOL    HW222928   3.510   9.654  10.401  0.9547 -0.6878 -0.7774
 6446SOL     OW22929   7.133   7.064  11.093  0.2555 -0.4625  0.1504
 6446SOL    HW122930   7.208   7.123  11.099 -1.0100  1.3832 -1.2489
 6446SOL    HW222931   7.079   7.086  11.169 -0.2631  0.2773 -0.4235
 6447SOL     OW22932   8.879   1.042   7.181 -0.2616 -1.3332 -0.1378
 6447SOL    HW122933   8.811   1.063   7.117 -2.9277  1.8144  3.2385
 6447SOL    HW222934   8.955   1.092   7.152 -1.5922  0.5337 -0.6518
 6448SOL     OW22935   7.392   4.197  10.566 -0.3207 -0.3829  0.1375
 6448SOL    HW122936   7.319   4.238  10.519 -0.0144 -1.8340 -1.7048
 6448SOL    HW222937   7.405   4.114  10.522  3.1797  0.2867 -0.3244
 6449SOL     OW22938   0.524   0.322   6.313 -0.2804 -0.4034  0.0042
 6449SOL    HW122939   0.438   0.305   6.274 -1.4364  1.0727  1.7260
 6449SOL    HW222940   0.527   0.267   6.391  0.4222 -0.5662 -0.1315
 6450SOL     OW22941   0.001  10.793   2.764  0.4804  0.4503  0.5512
 6450SOL    HW122942   0.057  10.870   2.766  0.5860  0.4359 -1.1138
 6450SOL    HW222943  -0.083  10.823   2.730  0.7822 -0.3009 -0.9289
 6451SOL     OW22944   1.273   1.573   0.796  0.2247 -0.2716 -0.1364
 6451SOL    HW122945   1.314   1.562   0.710  1.3972  0.9374  0.2415
 6451SOL    HW222946   1.340   1.545   0.858 -0.7268 -1.4370  0.4048
 6452SOL     OW22947   4.812  11.086   0.976  0.3107  0.3030 -0.0902
 6452SOL    HW122948   4.823  11.050   1.064  1.5747 -0.3852 -0.4927
 6452SOL    HW222949   4.902  11.101   0.946 -0.0883  0.0073 -1.4697
 6453SOL     OW22950   4.880   4.078   5.089 -0.3098 -0.2019  0.3300
 6453SOL    HW122951   4.829   4.050   5.165  0.3430 -0.2853  0.7438
 6453SOL    HW222952   4.928   3.999   5.062 -2.6423 -0.9661 -1.9174
 6454SOL     OW22953   7.914   0.002   5.752 -0.3599  0.5106  0.3272
 6454SOL    HW122954   7.986   0.043   5.704 -1.2586  0.9934 -0.6388
 6454SOL    HW222955   7.916  -0.090   5.725 -0.3385  0.6049  0.0086
 6455SOL     OW22956   3.864   1.019  10.555 -0.1065 -0.0753  0.3616
 6455SOL    HW122957   3.951   1.006  10.517  0.6032  0.3843  1.7993
 6455SOL    HW222958   3.824   1.087  10.500  0.1784 -0.7159 -0.6782
 6456SOL     OW22959   7.553   5.152  10.079  0.2502 -0.1154  0.3461
 6456SOL    HW122960   7.597   5.092  10.018 -0.0716 -0.9897  0.9636
 6456SOL    HW222961   7.572   5.239  10.044 -0.7780 -0.6111 -1.6030
 6457SOL     OW22962   8.728   8.606   4.693  0.5203 -0.0571  0.2380
 6457SOL    HW122963   8.634   8.615   4.675  0.6372  0.3480 -0.1884
 6457SOL    HW222964   8.757   8.694   4.714  0.8705 -0.1284  0.0581
 6458SOL     OW22965   5.966   3.549   7.002 -0.5496  0.1757  0.0767
 6458SOL    HW122966   6.026   3.487   6.960  0.1388  0.9397 -0.0852
 6458SOL    HW222967   5.879   3.520   6.975 -0.1374  1.8263 -3.7014
 6459SOL     OW22968   5.895  10.676   2.872  0.0209 -0.0297  0.4640
 6459SOL    HW122969   5.962  10.711   2.930  0.1926  0.1847  0.1390
 6459SOL    HW222970   5.846  10.614   2.926  0.7394 -0.4956  0.5942
 6460SOL     OW22971   1.109  10.735  10.318 -0.6977  0.3527 -0.0752
 6460SOL    HW122972   1.164  10.672  10.271  0.6355 -0.2835  2.1697
 6460SOL    HW222973   1.162  10.815  10.321 -2.0174  1.3889 -2.1401
 6461SOL     OW22974   4.920   3.676   3.501 -0.7499 -0.0488 -0.2018
 6461SOL    HW122975   4.892   3.630   3.422 -1.2933 -1.1479  0.5965
 6461SOL    HW222976   4.881   3.763   3.493 -0.5444 -0.0445 -1.2830
 6462SOL     OW22977   9.908   7.041   2.182  0.1747  0.4591  0.0301
 6462SOL    HW122978   9.835   7.021   2.240 -0.6170  1.7965 -0.4638
 6462SOL    HW222979   9.937   7.128   2.210  1.6308 -0.0730  0.2503
 6463SOL     OW22980   6.086  10.503   4.200  0.0643 -0.0650  0.3674
 6463SOL    HW122981   6.031  10.431   4.228 -0.2307  0.3571  0.8851
 6463SOL    HW222982   6.146  10.464   4.136 -0.3033 -0.6923  0.3996
 6464SOL     OW22983   1.043   9.003  10.364 -0.4111  0.2324  0.0684
 6464SOL    HW122984   1.098   9.078  10.389 -1.1989  0.6208  0.6766
 6464SOL    HW222985   1.075   8.931  10.418 -1.2757  0.7565  1.3104
 6465SOL     OW22986   9.190   8.046   3.651 -0.0504  1.1465 -0.6483
 6465SOL    HW122987   9.202   8.100   3.573 -0.1687  0.7394 -0.9586
 6465SOL    HW222988   9.125   8.092   3.703  0.5769  1.8029 -0.4329
 6466SOL     OW22989  10.814   0.649   2.292 -0.1754 -0.2432 -0.4856
 6466SOL    HW122990  10.895   0.686   2.328  0.5377 -2.1975 -0.0043
 6466SOL    HW222991  10.763   0.624   2.369 -0.5427 -0.4923 -0.8070
 6467SOL     OW22992   0.457   8.509   2.166 -0.4506 -0.0504 -0.4558
 6467SOL    HW122993   0.486   8.576   2.104 -2.2225  0.3852 -0.8688
 6467SOL    HW222994   0.378   8.546   2.206 -0.6519 -1.3074  0.3605
 6468SOL     OW22995   7.927   6.470   5.306  0.0447 -0.0038 -0.3781
 6468SOL    HW122996   7.940   6.515   5.389  0.0201  1.3656 -1.1001
 6468SOL    HW222997   7.836   6.439   5.309  0.3352 -0.8218  0.4900
 6469SOL     OW22998  10.080   1.685   1.961 -0.1890  0.0135 -0.0045
 6469SOL    HW122999  10.064   1.763   1.908 -2.2339 -0.8772 -0.8176
 6469SOL    HW223000  10.073   1.716   2.052 -0.2005  0.8984 -0.2948
 6470SOL     OW23001   9.527   2.994   9.264 -0.3476 -0.3377  0.3909
 6470SOL    HW123002   9.514   3.041   9.346 -0.4624 -0.5834  0.5128
 6470SOL    HW223003   9.594   2.929   9.284  0.2605  0.1758  0.0607
 6471SOL     OW23004   0.276   0.766   6.076  0.1245 -0.0778  0.1065
 6471SOL    HW123005   0.311   0.817   6.149 -2.7025  2.7880 -0.2883
 6471SOL    HW223006   0.333   0.787   6.002  0.5993  0.3576  0.5891
 6472SOL     OW23007   4.591   7.957   3.281  0.3745  0.2673 -0.7187
 6472SOL    HW123008   4.633   8.041   3.264  1.2199 -0.3911 -2.0036
 6472SOL    HW223009   4.659   7.904   3.322  0.2785 -0.2526 -1.2278
 6473SOL     OW23010   9.805  10.094   4.719 -0.0052 -0.5474  0.2536
 6473SOL    HW123011   9.844  10.008   4.736 -0.5660 -1.2670 -1.8747
 6473SOL    HW223012   9.878  10.146   4.683  0.4727  0.0897  2.0469
 6474SOL     OW23013  10.749  10.988   3.208  0.2252  0.1323 -0.0855
 6474SOL    HW123014  10.728  10.895   3.199 -0.5088  0.1400  1.2474
 6474SOL    HW223015  10.825  11.002   3.152  0.8459 -1.4578  0.3225
 6475SOL     OW23016   2.267   2.146   4.964 -0.0033  0.3797  0.4918
 6475SOL    HW123017   2.265   2.228   5.013 -1.5485  1.2416 -0.8754
 6475SOL    HW223018   2.276   2.173   4.872  0.8576 -1.0652  0.1125
 6476SOL     OW23019   4.319   6.816   7.002  0.5873 -0.0902 -0.1696
 6476SOL    HW123020   4.244   6.812   7.063 -0.1363 -1.1388 -1.0854
 6476SOL    HW223021   4.296   6.886   6.941 -0.2363 -1.1912 -1.1590
 6477SOL     OW23022   2.001   1.611   2.511 -0.1447  0.1804 -0.3379
 6477SOL    HW123023   2.034   1.697   2.538  0.2393  0.5226 -1.7947
 6477SOL    HW223024   2.080   1.559   2.497 -0.3484 -0.1085 -0.4158
 6478SOL     OW23025   0.703  10.339  10.569  0.2025 -0.0353  0.4670
 6478SOL    HW123026   0.720  10.420  10.616 -0.5766  0.9010 -0.8139
 6478SOL    HW223027   0.654  10.285  10.631  1.2402  0.2058  1.5410
 6479SOL     OW23028   6.188   0.788   4.952 -0.7988  0.5095 -0.4230
 6479SOL    HW123029   6.193   0.856   4.885  1.8437  0.7055 -0.1323
 6479SOL    HW223030   6.268   0.737   4.941 -2.6743 -2.6506 -0.6394
 6480SOL     OW23031   9.033   2.269   5.848  0.2926 -0.4395  0.3446
 6480SOL    HW123032   8.974   2.199   5.877  0.0623  0.0976  1.2203
 6480SOL    HW223033   9.076   2.299   5.929  0.9638 -0.0890 -0.1297
 6481SOL     OW23034   6.294   6.941   7.971  0.1270  0.4892  0.2081
 6481SOL    HW123035   6.383   6.966   7.998 -0.0135  1.0777  0.1396
 6481SOL    HW223036   6.280   6.855   8.012 -0.1934  1.4810  2.3199
 6482SOL     OW23037   5.386   7.316   5.109  0.7005 -0.4431  0.3887
 6482SOL    HW123038   5.295   7.289   5.098  0.3729  0.6958  0.1875
 6482SOL    HW223039   5.388   7.407   5.078  1.8959 -0.4442  0.4240
 6483SOL     OW23040  10.840   1.147   5.081  0.2081  0.4630  0.4531
 6483SOL    HW123041  10.790   1.117   5.005 -0.6048 -1.6505  1.7169
 6483SOL    HW223042  10.927   1.109   5.069  0.5592  1.3994 -0.1205
 6484SOL     OW23043   3.404  10.268   4.874  0.0604  0.3921  0.1175
 6484SOL    HW123044   3.380  10.337   4.811  1.4776  0.7301 -0.0933
 6484SOL    HW223045   3.498  10.258   4.864  0.4034  0.6769  2.4066
 6485SOL     OW23046   7.002   8.094   9.169  0.1789  0.1796 -0.2371
 6485SOL    HW123047   6.961   8.159   9.112  2.2840 -0.2968 -2.4556
 6485SOL    HW223048   7.055   8.146   9.230  0.3774  0.6183 -0.7745
 6486SOL     OW23049   5.262   4.027   4.066  0.2245 -0.7139  0.0988
 6486SOL    HW123050   5.231   4.098   4.009  1.5195 -1.0420 -1.0395
 6486SOL    HW223051   5.184   4.002   4.116 -0.2666  1.5193  0.5635
 6487SOL     OW23052   1.105   4.137   9.412 -0.7178  0.0921  0.9916
 6487SOL    HW123053   1.101   4.068   9.346  0.9494 -1.5042  2.4460
 6487SOL    HW223054   1.066   4.213   9.370 -1.2894 -1.3330 -1.1983
 6488SOL     OW23055   2.155   7.593   2.487  0.7739 -0.3485 -0.1576
 6488SOL    HW123056   2.246   7.592   2.458  1.0256  0.7920  0.5448
 6488SOL    HW223057   2.130   7.686   2.484 -0.4492 -0.6675 -0.5827
 6489SOL     OW23058  10.910   4.564   9.616 -0.4309  0.1883  0.1781
 6489SOL    HW123059  10.864   4.648   9.610 -0.2858  0.2547 -0.0099
 6489SOL    HW223060  10.922   4.550   9.710  1.0783  1.2143  0.1669
 6490SOL     OW23061   1.511   2.858  10.082 -0.0968  0.3730  0.5616
 6490SOL    HW123062   1.419   2.850  10.060 -0.3873  1.6037  1.2362
 6490SOL    HW223063   1.540   2.938  10.039  1.3864 -1.3467 -1.8648
 6491SOL     OW23064   4.978   9.045   0.743  0.6842 -0.4930  0.2606
 6491SOL    HW123065   5.047   9.067   0.807  0.5542  3.3694 -0.6965
 6491SOL    HW223066   5.024   9.043   0.659  0.0697 -0.8043 -0.0708
 6492SOL     OW23067  10.015   9.643  10.356  0.2249 -0.4736 -0.3686
 6492SOL    HW123068  10.015   9.700  10.433  1.0010 -1.8079  0.6708
 6492SOL    HW223069  10.028   9.703  10.282  2.5173  0.6082  0.7841
 6493SOL     OW23070   4.921   2.243  11.030 -0.7431  0.1387 -0.0414
 6493SOL    HW123071   4.886   2.180  11.092 -1.3699  0.2555 -0.2740
 6493SOL    HW223072   5.001   2.276  11.072 -1.6861  0.9623  1.1733
 6494SOL     OW23073   9.593   2.562  10.594  0.5526 -0.7376  0.0701
 6494SOL    HW123074   9.529   2.584  10.662  0.0118  0.3236 -0.7732
 6494SOL    HW223075   9.669   2.532  10.643  0.8157  1.6674  1.2504
 6495SOL     OW23076   0.343  10.138  10.461  0.9761  0.3412  0.0545
 6495SOL    HW123077   0.372  10.131  10.370  0.1409 -0.9443 -0.1362
 6495SOL    HW223078   0.251  10.113  10.459  1.6934 -3.0387  1.6571
 6496SOL     OW23079   3.090  10.956   8.906  0.0951 -0.5473 -0.0274
 6496SOL    HW123080   3.157  10.965   8.838  0.7835 -0.1064  0.6912
 6496SOL    HW223081   3.099  10.866   8.936  1.5789 -0.0200  1.2592
 6497SOL     OW23082   9.512   3.709   7.080  0.0422 -0.6354 -0.0492
 6497SOL    HW123083   9.527   3.748   7.166  0.4348 -2.5409  0.7922
 6497SOL    HW223084   9.447   3.767   7.039  0.9030  1.1165  0.9237
 6498SOL     OW23085   8.744   9.883   0.150 -0.1853 -0.0723 -0.0571
 6498SOL    HW123086   8.666   9.934   0.131 -0.3992 -0.4514 -0.2087
 6498SOL    HW223087   8.807   9.947   0.185 -0.4465  0.2906 -0.2475
 6499SOL     OW23088   3.771   1.908   7.374 -0.3361 -0.2541  0.0040
 6499SOL    HW123089   3.747   1.861   7.294 -0.3943 -0.5918  0.2160
 6499SOL    HW223090   3.688   1.942   7.407 -0.6236 -1.7827  0.9654
 6500SOL     OW23091  10.713   4.406   5.373 -0.6000 -0.1309 -0.3605
 6500SOL    HW123092  10.621   4.406   5.346 -0.8354 -3.0551  0.1337
 6500SOL    HW223093  10.711   4.390   5.467  0.4100 -0.2312 -0.3423
 6501SOL     OW23094   5.741   7.086   2.279 -0.0625 -0.4482  0.1729
 6501SOL    HW123095   5.707   7.103   2.192  0.6381 -3.4907 -0.8251
 6501SOL    HW223096   5.695   7.007   2.308  1.3989 -0.8668  1.5439
 6502SOL     OW23097   1.838  10.863   2.231  0.5655  0.9812 -0.4474
 6502SOL    HW123098   1.785  10.812   2.169  0.9476 -1.3863  1.0617
 6502SOL    HW223099   1.921  10.876   2.186  0.3787  0.4711 -0.9579
 6503SOL     OW23100   9.621  10.109   0.189 -0.4610  0.5361 -0.4782
 6503SOL    HW123101   9.590  10.061   0.112  0.2807  0.7449 -0.9190
 6503SOL    HW223102   9.542  10.148   0.226 -1.2540 -1.7856  0.4541
 6504SOL     OW23103  10.002   2.155   6.031  0.3394 -0.1566  0.3771
 6504SOL    HW123104  10.002   2.134   6.124 -0.3081 -0.2580  0.3636
 6504SOL    HW223105  10.094   2.167   6.008  0.6023 -1.3150  0.7593
 6505SOL     OW23106  10.873   3.190  10.294  0.1977  0.2984  0.9265
 6505SOL    HW123107  10.836   3.278  10.305 -2.5736 -0.7982  1.2233
 6505SOL    HW223108  10.857   3.146  10.377  0.5957 -0.8070  0.4476
 6506SOL     OW23109  11.080   1.593   8.042  0.3943  0.4037 -0.3289
 6506SOL    HW123110  11.169   1.560   8.056  0.1279 -0.3812 -0.4967
 6506SOL    HW223111  11.093   1.675   7.993  0.9542 -0.5835 -1.9166
 6507SOL     OW23112   2.242   3.996   6.084 -0.3751 -0.2238  0.8746
 6507SOL    HW123113   2.336   3.980   6.078 -0.5363 -0.9432 -0.0054
 6507SOL    HW223114   2.208   3.971   5.998 -0.8914  3.5353 -0.1910
 6508SOL     OW23115   0.213   4.592  11.008 -0.4554  0.1476 -0.1965
 6508SOL    HW123116   0.272   4.522  11.035  0.4641  1.0702  0.2453
 6508SOL    HW223117   0.141   4.587  11.071  0.4803  0.7151  0.9577
 6509SOL     OW23118   5.766  11.109   8.708 -0.4435  0.3090 -0.6000
 6509SOL    HW123119   5.845  11.079   8.663 -0.4228 -0.2076 -0.2191
 6509SOL    HW223120   5.768  11.066   8.793 -1.1689  0.2363 -0.6110
 6510SOL     OW23121   5.303   0.069   7.315 -0.0303 -0.3963  0.2855
 6510SOL    HW123122   5.308  -0.024   7.293  1.0354 -0.1009 -0.8033
 6510SOL    HW223123   5.388   0.105   7.288 -0.9737  1.1847 -0.7226
 6511SOL     OW23124   8.315   6.322   2.650  0.1211  0.0175 -0.6652
 6511SOL    HW123125   8.308   6.416   2.634 -0.0525 -0.3481 -3.2519
 6511SOL    HW223126   8.409   6.305   2.652  0.1508  0.1366 -1.0234
 6512SOL     OW23127   7.718   1.259   3.869  0.0615 -0.7091  0.0292
 6512SOL    HW123128   7.678   1.222   3.790  0.9282 -0.2870 -0.6270
 6512SOL    HW223129   7.698   1.352   3.865 -0.6460 -0.8183  0.7841
 6513SOL     OW23130   3.685   4.053   6.797 -0.4547 -0.2545 -0.1424
 6513SOL    HW123131   3.737   3.986   6.840 -0.6978 -0.3590 -0.0144
 6513SOL    HW223132   3.602   4.011   6.776  0.1819 -0.6683 -2.0627
 6514SOL     OW23133   2.480   3.822   5.516 -0.2285  0.2752 -0.6627
 6514SOL    HW123134   2.441   3.877   5.448 -0.8356  0.8605  0.1362
 6514SOL    HW223135   2.427   3.742   5.515 -0.9735  0.7416 -0.1336
 6515SOL     OW23136   7.589   9.272   2.072 -0.4244 -0.3611  0.1547
 6515SOL    HW123137   7.533   9.326   2.128 -0.7329 -0.0511 -0.4420
 6515SOL    HW223138   7.678   9.295   2.098 -0.5636 -0.5854  0.8530
 6516SOL     OW23139   8.727   0.017  10.787  0.3220 -0.6913 -0.6466
 6516SOL    HW123140   8.818   0.048  10.787 -0.3864  1.6517  1.0492
 6516SOL    HW223141   8.710  -0.005  10.879 -0.5269 -2.2027 -1.1342
 6517SOL     OW23142   8.182   2.014   0.519 -0.6686 -0.0641  0.0278
 6517SOL    HW123143   8.199   2.095   0.472 -1.3281  0.4818  0.7131
 6517SOL    HW223144   8.221   1.946   0.464 -1.1911  0.5852 -1.1696
 6518SOL     OW23145   5.938   2.366   9.495 -0.3440 -0.2019  0.7280
 6518SOL    HW123146   6.031   2.378   9.515 -0.1223  1.5653 -1.1188
 6518SOL    HW223147   5.892   2.414   9.564  0.2030  0.9124  0.3286
 6519SOL     OW23148   5.670   2.009   6.035 -0.3092  0.7320 -0.0933
 6519SOL    HW123149   5.606   2.079   6.046  0.1177  1.2149 -0.5963
 6519SOL    HW223150   5.755   2.054   6.035 -0.0365  0.2307 -0.5113
 6520SOL     OW23151   6.614   3.625   4.620 -0.4027 -0.5562 -0.2249
 6520SOL    HW123152   6.663   3.606   4.539  0.3757 -1.5900  0.4626
 6520SOL    HW223153   6.662   3.579   4.688 -0.9276  0.4840  0.8829
 6521SOL     OW23154   9.893   6.424   1.765  0.5737 -0.1422  0.2488
 6521SOL    HW123155   9.834   6.364   1.810  1.6694 -1.4803 -0.0261
 6521SOL    HW223156   9.853   6.438   1.679  0.3123 -0.4965  0.3100
 6522SOL     OW23157   5.604   5.558   3.320 -0.1320  0.1333 -0.2460
 6522SOL    HW123158   5.667   5.490   3.342 -0.2558  0.0168 -0.2494
 6522SOL    HW223159   5.532   5.545   3.383 -0.5248 -0.2445 -0.7621
 6523SOL     OW23160  10.546   5.650  10.339  0.2872  0.1336  0.3316
 6523SOL    HW123161  10.590   5.619  10.419  1.4772 -1.1674 -0.7864
 6523SOL    HW223162  10.550   5.576  10.279  0.0158  1.3194 -1.1998
 6524SOL     OW23163   6.194   2.780   6.773 -0.4632 -0.4543 -0.0188
 6524SOL    HW123164   6.119   2.722   6.782 -1.5288  0.8786 -0.1019
 6524SOL    HW223165   6.165   2.863   6.808  0.7118  0.3113 -0.7799
 6525SOL     OW23166   7.349   2.202   6.164 -0.8499 -0.0163  0.0332
 6525SOL    HW123167   7.372   2.144   6.237  0.4815 -1.6714 -1.6245
 6525SOL    HW223168   7.274   2.252   6.197  0.8979  0.7925  3.2691
 6526SOL     OW23169  10.948   8.989   7.477  0.1922  0.2785 -0.2482
 6526SOL    HW123170  10.865   8.943   7.472  1.5729 -2.3498 -1.0584
 6526SOL    HW223171  10.942   9.042   7.556 -0.7871 -3.0843  2.1676
 6527SOL     OW23172   3.089   0.136   5.903  0.0892 -0.3136  0.4530
 6527SOL    HW123173   3.167   0.189   5.915  0.9817 -1.2434 -0.8803
 6527SOL    HW223174   3.098   0.065   5.967  0.3417 -0.4178  0.3031
 6528SOL     OW23175   3.319   7.204   8.068  0.2562 -0.2298 -0.3457
 6528SOL    HW123176   3.394   7.179   8.123 -2.9740 -2.4787  3.5349
 6528SOL    HW223177   3.288   7.286   8.105 -0.8166 -0.7586 -0.0316
 6529SOL     OW23178   3.373   3.817   3.863 -0.2166  0.3038  0.0836
 6529SOL    HW123179   3.428   3.750   3.822 -1.0732 -1.4533  1.6367
 6529SOL    HW223180   3.285   3.780   3.859 -0.6092  1.0359  1.5868
 6530SOL     OW23181   3.120  10.417   1.862  0.6021 -0.0185  0.5274
 6530SOL    HW123182   3.126  10.455   1.774  1.8041 -0.4132  0.4177
 6530SOL    HW223183   3.183  10.345   1.861 -0.7761 -1.2831  1.1017
 6531SOL     OW23184   6.990   8.431   0.544  0.0808 -0.1435 -0.2717
 6531SOL    HW123185   7.049   8.496   0.581  0.9741 -1.2604  0.3205
 6531SOL    HW223186   7.045   8.378   0.486 -0.3002 -1.2728  0.3686
 6532SOL     OW23187   4.119   7.791   7.095  0.7547 -0.5042 -0.2425
 6532SOL    HW123188   4.036   7.746   7.106 -0.1994  1.3116  0.4235
 6532SOL    HW223189   4.183   7.721   7.083 -0.5930 -2.0104  0.9257
 6533SOL     OW23190   5.507   1.478   5.379  0.2852 -0.0659  0.2985
 6533SOL    HW123191   5.528   1.431   5.299 -2.2455 -0.8629  0.0058
 6533SOL    HW223192   5.569   1.444   5.444 -0.0469 -2.2550 -0.4414
 6534SOL     OW23193   0.916   6.730   0.425 -0.2822  0.0865 -0.2754
 6534SOL    HW123194   0.999   6.696   0.457 -1.0022 -2.4060 -0.8468
 6534SOL    HW223195   0.923   6.724   0.330 -0.6581  1.0973 -0.3815
 6535SOL     OW23196   8.479   3.261   0.298  0.2202  0.1285  0.2810
 6535SOL    HW123197   8.537   3.224   0.232  1.1338 -2.1644  2.1981
 6535SOL    HW223198   8.427   3.186   0.329  0.5456  0.8581  2.8046
 6536SOL     OW23199   8.142   3.246   3.930 -0.2232 -0.2109  0.0492
 6536SOL    HW123200   8.072   3.224   3.991 -0.3032  1.1406  0.4598
 6536SOL    HW223201   8.222   3.220   3.976 -0.3563 -0.3927  0.1838
 6537SOL     OW23202   3.111   8.069   2.761  0.2990 -0.4487 -0.1288
 6537SOL    HW123203   3.023   8.101   2.741  1.0258  2.0761  0.4396
 6537SOL    HW223204   3.158   8.077   2.678  0.4275 -0.2207 -0.0348
 6538SOL     OW23205   5.412   2.763   9.636  0.3296 -0.1597  0.9086
 6538SOL    HW123206   5.426   2.852   9.605 -1.0174 -0.3003 -0.1956
 6538SOL    HW223207   5.318   2.749   9.626  0.6605 -2.0387  0.1585
 6539SOL     OW23208  10.258  10.298   2.935  0.0174  0.7101  0.3374
 6539SOL    HW123209  10.183  10.358   2.933  0.0126  0.7487 -2.3610
 6539SOL    HW223210  10.222  10.213   2.910  1.0047  1.1144 -3.0383
 6540SOL     OW23211   1.857   8.067   7.521 -0.1249  0.4133 -0.1599
 6540SOL    HW123212   1.844   8.130   7.592 -0.5554  0.7833 -0.5578
 6540SOL    HW223213   1.922   8.006   7.555 -1.7370 -0.5823  1.2952
 6541SOL     OW23214   2.021   6.899  10.151 -0.0305 -0.2839 -0.4229
 6541SOL    HW123215   2.090   6.957  10.118  1.1050 -1.4814 -0.2573
 6541SOL    HW223216   1.958   6.894  10.079  0.0611  0.7931 -0.5986
 6542SOL     OW23217  10.789   2.662   1.818  0.1554 -0.1102 -0.6607
 6542SOL    HW123218  10.697   2.676   1.797  0.5072  1.5140 -1.2135
 6542SOL    HW223219  10.836   2.692   1.741  1.1829 -0.3793 -0.1517
 6543SOL     OW23220   5.202   9.095  10.941 -0.6164 -0.1930  0.1286
 6543SOL    HW123221   5.123   9.053  10.975 -0.7395 -0.5600 -0.5985
 6543SOL    HW223222   5.206   9.179  10.986 -0.1673 -1.1016  1.9164
 6544SOL     OW23223   9.453   2.349   0.300  0.0983 -0.7775  0.3438
 6544SOL    HW123224   9.359   2.341   0.314 -0.2974  1.9506 -0.1613
 6544SOL    HW223225   9.483   2.406   0.371  0.9565  0.1194 -0.7023
 6545SOL     OW23226   3.453   2.774   8.602  0.1136 -0.4307 -0.2008
 6545SOL    HW123227   3.515   2.797   8.532 -0.9135  0.8312 -0.7362
 6545SOL    HW223228   3.398   2.706   8.565 -1.0377  0.8985 -0.9959
 6546SOL     OW23229   7.949   9.361   6.117 -0.2127 -0.3653  1.0659
 6546SOL    HW123230   8.020   9.397   6.064 -1.1735  2.4615  1.4800
 6546SOL    HW223231   7.991   9.331   6.198  0.8307 -1.6084  0.1015
 6547SOL     OW23232   4.691   3.357   4.641  0.2729 -0.1457  0.5688
 6547SOL    HW123233   4.760   3.415   4.609  0.9739 -1.5486 -0.6251
 6547SOL    HW223234   4.618   3.415   4.663  1.0489  1.1882 -0.2511
 6548SOL     OW23235   1.116   7.203   6.139  0.2293  0.1999  0.0163
 6548SOL    HW123236   1.072   7.288   6.136 -0.8690 -0.3643 -0.5329
 6548SOL    HW223237   1.072   7.151   6.072  0.5436 -0.9653  0.6910
 6549SOL     OW23238   5.758  10.834  10.258 -0.3346 -0.1312 -0.3432
 6549SOL    HW123239   5.785  10.920  10.290  0.9972 -0.5975 -0.1771
 6549SOL    HW223240   5.718  10.852  10.172 -0.4588  0.6876 -0.1220
 6550SOL     OW23241  10.417   3.306   1.028  0.3261 -0.0147 -0.3748
 6550SOL    HW123242  10.355   3.379   1.036  1.3528  0.6908  1.4835
 6550SOL    HW223243  10.478   3.334   0.960  2.6209  2.4015  2.4406
 6551SOL     OW23244   1.297   3.458   1.389  0.0606 -0.3906 -0.1768
 6551SOL    HW123245   1.356   3.415   1.327  0.4801  0.7699 -0.5964
 6551SOL    HW223246   1.252   3.385   1.433  3.0101 -1.4491  1.4135
 6552SOL     OW23247   6.952  10.895   8.570 -0.2341  0.6702 -0.4950
 6552SOL    HW123248   6.976  10.954   8.641  2.8208 -1.5229  0.5381
 6552SOL    HW223249   7.018  10.911   8.502  0.0502 -0.7517 -0.6013
 6553SOL     OW23250   6.048   0.286  10.369 -0.3650  0.0313 -0.1751
 6553SOL    HW123251   6.079   0.319  10.285 -0.9730 -1.1145 -0.8766
 6553SOL    HW223252   5.962   0.248  10.350  0.8420 -3.2192  0.2333
 6554SOL     OW23253   1.887   8.443   8.682  0.1006 -0.0248 -0.0198
 6554SOL    HW123254   1.812   8.463   8.738 -0.0265  0.3426 -0.3130
 6554SOL    HW223255   1.963   8.452   8.739  0.0556  1.3351 -0.1281
 6555SOL     OW23256   8.409   0.420   8.772  0.2195  0.1043  0.2581
 6555SOL    HW123257   8.373   0.497   8.815 -0.8080  0.5456 -1.2873
 6555SOL    HW223258   8.339   0.355   8.777  0.1590  0.0946 -0.5092
 6556SOL     OW23259   4.089   7.257   9.735  0.1405  0.2841 -0.0358
 6556SOL    HW123260   4.134   7.173   9.725  0.2236  0.2778  0.3901
 6556SOL    HW223261   3.996   7.235   9.735  0.0509  0.4023 -2.0797
 6557SOL     OW23262   1.617   9.212   6.656  0.0006  0.4817 -0.0795
 6557SOL    HW123263   1.604   9.117   6.648 -0.1589  0.5761 -1.1448
 6557SOL    HW223264   1.660   9.224   6.740 -2.1927 -0.3312  1.2574
 6558SOL     OW23265   1.523   0.314   5.037  0.0630 -0.0990 -0.0597
 6558SOL    HW123266   1.483   0.374   5.099 -1.7558  0.1494 -1.3818
 6558SOL    HW223267   1.484   0.229   5.056 -0.8296  0.0585 -1.0844
 6559SOL     OW23268   3.450   6.351  11.100 -0.2491  0.1975 -0.1344
 6559SOL    HW123269   3.492   6.373  11.017 -1.4170  0.6438 -0.6396
 6559SOL    HW223270   3.458   6.431  11.153  1.4943 -0.4427  0.6617
 6560SOL     OW23271   8.886   3.650   3.755  0.3500 -0.2091  0.0131
 6560SOL    HW123272   8.941   3.580   3.791 -3.1182 -2.0442  2.2577
 6560SOL    HW223273   8.852   3.695   3.832  0.0542  2.0089 -1.3386
 6561SOL     OW23274   6.303   5.759   9.368 -0.3049  0.3611  0.4535
 6561SOL    HW123275   6.324   5.784   9.458 -1.0347 -0.9458  1.0269
 6561SOL    HW223276   6.266   5.838   9.328  1.2956  1.3512  0.8440
 6562SOL     OW23277   5.045   9.623   8.608  0.6433  0.7738  0.0029
 6562SOL    HW123278   5.024   9.597   8.518 -0.8218 -0.5046  0.6679
 6562SOL    HW223279   4.972   9.590   8.660  1.8135  0.8492  1.7743
 6563SOL     OW23280   5.414   5.630   4.148 -0.3935  0.5050  0.0273
 6563SOL    HW123281   5.363   5.679   4.213  0.1005 -0.5710  1.2642
 6563SOL    HW223282   5.505   5.647   4.173 -0.2068 -0.1322 -0.2176
 6564SOL     OW23283   6.902   0.074   2.776 -0.6814 -0.1329 -0.1934
 6564SOL    HW123284   6.974   0.027   2.819 -0.9109 -1.0786 -0.7984
 6564SOL    HW223285   6.917   0.166   2.798  1.4026 -0.1494 -1.2546
 6565SOL     OW23286   8.921   2.916   2.157  0.2887  0.2831  0.5316
 6565SOL    HW123287   8.975   2.952   2.228 -1.1603 -1.0061  2.4191
 6565SOL    HW223288   8.891   2.831   2.191 -2.4542  0.7004 -0.5745
 6566SOL     OW23289   7.177  10.049   9.129 -0.1117  0.4704 -0.4460
 6566SOL    HW123290   7.137  10.135   9.145  1.2213  0.8563  1.0809
 6566SOL    HW223291   7.266  10.069   9.103  0.3630 -0.4425  0.3950
 6567SOL     OW23292   4.137   6.683   9.808  0.4221  0.1775  0.3504
 6567SOL    HW123293   4.189   6.694   9.887 -0.0311  0.8651  0.5562
 6567SOL    HW223294   4.123   6.588   9.802  0.7718  0.0872  0.8838
 6568SOL     OW23295   3.102   9.160   9.775 -0.1124 -1.0686 -0.5540
 6568SOL    HW123296   3.065   9.217   9.843 -0.0124  0.3380 -1.6303
 6568SOL    HW223297   3.026   9.118   9.734 -0.4468  0.5156 -1.6391
 6569SOL     OW23298   0.809   4.566   0.418  0.6106  0.1294 -0.6576
 6569SOL    HW123299   0.900   4.590   0.435 -0.0407  2.0389  0.5475
 6569SOL    HW223300   0.805   4.472   0.434  2.0646  0.2598  0.7243
 6570SOL     OW23301   6.182   3.514   4.651 -0.0820 -0.5505 -0.0728
 6570SOL    HW123302   6.249   3.462   4.607 -0.1080  0.4741 -1.4117
 6570SOL    HW223303   6.133   3.554   4.579  0.3899  1.8788  0.8610
 6571SOL     OW23304   9.704   5.352   4.393 -0.4748 -0.3012  0.2595
 6571SOL    HW123305   9.638   5.371   4.327 -0.2450  0.4902  0.2430
 6571SOL    HW223306   9.787   5.353   4.345  0.0758  3.4128  0.9876
 6572SOL     OW23307   7.234   6.938   3.110 -0.5127  0.7365 -0.3219
 6572SOL    HW123308   7.219   6.887   3.190  0.6752 -0.6600 -0.9328
 6572SOL    HW223309   7.162   7.000   3.107 -1.8584 -0.6994  0.6420
 6573SOL     OW23310   2.658   1.234  10.283 -0.3602 -0.2257  0.1471
 6573SOL    HW123311   2.657   1.289  10.204 -0.8459  1.5486  1.3358
 6573SOL    HW223312   2.622   1.290  10.351 -2.0060 -2.4430  1.1999
 6574SOL     OW23313   5.591   9.104   1.053  0.6452 -0.1029  0.2697
 6574SOL    HW123314   5.660   9.159   1.092  0.4139  0.2098  0.2451
 6574SOL    HW223315   5.603   9.019   1.094 -0.7046  0.6507  2.4232
 6575SOL     OW23316   3.046   9.725  10.556  0.0527  0.5251  0.2607
 6575SOL    HW123317   3.102   9.667  10.608  0.3586  0.3274 -0.2753
 6575SOL    HW223318   3.026   9.799  10.614 -0.3512 -0.1147  0.9597
 6576SOL     OW23319   7.684   8.653   2.709  0.0409  0.5722 -0.5722
 6576SOL    HW123320   7.670   8.564   2.743 -0.5875  1.0540  0.4675
 6576SOL    HW223321   7.601   8.677   2.670  0.3690  0.5228 -1.3211
 6577SOL     OW23322   3.875   1.204   8.500 -0.7687 -0.1573  0.6461
 6577SOL    HW123323   3.911   1.289   8.529  0.2444 -0.7340  1.1431
 6577SOL    HW223324   3.910   1.141   8.563  1.9698 -1.5802 -2.0555
 6578SOL     OW23325   4.553   0.244   6.772 -0.6122  0.0080  0.3596
 6578SOL    HW123326   4.596   0.218   6.691 -0.6308  0.5911  0.1546
 6578SOL    HW223327   4.492   0.174   6.791  1.1798 -1.4007  1.2446
 6579SOL     OW23328   4.456   3.792   4.381 -0.1265 -0.6290  0.1779
 6579SOL    HW123329   4.513   3.714   4.383  0.8519  0.0493  1.8498
 6579SOL    HW223330   4.513   3.862   4.414 -0.9601  0.8255 -1.3950
 6580SOL     OW23331   7.636   4.354   8.892  0.3222  0.6478 -0.5087
 6580SOL    HW123332   7.700   4.340   8.823 -0.4199  0.9043 -1.2615
 6580SOL    HW223333   7.552   4.331   8.853  0.0372 -0.5852  0.7522
 6581SOL     OW23334   3.981   6.747  10.311 -0.1275 -0.1408  0.2584
 6581SOL    HW123335   3.920   6.720  10.242 -1.0288  0.4941  0.7754
 6581SOL    HW223336   4.003   6.838  10.290  2.5754 -1.0670 -1.2550
 6582SOL     OW23337   3.077   9.929  10.763  0.1197  0.1736 -0.0103
 6582SOL    HW123338   3.118  10.011  10.790  0.2694 -0.1048  0.6241
 6582SOL    HW223339   2.993   9.928  10.808  0.7596 -0.7247  1.2230
 6583SOL     OW23340  10.072  10.618   6.186  0.3137  0.3171 -0.1732
 6583SOL    HW123341  10.163  10.602   6.160  0.1837 -0.9013  0.0881
 6583SOL    HW223342  10.020  10.581   6.115 -0.0593 -3.2693  1.7299
 6584SOL     OW23343   8.833   4.457   6.930 -0.0491  0.0035 -0.6108
 6584SOL    HW123344   8.811   4.550   6.934 -1.9205 -0.4380  0.6870
 6584SOL    HW223345   8.786   4.424   6.853 -1.4385 -0.3006  0.3227
 6585SOL     OW23346  11.079   9.869   3.979  0.0256 -0.1568  0.3324
 6585SOL    HW123347  11.000   9.818   3.961  0.2377 -0.6545  0.7779
 6585SOL    HW223348  11.114   9.831   4.060  2.2439 -1.8469 -1.2765
 6586SOL     OW23349  10.160   0.206   7.427  0.3373 -0.2821 -0.1457
 6586SOL    HW123350  10.133   0.146   7.358  0.1505 -1.3372  0.8097
 6586SOL    HW223351  10.132   0.163   7.508 -0.2064  1.3059  0.5589
 6587SOL     OW23352   7.266   0.458   8.399 -0.4443 -0.8777 -0.4496
 6587SOL    HW123353   7.269   0.542   8.445  1.4475 -1.5771  0.8036
 6587SOL    HW223354   7.355   0.424   8.405 -0.7024 -2.1281 -2.5991
 6588SOL     OW23355   8.533   4.151  10.017 -0.5911  0.7154  0.1990
 6588SOL    HW123356   8.583   4.230  10.037 -0.8224  0.5780  1.3885
 6588SOL    HW223357   8.583   4.080  10.058 -0.9856  0.3955  0.1283
 6589SOL     OW23358   4.588   8.263   0.546  0.4675  0.0316 -0.2850
 6589SOL    HW123359   4.516   8.248   0.485 -0.1527 -0.1484  0.4816
 6589SOL    HW223360   4.593   8.358   0.554 -0.0474  0.0287  0.0849
 6590SOL     OW23361   4.983   9.317   9.705 -0.4362 -0.3022  0.0399
 6590SOL    HW123362   4.973   9.409   9.727 -0.2012 -0.0464 -0.9150
 6590SOL    HW223363   5.054   9.287   9.762  0.7829  0.5831 -0.9527
 6591SOL     OW23364   3.630   5.254  10.057 -0.1425  1.1761 -0.3330
 6591SOL    HW123365   3.627   5.315   9.983  1.7728  1.9667  0.1620
 6591SOL    HW223366   3.674   5.176  10.022  1.6429  1.9106  0.1184
 6592SOL     OW23367   4.587   4.521   3.518 -0.6405  0.0228  0.0637
 6592SOL    HW123368   4.557   4.595   3.465  1.2598 -0.7796 -2.3230
 6592SOL    HW223369   4.507   4.483   3.553 -1.8321  1.8497 -0.5211
 6593SOL     OW23370   2.988   0.455   9.980  0.0856  0.1672 -0.3880
 6593SOL    HW123371   2.930   0.390   9.942  0.0355  1.5066 -2.7762
 6593SOL    HW223372   3.071   0.444   9.933  1.1322 -0.2558  1.4421
 6594SOL     OW23373   5.868   6.202  11.077  0.0097  0.6859 -0.4656
 6594SOL    HW123374   5.809   6.128  11.066 -1.3555  1.4904  1.0255
 6594SOL    HW223375   5.925   6.178  11.150 -1.3159  1.5679  0.9246
 6595SOL     OW23376   4.193   0.849  10.821 -0.0261  0.4633  0.6889
 6595SOL    HW123377   4.245   0.926  10.840 -0.2477  0.8012 -0.0695
 6595SOL    HW223378   4.103   0.876  10.838  0.0227 -0.1141  1.9870
 6596SOL     OW23379   7.234   8.936   8.388 -0.3407  0.6729 -0.5502
 6596SOL    HW123380   7.271   8.866   8.442 -0.0580 -0.5701 -2.2878
 6596SOL    HW223381   7.301   9.005   8.390  0.1393  0.2103 -0.1714
 6597SOL     OW23382   8.630  10.696   4.054  0.1001 -0.4858 -0.3872
 6597SOL    HW123383   8.691  10.767   4.032 -0.2595  0.3939  1.3030
 6597SOL    HW223384   8.673  10.648   4.124  0.0220 -1.5403 -1.0412
 6598SOL     OW23385   9.129   3.237   1.066 -0.6580  0.0419  0.4107
 6598SOL    HW123386   9.128   3.173   0.995 -0.6119 -0.1902  0.6208
 6598SOL    HW223387   9.222   3.252   1.084 -0.6692  0.1366  0.3904
 6599SOL     OW23388   9.461   1.072  10.096  0.0831 -0.1944  0.5816
 6599SOL    HW123389   9.530   1.048  10.035 -0.8856 -2.4066  0.2836
 6599SOL    HW223390   9.409   1.138  10.050  1.1686  0.4537  0.2703
 6600SOL     OW23391   2.822   3.353   8.476 -0.3413  0.5733 -0.0300
 6600SOL    HW123392   2.880   3.429   8.477 -1.2788  1.3497  2.4003
 6600SOL    HW223393   2.749   3.377   8.534 -1.9110 -1.2586 -1.1208
 6601SOL     OW23394   0.381   5.508   0.080  0.4087 -0.0563 -0.4104
 6601SOL    HW123395   0.389   5.525  -0.014  1.1344  1.5471 -0.0879
 6601SOL    HW223396   0.465   5.534   0.116 -0.6206  1.5941  0.9742
 6602SOL     OW23397   0.318  10.625   6.341 -0.1998 -0.0640 -0.0387
 6602SOL    HW123398   0.241  10.570   6.329 -1.1417  0.5695  2.5287
 6602SOL    HW223399   0.369  10.580   6.410 -1.2970  2.4135  2.5845
 6603SOL     OW23400   9.759   4.969   6.850 -0.0138  0.4550 -0.2806
 6603SOL    HW123401   9.807   5.001   6.774 -1.0931 -0.0067 -1.1767
 6603SOL    HW223402   9.803   5.010   6.925  0.0262  2.2587 -1.2385
 6604SOL     OW23403   9.771   9.806   5.817  0.1220  0.0147 -0.1506
 6604SOL    HW123404   9.862   9.812   5.786 -0.0790  1.0319 -0.5677
 6604SOL    HW223405   9.734   9.734   5.765  0.6349 -0.2932 -0.1037
 6605SOL     OW23406   7.788   2.637   4.336  0.0055 -0.0490  0.4170
 6605SOL    HW123407   7.837   2.687   4.271 -0.6514 -1.5159 -1.3198
 6605SOL    HW223408   7.830   2.657   4.419  2.3926  0.1600 -0.7538
 6606SOL     OW23409   9.420   5.068   5.461 -0.1604  0.5728  0.1543
 6606SOL    HW123410   9.426   4.976   5.437  3.7197  0.6088  0.3923
 6606SOL    HW223411   9.430   5.069   5.556  1.6737  1.2613 -0.0088
 6607SOL     OW23412   8.199   2.337   0.042 -0.0599  0.0259  0.1364
 6607SOL    HW123413   8.192   2.406  -0.024  0.0901 -1.1308 -1.1390
 6607SOL    HW223414   8.128   2.354   0.103  0.2999  1.5967  0.1489
 6608SOL     OW23415   1.644   9.852   8.789  0.0108 -0.1377  0.2934
 6608SOL    HW123416   1.554   9.865   8.820 -0.1731 -0.2551 -0.1732
 6608SOL    HW223417   1.647   9.760   8.764  1.1050 -0.8962  2.9405
 6609SOL     OW23418   6.235   9.603   4.198  0.8764 -0.2929  0.5279
 6609SOL    HW123419   6.176   9.557   4.138 -0.0673  1.8628 -0.2919
 6609SOL    HW223420   6.220   9.562   4.283 -0.4494 -1.0060 -0.0259
 6610SOL     OW23421  10.186   1.171   2.603 -0.2289  1.0886 -0.1537
 6610SOL    HW123422  10.138   1.207   2.529 -0.0249  0.0246 -0.8283
 6610SOL    HW223423  10.132   1.190   2.679 -1.5162  0.2889 -0.8417
 6611SOL     OW23424   1.127   1.886   3.799  0.2238 -0.0296 -0.4891
 6611SOL    HW123425   1.033   1.881   3.818  0.5545  0.1015  1.4673
 6611SOL    HW223426   1.165   1.813   3.848  1.0635 -0.6566 -2.0254
 6612SOL     OW23427   0.030   0.363   7.734  0.2144 -0.3010  0.6261
 6612SOL    HW123428  -0.021   0.443   7.740 -1.6400 -1.3548 -0.2581
 6612SOL    HW223429   0.010   0.315   7.814 -0.4400 -0.8428  0.1493
 6613SOL     OW23430   5.322   7.044   0.230  0.6040  0.1394  0.3889
 6613SOL    HW123431   5.405   6.998   0.215  0.3887 -0.1376  0.0224
 6613SOL    HW223432   5.307   7.094   0.150 -0.3192 -0.9812 -0.1649
 6614SOL     OW23433   2.829   1.343   5.192 -0.1856  0.4370 -0.3258
 6614SOL    HW123434   2.801   1.253   5.177  2.8595 -0.4608 -1.2589
 6614SOL    HW223435   2.885   1.363   5.117  0.2995  2.6469  0.5500
 6615SOL     OW23436   5.500   4.498   2.202  0.0964  0.0630 -0.8107
 6615SOL    HW123437   5.593   4.518   2.187  0.0397  0.3760 -0.7573
 6615SOL    HW223438   5.499   4.452   2.287  0.2744 -0.5507 -1.1358
 6616SOL     OW23439  10.159  10.288   1.513  0.1620 -0.1880 -0.2948
 6616SOL    HW123440  10.144  10.321   1.602  1.1120 -1.2983  0.3044
 6616SOL    HW223441  10.078  10.242   1.491 -0.2977  0.5746 -0.2497
 6617SOL     OW23442   8.793   1.974   8.744 -0.0352  0.2957  0.2094
 6617SOL    HW123443   8.869   1.952   8.798 -0.5926  0.1741  0.9480
 6617SOL    HW223444   8.772   1.893   8.698  0.0293  0.2171  0.3172
 6618SOL     OW23445   3.552  10.618   9.793  0.0301  0.9425  0.2107
 6618SOL    HW123446   3.623  10.562   9.825 -1.0469 -0.9609 -0.5862
 6618SOL    HW223447   3.480  10.557   9.774 -0.4682  2.3218 -2.7997
 6619SOL     OW23448   5.458   6.096   7.189 -0.8605  0.0928  0.0955
 6619SOL    HW123449   5.551   6.105   7.210 -0.8558  1.2687 -0.3728
 6619SOL    HW223450   5.454   6.019   7.132 -0.3705 -0.7827  1.2082
 6620SOL     OW23451  10.270   1.543  10.830  0.4245 -0.6654  0.5568
 6620SOL    HW123452  10.302   1.633  10.822  0.1472 -0.3463  2.5647
 6620SOL    HW223453  10.305   1.499  10.753  0.3380  1.2127 -0.6284
 6621SOL     OW23454   4.835   1.696  10.559 -0.1420 -0.4547 -0.1076
 6621SOL    HW123455   4.863   1.605  10.553  0.0062 -0.4476  0.4513
 6621SOL    HW223456   4.771   1.706  10.488 -0.0851 -0.9621 -0.2339
 6622SOL     OW23457   5.089   9.860   2.127  0.3514  0.4433 -0.2817
 6622SOL    HW123458   5.168   9.853   2.073  0.4433  0.4819 -0.1524
 6622SOL    HW223459   5.042   9.936   2.091  0.3871  0.4379 -0.3395
 6623SOL     OW23460   9.642   0.630   9.448 -0.1847  0.0332  0.3112
 6623SOL    HW123461   9.701   0.686   9.499 -1.2494  0.6875  0.8693
 6623SOL    HW223462   9.675   0.541   9.463  1.1411  0.4368 -0.0685
 6624SOL     OW23463   0.642  10.073   7.882 -0.2442  0.4828  0.2136
 6624SOL    HW123464   0.633   9.979   7.901  1.4765  0.3735  0.6486
 6624SOL    HW223465   0.602  10.083   7.796 -3.2056 -0.0415  1.3882
 6625SOL     OW23466   9.455  10.685   6.010 -0.0634  0.3259  0.6945
 6625SOL    HW123467   9.381  10.632   6.041  1.2286 -1.4138  0.9131
 6625SOL    HW223468   9.479  10.646   5.927 -0.5116  2.0544 -0.2981
 6626SOL     OW23469   3.094   5.701   6.917 -0.3353  0.0639  0.1465
 6626SOL    HW123470   3.039   5.684   6.993  0.7218 -0.4135  0.8339
 6626SOL    HW223471   3.182   5.712   6.953  0.1649 -0.0016 -0.9903
 6627SOL     OW23472   9.270   1.526   0.024 -0.0243 -0.0628  0.3108
 6627SOL    HW123473   9.178   1.553   0.028 -1.1791 -3.3021 -0.8652
 6627SOL    HW223474   9.310   1.588  -0.038 -1.3590  1.4320  0.8660
 6628SOL     OW23475   2.167  10.061  11.053 -0.1273  0.1101  0.3947
 6628SOL    HW123476   2.188  10.029  10.965 -0.0879  1.3616 -0.0727
 6628SOL    HW223477   2.182  10.155  11.048 -0.7667  0.2885  1.5570
 6629SOL     OW23478   3.813   3.430   2.764  0.3009 -0.4152  0.2139
 6629SOL    HW123479   3.810   3.431   2.859  0.2108 -1.0329  0.2255
 6629SOL    HW223480   3.886   3.372   2.743  0.5415 -0.0038 -0.0942
 6630SOL     OW23481   3.227   3.018   1.166 -0.1636 -0.1358  0.0265
 6630SOL    HW123482   3.192   2.946   1.113 -3.6426  1.3819  0.0210
 6630SOL    HW223483   3.248   3.086   1.103 -0.0994  0.0712  0.2713
 6631SOL     OW23484   4.710  10.357   9.063  0.2551 -0.3957  0.0822
 6631SOL    HW123485   4.625  10.370   9.104 -0.1808  1.0457 -1.1496
 6631SOL    HW223486   4.767  10.422   9.104  0.1779  0.0923 -0.5522
 6632SOL     OW23487   2.932   6.427  10.570  0.0279  0.3284 -0.4592
 6632SOL    HW123488   2.891   6.341  10.572 -0.0744  0.3868  0.0876
 6632SOL    HW223489   2.862   6.488  10.593  0.7963  0.2595  2.4713
 6633SOL     OW23490   8.130   4.525   4.863  0.2101 -0.2293  0.3479
 6633SOL    HW123491   8.073   4.464   4.910 -0.0563 -0.2532 -0.0024
 6633SOL    HW223492   8.186   4.469   4.809  0.3446 -0.1909  0.4490
 6634SOL     OW23493   4.244   0.328   8.027 -0.0546 -0.0116 -0.0244
 6634SOL    HW123494   4.263   0.323   7.934 -2.1947 -0.2697 -0.5005
 6634SOL    HW223495   4.312   0.275   8.068  2.0000  1.5683 -1.2119
 6635SOL     OW23496   9.297   6.650   2.651 -0.4766 -0.6103 -0.6622
 6635SOL    HW123497   9.363   6.604   2.600  0.9593 -0.7315  1.2211
 6635SOL    HW223498   9.296   6.739   2.615  1.7855 -0.1908  0.1700
 6636SOL     OW23499   5.440   5.075   0.899 -0.2922 -0.6669 -0.1006
 6636SOL    HW123500   5.382   5.068   0.823 -0.3079 -0.5762 -0.0979
 6636SOL    HW223501   5.513   5.017   0.879 -1.5462 -2.7294  0.9962
 6637SOL     OW23502   1.263   2.936   2.938  0.3094 -0.3412  0.5989
 6637SOL    HW123503   1.295   3.006   2.996  0.5229  0.3901 -0.3721
 6637SOL    HW223504   1.342   2.887   2.915  0.4012  0.0499  0.0536
 6638SOL     OW23505   8.518   7.523   9.285  0.2462  0.3641 -0.0302
 6638SOL    HW123506   8.515   7.428   9.298 -1.3442  0.3496 -0.2578
 6638SOL    HW223507   8.445   7.556   9.337  1.1156  1.5340  0.4819
 6639SOL     OW23508   4.127   5.025   1.377  0.1255  0.1316 -0.2719
 6639SOL    HW123509   4.121   5.003   1.284 -2.6650 -2.4621  0.3784
 6639SOL    HW223510   4.195   4.967   1.411 -0.3666 -0.4778 -0.3200
 6640SOL     OW23511   1.655   6.334   8.125  0.1404  0.5013 -0.5674
 6640SOL    HW123512   1.574   6.369   8.089 -0.2776  0.3127  0.1674
 6640SOL    HW223513   1.631   6.247   8.158  0.6682  0.3891 -0.4700
 6641SOL     OW23514   0.590   1.330   8.792  0.3713  0.5175 -0.1136
 6641SOL    HW123515   0.619   1.324   8.883  0.5952 -1.3519 -0.2680
 6641SOL    HW223516   0.531   1.256   8.781 -1.0903  1.7434 -1.0215
 6642SOL     OW23517   2.634   7.948   4.362  0.2503  0.2695 -0.4545
 6642SOL    HW123518   2.579   7.928   4.286  0.6067 -0.2758 -0.5773
 6642SOL    HW223519   2.597   7.893   4.432 -1.1175  1.9699  0.2414
 6643SOL     OW23520   8.744   0.901   9.618  0.3840 -0.0360  0.5085
 6643SOL    HW123521   8.660   0.893   9.573 -0.0012 -0.3091  1.2645
 6643SOL    HW223522   8.795   0.960   9.562 -1.0915  1.9878  1.1632
 6644SOL     OW23523   1.265   9.788   3.136 -0.1671  0.1670 -0.6391
 6644SOL    HW123524   1.326   9.749   3.073  1.5442 -0.7980  1.4701
 6644SOL    HW223525   1.260   9.880   3.110  0.5153 -0.1808 -2.1325
 6645SOL     OW23526   5.775   5.779   3.386  0.4084  0.2986 -0.1159
 6645SOL    HW123527   5.838   5.802   3.318  0.7736 -0.1621  0.0563
 6645SOL    HW223528   5.715   5.718   3.344 -0.0761  0.9207 -0.3469
 6646SOL     OW23529   5.157   8.963   5.687 -0.2609  0.0858  0.4640
 6646SOL    HW123530   5.088   9.027   5.674 -0.3396 -0.3737 -1.8503
 6646SOL    HW223531   5.120   8.881   5.655  0.7121 -0.5623  0.9482
 6647SOL     OW23532   9.109   0.380   4.788  0.2177  0.3278 -0.4561
 6647SOL    HW123533   9.025   0.399   4.831 -0.5650  1.0391 -2.2073
 6647SOL    HW223534   9.125   0.287   4.807 -1.6259 -0.1734 -1.1093
 6648SOL     OW23535  10.390   4.871  11.075 -0.0175 -0.1719  0.0368
 6648SOL    HW123536  10.360   4.782  11.053 -1.0425 -0.1830  1.3819
 6648SOL    HW223537  10.387   4.918  10.992  2.0600 -1.7669 -1.0508
 6649SOL     OW23538   4.857   0.240   0.277 -0.4225 -0.3429  0.2644
 6649SOL    HW123539   4.861   0.276   0.366 -1.1863  0.4986 -0.0311
 6649SOL    HW223540   4.770   0.264   0.245  0.5055  1.0186 -1.4004
 6650SOL     OW23541   7.133   3.240   9.909  0.4989  0.2508 -0.0067
 6650SOL    HW123542   7.097   3.190   9.983 -0.4826  2.2012  0.9238
 6650SOL    HW223543   7.086   3.208   9.833 -0.7874  0.3602  0.7068
 6651SOL     OW23544   6.318   7.145   8.770  0.1044  0.1772  0.5276
 6651SOL    HW123545   6.389   7.114   8.826  0.1430 -2.1292 -0.6668
 6651SOL    HW223546   6.263   7.068   8.757 -1.3763  1.3451 -0.4316
 6652SOL     OW23547   3.681   4.983   9.389 -0.4418  0.0403 -0.3621
 6652SOL    HW123548   3.723   4.897   9.395 -1.7576 -0.5731  0.3550
 6652SOL    HW223549   3.724   5.034   9.458  2.3737  0.9369 -2.5796
 6653SOL     OW23550   0.452   7.836   6.842 -0.3549  0.1264  0.4351
 6653SOL    HW123551   0.361   7.842   6.814 -0.2914  1.1493  0.3971
 6653SOL    HW223552   0.469   7.919   6.886  0.6356  0.0629  0.2049
 6654SOL     OW23553   4.088   4.481   4.751  0.7861  0.0902 -0.7528
 6654SOL    HW123554   4.167   4.430   4.732  0.8057  0.3412 -1.3573
 6654SOL    HW223555   4.086   4.488   4.846  1.1231 -0.5027 -0.6973
 6655SOL     OW23556   8.411   1.288   6.469 -0.1302 -0.2682 -0.5517
 6655SOL    HW123557   8.342   1.224   6.487 -1.6423  1.3101 -0.4444
 6655SOL    HW223558   8.376   1.341   6.397  1.1155  0.3834 -0.7044
 6656SOL     OW23559   7.624   6.675   5.526 -0.3261  0.0884 -0.0304
 6656SOL    HW123560   7.626   6.674   5.621 -1.3530 -0.7492  0.0144
 6656SOL    HW223561   7.657   6.761   5.501 -1.6929  1.0021  1.1504
 6657SOL     OW23562   8.480   9.730   0.673 -0.1543  0.2611 -0.1110
 6657SOL    HW123563   8.445   9.665   0.612 -0.5822 -0.7042  1.1357
 6657SOL    HW223564   8.416   9.801   0.672  0.0830  0.4781 -1.1252
 6658SOL     OW23565   2.353   4.215   6.303  0.2565 -0.2502  0.1263
 6658SOL    HW123566   2.308   4.211   6.387  0.6381  0.9336  0.4083
 6658SOL    HW223567   2.361   4.124   6.275 -1.7288 -0.5216  0.3588
 6659SOL     OW23568   8.102   4.058   3.203  0.6230 -0.0240  0.4355
 6659SOL    HW123569   8.010   4.058   3.229  0.5745 -0.6484  0.2730
 6659SOL    HW223570   8.126   4.151   3.202  0.1073  0.1199  0.8607
 6660SOL     OW23571   8.956  10.380  10.342 -0.8444 -0.1232 -0.3622
 6660SOL    HW123572   9.022  10.317  10.369 -0.1681  0.8183  0.2548
 6660SOL    HW223573   8.892  10.328  10.293 -0.1645 -1.2232 -0.1286
 6661SOL     OW23574   7.977   7.308   0.080  0.3662 -0.4310 -0.3387
 6661SOL    HW123575   7.945   7.308  -0.009  0.7440 -1.0702 -0.4838
 6661SOL    HW223576   7.985   7.215   0.103 -0.4796 -0.2755  0.6358
 6662SOL     OW23577   1.983   2.242   9.445  0.4034 -0.3630 -0.0477
 6662SOL    HW123578   1.957   2.198   9.526 -1.2578  0.3636 -0.1498
 6662SOL    HW223579   1.997   2.333   9.471  1.1031 -0.3724 -0.3573
 6663SOL     OW23580   2.115   8.728   1.869  0.1801  0.2790 -0.0369
 6663SOL    HW123581   2.152   8.649   1.909 -1.9794 -0.7593  0.0391
 6663SOL    HW223582   2.037   8.747   1.920  0.3863  2.2125 -0.3679
 6664SOL     OW23583   3.226  10.340   3.889 -0.5281  0.5505  0.1175
 6664SOL    HW123584   3.158  10.377   3.832  0.5642 -0.2644 -1.8068
 6664SOL    HW223585   3.308  10.376   3.855  0.2128 -0.4943  0.7398
 6665SOL     OW23586   2.962   8.906  10.798  0.0412  0.4688  0.1252
 6665SOL    HW123587   3.031   8.970  10.817  0.1343  0.5281 -0.3816
 6665SOL    HW223588   2.894   8.957  10.753  0.2530  0.1527 -0.5628
 6666SOL     OW23589   8.277   9.620   1.696  0.0815 -0.2127 -0.1935
 6666SOL    HW123590   8.305   9.706   1.664 -0.3559  0.7055  1.7524
 6666SOL    HW223591   8.191   9.635   1.734  0.4800 -1.2473  1.2073
 6667SOL     OW23592   6.936   9.443   1.545 -0.1329  0.6755  0.3964
 6667SOL    HW123593   6.901   9.406   1.464  0.3238  0.5858  0.2346
 6667SOL    HW223594   6.897   9.530   1.551 -1.3853  0.0947  0.8899
 6668SOL     OW23595   4.182   9.386   1.164  0.4624 -0.1754 -0.2073
 6668SOL    HW123596   4.182   9.292   1.181  2.7841 -0.6159 -2.2323
 6668SOL    HW223597   4.247   9.422   1.224 -0.6037  0.2394  0.7486
 6669SOL     OW23598   9.883   7.758   5.303  0.0784  0.5506 -0.4426
 6669SOL    HW123599   9.815   7.779   5.367  0.7964 -1.2718  1.0231
 6669SOL    HW223600   9.955   7.817   5.324  0.7191 -0.7221  1.2565
 6670SOL     OW23601   8.443   5.301   8.251  0.4229  0.0791 -0.1160
 6670SOL    HW123602   8.534   5.322   8.272  0.4439 -0.2123  0.0839
 6670SOL    HW223603   8.447   5.258   8.166  0.3545  1.1078 -0.6614
 6671SOL     OW23604   3.725   8.143  10.151 -0.0509  0.3388  0.2338
 6671SOL    HW123605   3.696   8.074  10.210  0.3265  0.2851  0.3605
 6671SOL    HW223606   3.705   8.224  10.198  0.0684  0.2999  0.3535
 6672SOL     OW23607  10.850   2.431   1.012 -0.2111 -0.3539  0.1512
 6672SOL    HW123608  10.863   2.348   0.966 -1.9253 -0.9201  0.6197
 6672SOL    HW223609  10.766   2.464   0.979  0.0630  0.7974  0.5644
 6673SOL     OW23610   8.421   6.717   2.375  0.2911 -0.1455 -0.1148
 6673SOL    HW123611   8.457   6.644   2.326 -1.3677 -0.1412 -1.4273
 6673SOL    HW223612   8.343   6.743   2.326  0.3121  1.9007  0.8385
 6674SOL     OW23613   1.165   6.965   6.895 -0.4299  0.5252 -0.7086
 6674SOL    HW123614   1.246   7.017   6.894 -0.2114  0.3515  1.8976
 6674SOL    HW223615   1.097   7.027   6.869  0.1737  1.4493 -0.1397
 6675SOL     OW23616   3.555   3.052   7.555  0.1719 -0.0061 -0.2544
 6675SOL    HW123617   3.484   2.994   7.582  1.2104 -1.5342 -0.7120
 6675SOL    HW223618   3.611   3.060   7.632  0.4515 -0.2620 -0.4283
 6676SOL     OW23619   6.631   7.340   6.495  0.0192 -0.2136  0.2210
 6676SOL    HW123620   6.629   7.401   6.569  0.0341  0.0085  0.0387
 6676SOL    HW223621   6.590   7.388   6.423 -1.2146 -0.8917  0.4390
 6677SOL     OW23622   8.892   9.919   5.112  0.1531  0.5410  0.1771
 6677SOL    HW123623   8.836   9.842   5.100 -1.3847  1.7994 -1.1973
 6677SOL    HW223624   8.914   9.918   5.205  0.7091 -1.8661  0.1029
 6678SOL     OW23625  10.904   4.701   7.517  0.4064  0.4070  0.0954
 6678SOL    HW123626  10.927   4.783   7.472 -0.5801  0.7632  0.2165
 6678SOL    HW223627  10.889   4.727   7.608  2.3736 -0.3093  0.6604
 6679SOL     OW23628   3.476   4.918   2.492 -0.6382 -0.1307 -0.1786
 6679SOL    HW123629   3.444   5.007   2.479 -2.0503 -0.5216  0.4454
 6679SOL    HW223630   3.431   4.887   2.570  1.4677 -0.6611  0.9148
 6680SOL     OW23631   6.485   2.898   7.145  0.3025 -0.5418 -0.1863
 6680SOL    HW123632   6.458   2.819   7.098 -0.9261  0.9333 -2.1122
 6680SOL    HW223633   6.547   2.941   7.086  0.7301  0.1028  0.7055
 6681SOL     OW23634   4.138  10.237   3.264  0.1150  0.0061 -0.4793
 6681SOL    HW123635   4.156  10.148   3.234  0.0822 -0.1572 -0.0228
 6681SOL    HW223636   4.050  10.233   3.302  0.9608 -0.3076  1.5801
 6682SOL     OW23637   6.696   6.347   4.686  0.0902 -0.1237 -0.2206
 6682SOL    HW123638   6.608   6.369   4.718 -0.5816 -1.0612 -1.3746
 6682SOL    HW223639   6.681   6.291   4.610  1.7061 -1.0402  0.0952
 6683SOL     OW23640   9.051   7.049   8.647 -0.0854 -0.1591 -0.0397
 6683SOL    HW123641   8.987   7.000   8.700 -1.0881  0.6908 -0.4325
 6683SOL    HW223642   9.088   6.983   8.588 -0.8390 -0.6178 -0.0240
 6684SOL     OW23643   1.428   5.587   7.491  0.4437 -0.1023  0.0159
 6684SOL    HW123644   1.471   5.505   7.468  0.7006 -0.1322  0.5671
 6684SOL    HW223645   1.347   5.561   7.535  0.0232 -0.0488 -0.7202
 6685SOL     OW23646   4.335   7.783  10.774 -0.5683 -0.2692 -0.0383
 6685SOL    HW123647   4.362   7.712  10.833 -1.0505 -0.5801 -0.1808
 6685SOL    HW223648   4.410   7.796  10.716 -0.2817 -0.3110  0.3191
 6686SOL     OW23649   6.223   7.570   3.544 -0.2331  0.4126  0.7592
 6686SOL    HW123650   6.254   7.660   3.532 -1.3668  0.8751  1.1367
 6686SOL    HW223651   6.195   7.566   3.636  0.9527 -0.7025  1.0975
 6687SOL     OW23652   7.024   6.703   8.299  0.4901  0.2597 -0.1688
 6687SOL    HW123653   7.089   6.716   8.229  0.6244  0.2486 -0.0460
 6687SOL    HW223654   6.953   6.764   8.278  0.6581  0.4584 -0.1569
 6688SOL     OW23655   4.895   2.966   6.917 -0.3695  0.1086 -0.1795
 6688SOL    HW123656   4.826   2.911   6.954  0.2281 -0.1851  0.5241
 6688SOL    HW223657   4.924   2.920   6.838 -2.3989  1.2740 -1.7124
 6689SOL     OW23658   8.431   4.267   3.477  0.1495  0.0592  0.0581
 6689SOL    HW123659   8.420   4.214   3.399 -0.5281 -0.0875  0.2424
 6689SOL    HW223660   8.514   4.238   3.515 -0.1300 -0.7449  0.0670
 6690SOL     OW23661   5.261   5.832   8.058  0.3041 -0.2371  0.0646
 6690SOL    HW123662   5.256   5.737   8.057  1.6441 -0.3233  0.4824
 6690SOL    HW223663   5.353   5.852   8.045  0.2715  0.9627  1.4574
 6691SOL     OW23664   6.896   4.774   0.410 -0.3581  0.0232  0.3548
 6691SOL    HW123665   6.886   4.855   0.361  1.8588 -0.1185 -0.4251
 6691SOL    HW223666   6.921   4.709   0.344  1.1366 -0.5409  1.4283
 6692SOL     OW23667  10.829   5.410   9.935 -0.0835  0.1093  0.1886
 6692SOL    HW123668  10.885   5.379   9.864  0.0704  0.2966  0.2282
 6692SOL    HW223669  10.818   5.333   9.991 -0.1969 -0.0372 -0.0312
 6693SOL     OW23670   1.228   0.986   9.018 -0.4489  0.1444  0.3925
 6693SOL    HW123671   1.150   0.987   9.074 -0.3571  0.1613  0.5211
 6693SOL    HW223672   1.195   0.963   8.931 -0.3914 -1.4524  0.7712
 6694SOL     OW23673   5.129  10.142   1.046 -0.4073  0.8587  0.0955
 6694SOL    HW123674   5.079  10.075   0.999  2.0019  0.8416 -2.7150
 6694SOL    HW223675   5.096  10.225   1.010 -0.9290  1.0361  0.9603
 6695SOL     OW23676   5.290   6.429   9.789 -0.5541 -0.1060 -0.1696
 6695SOL    HW123677   5.233   6.389   9.724 -0.1701 -1.6960  0.4351
 6695SOL    HW223678   5.303   6.361   9.856 -0.5672  1.3103  1.3483
 6696SOL     OW23679   7.725   4.932   2.161  0.7942  1.0130  0.0046
 6696SOL    HW123680   7.635   4.965   2.153  0.9679  1.3482 -0.6987
 6696SOL    HW223681   7.748   4.946   2.253  0.4048  1.6684  0.0122
 6697SOL     OW23682   4.325   7.088   1.311  0.3629  0.2051 -0.1246
 6697SOL    HW123683   4.354   7.166   1.264 -0.8429  0.7563  0.0189
 6697SOL    HW223684   4.235   7.107   1.337  0.2959 -0.9409  0.5611
 6698SOL     OW23685   4.092   8.478   1.935 -0.0699  0.1661 -0.3923
 6698SOL    HW123686   4.024   8.545   1.932 -3.4382 -2.9179  0.6188
 6698SOL    HW223687   4.112   8.469   2.029  0.4794 -0.1535 -0.5367
 6699SOL     OW23688   9.480   6.037   0.232 -0.2998 -0.1603 -0.3269
 6699SOL    HW123689   9.456   6.091   0.308 -0.2618 -0.7708  0.1312
 6699SOL    HW223690   9.533   6.094   0.177  0.6193 -0.0432  0.6571
 6700SOL     OW23691  10.379   3.602  10.294 -0.3035  0.5132 -0.1587
 6700SOL    HW123692  10.439   3.672  10.269  1.1574 -1.0767 -1.3213
 6700SOL    HW223693  10.338   3.575  10.212 -0.2154 -0.5524  0.1358
 6701SOL     OW23694   1.588  10.275   3.486  0.1562  0.7290  1.0903
 6701SOL    HW123695   1.555  10.336   3.419  0.1605  0.3078  0.7019
 6701SOL    HW223696   1.673  10.311   3.511  0.7083  0.2553 -0.0012
 6702SOL     OW23697   9.269   6.353   7.281 -0.4217  0.0081 -0.1057
 6702SOL    HW123698   9.225   6.286   7.229  1.2235 -0.2773 -1.1895
 6702SOL    HW223699   9.359   6.355   7.248  0.2513  0.9810  1.6314
 6703SOL     OW23700   6.166   6.884   6.110 -0.1858 -0.4199  0.1589
 6703SOL    HW123701   6.234   6.832   6.153 -0.0754  0.3194  0.8924
 6703SOL    HW223702   6.206   6.970   6.096 -1.2595  0.3188  1.4518
 6704SOL     OW23703   6.402   9.952   9.242 -0.0757 -0.0626 -0.1043
 6704SOL    HW123704   6.466   9.969   9.312  0.7808 -0.1218 -0.8567
 6704SOL    HW223705   6.440   9.992   9.165 -0.6677 -0.6357 -0.7043
 6705SOL     OW23706   6.337   7.854   0.805 -0.5010 -0.4370  0.2017
 6705SOL    HW123707   6.371   7.943   0.795  1.3311 -0.8361  2.2440
 6705SOL    HW223708   6.413   7.801   0.830 -1.7591 -2.3743  0.1831
 6706SOL     OW23709   4.071   0.380   5.117 -0.4892  0.1380 -0.1280
 6706SOL    HW123710   4.144   0.439   5.102 -0.6244  0.3804  0.1475
 6706SOL    HW223711   4.021   0.382   5.035  0.2034 -0.5996 -0.5860
 6707SOL     OW23712   3.722  10.531   5.679  0.6142 -0.3129  0.0627
 6707SOL    HW123713   3.637  10.519   5.720  0.8978  0.5712  0.9334
 6707SOL    HW223714   3.756  10.442   5.667 -0.2565 -0.6499  0.0447
 6708SOL     OW23715  10.654   8.884   7.860  0.2105 -0.1180  0.2625
 6708SOL    HW123716  10.606   8.862   7.781 -1.5787 -0.9211  1.4931
 6708SOL    HW223717  10.633   8.813   7.921  2.8192 -0.3850  0.9623
 6709SOL     OW23718   5.480   9.148   4.029 -0.4557  0.2510  0.1488
 6709SOL    HW123719   5.411   9.135   4.095 -1.5832  1.4067 -0.7451
 6709SOL    HW223720   5.516   9.234   4.050  0.4671 -0.1730  0.3561
 6710SOL     OW23721   4.162   0.506   6.190  0.0199  0.1742  0.7384
 6710SOL    HW123722   4.181   0.532   6.280  1.5254  0.3936  0.3825
 6710SOL    HW223723   4.127   0.586   6.150  0.1900  0.3300  0.8945
 6711SOL     OW23724   5.385   3.854  10.991 -0.0932  0.8337  0.1590
 6711SOL    HW123725   5.370   3.850  10.897 -0.8763 -0.9321  0.3141
 6711SOL    HW223726   5.372   3.764  11.021  1.0034  1.1924  1.8356
 6712SOL     OW23727   9.216   0.032   8.460  0.1045 -0.0204  0.4347
 6712SOL    HW123728   9.180   0.120   8.472 -0.4196 -0.3309  1.2455
 6712SOL    HW223729   9.197   0.009   8.369 -0.0991  0.5546  0.3317
 6713SOL     OW23730   6.643   7.946  10.244  0.1750  0.1274 -0.0062
 6713SOL    HW123731   6.655   7.994  10.326  0.1404 -2.8397  1.8810
 6713SOL    HW223732   6.556   7.907  10.251  0.7787 -1.4469 -0.7161
 6714SOL     OW23733   2.831   1.420   2.870 -0.1855  0.1669  0.3068
 6714SOL    HW123734   2.882   1.355   2.821 -0.9907  0.0706 -0.4121
 6714SOL    HW223735   2.892   1.452   2.936  0.7144 -0.1823 -0.3319
 6715SOL     OW23736   1.659  10.114   2.836 -0.5344 -0.4203  0.4149
 6715SOL    HW123737   1.697  10.136   2.921 -1.5677 -1.4741  1.1732
 6715SOL    HW223738   1.723  10.055   2.796  0.6992  1.2946 -0.2474
 6716SOL     OW23739   7.785   0.638   6.944 -0.4215 -0.0755  0.1842
 6716SOL    HW123740   7.858   0.699   6.955  0.5566 -0.9455 -1.2193
 6716SOL    HW223741   7.707   0.694   6.946  0.2458  0.8718  1.7344
 6717SOL     OW23742   7.236   2.316   4.675  0.1509 -0.4225  0.2124
 6717SOL    HW123743   7.236   2.302   4.580 -2.3227 -0.6842  0.1884
 6717SOL    HW223744   7.250   2.410   4.686  1.4881 -0.5385 -0.3402
 6718SOL     OW23745   7.329   8.502   7.976 -0.2839  0.4262 -0.0344
 6718SOL    HW123746   7.352   8.463   8.060  3.5068  1.3417 -0.4806
 6718SOL    HW223747   7.348   8.595   7.986  0.2476  0.5563 -1.8937
 6719SOL     OW23748   4.359   0.207  10.533 -0.2586  0.1388 -0.2300
 6719SOL    HW123749   4.298   0.232  10.464  0.2758  0.6672 -0.5189
 6719SOL    HW223750   4.324   0.248  10.612  0.1717  1.1501 -0.5510
 6720SOL     OW23751   8.290   5.811   3.289 -0.3757  1.0572 -0.0670
 6720SOL    HW123752   8.317   5.891   3.333  0.1131  1.1309 -0.5012
 6720SOL    HW223753   8.277   5.836   3.198  1.6470  0.2609 -0.6287
 6721SOL     OW23754   4.534   2.773   7.628 -0.0152 -0.6667  0.1300
 6721SOL    HW123755   4.549   2.860   7.590  1.6548  0.2325  2.6514
 6721SOL    HW223756   4.439   2.762   7.624 -0.2279  1.0782 -0.6426
 6722SOL     OW23757   3.180   6.493  10.711 -0.3978 -0.1501 -0.2614
 6722SOL    HW123758   3.121   6.430  10.670 -0.7848 -0.5283  0.8627
 6722SOL    HW223759   3.196   6.558  10.642  0.4156 -1.7015 -1.6095
 6723SOL     OW23760   6.783   9.172   2.960  0.4884 -0.0419 -0.1009
 6723SOL    HW123761   6.749   9.252   2.921 -0.2857  0.2790  1.1655
 6723SOL    HW223762   6.727   9.103   2.925 -0.3732  0.2748  0.6136
 6724SOL     OW23763   4.154   8.999   3.793  0.5553  0.4482  0.3694
 6724SOL    HW123764   4.181   9.088   3.774  1.1774  0.0786 -0.5480
 6724SOL    HW223765   4.149   8.995   3.889  0.9399  1.3344  0.4338
 6725SOL     OW23766   5.372   2.223   7.961 -0.2924 -0.3407  0.0100
 6725SOL    HW123767   5.312   2.264   7.898  1.3021 -1.6109 -2.4948
 6725SOL    HW223768   5.333   2.138   7.978 -0.2807 -0.3339  0.0693
 6726SOL     OW23769  10.582  10.480   8.187  0.0833 -0.5527  0.0750
 6726SOL    HW123770  10.559  10.538   8.114 -0.0309 -0.0928  0.4709
 6726SOL    HW223771  10.562  10.531   8.265 -1.4593 -1.6688  0.4526
 6727SOL     OW23772   5.817   9.509   5.617  0.3602 -0.7190 -0.2396
 6727SOL    HW123773   5.784   9.430   5.660  0.4644 -1.1866 -0.9988
 6727SOL    HW223774   5.800   9.579   5.680 -2.2108 -0.8975 -0.6412
 6728SOL     OW23775   7.860   1.504   5.152  0.5373 -0.3219 -0.3529
 6728SOL    HW123776   7.773   1.479   5.184 -0.3227 -1.1161 -3.0066
 6728SOL    HW223777   7.908   1.422   5.148 -0.5979 -0.9920 -4.2623
 6729SOL     OW23778   1.806   9.098  10.440 -0.1275  0.6290 -0.3078
 6729SOL    HW123779   1.858   9.162  10.489 -1.1327  0.9933  0.3187
 6729SOL    HW223780   1.783   9.031  10.505 -0.2410  0.3503 -0.6351
 6730SOL     OW23781   8.294   3.907   6.850  0.0028  0.4459  0.2454
 6730SOL    HW123782   8.256   3.934   6.933  1.4724  0.2972  1.0067
 6730SOL    HW223783   8.351   3.979   6.824 -1.5701  1.1746 -1.4628
 6731SOL     OW23784   0.893   4.102   2.262  0.7865 -0.0363  0.3419
 6731SOL    HW123785   0.958   4.168   2.239  0.5059 -0.1949 -1.0034
 6731SOL    HW223786   0.901   4.035   2.193 -0.8371 -0.0202  0.0927
 6732SOL     OW23787   6.234   9.111   6.132  0.0094 -0.9131 -0.3374
 6732SOL    HW123788   6.323   9.105   6.168  0.8506 -1.6179 -2.4275
 6732SOL    HW223789   6.184   9.049   6.185  0.7420 -0.5525  0.8343
 6733SOL     OW23790   9.223   6.672  10.411 -0.0461 -0.3541  0.0910
 6733SOL    HW123791   9.146   6.644  10.461  0.0178 -1.8589 -0.5885
 6733SOL    HW223792   9.190   6.740  10.352  0.2572  2.9303  3.3829
 6734SOL     OW23793   9.722   9.165   3.800  0.7679  0.1439 -0.0570
 6734SOL    HW123794   9.666   9.179   3.877  2.2272 -1.8562  1.4993
 6734SOL    HW223795   9.686   9.223   3.733 -1.3836  1.0208  1.7198
 6735SOL     OW23796  10.854   2.755   5.717  0.3333 -0.4293 -0.1014
 6735SOL    HW123797  10.947   2.732   5.711  0.8809  1.6166 -0.1608
 6735SOL    HW223798  10.815   2.687   5.772  1.9693 -1.0070  0.3800
 6736SOL     OW23799   8.809   7.106  10.132 -0.2224  0.2280 -0.2921
 6736SOL    HW123800   8.897   7.121  10.097  0.3134  1.4443  1.4327
 6736SOL    HW223801   8.787   7.188  10.177 -1.8784 -0.3641  0.0463
 6737SOL     OW23802   3.308   8.970   8.974  1.0186 -0.4002  0.1413
 6737SOL    HW123803   3.226   8.960   9.023  1.0614 -1.6585 -0.0240
 6737SOL    HW223804   3.305   9.060   8.942 -0.6938 -0.6533 -0.5616
 6738SOL     OW23805   6.832  10.625   0.824 -0.4641  0.3123 -0.0731
 6738SOL    HW123806   6.750  10.675   0.826  0.8509  2.5787  1.6888
 6738SOL    HW223807   6.863  10.633   0.734 -0.9112  1.6392 -0.1301
 6739SOL     OW23808   6.163   7.278  10.223  0.3826 -0.7277 -0.1289
 6739SOL    HW123809   6.155   7.338  10.149  0.5674  1.1032  1.2680
 6739SOL    HW223810   6.083   7.292  10.274 -0.3373 -2.8787 -0.5615
 6740SOL     OW23811   0.075   0.909   7.857 -0.5749  0.4970  0.2763
 6740SOL    HW123812  -0.012   0.944   7.839 -0.9789 -1.1314 -1.2257
 6740SOL    HW223813   0.060   0.818   7.882  0.7267 -0.3049 -1.5968
 6741SOL     OW23814  11.019   4.226   7.878 -0.2178 -0.4957 -0.1680
 6741SOL    HW123815  11.073   4.254   7.952  1.0291  3.1466 -2.1367
 6741SOL    HW223816  11.077   4.171   7.826  0.3516  0.2656 -0.3691
 6742SOL     OW23817   8.015   7.163   5.923  0.0940 -0.0918 -0.6473
 6742SOL    HW123818   7.935   7.216   5.932  0.0611 -0.1721 -0.4602
 6742SOL    HW223819   8.051   7.188   5.838 -1.2884 -1.6352 -1.7530
 6743SOL     OW23820   6.268   3.104   7.181 -0.3195  0.1844 -0.0818
 6743SOL    HW123821   6.196   3.143   7.231 -1.6361 -2.9665  0.7849
 6743SOL    HW223822   6.323   3.062   7.247  0.3998 -0.3446 -0.9886
 6744SOL     OW23823  11.095  10.558   1.533 -0.4868  0.2601 -0.3864
 6744SOL    HW123824  11.054  10.550   1.447  1.3909 -1.5876 -1.1764
 6744SOL    HW223825  11.100  10.469   1.566  0.3390  0.7582  0.9017
 6745SOL     OW23826  10.410  10.807   3.586 -0.3768  0.4173 -0.4202
 6745SOL    HW123827  10.501  10.780   3.582  0.3138  2.5001 -0.0696
 6745SOL    HW223828  10.383  10.786   3.675 -0.2870 -0.2725 -0.5470
 6746SOL     OW23829   5.370   5.469   0.293 -0.2984  0.0132 -0.0496
 6746SOL    HW123830   5.344   5.486   0.203 -0.8954 -1.4652 -0.1884
 6746SOL    HW223831   5.355   5.551   0.339  1.1206  1.1712 -1.5098
 6747SOL     OW23832   6.150   3.911   6.778  0.2905 -0.1611  0.1591
 6747SOL    HW123833   6.171   4.004   6.778 -0.3625 -0.0001 -0.9030
 6747SOL    HW223834   6.234   3.868   6.762  0.6929  0.2094  1.2297
 6748SOL     OW23835   6.175   1.953   9.206  0.2885 -0.1498  0.0457
 6748SOL    HW123836   6.191   1.947   9.112 -3.3128 -3.0780 -0.6154
 6748SOL    HW223837   6.197   1.867   9.241  0.3035  0.4658  1.6599
 6749SOL     OW23838   6.485   9.055   1.099 -0.0687 -0.0858 -0.1394
 6749SOL    HW123839   6.470   8.978   1.044 -0.6067 -0.5343  0.6140
 6749SOL    HW223840   6.399   9.096   1.106  0.2088  0.5764 -0.5116
 6750SOL     OW23841   0.504   6.334  10.929 -0.1037 -0.1410  0.2707
 6750SOL    HW123842   0.458   6.394  10.871  1.0375 -0.1503 -0.6826
 6750SOL    HW223843   0.508   6.252  10.880  0.8439 -0.1610  0.3684
 6751SOL     OW23844   9.310  10.883   5.873 -0.1010  0.1245 -0.1484
 6751SOL    HW123845   9.377  10.907   5.810  0.3157  1.0956  0.6433
 6751SOL    HW223846   9.356  10.832   5.940 -0.1234  0.8674  0.4433
 6752SOL     OW23847   3.386   0.874   3.417  0.7622  0.2777 -0.2841
 6752SOL    HW123848   3.468   0.874   3.368  0.9280 -0.1188 -0.0174
 6752SOL    HW223849   3.360   0.782   3.420  0.8520  0.2700  0.5282
 6753SOL     OW23850   2.108  10.652  10.353 -0.4805  0.0679 -0.3995
 6753SOL    HW123851   2.100  10.576  10.411  0.3057 -0.2029 -0.6291
 6753SOL    HW223852   2.060  10.722  10.399  0.2405 -0.1032  0.6560
 6754SOL     OW23853   2.170   9.415  10.313  0.0972  0.0060  0.3497
 6754SOL    HW123854   2.098   9.373  10.360  0.6739 -0.7009  0.6198
 6754SOL    HW223855   2.187   9.495  10.363 -1.1174  0.6847 -0.2652
 6755SOL     OW23856  10.522   9.970   2.994 -0.3053 -0.2376 -0.4857
 6755SOL    HW123857  10.523  10.061   3.023  0.0094 -0.4418  0.1756
 6755SOL    HW223858  10.434   9.939   3.016 -0.5790  0.0411 -1.1659
 6756SOL     OW23859   8.135   4.556   0.640 -0.7899 -0.1725 -0.7593
 6756SOL    HW123860   8.155   4.481   0.584  2.2763 -0.5262  0.5972
 6756SOL    HW223861   8.128   4.630   0.579 -1.3113 -1.1216 -1.8913
 6757SOL     OW23862   7.227   8.308   6.982 -0.2172 -0.4927 -0.4105
 6757SOL    HW123863   7.229   8.368   7.056 -0.1671  0.1415 -0.9175
 6757SOL    HW223864   7.317   8.306   6.951 -0.1750 -1.0034 -0.2663
 6758SOL     OW23865   1.021   3.617   4.396  0.3950 -0.5878  0.1962
 6758SOL    HW123866   1.077   3.668   4.337 -0.6445 -0.9773 -1.1536
 6758SOL    HW223867   0.988   3.545   4.343 -0.8432 -0.7630  1.1506
 6759SOL     OW23868   5.621   9.865   4.570  0.0511  0.2376  0.5355
 6759SOL    HW123869   5.591   9.881   4.481  1.7753  0.7544 -0.0023
 6759SOL    HW223870   5.593   9.775   4.590 -0.3200  0.1099 -0.5371
 6760SOL     OW23871   6.740   1.289  10.616 -0.8088  0.4801  0.3687
 6760SOL    HW123872   6.653   1.329  10.610 -1.5237 -1.0377  0.1317
 6760SOL    HW223873   6.728   1.213  10.672 -0.0526 -0.8236 -1.1558
 6761SOL     OW23874   5.392   0.681   2.536  0.1227  0.4071 -0.2528
 6761SOL    HW123875   5.384   0.605   2.594 -1.4984  2.1365  1.9308
 6761SOL    HW223876   5.343   0.656   2.457 -1.6760 -0.3012  1.0252
 6762SOL     OW23877   9.275   5.076   8.636 -0.7036 -0.2068  0.1244
 6762SOL    HW123878   9.198   5.037   8.594 -1.3795 -1.0891  2.0844
 6762SOL    HW223879   9.255   5.169   8.642 -1.0564 -0.2374 -0.4887
 6763SOL     OW23880   0.397   0.545   2.216 -0.7090 -0.8094 -0.0657
 6763SOL    HW123881   0.481   0.553   2.171  0.8538 -1.5307  2.4750
 6763SOL    HW223882   0.377   0.451   2.213 -1.2288 -0.6935 -0.3235
 6764SOL     OW23883  10.987   5.020   7.137 -0.2425 -0.1128 -0.6050
 6764SOL    HW123884  11.046   5.050   7.206 -0.4501 -0.2256 -0.3777
 6764SOL    HW223885  10.914   4.979   7.184 -2.4275  3.3293 -0.6770
 6765SOL     OW23886   3.875   3.864   8.896  0.5642 -0.8399  0.4446
 6765SOL    HW123887   3.795   3.855   8.947  0.9736  0.4518  1.3636
 6765SOL    HW223888   3.853   3.925   8.826  0.4905 -1.2548  0.0971
 6766SOL     OW23889   8.912   7.337   5.658 -0.4543  0.4944  0.2516
 6766SOL    HW123890   8.971   7.267   5.632  1.6887  2.4139 -0.4682
 6766SOL    HW223891   8.881   7.312   5.745  2.3646 -0.1528  1.2003
 6767SOL     OW23892   7.821   0.664  10.812 -0.1327  0.1428 -0.3246
 6767SOL    HW123893   7.767   0.590  10.840 -1.5961  1.5093  0.6070
 6767SOL    HW223894   7.910   0.629  10.811 -0.5870 -1.2453  1.5763
 6768SOL     OW23895   3.053   4.626   9.629  0.2082 -0.0251  0.7148
 6768SOL    HW123896   3.005   4.647   9.709  1.3774 -0.3563  1.5291
 6768SOL    HW223897   3.019   4.687   9.564 -0.5688  0.4352  1.5239
 6769SOL     OW23898   2.672   1.687   7.924 -0.3497 -0.3152 -0.1781
 6769SOL    HW123899   2.749   1.729   7.886 -0.3104 -0.1377  0.0917
 6769SOL    HW223900   2.699   1.596   7.938  0.0292 -0.1071  0.5025
 6770SOL     OW23901   5.460   4.467   2.795  0.5284 -0.4997  0.2301
 6770SOL    HW123902   5.539   4.491   2.746 -0.1681  1.1829 -0.1372
 6770SOL    HW223903   5.413   4.407   2.737 -0.1536  1.2592 -1.1322
 6771SOL     OW23904   4.024   0.077   9.158 -0.8471 -0.3076 -0.2331
 6771SOL    HW123905   4.011   0.171   9.167  1.7150 -0.0293  1.5951
 6771SOL    HW223906   3.969   0.038   9.225 -0.3023  0.0524  0.4272
 6772SOL     OW23907   5.147   2.632   4.483  0.3296 -0.4840 -0.0537
 6772SOL    HW123908   5.106   2.703   4.533 -0.9815 -2.2327  1.5276
 6772SOL    HW223909   5.099   2.630   4.400 -1.0096 -0.7496  0.6915
 6773SOL     OW23910   7.253   3.249   0.234  0.6303  0.0462 -0.0597
 6773SOL    HW123911   7.273   3.338   0.205  3.6157 -0.7461 -0.6929
 6773SOL    HW223912   7.162   3.235   0.206  0.8083  2.1216 -1.9432
 6774SOL     OW23913   8.412   0.411   9.572  0.3553 -0.5401  0.0467
 6774SOL    HW123914   8.431   0.345   9.639  0.2066  0.8418  1.5099
 6774SOL    HW223915   8.473   0.390   9.501  1.4749 -1.2505  1.1674
 6775SOL     OW23916   1.946   5.569   2.656 -0.1608 -0.1613  0.2491
 6775SOL    HW123917   2.027   5.573   2.708 -1.4406 -0.7378  2.4397
 6775SOL    HW223918   1.965   5.621   2.578  2.1535  0.1114  0.8969
 6776SOL     OW23919  10.864  10.191   6.948 -0.0027 -0.1320  0.2587
 6776SOL    HW123920  10.940  10.182   7.005 -0.1498  1.2153  0.7086
 6776SOL    HW223921  10.839  10.283   6.956  0.8784  0.5348 -3.1672
 6777SOL     OW23922   8.131   4.638   5.670  0.3954  0.0379  0.1608
 6777SOL    HW123923   8.059   4.701   5.673 -0.8956 -1.3888  0.4051
 6777SOL    HW223924   8.121   4.594   5.585  0.4651 -0.7104  0.5278
 6778SOL     OW23925   3.842   5.621   9.355  0.6663 -0.2174 -0.6663
 6778SOL    HW123926   3.879   5.551   9.409  1.9625  0.0517 -1.1693
 6778SOL    HW223927   3.846   5.587   9.266 -0.4682 -0.2314 -0.7304
 6779SOL     OW23928   5.586   8.358   8.065 -0.6009 -0.7998 -0.4282
 6779SOL    HW123929   5.497   8.392   8.075 -0.5506 -0.4582 -1.0475
 6779SOL    HW223930   5.575   8.265   8.043 -0.8788 -0.4563 -1.8729
 6780SOL     OW23931   6.615   9.373   8.110 -0.0339 -0.3859 -0.0697
 6780SOL    HW123932   6.562   9.304   8.072 -0.0228 -1.2292  1.3645
 6780SOL    HW223933   6.686   9.327   8.156 -0.0759  0.5456  0.9807
 6781SOL     OW23934   0.768   0.400   6.241  0.0590  0.0342 -0.0330
 6781SOL    HW123935   0.678   0.399   6.274  0.6567 -0.6419  1.6905
 6781SOL    HW223936   0.795   0.308   6.243  1.0234  0.3098  0.1407
 6782SOL     OW23937   3.580   3.450   5.900  0.6898  0.3980  0.2524
 6782SOL    HW123938   3.660   3.481   5.943  1.3886 -0.0036 -0.7336
 6782SOL    HW223939   3.518   3.438   5.972  1.4251  0.9560  1.0067
 6783SOL     OW23940   3.373   0.952   1.229 -0.1120  0.5418  0.1684
 6783SOL    HW123941   3.331   0.902   1.299  0.7500 -1.0231 -0.3606
 6783SOL    HW223942   3.370   1.043   1.258  3.0080 -0.2608  3.8669
 6784SOL     OW23943   5.425   0.858   6.840  0.1116  0.3305  1.1971
 6784SOL    HW123944   5.514   0.857   6.874  0.3457 -1.5068  0.6161
 6784SOL    HW223945   5.415   0.774   6.795 -1.6361  0.8515  0.5228
 6785SOL     OW23946   2.141  10.338   7.746  0.4948 -0.5495 -0.3255
 6785SOL    HW123947   2.099  10.382   7.820 -0.9849  1.5664 -2.2452
 6785SOL    HW223948   2.096  10.254   7.739  0.3507 -0.5864  0.8838
 6786SOL     OW23949   4.734   1.448   0.118 -0.0972  0.1997 -0.2239
 6786SOL    HW123950   4.670   1.378   0.127 -0.9004  0.9687  0.2239
 6786SOL    HW223951   4.753   1.452   0.024  0.6338 -1.1915 -0.1505
 6787SOL     OW23952   8.030   2.004   6.610 -0.0964 -0.0257 -0.0352
 6787SOL    HW123953   8.090   1.937   6.577 -0.5531 -0.9110  0.8781
 6787SOL    HW223954   8.080   2.086   6.604  0.7232 -0.5442 -0.5003
 6788SOL     OW23955   9.038  10.026   2.125 -0.1946  0.3368  0.0528
 6788SOL    HW123956   8.976   9.967   2.081  1.2591 -1.4526  0.3079
 6788SOL    HW223957   9.080  10.073   2.054 -1.5806  1.3444 -0.1425
 6789SOL     OW23958   1.955   9.501   3.624 -0.0821 -0.2127 -0.1095
 6789SOL    HW123959   2.048   9.484   3.636 -0.1250 -0.8205 -0.5419
 6789SOL    HW223960   1.916   9.486   3.710  0.0736 -1.0346 -0.1759
 6790SOL     OW23961   9.742   0.427   8.864  0.0391  0.3374  0.0822
 6790SOL    HW123962   9.837   0.433   8.850 -0.0814 -0.2392 -1.1477
 6790SOL    HW223963   9.705   0.485   8.798 -0.5601 -2.1056 -1.8859
 6791SOL     OW23964   2.082   0.495   1.210 -0.3074 -0.4109 -0.2497
 6791SOL    HW123965   2.067   0.503   1.116  1.4516 -0.8595 -0.5935
 6791SOL    HW223966   2.163   0.543   1.226 -0.3175 -0.7562  0.9560
 6792SOL     OW23967   5.230   2.348  10.797  0.1583  0.5887 -0.5374
 6792SOL    HW123968   5.313   2.392  10.779 -0.5092  1.8275 -0.6985
 6792SOL    HW223969   5.210   2.301  10.716  1.1329 -0.4591 -0.1859
 6793SOL     OW23970   6.244   5.607   2.314 -0.0584  0.1145  0.7892
 6793SOL    HW123971   6.248   5.539   2.382 -0.4350  0.7370  1.4547
 6793SOL    HW223972   6.155   5.641   2.321 -0.8329 -1.2567 -1.4845
 6794SOL     OW23973   8.854   4.495   0.001 -0.1746 -0.0301 -0.0247
 6794SOL    HW123974   8.942   4.527   0.016 -0.5408 -0.1653  2.9600
 6794SOL    HW223975   8.817   4.555  -0.063  1.7744  0.5258 -0.6948
 6795SOL     OW23976   2.108   0.834   5.393 -0.0412 -0.6034  0.1214
 6795SOL    HW123977   2.107   0.912   5.449  0.9237 -1.1776  0.9887
 6795SOL    HW223978   2.166   0.857   5.321 -0.8301 -0.0613 -0.3559
 6796SOL     OW23979   2.006   1.489   9.648 -0.0453  0.2263 -0.0603
 6796SOL    HW123980   1.967   1.506   9.733 -1.1315 -0.5391 -0.3830
 6796SOL    HW223981   2.077   1.552   9.641  0.9374 -0.5693  1.9683
 6797SOL     OW23982   0.114   9.873   7.994  0.2981  0.1975 -0.3686
 6797SOL    HW123983   0.163   9.955   7.994 -1.8982  1.6193  1.9673
 6797SOL    HW223984   0.182   9.805   7.994  2.1726  1.9547 -1.8563
 6798SOL     OW23985  10.031   4.681   7.434  0.0685  0.2242 -0.6156
 6798SOL    HW123986  10.115   4.640   7.454 -0.0755 -0.6033 -1.6415
 6798SOL    HW223987   9.968   4.632   7.487  0.5022  2.9380  2.8195
 6799SOL     OW23988   4.869   6.120   0.451 -0.1038 -0.1537  0.1630
 6799SOL    HW123989   4.887   6.029   0.472 -0.7520 -0.5763 -1.0302
 6799SOL    HW223990   4.955   6.163   0.455  0.1175 -0.6761  1.3201
 6800SOL     OW23991   8.876  10.862   1.526  0.1344 -0.5843 -0.4203
 6800SOL    HW123992   8.940  10.819   1.583 -0.0403  0.5253  0.6653
 6800SOL    HW223993   8.923  10.873   1.443  2.3808  2.3318  1.0043
 6801SOL     OW23994   1.384   8.592   5.611 -0.0857 -0.1600 -0.2080
 6801SOL    HW123995   1.398   8.593   5.517  0.9951 -1.3085 -0.0735
 6801SOL    HW223996   1.453   8.536   5.646  0.0521  0.9167  1.3641
 6802SOL     OW23997   2.770   8.155   6.615 -0.0508  0.3790  0.6370
 6802SOL    HW123998   2.815   8.217   6.673  0.4276 -1.1309  1.9641
 6802SOL    HW223999   2.815   8.164   6.531  1.2341  0.5287  1.3172
 6803SOL     OW24000   9.880   2.955   4.064 -0.2651 -0.2644  0.0369
 6803SOL    HW124001   9.853   2.992   3.979 -0.4268  0.3499  0.3458
 6803SOL    HW224002   9.802   2.964   4.119  0.3159  0.8417  0.7202
 6804SOL     OW24003  10.222   3.326   7.137  0.5234  1.2898 -0.3525
 6804SOL    HW124004  10.303   3.360   7.175  0.9664  0.7275 -0.7743
 6804SOL    HW224005  10.200   3.250   7.191  0.0879  1.6482 -0.0265
 6805SOL     OW24006   6.061   8.976   3.029  0.2564  0.1677 -0.3346
 6805SOL    HW124007   6.099   8.979   2.941 -0.2876  0.1273 -0.5773
 6805SOL    HW224008   6.034   8.885   3.041  1.1574 -0.0307  0.2417
 6806SOL     OW24009   9.468   2.878   6.317  0.0497 -0.4038 -0.2441
 6806SOL    HW124010   9.448   2.961   6.361  1.8909  1.0068 -1.8742
 6806SOL    HW224011   9.390   2.858   6.266 -0.4339  0.2902  0.2098
 6807SOL     OW24012  10.221   4.866   9.683 -0.8916 -0.1729 -0.1884
 6807SOL    HW124013  10.167   4.946   9.681  0.2906  0.6703  0.5357
 6807SOL    HW224014  10.175   4.805   9.625 -1.2656  1.3872 -1.6219
 6808SOL     OW24015   1.502   4.692  10.935 -0.0477 -0.3296  0.2356
 6808SOL    HW124016   1.511   4.610  10.885 -0.3059 -1.2520  1.6440
 6808SOL    HW224017   1.571   4.748  10.901 -1.1161 -0.3577 -2.1776
 6809SOL     OW24018   3.858   6.319   0.887 -0.0511  0.1857 -0.0545
 6809SOL    HW124019   3.860   6.381   0.815 -0.8905 -0.1227 -0.3609
 6809SOL    HW224020   3.937   6.337   0.938 -0.3557  1.5831 -0.0612
 6810SOL     OW24021   5.061   7.671   0.471  0.2010 -0.3155  0.6425
 6810SOL    HW124022   5.005   7.749   0.473 -0.7948 -0.6582 -3.6444
 6810SOL    HW224023   5.000   7.598   0.479  0.7065 -0.6910  1.1128
 6811SOL     OW24024   8.289   3.655   6.307 -0.3778 -0.1868  0.6039
 6811SOL    HW124025   8.272   3.644   6.400 -1.3467 -1.7301  0.2746
 6811SOL    HW224026   8.302   3.566   6.274 -3.8757 -0.1711 -1.3866
 6812SOL     OW24027   7.712   1.653   8.175  0.6730 -0.7633 -0.4296
 6812SOL    HW124028   7.651   1.579   8.178  1.5189 -1.4411  0.7115
 6812SOL    HW224029   7.695   1.700   8.256  0.3650  0.1362 -1.0021
 6813SOL     OW24030   0.207   0.964  10.115  0.3607  0.0255 -0.3855
 6813SOL    HW124031   0.292   0.997  10.088  1.3038 -0.5551  1.7067
 6813SOL    HW224032   0.159   1.041  10.144  1.4420  0.0036  1.6033
 6814SOL     OW24033   2.689   4.442   2.824  0.0914 -0.4294  0.1436
 6814SOL    HW124034   2.627   4.384   2.780  0.3308 -0.4825 -0.1296
 6814SOL    HW224035   2.679   4.422   2.917  1.8535 -2.6308 -0.0728
 6815SOL     OW24036   4.523  10.265   1.990 -0.7676 -0.1732 -0.0734
 6815SOL    HW124037   4.427  10.270   1.996 -0.7298  2.0807 -0.6027
 6815SOL    HW224038   4.553  10.347   2.029  0.9825 -0.9549  0.2836
 6816SOL     OW24039   6.050   3.152   7.482 -0.2548  0.1563 -0.3046
 6816SOL    HW124040   6.071   3.140   7.575 -0.0078  0.0600 -0.3720
 6816SOL    HW224041   6.127   3.196   7.446  0.3281 -1.2232 -0.7997
 6817SOL     OW24042   9.249   0.657   9.158 -0.0309 -0.0528 -0.0526
 6817SOL    HW124043   9.275   0.680   9.247 -0.5638  0.2109  0.0410
 6817SOL    HW224044   9.331   0.643   9.111  0.2561  0.0638  0.4122
 6818SOL     OW24045   2.450   5.632   6.651 -0.5409  0.1026 -0.0479
 6818SOL    HW124046   2.455   5.672   6.564 -1.8837 -1.1461 -0.7321
 6818SOL    HW224047   2.382   5.566   6.643  1.2481 -2.0323  1.1502
 6819SOL     OW24048   7.427   2.746   5.551  0.4475  0.3755  0.0488
 6819SOL    HW124049   7.457   2.656   5.540 -0.7569  0.1653 -2.0570
 6819SOL    HW224050   7.343   2.738   5.595  0.3357  0.4696 -0.1477
 6820SOL     OW24051   5.075   8.429  10.488 -0.2244 -0.5391  0.8128
 6820SOL    HW124052   5.038   8.518  10.493 -0.9757 -0.7427 -0.5653
 6820SOL    HW224053   5.128   8.421  10.567 -1.6398  0.4586  1.9312
 6821SOL     OW24054   9.254   7.920  10.111  0.6508  0.0191  0.5506
 6821SOL    HW124055   9.288   7.841  10.153 -0.2559  0.8772  3.0815
 6821SOL    HW224056   9.302   7.992  10.151  0.6639  0.8458 -0.8796
 6822SOL     OW24057   7.725   8.884   6.223 -0.6202 -0.4893  0.0902
 6822SOL    HW124058   7.781   8.858   6.296 -1.2122 -1.0637  0.3475
 6822SOL    HW224059   7.691   8.802   6.188 -1.7733 -0.1366  0.3278
 6823SOL     OW24060   2.055   4.786  10.294 -0.1768  0.0916  0.1566
 6823SOL    HW124061   2.134   4.784  10.347 -0.6494 -0.0170  0.8676
 6823SOL    HW224062   2.076   4.843  10.220  0.3300  0.6148  0.7093
 6824SOL     OW24063   3.553   5.007   3.689 -0.1929 -0.2034  0.2141
 6824SOL    HW124064   3.594   5.091   3.709 -0.8236 -0.1527  1.3474
 6824SOL    HW224065   3.463   5.016   3.720 -1.0100 -0.4420 -1.8882
 6825SOL     OW24066   6.092   3.028   2.161 -0.1373  0.0810  0.4781
 6825SOL    HW124067   6.118   3.094   2.226 -1.0020  0.6711  0.2486
 6825SOL    HW224068   6.084   3.077   2.079 -1.5920 -0.1179  0.4696
 6826SOL     OW24069   9.773   2.370   1.191 -1.0206  1.6412 -0.0698
 6826SOL    HW124070   9.849   2.390   1.136  0.6038 -0.1357  1.3764
 6826SOL    HW224071   9.698   2.389   1.135  0.5012  1.2420 -2.4155
 6827SOL     OW24072   4.106   1.551   3.967 -0.1324  0.4669  0.3249
 6827SOL    HW124073   4.012   1.541   3.954  0.0862  0.7998 -1.9953
 6827SOL    HW224074   4.142   1.464   3.952  0.0617  0.7127 -0.7719
 6828SOL     OW24075   0.814   2.110   6.289  0.3721 -0.5144  0.1180
 6828SOL    HW124076   0.780   2.164   6.217 -0.6118 -2.4170 -0.9319
 6828SOL    HW224077   0.745   2.046   6.305  1.2377 -1.0781  1.7482
 6829SOL     OW24078   2.296   0.160   2.596 -0.0895  0.0880  0.1309
 6829SOL    HW124079   2.212   0.129   2.562 -0.0880  1.9726 -1.8675
 6829SOL    HW224080   2.358   0.142   2.525  0.8987  0.0777  0.9755
 6830SOL     OW24081   2.950   0.992   4.896  0.1528  0.0131 -0.5553
 6830SOL    HW124082   2.994   0.960   4.974 -1.6837  2.9159  1.8901
 6830SOL    HW224083   2.881   0.928   4.879 -1.1427  0.6193  1.9660
 6831SOL     OW24084   0.273   6.842   7.689 -0.6457 -0.1915  0.2457
 6831SOL    HW124085   0.209   6.857   7.620 -1.3372  2.0495  1.2703
 6831SOL    HW224086   0.221   6.813   7.764 -0.0992 -1.0595  0.3037
 6832SOL     OW24087  10.584  10.898   7.718 -0.5757 -0.0318  0.0571
 6832SOL    HW124088  10.523  10.837   7.759 -0.7534  0.8145  1.1165
 6832SOL    HW224089  10.530  10.974   7.695 -0.1426  0.2413 -0.0767
 6833SOL     OW24090   5.190   7.264   4.673  0.2571  0.0411 -0.2203
 6833SOL    HW124091   5.219   7.183   4.716 -1.1017  0.0540  0.7851
 6833SOL    HW224092   5.115   7.237   4.620  1.8949  0.0258 -2.7367
 6834SOL     OW24093   6.591   2.894   1.464  0.1688 -0.2879 -0.0244
 6834SOL    HW124094   6.610   2.851   1.380  1.2066  0.3668 -0.1456
 6834SOL    HW224095   6.504   2.862   1.488 -0.8578  0.7262 -2.1407
 6835SOL     OW24096   5.907   4.482   0.462 -0.6887  0.8113  0.0143
 6835SOL    HW124097   5.991   4.503   0.502 -0.0378  1.2359 -1.5198
 6835SOL    HW224098   5.856   4.443   0.533  1.1247 -0.3674  0.7328
 6836SOL     OW24099   0.384   6.118   9.648 -0.0060 -0.0759  0.2840
 6836SOL    HW124100   0.428   6.202   9.635 -0.3844  0.1055  0.1896
 6836SOL    HW224101   0.300   6.127   9.603 -0.4426 -0.1784  1.0645
 6837SOL     OW24102   9.252   5.260   7.755 -0.1921 -0.4192 -0.5204
 6837SOL    HW124103   9.315   5.253   7.683 -0.7693  1.6618 -1.2941
 6837SOL    HW224104   9.191   5.187   7.740  0.8284 -1.2038 -0.9590
 6838SOL     OW24105   3.544   0.291   1.229 -0.3098 -0.7881  0.3722
 6838SOL    HW124106   3.603   0.311   1.301  0.7613 -3.2062  0.2765
 6838SOL    HW224107   3.503   0.207   1.254 -1.5670 -0.5806 -0.8487
 6839SOL     OW24108  10.039  10.946   6.471  0.4902 -0.6725  0.1197
 6839SOL    HW124109  10.018  10.978   6.384 -0.2744 -1.6927 -0.0912
 6839SOL    HW224110  10.057  10.852   6.459  1.4231 -0.6058  0.8971
 6840SOL     OW24111   0.865   4.662   9.190  0.1564 -0.2539 -0.2666
 6840SOL    HW124112   0.894   4.629   9.106 -1.0049  0.4882 -0.9966
 6840SOL    HW224113   0.770   4.655   9.187  0.1096 -0.5397  1.1331
 6841SOL     OW24114   3.415   2.754   5.974  0.2035  0.0398  0.9727
 6841SOL    HW124115   3.326   2.761   6.009 -0.6726 -2.9471 -0.3250
 6841SOL    HW224116   3.403   2.725   5.884  2.5196  2.1510 -0.1330
 6842SOL     OW24117   9.277   5.988   7.961 -0.0624  0.2847  0.3784
 6842SOL    HW124118   9.236   5.976   8.047 -0.6351  0.5575  0.1509
 6842SOL    HW224119   9.207   5.968   7.898  0.4280 -0.1778 -0.0291
 6843SOL     OW24120   7.590   4.625   9.401  0.1494 -0.1078 -0.3084
 6843SOL    HW124121   7.672   4.620   9.451 -0.6511 -0.6927  1.0012
 6843SOL    HW224122   7.521   4.618   9.468 -0.9781  0.6776 -1.3483
 6844SOL     OW24123  10.205   6.411   7.897 -0.0265  0.1114 -0.4387
 6844SOL    HW124124  10.112   6.398   7.881 -0.0235  0.4473 -0.7567
 6844SOL    HW224125  10.246   6.398   7.812  0.3860 -1.4273 -0.0251
 6845SOL     OW24126   0.909   3.119  10.865  0.0034  0.0774 -0.0038
 6845SOL    HW124127   0.993   3.092  10.829 -0.5629 -1.2533 -0.3629
 6845SOL    HW224128   0.851   3.044  10.852 -1.2775  1.0031  0.1457
 6846SOL     OW24129   4.604  11.087   4.973  0.0308  0.7644 -0.2512
 6846SOL    HW124130   4.593  11.092   5.068 -0.7792  0.9781 -0.3530
 6846SOL    HW224131   4.550  11.158   4.938 -0.3098  0.1898 -0.9208
 6847SOL     OW24132   4.817   4.657   2.235 -0.0978 -0.1093  0.0693
 6847SOL    HW124133   4.766   4.697   2.165 -0.7356 -0.1752  0.4875
 6847SOL    HW224134   4.902   4.639   2.195 -0.3669  0.0844 -0.6121
 6848SOL     OW24135   5.873   2.260   0.628 -0.2551 -0.1836  0.0615
 6848SOL    HW124136   5.851   2.340   0.580 -0.7669 -1.1798 -1.4237
 6848SOL    HW224137   5.789   2.224   0.656 -0.0588 -0.4692  0.2946
 6849SOL     OW24138   7.464   9.286   6.935  0.3676 -0.2819 -0.4800
 6849SOL    HW124139   7.407   9.226   6.982 -1.6203  1.3783 -0.6233
 6849SOL    HW224140   7.416   9.309   6.856  0.5976  2.1591 -0.0015
 6850SOL     OW24141   8.027   9.778   6.978 -0.2219 -0.1566 -0.7196
 6850SOL    HW124142   7.957   9.789   7.043  0.5084  0.3514 -0.0089
 6850SOL    HW224143   8.062   9.866   6.965  2.1778 -0.7329  1.0862
 6851SOL     OW24144   2.044  10.821  10.774  0.3651  0.2807 -0.3124
 6851SOL    HW124145   2.027  10.814  10.680 -1.3564 -1.7162  0.0925
 6851SOL    HW224146   2.068  10.733  10.802 -0.8799  0.4296  1.4151
 6852SOL     OW24147   6.545   7.053   7.792  0.4059  0.6385  0.4290
 6852SOL    HW124148   6.613   6.985   7.794 -0.1053  0.0465 -0.7680
 6852SOL    HW224149   6.483   7.022   7.726 -0.9174  1.2782  1.3330
 6853SOL     OW24150  10.700   4.514   3.147  0.6935  0.2466  0.2834
 6853SOL    HW124151  10.675   4.479   3.061  1.1201  0.1501  0.1958
 6853SOL    HW224152  10.747   4.442   3.189  1.5767  0.7008  0.1058
 6854SOL     OW24153  10.980   9.488   7.446  0.3659  0.4629  0.1523
 6854SOL    HW124154  10.967   9.393   7.444  5.1534 -0.4368 -0.7237
 6854SOL    HW224155  11.040   9.503   7.519  2.3566  2.2317 -1.6997
 6855SOL     OW24156   0.233   8.584   9.993  0.1405  0.3212  0.6113
 6855SOL    HW124157   0.297   8.650   9.964 -0.2220  1.2256  1.7903
 6855SOL    HW224158   0.157   8.635  10.019 -1.8026 -0.8157 -2.4134
 6856SOL     OW24159   4.474   7.252   9.198 -0.2346  0.0523  0.4879
 6856SOL    HW124160   4.542   7.261   9.266  0.2892  0.6138 -0.1002
 6856SOL    HW224161   4.451   7.342   9.175 -2.6153 -0.0551  2.0462
 6857SOL     OW24162   1.586   8.521   5.993  0.1590 -0.2020 -0.2974
 6857SOL    HW124163   1.519   8.477   6.046  0.3364  0.2212  0.2901
 6857SOL    HW224164   1.558   8.613   5.992  0.6141 -0.0616 -0.2301
 6858SOL     OW24165   1.101   2.456  10.236 -0.3573 -0.3564 -0.7495
 6858SOL    HW124166   1.037   2.485  10.300  1.5663  0.9716  0.6733
 6858SOL    HW224167   1.098   2.360  10.240 -1.0010 -0.2938  0.5417
 6859SOL     OW24168   4.656   6.932   3.728 -0.6428 -0.0973 -0.0731
 6859SOL    HW124169   4.621   6.916   3.815  0.2868  0.2509  0.3856
 6859SOL    HW224170   4.707   6.853   3.708  0.4044  0.4411  0.3691
 6860SOL     OW24171   9.490   6.722   2.044 -0.5476 -0.5037 -0.0503
 6860SOL    HW124172   9.405   6.764   2.060 -1.2132 -1.2228 -1.5638
 6860SOL    HW224173   9.554   6.786   2.075 -1.6043 -0.9315  3.4773
 6861SOL     OW24174   8.990   0.990   6.825 -0.1030  0.7230  0.1803
 6861SOL    HW124175   9.046   1.013   6.751 -0.6720 -0.8207 -0.7726
 6861SOL    HW224176   9.029   0.911   6.861 -0.4578  0.8468  0.8607
 6862SOL     OW24177   2.920   8.420   1.279 -0.4255  0.6280  0.2803
 6862SOL    HW124178   2.967   8.385   1.203 -1.6566  0.9108 -0.6406
 6862SOL    HW224179   2.976   8.491   1.312  0.5849 -0.1447  0.2506
 6863SOL     OW24180   2.838   6.865   0.387  0.3964 -0.8216 -0.0715
 6863SOL    HW124181   2.830   6.924   0.312 -1.2885 -1.8123 -0.7177
 6863SOL    HW224182   2.864   6.781   0.350 -0.4913 -1.3330  0.4171
 6864SOL     OW24183   6.022   5.913   9.399 -0.1370 -0.4384 -0.0069
 6864SOL    HW124184   6.039   5.992   9.450 -0.3981 -0.0017 -0.5741
 6864SOL    HW224185   5.990   5.849   9.463  0.5267 -0.2434  0.5334
 6865SOL     OW24186   3.377   7.772   7.200 -0.0060 -0.0720  0.3329
 6865SOL    HW124187   3.299   7.812   7.240  0.4195  0.7189  0.3932
 6865SOL    HW224188   3.350   7.683   7.178  0.2646 -1.2868  4.1377
 6866SOL     OW24189   8.919   9.861   4.418 -0.1447  0.0113 -0.4461
 6866SOL    HW124190   8.848   9.815   4.374  0.4648 -3.1099  1.4833
 6866SOL    HW224191   8.881   9.890   4.501  0.1309  0.9150 -0.6226
 6867SOL     OW24192  10.199   6.029   0.644  0.2150  0.1175 -0.2795
 6867SOL    HW124193  10.223   6.107   0.693  0.5878 -0.1129 -0.0965
 6867SOL    HW224194  10.262   5.962   0.671 -0.4842 -0.4281  0.0350
 6868SOL     OW24195   8.427   0.432   6.509 -0.3927 -0.1121 -0.5529
 6868SOL    HW124196   8.477   0.354   6.485  0.4313  0.3245 -0.2531
 6868SOL    HW224197   8.459   0.501   6.451  0.4635  0.5447  0.6598
 6869SOL     OW24198   0.292   1.876   1.195 -0.7711 -0.1876 -0.0291
 6869SOL    HW124199   0.369   1.854   1.143 -0.3810  2.9596 -0.9675
 6869SOL    HW224200   0.314   1.958   1.239 -3.1562  0.2145  0.5811
 6870SOL     OW24201  10.049  10.173   2.810  0.2934  0.2980 -0.3312
 6870SOL    HW124202  10.022  10.095   2.761  1.2645  0.6848 -1.5377
 6870SOL    HW224203   9.979  10.186   2.874  0.1159 -1.5656 -0.0796
 6871SOL     OW24204   8.601   9.722   6.385 -0.0316 -0.0790  0.0475
 6871SOL    HW124205   8.533   9.659   6.408 -0.9384  0.2390 -1.5780
 6871SOL    HW224206   8.676   9.667   6.361 -0.4960 -0.5224 -0.4300
 6872SOL     OW24207   8.753   4.368   1.900 -0.7526  0.5773  0.0156
 6872SOL    HW124208   8.708   4.450   1.920 -1.0699  0.8761 -1.7350
 6872SOL    HW224209   8.685   4.312   1.862 -0.3581 -0.1884  0.4171
 6873SOL     OW24210   6.198   3.694   1.440 -0.7447 -0.7553  0.1528
 6873SOL    HW124211   6.106   3.712   1.458 -0.5126 -0.1753  0.7869
 6873SOL    HW224212   6.239   3.780   1.433 -0.3209 -1.0049 -0.5416
 6874SOL     OW24213   7.356   1.736   0.712  0.6806  0.4185  0.0114
 6874SOL    HW124214   7.283   1.696   0.759  0.4258  0.6090 -0.2115
 6874SOL    HW224215   7.341   1.712   0.620  2.1388 -1.4401  0.2228
 6875SOL     OW24216   0.210   6.449   3.631  0.3409 -0.8624  0.2651
 6875SOL    HW124217   0.146   6.500   3.680  2.4978  1.8603  0.5585
 6875SOL    HW224218   0.215   6.365   3.676  0.0009  0.4082  2.8128
 6876SOL     OW24219   4.596   2.674   1.120  0.3997  0.1504  0.1715
 6876SOL    HW124220   4.551   2.714   1.195 -1.8872 -0.7926 -0.5966
 6876SOL    HW224221   4.616   2.748   1.062 -1.9555  0.4773 -0.3244
 6877SOL     OW24222   7.299   0.600   6.296 -0.0310 -0.1453  0.6492
 6877SOL    HW124223   7.335   0.512   6.299 -1.2683 -0.7381 -0.6670
 6877SOL    HW224224   7.362   0.654   6.345  1.5575 -1.4609  0.1295
 6878SOL     OW24225   4.145   7.440   5.183  0.0453  0.4453  0.6014
 6878SOL    HW124226   4.162   7.362   5.131  0.5626  1.9903 -1.7451
 6878SOL    HW224227   4.222   7.450   5.238  1.1657  0.6038 -0.9124
 6879SOL     OW24228   4.202   5.714   8.276 -0.1038 -0.2314  0.2856
 6879SOL    HW124229   4.251   5.650   8.225 -1.1051 -2.1193  1.5925
 6879SOL    HW224230   4.122   5.728   8.225  1.1123  1.8460 -1.1796
 6880SOL     OW24231  10.757   9.466   0.656  0.3169 -0.2125 -0.0878
 6880SOL    HW124232  10.764   9.535   0.721  0.4524 -0.4258  0.1254
 6880SOL    HW224233  10.824   9.403   0.681 -0.9944 -1.3218  0.7995
 6881SOL     OW24234   7.907   4.916   0.438 -0.0563  0.1318  0.2184
 6881SOL    HW124235   7.957   4.995   0.458 -1.8705  1.4414 -0.1775
 6881SOL    HW224236   7.875   4.886   0.523 -2.4091  2.0035  0.1019
 6882SOL     OW24237   5.544   8.629   2.341 -0.4891 -0.0407  0.0089
 6882SOL    HW124238   5.497   8.565   2.289  0.4155 -2.6011  2.1453
 6882SOL    HW224239   5.637   8.613   2.322 -0.0794 -1.5777  2.7792
 6883SOL     OW24240   0.669   9.170   5.111 -0.4335 -0.9288 -0.5420
 6883SOL    HW124241   0.729   9.187   5.184 -0.4795  1.4894 -0.9648
 6883SOL    HW224242   0.701   9.089   5.071  2.1380 -0.1016 -0.3292
 6884SOL     OW24243   0.100   1.616   7.689  0.4209 -0.0151  0.1474
 6884SOL    HW124244   0.091   1.553   7.760 -0.2379 -0.0377  0.0443
 6884SOL    HW224245   0.192   1.643   7.693  1.1390 -2.0898 -0.7408
 6885SOL     OW24246  10.173   2.506   5.594 -0.6331  0.2467  0.1653
 6885SOL    HW124247  10.195   2.413   5.607  0.8788  0.4495 -0.6452
 6885SOL    HW224248  10.108   2.505   5.524 -1.3650 -0.2489  0.8347
 6886SOL     OW24249   8.096   6.620  10.498  0.0392 -0.5934  0.3067
 6886SOL    HW124250   8.138   6.536  10.517  0.2963 -0.7283 -0.7832
 6886SOL    HW224251   8.042   6.603  10.421  0.0834  0.2338  0.0819
 6887SOL     OW24252   1.765   6.074   4.049 -0.2569  0.0503 -0.3584
 6887SOL    HW124253   1.687   6.063   4.103  0.9473 -0.4427  1.3718
 6887SOL    HW224254   1.799   5.985   4.037 -1.7635 -0.2146 -4.0969
 6888SOL     OW24255   0.015   1.964   5.190  0.0323 -0.9339  1.0373
 6888SOL    HW124256  -0.079   1.949   5.179 -0.2497  0.3871  1.5126
 6888SOL    HW224257   0.021   2.049   5.233  1.5243  0.9618 -2.4812
 6889SOL     OW24258   1.366   7.980   6.704 -0.6122  0.1740 -0.3913
 6889SOL    HW124259   1.447   7.938   6.677 -1.5800 -0.7493 -2.0233
 6889SOL    HW224260   1.369   8.066   6.663 -0.7501 -0.1165 -1.0195
 6890SOL     OW24261   0.922   7.839   0.582 -0.1185  0.0053 -0.0011
 6890SOL    HW124262   0.840   7.806   0.547 -0.3595  0.0204  0.5420
 6890SOL    HW224263   0.956   7.898   0.515 -1.3040  1.1907  0.4110
 6891SOL     OW24264   7.836  10.269   2.491  0.0435 -0.0458  0.3468
 6891SOL    HW124265   7.752  10.259   2.446  0.8465  2.1275 -1.8650
 6891SOL    HW224266   7.889  10.198   2.458 -0.0724  0.2372 -0.4726
 6892SOL     OW24267   4.812   9.652   9.274 -0.1103  0.3616  0.0507
 6892SOL    HW124268   4.843   9.616   9.357  0.6858  1.4074  0.2270
 6892SOL    HW224269   4.885   9.706   9.243 -1.0477  1.3512 -0.4863
 6893SOL     OW24270   9.344   6.370   1.524  0.2920  0.2509  0.0645
 6893SOL    HW124271   9.363   6.337   1.612 -0.4985  0.3292  0.2714
 6893SOL    HW224272   9.260   6.416   1.533  0.0834  0.0581 -0.7792
 6894SOL     OW24273   0.659   2.182   3.687 -0.5416 -0.1028 -0.0262
 6894SOL    HW124274   0.745   2.223   3.696 -0.3666 -0.8506  2.4256
 6894SOL    HW224275   0.609   2.243   3.631  1.0432  1.1664 -0.1341
 6895SOL     OW24276   4.383   6.465   2.700  0.4272 -0.3674 -0.3990
 6895SOL    HW124277   4.359   6.545   2.653  0.3069  1.4717  2.5343
 6895SOL    HW224278   4.299   6.429   2.730  0.6039 -0.4948 -0.0570
 6896SOL     OW24279   9.373   6.042   4.727  0.0397 -0.1636 -0.3966
 6896SOL    HW124280   9.386   6.016   4.636  0.2730  2.7329 -1.3094
 6896SOL    HW224281   9.313   6.116   4.722  0.3995  0.3378  1.7742
 6897SOL     OW24282   6.437   2.374   3.104 -0.0134 -0.9377 -0.2332
 6897SOL    HW124283   6.485   2.356   3.185 -2.1435  0.4899  1.4544
 6897SOL    HW224284   6.505   2.400   3.041  1.7366 -2.4353  0.9141
 6898SOL     OW24285   7.310   7.863   6.054 -0.1811 -0.6015  0.4506
 6898SOL    HW124286   7.334   7.956   6.058  2.1130 -1.1976  3.1841
 6898SOL    HW224287   7.218   7.861   6.079 -0.2900  0.9182  0.2635
 6899SOL     OW24288   5.875  10.274   1.501 -0.1023  0.1464  0.1462
 6899SOL    HW124289   5.870  10.244   1.591 -0.6618  0.5767  0.2679
 6899SOL    HW224290   5.825  10.210   1.451 -0.9272  0.6237  0.3420
 6900SOL     OW24291   8.390   9.980   9.131  0.2267 -0.0120  0.3448
 6900SOL    HW124292   8.430   9.949   9.212  0.6281  0.4080  0.3155
 6900SOL    HW224293   8.350   9.902   9.092  1.0575 -0.4549  0.3568
 6901SOL     OW24294   5.759   9.423   7.960 -0.0483 -0.1758 -0.4308
 6901SOL    HW124295   5.789   9.377   8.038  0.3833  1.6095  0.5095
 6901SOL    HW224296   5.730   9.354   7.900  0.6155 -1.6306  0.8833
 6902SOL     OW24297   6.877   5.952   8.983 -0.2708  0.2926  0.5028
 6902SOL    HW124298   6.806   5.939   9.046 -1.9596  0.6255 -1.2517
 6902SOL    HW224299   6.957   5.948   9.036 -1.5562 -0.4094  2.4978
 6903SOL     OW24300   8.879   9.024   1.798  0.0742  0.5485 -0.0344
 6903SOL    HW124301   8.877   8.934   1.763 -0.5542 -0.1076  1.6058
 6903SOL    HW224302   8.938   9.071   1.739 -0.3924 -0.6687 -1.5471
 6904SOL     OW24303   9.857   5.023   6.203  0.5932 -0.1432 -0.2926
 6904SOL    HW124304   9.829   5.073   6.280  0.3038 -0.3434 -0.2650
 6904SOL    HW224305   9.948   5.002   6.220  0.9834  1.1320 -0.7052
 6905SOL     OW24306   6.984   3.594  11.028 -0.1052  0.0444 -0.2813
 6905SOL    HW124307   6.967   3.637  11.112 -0.0181 -1.8326  0.7691
 6905SOL    HW224308   6.904   3.606  10.978  0.1198  1.8640 -0.2661
 6906SOL     OW24309  10.397   2.937   0.642  0.0524  0.1849 -0.1962
 6906SOL    HW124310  10.441   2.853   0.631 -0.6978 -0.3576  0.7482
 6906SOL    HW224311  10.307   2.914   0.666 -0.2538  1.2613 -0.2491
 6907SOL     OW24312   3.087   1.398   7.955  0.1077 -0.2008  0.0249
 6907SOL    HW124313   3.008   1.407   7.902 -1.9304 -0.4941  2.8353
 6907SOL    HW224314   3.140   1.475   7.932 -1.9102  1.1166 -0.4446
 6908SOL     OW24315   7.087   2.838   6.966 -0.4606  0.1025  0.1466
 6908SOL    HW124316   7.064   2.852   6.875  0.4664  1.4397  0.0916
 6908SOL    HW224317   7.012   2.872   7.015 -0.9430 -0.5824 -0.1022
 6909SOL     OW24318   6.055   7.563   4.047  0.4113 -0.2531 -0.7825
 6909SOL    HW124319   6.009   7.486   4.013  0.5369 -0.2883 -0.8713
 6909SOL    HW224320   5.988   7.611   4.095 -0.2551  0.7918 -2.6663
 6910SOL     OW24321   4.770   0.543   0.299 -0.2456 -0.0031  0.1005
 6910SOL    HW124322   4.858   0.581   0.302  1.1232 -2.8945  0.3445
 6910SOL    HW224323   4.768   0.481   0.372 -1.3933 -2.0899 -1.5815
 6911SOL     OW24324   6.539   6.315   7.796  0.8245  0.2558 -0.1781
 6911SOL    HW124325   6.623   6.281   7.764 -0.0479 -2.1522 -0.1467
 6911SOL    HW224326   6.483   6.317   7.719  0.4433  0.2381  0.0984
 6912SOL     OW24327   4.192   8.201   0.037 -0.1481 -0.0368 -0.0267
 6912SOL    HW124328   4.240   8.279   0.064  2.0525 -0.3981 -2.5091
 6912SOL    HW224329   4.256   8.148  -0.009 -2.1368 -2.2718 -0.4317
 6913SOL     OW24330  10.459   0.220   7.813  0.5633  0.4918  0.6679
 6913SOL    HW124331  10.365   0.206   7.817  0.2753  0.5795 -2.9142
 6913SOL    HW224332  10.469   0.315   7.806  0.6029  0.3614 -2.0647
 6914SOL     OW24333   2.879  10.540   1.886 -0.9728 -0.1221  0.2310
 6914SOL    HW124334   2.969  10.510   1.878 -0.9087 -0.3233  1.5240
 6914SOL    HW224335   2.843  10.534   1.797  1.0349  2.5153 -0.8957
 6915SOL     OW24336   2.433   2.301   9.453  0.9764  0.3801  0.1362
 6915SOL    HW124337   2.390   2.374   9.407 -1.8263  0.2550  2.2791
 6915SOL    HW224338   2.522   2.299   9.417 -0.1752  1.9396 -3.2432
 6916SOL     OW24339   7.863   2.708   6.994 -0.2429  0.6582 -0.4546
 6916SOL    HW124340   7.798   2.778   6.984  0.2787  1.5916  1.9354
 6916SOL    HW224341   7.935   2.749   7.042 -0.0995 -1.5941  1.4187
 6917SOL     OW24342   9.675   3.630   6.865  0.5625  0.0715 -0.2845
 6917SOL    HW124343   9.635   3.661   6.946 -0.5410  0.1017 -0.8302
 6917SOL    HW224344   9.664   3.535   6.868 -2.3107  0.2626 -1.8001
 6918SOL     OW24345   9.595   3.435  10.766 -0.2251  0.4570 -0.3628
 6918SOL    HW124346   9.684   3.399  10.768  0.3097  1.7347  1.2438
 6918SOL    HW224347   9.542   3.371  10.812 -0.4990 -1.0700 -2.6683
 6919SOL     OW24348  10.687   3.935   8.871  0.1775 -0.0800 -0.3048
 6919SOL    HW124349  10.600   3.923   8.832  0.5273 -1.2125 -0.7613
 6919SOL    HW224350  10.748   3.915   8.800  0.8197  0.6697  0.0257
 6920SOL     OW24351   7.504  10.607   7.835  0.0509  0.0618  0.1897
 6920SOL    HW124352   7.572  10.593   7.901 -0.0558  0.1537  0.3192
 6920SOL    HW224353   7.531  10.686   7.788 -0.1788  0.3326  0.5103
 6921SOL     OW24354   9.175   8.004   6.992  0.8941 -0.9439 -0.3328
 6921SOL    HW124355   9.149   7.929   7.046 -1.7315 -0.0017 -0.1669
 6921SOL    HW224356   9.146   7.980   6.903 -1.9354  0.6071  0.0491
 6922SOL     OW24357   1.510   2.456   4.310  0.0082 -0.1222  0.1129
 6922SOL    HW124358   1.515   2.551   4.300 -0.8082 -0.0563  0.3092
 6922SOL    HW224359   1.487   2.424   4.223  1.4720 -0.2565 -0.2610
 6923SOL     OW24360   0.007  10.399   9.427 -0.1090 -0.6323 -0.2421
 6923SOL    HW124361   0.017  10.314   9.468 -0.8373 -0.8494 -0.5044
 6923SOL    HW224362   0.087  10.411   9.375  1.2007 -0.0038  1.8203
 6924SOL     OW24363  11.053   1.471  10.234 -0.5422 -0.1388 -0.0480
 6924SOL    HW124364  11.061   1.461  10.139 -2.2871  0.7279 -0.3067
 6924SOL    HW224365  10.988   1.406  10.259  0.0216 -0.4653  0.6086
 6925SOL     OW24366   5.019   8.675   5.612  0.1892 -0.6510  0.1193
 6925SOL    HW124367   5.060   8.603   5.564  1.4396 -0.3406  0.6791
 6925SOL    HW224368   5.046   8.753   5.564 -1.9522 -0.5645 -1.0608
 6926SOL     OW24369   2.184   2.299   0.898  0.1675  0.2538  0.0698
 6926SOL    HW124370   2.205   2.371   0.958  0.4016  0.2688 -0.0300
 6926SOL    HW224371   2.243   2.311   0.824  1.5267 -1.0948  0.8649
 6927SOL     OW24372   1.013   3.932   2.065  0.1496 -0.9072 -0.0762
 6927SOL    HW124373   0.984   3.925   1.975 -0.9863 -3.4930  0.4148
 6927SOL    HW224374   1.092   3.987   2.061 -0.6102  0.1146 -2.4169
 6928SOL     OW24375   5.288   5.818   9.032 -0.3443 -0.1769  0.1396
 6928SOL    HW124376   5.313   5.815   9.124 -0.7841 -1.2934  0.2433
 6928SOL    HW224377   5.254   5.730   9.014 -1.7062  0.4936 -0.6873
 6929SOL     OW24378   4.486   9.754   6.943 -0.0808 -0.6902 -0.2255
 6929SOL    HW124379   4.490   9.719   7.032  3.2692  0.0392  0.0117
 6929SOL    HW224380   4.510   9.680   6.887 -0.7081 -0.7504 -0.4277
 6930SOL     OW24381   3.985  10.440   7.645 -0.3493  0.1389 -0.5847
 6930SOL    HW124382   4.076  10.411   7.651 -0.5714 -0.6901 -1.1451
 6930SOL    HW224383   3.939  10.368   7.603 -1.4958  0.0570  0.7308
 6931SOL     OW24384  10.671   2.645   2.466 -0.0662 -0.0010  0.5129
 6931SOL    HW124385  10.662   2.621   2.558  2.5135 -0.5862  0.7020
 6931SOL    HW224386  10.719   2.727   2.467  2.1167 -1.1718 -0.2413
 6932SOL     OW24387   0.704   1.334   1.249  0.0782  0.6043  0.1606
 6932SOL    HW124388   0.797   1.354   1.249  0.5909 -1.1971 -2.3189
 6932SOL    HW224389   0.692   1.276   1.324  0.8723  1.1456  0.7217
 6933SOL     OW24390   8.447   0.380   2.373  0.1056 -0.8282 -0.4821
 6933SOL    HW124391   8.389   0.407   2.444  0.9115  0.7868 -0.3901
 6933SOL    HW224392   8.433   0.446   2.304  2.9104  0.5635  0.1493
 6934SOL     OW24393   9.060   7.952   1.620  0.3563  0.3812 -0.4791
 6934SOL    HW124394   9.115   8.027   1.598  3.1507 -1.4681 -0.3065
 6934SOL    HW224395   9.034   7.967   1.711  2.2242  0.4475  0.0843
 6935SOL     OW24396   0.766   7.183   0.272  0.3970 -0.2105 -0.4016
 6935SOL    HW124397   0.796   7.273   0.258  1.5787 -0.4825  0.2772
 6935SOL    HW224398   0.794   7.162   0.361 -1.7793 -0.5344  0.2672
 6936SOL     OW24399   3.583   9.528   8.254  0.3156  0.3545 -0.0811
 6936SOL    HW124400   3.642   9.524   8.178  1.1608 -2.3799  0.6128
 6936SOL    HW224401   3.633   9.576   8.320  1.5202 -1.2476  0.2321
 6937SOL     OW24402   7.019  10.555   2.630  0.3957  0.2812 -0.3477
 6937SOL    HW124403   7.093  10.570   2.688  0.2668  0.7971 -0.3113
 6937SOL    HW224404   7.057  10.549   2.542  0.9559 -3.3579  0.0081
 6938SOL     OW24405   4.411   5.356   1.823  0.1920 -0.3395  0.0637
 6938SOL    HW124406   4.446   5.289   1.765 -0.6130 -0.3528 -0.4207
 6938SOL    HW224407   4.442   5.439   1.785 -0.7433 -0.3208 -0.6823
 6939SOL     OW24408   5.284   4.973   5.452  0.0381  0.2390  0.4576
 6939SOL    HW124409   5.375   4.999   5.468  0.0681  0.1393  0.4510
 6939SOL    HW224410   5.237   5.055   5.441  0.1987  0.2797  0.0715
 6940SOL     OW24411   6.976   9.334   4.234 -0.0484 -0.0384  0.0593
 6940SOL    HW124412   7.046   9.395   4.257  1.8945 -1.3132 -2.0374
 6940SOL    HW224413   6.998   9.253   4.280 -0.4484 -0.2935 -0.1826
 6941SOL     OW24414   2.338   1.431   1.872  0.0484  0.4020 -0.1799
 6941SOL    HW124415   2.246   1.433   1.846  0.2124 -1.3021 -1.0365
 6941SOL    HW224416   2.340   1.375   1.949  0.3783  0.4384 -0.1597
 6942SOL     OW24417   7.426   0.108   7.603 -0.4142 -0.1794  0.2416
 6942SOL    HW124418   7.433   0.131   7.696  0.2019  1.2281 -0.1340
 6942SOL    HW224419   7.332   0.098   7.588 -0.4461 -2.7133  1.5009
 6943SOL     OW24420   3.347   6.984   6.312 -0.2362 -0.1129 -0.0650
 6943SOL    HW124421   3.382   6.938   6.388  0.9380 -0.1117 -0.5793
 6943SOL    HW224422   3.254   6.964   6.313 -0.1564 -0.5112  1.0898
 6944SOL     OW24423   3.106   0.548   1.460 -0.0858  0.0157  0.4323
 6944SOL    HW124424   3.032   0.488   1.450 -1.7102  1.4819  2.5968
 6944SOL    HW224425   3.177   0.493   1.493 -0.1287 -1.4336 -1.7129
 6945SOL     OW24426   2.027   5.428   7.810 -0.1069 -0.3688 -0.1017
 6945SOL    HW124427   1.966   5.355   7.810 -0.0014 -0.4574 -0.2272
 6945SOL    HW224428   2.093   5.404   7.875  0.3119 -0.7105 -0.6401
 6946SOL     OW24429   7.274   1.682   0.114 -0.0854 -0.8213 -0.0955
 6946SOL    HW124430   7.306   1.694   0.025  1.0564 -0.5982  0.3316
 6946SOL    HW224431   7.183   1.654   0.103 -1.0050  2.1802 -1.2879
 6947SOL     OW24432   2.484   8.509   8.962 -0.1116  0.3783 -0.1210
 6947SOL    HW124433   2.394   8.479   8.977  0.3086 -0.7671  0.2061
 6947SOL    HW224434   2.488   8.524   8.867 -1.1480  2.1772  0.0844
 6948SOL     OW24435   3.107   7.557   8.099 -0.1877  0.0970 -0.3702
 6948SOL    HW124436   3.149   7.625   8.046 -0.0981  1.0517  0.8998
 6948SOL    HW224437   3.178   7.521   8.152 -0.7418  1.0590  1.0876
 6949SOL     OW24438   7.517   8.555   3.138 -0.1261 -0.0093  0.0587
 6949SOL    HW124439   7.470   8.544   3.221 -0.4681  2.3732  0.2401
 6949SOL    HW224440   7.607   8.529   3.157  0.0363  1.4704  1.4862
 6950SOL     OW24441   2.350   1.234   4.996  0.1760 -0.5802  0.5036
 6950SOL    HW124442   2.341   1.207   4.905  1.1721 -1.1323  0.5417
 6950SOL    HW224443   2.387   1.322   4.992 -1.6894  0.2417  0.3850
 6951SOL     OW24444   9.890  10.950   5.084  0.0540 -0.2395 -0.0681
 6951SOL    HW124445   9.920  10.859   5.076 -0.8256 -0.5772  0.2818
 6951SOL    HW224446   9.838  10.950   5.165 -3.7155 -0.5162 -2.2655
 6952SOL     OW24447   8.235   3.317   5.445 -0.1527 -0.3324  0.1869
 6952SOL    HW124448   8.173   3.389   5.429 -0.3722 -0.6827 -0.6257
 6952SOL    HW224449   8.179   3.240   5.451  0.2774 -1.0550 -3.0325
 6953SOL     OW24450   3.699   8.458   9.789  0.4547  0.0743  0.0971
 6953SOL    HW124451   3.776   8.513   9.776 -0.0328  0.2447 -2.6764
 6953SOL    HW224452   3.680   8.423   9.702 -0.7780 -2.4820  1.2775
 6954SOL     OW24453   7.803   2.278   7.761  0.8258  0.1521  0.1874
 6954SOL    HW124454   7.833   2.222   7.690  1.8325 -0.2213  0.8858
 6954SOL    HW224455   7.711   2.254   7.773  0.7395 -0.0068 -0.7667
 6955SOL     OW24456   8.850   5.165   2.576  0.1006  0.3352 -0.3769
 6955SOL    HW124457   8.881   5.120   2.655  1.4401  3.8537  1.2785
 6955SOL    HW224458   8.756   5.145   2.573  0.2043 -0.6963  1.5348
 6956SOL     OW24459   0.877   1.536   7.793 -0.2439  0.0372  0.0452
 6956SOL    HW124460   0.910   1.517   7.705  0.3966  1.0077  0.0571
 6956SOL    HW224461   0.901   1.628   7.808 -1.5119  0.2881  0.7103
 6957SOL     OW24462   1.638   0.226   5.864 -0.0991 -0.1685  0.3879
 6957SOL    HW124463   1.709   0.179   5.823 -0.8546 -1.6786  0.7318
 6957SOL    HW224464   1.681   0.287   5.925  0.9640  1.1679 -1.5801
 6958SOL     OW24465   6.543   8.950   6.907 -0.2721 -0.1980  0.5212
 6958SOL    HW124466   6.463   8.965   6.958  0.2633 -0.3776  1.4334
 6958SOL    HW224467   6.549   9.027   6.849 -1.7807 -0.7930 -0.5001
 6959SOL     OW24468   4.260   9.760   1.384 -0.3199 -0.4697 -0.7242
 6959SOL    HW124469   4.324   9.830   1.396 -0.4905 -0.3189 -0.6898
 6959SOL    HW224470   4.199   9.794   1.318 -1.6116  0.2543  0.7980
 6960SOL     OW24471   3.269   3.276   5.991 -0.3718 -0.0780 -0.1095
 6960SOL    HW124472   3.299   3.208   6.051 -0.7047  0.6427  0.9103
 6960SOL    HW224473   3.186   3.244   5.956 -0.8875  0.0945  0.9141
 6961SOL     OW24474   0.374   9.917   4.119  0.1228 -0.4824  1.0713
 6961SOL    HW124475   0.460   9.953   4.095 -0.3866 -0.8286 -1.6582
 6961SOL    HW224476   0.324   9.992   4.150  0.5275  0.3239 -0.1360
 6962SOL     OW24477   0.456   6.032   2.512  0.1014  0.4144 -0.3910
 6962SOL    HW124478   0.548   6.040   2.488  0.2632 -0.2359  0.0175
 6962SOL    HW224479   0.428   5.949   2.473  0.3034 -0.5389  1.4293
 6963SOL     OW24480   5.001   9.375   7.163 -0.7903 -1.0277  0.2650
 6963SOL    HW124481   5.037   9.303   7.215 -1.2701 -0.8542  0.8545
 6963SOL    HW224482   4.921   9.340   7.124  0.0507 -1.4572 -1.1646
 6964SOL     OW24483   4.819   9.886   6.469  0.2153 -0.9979  0.3351
 6964SOL    HW124484   4.847   9.866   6.379  0.7395  1.8081 -0.2251
 6964SOL    HW224485   4.897   9.921   6.511 -0.2475 -1.4758  1.6393
 6965SOL     OW24486   3.187   4.096   3.498 -0.1210  0.3299 -0.7012
 6965SOL    HW124487   3.212   4.015   3.453  0.0609  0.1374 -0.2563
 6965SOL    HW224488   3.270   4.137   3.521 -0.2145  0.5699 -0.7854
 6966SOL     OW24489   8.024   8.178   3.187  0.1012 -0.1771  0.0266
 6966SOL    HW124490   8.038   8.270   3.208  1.7138 -0.2764 -0.4421
 6966SOL    HW224491   8.021   8.176   3.091  1.7867 -0.7842 -0.0484
 6967SOL     OW24492   7.874   5.889   6.355 -0.8173 -0.1941 -0.2892
 6967SOL    HW124493   7.882   5.981   6.331  1.0126  0.2678  1.8193
 6967SOL    HW224494   7.913   5.841   6.282 -0.0762  0.8155 -0.5680
 6968SOL     OW24495   6.850   7.603   9.940  0.4640  0.8323 -0.7719
 6968SOL    HW124496   6.925   7.661   9.955  0.6219  0.4824 -0.1475
 6968SOL    HW224497   6.782   7.638   9.998  0.7845 -0.0044  0.1430
 6969SOL     OW24498   3.117  10.810   7.899  0.3868 -0.7290  0.0825
 6969SOL    HW124499   3.050  10.746   7.921 -0.2423 -0.3801 -0.7592
 6969SOL    HW224500   3.089  10.845   7.814  1.7015 -0.6791 -0.3525
 6970SOL     OW24501   4.567   0.286   5.615  0.2646 -0.0522 -0.2510
 6970SOL    HW124502   4.602   0.206   5.654 -2.9817 -2.4114 -1.6473
 6970SOL    HW224503   4.577   0.273   5.521  0.9172  1.8864 -0.4820
 6971SOL     OW24504   3.857   9.648   3.149  0.0656  0.0521 -0.1471
 6971SOL    HW124505   3.774   9.692   3.169  1.2502  2.2370  0.2768
 6971SOL    HW224506   3.864   9.578   3.215  0.5991  2.6730  2.8191
 6972SOL     OW24507   1.792   2.432   5.599 -0.5461 -0.1583 -0.0777
 6972SOL    HW124508   1.778   2.365   5.532  1.8627 -0.6731 -0.1355
 6972SOL    HW224509   1.777   2.515   5.553 -0.5710 -0.5606 -0.8077
 6973SOL     OW24510   8.416   2.338   7.285  0.0564  0.1863  0.0257
 6973SOL    HW124511   8.394   2.247   7.306  1.4466 -0.3189 -0.5995
 6973SOL    HW224512   8.331   2.381   7.274 -0.9032 -2.2432 -4.8628
 6974SOL     OW24513   6.695   4.803   9.792  0.3140 -0.5386  0.0064
 6974SOL    HW124514   6.706   4.728   9.850 -3.1121 -2.2386 -1.2464
 6974SOL    HW224515   6.754   4.786   9.718  2.1026 -0.1324  1.2778
 6975SOL     OW24516   3.098   0.827   5.058  0.1187  0.0866 -0.5807
 6975SOL    HW124517   3.113   0.738   5.024  0.4256  0.2281 -0.8246
 6975SOL    HW224518   3.118   0.821   5.151  1.6532  0.2440 -0.8764
 6976SOL     OW24519   8.750   7.150   5.490  0.5801 -0.2101  0.3943
 6976SOL    HW124520   8.702   7.211   5.547 -0.0582  0.0521 -0.4015
 6976SOL    HW224521   8.824   7.121   5.543 -0.9602 -1.3878  2.0377
 6977SOL     OW24522   7.870   3.578   6.459 -0.2653  0.1861 -0.1185
 6977SOL    HW124523   7.928   3.562   6.534  1.1432 -0.3233 -1.2591
 6977SOL    HW224524   7.908   3.655   6.415  0.4523 -1.0214 -1.6985
 6978SOL     OW24525   9.554   8.975   0.449 -0.5561  0.1055 -0.0160
 6978SOL    HW124526   9.587   8.995   0.361 -1.2685  0.4348 -0.2166
 6978SOL    HW224527   9.592   9.043   0.505 -1.0605  0.6242 -0.2858
 6979SOL     OW24528   6.379   3.686   3.618  0.3217  0.3586 -0.2252
 6979SOL    HW124529   6.397   3.674   3.525  0.9266 -1.1953  0.0707
 6979SOL    HW224530   6.465   3.697   3.658  0.1932 -0.7306  0.3726
 6980SOL     OW24531   2.291  10.298   7.244 -0.0078 -0.5115  0.0877
 6980SOL    HW124532   2.229  10.371   7.247  0.4349 -0.1756  2.0996
 6980SOL    HW224533   2.286  10.258   7.331  1.0923 -1.7667 -0.3870
 6981SOL     OW24534   4.796   0.371   8.222  0.9547  0.4742  0.6078
 6981SOL    HW124535   4.835   0.358   8.308  3.1068 -0.3739 -0.4252
 6981SOL    HW224536   4.804   0.286   8.179 -0.5512  0.7437 -0.2846
 6982SOL     OW24537  10.966   8.694   5.112 -0.0135 -0.7900 -0.5336
 6982SOL    HW124538  10.961   8.648   5.196 -0.4786  1.0108  0.4754
 6982SOL    HW224539  10.987   8.785   5.136 -0.0493 -0.2569 -2.3837
 6983SOL     OW24540   6.359   8.670   8.420  0.5181  0.2002  0.0518
 6983SOL    HW124541   6.276   8.674   8.467 -0.4097  0.6195 -1.5332
 6983SOL    HW224542   6.391   8.760   8.422  0.3719  0.2627 -0.2672
 6984SOL     OW24543   0.767   3.433   6.728 -0.2638 -0.5897  0.2421
 6984SOL    HW124544   0.723   3.493   6.789 -1.5844 -2.4815  1.2510
 6984SOL    HW224545   0.745   3.346   6.760  2.5721 -1.6792 -0.4669
 6985SOL     OW24546   0.640   9.568   6.825  0.1822  0.2227  0.0124
 6985SOL    HW124547   0.702   9.499   6.801  1.3932  1.1596  0.3145
 6985SOL    HW224548   0.618   9.611   6.742 -0.3331 -0.3131 -0.1357
 6986SOL     OW24549   2.778   1.953   7.251  0.3904 -0.4616 -0.1414
 6986SOL    HW124550   2.768   2.008   7.173 -0.7653  0.8665  0.8884
 6986SOL    HW224551   2.707   1.888   7.243 -0.4864  0.4048  0.3468
 6987SOL     OW24552   3.197   7.828   5.866 -0.3655 -0.5717 -0.5402
 6987SOL    HW124553   3.175   7.844   5.774  0.2251 -0.8496 -0.7286
 6987SOL    HW224554   3.268   7.889   5.885 -1.7883  0.9145  0.3093
 6988SOL     OW24555   2.152   9.674   2.499  0.7084  0.4271  0.8099
 6988SOL    HW124556   2.128   9.742   2.563 -0.8871  0.9397 -0.2729
 6988SOL    HW224557   2.072   9.625   2.485  1.6908 -1.3259  1.0888
 6989SOL     OW24558   0.231  10.345   3.260  0.2720 -0.1686 -0.3895
 6989SOL    HW124559   0.321  10.352   3.290  0.3724  1.3612 -0.9616
 6989SOL    HW224560   0.184  10.307   3.334  0.9795  1.1336  0.7783
 6990SOL     OW24561  10.317   7.758   0.935 -0.1654 -0.0415 -0.3022
 6990SOL    HW124562  10.274   7.683   0.975  0.3388  0.9850  2.4152
 6990SOL    HW224563  10.256   7.789   0.868 -2.2323 -0.4830  1.2948
 6991SOL     OW24564   2.000   0.204   1.071 -0.4894 -0.2374 -0.3375
 6991SOL    HW124565   1.932   0.137   1.081 -1.0006  0.3149 -0.0563
 6991SOL    HW224566   1.981   0.268   1.138 -0.1928  0.3572 -0.8090
 6992SOL     OW24567   8.391   2.621   4.196 -0.1568 -0.4056 -0.4600
 6992SOL    HW124568   8.308   2.666   4.211 -0.2756 -0.9701  0.6977
 6992SOL    HW224569   8.382   2.538   4.242  1.7538  0.3277  1.4192
 6993SOL     OW24570   3.389   8.983   7.483  0.2111  0.5807 -0.2453
 6993SOL    HW124571   3.321   8.922   7.511  0.6601 -0.0073 -0.4219
 6993SOL    HW224572   3.376   9.060   7.539 -1.2070  0.8709 -0.9314
 6994SOL     OW24573  10.814   6.258   0.858 -0.1292 -0.2093 -0.0190
 6994SOL    HW124574  10.810   6.272   0.763 -1.8643 -0.1898  0.0375
 6994SOL    HW224575  10.864   6.177   0.868  0.9003  0.2886 -0.8782
 6995SOL     OW24576   3.369   9.193   3.144 -0.0696  0.2332  0.7544
 6995SOL    HW124577   3.412   9.215   3.227 -0.2410 -0.8298  1.1317
 6995SOL    HW224578   3.437   9.205   3.078  1.1534 -2.3029  1.4347
 6996SOL     OW24579   4.774   0.420   6.071 -0.3751  0.0597  0.1864
 6996SOL    HW124580   4.834   0.407   6.144 -0.0457  0.2108 -0.0537
 6996SOL    HW224581   4.688   0.431   6.112 -0.2989 -0.5083  0.5151
 6997SOL     OW24582   6.574  10.097   1.422  0.3943 -0.2561 -0.5535
 6997SOL    HW124583   6.570  10.108   1.327 -1.3770  0.8661 -0.3871
 6997SOL    HW224584   6.655  10.047   1.437  1.3393  0.5871 -2.5319
 6998SOL     OW24585   4.552   8.868   3.540  0.1675  0.0568 -0.1285
 6998SOL    HW124586   4.560   8.807   3.614  0.0710 -1.0832 -1.0367
 6998SOL    HW224587   4.501   8.820   3.475 -1.6963  1.8405 -0.1068
 6999SOL     OW24588   2.211   3.519   3.129 -0.1605  0.3184 -0.0711
 6999SOL    HW124589   2.170   3.435   3.106  1.3812 -0.3025 -0.7293
 6999SOL    HW224590   2.152   3.585   3.093 -0.8642 -0.5203 -0.5096
 7000SOL     OW24591   1.324   0.119  11.036  0.0277  0.2620 -0.5722
 7000SOL    HW124592   1.336   0.214  11.045  0.6152  0.6009 -3.6343
 7000SOL    HW224593   1.401   0.081  11.079  0.8007  1.3072 -0.9939
 7001SOL     OW24594   5.620   2.594   0.460  0.6559  0.5344  0.0465
 7001SOL    HW124595   5.628   2.542   0.540  1.2563 -1.1236 -1.0451
 7001SOL    HW224596   5.607   2.530   0.390  0.1455  1.9345 -1.2125
 7002SOL     OW24597   3.566   1.891   6.656 -0.7018 -0.0833 -0.0906
 7002SOL    HW124598   3.590   1.822   6.718 -2.1517 -0.3278  0.2341
 7002SOL    HW224599   3.596   1.972   6.697  0.6976 -0.4659 -0.3094
 7003SOL     OW24600   0.544  10.234   2.202 -0.1488  0.2527 -0.1988
 7003SOL    HW124601   0.598  10.155   2.204 -0.6446 -0.0821  1.2619
 7003SOL    HW224602   0.458  10.206   2.234 -0.2332  1.4362  0.7143
 7004SOL     OW24603   1.008   3.855  10.897  0.1985  0.3100  0.0845
 7004SOL    HW124604   1.056   3.848  10.979 -0.4766 -1.5478  0.3746
 7004SOL    HW224605   0.934   3.795  10.907 -0.3993  0.7019 -1.5557
 7005SOL     OW24606   2.715   0.201   0.326  0.1363 -0.4789  0.3135
 7005SOL    HW124607   2.801   0.199   0.284  0.0807  0.5991  0.1253
 7005SOL    HW224608   2.734   0.193   0.419  0.3751 -1.1599  0.2088
 7006SOL     OW24609   7.775   7.972   7.841 -0.1312  0.0109  0.3831
 7006SOL    HW124610   7.759   7.881   7.865 -1.5142  0.2957  0.6416
 7006SOL    HW224611   7.825   7.968   7.759 -0.3649 -0.9675  0.2818
 7007SOL     OW24612   2.762   1.182   4.918  0.4723 -0.0895 -0.3599
 7007SOL    HW124613   2.851   1.147   4.917  0.1549 -0.9334 -1.4144
 7007SOL    HW224614   2.706   1.105   4.919 -0.2835  0.4235  1.4246
 7008SOL     OW24615   4.442  10.113   3.837 -0.5195 -0.3142  0.6416
 7008SOL    HW124616   4.354  10.097   3.802 -0.1829 -0.0128 -0.3827
 7008SOL    HW224617   4.484  10.168   3.770  0.1552  0.2744  1.5313
 7009SOL     OW24618   0.153   4.419   2.924 -0.0728  0.5264 -0.9382
 7009SOL    HW124619   0.162   4.403   2.830 -0.7513  3.3997 -1.6062
 7009SOL    HW224620   0.061   4.400   2.943  0.3136 -1.0953 -0.5695
 7010SOL     OW24621  10.606   5.674   1.796  0.1461 -0.1437 -0.4810
 7010SOL    HW124622  10.683   5.676   1.852  0.3258 -0.3238 -0.7199
 7010SOL    HW224623  10.640   5.681   1.707 -0.0208 -1.3382 -0.6590
 7011SOL     OW24624   0.044   0.194   5.404  0.5611  0.4348  0.4783
 7011SOL    HW124625   0.108   0.124   5.414 -1.5547 -1.6009  0.7686
 7011SOL    HW224626  -0.036   0.149   5.376 -0.7541  2.8280  0.1248
 7012SOL     OW24627   6.382  10.690   8.171  0.8810  0.3554 -0.3951
 7012SOL    HW124628   6.432  10.694   8.252  1.1484  1.9849 -0.6113
 7012SOL    HW224629   6.405  10.770   8.124 -0.3508  0.1393 -1.4328
 7013SOL     OW24630   9.393   6.041   7.593 -0.1672  0.0516  0.0400
 7013SOL    HW124631   9.317   6.099   7.582 -0.3417 -0.2006 -0.1046
 7013SOL    HW224632   9.401   5.997   7.509 -1.2374 -1.5674  0.7312
 7014SOL     OW24633   9.903   5.933   6.408  0.5879  0.0873 -0.4517
 7014SOL    HW124634   9.912   6.009   6.350  2.3925 -1.0684 -1.7809
 7014SOL    HW224635   9.992   5.915   6.438 -0.0848 -0.4134  1.3370
 7015SOL     OW24636   2.633  10.956   6.195  0.0491  0.0465  0.2831
 7015SOL    HW124637   2.728  10.956   6.208  0.3243  0.0009 -1.4686
 7015SOL    HW224638   2.620  11.005   6.114 -1.0917 -2.7903 -1.4295
 7016SOL     OW24639   0.665   2.783   6.563  0.3906  0.3087 -0.4159
 7016SOL    HW124640   0.585   2.733   6.575 -0.3424  1.4645 -0.2974
 7016SOL    HW224641   0.735   2.718   6.564 -0.4766 -0.6413  0.2455
 7017SOL     OW24642   4.182   4.701   5.923 -0.2983 -0.3951 -0.3262
 7017SOL    HW124643   4.260   4.661   5.885 -0.2621  0.5318 -1.2769
 7017SOL    HW224644   4.204   4.794   5.932 -0.7651 -0.3754  0.8025
 7018SOL     OW24645  11.009   2.325   2.770  1.1061 -0.2776 -0.9997
 7018SOL    HW124646  11.102   2.312   2.789  1.1152 -0.4952 -1.2035
 7018SOL    HW224647  10.992   2.273   2.692  0.5002 -1.3274 -0.1869
 7019SOL     OW24648   1.337   8.960   3.949 -0.2715 -0.6424  0.2889
 7019SOL    HW124649   1.430   8.976   3.931 -0.8025  1.8397 -0.6983
 7019SOL    HW224650   1.329   8.968   4.044  0.5697 -1.1893  0.4116
 7020SOL     OW24651   8.793   9.388   8.773 -0.4318  0.2988  0.5681
 7020SOL    HW124652   8.873   9.419   8.817 -0.1332 -0.7192  0.7761
 7020SOL    HW224653   8.782   9.447   8.698 -0.6061  1.6855  1.6448
 7021SOL     OW24654   9.953   6.955   5.682 -0.2698 -0.1819 -0.5461
 7021SOL    HW124655   9.999   6.934   5.763 -0.1801  1.3347 -0.1627
 7021SOL    HW224656  10.017   7.003   5.630 -1.3883  2.2409  0.1211
 7022SOL     OW24657   6.748   9.212   2.347  1.2322  0.0013  0.2125
 7022SOL    HW124658   6.704   9.223   2.263  0.6235 -0.4575  0.4635
 7022SOL    HW224659   6.678   9.210   2.412  1.6949  0.3421  0.7332
 7023SOL     OW24660   8.267   2.945   2.967 -0.4322 -0.3602  0.0849
 7023SOL    HW124661   8.300   3.020   3.018  2.2592 -0.6045 -1.1252
 7023SOL    HW224662   8.179   2.972   2.940 -0.1199  1.7403  0.9200
 7024SOL     OW24663   3.349   5.750   1.640  0.0254 -0.1525  0.0748
 7024SOL    HW124664   3.285   5.820   1.626 -1.0889 -1.3534 -1.0485
 7024SOL    HW224665   3.430   5.797   1.661 -1.0428  1.4172  0.9098
 7025SOL     OW24666   2.835   8.519   3.126 -0.4686 -0.7802  0.5403
 7025SOL    HW124667   2.772   8.578   3.166 -1.3988 -0.3431 -1.4338
 7025SOL    HW224668   2.793   8.433   3.129 -1.8753 -0.2852 -1.9465
 7026SOL     OW24669   8.510   1.381   4.659 -0.4310  0.1177  0.4516
 7026SOL    HW124670   8.546   1.400   4.572 -0.7126  1.4656  0.6070
 7026SOL    HW224671   8.472   1.294   4.650  0.6857 -0.3119 -0.4064
 7027SOL     OW24672   9.154   1.237   4.163 -0.6726  0.2147  0.4629
 7027SOL    HW124673   9.204   1.282   4.231 -1.6200  1.2255  0.5245
 7027SOL    HW224674   9.144   1.147   4.196  2.2343 -0.4476 -0.1863
 7028SOL     OW24675   9.742   6.813   8.516  0.4935 -0.4520 -0.3755
 7028SOL    HW124676   9.771   6.884   8.573 -1.8435 -1.1609  1.8826
 7028SOL    HW224677   9.682   6.855   8.454 -1.3493 -0.4548  1.3273
 7029SOL     OW24678   6.082   1.446   4.711  0.1783  0.7214  0.1897
 7029SOL    HW124679   6.058   1.358   4.740  0.7010  0.4464 -0.2030
 7029SOL    HW224680   6.176   1.450   4.724  0.5028  0.4463 -1.8398
 7030SOL     OW24681   6.469   6.487   5.405  0.0939 -0.1377 -0.4245
 7030SOL    HW124682   6.399   6.473   5.469  0.7110  1.1595  0.5739
 7030SOL    HW224683   6.475   6.582   5.396  1.9866 -0.1901 -0.1529
 7031SOL     OW24684   2.017   7.412   8.252  0.1803  0.2140  0.4004
 7031SOL    HW124685   1.934   7.417   8.204 -1.0027  1.0108  2.3846
 7031SOL    HW224686   2.024   7.496   8.297  1.0345 -0.5998  1.8716
 7032SOL     OW24687   3.084   2.473   1.194  0.0648  0.3110 -0.1040
 7032SOL    HW124688   3.179   2.477   1.200  0.0800  1.9400 -0.8405
 7032SOL    HW224689   3.067   2.401   1.133  0.8522  0.4741 -0.5275
 7033SOL     OW24690   7.180   8.350  11.034 -0.2235 -0.0898  0.2656
 7033SOL    HW124691   7.088   8.327  11.046 -0.4975  0.7293 -0.1638
 7033SOL    HW224692   7.225   8.310  11.108 -0.6206 -2.1557 -0.5489
 7034SOL     OW24693  10.481   5.373   8.476 -0.5458  0.0764  0.2199
 7034SOL    HW124694  10.496   5.341   8.565 -2.1747  1.0453  0.9024
 7034SOL    HW224695  10.386   5.383   8.471 -0.6144 -1.1034 -2.0715
 7035SOL     OW24696   2.073   3.682   6.170 -0.3581 -0.2311  0.0510
 7035SOL    HW124697   2.162   3.653   6.188  0.0404  1.6067  1.2842
 7035SOL    HW224698   2.019   3.606   6.192  0.8930 -1.6225 -1.4113
 7036SOL     OW24699   1.338   7.498   4.887 -0.3610  0.1085  0.7124
 7036SOL    HW124700   1.264   7.504   4.826 -0.7210 -1.5678  0.9529
 7036SOL    HW224701   1.403   7.559   4.851 -1.5414  1.0332  0.0738
 7037SOL     OW24702   9.475   4.736   0.451 -0.1789 -0.5989 -0.4297
 7037SOL    HW124703   9.521   4.788   0.518  1.0130 -2.4960  0.3083
 7037SOL    HW224704   9.526   4.751   0.371  1.0548 -1.7259  0.1101
 7038SOL     OW24705   9.654   9.578   7.168  0.5980 -0.2536  0.3696
 7038SOL    HW124706   9.701   9.660   7.154  0.7716 -0.4441 -0.1812
 7038SOL    HW224707   9.722   9.513   7.185  0.6199 -0.6701 -1.1024
 7039SOL     OW24708   3.024   3.352  10.138  0.1775  0.1773  0.0460
 7039SOL    HW124709   3.024   3.448  10.148  0.5063  0.2568 -0.6677
 7039SOL    HW224710   3.088   3.322  10.202  1.2364  0.5685 -0.7929
 7040SOL     OW24711   5.042   1.041  10.414  0.7400  0.1104 -0.0610
 7040SOL    HW124712   5.022   1.117  10.359  2.8298  0.0765 -0.9437
 7040SOL    HW224713   5.133   1.021  10.395  0.3101 -2.5215  0.3094
 7041SOL     OW24714   0.116   9.886   6.044  0.1702 -0.4478  0.2892
 7041SOL    HW124715   0.169   9.815   6.008 -1.3934 -1.3625 -0.3202
 7041SOL    HW224716   0.123   9.956   5.980 -0.6537 -1.1828 -0.6521
 7042SOL     OW24717   6.561  10.847   3.928 -0.0322 -0.2464 -0.1595
 7042SOL    HW124718   6.475  10.824   3.964  0.0438  0.5706  0.5592
 7042SOL    HW224719   6.555  10.822   3.836 -1.5956  1.1734 -0.5020
 7043SOL     OW24720   2.451   1.479   9.665 -0.5764  0.6889 -0.4134
 7043SOL    HW124721   2.414   1.560   9.703  0.0815  0.7360  0.1495
 7043SOL    HW224722   2.375   1.431   9.633 -0.9880  1.4791 -0.6402
 7044SOL     OW24723   7.244   7.149   6.965  0.3055 -0.2988 -0.6668
 7044SOL    HW124724   7.153   7.130   6.989 -0.2993 -0.7982 -3.0568
 7044SOL    HW224725   7.259   7.238   6.996 -1.1058 -0.0950 -0.5241
 7045SOL     OW24726   2.947   7.476   0.178 -0.0990  0.3039 -0.2986
 7045SOL    HW124727   2.993   7.553   0.142 -1.8179  0.5998 -2.0635
 7045SOL    HW224728   3.011   7.405   0.173 -0.0682  0.3935 -3.8745
 7046SOL     OW24729   1.998   7.897   0.758  0.4605 -0.5255  0.1925
 7046SOL    HW124730   1.960   7.985   0.756 -0.5357 -0.9404 -0.6995
 7046SOL    HW224731   2.014   7.876   0.665  1.1780 -1.0788  0.4313
 7047SOL     OW24732   2.696  10.374   3.345  0.7585  0.0723  0.0100
 7047SOL    HW124733   2.764  10.379   3.412  0.6684  0.1770  0.0950
 7047SOL    HW224734   2.635  10.308   3.377 -1.4145  2.7890  2.0429
 7048SOL     OW24735   6.280   7.235   9.666  0.0093  0.2756 -0.6746
 7048SOL    HW124736   6.230   7.316   9.658  0.7687  0.7148 -1.1013
 7048SOL    HW224737   6.371   7.264   9.679  0.4057 -0.5114 -1.6097
 7049SOL     OW24738   3.900   4.955  10.338 -0.2378  0.5830 -0.0611
 7049SOL    HW124739   3.860   4.895  10.275  0.3956  0.8782 -0.7592
 7049SOL    HW224740   3.831   4.972  10.402 -0.4698 -0.7806  0.0780
 7050SOL     OW24741  10.082  10.158   8.885 -0.4371  0.3338 -0.3092
 7050SOL    HW124742  10.070  10.249   8.910 -2.1135  0.5753 -1.7939
 7050SOL    HW224743  10.104  10.160   8.792 -1.3348 -0.7741 -0.5760
 7051SOL     OW24744   7.420   1.946   0.240 -0.3679 -0.1395  0.1884
 7051SOL    HW124745   7.483   1.903   0.298 -2.2512 -2.0798  0.9361
 7051SOL    HW224746   7.366   1.875   0.206 -0.9910  1.2528 -1.9096
 7052SOL     OW24747   3.862   0.108  10.649 -0.1149  0.2046 -0.4648
 7052SOL    HW124748   3.831   0.198  10.656 -0.3727  0.0262  1.0532
 7052SOL    HW224749   3.932   0.102  10.715 -0.5790 -0.8852 -0.0530
 7053SOL     OW24750   0.116   1.198   1.444  0.7741 -0.8168  0.2313
 7053SOL    HW124751   0.194   1.177   1.496  1.0069  0.8741  0.6068
 7053SOL    HW224752   0.044   1.199   1.507  0.9619  0.6535  0.4413
 7054SOL     OW24753   6.337  10.223   8.792  0.4483  0.3985  0.1784
 7054SOL    HW124754   6.363  10.313   8.770  0.6214  0.1349 -0.7023
 7054SOL    HW224755   6.245  10.231   8.817  0.1620  0.6717 -0.9151
 7055SOL     OW24756   3.279   8.419   4.169 -0.1555  0.1783  0.2659
 7055SOL    HW124757   3.184   8.420   4.182 -0.3215 -2.7962  0.1792
 7055SOL    HW224758   3.290   8.388   4.079  0.9188  0.9598  0.1155
 7056SOL     OW24759   5.229   1.454   3.440 -0.5197 -0.2051 -0.3114
 7056SOL    HW124760   5.159   1.517   3.457 -0.3078 -0.1413  0.3332
 7056SOL    HW224761   5.190   1.393   3.377 -0.5757  0.8128 -1.2926
 7057SOL     OW24762   8.748   3.250  10.635 -0.0805 -0.0651 -0.1490
 7057SOL    HW124763   8.807   3.190  10.681  0.2852  0.0950 -0.4040
 7057SOL    HW224764   8.788   3.336  10.646 -0.3242  0.0609 -0.2383
 7058SOL     OW24765   1.723  10.641   4.530 -0.4359  0.0603 -0.0428
 7058SOL    HW124766   1.632  10.632   4.499 -0.2420 -2.2077 -0.1579
 7058SOL    HW224767   1.775  10.602   4.460  0.4672 -0.3417  0.8389
 7059SOL     OW24768   6.866   8.717   0.132 -0.0987 -0.0076 -0.1001
 7059SOL    HW124769   6.890   8.627   0.153 -1.2415 -0.3295 -0.1622
 7059SOL    HW224770   6.858   8.719   0.037  0.2011  0.2433 -0.1248
 7060SOL     OW24771   8.833   8.088   9.540 -0.3040 -0.1757 -0.2297
 7060SOL    HW124772   8.772   8.015   9.529 -1.1987  0.6528 -0.9150
 7060SOL    HW224773   8.866   8.079   9.629 -0.4718 -1.3500 -0.2674
 7061SOL     OW24774   8.888   7.189   3.631  0.2277 -0.3535 -0.4580
 7061SOL    HW124775   8.903   7.183   3.725  1.8129  0.8147 -0.6041
 7061SOL    HW224776   8.891   7.098   3.600  3.5587 -0.5697  0.1108
 7062SOL     OW24777   0.389   6.788   2.366 -0.2593 -0.2132 -0.2338
 7062SOL    HW124778   0.299   6.785   2.397 -0.3381 -0.0811 -0.4479
 7062SOL    HW224779   0.394   6.868   2.314 -0.7705 -1.5556 -2.5179
 7063SOL     OW24780   0.777   7.753   8.867 -0.3033  0.0624 -1.1486
 7063SOL    HW124781   0.740   7.821   8.811 -2.1703 -0.2425 -0.3428
 7063SOL    HW224782   0.702   7.714   8.911  0.8033 -1.9113 -0.8871
 7064SOL     OW24783   7.333   9.291   7.742 -0.1928  0.2571 -0.3974
 7064SOL    HW124784   7.307   9.216   7.795  1.0470 -0.0623 -0.2050
 7064SOL    HW224785   7.251   9.336   7.722 -0.7362  0.2294  1.5383
 7065SOL     OW24786   7.489  10.286   4.598 -0.5967  0.1995  0.3768
 7065SOL    HW124787   7.552  10.221   4.568 -1.6639 -0.5742 -0.2879
 7065SOL    HW224788   7.410  10.235   4.618 -1.3255  1.2350  0.2377
 7066SOL     OW24789   2.291   4.639   5.548 -0.6056 -0.5911  1.0710
 7066SOL    HW124790   2.253   4.660   5.463  1.3679 -0.1214  0.2425
 7066SOL    HW224791   2.235   4.684   5.611 -0.3400  1.6861 -0.2049
 7067SOL     OW24792   6.109   3.897  10.329  0.5786  0.0984  0.3301
 7067SOL    HW124793   6.176   3.843  10.371  1.4741  0.6186 -0.3989
 7067SOL    HW224794   6.158   3.964  10.282 -0.3218 -0.7576 -2.0216
 7068SOL     OW24795   9.806   6.012   5.756  0.6649 -0.0313  0.3215
 7068SOL    HW124796   9.742   5.975   5.696  1.1988  2.4734 -1.9755
 7068SOL    HW224797   9.882   5.954   5.750  0.1761 -0.6148 -0.2796
 7069SOL     OW24798   5.574   2.720   7.926 -0.4521  0.0543  0.2049
 7069SOL    HW124799   5.599   2.810   7.948 -0.2369  0.2108 -0.6143
 7069SOL    HW224800   5.644   2.690   7.867  0.0308 -1.0315  1.3103
 7070SOL     OW24801  10.442  10.332   8.729 -0.2367 -0.2575 -0.5328
 7070SOL    HW124802  10.458  10.423   8.755 -1.5751 -0.5189  1.4442
 7070SOL    HW224803  10.497  10.319   8.652  1.3889  1.6647  0.2155
 7071SOL     OW24804   9.802   1.132   0.325 -0.1988  0.2226 -0.1346
 7071SOL    HW124805   9.799   1.038   0.344 -0.4486  0.4509  1.0633
 7071SOL    HW224806   9.892   1.158   0.344 -0.2282  0.2898 -0.0843
 7072SOL     OW24807   0.279   4.370   7.864  1.3378 -0.3604 -0.9481
 7072SOL    HW124808   0.216   4.415   7.808  0.2476 -0.8835 -0.1618
 7072SOL    HW224809   0.302   4.434   7.931  0.2516 -0.7305 -0.1882
 7073SOL     OW24810   0.166   4.749   8.610 -0.0528  0.3300  0.3346
 7073SOL    HW124811   0.222   4.695   8.666  0.6474  3.4125  2.8973
 7073SOL    HW224812   0.079   4.740   8.648 -0.5892 -1.2513 -1.1357
 7074SOL     OW24813   3.783  10.101   0.875  0.5497  0.2041  0.2011
 7074SOL    HW124814   3.815  10.149   0.799  2.0528 -0.0051  0.6520
 7074SOL    HW224815   3.766  10.168   0.940  1.2489  0.2625  0.3410
 7075SOL     OW24816   5.545  10.457   4.428 -0.2752 -0.0352  0.2545
 7075SOL    HW124817   5.620  10.441   4.370 -0.0672 -0.2346  0.5753
 7075SOL    HW224818   5.584  10.489   4.509 -0.6699  2.0736 -0.3269
 7076SOL     OW24819  10.601   0.288   7.498 -0.4004 -0.0942 -0.1330
 7076SOL    HW124820  10.590   0.218   7.433  0.5926 -0.8138  0.4474
 7076SOL    HW224821  10.683   0.330   7.473 -0.5820  0.3394  0.0042
 7077SOL     OW24822   7.766   1.470   5.431  0.5118 -0.2600 -0.5978
 7077SOL    HW124823   7.719   1.450   5.350 -0.7727 -0.0403  0.0695
 7077SOL    HW224824   7.747   1.396   5.489  0.7686 -0.0438 -0.2285
 7078SOL     OW24825   1.562   4.656   0.500  0.0493  0.0950 -0.6397
 7078SOL    HW124826   1.622   4.612   0.440 -0.7264 -0.8030 -0.7757
 7078SOL    HW224827   1.588   4.749   0.497  1.7537 -0.3386 -0.3019
 7079SOL     OW24828   5.819   3.167   2.363  0.1647  0.4091  0.4969
 7079SOL    HW124829   5.797   3.215   2.443 -0.8131 -0.9270  1.0789
 7079SOL    HW224830   5.745   3.182   2.304 -0.2167 -0.4453  0.7346
 7080SOL     OW24831   6.719   6.071   9.357  0.4082 -0.5341 -0.1609
 7080SOL    HW124832   6.649   6.124   9.321 -0.1337 -1.2355 -0.1710
 7080SOL    HW224833   6.781   6.134   9.395 -0.1990  0.0929 -0.2022
 7081SOL     OW24834   7.138   2.506  10.352  0.1660 -1.0693 -0.0642
 7081SOL    HW124835   7.176   2.556  10.279 -0.0933  0.7412  0.9772
 7081SOL    HW224836   7.214   2.473  10.400  0.3749 -0.3421  0.1090
 7082SOL     OW24837   7.836   9.280   0.276  0.1498  0.5823  0.0117
 7082SOL    HW124838   7.752   9.325   0.286 -0.3855  0.3325 -2.5265
 7082SOL    HW224839   7.901   9.343   0.306 -0.8715  0.9190  1.7054
 7083SOL     OW24840  10.951   6.647   3.955  0.6039 -0.2699  0.2842
 7083SOL    HW124841  10.862   6.612   3.958  0.2937  0.4817 -0.1062
 7083SOL    HW224842  10.940   6.741   3.946  1.4376  0.0261  2.0848
 7084SOL     OW24843   9.617   4.033   1.213  0.4408  0.3048  0.2408
 7084SOL    HW124844   9.666   4.056   1.292  0.6644 -2.2467  0.9417
 7084SOL    HW224845   9.541   3.983   1.246  0.0539 -0.0227 -1.1002
 7085SOL     OW24846   3.662   8.168  10.646 -0.1592 -0.9183  0.2330
 7085SOL    HW124847   3.719   8.120  10.706 -0.3869  1.7167  2.8094
 7085SOL    HW224848   3.721   8.221  10.593 -0.0655 -0.9949  0.2620
 7086SOL     OW24849   5.039   0.247   7.892  0.3225 -0.2339  0.0261
 7086SOL    HW124850   4.991   0.240   7.974  1.9280  0.5025  1.0887
 7086SOL    HW224851   5.074   0.337   7.893  0.4875 -0.2610 -1.4033
 7087SOL     OW24852   2.230   4.795   6.437 -0.1291 -0.0759 -0.9622
 7087SOL    HW124853   2.210   4.797   6.531  2.4862 -1.2635 -0.3107
 7087SOL    HW224854   2.242   4.703   6.417 -0.1647  0.2071 -2.3789
 7088SOL     OW24855   9.504   7.023   0.595 -0.5337  0.5456  0.0790
 7088SOL    HW124856   9.549   7.099   0.632  0.6134 -0.2060  0.2937
 7088SOL    HW224857   9.500   7.041   0.501  0.8057  0.3734 -0.0383
 7089SOL     OW24858   2.117   7.169   9.499  0.0165 -1.0496 -0.0245
 7089SOL    HW124859   2.103   7.093   9.556 -3.5485 -1.1439 -0.8035
 7089SOL    HW224860   2.136   7.131   9.413  1.0367 -0.9757  0.1580
 7090SOL     OW24861   1.428   4.518   3.868  0.6108 -0.0312 -0.2037
 7090SOL    HW124862   1.347   4.469   3.854 -0.8556  2.3904 -0.7193
 7090SOL    HW224863   1.416   4.559   3.954  2.3561 -1.4684  0.7956
 7091SOL     OW24864   2.344   2.943   0.404 -0.1821 -0.1881  0.0651
 7091SOL    HW124865   2.312   2.885   0.472 -0.6593  2.1174  1.9603
 7091SOL    HW224866   2.273   3.006   0.391  1.4202  1.7837  0.3720
 7092SOL     OW24867  10.461   5.871   0.430  0.0083 -0.0052  0.3181
 7092SOL    HW124868  10.495   5.928   0.500  1.0624  0.1981 -0.3328
 7092SOL    HW224869  10.487   5.915   0.349  0.8292 -1.3914 -0.2096
 7093SOL     OW24870   5.839   3.631  10.272  0.2082 -0.0376 -0.0200
 7093SOL    HW124871   5.867   3.541  10.257  1.4116  0.1346  0.9909
 7093SOL    HW224872   5.744   3.629  10.257  0.2903 -1.3428 -0.5393
 7094SOL     OW24873   9.456   7.694   5.786  0.4964 -0.3374  0.1451
 7094SOL    HW124874   9.388   7.714   5.850  0.0053  0.1466 -0.5055
 7094SOL    HW224875   9.518   7.639   5.833  1.1382  1.5130  1.5967
 7095SOL     OW24876   4.612   4.076   3.073 -0.3811 -0.1563  0.1347
 7095SOL    HW124877   4.631   3.989   3.106  1.2308 -0.2134 -0.8454
 7095SOL    HW224878   4.516   4.082   3.073 -0.4797 -1.4530  1.3476
 7096SOL     OW24879   6.056   3.516   3.102  0.0296 -0.1769  0.0497
 7096SOL    HW124880   6.034   3.535   3.193 -0.3408  2.5101 -0.4956
 7096SOL    HW224881   5.982   3.465   3.069 -1.0917  1.0028  0.6331
 7097SOL     OW24882  10.256   8.807   9.241 -0.0303  0.4770 -0.2447
 7097SOL    HW124883  10.253   8.833   9.149  0.4672 -0.7400 -0.6213
 7097SOL    HW224884  10.164   8.802   9.267 -0.3277 -1.6717 -1.4430
 7098SOL     OW24885   7.363   5.585   6.085  0.3688  0.3131  0.5334
 7098SOL    HW124886   7.367   5.679   6.098 -0.2268  0.4739 -0.4095
 7098SOL    HW224887   7.277   5.560   6.119 -0.0015  0.3091 -0.3764
 7099SOL     OW24888   9.382   2.794   9.098  0.1814 -0.1691 -0.3580
 7099SOL    HW124889   9.296   2.777   9.136 -0.0559 -0.1566 -0.8837
 7099SOL    HW224890   9.417   2.866   9.150 -0.0697 -0.2637 -0.0547
 7100SOL     OW24891   4.446   5.641   1.770  0.1947  0.5574 -0.7216
 7100SOL    HW124892   4.490   5.726   1.763  0.7089  0.2548 -1.3443
 7100SOL    HW224893   4.395   5.633   1.690  0.8983 -0.1195 -1.1207
 7101SOL     OW24894   6.479   4.265   8.263 -0.0192 -0.5770  0.3763
 7101SOL    HW124895   6.567   4.230   8.270  0.4471  0.4128 -0.2355
 7101SOL    HW224896   6.423   4.189   8.250  1.1616 -1.0381 -2.7831
 7102SOL     OW24897   6.808  10.635   5.630 -0.7325 -0.0890 -0.1910
 7102SOL    HW124898   6.751  10.594   5.565 -1.4781 -0.7525  0.8540
 7102SOL    HW224899   6.747  10.675   5.693 -0.0210  0.7193 -0.0003
 7103SOL     OW24900   1.664   2.286   9.966 -0.4568 -0.1990 -0.0612
 7103SOL    HW124901   1.679   2.238  10.047 -2.0241 -0.5823  0.0292
 7103SOL    HW224902   1.589   2.243   9.926  0.5349 -0.2908 -1.9583
 7104SOL     OW24903   3.822  10.200   6.253 -0.0999  0.0975 -0.0019
 7104SOL    HW124904   3.844  10.108   6.234 -0.4251  0.1202 -0.5016
 7104SOL    HW224905   3.795  10.199   6.344  2.4265  0.1478  0.8422
 7105SOL     OW24906   4.947   6.680   0.566 -0.5439  0.1014 -0.4190
 7105SOL    HW124907   4.923   6.594   0.599  0.4108  0.1955  0.6090
 7105SOL    HW224908   4.999   6.662   0.488 -1.5524 -0.1908 -1.0316
 7106SOL     OW24909   2.591   4.760   6.644  0.3362 -0.4598  0.1133
 7106SOL    HW124910   2.562   4.686   6.592 -1.2148 -0.6424  1.1834
 7106SOL    HW224911   2.550   4.836   6.603  0.3980 -0.4160  0.1324
 7107SOL     OW24912   4.313   6.018   2.059 -0.2209 -0.2889  0.0986
 7107SOL    HW124913   4.359   6.099   2.038 -1.1316  0.0341 -0.6734
 7107SOL    HW224914   4.272   6.034   2.144  0.8594 -0.5013  0.6899
 7108SOL     OW24915   6.760   3.433  10.113 -0.0344 -0.5964  0.0809
 7108SOL    HW124916   6.807   3.483  10.046  0.2600 -0.6499  0.2440
 7108SOL    HW224917   6.823   3.425  10.185 -0.7535  0.5362  0.8689
 7109SOL     OW24918   6.505  10.399   8.124  0.2928 -0.0037 -0.1200
 7109SOL    HW124919   6.434  10.457   8.151 -0.4034 -0.4971 -0.8250
 7109SOL    HW224920   6.529  10.430   8.037  2.0119  1.1215  0.7067
 7110SOL     OW24921   2.794   4.353   1.520  0.2936  0.1121  0.0383
 7110SOL    HW124922   2.708   4.331   1.554 -0.3784  0.9971 -1.0015
 7110SOL    HW224923   2.818   4.434   1.565  1.5430 -1.1684  1.8409
 7111SOL     OW24924   0.773   0.059  10.051 -0.3086  0.3210 -0.5207
 7111SOL    HW124925   0.824   0.018   9.981 -0.0286  0.4088 -0.3714
 7111SOL    HW224926   0.824   0.042  10.130 -0.1852  0.9726 -0.4568
 7112SOL     OW24927   8.683   2.294   9.283 -0.0953  0.0700  0.8222
 7112SOL    HW124928   8.655   2.385   9.280 -0.6151 -0.1125 -0.9694
 7112SOL    HW224929   8.616   2.250   9.336 -0.7825  0.4317  0.2680
 7113SOL     OW24930   6.779   4.800   6.840 -0.1266 -0.2426 -0.0348
 7113SOL    HW124931   6.821   4.837   6.762 -0.1976  0.6145  0.3315
 7113SOL    HW224932   6.851   4.761   6.890  0.2614  1.2116  0.5872
 7114SOL     OW24933   2.922   1.904   2.357 -0.4674 -0.0161  0.0060
 7114SOL    HW124934   2.832   1.920   2.385 -0.0048 -0.5710  2.0172
 7114SOL    HW224935   2.931   1.809   2.359  0.8579  0.0692  2.5224
 7115SOL     OW24936  10.748   4.297   5.074  0.1863 -0.4743 -0.5858
 7115SOL    HW124937  10.796   4.371   5.110  2.0607 -0.2789 -3.1638
 7115SOL    HW224938  10.797   4.220   5.103 -1.5255 -0.7769  1.7517
 7116SOL     OW24939   0.440   4.544   1.470 -0.0938 -0.3341  0.0407
 7116SOL    HW124940   0.396   4.477   1.523  2.3772 -1.7239  0.5075
 7116SOL    HW224941   0.483   4.494   1.400  1.6693  0.7859  0.2781
 7117SOL     OW24942  10.204   8.883   6.833 -0.2054 -0.4282 -0.7577
 7117SOL    HW124943  10.192   8.973   6.863 -1.5104 -0.5992 -0.6717
 7117SOL    HW224944  10.183   8.829   6.910  1.5177 -0.8164 -0.5170
 7118SOL     OW24945   8.921   9.443   3.984  0.1429 -0.4848 -0.8898
 7118SOL    HW124946   8.928   9.391   3.904 -3.0706 -3.1967  0.3621
 7118SOL    HW224947   8.991   9.412   4.040 -0.4864 -2.0947 -0.9402
 7119SOL     OW24948   6.516   9.029  10.365  0.2553 -0.5357  0.0588
 7119SOL    HW124949   6.422   9.025  10.346 -0.0460  0.9726  1.0321
 7119SOL    HW224950   6.553   9.079  10.292  0.0482  0.1636  0.4242
 7120SOL     OW24951   7.383   5.850   0.879  0.1686 -0.3063  0.0874
 7120SOL    HW124952   7.469   5.827   0.844 -0.3971 -1.6438 -0.4842
 7120SOL    HW224953   7.321   5.800   0.827 -1.1080  1.7216 -0.4869
 7121SOL     OW24954   1.014   7.830   6.478 -0.0004 -0.0472 -0.1688
 7121SOL    HW124955   1.097   7.783   6.486  1.0133  1.8173  0.8071
 7121SOL    HW224956   1.020   7.902   6.541 -2.3534  0.1794 -0.0888
 7122SOL     OW24957   3.128   6.969   3.393 -0.0977  0.5183  0.4674
 7122SOL    HW124958   3.090   6.883   3.408 -0.0302  0.5286  0.7057
 7122SOL    HW224959   3.207   6.970   3.447  0.6097  0.2477 -0.5432
 7123SOL     OW24960   5.000   4.265   3.679  0.0643 -0.1065  0.1125
 7123SOL    HW124961   5.060   4.300   3.612 -1.1204  0.6179 -0.6149
 7123SOL    HW224962   4.950   4.342   3.708  0.2760 -0.4891  1.5594
 7124SOL     OW24963   2.204   0.868   0.587  0.8836  0.3157 -0.1516
 7124SOL    HW124964   2.264   0.800   0.558  0.2307  0.9173 -3.2769
 7124SOL    HW224965   2.120   0.823   0.595  0.2581  0.7483 -3.0654
 7125SOL     OW24966   4.633  10.844   7.707  0.4720 -0.0276  0.1471
 7125SOL    HW124967   4.540  10.857   7.688  0.7452  0.5823 -0.8485
 7125SOL    HW224968   4.652  10.907   7.776 -0.3011 -1.5825  1.8971
 7126SOL     OW24969  10.052   9.818   2.083 -0.1064 -0.1853  0.4784
 7126SOL    HW124970   9.967   9.840   2.045 -0.7404 -2.0368  0.6817
 7126SOL    HW224971  10.081   9.741   2.033  1.9111  0.9418 -0.1894
 7127SOL     OW24972   9.771   2.290   7.603  0.0475 -0.0113 -0.2903
 7127SOL    HW124973   9.830   2.254   7.537 -0.2413  0.6697 -0.9198
 7127SOL    HW224974   9.788   2.237   7.681  0.4298 -0.7819 -0.8863
 7128SOL     OW24975   7.348   3.924   1.172  0.5732  0.3924 -0.2874
 7128SOL    HW124976   7.301   3.878   1.242  1.2934  0.6889  0.4075
 7128SOL    HW224977   7.322   3.879   1.092  0.3249 -0.4500  0.2542
 7129SOL     OW24978   0.287   9.398   8.313  0.1420 -0.0231  0.2370
 7129SOL    HW124979   0.323   9.337   8.378  0.4903 -1.4567 -1.2538
 7129SOL    HW224980   0.195   9.376   8.308 -0.2575  1.2336  1.4311
 7130SOL     OW24981   8.727   0.731   5.452 -0.0680  0.3657 -0.4068
 7130SOL    HW124982   8.803   0.786   5.470 -0.2655  0.6762 -0.5134
 7130SOL    HW224983   8.669   0.745   5.527 -0.3433  0.6988 -0.6816
 7131SOL     OW24984   3.860   6.664   4.425  0.1126 -0.0280  0.5330
 7131SOL    HW124985   3.791   6.717   4.386  0.6387  0.5071  0.3046
 7131SOL    HW224986   3.941   6.710   4.402  0.6082 -1.1415  0.0027
 7132SOL     OW24987   0.226   1.985   9.167 -0.5877 -0.1099  0.5058
 7132SOL    HW124988   0.153   1.939   9.209 -0.4253 -0.5224  0.3377
 7132SOL    HW224989   0.292   1.917   9.153  0.1137  0.3881  1.2914
 7133SOL     OW24990   0.061   9.942   1.252 -0.0341 -0.2549 -0.4386
 7133SOL    HW124991  -0.020   9.958   1.204 -0.0266 -0.6853 -0.6041
 7133SOL    HW224992   0.034   9.885   1.325  0.4008 -1.9367 -1.5361
 7134SOL     OW24993  10.573  10.446   2.039 -0.5761 -0.1434 -0.1047
 7134SOL    HW124994  10.649  10.484   1.995 -0.2164 -0.3570  0.3273
 7134SOL    HW224995  10.564  10.358   2.001  0.6536 -0.9231  1.2749
 7135SOL     OW24996   1.703   4.139   8.834 -0.1728 -0.0181  0.2822
 7135SOL    HW124997   1.765   4.129   8.906  0.0349 -0.6950  0.0110
 7135SOL    HW224998   1.755   4.174   8.761  0.1282 -1.5554 -0.2684
 7136SOL     OW24999   5.578   7.179   7.152 -0.5302 -0.5778  0.4071
 7136SOL    HW125000   5.615   7.114   7.212  0.7000 -0.8425 -0.6144
 7136SOL    HW225001   5.528   7.127   7.089  1.5405 -0.7207 -1.2062
 7137SOL     OW25002   0.494   9.348   5.563 -0.4635  1.1257 -0.2588
 7137SOL    HW125003   0.484   9.428   5.614 -1.7013 -0.2112  1.7572
 7137SOL    HW225004   0.408   9.305   5.569  0.2476 -0.4896 -1.0127
 7138SOL     OW25005   9.785   4.608   6.548 -0.9697  0.4601 -0.3406
 7138SOL    HW125006   9.775   4.515   6.528 -0.5042 -0.5107  3.2023
 7138SOL    HW225007   9.877   4.627   6.530 -1.1299  0.3277 -1.3299
 7139SOL     OW25008   1.557   3.130   2.527 -0.2523 -0.2007  0.5467
 7139SOL    HW125009   1.564   3.226   2.530 -1.6376 -0.0577  0.0439
 7139SOL    HW225010   1.533   3.111   2.437 -1.1484 -0.9209  0.9247
 7140SOL     OW25011   1.680   9.729   7.372 -0.5230 -0.1050 -0.1319
 7140SOL    HW125012   1.741   9.656   7.362 -1.3426 -0.8342  0.1184
 7140SOL    HW225013   1.619   9.721   7.299 -0.1727  0.7870 -0.5406
 7141SOL     OW25014   7.025   7.171   3.719  0.0010  0.0664 -0.0386
 7141SOL    HW125015   6.963   7.145   3.787  1.6918 -2.9347  0.5551
 7141SOL    HW225016   7.102   7.202   3.767 -0.3511  2.1669 -0.7359
 7142SOL     OW25017   1.380   9.526   9.948 -0.0070  0.3942  0.3220
 7142SOL    HW125018   1.380   9.603   9.891  2.4348  1.8702  2.1261
 7142SOL    HW225019   1.350   9.559  10.033 -0.7149 -1.1088  0.6992
 7143SOL     OW25020   0.299   4.595   5.078  0.1620  0.5763 -0.3853
 7143SOL    HW125021   0.239   4.603   5.152  2.0829  1.0373  1.1978
 7143SOL    HW225022   0.320   4.686   5.054  0.1048  0.4236 -1.0426
 7144SOL     OW25023   1.241   2.132   7.938 -0.0968  0.6396  0.3793
 7144SOL    HW125024   1.308   2.194   7.909  0.0656  0.8947  1.2763
 7144SOL    HW225025   1.206   2.096   7.857  0.9017  0.7411 -0.1146
 7145SOL     OW25026   1.459   0.663   6.124  0.1781  0.2676  0.9954
 7145SOL    HW125027   1.520   0.648   6.052 -1.9198 -1.1780 -0.5940
 7145SOL    HW225028   1.414   0.745   6.102 -0.8113 -0.4290  0.3574
 7146SOL     OW25029   5.033   3.494   9.083  0.1807  0.3121  0.2174
 7146SOL    HW125030   5.043   3.421   9.144  0.1805  0.5818  0.5380
 7146SOL    HW225031   5.054   3.572   9.134 -0.3310  0.5894  0.0163
 7147SOL     OW25032   8.837   9.897   9.277  0.2413  0.1389  0.1338
 7147SOL    HW125033   8.782   9.892   9.199  0.3198 -0.4104  0.1056
 7147SOL    HW225034   8.781   9.865   9.348  0.6325 -0.7756  0.0401
 7148SOL     OW25035   7.598   5.504   5.957  0.3460  0.1210  0.5407
 7148SOL    HW125036   7.582   5.438   5.890  0.6496 -0.2647  0.8430
 7148SOL    HW225037   7.511   5.539   5.978 -0.0025 -1.1827  1.3954
 7149SOL     OW25038   2.567   3.700   4.743  0.3588 -0.5655  0.0547
 7149SOL    HW125039   2.501   3.759   4.778  0.1981 -1.9213  2.2473
 7149SOL    HW225040   2.632   3.757   4.703 -0.8199  0.9405  0.2139
 7150SOL     OW25041   3.736   1.431   7.332 -0.5767 -0.0618  0.1405
 7150SOL    HW125042   3.678   1.404   7.404 -0.1788  0.5763  0.7091
 7150SOL    HW225043   3.812   1.469   7.376  0.5877 -1.4765 -0.5810
 7151SOL     OW25044   6.043   3.533   1.671 -0.3341 -0.4771  0.1096
 7151SOL    HW125045   5.954   3.542   1.706 -1.2165 -2.0826 -1.5618
 7151SOL    HW225046   6.068   3.622   1.648 -2.8528 -0.2376 -2.3532
 7152SOL     OW25047   8.315   2.817   9.699 -0.6920 -0.2905  0.0975
 7152SOL    HW125048   8.377   2.854   9.635  2.2177 -1.2128  2.1497
 7152SOL    HW225049   8.293   2.890   9.756 -1.8682  0.1208 -0.8377
 7153SOL     OW25050   8.609   7.623   1.271  0.2542 -0.1112  0.1327
 7153SOL    HW125051   8.544   7.556   1.251 -0.1838 -0.3730  2.1925
 7153SOL    HW225052   8.589   7.695   1.211 -0.5383 -1.0146 -0.7310
 7154SOL     OW25053  10.040   5.337   1.462  0.0490 -0.4442 -0.2680
 7154SOL    HW125054  10.135   5.325   1.472 -0.0711 -3.0268 -1.3512
 7154SOL    HW225055  10.025   5.327   1.368 -1.4513 -1.7954  0.0698
 7155SOL     OW25056   0.938   7.088   2.889  0.5471  0.4525  0.9299
 7155SOL    HW125057   0.939   6.998   2.923  0.1158 -0.2655 -0.8391
 7155SOL    HW225058   0.851   7.099   2.852  1.0085  1.1606  0.0244
 7156SOL     OW25059   1.205   9.575   2.736 -0.2824 -0.1866 -0.7999
 7156SOL    HW125060   1.269   9.645   2.725 -2.0389  1.5460 -0.5169
 7156SOL    HW225061   1.236   9.505   2.678  1.7275  0.6481 -0.8106
 7157SOL     OW25062  10.658   5.196   1.159 -0.1415  0.5557  0.3905
 7157SOL    HW125063  10.661   5.276   1.213 -0.8545  1.2154 -0.5117
 7157SOL    HW225064  10.688   5.224   1.073 -1.8171  0.2224 -0.3489
 7158SOL     OW25065   3.780   8.621   1.391  0.5040 -0.0318 -0.6006
 7158SOL    HW125066   3.742   8.535   1.377  2.6920 -1.0318 -0.7790
 7158SOL    HW225067   3.709   8.682   1.373 -2.0426 -1.7796  2.4620
 7159SOL     OW25068   0.997   3.587   0.868 -0.0398  0.4471 -0.2514
 7159SOL    HW125069   0.989   3.589   0.772 -1.5842  2.7482 -0.1499
 7159SOL    HW225070   1.063   3.653   0.888 -0.9305  1.1896  0.3199
 7160SOL     OW25071   0.914   2.428   0.937 -0.1455  0.8352  0.0424
 7160SOL    HW125072   0.972   2.397   0.867  0.6407 -1.4485  1.5872
 7160SOL    HW225073   0.971   2.436   1.014 -1.5813  0.0595  1.2391
 7161SOL     OW25074   9.343   8.730   2.663  0.4354 -0.1120 -0.2605
 7161SOL    HW125075   9.250   8.715   2.682 -0.6069  2.2163 -2.8821
 7161SOL    HW225076   9.386   8.722   2.748 -2.1756 -1.0382  1.0829
 7162SOL     OW25077   8.140  11.031   1.974  0.1185  0.0669  0.2857
 7162SOL    HW125078   8.127  11.113   1.926 -1.0373 -0.0078  0.4461
 7162SOL    HW225079   8.124  10.962   1.909  0.8131 -0.0475  0.2224
 7163SOL     OW25080   9.594   7.179   4.937 -0.3422  0.4976 -0.0434
 7163SOL    HW125081   9.667   7.117   4.936  0.5292  1.5124 -0.4938
 7163SOL    HW225082   9.573   7.190   5.030  0.1958  0.3520  0.0946
 7164SOL     OW25083   7.311   9.466   9.545  0.5887  0.3812 -0.0136
 7164SOL    HW125084   7.311   9.522   9.623 -0.6529  0.1712  0.1466
 7164SOL    HW225085   7.294   9.525   9.472 -1.6043  0.1380  0.2446
 7165SOL     OW25086   6.767   5.137   6.704  0.3673 -0.3181 -0.5886
 7165SOL    HW125087   6.737   5.123   6.793 -0.0977  2.3804 -0.2299
 7165SOL    HW225088   6.711   5.080   6.650 -2.9744  1.7048  0.4228
 7166SOL     OW25089   4.038   8.309   5.520 -0.1944  0.7351 -0.5359
 7166SOL    HW125090   4.024   8.354   5.604  0.4196 -0.0474  0.0102
 7166SOL    HW225091   4.098   8.366   5.472  2.6590 -0.6018  1.1711
 7167SOL     OW25092   9.270  10.042   5.284  0.0343  0.0196  0.1597
 7167SOL    HW125093   9.203  10.064   5.350  0.7723 -0.3468  1.0586
 7167SOL    HW225094   9.237   9.963   5.242 -0.5224  0.3463 -0.0413
 7168SOL     OW25095   8.484   1.583   7.746 -0.4650 -0.6627 -0.4232
 7168SOL    HW125096   8.528   1.666   7.730 -1.3555 -0.1624 -0.2954
 7168SOL    HW225097   8.556   1.519   7.749  0.1946  0.0297 -0.9123
 7169SOL     OW25098   8.290   2.200   3.680 -0.4787  0.0930  0.5888
 7169SOL    HW125099   8.276   2.128   3.740 -0.2702 -0.6454 -0.2229
 7169SOL    HW225100   8.237   2.178   3.603  2.3894 -1.1312 -1.2120
 7170SOL     OW25101   8.288   2.748   4.811  0.0397 -0.2070 -0.1414
 7170SOL    HW125102   8.225   2.678   4.828 -0.1474  0.1797  0.8043
 7170SOL    HW225103   8.361   2.730   4.870 -0.9896  1.6246  1.8371
 7171SOL     OW25104   7.200   3.333   7.724 -0.1326 -0.8227  0.4574
 7171SOL    HW125105   7.171   3.293   7.806  0.8757 -0.1659  1.1653
 7171SOL    HW225106   7.295   3.327   7.727 -0.0520 -0.1284 -0.3248
 7172SOL     OW25107   1.438   4.449   8.727  0.1801 -0.5477  0.2095
 7172SOL    HW125108   1.383   4.499   8.667  0.9188 -0.4484 -0.3934
 7172SOL    HW225109   1.385   4.442   8.807 -0.2965  0.4346  0.0029
 7173SOL     OW25110   0.195   4.834   9.612  0.1223  0.0554  0.0088
 7173SOL    HW125111   0.276   4.784   9.611  0.1249  0.0620 -0.1037
 7173SOL    HW225112   0.180   4.858   9.520  0.4555  0.7949  0.1397
 7174SOL     OW25113   5.996   3.471   2.617  0.1530 -0.0143 -0.2370
 7174SOL    HW125114   5.984   3.500   2.708 -1.1452 -0.3559 -0.2872
 7174SOL    HW225115   6.064   3.404   2.623 -0.0505 -0.1690  0.5178
 7175SOL     OW25116   7.612   3.070   5.134 -0.0328 -0.3694 -0.0741
 7175SOL    HW125117   7.704   3.083   5.115  0.1085 -1.2744 -0.0477
 7175SOL    HW225118   7.610   3.027   5.220 -0.2961 -3.1081 -1.3513
 7176SOL     OW25119   1.989   2.823   1.370  0.0082  0.4156 -0.1570
 7176SOL    HW125120   2.050   2.753   1.391  1.4466  1.3348 -1.1395
 7176SOL    HW225121   2.042   2.903   1.371 -0.9174  1.1195 -2.0770
 7177SOL     OW25122  10.750   3.381   0.103  0.2620  0.1544  0.0552
 7177SOL    HW125123  10.758   3.385   0.198  2.5366  3.0776 -0.1328
 7177SOL    HW225124  10.700   3.459   0.079  1.5509  0.6323 -1.2444
 7178SOL     OW25125   0.890  10.974   0.900  0.4038  0.7753  0.7594
 7178SOL    HW125126   0.892  10.931   0.985  1.0845 -1.5089 -0.3151
 7178SOL    HW225127   0.805  11.017   0.896 -0.5373 -0.8717  1.7995
 7179SOL     OW25128   9.631   5.001   9.322  0.2402 -0.0630  0.2673
 7179SOL    HW125129   9.684   4.925   9.299 -1.5774 -0.9732 -1.1445
 7179SOL    HW225130   9.678   5.076   9.284  0.5206 -0.8540 -1.0017
 7180SOL     OW25131   2.553   8.019   0.791 -0.0688  0.2558 -0.1829
 7180SOL    HW125132   2.605   8.049   0.866 -0.4713  0.7079 -0.0800
 7180SOL    HW225133   2.501   7.947   0.825 -1.2691  1.3355  0.3513
 7181SOL     OW25134   5.937  10.877   7.880  0.4509 -0.3282 -0.2567
 7181SOL    HW125135   5.858  10.841   7.839  0.0239  0.4292 -0.1121
 7181SOL    HW225136   6.007  10.860   7.816  0.2025 -1.0816 -0.3450
 7182SOL     OW25137   5.026   4.021   1.971 -0.0476 -0.4353  0.4252
 7182SOL    HW125138   4.991   4.110   1.977 -1.1722 -0.7154 -1.2061
 7182SOL    HW225139   5.050   3.999   2.061 -0.3160  1.2777  0.9666
 7183SOL     OW25140   2.144   1.147   6.629 -0.1465 -0.7201 -0.0777
 7183SOL    HW125141   2.205   1.090   6.583  0.0269  0.4192 -1.3286
 7183SOL    HW225142   2.171   1.235   6.605 -1.2106 -0.1392  0.7598
 7184SOL     OW25143   2.791   5.121   7.167 -0.4957  0.1886  0.9776
 7184SOL    HW125144   2.776   5.200   7.116 -1.1969 -1.1901 -1.0714
 7184SOL    HW225145   2.883   5.098   7.150 -0.9180 -0.6576 -0.3358
 7185SOL     OW25146   5.028   0.077   9.859 -0.3356 -0.0278  0.5973
 7185SOL    HW125147   5.109   0.129   9.856  0.9919 -1.9754  0.9040
 7185SOL    HW225148   5.031   0.023   9.780 -0.5635 -1.1894  1.3577
 7186SOL     OW25149   8.076   1.665   5.178  0.1452  0.0705 -0.4083
 7186SOL    HW125150   8.120   1.613   5.245  0.2670 -0.6156 -1.0026
 7186SOL    HW225151   7.987   1.631   5.176  0.8538 -1.8991 -2.5108
 7187SOL     OW25152   4.086   4.637   5.668  0.7266  0.7084 -0.6560
 7187SOL    HW125153   4.111   4.658   5.758 -0.8527  0.2867 -0.0832
 7187SOL    HW225154   4.045   4.551   5.673  0.4274  0.7622 -1.7496
 7188SOL     OW25155   0.097   8.038   6.531  0.2939 -0.2214  0.0759
 7188SOL    HW125156   0.023   7.984   6.502 -0.0248  0.1797  0.1358
 7188SOL    HW225157   0.057   8.109   6.580  0.7440 -0.1610  0.3614
 7189SOL     OW25158   0.711   8.188   2.418 -0.0561  0.1238 -0.0328
 7189SOL    HW125159   0.781   8.237   2.376 -0.2776 -0.2228 -0.8165
 7189SOL    HW225160   0.730   8.194   2.512  0.8278  0.3125 -0.2205
 7190SOL     OW25161   0.861   6.618   2.222 -0.0724  0.4232 -0.0989
 7190SOL    HW125162   0.803   6.678   2.177 -2.1319 -0.2554  1.4920
 7190SOL    HW225163   0.808   6.540   2.237  1.1985 -0.1829  1.5498
 7191SOL     OW25164   0.175  10.960   6.494 -0.3543 -0.3121 -0.4766
 7191SOL    HW125165   0.197  10.876   6.534 -1.5944  0.0998  1.2110
 7191SOL    HW225166   0.118  10.938   6.420 -0.1060 -0.9809 -0.4707
 7192SOL     OW25167   8.337   5.349   9.153 -0.6352 -1.1177 -0.4765
 7192SOL    HW125168   8.375   5.296   9.223 -2.6209 -0.7736  0.9492
 7192SOL    HW225169   8.382   5.433   9.160 -0.6738 -1.1546  0.2787
 7193SOL     OW25170  10.733   0.388   7.132 -0.2102  0.9380  0.3206
 7193SOL    HW125171  10.661   0.354   7.079  0.2512  1.0716 -0.4040
 7193SOL    HW225172  10.703   0.474   7.160 -1.1267  0.2149  1.6446
 7194SOL     OW25173   0.091   5.367   4.869 -0.3187 -0.3674  0.2373
 7194SOL    HW125174   0.004   5.340   4.840 -0.0333 -1.0505  0.0027
 7194SOL    HW225175   0.149   5.297   4.840  0.3914  0.3301 -0.0628
 7195SOL     OW25176   8.712   6.203   5.334  0.8169 -0.2342 -0.8393
 7195SOL    HW125177   8.635   6.146   5.325  1.0976 -0.5364 -1.4054
 7195SOL    HW225178   8.727   6.207   5.428  1.2062 -1.6818 -0.8068
 7196SOL     OW25179   7.994   8.584   1.831 -0.3610 -0.0332  0.3244
 7196SOL    HW125180   7.923   8.625   1.880 -0.4939  0.3575 -0.1868
 7196SOL    HW225181   7.951   8.541   1.758 -0.0298  0.6689 -0.2990
 7197SOL     OW25182   4.004   6.458   8.230  0.3309  0.1700  0.3174
 7197SOL    HW125183   4.074   6.463   8.295 -0.1320 -1.4155  0.9853
 7197SOL    HW225184   3.970   6.369   8.237 -1.8799  0.9234  0.1533
 7198SOL     OW25185  10.355   3.595  10.584  0.3984 -0.3367 -0.0796
 7198SOL    HW125186  10.345   3.606  10.490 -0.2268  0.9969  0.1133
 7198SOL    HW225187  10.265   3.595  10.617  0.6540  2.0643  0.7782
 7199SOL     OW25188  10.421   3.521  10.826 -0.6062 -0.0989 -0.0448
 7199SOL    HW125189  10.420   3.524  10.730  0.7964  0.8600 -0.0538
 7199SOL    HW225190  10.339   3.477  10.849 -0.0855 -2.1179 -1.7333
 7200SOL     OW25191   1.566   8.070   7.976 -0.1090  0.1342  0.4321
 7200SOL    HW125192   1.555   8.044   8.068 -0.2507 -1.9055 -0.1140
 7200SOL    HW225193   1.476   8.086   7.945 -0.1455 -0.0765  0.4231
 7201SOL     OW25194  10.005   4.742   3.809 -0.2754  0.0403 -0.4066
 7201SOL    HW125195   9.971   4.808   3.749  1.6106  2.8459  1.3478
 7201SOL    HW225196  10.094   4.725   3.779 -1.1050 -2.8134 -1.5631
 7202SOL     OW25197   8.957   7.783   0.988  0.4599 -0.0333  0.1234
 7202SOL    HW125198   8.918   7.754   1.070  0.6841  0.8886  0.5673
 7202SOL    HW225199   9.037   7.830   1.014  0.1840  0.8490 -0.5677
 7203SOL     OW25200   4.238   8.515   8.792  0.2358 -0.3549  0.7048
 7203SOL    HW125201   4.192   8.528   8.875 -0.5159  0.3817  0.1939
 7203SOL    HW225202   4.222   8.424   8.769 -0.7275 -0.1935  0.6883
 7204SOL     OW25203   2.743   7.249   6.093 -0.0630 -0.1353  0.3289
 7204SOL    HW125204   2.702   7.216   6.013 -1.2240 -0.3870  1.0079
 7204SOL    HW225205   2.710   7.193   6.162 -1.8878  2.2118  1.5053
 7205SOL     OW25206   5.638   1.225   4.490  0.8081 -0.2783  0.2995
 7205SOL    HW125207   5.605   1.179   4.567  3.3717  0.0675  1.7122
 7205SOL    HW225208   5.559   1.251   4.442 -0.9399 -0.0969  3.0451
 7206SOL     OW25209   3.576   5.689   7.744 -0.0158 -0.4422  0.3919
 7206SOL    HW125210   3.534   5.606   7.768  0.3720 -0.8080 -0.1560
 7206SOL    HW225211   3.562   5.696   7.649  1.1278 -0.5728  0.1922
 7207SOL     OW25212  11.109   3.845   0.213  0.0583  0.1421  0.5239
 7207SOL    HW125213  11.140   3.840   0.304  0.1292 -0.2275  0.4814
 7207SOL    HW225214  11.171   3.792   0.163 -0.8473 -0.9359  0.5031
 7208SOL     OW25215   7.683   0.784   4.247  0.3424  0.0468 -0.3507
 7208SOL    HW125216   7.718   0.745   4.166  0.3855  0.8483 -0.7329
 7208SOL    HW225217   7.744   0.756   4.315  0.1067 -0.9356 -0.5289
 7209SOL     OW25218  10.438   9.159   6.668  0.3362  0.1670  0.9467
 7209SOL    HW125219  10.348   9.189   6.681 -0.7063 -1.6488 -1.3943
 7209SOL    HW225220  10.435   9.108   6.588  3.3739 -0.4519  1.1156
 7210SOL     OW25221   7.865   7.242   6.897 -0.0428 -0.2832 -0.0536
 7210SOL    HW125222   7.770   7.232   6.905 -0.0398 -0.8997 -0.6779
 7210SOL    HW225223   7.900   7.157   6.926  0.4908  0.7837  2.7799
 7211SOL     OW25224   7.165   4.497   7.077  0.0484  0.3888  0.1325
 7211SOL    HW125225   7.191   4.433   7.143 -0.9880  0.4163  0.5865
 7211SOL    HW225226   7.247   4.527   7.039  0.6705  0.4516  1.4728
 7212SOL     OW25227   2.844   8.142   8.749 -0.1761  0.0063 -0.2524
 7212SOL    HW125228   2.810   8.216   8.700  2.2780  1.1015 -0.4700
 7212SOL    HW225229   2.853   8.174   8.839  1.1749  0.1063 -0.4066
 7213SOL     OW25230   3.767   7.336   2.672 -0.0025  0.1548  0.3596
 7213SOL    HW125231   3.677   7.306   2.667 -0.7351  2.3240 -0.9219
 7213SOL    HW225232   3.776   7.369   2.761  0.3341 -2.2202  1.2684
 7214SOL     OW25233   0.568   4.001   1.413 -0.3055 -0.3243  0.1481
 7214SOL    HW125234   0.653   4.014   1.456 -0.5306 -1.4638  1.0051
 7214SOL    HW225235   0.585   3.933   1.348 -0.3616  0.1132 -0.3243
 7215SOL     OW25236  10.555   9.893   0.590 -0.8511 -0.7207 -0.8284
 7215SOL    HW125237  10.539   9.803   0.619  3.4789 -1.1301  1.0730
 7215SOL    HW225238  10.569   9.886   0.496 -0.5355 -2.0777 -0.6969
 7216SOL     OW25239  10.074   0.358   1.355 -0.1398  0.4652  0.9324
 7216SOL    HW125240  10.168   0.345   1.345  0.0789  2.7487 -0.9107
 7216SOL    HW225241  10.048   0.405   1.276 -3.3753 -2.4395 -0.0119
 7217SOL     OW25242   8.919   8.405   4.719  0.1946 -0.0871 -0.3440
 7217SOL    HW125243   8.954   8.413   4.631 -0.9955  0.0476 -0.8182
 7217SOL    HW225244   8.831   8.441   4.714 -0.6082 -1.8401  0.4353
 7218SOL     OW25245   8.773   7.279   3.018  0.7510 -0.2088 -0.1839
 7218SOL    HW125246   8.680   7.258   3.027  0.6994  0.0924  0.0264
 7218SOL    HW225247   8.791   7.275   2.924 -0.1704  2.5614 -0.5832
 7219SOL     OW25248   8.423   5.718   2.296  0.3030 -0.6826  0.4588
 7219SOL    HW125249   8.517   5.714   2.313  0.2371  0.9553  1.3681
 7219SOL    HW225250   8.405   5.811   2.284 -1.1005 -1.0402 -0.3998
 7220SOL     OW25251   4.693   0.807   6.208  0.1487  0.0484  0.4758
 7220SOL    HW125252   4.782   0.832   6.232  0.2896  0.0322 -0.0264
 7220SOL    HW225253   4.661   0.757   6.284  2.1367 -3.8994 -0.9811
 7221SOL     OW25254  10.575  10.552   6.819 -0.1628 -0.1346  0.4643
 7221SOL    HW125255  10.623  10.597   6.890 -0.8754 -0.8825  1.4538
 7221SOL    HW225256  10.511  10.616   6.790  1.5702  0.9904 -1.0796
 7222SOL     OW25257   5.269   4.467   2.398  0.0242  0.1476  0.4481
 7222SOL    HW125258   5.273   4.498   2.307 -2.2451 -1.0238 -0.1187
 7222SOL    HW225259   5.344   4.407   2.405 -0.4000 -0.6142 -1.0247
 7223SOL     OW25260   2.748   5.658   0.106  0.4144  0.5107  0.1519
 7223SOL    HW125261   2.795   5.668   0.023  1.8305 -0.0330  0.8612
 7223SOL    HW225262   2.690   5.582   0.092  0.9015  0.2052 -0.2242
 7224SOL     OW25263   5.353   2.477   2.679  0.3796 -0.9330  0.8426
 7224SOL    HW125264   5.320   2.567   2.681  1.6771 -0.4399  2.6938
 7224SOL    HW225265   5.308   2.433   2.751  1.2623 -1.1799  1.2525
 7225SOL     OW25266   3.757   7.764   4.187 -0.2143  0.3205  0.3193
 7225SOL    HW125267   3.843   7.748   4.225 -0.2347 -1.5129 -0.2834
 7225SOL    HW225268   3.705   7.687   4.211 -0.8485  0.0814 -1.6029
 7226SOL     OW25269   1.068   1.705   0.004  0.0169  0.3754  0.3294
 7226SOL    HW125270   1.070   1.642   0.076  1.2064  1.3699  1.2221
 7226SOL    HW225271   1.086   1.790   0.047  0.2196  1.0591 -1.0647
 7227SOL     OW25272   4.393   1.566   4.721 -0.0794 -0.4829  0.6043
 7227SOL    HW125273   4.362   1.477   4.738 -3.0852  0.5390  1.0359
 7227SOL    HW225274   4.449   1.558   4.644  3.7567 -3.3856  3.2839
 7228SOL     OW25275   5.894   0.709  10.869 -0.9098  0.1724  0.0948
 7228SOL    HW125276   5.852   0.753  10.795  2.7340  1.8932 -1.1820
 7228SOL    HW225277   5.963   0.656  10.830 -0.4324 -0.8139  2.1319
 7229SOL     OW25278   4.901  10.124   2.799  0.1720 -0.3430 -0.1700
 7229SOL    HW125279   4.964  10.195   2.811  0.0152 -0.4144  1.2326
 7229SOL    HW225280   4.954  10.045   2.789  0.3267 -0.1730 -0.6994
 7230SOL     OW25281   5.883   4.256   1.522 -0.2127  0.4069  0.1223
 7230SOL    HW125282   5.884   4.210   1.606  2.4563  0.4933  0.2347
 7230SOL    HW225283   5.857   4.346   1.544  1.6188  0.7315  1.0955
 7231SOL     OW25284   3.244   7.416   3.967 -0.2660  0.9180  0.0227
 7231SOL    HW125285   3.330   7.426   4.007  0.6572 -0.3129 -1.5106
 7231SOL    HW225286   3.226   7.500   3.926 -0.6898  1.7974  1.9053
 7232SOL     OW25287   6.536   0.469   9.179 -0.5418  0.5886 -0.6913
 7232SOL    HW125288   6.552   0.535   9.245  0.6160 -1.2715  1.0128
 7232SOL    HW225289   6.499   0.517   9.105  0.4201  3.1222  0.3613
 7233SOL     OW25290   1.340   3.329   2.305 -0.0930 -0.0107 -0.3826
 7233SOL    HW125291   1.308   3.414   2.334 -1.6404 -0.5598 -0.3526
 7233SOL    HW225292   1.426   3.346   2.266  0.5964  1.2234  1.5650
 7234SOL     OW25293   9.584   0.826  10.387  0.1564 -0.0168 -0.3455
 7234SOL    HW125294   9.679   0.824  10.374  0.3113  2.1790  0.1223
 7234SOL    HW225295   9.570   0.773  10.466  0.9764 -0.4235 -0.4614
 7235SOL     OW25296   5.951   7.642   1.474 -0.3645  0.5712  0.1951
 7235SOL    HW125297   5.907   7.673   1.553 -0.1490 -0.2178  0.6360
 7235SOL    HW225298   5.882   7.640   1.407 -1.0226 -0.6438  0.8722
 7236SOL     OW25299   4.326  11.008   3.980 -0.9089  0.2323  0.0394
 7236SOL    HW125300   4.244  10.971   3.947 -1.4765  0.4092  1.2175
 7236SOL    HW225301   4.384  10.933   3.992 -2.1807 -0.4262  2.7924
 7237SOL     OW25302   2.045   0.229   7.878 -0.4711  0.4018  0.1107
 7237SOL    HW125303   2.016   0.319   7.864  0.4299  0.7905  0.6458
 7237SOL    HW225304   1.977   0.190   7.933 -0.7119  0.8511  0.1328
 7238SOL     OW25305  10.630   7.838   6.736  0.4983  0.2817 -0.0682
 7238SOL    HW125306  10.586   7.821   6.653 -0.3976 -0.0958  0.4648
 7238SOL    HW225307  10.623   7.755   6.784 -0.9115  1.0994  1.2213
 7239SOL     OW25308   7.926   5.542   8.439  0.4247 -0.5657 -0.6176
 7239SOL    HW125309   7.940   5.593   8.518  0.1767  1.2062 -1.6765
 7239SOL    HW225310   7.985   5.467   8.448  0.4240 -0.3877  1.2109
 7240SOL     OW25311   2.054   7.285   0.413  0.3080  0.0644  0.2887
 7240SOL    HW125312   2.107   7.267   0.335 -0.1125 -0.1090  0.0397
 7240SOL    HW225313   2.032   7.378   0.407  2.0817  0.5951  1.3270
 7241SOL     OW25314   3.143   8.044   4.411  0.0275  0.1561 -0.0509
 7241SOL    HW125315   3.135   8.074   4.320  1.0851  0.1182 -0.1662
 7241SOL    HW225316   3.202   7.968   4.406 -0.6252 -0.4080  0.5594
 7242SOL     OW25317   4.582   0.456   1.325 -0.2093  0.4694  0.3764
 7242SOL    HW125318   4.645   0.386   1.344 -0.5682  0.2971  0.9402
 7242SOL    HW225319   4.497   0.419   1.347 -0.5534  0.5908 -0.7001
 7243SOL     OW25320   4.688   7.003   6.558  0.2012 -0.3906  0.2187
 7243SOL    HW125321   4.614   7.030   6.504 -0.1965 -0.6231  0.6346
 7243SOL    HW225322   4.762   7.054   6.526  0.2579 -1.4127 -1.3588
 7244SOL     OW25323   5.005   2.028   1.042  0.0170  0.2277 -0.8009
 7244SOL    HW125324   4.927   2.044   0.989 -0.3582  1.2574  0.0379
 7244SOL    HW225325   5.024   2.112   1.083  1.9684  0.1745 -1.4872
 7245SOL     OW25326   2.774   6.162   9.660 -0.0753 -0.1766 -0.1762
 7245SOL    HW125327   2.833   6.087   9.654  1.5933  1.0341  0.2796
 7245SOL    HW225328   2.750   6.167   9.752 -2.5058 -1.7672 -0.6217
 7246SOL     OW25329   4.339   1.017   2.996 -0.5210 -0.1697  0.3465
 7246SOL    HW125330   4.250   0.987   3.019 -1.2796 -0.2531 -2.3685
 7246SOL    HW225331   4.379   0.940   2.955  0.3332  0.2626  0.3702
 7247SOL     OW25332   8.414   2.145   6.833  0.0742  0.0450 -0.0844
 7247SOL    HW125333   8.341   2.145   6.895 -0.1592 -0.6518 -0.3516
 7247SOL    HW225334   8.431   2.238   6.816  0.4204  0.2654  1.3431
 7248SOL     OW25335   0.356   4.180   9.501  0.2354 -0.4196 -0.3864
 7248SOL    HW125336   0.287   4.240   9.531 -1.2124 -2.1780 -0.0153
 7248SOL    HW225337   0.320   4.140   9.422  0.9711 -1.1383 -0.3717
 7249SOL     OW25338   8.506   6.802  10.661 -0.0833  0.2306 -0.4109
 7249SOL    HW125339   8.459   6.843  10.734  1.9256  0.7486  0.6756
 7249SOL    HW225340   8.480   6.710  10.664 -3.5266  0.9618 -1.9538
 7250SOL     OW25341   6.512   5.601   6.633  0.0192 -0.1337 -0.3586
 7250SOL    HW125342   6.584   5.573   6.690  0.4821  1.1739 -0.2655
 7250SOL    HW225343   6.554   5.622   6.549 -0.3111  0.2475 -0.4332
 7251SOL     OW25344   5.752   3.892  10.163 -0.1517 -0.4744 -0.3896
 7251SOL    HW125345   5.773   3.824  10.227  0.8644  0.9647  0.8639
 7251SOL    HW225346   5.719   3.965  10.215  2.4161  1.4279 -1.2438
 7252SOL     OW25347   8.298  10.201   4.702 -0.2467  0.0141  0.0312
 7252SOL    HW125348   8.365  10.151   4.656 -0.4405 -0.4810  0.2721
 7252SOL    HW225349   8.284  10.153   4.784 -1.5612 -0.4343 -0.4259
 7253SOL     OW25350   0.683   2.336   4.292  0.2833 -0.6495  0.2798
 7253SOL    HW125351   0.614   2.272   4.280 -1.6478  0.8288  2.6487
 7253SOL    HW225352   0.746   2.294   4.350 -0.0159 -1.0575  0.3092
 7254SOL     OW25353   3.236   8.758   7.934  0.4065  0.2611 -0.1879
 7254SOL    HW125354   3.205   8.840   7.971 -0.2461 -0.0815  0.0333
 7254SOL    HW225355   3.237   8.697   8.008 -0.3229 -0.2623 -0.5997
 7255SOL     OW25356   4.760  10.942  10.876  0.0210 -0.0622 -0.5315
 7255SOL    HW125357   4.805  10.884  10.938 -0.7009 -0.0241  0.0473
 7255SOL    HW225358   4.691  10.887  10.838 -1.2419  0.6325  0.6788
 7256SOL     OW25359   3.836   0.161  11.021 -0.2087  0.4286 -0.0092
 7256SOL    HW125360   3.804   0.074  10.996  0.8972 -0.2940  0.9792
 7256SOL    HW225361   3.902   0.182  10.955 -0.6376  0.6136 -0.3782
 7257SOL     OW25362   1.963   9.918   0.521  0.5244 -0.4665  0.5154
 7257SOL    HW125363   2.042   9.924   0.575  0.5442 -1.3413  0.6096
 7257SOL    HW225364   1.996   9.911   0.432  0.5195  0.1538  0.4643
 7258SOL     OW25365   6.381   9.890   1.527  0.4388 -0.1236 -0.4952
 7258SOL    HW125366   6.411   9.901   1.617 -1.2192  1.0939 -0.0357
 7258SOL    HW225367   6.444   9.938   1.474  1.0045 -0.2047  0.0998
 7259SOL     OW25368   1.723   5.367   6.416  0.1538 -0.0028  0.0464
 7259SOL    HW125369   1.751   5.325   6.335 -1.6094  0.9816 -1.1624
 7259SOL    HW225370   1.739   5.460   6.402 -0.1204  0.1792  0.8549
 7260SOL     OW25371  10.227   6.259   8.850 -0.8257  0.3367  0.2206
 7260SOL    HW125372  10.248   6.352   8.854  0.5153  0.1245 -0.8246
 7260SOL    HW225373  10.307   6.215   8.881 -1.7773 -0.4703  1.6527
 7261SOL     OW25374   6.394   4.808   9.290 -0.3811  0.3858 -0.1928
 7261SOL    HW125375   6.442   4.874   9.239 -0.5055 -0.0877 -0.9341
 7261SOL    HW225376   6.463   4.753   9.328 -0.3058  0.3828 -0.3320
 7262SOL     OW25377   6.915   1.979   3.616  0.5753 -0.1156 -0.0806
 7262SOL    HW125378   6.831   1.956   3.577  0.6231  1.2882 -1.0865
 7262SOL    HW225379   6.915   1.935   3.701 -1.3202  0.1165  0.0849
 7263SOL     OW25380   1.556   4.637   0.801 -0.8024  0.4636 -0.1998
 7263SOL    HW125381   1.505   4.562   0.771 -1.7652 -0.0755  2.4560
 7263SOL    HW225382   1.562   4.695   0.725 -2.7577 -0.8698 -1.4596
 7264SOL     OW25383   2.180   8.446   9.308 -0.4433  1.2392 -0.3220
 7264SOL    HW125384   2.225   8.494   9.377 -0.9590  1.0693  0.1317
 7264SOL    HW225385   2.133   8.376   9.353 -0.3302  0.7834 -0.9012
 7265SOL     OW25386   3.095   5.995   3.281 -0.5837 -0.1444  0.0973
 7265SOL    HW125387   3.070   5.963   3.194 -0.9234  1.9760 -0.6286
 7265SOL    HW225388   3.186   6.024   3.270 -1.1634  1.6984 -0.0311
 7266SOL     OW25389   6.363   9.226   9.637  0.0016  0.2880  0.3552
 7266SOL    HW125390   6.298   9.189   9.577  1.6325 -0.7505 -0.8681
 7266SOL    HW225391   6.358   9.321   9.621  0.8685  0.0144 -2.0623
 7267SOL     OW25392   9.639   3.879  10.572  0.2302  0.0776 -0.1302
 7267SOL    HW125393   9.631   3.974  10.580 -1.3584 -0.0807  0.5316
 7267SOL    HW225394   9.720   3.866  10.523  1.5134  1.6960  1.4227
 7268SOL     OW25395   5.400   2.191   8.932  0.0406  0.0912 -0.1781
 7268SOL    HW125396   5.341   2.203   8.857  0.6871  0.3944 -0.6445
 7268SOL    HW225397   5.486   2.214   8.898  0.4343 -0.3885  0.4958
 7269SOL     OW25398   7.285   3.941   4.842 -0.1932 -0.3079  0.0501
 7269SOL    HW125399   7.331   4.020   4.870 -1.0292  1.4672 -3.1280
 7269SOL    HW225400   7.206   3.940   4.897 -0.9780  2.0695 -0.8750
 7270SOL     OW25401   8.257   3.854   2.277  0.2206 -0.2180  0.5679
 7270SOL    HW125402   8.164   3.842   2.294 -0.6982 -0.1823 -3.4073
 7270SOL    HW225403   8.265   3.946   2.252  1.2949 -0.2527  0.7545
 7271SOL     OW25404   1.893   8.089   4.172 -0.2597  0.1602 -0.1742
 7271SOL    HW125405   1.961   8.047   4.119  0.4133  0.3212  0.5539
 7271SOL    HW225406   1.845   8.015   4.210  0.8935  0.0078  1.0648
 7272SOL     OW25407   0.892   2.898   4.730 -0.4991  0.5241  0.2773
 7272SOL    HW125408   0.934   2.953   4.664  4.0271  0.5611  2.7385
 7272SOL    HW225409   0.927   2.811   4.714 -1.5067 -0.0436  1.0349
 7273SOL     OW25410   4.335   6.854   2.273  0.4757  0.5320  0.1410
 7273SOL    HW125411   4.429   6.867   2.261  0.3960 -0.0576 -1.3378
 7273SOL    HW225412   4.296   6.881   2.190 -0.7292  1.2365  0.8977
 7274SOL     OW25413   8.473   9.218   7.720 -0.0318  0.3257 -0.8360
 7274SOL    HW125414   8.518   9.138   7.748  0.3235  1.0499  0.7589
 7274SOL    HW225415   8.439   9.256   7.801 -0.1871  1.7996 -1.5635
 7275SOL     OW25416   7.844   4.768   0.664  0.2958  0.2148 -0.1274
 7275SOL    HW125417   7.814   4.744   0.751  1.4319  1.5126  0.6585
 7275SOL    HW225418   7.845   4.685   0.615  2.8246 -1.2022  2.0611
 7276SOL     OW25419   6.485   9.668   2.637 -0.6102  0.5831  0.1313
 7276SOL    HW125420   6.435   9.655   2.718  0.8424  2.0186  1.3289
 7276SOL    HW225421   6.566   9.710   2.666  0.0760  0.8663 -2.0595
 7277SOL     OW25422   3.569   4.011   6.128 -0.2260 -0.0125 -0.6679
 7277SOL    HW125423   3.513   4.057   6.066  0.0654  2.5978  0.8501
 7277SOL    HW225424   3.515   3.938   6.159 -1.3105  0.1558 -2.0672
 7278SOL     OW25425   6.975   8.470   9.180 -0.2934 -0.5777  0.5854
 7278SOL    HW125426   6.933   8.420   9.110 -0.1737 -0.1497  0.2082
 7278SOL    HW225427   6.959   8.418   9.259 -0.0175 -1.3030  0.1697
 7279SOL     OW25428   5.555  10.711   5.711  0.5697 -0.1078 -0.5182
 7279SOL    HW125429   5.528  10.620   5.724 -0.2408  0.4457  2.5768
 7279SOL    HW225430   5.494  10.746   5.646 -1.1894 -0.9955  0.5809
 7280SOL     OW25431   5.883  10.382   3.376  0.9151 -0.3233  0.0636
 7280SOL    HW125432   5.819  10.385   3.447  0.6642 -1.2528 -0.1182
 7280SOL    HW225433   5.890  10.290   3.353  2.0062 -0.1893 -0.2097
 7281SOL     OW25434   6.313   9.368  10.083 -0.0424 -0.1705 -0.0244
 7281SOL    HW125435   6.241   9.358  10.021 -0.0780 -0.2099  0.0231
 7281SOL    HW225436   6.347   9.280  10.096  1.3859  0.0859 -1.6584
 7282SOL     OW25437   7.163   2.214   2.654  0.0377 -0.1920  0.1352
 7282SOL    HW125438   7.234   2.151   2.672 -0.0637 -0.6374 -0.9655
 7282SOL    HW225439   7.154   2.214   2.559 -1.6580 -0.3833  0.2616
 7283SOL     OW25440  10.021   4.703   0.154  0.3163 -0.5275  0.2635
 7283SOL    HW125441   9.930   4.715   0.180  0.2067  0.1224 -0.3928
 7283SOL    HW225442  10.032   4.608   0.150 -0.2062 -0.6164  0.7644
 7284SOL     OW25443   0.668   9.405   3.751 -0.5334  0.2588  0.4059
 7284SOL    HW125444   0.657   9.388   3.845  2.0831  0.6448  0.8492
 7284SOL    HW225445   0.699   9.322   3.715  0.9046  0.7943  0.3782
 7285SOL     OW25446   8.081   7.414   9.309 -0.1885  0.4847  0.1505
 7285SOL    HW125447   8.064   7.343   9.247  1.1304  0.2911 -0.0235
 7285SOL    HW225448   8.088   7.371   9.394  1.1801  0.3005 -0.0332
 7286SOL     OW25449   0.449   7.242   7.275  0.5576 -0.1328 -0.3727
 7286SOL    HW125450   0.455   7.236   7.371  0.0320  0.0754 -0.3295
 7286SOL    HW225451   0.359   7.216   7.255  0.3004  1.0045 -0.7188
 7287SOL     OW25452   2.764   2.237   3.383  0.2803 -0.1981 -0.1292
 7287SOL    HW125453   2.784   2.206   3.472 -0.8282  0.9427  0.5442
 7287SOL    HW225454   2.736   2.158   3.337  0.9986 -0.8324  0.4761
 7288SOL     OW25455   1.978   8.866   8.668  0.1994  0.1382  0.2404
 7288SOL    HW125456   1.974   8.936   8.602 -0.6663  1.6713  1.8079
 7288SOL    HW225457   2.045   8.806   8.636 -0.2464  0.7540 -2.0601
 7289SOL     OW25458   3.953   6.622   2.114  0.0493  0.2080  0.1745
 7289SOL    HW125459   3.864   6.609   2.146  0.4313 -0.0220  1.1941
 7289SOL    HW225460   3.973   6.714   2.133  0.6111 -0.1636  1.5416
 7290SOL     OW25461   3.929   5.370   1.887 -0.4858 -0.4898 -0.7808
 7290SOL    HW125462   3.942   5.454   1.843  2.0537 -0.6714 -0.5315
 7290SOL    HW225463   4.003   5.316   1.859 -1.4221 -2.2515 -0.0136
 7291SOL     OW25464   7.400   8.833   1.395  0.1292 -0.2462 -0.0335
 7291SOL    HW125465   7.344   8.882   1.336 -0.7833  0.1618  1.1426
 7291SOL    HW225466   7.350   8.754   1.417  0.8138 -0.8137 -0.4457
 7292SOL     OW25467   6.403  10.003   6.214  0.1819  0.2226 -0.0662
 7292SOL    HW125468   6.398  10.024   6.307 -1.3877 -1.1695  0.2161
 7292SOL    HW225469   6.492   9.969   6.201 -0.2118 -1.5177  1.4180
 7293SOL     OW25470   6.506   6.536   9.943  0.1114  0.0614  0.4032
 7293SOL    HW125471   6.430   6.498   9.988  0.1612 -1.2074 -0.5272
 7293SOL    HW225472   6.491   6.630   9.948 -2.5400 -0.1589 -1.3829
 7294SOL     OW25473   0.083   6.242   6.042 -0.1994 -0.3254 -0.2234
 7294SOL    HW125474   0.035   6.161   6.054  0.6290 -0.8270 -0.1837
 7294SOL    HW225475   0.174   6.214   6.028 -0.1712  0.4977 -1.9720
 7295SOL     OW25476   0.871   1.412   8.158 -0.1248  0.0532  0.1761
 7295SOL    HW125477   0.793   1.435   8.107  0.8695 -1.7179 -2.3674
 7295SOL    HW225478   0.837   1.360   8.231 -1.3594 -0.8766 -1.0124
 7296SOL     OW25479   3.256   3.820   0.402  0.2157 -0.0594 -0.1121
 7296SOL    HW125480   3.308   3.763   0.345 -0.1817 -1.6198  1.0285
 7296SOL    HW225481   3.295   3.809   0.489 -1.4715 -0.5948  0.6081
 7297SOL     OW25482   2.444   5.964   8.834 -0.1871 -0.0314 -0.1082
 7297SOL    HW125483   2.410   6.053   8.824  0.9166  0.4465  0.1260
 7297SOL    HW225484   2.444   5.949   8.929 -1.5079 -0.7696 -0.2043
 7298SOL     OW25485   1.884   5.825   4.089 -0.2250  0.0798 -0.1726
 7298SOL    HW125486   1.906   5.732   4.084 -0.2547 -0.1174  2.2933
 7298SOL    HW225487   1.942   5.860   4.156  0.1729  2.0092 -1.4399
 7299SOL     OW25488   0.624   9.427   1.458 -0.2884 -0.3710  0.2554
 7299SOL    HW125489   0.668   9.512   1.464 -2.4180  1.0351 -2.1055
 7299SOL    HW225490   0.695   9.364   1.450  1.3508  1.2403  1.3836
 7300SOL     OW25491  10.362   7.550   6.426 -0.5574 -0.4588 -0.2529
 7300SOL    HW125492  10.365   7.455   6.434  0.7551 -0.3012  1.8469
 7300SOL    HW225493  10.289   7.577   6.481 -0.6366 -0.2385 -0.4657
 7301SOL     OW25494   8.951   5.137   0.215 -0.3464  0.4286 -0.7386
 7301SOL    HW125495   8.905   5.134   0.299  1.4674  1.8069  0.3449
 7301SOL    HW225496   8.880   5.146   0.151 -1.7257  0.3059  0.6814
 7302SOL     OW25497   3.888  11.086   5.732  0.0299  0.1591  0.2973
 7302SOL    HW125498   3.873  11.003   5.777  0.8691 -0.4113 -0.4561
 7302SOL    HW225499   3.939  11.138   5.795 -0.0525 -0.0889  0.5712
 7303SOL     OW25500  10.742   3.517   0.627 -0.1473  0.0730  0.0767
 7303SOL    HW125501  10.714   3.601   0.590 -0.8495 -0.4115 -0.5210
 7303SOL    HW225502  10.836   3.528   0.642  0.3024  0.1318 -2.3478
 7304SOL     OW25503   2.875   6.692   9.211 -0.6438  0.2634  0.3699
 7304SOL    HW125504   2.897   6.602   9.235 -0.1060  0.4571  0.6366
 7304SOL    HW225505   2.947   6.719   9.153 -1.9729 -0.2290 -1.6006
 7305SOL     OW25506   2.303   9.242   4.109 -0.3125 -0.1729  0.5605
 7305SOL    HW125507   2.282   9.165   4.056 -2.0100 -0.7958  2.0315
 7305SOL    HW225508   2.218   9.279   4.133  0.4653  1.6495  0.6466
 7306SOL     OW25509   2.076   0.808  10.815 -0.1864  0.0755  0.1722
 7306SOL    HW125510   2.130   0.868  10.868  2.4420  0.3280 -2.5278
 7306SOL    HW225511   2.129   0.729  10.806 -0.7120 -0.1111 -1.6861
 7307SOL     OW25512   2.736   5.129   9.776  0.1702  0.5147 -0.5477
 7307SOL    HW125513   2.798   5.201   9.760  0.9332  0.0925  0.3663
 7307SOL    HW225514   2.775   5.081   9.849  0.4006 -1.6484 -2.0054
 7308SOL     OW25515   5.555   7.943   0.742  0.4060 -0.1205  0.1819
 7308SOL    HW125516   5.641   7.918   0.777  0.3723 -0.1188  0.2670
 7308SOL    HW225517   5.540   7.881   0.671  1.3744  1.1424 -1.1780
 7309SOL     OW25518   8.794   1.173  10.099  0.3711  0.0011 -0.0721
 7309SOL    HW125519   8.754   1.091  10.129 -1.8738  1.1782  0.3711
 7309SOL    HW225520   8.777   1.235  10.170 -0.1057  1.4525 -1.4117
 7310SOL     OW25521   5.156   9.313  11.084 -0.3152  0.2131 -0.2009
 7310SOL    HW125522   5.145   9.340  11.175 -1.8044  1.6986 -0.7828
 7310SOL    HW225523   5.250   9.315  11.070 -0.0613  0.0337  1.2750
 7311SOL     OW25524   0.483   8.610   0.127  0.2666  0.3504 -0.5604
 7311SOL    HW125525   0.444   8.548   0.065 -2.2078  1.2086  0.0430
 7311SOL    HW225526   0.411   8.638   0.182  1.8460  1.7850  0.9039
 7312SOL     OW25527  10.540  10.915   9.490 -0.0533  0.4454  0.5825
 7312SOL    HW125528  10.538  10.899   9.396 -0.6592  1.3652  0.4234
 7312SOL    HW225529  10.633  10.915   9.513  0.0599 -1.3061  0.2773
 7313SOL     OW25530  10.547   4.724  10.207  0.1524  0.1062  0.3084
 7313SOL    HW125531  10.480   4.705  10.141 -1.4006  0.4550  1.7146
 7313SOL    HW225532  10.619   4.762  10.157 -1.0551  0.5716 -1.1762
 7314SOL     OW25533   0.335   6.341   0.218 -0.4109 -0.0667  0.2925
 7314SOL    HW125534   0.260   6.344   0.158 -1.3017  0.0655  1.3708
 7314SOL    HW225535   0.410   6.366   0.165 -1.0088 -0.9379 -1.0038
 7315SOL     OW25536  10.536   0.346   6.219  0.1862  0.3525  0.1343
 7315SOL    HW125537  10.586   0.428   6.212 -1.2472  1.2767  0.1598
 7315SOL    HW225538  10.586   0.283   6.168  2.7732  0.4770  2.2492
 7316SOL     OW25539   4.063   1.566   2.824  0.0356  0.0202  0.1283
 7316SOL    HW125540   4.002   1.613   2.768 -3.3467  0.1659  3.4958
 7316SOL    HW225541   4.012   1.494   2.860  3.1415 -2.3752  0.1345
 7317SOL     OW25542  10.971   7.545   9.047  0.1891  0.1451  0.2522
 7317SOL    HW125543  11.034   7.581   8.985 -0.1026  0.1698 -0.0317
 7317SOL    HW225544  10.941   7.464   9.005  1.6072 -0.9941  1.3433
 7318SOL     OW25545   9.791   8.860   0.921 -0.1300 -0.2643 -0.2365
 7318SOL    HW125546   9.848   8.848   0.845  1.8680 -0.1669  1.1714
 7318SOL    HW225547   9.732   8.932   0.896 -0.6381 -1.3202 -2.2639
 7319SOL     OW25548   5.057   5.861   4.831  0.4557  0.1938  0.6082
 7319SOL    HW125549   5.034   5.855   4.924  0.3191 -1.1078  0.5067
 7319SOL    HW225550   5.140   5.816   4.824  1.1632  1.4893  0.3038
 7320SOL     OW25551   4.017  10.985   4.399 -0.3356 -0.4826 -0.3972
 7320SOL    HW125552   3.947  11.039   4.435  1.0426  1.7108 -0.8436
 7320SOL    HW225553   4.096  11.015   4.444  0.5778 -1.7597 -1.0918
 7321SOL     OW25554   6.326   1.469   4.034 -0.6731  0.0205  0.2157
 7321SOL    HW125555   6.342   1.430   4.120 -1.2929  1.3444  0.9641
 7321SOL    HW225556   6.351   1.561   4.045  1.7582 -0.2809 -1.7822
 7322SOL     OW25557   8.144   3.628   5.462 -0.0052 -0.4671 -0.0817
 7322SOL    HW125558   8.198   3.660   5.535 -0.5241 -2.0292  1.0376
 7322SOL    HW225559   8.206   3.615   5.390  0.7399 -0.1377  0.4892
 7323SOL     OW25560   1.242   5.598   1.212 -0.2075 -0.1329  0.4121
 7323SOL    HW125561   1.153   5.573   1.238 -0.9143  1.2087 -0.5650
 7323SOL    HW225562   1.229   5.672   1.152  1.5807  0.1327  0.3068
 7324SOL     OW25563   3.911   3.445   3.012 -0.3111  0.3231  0.2524
 7324SOL    HW125564   3.967   3.381   2.968  0.9295  0.4663  1.5370
 7324SOL    HW225565   3.972   3.495   3.067 -1.2877  2.4155 -0.4925
 7325SOL     OW25566   3.457   3.756   5.102  0.0269 -0.0336 -0.0073
 7325SOL    HW125567   3.363   3.759   5.083 -0.0075 -2.1427 -0.4170
 7325SOL    HW225568   3.496   3.719   5.023  1.3123  1.3502 -0.0720
 7326SOL     OW25569  10.180  10.945   5.237  0.5601  0.3870  0.0258
 7326SOL    HW125570  10.156  10.982   5.152 -0.4263  0.0943  0.1637
 7326SOL    HW225571  10.097  10.938   5.284  1.1744  1.2281  1.2938
 7327SOL     OW25572   9.769   6.642   2.907 -0.1830 -0.6854 -0.3835
 7327SOL    HW125573   9.744   6.610   2.993 -3.1192 -1.1622 -1.3086
 7327SOL    HW225574   9.760   6.737   2.913  0.2775 -0.6639  0.0047
 7328SOL     OW25575   7.108   6.066   9.119 -0.5785 -0.1046 -0.2131
 7328SOL    HW125576   7.056   6.146   9.116  0.1049  0.3417 -0.4251
 7328SOL    HW225577   7.090   6.028   9.205 -0.9600  0.2409 -0.1399
 7329SOL     OW25578  10.822   4.422   9.386  0.1262  0.3115  0.6451
 7329SOL    HW125579  10.832   4.459   9.474  0.8265  0.1185  0.6562
 7329SOL    HW225580  10.807   4.498   9.330  0.4932  0.5138  0.8195
 7330SOL     OW25581   0.811   0.106   6.526 -0.4598 -0.0294  0.1976
 7330SOL    HW125582   0.828   0.024   6.478 -1.0580  0.9249 -1.7682
 7330SOL    HW225583   0.716   0.119   6.517 -0.3232  1.0347  0.1922
 7331SOL     OW25584   2.269   5.300   9.125 -0.2116 -1.1674  0.5220
 7331SOL    HW125585   2.333   5.290   9.196  0.5376 -0.7704 -0.0795
 7331SOL    HW225586   2.309   5.255   9.050  1.2883  2.4392 -1.0464
 7332SOL     OW25587   6.050   0.687  10.356 -0.0525  0.0028 -0.6020
 7332SOL    HW125588   5.964   0.729  10.352 -0.0442 -0.0154 -1.0291
 7332SOL    HW225589   6.034   0.607  10.406 -0.4612 -0.4141 -1.3844
 7333SOL     OW25590   8.658   1.988   8.206  0.1892 -0.1421  0.3889
 7333SOL    HW125591   8.585   2.042   8.238 -1.7056 -0.5141 -2.8586
 7333SOL    HW225592   8.683   2.029   8.123  1.4241 -1.9431 -0.1772
 7334SOL     OW25593   2.301   5.462   3.835 -0.6948 -0.0281 -0.2889
 7334SOL    HW125594   2.253   5.382   3.859  0.4737 -0.6350  0.0858
 7334SOL    HW225595   2.335   5.444   3.748  1.9108 -1.1155  0.8454
 7335SOL     OW25596   9.984   7.345   4.778 -0.3336 -0.2634 -0.6653
 7335SOL    HW125597   9.996   7.351   4.873  1.7466 -1.3806 -0.7994
 7335SOL    HW225598   9.890   7.356   4.765 -0.8089 -1.0890  1.6128
 7336SOL     OW25599   6.904  10.162  10.791 -0.2568  0.1633  0.4298
 7336SOL    HW125600   6.827  10.153  10.847 -0.2025  0.3796  0.5441
 7336SOL    HW225601   6.891  10.246  10.746 -0.2397  0.0497  0.2131
 7337SOL     OW25602   7.522   7.354   3.129 -0.7727 -0.0228  0.0253
 7337SOL    HW125603   7.590   7.341   3.062  0.4577  0.4840  1.1218
 7337SOL    HW225604   7.494   7.265   3.152 -0.6764 -0.2309 -0.6430
 7338SOL     OW25605   6.722   0.953   4.880  0.5656  0.0206  0.0333
 7338SOL    HW125606   6.806   0.956   4.926 -0.0509 -0.6135  1.2511
 7338SOL    HW225607   6.657   0.970   4.948 -0.2950  0.6890 -0.9243
 7339SOL     OW25608   2.369   4.989   1.335  0.2117 -0.3656  0.7522
 7339SOL    HW125609   2.414   4.911   1.366  0.9747 -0.4900 -0.5623
 7339SOL    HW225610   2.424   5.020   1.262 -1.6468 -0.3469 -0.7216
 7340SOL     OW25611   8.900  10.473   4.723 -0.2993  0.0780 -0.6522
 7340SOL    HW125612   8.936  10.417   4.654 -2.1237 -2.0163 -0.0364
 7340SOL    HW225613   8.864  10.411   4.787  1.7892  1.8728  2.5461
 7341SOL     OW25614   1.718   6.251   9.709 -0.5174  0.3164 -0.0388
 7341SOL    HW125615   1.706   6.295   9.793 -3.1996  0.4569 -0.4160
 7341SOL    HW225616   1.669   6.170   9.717  0.1324 -0.2020 -1.0990
 7342SOL     OW25617   7.349   8.212   4.708 -0.0329 -0.5746 -0.0703
 7342SOL    HW125618   7.414   8.282   4.710 -1.2228  0.6346 -1.7194
 7342SOL    HW225619   7.392   8.139   4.753  1.0881  1.3046  2.1140
 7343SOL     OW25620   8.276   2.109  11.088 -0.4113  0.3769  0.0417
 7343SOL    HW125621   8.321   2.087  11.170  1.6323 -0.3034 -1.2069
 7343SOL    HW225622   8.240   2.197  11.104 -0.1391  0.2164  1.6923
 7344SOL     OW25623   9.457   6.999   4.598  0.2223  0.0503 -0.3470
 7344SOL    HW125624   9.391   7.052   4.643 -1.4824 -0.2635 -2.3766
 7344SOL    HW225625   9.522   6.979   4.667 -1.5582  0.6990  1.6262
 7345SOL     OW25626   2.650   7.584   7.178  0.3374 -0.6615  0.3204
 7345SOL    HW125627   2.733   7.617   7.144  0.8893 -3.7681 -1.7293
 7345SOL    HW225628   2.585   7.616   7.115  0.4378 -0.8014  0.1416
 7346SOL     OW25629   5.436   7.416   8.667 -0.1064 -0.2977 -0.2061
 7346SOL    HW125630   5.402   7.412   8.578  0.3606 -0.1121 -0.3918
 7346SOL    HW225631   5.526   7.445   8.658  0.4393 -1.7420  0.2133
 7347SOL     OW25632   4.871  10.518   3.118  0.5863 -1.0327 -0.3668
 7347SOL    HW125633   4.821  10.591   3.155  1.5081 -0.9980  0.8561
 7347SOL    HW225634   4.962  10.545   3.127  0.9067 -2.0366 -0.5444
 7348SOL     OW25635   3.372   0.805   0.618  0.0170  0.0686  0.2879
 7348SOL    HW125636   3.457   0.765   0.636 -0.1723 -0.3876  0.1638
 7348SOL    HW225637   3.379   0.833   0.526  0.0441  0.0625  0.2879
 7349SOL     OW25638   7.860   6.215   4.452  0.0861 -0.5667  0.5017
 7349SOL    HW125639   7.832   6.262   4.531  0.4267  0.0783  0.2439
 7349SOL    HW225640   7.950   6.187   4.471  0.3451  0.0143  0.1631
 7350SOL     OW25641   5.799   2.448   9.712 -0.0167  0.3832 -0.0853
 7350SOL    HW125642   5.713   2.489   9.722 -1.0582 -2.1647  3.3524
 7350SOL    HW225643   5.858   2.504   9.762 -0.2674  0.6542 -0.0929
 7351SOL     OW25644   9.161   7.538   1.002 -0.1940 -0.3464  0.0300
 7351SOL    HW125645   9.099   7.465   1.002 -0.1529 -0.3874  0.5273
 7351SOL    HW225646   9.168   7.564   0.910  0.9535 -1.9369 -0.3768
 7352SOL     OW25647   1.142   0.178   4.292 -0.2278  0.0094  0.0860
 7352SOL    HW125648   1.114   0.134   4.212 -1.8954  1.0639  0.0386
 7352SOL    HW225649   1.219   0.129   4.321 -0.0641 -0.8740 -1.7189
 7353SOL     OW25650   8.459   0.061   0.007  0.3331 -0.1224  0.6124
 7353SOL    HW125651   8.469   0.053   0.101 -1.4967 -0.5491  0.8015
 7353SOL    HW225652   8.429   0.150  -0.007 -0.2659 -0.3362  0.5207
 7354SOL     OW25653   1.806   3.874   1.847 -0.2745 -0.1199  0.0481
 7354SOL    HW125654   1.876   3.889   1.911 -1.9274 -1.7491  2.3774
 7354SOL    HW225655   1.776   3.962   1.823  0.7290  0.5362  1.1252
 7355SOL     OW25656   5.463   0.738   1.231 -0.3919  0.2107 -0.7057
 7355SOL    HW125657   5.496   0.732   1.321 -1.9838  1.8092  0.0301
 7355SOL    HW225658   5.514   0.810   1.192 -0.1951 -0.0182 -0.8775
 7356SOL     OW25659   2.491  11.072   0.180 -0.4765 -0.2045  0.3437
 7356SOL    HW125660   2.578  11.086   0.216 -0.7556  0.0654  0.9356
 7356SOL    HW225661   2.484  10.977   0.171 -0.0036 -0.2072 -0.0168
 7357SOL     OW25662   4.649   2.232   2.384 -0.0339 -0.2777  0.7812
 7357SOL    HW125663   4.649   2.212   2.291 -0.8177 -0.5678  0.8360
 7357SOL    HW225664   4.600   2.314   2.391  0.6619  0.1416  0.8663
 7358SOL     OW25665   3.655   6.109   6.472 -0.3421  0.3020  0.1562
 7358SOL    HW125666   3.600   6.165   6.526 -0.2765  0.3112  0.2140
 7358SOL    HW225667   3.598   6.037   6.446 -1.0041  1.3640 -1.5058
 7359SOL     OW25668   0.092   7.440   7.521 -0.0238 -0.0464  0.9458
 7359SOL    HW125669   0.009   7.450   7.474  0.1127 -1.5477  0.3219
 7359SOL    HW225670   0.071   7.459   7.612 -0.8326  0.5417  0.6448
 7360SOL     OW25671   3.349  10.466   5.207 -0.2233 -1.0880 -0.0803
 7360SOL    HW125672   3.412  10.396   5.225 -1.1744 -1.7061  0.9781
 7360SOL    HW225673   3.286  10.427   5.146  0.7186 -0.2764 -1.6374
 7361SOL     OW25674   9.898   3.232   9.178 -0.0517  0.1476  0.3835
 7361SOL    HW125675   9.865   3.306   9.229  1.1773  0.9478  0.0786
 7361SOL    HW225676   9.846   3.233   9.098  0.0659  0.8030  0.3083
 7362SOL     OW25677   9.904   6.093  11.052 -0.8589  0.0323  0.3224
 7362SOL    HW125678   9.828   6.151  11.048 -1.0471 -0.0618  2.0565
 7362SOL    HW225679   9.884   6.031  11.122 -0.1202 -1.3819 -0.6569
 7363SOL     OW25680   8.231   0.768   2.322  0.0066  0.1623 -0.8039
 7363SOL    HW125681   8.149   0.726   2.348  0.3242 -1.0112 -1.6044
 7363SOL    HW225682   8.288   0.695   2.298  1.4374  0.9302  0.1300
 7364SOL     OW25683   6.500   2.599   5.243 -0.0708  0.0112  0.0772
 7364SOL    HW125684   6.450   2.579   5.164  0.0785 -0.6472  0.1485
 7364SOL    HW225685   6.583   2.554   5.232 -0.1345 -0.2806  0.7098
 7365SOL     OW25686   6.514   9.257  11.041 -0.2003 -0.0076  0.2328
 7365SOL    HW125687   6.461   9.281  11.116  0.3185 -3.2905  1.8281
 7365SOL    HW225688   6.451   9.224  10.977 -0.3549 -0.8632  0.8175
 7366SOL     OW25689   0.823   8.780   8.244 -0.5032 -0.2022  0.3536
 7366SOL    HW125690   0.801   8.757   8.335 -0.5842  3.1599  1.3082
 7366SOL    HW225691   0.739   8.807   8.206 -0.3477 -0.9544 -0.5452
 7367SOL     OW25692   9.078   0.717   3.164  0.3399 -0.2298 -0.1198
 7367SOL    HW125693   9.069   0.782   3.095 -1.1187 -0.9908 -0.6969
 7367SOL    HW225694   9.164   0.677   3.149  0.8839  0.9633 -0.2568
 7368SOL     OW25695   2.950   0.633   9.259  0.2688 -0.0167 -0.0033
 7368SOL    HW125696   2.926   0.714   9.215  1.1003 -0.4952 -1.3877
 7368SOL    HW225697   2.871   0.608   9.307 -1.0546  0.0031 -2.0426
 7369SOL     OW25698   8.428   4.408   8.613  0.0694  0.0590 -0.0349
 7369SOL    HW125699   8.368   4.367   8.551 -0.7457  0.4589  0.4831
 7369SOL    HW225700   8.396   4.497   8.622 -0.0741 -0.1137  1.2949
 7370SOL     OW25701   2.235   9.646   4.715  0.5080 -0.3550 -0.4720
 7370SOL    HW125702   2.296   9.590   4.667 -1.0217 -1.4689 -1.1660
 7370SOL    HW225703   2.206   9.593   4.789  0.7539  0.3609  0.1526
 7371SOL     OW25704   7.065   2.953   7.702 -0.3379  0.1696 -0.2206
 7371SOL    HW125705   7.109   3.007   7.637 -0.5804  0.7307  0.0770
 7371SOL    HW225706   7.107   2.977   7.785 -1.5477  1.1218  0.1585
 7372SOL     OW25707   6.086   7.437  10.665 -0.0283  0.6276  0.4652
 7372SOL    HW125708   6.075   7.406  10.755  1.4994  0.2920  0.5605
 7372SOL    HW225709   6.026   7.512  10.658 -1.2881 -0.2588  1.2684
 7373SOL     OW25710   8.165   6.751   2.215 -0.2766  0.4982 -0.4867
 7373SOL    HW125711   8.134   6.791   2.133 -2.5780  0.1947  0.1670
 7373SOL    HW225712   8.117   6.669   2.222  0.7185 -0.0197  0.6327
 7374SOL     OW25713   4.755   9.037   9.190 -0.1472 -0.6658 -0.4782
 7374SOL    HW125714   4.689   8.984   9.146 -1.9292  1.9562 -1.2280
 7374SOL    HW225715   4.839   9.006   9.155 -1.3550 -0.2467 -4.1051
 7375SOL     OW25716   9.943   0.225  10.853  0.5687  0.3252  0.0022
 7375SOL    HW125717  10.011   0.188  10.910 -0.3226 -0.0911  0.8279
 7375SOL    HW225718   9.891   0.281  10.910 -0.7932 -0.6716 -0.1884
 7376SOL     OW25719  10.802   0.517   0.183  0.4063 -0.0677  0.3610
 7376SOL    HW125720  10.779   0.443   0.240  0.5248 -1.8579 -1.7680
 7376SOL    HW225721  10.719   0.540   0.139  0.9306 -0.9597 -1.1639
 7377SOL     OW25722   6.749   5.656   3.417 -0.6419  0.9298  0.2920
 7377SOL    HW125723   6.791   5.653   3.503  0.4257 -0.6572 -0.2396
 7377SOL    HW225724   6.672   5.600   3.425 -0.1748  0.2405  0.0497
 7378SOL     OW25725   1.215  10.747   7.157 -0.3500  0.2049 -0.2832
 7378SOL    HW125726   1.161  10.733   7.079 -0.7252  0.3597 -0.0556
 7378SOL    HW225727   1.182  10.829   7.194  1.5329  1.5280 -1.3823
 7379SOL     OW25728   0.284   9.433   1.509  0.3375 -0.7385 -0.0276
 7379SOL    HW125729   0.370   9.474   1.497 -0.3572  0.4849 -1.1279
 7379SOL    HW225730   0.289   9.352   1.458  0.8237 -0.6698 -0.1035
 7380SOL     OW25731   0.204   9.869  10.349  0.6587 -0.3133  0.0305
 7380SOL    HW125732   0.205   9.906  10.261  0.2147  0.3151  0.2825
 7380SOL    HW225733   0.136   9.918  10.395  1.2500 -0.2743  0.8855
 7381SOL     OW25734   5.894   6.570   0.915 -0.0089 -0.0044  0.3449
 7381SOL    HW125735   5.840   6.494   0.937  0.0810 -0.4045 -0.7724
 7381SOL    HW225736   5.896   6.622   0.996  1.0338 -1.8440  1.5589
 7382SOL     OW25737   4.314  10.344   5.673 -0.1313  0.3834  0.3187
 7382SOL    HW125738   4.409  10.341   5.660  0.0090  1.8751  0.7540
 7382SOL    HW225739   4.304  10.361   5.766 -0.7748  1.5660  0.0489
 7383SOL     OW25740   5.115   8.324   8.392 -0.3820  0.0838  0.3665
 7383SOL    HW125741   5.160   8.274   8.324 -2.2551 -1.3711  0.0957
 7383SOL    HW225742   5.040   8.363   8.347 -0.4044  0.9831  1.1530
 7384SOL     OW25743   2.287   7.838   1.433 -0.2288 -0.6189  0.4399
 7384SOL    HW125744   2.282   7.785   1.354 -2.4410 -0.9288  0.7184
 7384SOL    HW225745   2.314   7.925   1.403  2.2488 -1.5293 -0.1688
 7385SOL     OW25746   8.456   6.685   6.906 -0.2156 -0.4945  0.0924
 7385SOL    HW125747   8.400   6.733   6.844  0.8435  0.4958 -0.1117
 7385SOL    HW225748   8.395   6.625   6.950 -1.4257  0.4490 -0.2193
 7386SOL     OW25749   4.291   8.430   3.097 -0.5659 -1.0403  0.1823
 7386SOL    HW125750   4.241   8.432   3.179  0.8727 -0.3880  1.0819
 7386SOL    HW225751   4.362   8.492   3.111 -0.3662 -0.8279 -1.6344
 7387SOL     OW25752   1.156   9.195   5.304  0.1921  0.5626  0.1440
 7387SOL    HW125753   1.064   9.185   5.280  0.2956  0.6020 -0.2761
 7387SOL    HW225754   1.181   9.282   5.271  0.2104  0.8176  0.8142
 7388SOL     OW25755   4.724   8.804   4.458 -0.0165 -0.2010 -0.0078
 7388SOL    HW125756   4.677   8.723   4.438 -1.9710  0.7163  0.7007
 7388SOL    HW225757   4.771   8.785   4.539  0.4181 -0.9491 -0.4245
 7389SOL     OW25758   1.258   2.227   0.070 -0.5964 -0.2832  0.1703
 7389SOL    HW125759   1.272   2.170  -0.006  0.7940  2.3868 -1.7528
 7389SOL    HW225760   1.163   2.222   0.087 -0.4038 -3.8873  0.8600
 7390SOL     OW25761   5.930   0.799   0.535 -0.5888  0.6263  0.4385
 7390SOL    HW125762   5.936   0.843   0.620 -0.8949 -0.2958  0.9527
 7390SOL    HW225763   5.970   0.860   0.473  1.9446  0.2613  1.6184
 7391SOL     OW25764   5.730   2.452  10.718  0.5079 -0.0490  0.1410
 7391SOL    HW125765   5.756   2.543  10.711  2.1313 -0.3739  1.3911
 7391SOL    HW225766   5.745   2.416  10.630 -0.2326  0.8769 -0.3836
 7392SOL     OW25767   2.994  10.216   4.691 -0.1078 -0.3892  0.1512
 7392SOL    HW125768   3.019  10.187   4.603 -0.7871  0.1462 -0.2255
 7392SOL    HW225769   2.956  10.138   4.732 -0.4968 -0.4402 -0.2996
 7393SOL     OW25770   6.438   0.836   1.904  0.0462  0.0647 -0.0432
 7393SOL    HW125771   6.445   0.918   1.953  1.8791 -0.4835  0.6985
 7393SOL    HW225772   6.407   0.863   1.817  2.5909  1.8882 -0.5165
 7394SOL     OW25773   3.929   9.799   7.366  0.3474 -0.2146 -0.5812
 7394SOL    HW125774   3.972   9.793   7.280  1.1891  0.6690 -0.2321
 7394SOL    HW225775   3.983   9.859   7.416  0.1546 -1.1243  0.7593
 7395SOL     OW25776   7.138   3.157   7.958  0.8721  0.1761 -0.4176
 7395SOL    HW125777   7.145   3.062   7.967 -1.9256  0.0014  0.7914
 7395SOL    HW225778   7.166   3.192   8.043  1.5333  0.4417 -0.7346
 7396SOL     OW25779   2.697   4.429   0.798 -0.8816  0.2767  0.2223
 7396SOL    HW125780   2.657   4.395   0.878 -1.2996  1.2508  0.4357
 7396SOL    HW225781   2.644   4.391   0.727 -2.1549  1.4572  0.4941
 7397SOL     OW25782   2.105   0.786   3.898 -0.0397  0.1872  0.0992
 7397SOL    HW125783   2.020   0.827   3.884 -1.0928 -1.3677  1.5225
 7397SOL    HW225784   2.168   0.857   3.890 -1.4856  1.4199 -0.7411
 7398SOL     OW25785   7.371   9.789   7.874  0.0201 -0.0995  0.1731
 7398SOL    HW125786   7.381   9.695   7.858 -2.0201 -0.8099  2.3711
 7398SOL    HW225787   7.279   9.807   7.853 -0.2984  0.8070  2.0936
 7399SOL     OW25788   9.166   7.885   9.848 -0.0132 -0.2245 -0.4261
 7399SOL    HW125789   9.236   7.877   9.783 -0.2533 -4.0890 -0.4558
 7399SOL    HW225790   9.212   7.900   9.931  0.8332 -1.5156 -0.6274
 7400SOL     OW25791   2.745   8.604   7.356  0.4882 -0.9211 -0.2899
 7400SOL    HW125792   2.722   8.566   7.441 -1.6446  2.5055  0.8480
 7400SOL    HW225793   2.801   8.678   7.377  0.5126 -0.4236 -1.9438
 7401SOL     OW25794   9.247   7.317   5.853 -0.2193  0.2069 -0.4020
 7401SOL    HW125795   9.179   7.375   5.887 -0.4957 -1.3441  1.9229
 7401SOL    HW225796   9.320   7.328   5.914  0.0925 -1.1294 -0.5120
 7402SOL     OW25797   3.712   2.117   3.293 -0.1160  0.3787  0.0745
 7402SOL    HW125798   3.719   2.197   3.242  1.7384  0.6346  0.6515
 7402SOL    HW225799   3.618   2.104   3.305 -0.4662  2.5523  0.1085
 7403SOL     OW25800   2.933   1.973   6.802  0.2307 -0.1928  0.0554
 7403SOL    HW125801   2.933   1.882   6.829 -0.8339 -0.2643 -0.1338
 7403SOL    HW225802   3.024   2.000   6.808  0.4210 -0.9895  1.0321
 7404SOL     OW25803   8.772   6.309   0.695 -0.2432 -0.0101  0.2511
 7404SOL    HW125804   8.734   6.377   0.638 -1.9823 -0.9701  0.1928
 7404SOL    HW225805   8.848   6.277   0.647 -0.7063  0.3638 -0.7738
 7405SOL     OW25806  10.331  10.418   9.501  0.1715  0.0662  0.0088
 7405SOL    HW125807  10.381  10.457   9.573  1.2120  0.3596 -0.8346
 7405SOL    HW225808  10.370  10.331   9.489  1.4028  0.7679 -1.4746
 7406SOL     OW25809   9.262   7.939   2.396  0.4560  0.0933 -0.7045
 7406SOL    HW125810   9.200   7.881   2.439 -0.7228  0.8686 -1.2779
 7406SOL    HW225811   9.343   7.889   2.389 -0.4942 -1.4344 -1.1005
 7407SOL     OW25812   0.730   6.242   9.047  0.1548  0.0616 -0.1026
 7407SOL    HW125813   0.817   6.211   9.024  0.2282  1.4405 -1.8508
 7407SOL    HW225814   0.710   6.198   9.130  3.0450  0.7277  1.0529
 7408SOL     OW25815   9.758   8.633   2.132 -0.7250  0.1589 -0.4674
 7408SOL    HW125816   9.724   8.565   2.190 -1.1346 -0.4198 -1.3504
 7408SOL    HW225817   9.803   8.584   2.062 -2.1120  0.7031 -1.8043
 7409SOL     OW25818   4.510   7.110  10.400 -0.8421  0.0939 -0.0530
 7409SOL    HW125819   4.576   7.069  10.457  0.3729 -0.3315 -1.6795
 7409SOL    HW225820   4.551   7.192  10.372 -0.1757 -0.9754 -2.4746
 7410SOL     OW25821   6.770   0.070   6.043  0.2328  0.0989  0.1334
 7410SOL    HW125822   6.697   0.124   6.013 -1.0490 -1.9725 -0.7217
 7410SOL    HW225823   6.748   0.048   6.133 -1.0452 -1.6711 -0.5333
 7411SOL     OW25824   0.384   0.633   9.598  0.0960  0.3814 -0.2344
 7411SOL    HW125825   0.324   0.614   9.526 -0.7800  0.1243  0.5443
 7411SOL    HW225826   0.348   0.711   9.640  0.3442  0.2649  0.1993
 7412SOL     OW25827   0.278   4.854  11.108  0.2619  0.4799  0.0662
 7412SOL    HW125828   0.190   4.867  11.144 -0.2378  1.4277 -1.4612
 7412SOL    HW225829   0.272   4.770  11.062 -0.0092  0.7958 -0.4855
 7413SOL     OW25830   8.291   5.018   6.398  0.2017 -0.7155 -0.2871
 7413SOL    HW125831   8.225   5.037   6.331  0.0186  0.2752  0.1619
 7413SOL    HW225832   8.246   4.962   6.461  0.3425 -1.5640 -0.9104
 7414SOL     OW25833   4.189  10.398   9.512 -0.2272 -0.6300  0.1712
 7414SOL    HW125834   4.232  10.386   9.427 -2.3242 -5.5271 -0.5323
 7414SOL    HW225835   4.240  10.343   9.572 -0.8541 -0.0637  1.2514
 7415SOL     OW25836   7.449  10.489  10.410 -0.2023 -0.1330 -0.0788
 7415SOL    HW125837   7.384  10.444  10.357  0.5284 -0.5104 -0.6643
 7415SOL    HW225838   7.504  10.419  10.446 -0.8950  0.0727  1.5053
 7416SOL     OW25839   9.121   2.606  10.702 -0.1233 -0.1168 -0.5186
 7416SOL    HW125840   9.032   2.612  10.667 -0.5569 -0.0182  0.5705
 7416SOL    HW225841   9.153   2.696  10.703 -0.1588 -0.1042 -0.5335
 7417SOL     OW25842   4.864   8.359   8.256 -0.3455 -0.0117  0.5454
 7417SOL    HW125843   4.801   8.296   8.293 -0.4749  0.2529  0.7757
 7417SOL    HW225844   4.897   8.316   8.177  0.2972 -0.7963  1.2288
 7418SOL     OW25845   3.254   7.202   5.497  0.7004 -0.1215 -0.5821
 7418SOL    HW125846   3.169   7.242   5.482 -0.5743 -1.4174  2.2772
 7418SOL    HW225847   3.318   7.272   5.481 -1.0173  1.3911 -1.0844
 7419SOL     OW25848   9.718   0.787  10.968 -0.3294 -0.6542 -0.2184
 7419SOL    HW125849   9.693   0.778  11.060 -0.4640  1.0396 -0.0596
 7419SOL    HW225850   9.678   0.712  10.925 -0.4152 -1.3767  1.0678
 7420SOL     OW25851   3.645  10.911   4.304  0.2432  0.2702  0.6573
 7420SOL    HW125852   3.657  10.916   4.399  1.0328 -0.4470  0.5965
 7420SOL    HW225853   3.575  10.847   4.292 -0.6597  1.1950  0.7916
 7421SOL     OW25854   5.963   7.103   5.741  0.2533  0.5758 -0.5193
 7421SOL    HW125855   5.944   7.115   5.648  0.2439  0.2941 -0.5551
 7421SOL    HW225856   6.037   7.042   5.743 -2.5503 -3.2072 -0.2834
 7422SOL     OW25857   1.034   2.836   7.250 -0.3390  0.0742  0.5029
 7422SOL    HW125858   1.041   2.909   7.311 -2.0733  0.0781  0.7585
 7422SOL    HW225859   1.123   2.820   7.220  0.7689 -0.4909  3.6978
 7423SOL     OW25860   5.317   7.903  10.408 -0.1314  0.3356  0.0746
 7423SOL    HW125861   5.303   7.998  10.404 -0.6716  0.2486 -0.1591
 7423SOL    HW225862   5.229   7.866  10.402  0.2158 -0.2933 -3.1981
 7424SOL     OW25863   8.172   1.625   3.071  0.0324 -0.2622 -0.4960
 7424SOL    HW125864   8.211   1.589   3.151 -1.2494 -3.9279 -1.3265
 7424SOL    HW225865   8.108   1.689   3.102  2.4663  1.5672  1.1051
 7425SOL     OW25866   9.342   3.998   1.666  1.3103 -0.8662  0.1756
 7425SOL    HW125867   9.340   3.943   1.588  0.6877 -0.6480  0.0366
 7425SOL    HW225868   9.251   4.023   1.681  1.7594  1.6181 -0.8244
 7426SOL     OW25869   5.849   7.302   1.623 -0.1882 -0.4296  0.2592
 7426SOL    HW125870   5.894   7.219   1.635 -0.5492 -0.3905  2.0577
 7426SOL    HW225871   5.834   7.307   1.528 -0.5251 -2.5913  0.1497
 7427SOL     OW25872   7.173   4.876   0.716 -0.1633 -0.2546 -0.4451
 7427SOL    HW125873   7.180   4.905   0.625  0.0634 -0.9760 -0.6633
 7427SOL    HW225874   7.234   4.803   0.724  0.0393 -0.0116  0.3706
 7428SOL     OW25875   9.278   2.073   1.243 -0.0130  0.0226  0.8042
 7428SOL    HW125876   9.256   1.997   1.297  0.9853 -0.8429  0.0484
 7428SOL    HW225877   9.353   2.044   1.191  0.1791  1.4281  0.2545
 7429SOL     OW25878   7.698   0.947   8.566  0.2216 -0.3159 -0.5640
 7429SOL    HW125879   7.695   1.024   8.622  1.8381 -0.9264  0.4252
 7429SOL    HW225880   7.772   0.963   8.507 -0.2274 -0.5656 -1.2133
 7430SOL     OW25881   1.299  11.043   1.894 -0.2306  0.1950 -0.0125
 7430SOL    HW125882   1.240  10.978   1.855  0.4059 -1.9650  2.3668
 7430SOL    HW225883   1.242  11.096   1.950 -0.2466 -0.6340  0.7775
 7431SOL     OW25884   6.531   4.712   6.434  0.6487 -0.0171  0.7442
 7431SOL    HW125885   6.535   4.647   6.505 -0.3904 -0.5957  0.2846
 7431SOL    HW225886   6.605   4.689   6.377  0.9632 -0.0907  1.1728
 7432SOL     OW25887   1.428   1.363   6.262  0.3662  0.1365 -0.0673
 7432SOL    HW125888   1.438   1.353   6.356 -1.5434 -0.9951  0.0727
 7432SOL    HW225889   1.355   1.305   6.239 -0.4135  1.7129 -1.9406
 7433SOL     OW25890   1.335   0.308  10.311  0.2295  0.2275  0.5126
 7433SOL    HW125891   1.404   0.335  10.371 -1.0545  2.5025  1.1135
 7433SOL    HW225892   1.257   0.299  10.367 -0.7967  1.5312 -0.6467
 7434SOL     OW25893   3.928   0.062   9.574 -0.5190  0.6463 -0.6068
 7434SOL    HW125894   4.011   0.027   9.606 -0.2712 -0.0569 -1.9788
 7434SOL    HW225895   3.949   0.150   9.542 -0.2932  0.4608 -0.9738
 7435SOL     OW25896   5.025   9.967   8.498  0.0030 -0.5186  0.1276
 7435SOL    HW125897   4.944  10.018   8.508 -0.1438 -0.7122 -0.0579
 7435SOL    HW225898   4.998   9.877   8.517  0.8812 -0.2033  3.6766
 7436SOL     OW25899  10.937   0.080   8.155  0.0177 -0.6023 -0.1837
 7436SOL    HW125900  10.895   0.159   8.191 -1.3631 -0.7286 -1.4008
 7436SOL    HW225901  10.893   0.008   8.200  0.0261 -0.7027 -0.3352
 7437SOL     OW25902   0.448   5.627   3.459  0.4987 -0.0126 -0.2401
 7437SOL    HW125903   0.423   5.613   3.367 -0.2986 -0.2144  0.0028
 7437SOL    HW225904   0.543   5.642   3.456  0.7814 -1.7313 -0.9175
 7438SOL     OW25905   1.812   4.892   0.679 -0.0251  0.2457 -0.6826
 7438SOL    HW125906   1.839   4.809   0.639  0.9672  0.4625 -0.5078
 7438SOL    HW225907   1.752   4.931   0.616 -0.7338 -0.7307 -0.6420
 7439SOL     OW25908   9.099   0.367   3.439 -0.4918 -0.3772  0.4928
 7439SOL    HW125909   9.033   0.433   3.418 -0.7399  0.0376  2.3764
 7439SOL    HW225910   9.050   0.296   3.481  0.1472 -0.3318  1.3625
 7440SOL     OW25911   1.989   9.088   3.364  0.6343  0.2537 -0.1657
 7440SOL    HW125912   2.031   9.085   3.451  0.6019  0.6751 -0.1348
 7440SOL    HW225913   1.895   9.087   3.383  0.6120 -0.9002 -0.2421
 7441SOL     OW25914   5.780   1.840   4.492  0.3377  0.1313  0.1348
 7441SOL    HW125915   5.743   1.784   4.560 -2.8511  1.1149 -0.6097
 7441SOL    HW225916   5.708   1.899   4.468  1.6555  0.5474 -3.3156
 7442SOL     OW25917   1.156   4.199   6.507  0.4225  0.6015 -0.1505
 7442SOL    HW125918   1.187   4.268   6.565  1.3038 -0.5977  0.8701
 7442SOL    HW225919   1.061   4.198   6.518  0.2603  2.3622 -1.0456
 7443SOL     OW25920   2.552   8.194   2.723 -0.2697  0.4171 -0.3919
 7443SOL    HW125921   2.491   8.148   2.781 -0.5036  0.4553 -0.6061
 7443SOL    HW225922   2.555   8.283   2.758  0.5496  0.1257  0.3095
 7444SOL     OW25923   7.329   7.694   8.989 -0.6349 -0.8127 -0.2353
 7444SOL    HW125924   7.409   7.662   8.947 -1.4188 -0.2808 -2.2316
 7444SOL    HW225925   7.358   7.769   9.041  0.2910 -1.1744 -0.2067
 7445SOL     OW25926   6.245   8.079  10.039 -0.1670 -0.1546 -0.4616
 7445SOL    HW125927   6.309   8.017  10.072 -0.9190 -0.4681  0.4499
 7445SOL    HW225928   6.276   8.164  10.068 -0.0065 -0.2705 -0.2954
 7446SOL     OW25929   1.720   1.721   5.486  0.6490 -0.4332  0.0344
 7446SOL    HW125930   1.756   1.683   5.406  0.1098 -0.5027 -0.1767
 7446SOL    HW225931   1.628   1.734   5.468  0.0952 -2.2045  1.2935
 7447SOL     OW25932   5.730  10.012  10.910 -0.0183 -0.0518 -0.1379
 7447SOL    HW125933   5.756  10.082  10.850 -0.1911 -0.2067 -0.3957
 7447SOL    HW225934   5.646  10.040  10.946 -0.3511 -0.3729 -0.6513
 7448SOL     OW25935   7.632   9.430   0.809 -0.2191  0.2859  0.9641
 7448SOL    HW125936   7.590   9.475   0.882 -0.3029  0.4326  0.8238
 7448SOL    HW225937   7.628   9.491   0.736 -1.2374 -0.3179  0.4851
 7449SOL     OW25938   6.975   9.270   6.965  0.2008 -0.1711 -0.1594
 7449SOL    HW125939   6.935   9.184   6.950  1.7324 -0.6325 -1.9800
 7449SOL    HW225940   6.944   9.323   6.892  1.1066  0.1087 -0.3536
 7450SOL     OW25941   9.658   8.306   1.249  0.5097 -0.6050 -0.1770
 7450SOL    HW125942   9.712   8.359   1.191  0.5051  0.3353  0.6506
 7450SOL    HW225943   9.597   8.261   1.191 -0.2105  1.1477 -0.8325
 7451SOL     OW25944   8.442   0.699   3.158 -0.5796  0.1355  0.0325
 7451SOL    HW125945   8.372   0.753   3.196 -1.1988 -0.5534 -0.1127
 7451SOL    HW225946   8.431   0.709   3.063  0.2769  0.9742  0.0054
 7452SOL     OW25947   4.475   9.295   2.377 -0.0123 -0.0261  0.1317
 7452SOL    HW125948   4.532   9.283   2.453  0.6910  0.1805 -0.3511
 7452SOL    HW225949   4.447   9.386   2.383 -1.0217 -0.3753  0.8584
 7453SOL     OW25950   9.951   3.401   2.073 -0.1549  0.3478 -0.1009
 7453SOL    HW125951   9.986   3.470   2.016  0.1055 -1.1587 -1.8650
 7453SOL    HW225952  10.027   3.345   2.092 -0.4543  0.2668  0.9410
 7454SOL     OW25953   4.774   8.088   7.993  0.0074 -0.0872  0.0989
 7454SOL    HW125954   4.733   8.085   8.080 -1.5290  0.7201 -0.5454
 7454SOL    HW225955   4.832   8.164   7.997  1.3503 -1.1251  0.9671
 7455SOL     OW25956  10.411  10.941   1.202  0.3850  0.1025  0.2607
 7455SOL    HW125957  10.350  10.897   1.143  0.7092 -0.4205  0.3077
 7455SOL    HW225958  10.411  10.886   1.281  1.0485 -0.0009  0.1940
 7456SOL     OW25959   8.195   0.837  10.614  0.0811 -0.3311  0.5740
 7456SOL    HW125960   8.163   0.841  10.704  0.2232 -0.7705  0.6448
 7456SOL    HW225961   8.171   0.750  10.583  1.1091 -0.6377  0.5964
 7457SOL     OW25962   9.885   6.166   6.275 -0.0897  0.0265 -0.1633
 7457SOL    HW125963   9.890   6.197   6.185 -0.2897  1.3268  0.2552
 7457SOL    HW225964   9.955   6.212   6.321 -0.6830  0.2219  0.5804
 7458SOL     OW25965   4.801   4.909   5.095  0.0597  0.0773  0.1635
 7458SOL    HW125966   4.837   4.907   5.006 -2.2567  1.9267 -0.9536
 7458SOL    HW225967   4.816   4.999   5.124 -0.7659 -0.0130  0.9067
 7459SOL     OW25968   2.448   9.279   9.017 -0.1495  0.3636  0.0796
 7459SOL    HW125969   2.475   9.366   9.045 -1.1496  0.7834 -0.2189
 7459SOL    HW225970   2.391   9.295   8.942 -1.9798 -0.4090  1.2419
 7460SOL     OW25971   6.740   7.591   7.337 -0.2120 -0.4841  0.5624
 7460SOL    HW125972   6.686   7.651   7.389  1.3887  1.2274  0.3616
 7460SOL    HW225973   6.827   7.598   7.376  0.3069 -1.6852 -0.3269
 7461SOL     OW25974  10.428   3.927   6.485 -0.1806  0.2828 -0.0243
 7461SOL    HW125975  10.375   3.853   6.514 -0.2590  0.2616 -0.2193
 7461SOL    HW225976  10.365   3.999   6.476 -0.1122  0.3601  0.1209
 7462SOL     OW25977   6.918   7.181   9.581  0.0925 -1.1619 -0.2012
 7462SOL    HW125978   6.889   7.124   9.652 -3.7106  2.0085  1.1390
 7462SOL    HW225979   6.918   7.269   9.619  3.8263  0.1511 -2.6242
 7463SOL     OW25980  10.496   2.873   9.975  0.0032 -0.1200  0.8423
 7463SOL    HW125981  10.446   2.931   9.917  0.1519 -0.7930  0.0198
 7463SOL    HW225982  10.432   2.806  10.001  0.7289 -1.8072 -1.3420
 7464SOL     OW25983   7.804  10.530  11.031 -0.3244  0.1391  1.0863
 7464SOL    HW125984   7.798  10.488  11.117  1.1344  1.3910  1.8441
 7464SOL    HW225985   7.888  10.575  11.032  1.1849 -2.1628 -2.1245
 7465SOL     OW25986   5.124   0.981   5.914  0.1363  0.1508 -0.2875
 7465SOL    HW125987   5.043   0.937   5.939  0.4425 -0.8497 -0.9987
 7465SOL    HW225988   5.100   1.038   5.841  0.0526 -0.0370 -0.4043
 7466SOL     OW25989   7.838   3.515   2.093  0.0409  0.0482  0.3300
 7466SOL    HW125990   7.908   3.454   2.072 -0.4942 -0.7963  0.9705
 7466SOL    HW225991   7.757   3.466   2.076 -0.4373  1.2437 -1.1198
 7467SOL     OW25992   4.298   0.540   6.964 -0.6970 -0.1625  0.1649
 7467SOL    HW125993   4.257   0.478   6.904 -2.5905  1.1512  0.0172
 7467SOL    HW225994   4.392   0.524   6.954 -1.0769 -2.3882 -0.4771
 7468SOL     OW25995   4.254   4.734   8.438  0.2189 -0.4380 -0.0775
 7468SOL    HW125996   4.269   4.797   8.508  2.8486 -0.7157 -0.2957
 7468SOL    HW225997   4.177   4.767   8.392 -3.2107 -1.4497  4.1783
 7469SOL     OW25998   5.689   1.445   5.552 -0.0354  0.0647  0.7455
 7469SOL    HW125999   5.688   1.415   5.642  1.0424 -0.7647  0.4947
 7469SOL    HW226000   5.770   1.496   5.544  1.3766 -2.1713 -0.4327
 7470SOL     OW26001   7.495   5.965   2.384  0.1719 -0.4777  0.2580
 7470SOL    HW126002   7.562   5.932   2.324 -1.0851 -0.6924 -1.0866
 7470SOL    HW226003   7.423   5.992   2.327 -0.9846 -0.4687  1.6657
 7471SOL     OW26004   4.516   6.583   1.812 -0.0461 -0.8498 -0.1771
 7471SOL    HW126005   4.549   6.648   1.750  0.6520 -1.8088 -0.8480
 7471SOL    HW226006   4.584   6.516   1.814 -0.8417 -1.6626  0.3292
 7472SOL     OW26007   4.246   2.236   1.030 -0.2658 -0.0083  0.0307
 7472SOL    HW126008   4.304   2.305   0.999 -1.3497 -0.0390 -2.2842
 7472SOL    HW226009   4.165   2.282   1.055  0.2388 -0.1010  2.0754
 7473SOL     OW26010  10.830   7.394   8.473 -0.1835 -0.1535  0.0702
 7473SOL    HW126011  10.836   7.467   8.411  1.0270 -0.1913  0.1231
 7473SOL    HW226012  10.854   7.433   8.557  1.2799 -0.7556 -0.0331
 7474SOL     OW26013   1.162   2.728   2.235  0.0653 -0.3316 -0.3175
 7474SOL    HW126014   1.202   2.646   2.267  1.0579  0.5106  0.6760
 7474SOL    HW226015   1.186   2.730   2.142  1.0094 -0.6178 -0.0921
 7475SOL     OW26016   2.295   9.529   5.297  0.5573  0.1135 -0.0523
 7475SOL    HW126017   2.208   9.553   5.266  1.4325 -0.0069 -2.9516
 7475SOL    HW226018   2.319   9.453   5.245  3.8243  2.4109 -2.3507
 7476SOL     OW26019   4.055   7.102   3.753 -0.4376  0.2182  0.3114
 7476SOL    HW126020   4.118   7.066   3.816  0.1460 -0.8950 -0.8618
 7476SOL    HW226021   4.095   7.086   3.668 -0.9303  2.2377 -0.3460
 7477SOL     OW26022   4.424   5.045   5.619 -0.0187 -0.5215  0.0914
 7477SOL    HW126023   4.466   5.019   5.536 -1.3060  0.1481 -0.8049
 7477SOL    HW226024   4.357   5.109   5.593  0.9696  1.3531  1.8853
 7478SOL     OW26025   5.574   3.145   1.540  0.3787  0.4108  0.5335
 7478SOL    HW126026   5.505   3.119   1.601 -0.8418  0.7827 -0.6464
 7478SOL    HW226027   5.587   3.238   1.557 -2.0191  1.2560 -1.6254
 7479SOL     OW26028   6.390   2.545   1.704  0.0269 -0.2516  0.3067
 7479SOL    HW126029   6.479   2.511   1.709  0.7144  0.8373 -2.4149
 7479SOL    HW226030   6.347   2.490   1.638  0.0444  1.7204 -1.4516
 7480SOL     OW26031   9.536   1.939   3.108  0.1384  0.1087 -1.0880
 7480SOL    HW126032   9.478   2.015   3.106 -1.9797 -1.2554  1.3507
 7480SOL    HW226033   9.480   1.866   3.080  1.2524 -0.9652 -0.6092
 7481SOL     OW26034   5.979   0.521   3.471  0.2383 -0.0653  0.1730
 7481SOL    HW126035   5.964   0.615   3.459 -0.1378  0.0733  1.5500
 7481SOL    HW226036   5.964   0.506   3.565  0.1987 -1.5207 -0.0420
 7482SOL     OW26037  10.670   6.376   4.485 -0.3973 -0.6114 -0.1383
 7482SOL    HW126038  10.593   6.319   4.483 -0.6570 -0.5320  2.6938
 7482SOL    HW226039  10.638   6.461   4.455 -2.0992 -0.0149  2.8956
 7483SOL     OW26040   0.580   0.907   2.487  0.6175 -0.1169 -0.4142
 7483SOL    HW126041   0.620   0.911   2.574 -2.1400  2.0969  0.9222
 7483SOL    HW226042   0.530   0.825   2.486  0.5699 -0.0945  0.1421
 7484SOL     OW26043   3.194   0.928   4.785 -0.5314  0.1559  0.1493
 7484SOL    HW126044   3.250   1.005   4.794  0.6653 -0.6794  0.1129
 7484SOL    HW226045   3.147   0.922   4.868 -0.6200  0.9103  0.1575
 7485SOL     OW26046   0.726   4.896   7.415 -0.8549  0.2074  0.5244
 7485SOL    HW126047   0.667   4.828   7.447 -1.3243  0.0402 -0.6386
 7485SOL    HW226048   0.734   4.958   7.487 -1.1005 -0.6404  1.2950
 7486SOL     OW26049   3.901   7.768   2.729  0.0181  0.5277  0.0757
 7486SOL    HW126050   3.814   7.747   2.762 -0.0763  1.5090  0.5012
 7486SOL    HW226051   3.960   7.748   2.802  0.2899 -1.0982 -0.5511
 7487SOL     OW26052   7.676   7.160   8.870  0.4006  0.2845  0.5214
 7487SOL    HW126053   7.643   7.238   8.915  0.1261  1.4610 -1.5716
 7487SOL    HW226054   7.762   7.186   8.837  0.0523 -0.0527 -0.7048
 7488SOL     OW26055   5.241   5.679   1.939  0.0075  0.0767 -0.1348
 7488SOL    HW126056   5.290   5.682   2.021  1.1898 -2.8936 -0.6112
 7488SOL    HW226057   5.262   5.762   1.896  2.8365 -0.0679  0.7273
 7489SOL     OW26058   0.662   2.624   3.697  0.1683  0.2629 -0.4383
 7489SOL    HW126059   0.687   2.716   3.703  0.5405  0.1741 -0.5516
 7489SOL    HW226060   0.674   2.590   3.786 -0.5579  0.4634 -0.2562
 7490SOL     OW26061   8.766   8.170  10.207 -0.7201  0.1528  0.0214
 7490SOL    HW126062   8.736   8.194  10.119 -1.6206 -2.3211 -0.4190
 7490SOL    HW226063   8.689   8.181  10.262 -0.7166 -0.2272  0.1040
 7491SOL     OW26064   6.602   0.976   8.842  0.3549  0.4898  0.2420
 7491SOL    HW126065   6.607   0.904   8.906 -1.5578  0.0949 -0.0006
 7491SOL    HW226066   6.559   1.047   8.889 -0.8155  0.2935 -0.4886
 7492SOL     OW26067   7.203   4.405   0.047 -0.0942  1.0035 -0.3547
 7492SOL    HW126068   7.192   4.354   0.127  2.4092 -0.1557 -0.6396
 7492SOL    HW226069   7.222   4.493   0.077  2.1024  0.3209  0.4669
 7493SOL     OW26070   4.873   1.816   5.880 -0.2061  0.0644 -0.0481
 7493SOL    HW126071   4.862   1.867   5.960 -1.5887  0.9747 -0.7861
 7493SOL    HW226072   4.949   1.854   5.837 -0.5146  0.7264 -0.0127
 7494SOL     OW26073   8.851   4.893   7.580 -0.6094 -0.3223  0.8129
 7494SOL    HW126074   8.914   4.898   7.509 -2.1919 -1.0911 -0.7384
 7494SOL    HW226075   8.778   4.842   7.544 -1.5657 -0.5915  2.9384
 7495SOL     OW26076   4.530   9.118   1.751  0.1228 -0.3433  0.9392
 7495SOL    HW126077   4.508   9.199   1.705  1.4986 -1.3278 -1.6369
 7495SOL    HW226078   4.446   9.071   1.758 -0.4215  0.6198  1.1367
 7496SOL     OW26079   5.058  10.957  11.102 -0.3558  0.2897  0.1291
 7496SOL    HW126080   5.029  11.018  11.169 -2.7319 -2.0295  1.3817
 7496SOL    HW226081   5.075  11.012  11.025 -1.2305  2.6076  1.4963
 7497SOL     OW26082   5.349   9.393   6.275 -0.3389  0.5665  0.2527
 7497SOL    HW126083   5.258   9.396   6.306  0.2225  0.8945  1.9437
 7497SOL    HW226084   5.394   9.337   6.338  0.0459 -2.2609 -2.3147
 7498SOL     OW26085   8.265  10.192   1.554 -0.2458 -0.4909  0.2411
 7498SOL    HW126086   8.220  10.111   1.531  1.3658 -1.1825 -0.6294
 7498SOL    HW226087   8.311  10.172   1.636  0.6856 -0.7086 -0.3123
 7499SOL     OW26088   4.267  10.983  10.765 -0.8760 -0.1508  0.0726
 7499SOL    HW126089   4.257  10.890  10.785  1.0598 -0.9063 -2.0751
 7499SOL    HW226090   4.239  10.991  10.674 -0.4150  1.2238  0.0336
 7500SOL     OW26091   3.877   0.495   2.547  0.0329 -0.1903  0.0515
 7500SOL    HW126092   3.906   0.562   2.608  1.5841 -1.9299  1.3301
 7500SOL    HW226093   3.786   0.516   2.530  0.5468  2.4354  0.0821
 7501SOL     OW26094   5.726   4.869   7.243  0.5117  0.0326 -0.1235
 7501SOL    HW126095   5.750   4.962   7.245 -0.3817  0.2935 -0.9659
 7501SOL    HW226096   5.810   4.823   7.243  0.9779  0.7473  2.2544
 7502SOL     OW26097   9.389   2.169   3.051  0.2768  0.1405 -0.3643
 7502SOL    HW126098   9.454   2.239   3.042 -0.4137  0.7811 -0.3968
 7502SOL    HW226099   9.355   2.156   2.963 -2.1328  2.2338  0.1722
 7503SOL     OW26100   4.172   7.349   8.295 -0.1780  0.2005  0.1539
 7503SOL    HW126101   4.174   7.442   8.270  0.4568  0.0979 -0.2051
 7503SOL    HW226102   4.172   7.302   8.212  0.0130 -0.1251  0.3397
 7504SOL     OW26103   2.681   5.917   2.610 -1.0112 -0.9093 -0.8636
 7504SOL    HW126104   2.756   5.858   2.609  0.4801  0.8067  0.5937
 7504SOL    HW226105   2.719   6.004   2.624 -3.2218  0.1675 -1.0128
 7505SOL     OW26106   2.720   3.978   3.584  0.0628  0.0900  0.0301
 7505SOL    HW126107   2.802   3.939   3.556  0.0939  0.0206  0.2129
 7505SOL    HW226108   2.663   3.972   3.508  0.1686 -0.0283 -0.0401
 7506SOL     OW26109   4.558   2.057   5.193 -0.1719  0.7437  0.5416
 7506SOL    HW126110   4.543   2.106   5.112 -0.8549 -0.6869 -0.2408
 7506SOL    HW226111   4.595   2.121   5.254 -0.6970  2.1216 -0.5440
 7507SOL     OW26112   3.252   0.563   2.510  0.3818 -0.7573 -0.1859
 7507SOL    HW126113   3.174   0.560   2.454 -0.4384 -2.1547  0.9696
 7507SOL    HW226114   3.219   0.548   2.598  1.6236  1.6090  0.7751
 7508SOL     OW26115   1.876   0.536   8.669  0.2314 -0.0122 -0.1242
 7508SOL    HW126116   1.855   0.503   8.582 -2.4967 -0.0436  0.4773
 7508SOL    HW226117   1.946   0.600   8.654  0.5963 -0.8218 -2.1615
 7509SOL     OW26118   3.374   9.925   6.404  0.6324 -0.2307 -0.0416
 7509SOL    HW126119   3.370   9.836   6.370 -1.1550  0.3336 -1.4274
 7509SOL    HW226120   3.340   9.918   6.493  0.8624 -0.9699 -0.0028
 7510SOL     OW26121   3.478   5.749   2.026  0.2484  0.7489 -0.1803
 7510SOL    HW126122   3.405   5.810   2.022  0.0638  0.6443  1.1207
 7510SOL    HW226123   3.556   5.804   2.021  0.1678  0.7580 -3.1202
 7511SOL     OW26124   2.387   3.809   4.463  0.3942  0.5510 -0.2171
 7511SOL    HW126125   2.448   3.837   4.532  1.8725 -2.6426 -0.0284
 7511SOL    HW226126   2.307   3.786   4.510  0.9353 -0.3096  0.3282
 7512SOL     OW26127   8.556   5.433   7.806 -0.4810 -0.2017  0.1566
 7512SOL    HW126128   8.495   5.492   7.850 -0.3339 -1.4082  2.0654
 7512SOL    HW226129   8.568   5.472   7.719 -1.0092  2.1185  1.0437
 7513SOL     OW26130   8.053   3.680   0.873  0.1510 -0.0334 -0.0496
 7513SOL    HW126131   8.089   3.592   0.884 -0.2793 -0.6219 -2.7275
 7513SOL    HW226132   8.038   3.711   0.963  1.4764 -2.1646  0.9909
 7514SOL     OW26133   9.541   8.105   0.182 -0.2341 -0.2130  0.5177
 7514SOL    HW126134   9.525   8.018   0.145 -2.1122  0.5195 -0.5423
 7514SOL    HW226135   9.635   8.117   0.175  0.1845 -2.4478  1.4320
 7515SOL     OW26136   9.967   4.273  10.397 -0.3091 -0.1614 -0.6812
 7515SOL    HW126137  10.050   4.318  10.381 -1.2252  1.2109 -1.7721
 7515SOL    HW226138   9.948   4.227  10.316 -0.6359 -0.4613 -0.4403
 7516SOL     OW26139   6.500  10.121   3.896  0.5406 -0.0081  0.1024
 7516SOL    HW126140   6.562  10.181   3.853  1.8738 -2.2672 -1.2976
 7516SOL    HW226141   6.520  10.035   3.859 -2.1242 -1.1627  1.1355
 7517SOL     OW26142   0.048   7.675   8.890  0.2457 -0.1380 -0.1709
 7517SOL    HW126143   0.082   7.764   8.897 -2.9586  1.6151 -3.3091
 7517SOL    HW226144   0.109   7.630   8.832  0.2020  1.1536 -1.2786
 7518SOL     OW26145   1.241   2.152   3.778 -0.0806 -0.1926 -0.0375
 7518SOL    HW126146   1.205   2.224   3.830 -0.0534 -0.2456  0.0546
 7518SOL    HW226147   1.167   2.092   3.767  0.3531 -1.0401  1.4365
 7519SOL     OW26148   8.798  10.606   9.599  0.2409 -0.2583  0.3970
 7519SOL    HW126149   8.798  10.697   9.629 -2.6813 -0.5359  1.5876
 7519SOL    HW226150   8.818  10.612   9.506 -0.1722  1.6382  0.3749
 7520SOL     OW26151   9.251   7.780   5.945  0.4828 -0.5500  0.3288
 7520SOL    HW126152   9.219   7.827   6.022  0.5621 -0.3633  0.2484
 7520SOL    HW226153   9.171   7.753   5.899  0.3582 -2.5784  1.6028
 7521SOL     OW26154   9.659   4.902   4.736  0.2749 -0.0632  0.3294
 7521SOL    HW126155   9.629   4.940   4.654 -2.1646  0.8577  1.5594
 7521SOL    HW226156   9.738   4.951   4.758 -0.0363  0.8735 -0.5822
 7522SOL     OW26157   2.359   7.603   5.647  0.5089 -0.2828  0.6308
 7522SOL    HW126158   2.441   7.653   5.656  0.2938  0.2602 -0.3664
 7522SOL    HW226159   2.387   7.518   5.613  0.7737 -0.5135  1.4040
 7523SOL     OW26160   7.635  10.881   5.689  0.2402  0.4380  0.3684
 7523SOL    HW126161   7.629  10.953   5.752  0.1594  1.0716 -0.3522
 7523SOL    HW226162   7.724  10.887   5.655  0.6362 -0.5700  1.1957
 7524SOL     OW26163   0.243   9.342   7.354  0.0340 -0.4554  0.4023
 7524SOL    HW126164   0.220   9.330   7.446  1.0287 -0.2935  0.6876
 7524SOL    HW226165   0.305   9.415   7.354  0.8542 -1.1269 -0.2646
 7525SOL     OW26166   8.998   4.544   3.603 -0.7350 -0.0344  0.3269
 7525SOL    HW126167   8.941   4.536   3.680 -0.8321  0.3170  0.2955
 7525SOL    HW226168   8.938   4.560   3.530 -0.6465 -0.4351  0.1686
 7526SOL     OW26169   9.040   3.306   8.568 -0.6856  0.2190  0.0027
 7526SOL    HW126170   8.992   3.224   8.573  0.3343 -0.5418 -1.5213
 7526SOL    HW226171   8.975   3.374   8.584 -1.2012 -0.8771  3.2677
 7527SOL     OW26172   9.948  10.413  10.535  0.0737 -0.3118  0.3722
 7527SOL    HW126173   9.896  10.403  10.615 -0.4539  0.8100  0.1913
 7527SOL    HW226174   9.884  10.406  10.464  0.4384 -0.6296  0.0680
 7528SOL     OW26175   5.161   7.980   8.046  0.5930 -0.5866  0.1585
 7528SOL    HW126176   5.218   7.917   8.003  0.8711 -0.1413 -0.1414
 7528SOL    HW226177   5.134   7.938   8.128  0.2111 -1.3654 -0.3662
 7529SOL     OW26178   2.133   4.842   9.620  0.1138 -0.1716 -0.4441
 7529SOL    HW126179   2.059   4.894   9.589 -0.8054 -1.2110 -0.0640
 7529SOL    HW226180   2.165   4.796   9.542 -0.4061 -0.6316 -0.3896
 7530SOL     OW26181   9.313   7.279   3.911 -0.6624  0.1412 -0.7549
 7530SOL    HW126182   9.349   7.368   3.906  0.7437 -0.1454  2.2734
 7530SOL    HW226183   9.379   7.225   3.867  0.4315  0.1907  0.7476
 7531SOL     OW26184   8.751   5.594   8.494 -0.0415 -0.0173  0.3917
 7531SOL    HW126185   8.810   5.631   8.559  0.7356  2.2259 -1.4687
 7531SOL    HW226186   8.664   5.626   8.518  0.5072  2.5621 -0.7105
 7532SOL     OW26187   0.842   6.413   0.403 -0.0851  0.5747  0.3996
 7532SOL    HW126188   0.852   6.490   0.459 -0.0970  0.4652  0.5522
 7532SOL    HW226189   0.761   6.373   0.432 -0.4149  0.8622 -0.1142
 7533SOL     OW26190   0.400  10.062   8.122  0.3980 -0.3451 -0.0293
 7533SOL    HW126191   0.448  10.144   8.108  1.4427 -1.2223 -1.9843
 7533SOL    HW226192   0.457  10.010   8.178  1.4284 -1.0426 -1.6407
 7534SOL     OW26193   7.267   8.084   9.064 -0.1235 -0.2271 -0.2535
 7534SOL    HW126194   7.184   8.066   9.020  0.7512 -0.2748 -1.9566
 7534SOL    HW226195   7.297   8.167   9.026  0.2255  0.2316  0.9678
 7535SOL     OW26196  10.863   8.319   2.951 -0.0123  0.2098  0.3241
 7535SOL    HW126197  10.899   8.231   2.941 -2.0276 -0.7125  0.5809
 7535SOL    HW226198  10.931   8.377   2.916  1.9777 -1.2996  1.4569
 7536SOL     OW26199   8.231   3.694   8.063  0.4165  0.4764  0.1633
 7536SOL    HW126200   8.223   3.705   8.157  1.4172  0.8758  0.2069
 7536SOL    HW226201   8.324   3.681   8.047  0.2154  0.0372 -0.7317
 7537SOL     OW26202   4.127   1.873  10.109 -0.0558 -1.0454  0.0137
 7537SOL    HW126203   4.086   1.871  10.195 -0.6555 -0.1005 -0.2317
 7537SOL    HW226204   4.100   1.791  10.067 -3.4195  0.3565 -0.8769
 7538SOL     OW26205   7.688   8.905   5.145 -0.1359 -0.0939  0.6705
 7538SOL    HW126206   7.749   8.940   5.080 -1.2056  0.6813  0.0536
 7538SOL    HW226207   7.735   8.831   5.185  0.1542 -1.3247 -1.7477
 7539SOL     OW26208   2.868   2.670   6.096  0.8639  0.2516 -0.3383
 7539SOL    HW126209   2.801   2.609   6.066 -0.9727  1.4902  1.0629
 7539SOL    HW226210   2.893   2.637   6.183  1.9237 -0.0558 -0.7413
 7540SOL     OW26211  10.812   8.962  10.463  0.4538  0.0361 -0.2975
 7540SOL    HW126212  10.820   8.908  10.385  1.0861  1.8685 -1.5554
 7540SOL    HW226213  10.749   8.915  10.518 -0.7892 -0.8093 -2.3412
 7541SOL     OW26214   9.956   0.961   6.323 -0.2175 -0.6561  0.4840
 7541SOL    HW126215  10.048   0.975   6.344 -0.5429  1.1820  0.8915
 7541SOL    HW226216   9.911   1.038   6.359 -1.5290 -0.0436 -2.1823
 7542SOL     OW26217   5.030   1.779   8.153  0.0364  0.1316 -0.4865
 7542SOL    HW126218   4.952   1.824   8.121  0.2800  0.6800 -0.3123
 7542SOL    HW226219   5.076   1.844   8.205  0.5543 -0.2227 -0.4920
 7543SOL     OW26220   5.520   4.693   3.262  0.1177  0.2320 -0.1114
 7543SOL    HW126221   5.426   4.711   3.269 -0.2174 -1.3210 -0.2564
 7543SOL    HW226222   5.532   4.662   3.173  0.3090 -1.8685  0.5835
 7544SOL     OW26223  10.957   3.186  11.036  0.5535  0.2078  0.6949
 7544SOL    HW126224  10.962   3.215  11.127  0.4489  1.0524  0.4404
 7544SOL    HW226225  10.889   3.118  11.036 -0.0849  0.8396  1.0841
 7545SOL     OW26226   8.017   6.195   2.655 -0.9829 -0.3569 -0.2228
 7545SOL    HW126227   8.015   6.254   2.580 -0.0687 -0.0055  0.0137
 7545SOL    HW226228   8.003   6.108   2.617 -0.9307 -0.1416 -0.7450
 7546SOL     OW26229   4.150   3.426   6.300 -0.2006  0.5930 -0.7572
 7546SOL    HW126230   4.130   3.428   6.206  0.0234  1.0986 -0.7959
 7546SOL    HW226231   4.069   3.396   6.342 -0.3790  0.6118 -1.0865
 7547SOL     OW26232   6.852   1.707   8.946  0.1311 -0.0866  0.3875
 7547SOL    HW126233   6.879   1.669   9.030 -0.6966 -1.1906  0.1736
 7547SOL    HW226234   6.875   1.641   8.881 -2.1001 -0.6473  0.0913
 7548SOL     OW26235   1.640   9.635   9.757  0.4126  0.2460 -0.5197
 7548SOL    HW126236   1.560   9.637   9.704 -0.2228 -1.5525  0.2865
 7548SOL    HW226237   1.627   9.702   9.823  0.5850  1.5210 -1.7279
 7549SOL     OW26238   2.680   7.505   0.287 -0.3233 -0.1124  0.0604
 7549SOL    HW126239   2.667   7.415   0.318 -0.6009  0.1982  0.8766
 7549SOL    HW226240   2.756   7.500   0.229 -0.7888 -1.0015 -0.4895
 7550SOL     OW26241   1.184   0.317   3.381  0.1651  0.2056  0.0151
 7550SOL    HW126242   1.225   0.247   3.431  0.5675  1.4732  1.5625
 7550SOL    HW226243   1.158   0.277   3.299  0.5309 -1.7001  0.7888
 7551SOL     OW26244   6.978   5.947   4.074 -0.3319  0.3913  0.4257
 7551SOL    HW126245   6.949   5.939   4.165 -1.0788 -0.2788  0.1458
 7551SOL    HW226246   7.023   6.032   4.070 -0.3523  0.4590  1.3961
 7552SOL     OW26247   6.807   3.083   1.029  0.4358  0.6002 -0.2264
 7552SOL    HW126248   6.744   3.133   1.081 -1.7903  0.6614 -2.7857
 7552SOL    HW226249   6.892   3.110   1.064 -0.8281  1.9778  2.1195
 7553SOL     OW26250   4.944   4.258   7.774 -0.4222  0.2909 -0.2355
 7553SOL    HW126251   5.015   4.210   7.816 -0.1056 -0.4965 -1.6131
 7553SOL    HW226252   4.986   4.335   7.736 -0.8794  1.5671  1.7136
 7554SOL     OW26253   9.964   9.154   3.991  0.0085  0.0311  0.0667
 7554SOL    HW126254   9.928   9.139   3.904 -1.9019  1.6846  0.5060
 7554SOL    HW226255   9.925   9.086   4.045  0.4977 -0.4494 -0.1741
 7555SOL     OW26256   7.501   5.010  10.656 -0.4946 -0.3187 -0.0295
 7555SOL    HW126257   7.537   5.016  10.568 -0.9705 -0.6868 -0.2563
 7555SOL    HW226258   7.496   5.101  10.686 -0.4416 -0.1799 -0.4296
 7556SOL     OW26259   2.150   2.681   4.997  0.2251 -0.3717  0.2475
 7556SOL    HW126260   2.060   2.714   5.008  0.7612  0.5373  2.3998
 7556SOL    HW226261   2.153   2.650   4.906 -1.3732  2.4297 -0.8952
 7557SOL     OW26262   8.040   2.930   6.156  0.6166  0.7537  0.3292
 7557SOL    HW126263   8.081   2.981   6.226  2.1166  1.3719 -0.9510
 7557SOL    HW226264   8.074   2.841   6.167 -1.3518  0.1294  2.0502
 7558SOL     OW26265   7.346   0.636   2.760  0.0900  0.6791  0.5827
 7558SOL    HW126266   7.272   0.697   2.759  0.0787  0.6752 -0.2899
 7558SOL    HW226267   7.341   0.592   2.844 -0.1184  1.6291  1.0759
 7559SOL     OW26268   1.123   7.327   1.353 -0.3687 -0.5337 -0.3898
 7559SOL    HW126269   1.070   7.253   1.381  0.1074 -0.7586 -0.0823
 7559SOL    HW226270   1.207   7.289   1.327 -0.1911 -0.1296 -0.4270
 7560SOL     OW26271   0.806   2.889   7.670 -0.0440 -1.1056 -0.3245
 7560SOL    HW126272   0.811   2.834   7.592 -0.8013  0.5791 -1.6248
 7560SOL    HW226273   0.719   2.927   7.667  0.2672 -0.2356  0.8308
 7561SOL     OW26274   7.463  10.879   0.576  0.5117 -0.5521  0.2416
 7561SOL    HW126275   7.501  10.896   0.663  2.1715 -0.3820 -0.4729
 7561SOL    HW226276   7.370  10.864   0.593  0.8902 -1.0654  2.1080
 7562SOL     OW26277   7.515   7.337   5.703  1.0174  0.5875 -0.0865
 7562SOL    HW126278   7.422   7.324   5.685  1.0200  0.8959 -0.3305
 7562SOL    HW226279   7.517   7.406   5.770  1.1092  1.5607 -1.0533
 7563SOL     OW26280   4.572   3.698  10.544  0.0749 -0.2127  0.1056
 7563SOL    HW126281   4.524   3.767  10.589 -0.6484 -1.5347  1.4373
 7563SOL    HW226282   4.538   3.700  10.454 -0.3123  0.7985  0.2648
 7564SOL     OW26283  10.231   9.043   1.707 -0.3388  0.1649  0.5358
 7564SOL    HW126284  10.322   9.022   1.691 -0.3473 -0.3226  1.0866
 7564SOL    HW226285  10.233   9.130   1.747 -0.1709  0.4487 -0.0833
 7565SOL     OW26286   5.929   5.068   2.264 -0.1758 -0.3222  0.2383
 7565SOL    HW126287   5.952   5.052   2.355 -1.7055 -0.6778  0.6007
 7565SOL    HW226288   5.885   4.987   2.236 -0.1582 -0.0379 -0.6581
 7566SOL     OW26289   3.834  10.756   5.577 -1.1487 -0.0762 -0.1056
 7566SOL    HW126290   3.819  10.672   5.621 -1.5052 -1.0218 -1.9402
 7566SOL    HW226291   3.747  10.796   5.571 -0.9226  0.6579  1.1395
 7567SOL     OW26292   3.473   1.016   3.647  0.2013  0.0963 -0.6098
 7567SOL    HW126293   3.439   0.976   3.567  2.8137 -0.0926 -1.7133
 7567SOL    HW226294   3.484   0.943   3.708 -1.0451  0.1297 -0.3180
 7568SOL     OW26295   9.306   5.440   7.481  0.4337 -0.2892 -0.1066
 7568SOL    HW126296   9.381   5.491   7.508 -0.4896  0.6430  0.7848
 7568SOL    HW226297   9.231   5.499   7.492 -0.5263 -1.4469 -0.1775
 7569SOL     OW26298   6.401   9.151   2.781 -0.2851 -0.3015  0.4832
 7569SOL    HW126299   6.446   9.124   2.861 -1.8286 -1.9941  0.8623
 7569SOL    HW226300   6.464   9.133   2.711 -0.0774 -1.9740  1.0464
 7570SOL     OW26301   1.581   0.650   4.161  0.3997 -1.1619  0.2839
 7570SOL    HW126302   1.524   0.640   4.237  1.2480  0.0096  1.1182
 7570SOL    HW226303   1.650   0.585   4.173  1.2205 -0.1634  1.2129
 7571SOL     OW26304   1.379   2.977   9.135 -0.2856 -0.2047  0.9443
 7571SOL    HW126305   1.324   2.945   9.064  0.0672 -0.7202  0.8975
 7571SOL    HW226306   1.398   2.900   9.188  1.0392 -0.2052  0.5160
 7572SOL     OW26307   3.622   9.631  10.579 -0.6448  0.3119  0.2358
 7572SOL    HW126308   3.629   9.725  10.588  0.3258  0.3297 -0.5670
 7572SOL    HW226309   3.656   9.595  10.661 -1.2190  0.6452  0.6291
 7573SOL     OW26310  10.684   0.971   2.480  0.2570  0.0438  0.3216
 7573SOL    HW126311  10.661   0.879   2.470  0.3657  0.0044  0.4385
 7573SOL    HW226312  10.604   1.013   2.513  0.7184 -0.3103  1.9702
 7574SOL     OW26313   2.938  11.006   2.625 -0.2856  0.3091 -0.0012
 7574SOL    HW126314   2.928  11.096   2.655  2.4774  0.5399  0.5173
 7574SOL    HW226315   3.028  11.001   2.593  0.2198 -2.6452  1.4780
 7575SOL     OW26316   3.448   7.783   6.201  0.1026  0.4948  0.2300
 7575SOL    HW126317   3.440   7.728   6.280  0.3135 -0.8029 -0.6140
 7575SOL    HW226318   3.365   7.831   6.197 -0.1215  0.1935  0.9642
 7576SOL     OW26319   9.011  10.854   7.455 -0.3855  0.3451 -0.5395
 7576SOL    HW126320   9.009  10.789   7.385 -0.0546  1.4942 -1.6568
 7576SOL    HW226321   9.104  10.869   7.472 -0.4398 -0.8306  1.0697
 7577SOL     OW26322  10.534   9.201   6.011 -0.3384 -0.1538  0.1084
 7577SOL    HW126323  10.525   9.119   5.962 -0.4328  0.6283 -1.2268
 7577SOL    HW226324  10.446   9.239   6.012 -0.0484  0.5723 -0.4732
 7578SOL     OW26325   3.194   7.395   8.505 -0.3922  0.1394 -0.3156
 7578SOL    HW126326   3.248   7.335   8.556 -0.8351  1.1627  1.4184
 7578SOL    HW226327   3.143   7.444   8.570 -0.2434  2.2211 -1.6698
 7579SOL     OW26328   6.462   6.727   2.908 -0.0345 -0.4516 -0.4093
 7579SOL    HW126329   6.551   6.730   2.873  0.1062 -0.6436 -0.0731
 7579SOL    HW226330   6.406   6.715   2.831  0.2664 -0.8340 -0.5731
 7580SOL     OW26331   3.267   2.724   3.581  0.0197 -0.3980 -0.0916
 7580SOL    HW126332   3.179   2.733   3.617  0.1017 -1.6961  0.4950
 7580SOL    HW226333   3.322   2.777   3.639 -0.6040  2.0226 -1.5944
 7581SOL     OW26334   4.908  11.107   6.741 -0.2901  0.3955 -0.3478
 7581SOL    HW126335   4.916  11.194   6.702  2.9374  0.7823  0.8591
 7581SOL    HW226336   4.889  11.123   6.833 -0.9294 -0.2569 -0.3562
 7582SOL     OW26337   7.054   2.477   2.337 -0.4107 -0.3889  0.5304
 7582SOL    HW126338   7.116   2.518   2.397  0.7677  0.0207 -0.8950
 7582SOL    HW226339   7.014   2.551   2.291  0.2714 -0.7353 -0.6649
 7583SOL     OW26340   0.963   9.855   5.213  0.2956 -0.3957 -0.0293
 7583SOL    HW126341   0.884   9.849   5.159 -0.1005  1.0740  0.3378
 7583SOL    HW226342   0.934   9.829   5.301  0.3399 -0.3639 -0.0052
 7584SOL     OW26343   2.077   7.540   3.001  0.1796  0.1524 -0.1693
 7584SOL    HW126344   2.139   7.603   3.038  0.3492  0.0553 -0.2889
 7584SOL    HW226345   2.027   7.589   2.937 -0.0421  0.2954  0.1103
 7585SOL     OW26346   9.418   7.098   5.464 -0.2769 -0.1573 -0.0043
 7585SOL    HW126347   9.417   7.130   5.554 -1.1216  2.5879 -0.8950
 7585SOL    HW226348   9.381   7.010   5.469  0.8087 -0.5513  2.4428
 7586SOL     OW26349  10.771   2.947   7.338  0.4859 -0.3857  0.1792
 7586SOL    HW126350  10.866   2.944   7.327  0.5663 -0.1048  0.7564
 7586SOL    HW226351  10.758   2.952   7.433 -0.0288  1.8373  0.0502
 7587SOL     OW26352   4.853   6.069   8.582  0.1472 -0.5268 -0.1291
 7587SOL    HW126353   4.850   5.990   8.637  0.7845  0.6824  1.7437
 7587SOL    HW226354   4.851   6.141   8.644 -1.5659  0.9982 -1.8571
 7588SOL     OW26355   5.501   0.154   3.804  0.5156 -0.4745  0.1034
 7588SOL    HW126356   5.510   0.067   3.766  0.8501  0.5101 -2.2346
 7588SOL    HW226357   5.555   0.151   3.883  1.6088 -1.9773 -0.6464
 7589SOL     OW26358   8.392   3.416   2.355  0.3480 -0.2287  0.2588
 7589SOL    HW126359   8.449   3.435   2.280  0.3282 -0.4548  0.1867
 7589SOL    HW226360   8.422   3.476   2.423  0.0910  0.2756 -0.0645
 7590SOL     OW26361   8.217   7.869   4.935 -0.0456  0.9998 -0.0182
 7590SOL    HW126362   8.195   7.776   4.934  0.5239  0.7115  3.2544
 7590SOL    HW226363   8.275   7.881   4.860 -0.0037 -1.3305 -0.4242
 7591SOL     OW26364   7.305   7.432   1.965 -0.4076  0.7874  0.4736
 7591SOL    HW126365   7.224   7.383   1.982 -0.0240  0.2578  0.8117
 7591SOL    HW226366   7.295   7.463   1.875 -0.7728  0.2996  0.3400
 7592SOL     OW26367   4.018   5.672   3.809 -0.2449  0.5138 -0.2463
 7592SOL    HW126368   4.103   5.711   3.831 -0.7560  1.0501  0.8381
 7592SOL    HW226369   4.031   5.578   3.822 -0.0514  0.6681  0.7464
 7593SOL     OW26370  10.451   0.431   0.392  0.6459  0.3191  0.0157
 7593SOL    HW126371  10.463   0.479   0.473  1.7199 -1.9914  1.3238
 7593SOL    HW226372  10.532   0.381   0.381  0.2649  0.0496 -2.1484
 7594SOL     OW26373   0.328   5.404   4.081 -0.5831  0.2846 -0.0134
 7594SOL    HW126374   0.290   5.442   4.160  0.7751  2.6127 -0.4030
 7594SOL    HW226375   0.262   5.341   4.052 -2.1760  1.0614  1.6619
 7595SOL     OW26376   5.977   0.835   1.935  0.9761  0.1367  0.3357
 7595SOL    HW126377   5.899   0.862   1.886  0.1471 -0.9818  0.9762
 7595SOL    HW226378   6.025   0.916   1.951  0.8502  0.6282 -1.5759
 7596SOL     OW26379   5.784   9.513   0.706  0.3833  0.2556  0.2397
 7596SOL    HW126380   5.780   9.552   0.794  0.2376 -0.4614  0.5567
 7596SOL    HW226381   5.876   9.488   0.697  0.3316  0.0367  0.3180
 7597SOL     OW26382   4.960  10.520   7.996 -0.3626 -0.1409  0.6859
 7597SOL    HW126383   4.872  10.543   7.966 -0.1873 -0.0542  0.2188
 7597SOL    HW226384   4.997  10.604   8.025 -0.2729 -0.0990  0.4514
 7598SOL     OW26385   2.338   9.997   9.177  0.2853  0.0169 -0.0035
 7598SOL    HW126386   2.384   9.931   9.227 -0.0039  0.6204  1.0873
 7598SOL    HW226387   2.246   9.987   9.202 -0.1765 -0.9469 -1.8860
 7599SOL     OW26388   0.253   8.403  10.185  0.2501 -0.1718 -0.2194
 7599SOL    HW126389   0.297   8.331  10.139 -1.6484 -2.7467  1.6606
 7599SOL    HW226390   0.248   8.474  10.121  2.9485 -1.3794 -1.9373
 7600SOL     OW26391   1.446   9.611   8.991  0.1334 -0.3907  0.3372
 7600SOL    HW126392   1.540   9.595   8.987 -0.3045 -3.2433 -0.3528
 7600SOL    HW226393   1.434   9.694   8.946  2.2525 -0.2351 -0.0272
 7601SOL     OW26394  10.588   8.813   4.375  0.4494  0.7764  0.1750
 7601SOL    HW126395  10.653   8.752   4.342  0.1575  1.0908 -1.0046
 7601SOL    HW226396  10.532   8.760   4.432  1.0989  0.2870  0.3752
 7602SOL     OW26397   2.841   4.985   0.080  0.5185 -0.1524 -0.2259
 7602SOL    HW126398   2.900   4.910   0.072  0.1984 -0.2213 -3.0582
 7602SOL    HW226399   2.756   4.947   0.101  1.1452 -0.1531  2.6152
 7603SOL     OW26400   6.011   0.988   9.281 -0.1843 -0.5946  0.2385
 7603SOL    HW126401   6.058   1.070   9.300  0.1778 -0.5457 -0.8259
 7603SOL    HW226402   5.974   0.963   9.365 -1.5767  1.4502  0.3088
 7604SOL     OW26403   4.834   0.748   1.191 -1.1142 -0.3545 -0.3570
 7604SOL    HW126404   4.861   0.833   1.156 -0.9492  0.1345  0.9157
 7604SOL    HW226405   4.743   0.759   1.216 -1.0250 -0.4675  0.0358
 7605SOL     OW26406   3.572  10.171   9.255  0.4126  0.1556  0.7381
 7605SOL    HW126407   3.548  10.263   9.257  1.0272  0.3949 -1.1614
 7605SOL    HW226408   3.667  10.171   9.246  0.4729 -0.6723  1.2859
 7606SOL     OW26409  10.977   1.037  10.132 -0.0818 -0.1911  0.5883
 7606SOL    HW126410  10.939   0.978  10.197 -1.9530  0.2855 -0.0016
 7606SOL    HW226411  11.012   0.979  10.064 -2.4756 -0.6975 -0.3075
 7607SOL     OW26412  10.938   0.071   6.444  0.6744 -0.5443 -0.1967
 7607SOL    HW126413  11.023   0.056   6.486  1.4144  2.2363 -0.5087
 7607SOL    HW226414  10.878   0.085   6.517  1.2668  0.9855  0.0359
 7608SOL     OW26415   0.751   9.958  10.319  0.6444  0.4662 -0.2934
 7608SOL    HW126416   0.700  10.006  10.254  0.4327 -0.8802 -1.1613
 7608SOL    HW226417   0.686   9.914  10.374  0.8401  0.9946  0.3839
 7609SOL     OW26418   5.772   2.787   6.863  0.7999  0.1812  0.4468
 7609SOL    HW126419   5.829   2.713   6.843  0.8272  0.1858  0.5071
 7609SOL    HW226420   5.791   2.808   6.955 -0.6567 -1.0436  1.0765
 7610SOL     OW26421   3.475   5.790   5.600 -0.4748  0.3754 -0.1261
 7610SOL    HW126422   3.557   5.813   5.644 -1.2058  1.4000  0.7394
 7610SOL    HW226423   3.497   5.789   5.507  0.3461  1.3778  0.0441
 7611SOL     OW26424   0.174  10.453  11.057  0.9307  0.3568  0.2948
 7611SOL    HW126425   0.147  10.534  11.100  1.7125  0.2988  0.9268
 7611SOL    HW226426   0.226  10.407  11.123 -2.4379 -2.4227  1.2808
 7612SOL     OW26427   3.880   1.528   8.417  0.5814 -0.1256 -0.4085
 7612SOL    HW126428   3.800   1.580   8.425  1.4015  1.2395 -0.8392
 7612SOL    HW226429   3.916   1.526   8.506 -0.0352 -0.9643 -0.1596
 7613SOL     OW26430   4.895   3.087   5.859  0.1369 -0.0951 -0.0704
 7613SOL    HW126431   4.927   3.150   5.924 -0.2636  1.4831 -1.3612
 7613SOL    HW226432   4.940   3.006   5.881  0.1751  0.4299  2.0477
 7614SOL     OW26433   6.013   6.066   1.609 -0.3140 -0.1846 -0.1527
 7614SOL    HW126434   6.035   5.975   1.586  0.2357 -0.5065  1.4989
 7614SOL    HW226435   5.952   6.093   1.541  0.0191 -1.5671 -1.0635
 7615SOL     OW26436   1.461  10.914   9.308 -0.5336 -0.0412 -0.4085
 7615SOL    HW126437   1.386  10.862   9.337 -0.6779  0.3037 -0.1598
 7615SOL    HW226438   1.456  10.912   9.213 -1.7757  1.2839 -0.3974
 7616SOL     OW26439   4.225   0.280   2.802 -0.1719  0.2719 -0.4106
 7616SOL    HW126440   4.303   0.229   2.778 -1.3968 -0.8572 -2.2420
 7616SOL    HW226441   4.173   0.283   2.722 -2.2056  0.6664  0.8561
 7617SOL     OW26442   0.876   4.012   8.689 -0.1948  0.1668  0.0118
 7617SOL    HW126443   0.857   4.014   8.782  1.3015  0.0455  0.3547
 7617SOL    HW226444   0.944   3.945   8.680  4.0119  3.9649 -0.1644
 7618SOL     OW26445   6.213   7.191   1.358 -0.6584 -0.2284  0.7738
 7618SOL    HW126446   6.199   7.286   1.349  1.9008  0.1261 -0.5536
 7618SOL    HW226447   6.272   7.182   1.433 -0.8575 -0.7775  0.8690
 7619SOL     OW26448  10.944   1.941  10.825  0.0515  0.1976  0.5651
 7619SOL    HW126449  10.866   1.997  10.823 -0.6494 -0.7609 -0.3216
 7619SOL    HW226450  11.009   1.988  10.772 -1.2705 -0.7730 -2.1271
 7620SOL     OW26451   9.949   0.060   8.257 -0.2380 -0.0941  0.4796
 7620SOL    HW126452   9.916   0.015   8.179 -1.6651  0.0080  0.9833
 7620SOL    HW226453   9.888   0.133   8.269 -0.2603 -0.3225  1.8975
 7621SOL     OW26454   1.694   3.048   7.075 -0.3404 -0.0077 -0.0711
 7621SOL    HW126455   1.634   3.078   7.143  1.8935  0.8648  1.6247
 7621SOL    HW226456   1.716   2.958   7.100 -1.4192 -0.5713 -1.0742
 7622SOL     OW26457   0.048   2.920   8.473  0.9118  0.2184 -0.3830
 7622SOL    HW126458   0.119   2.937   8.535  1.2778  1.4129 -1.0924
 7622SOL    HW226459  -0.009   2.858   8.519  1.8437  0.0617  0.6217
 7623SOL     OW26460   6.765   6.167   4.432  0.5401 -0.0208  0.0776
 7623SOL    HW126461   6.842   6.134   4.477 -0.1668 -1.2728  0.4135
 7623SOL    HW226462   6.795   6.247   4.388  1.5436  0.5691  1.7594
 7624SOL     OW26463   0.099   1.790   5.402 -0.0326  0.3510 -0.3310
 7624SOL    HW126464   0.161   1.747   5.343 -0.2574  0.3168 -0.5425
 7624SOL    HW226465   0.073   1.870   5.355  0.5276  0.8167  0.1411
 7625SOL     OW26466  10.347   8.760   2.001 -0.6502  0.3662  0.1068
 7625SOL    HW126467  10.431   8.726   1.972 -1.3901 -0.6839 -0.8790
 7625SOL    HW226468  10.359   8.777   2.094  0.3860 -0.6329  0.1741
 7626SOL     OW26469   6.932   8.365   9.696 -0.2463  0.0017 -0.0855
 7626SOL    HW126470   7.018   8.351   9.656 -1.0753 -2.1093 -1.2549
 7626SOL    HW226471   6.920   8.460   9.691  0.7745  0.0964 -2.6329
 7627SOL     OW26472   2.002   0.601   5.305 -0.2547  0.2522  0.0747
 7627SOL    HW126473   2.041   0.683   5.334 -0.4754  0.1607  0.6462
 7627SOL    HW226474   2.076   0.548   5.275 -0.0426  0.4328  0.2732
 7628SOL     OW26475   7.351   4.838   4.539  0.1586  0.0337 -0.0120
 7628SOL    HW126476   7.426   4.816   4.484  0.2143  0.7559 -0.2330
 7628SOL    HW226477   7.388   4.884   4.615  0.0497 -0.6508  0.4655
 7629SOL     OW26478   8.379   9.596   6.549 -0.5774  0.8978  0.3694
 7629SOL    HW126479   8.363   9.545   6.628  1.0656  1.1831  0.9403
 7629SOL    HW226480   8.341   9.682   6.569 -0.5200  0.8510  0.6929
 7630SOL     OW26481   6.189   0.077   0.190 -0.0612  0.0825  0.2544
 7630SOL    HW126482   6.151   0.137   0.254 -2.0999 -2.0004  1.1320
 7630SOL    HW226483   6.177   0.120   0.106 -0.2717  1.4678  0.9677
 7631SOL     OW26484   9.133   1.020   5.968  0.1205  0.0204 -1.0835
 7631SOL    HW126485   9.113   1.075   6.044  0.7711  0.8319 -1.4777
 7631SOL    HW226486   9.216   0.978   5.991 -0.3028 -0.6961 -0.8437
 7632SOL     OW26487   8.946  10.098   2.503  0.5451 -0.2459 -0.1305
 7632SOL    HW126488   8.934  10.030   2.570 -0.5801  0.9737  0.9543
 7632SOL    HW226489   9.012  10.062   2.444 -0.9341 -2.8762 -0.3580
 7633SOL     OW26490   5.387   2.462   6.074  0.3010 -0.3261  0.1321
 7633SOL    HW126491   5.361   2.434   5.986 -1.5476  1.4160  0.0285
 7633SOL    HW226492   5.430   2.547   6.061 -1.0143  0.5156  0.9180
 7634SOL     OW26493   2.564   7.644   6.032  0.2379 -0.1663 -0.3934
 7634SOL    HW126494   2.499   7.627   6.100  0.0634 -1.6470 -0.9107
 7634SOL    HW226495   2.531   7.722   5.987  0.0335  0.4635  0.7955
 7635SOL     OW26496   3.568   4.624   8.772 -0.4776 -0.2088  0.5921
 7635SOL    HW126497   3.540   4.546   8.722 -0.7558  1.4483 -2.0485
 7635SOL    HW226498   3.662   4.610   8.787 -0.5257 -1.0634  0.1781
 7636SOL     OW26499   1.952   5.067   6.958  0.0346 -0.4388 -0.1145
 7636SOL    HW126500   2.011   5.068   6.883  1.3349 -1.3038  0.8638
 7636SOL    HW226501   1.946   5.159   6.985  1.7009 -0.4518  0.3489
 7637SOL     OW26502   9.744   2.964   7.757 -0.1774  0.1995  0.8845
 7637SOL    HW126503   9.665   3.012   7.781 -0.4693  0.1536  0.0295
 7637SOL    HW226504   9.815   3.015   7.796 -0.5950  0.4488  1.3334
 7638SOL     OW26505   3.951  10.876   7.911  0.1880 -0.1484 -0.1927
 7638SOL    HW126506   3.959  10.963   7.948 -0.4409  0.2113 -0.8665
 7638SOL    HW226507   4.035  10.860   7.868 -0.1780  0.7327 -1.2967
 7639SOL     OW26508   8.025  10.785   6.162  0.7122  0.0055  0.8989
 7639SOL    HW126509   7.941  10.810   6.122  1.0894 -0.2520 -0.0815
 7639SOL    HW226510   8.029  10.836   6.243  0.2176  1.0203  0.3024
 7640SOL     OW26511   5.662   7.837   9.974  0.0787 -0.3589  0.0289
 7640SOL    HW126512   5.617   7.772   9.919  0.9493 -0.4687 -0.5710
 7640SOL    HW226513   5.619   7.920   9.953  0.6756 -0.3236 -1.1637
 7641SOL     OW26514   1.982   9.226   0.216 -0.2933  0.5287 -0.1411
 7641SOL    HW126515   1.918   9.227   0.288 -0.3213  2.4587 -0.1461
 7641SOL    HW226516   1.933   9.257   0.140 -0.0916 -0.8621 -0.8696
 7642SOL     OW26517  11.095   7.619   3.439  0.1152 -0.1105 -0.3332
 7642SOL    HW126518  11.074   7.604   3.347 -0.9085  1.0901 -0.3281
 7642SOL    HW226519  11.010   7.631   3.481  0.5682 -0.7549  0.7937
 7643SOL     OW26520   0.477   5.769   7.469  0.7822 -0.3147  0.2952
 7643SOL    HW126521   0.483   5.836   7.537  1.8560  0.3586 -0.4316
 7643SOL    HW226522   0.476   5.686   7.516  1.6847  0.1291  1.1368
 7644SOL     OW26523   7.942   5.252  10.688  0.0101 -0.0278  0.2491
 7644SOL    HW126524   8.001   5.233  10.761  1.7158  0.5543 -0.9178
 7644SOL    HW226525   7.947   5.347  10.677 -1.3767  0.0684  0.2852
 7645SOL     OW26526   2.936  10.482   9.780  0.4011  0.5635 -0.0176
 7645SOL    HW126527   3.031  10.472   9.791  0.3268 -0.0665  0.0663
 7645SOL    HW226528   2.928  10.551   9.714  0.9040  1.1911  0.5603
 7646SOL     OW26529   6.619   6.106   8.829 -0.0544 -0.3560  0.4153
 7646SOL    HW126530   6.696   6.066   8.789 -1.2374 -0.1072 -2.3559
 7646SOL    HW226531   6.569   6.033   8.865  0.2912 -0.7795  0.0384
 7647SOL     OW26532   5.956   9.570   1.590  0.2489  0.3705 -0.0220
 7647SOL    HW126533   6.026   9.635   1.586 -0.4974  1.1570 -0.7335
 7647SOL    HW226534   5.914   9.574   1.504  1.0124 -2.0242 -0.5856
 7648SOL     OW26535   1.051   7.686   5.534  0.0150  0.3382 -0.1211
 7648SOL    HW126536   1.015   7.649   5.614  0.3459  1.6513  0.6487
 7648SOL    HW226537   0.976   7.727   5.490 -0.1309 -0.2297 -0.4236
 7649SOL     OW26538   8.627   1.772   6.042  0.5222 -0.1112 -0.2501
 7649SOL    HW126539   8.553   1.817   6.000  1.8886  1.5897 -0.9365
 7649SOL    HW226540   8.639   1.818   6.125  0.3215 -0.9157  0.2382
 7650SOL     OW26541   4.929   8.065   5.168 -0.1349  0.0964 -0.0348
 7650SOL    HW126542   4.941   7.992   5.108 -0.4476  0.2058 -0.2324
 7650SOL    HW226543   4.913   8.024   5.253  0.3285 -0.0572 -0.0177
 7651SOL     OW26544   8.818   9.404   4.621 -0.4851  0.2152 -0.3196
 7651SOL    HW126545   8.871   9.467   4.572 -0.2471 -0.1517 -0.5389
 7651SOL    HW226546   8.878   9.367   4.685 -0.9958  1.2744  0.8049
 7652SOL     OW26547   6.876   3.141   6.220 -0.1301 -0.4738  0.2467
 7652SOL    HW126548   6.912   3.066   6.268 -1.3307 -1.5088 -0.3943
 7652SOL    HW226549   6.854   3.205   6.288  0.0246 -1.1034  0.9021
 7653SOL     OW26550   4.708   2.333   9.156 -0.3795  0.4738 -0.3446
 7653SOL    HW126551   4.757   2.408   9.188 -0.1697 -0.6479  2.1689
 7653SOL    HW226552   4.757   2.257   9.188 -1.1993 -0.7395 -1.8461
 7654SOL     OW26553   8.698   6.611   5.620  0.0125 -0.1854  0.0007
 7654SOL    HW126554   8.683   6.692   5.669  0.0026 -0.4442  0.4342
 7654SOL    HW226555   8.740   6.553   5.684  0.6502 -0.2883 -0.5007
 7655SOL     OW26556   6.537   1.340   7.173 -0.1709  0.5859 -0.0678
 7655SOL    HW126557   6.471   1.407   7.193 -0.5645 -0.5300  2.8854
 7655SOL    HW226558   6.517   1.312   7.083 -4.0059  0.0680  0.7734
 7656SOL     OW26559   1.318   4.313   0.991 -0.0026  0.0995  0.2642
 7656SOL    HW126560   1.379   4.348   1.056  0.3767 -0.5360  0.2600
 7656SOL    HW226561   1.249   4.272   1.042  0.0967 -0.0618  0.2707
 7657SOL     OW26562  10.965   7.863   6.982 -0.2588 -0.0659 -0.0673
 7657SOL    HW126563  10.939   7.865   7.074 -0.1277 -1.2986  0.0127
 7657SOL    HW226564  10.926   7.941   6.944  0.6684  1.1126  1.2926
 7658SOL     OW26565   4.030   1.952  10.376 -0.0209 -0.1464 -0.2208
 7658SOL    HW126566   4.079   2.034  10.377  1.5260 -1.0281 -0.5438
 7658SOL    HW226567   4.051   1.910  10.459  0.3456 -0.8555 -0.6636
 7659SOL     OW26568   0.180   0.893   1.259 -0.6198 -0.0667 -0.5735
 7659SOL    HW126569   0.112   0.827   1.267 -0.9078  0.2996  0.0361
 7659SOL    HW226570   0.246   0.853   1.201 -0.1773 -1.4035  0.7965
 7660SOL     OW26571   5.634   5.162   7.319 -0.3130  0.0402 -0.3766
 7660SOL    HW126572   5.657   5.132   7.407  0.0584  0.3679 -0.3595
 7660SOL    HW226573   5.666   5.252   7.315  0.1996 -0.1595 -1.0435
 7661SOL     OW26574   7.063   2.839   0.748  0.2322  0.4485 -0.1950
 7661SOL    HW126575   7.095   2.910   0.804  1.0582 -0.3778  0.4236
 7661SOL    HW226576   6.983   2.810   0.790 -0.9221  1.9425 -1.2551
 7662SOL     OW26577   1.893   2.414   9.824  0.2845 -0.5258  0.4797
 7662SOL    HW126578   1.816   2.403   9.880 -1.4279  2.5715 -1.0163
 7662SOL    HW226579   1.905   2.328   9.784 -1.4771 -1.5052  1.8690
 7663SOL     OW26580   3.653   1.651   6.837 -0.3263  0.1720 -0.1465
 7663SOL    HW126581   3.612   1.675   6.921 -0.5767  0.2126 -0.2788
 7663SOL    HW226582   3.743   1.681   6.845 -1.0218  2.7162 -0.9387
 7664SOL     OW26583  10.885   5.653   3.066 -0.2706 -0.6146  1.1208
 7664SOL    HW126584  10.902   5.688   2.978  0.9859 -1.4264  1.0272
 7664SOL    HW226585  10.800   5.610   3.058 -0.7889  0.4427  0.6603
 7665SOL     OW26586   4.013   0.885   5.665 -0.3734 -0.3137  0.4654
 7665SOL    HW126587   4.094   0.925   5.635 -1.0572 -0.7338 -2.2280
 7665SOL    HW226588   3.944   0.937   5.623 -1.4561 -1.0189  1.3121
 7666SOL     OW26589   4.056   9.830   8.888 -0.0159 -0.1724 -0.6289
 7666SOL    HW126590   4.121   9.842   8.818  0.0945 -0.9948 -0.6737
 7666SOL    HW226591   3.975   9.809   8.842  0.1023 -0.9120 -0.5102
 7667SOL     OW26592   0.373   6.060  11.003 -0.1339 -0.2974 -0.0803
 7667SOL    HW126593   0.316   6.025  11.071  0.2153 -1.0793 -0.1752
 7667SOL    HW226594   0.334   6.144  10.979  1.1519  1.2563  2.8779
 7668SOL     OW26595   5.397   2.984   4.306 -0.3061 -0.0680 -0.0274
 7668SOL    HW126596   5.434   2.949   4.225  1.6374 -0.2406  0.8933
 7668SOL    HW226597   5.305   2.956   4.304 -0.4744  0.4137 -2.4188
 7669SOL     OW26598   3.680   5.681   0.819  0.3255  0.1364 -0.0430
 7669SOL    HW126599   3.716   5.637   0.742  2.0668  0.5811  0.4681
 7669SOL    HW226600   3.671   5.612   0.884  0.4836  0.0614 -0.1004
 7670SOL     OW26601   4.279   4.483   2.811 -0.5214 -0.1886  0.5493
 7670SOL    HW126602   4.261   4.568   2.851 -2.2790  1.6925 -3.7028
 7670SOL    HW226603   4.196   4.436   2.817 -0.0053 -1.0370  1.4186
 7671SOL     OW26604   6.776   2.834   0.556 -0.2250 -0.3634  0.1957
 7671SOL    HW126605   6.813   2.747   0.543  0.6353  0.1205 -0.7136
 7671SOL    HW226606   6.789   2.852   0.649 -0.0726 -1.0585  0.3139
 7672SOL     OW26607   1.979   4.742   2.078  0.5896 -0.0184 -0.4772
 7672SOL    HW126608   2.057   4.766   2.029  0.7256  1.0030  0.2158
 7672SOL    HW226609   1.925   4.822   2.079 -1.2305 -1.1197 -2.3089
 7673SOL     OW26610   5.445   0.602   2.037  0.3465  0.4583  0.2570
 7673SOL    HW126611   5.404   0.556   2.110 -0.3290 -2.0447 -1.5701
 7673SOL    HW226612   5.398   0.685   2.031 -2.0281 -0.7948  0.5010
 7674SOL     OW26613   4.616   8.582   3.953  0.2002  0.1848  0.1217
 7674SOL    HW126614   4.620   8.590   3.857  1.8075  2.1756  0.3087
 7674SOL    HW226615   4.523   8.595   3.974 -0.0836  0.3007 -1.1117
 7675SOL     OW26616   6.452  10.296   8.375 -0.7842 -0.3443 -0.3503
 7675SOL    HW126617   6.477  10.355   8.446 -0.7714  0.0512 -0.6798
 7675SOL    HW226618   6.486  10.338   8.296 -1.4075 -0.4257 -0.6665
 7676SOL     OW26619   0.849  10.776   8.726 -0.1572  0.2848 -0.1449
 7676SOL    HW126620   0.825  10.689   8.697  1.8110 -0.0587 -0.9149
 7676SOL    HW226621   0.772  10.830   8.710 -0.8314 -0.9696 -1.2183
 7677SOL     OW26622   6.000   7.953   7.529  0.1770  0.2686  0.0876
 7677SOL    HW126623   6.058   8.012   7.482  1.1891 -1.0083 -0.3382
 7677SOL    HW226624   6.059   7.894   7.577 -0.7918 -0.2696  0.6568
 7678SOL     OW26625   0.257   9.991   0.180 -0.1721 -0.1590  0.2509
 7678SOL    HW126626   0.331   9.941   0.215  0.8479  1.3269  0.3053
 7678SOL    HW226627   0.230  10.047   0.253 -0.8321 -0.1021 -0.0309
 7679SOL     OW26628   3.697   3.191   9.232  0.5985 -0.8687 -0.2248
 7679SOL    HW126629   3.602   3.208   9.228  0.3990 -2.0060 -0.7454
 7679SOL    HW226630   3.713   3.168   9.323  0.4294 -0.4167 -0.0750
 7680SOL     OW26631   6.391   6.316   9.499 -0.4286 -0.2942  0.2699
 7680SOL    HW126632   6.445   6.383   9.541  0.3006 -0.5789 -0.1987
 7680SOL    HW226633   6.310   6.315   9.550 -1.0034  1.8822 -0.4678
 7681SOL     OW26634   9.494   2.162   1.444 -0.0429  0.5116  0.2700
 7681SOL    HW126635   9.528   2.073   1.457 -0.2168  0.4439  0.2663
 7681SOL    HW226636   9.414   2.150   1.393  0.9867  0.8245 -1.4905
 7682SOL     OW26637   5.992   5.753   2.333 -0.4873 -0.1875 -0.6086
 7682SOL    HW126638   5.940   5.675   2.346 -1.8504  0.7732 -0.1007
 7682SOL    HW226639   6.026   5.775   2.420  2.1610 -1.6648 -1.1438
 7683SOL     OW26640   2.442   2.307   0.354 -0.3324 -0.1851  0.1553
 7683SOL    HW126641   2.385   2.337   0.283 -0.6879  0.6019  0.7671
 7683SOL    HW226642   2.528   2.343   0.331 -0.2856 -0.5417 -0.2494
 7684SOL     OW26643   3.234   0.599   4.128  0.4357  0.4712  0.1953
 7684SOL    HW126644   3.262   0.516   4.089  1.1108  0.5069  0.5916
 7684SOL    HW226645   3.149   0.617   4.088  0.8624  0.2339 -0.8641
 7685SOL     OW26646   8.885   6.490   8.895  0.5979 -0.6528 -0.2355
 7685SOL    HW126647   8.884   6.585   8.888 -0.2989 -0.7545 -2.0131
 7685SOL    HW226648   8.865   6.472   8.987  0.3537  0.8604  0.0229
 7686SOL     OW26649   0.893  10.985   8.427  0.0475  0.4089 -0.1782
 7686SOL    HW126650   0.892  10.989   8.523  4.8381  0.1270  0.1134
 7686SOL    HW226651   0.885  10.892   8.407 -0.1139  0.3897 -0.0288
 7687SOL     OW26652   7.551   4.268   2.378 -0.3087  0.0910 -0.2206
 7687SOL    HW126653   7.548   4.303   2.289 -1.4983 -0.2833 -0.3415
 7687SOL    HW226654   7.505   4.332   2.431  0.2009  0.2018  0.0965
 7688SOL     OW26655   6.376   6.418   1.797 -0.1358 -0.3268 -0.7323
 7688SOL    HW126656   6.366   6.501   1.750  2.3332 -0.5108 -1.7422
 7688SOL    HW226657   6.400   6.355   1.729 -1.5516 -1.8057  0.0854
 7689SOL     OW26658   6.693   8.842   6.367  0.2498 -0.1984  0.1489
 7689SOL    HW126659   6.756   8.913   6.375  0.5699 -0.5683  1.0141
 7689SOL    HW226660   6.714   8.801   6.283  0.2028  0.5776 -0.2562
 7690SOL     OW26661  10.208   7.469   1.455 -0.2890 -0.2696 -0.1255
 7690SOL    HW126662  10.281   7.502   1.402  0.8221 -0.5299  1.1938
 7690SOL    HW226663  10.214   7.517   1.537 -1.2321 -0.7561  0.2470
 7691SOL     OW26664   6.213   8.612  10.865  0.3726  0.0126  0.1323
 7691SOL    HW126665   6.151   8.543  10.888  0.6565  0.2533  1.7707
 7691SOL    HW226666   6.195   8.631  10.773 -0.3882 -1.5351 -0.0700
 7692SOL     OW26667   0.485   7.650   1.641  0.0386  0.4650 -0.8415
 7692SOL    HW126668   0.490   7.607   1.556 -0.9436  0.1364 -0.7426
 7692SOL    HW226669   0.393   7.643   1.666  0.5343 -0.5513  0.8314
 7693SOL     OW26670   0.390   8.138   2.496  0.0149  0.2884 -0.3926
 7693SOL    HW126671   0.447   8.140   2.573 -0.2948 -0.0534 -0.1489
 7693SOL    HW226672   0.369   8.045   2.485 -0.2131  0.3767 -0.6893
 7694SOL     OW26673   9.285   9.524   8.977 -0.0977  0.0753  0.0664
 7694SOL    HW126674   9.272   9.516   8.883 -0.0295 -0.9910  0.1351
 7694SOL    HW226675   9.320   9.612   8.989 -0.1367  0.2333 -0.8957
 7695SOL     OW26676   8.893   4.242   2.184  0.1353 -0.8545 -0.1183
 7695SOL    HW126677   8.899   4.172   2.119  1.1157 -0.6702 -0.2335
 7695SOL    HW226678   8.843   4.311   2.140 -0.8319 -1.4612 -0.0059
 7696SOL     OW26679   9.702   6.054   6.591 -0.0043  0.0160  0.0066
 7696SOL    HW126680   9.620   6.074   6.546 -0.3718  0.8028  0.9868
 7696SOL    HW226681   9.766   6.045   6.521 -0.6784  0.6356 -0.7130
 7697SOL     OW26682   9.906   7.279  10.212 -0.1808  0.3949 -0.6406
 7697SOL    HW126683   9.981   7.321  10.170  0.4721  1.2487  1.2655
 7697SOL    HW226684   9.848   7.352  10.235 -1.8655 -0.2714 -2.4342
 7698SOL     OW26685   6.771   7.465   8.566  0.1114  0.1563 -0.9454
 7698SOL    HW126686   6.766   7.387   8.620  0.4237  0.6181 -0.2413
 7698SOL    HW226687   6.686   7.508   8.578  0.2902  0.4085 -0.6015
 7699SOL     OW26688   0.929   6.871   1.231  0.2686 -0.1040  0.5477
 7699SOL    HW126689   0.926   6.778   1.252  1.6319 -0.1038  0.8488
 7699SOL    HW226690   0.837   6.897   1.224 -0.1350 -1.4358  0.5825
 7700SOL     OW26691   7.835   3.693  11.012  0.1725 -0.2448  0.0987
 7700SOL    HW126692   7.740   3.695  11.020  0.1809 -1.2884  0.6116
 7700SOL    HW226693   7.867   3.716  11.099  0.4110  0.9770 -0.2955
 7701SOL     OW26694   3.965   6.244   8.561 -0.0728  0.1275  0.1115
 7701SOL    HW126695   3.952   6.322   8.615 -0.2461  0.6273 -0.6329
 7701SOL    HW226696   4.051   6.256   8.522  1.0638 -1.3275  2.0226
 7702SOL     OW26697  10.937   0.032   5.285  0.1359  0.2553  0.4888
 7702SOL    HW126698  10.913  -0.059   5.298  1.1904 -0.0674  0.2171
 7702SOL    HW226699  10.862   0.082   5.319  0.6132 -0.6275  2.9975
 7703SOL     OW26700  10.975   7.936   3.959  0.3624 -0.5718  0.1305
 7703SOL    HW126701  10.996   8.028   3.972 -3.0562  0.0631  2.7485
 7703SOL    HW226702  10.990   7.895   4.044 -1.3434 -1.6280 -0.0150
 7704SOL     OW26703   9.123  10.127   9.699  0.1306 -0.3316  0.4022
 7704SOL    HW126704   9.155  10.036   9.694  0.4929 -0.1496 -1.3978
 7704SOL    HW226705   9.101  10.140   9.791  2.4015 -1.4747  1.1854
 7705SOL     OW26706   9.105   2.457   9.272  0.5707  0.2916 -0.2395
 7705SOL    HW126707   9.175   2.402   9.306 -0.1159 -0.4331  0.0544
 7705SOL    HW226708   9.099   2.530   9.334 -0.8968 -1.1925  1.5014
 7706SOL     OW26709   5.860  10.904   2.139  0.3401  0.0590 -0.0677
 7706SOL    HW126710   5.788  10.963   2.117 -0.5421 -0.3481  1.5764
 7706SOL    HW226711   5.819  10.819   2.152  0.4362  0.4394  4.2328
 7707SOL     OW26712   1.538   9.993   5.874 -0.3045  0.4907 -0.0474
 7707SOL    HW126713   1.598  10.009   5.801  0.6467  1.8779  0.9763
 7707SOL    HW226714   1.462  10.048   5.856  0.6875  2.2571  0.8124
 7708SOL     OW26715   7.244   5.182   8.237  0.1058 -0.1011 -0.4986
 7708SOL    HW126716   7.191   5.103   8.230 -1.2195  0.5661  1.4296
 7708SOL    HW226717   7.187   5.253   8.209 -0.2913  0.6947  2.0974
 7709SOL     OW26718   2.230   0.935  11.008 -0.5665  0.8090 -0.4409
 7709SOL    HW126719   2.247   0.897  11.094  0.8845  0.9739 -0.6352
 7709SOL    HW226720   2.178   1.013  11.025 -3.9149 -1.3009 -0.0419
 7710SOL     OW26721   1.977   2.101   4.997  0.2537 -0.0774  0.1650
 7710SOL    HW126722   1.954   2.033   5.060  1.3023  0.9266  1.6901
 7710SOL    HW226723   2.071   2.115   5.009  0.1911  1.1620 -0.5955
 7711SOL     OW26724  10.679   4.713   9.958 -0.3887  0.6834  0.4262
 7711SOL    HW126725  10.761   4.729   9.913  0.0076 -1.2371  0.3883
 7711SOL    HW226726  10.614   4.708   9.888 -0.1364 -0.1284  0.2432
 7712SOL     OW26727   8.049   3.880   6.692 -0.4722 -0.1246 -0.1844
 7712SOL    HW126728   7.998   3.959   6.710  0.1394  0.2769 -0.2036
 7712SOL    HW226729   8.136   3.898   6.727 -0.3673 -0.8468 -0.0562
 7713SOL     OW26730   4.915   8.601  10.202  0.4478 -0.4772 -0.5297
 7713SOL    HW126731   4.873   8.687  10.204 -0.2106 -0.7984  1.0625
 7713SOL    HW226732   4.929   8.583  10.109  0.0386  1.0707 -0.9198
 7714SOL     OW26733   9.853   1.358   8.455  0.1741 -0.1303 -0.0765
 7714SOL    HW126734   9.779   1.297   8.452  0.6405 -0.7183  0.1579
 7714SOL    HW226735   9.841   1.407   8.536  0.5207 -0.8418  0.4071
 7715SOL     OW26736  11.103   3.831   0.811 -0.1353  0.3651 -0.0142
 7715SOL    HW126737  11.190   3.850   0.777  0.3016  0.3784  1.0942
 7715SOL    HW226738  11.073   3.914   0.849  0.1482 -0.1019  1.2812
 7716SOL     OW26739   0.347   5.323   6.238  0.3545  0.0500  0.3411
 7716SOL    HW126740   0.366   5.328   6.332  1.7305  1.9132  0.0162
 7716SOL    HW226741   0.290   5.397   6.221 -0.5140 -0.7268 -0.1819
 7717SOL     OW26742   8.886   5.969   5.561  0.3254  0.0076  0.0114
 7717SOL    HW126743   8.966   5.983   5.511  0.7343 -0.0285  0.6538
 7717SOL    HW226744   8.915   5.960   5.651 -0.1719 -2.1685  0.0084
 7718SOL     OW26745   8.292   5.572   2.476 -0.4903 -0.7897  0.7024
 7718SOL    HW126746   8.343   5.640   2.431 -1.3278 -1.4579 -1.3165
 7718SOL    HW226747   8.358   5.512   2.510  0.1459 -0.3904  0.1979
 7719SOL     OW26748   3.133   6.720   1.509  0.1661 -0.3994  0.1496
 7719SOL    HW126749   3.053   6.695   1.557  0.5985 -0.3123  0.9267
 7719SOL    HW226750   3.141   6.653   1.441 -2.0009  1.0222 -1.6407
 7720SOL     OW26751   8.878   2.865   2.903  0.7718 -0.1128  0.1652
 7720SOL    HW126752   8.929   2.822   2.973  0.2134 -1.8336 -0.4287
 7720SOL    HW226753   8.796   2.889   2.945  1.2659  0.8413  0.6216
 7721SOL     OW26754   9.475   0.976   2.373 -0.6433  0.2530  0.5209
 7721SOL    HW126755   9.558   0.944   2.339 -1.2518 -1.6668  0.7258
 7721SOL    HW226756   9.450   1.046   2.312  0.0340 -0.6741 -0.8640
 7722SOL     OW26757   9.959   3.261   6.248 -0.3807  0.3422 -0.2619
 7722SOL    HW126758   9.876   3.305   6.231 -0.0020  1.2547  0.1707
 7722SOL    HW226759  10.021   3.333   6.264  0.2188 -0.3600  0.6226
 7723SOL     OW26760   7.827   1.730   1.602  0.9346 -0.0514  0.3257
 7723SOL    HW126761   7.844   1.709   1.510 -2.2900 -2.9700  0.1632
 7723SOL    HW226762   7.902   1.695   1.650  1.5614 -0.6125 -1.0258
 7724SOL     OW26763   3.968   7.213   0.877  0.2165 -0.0983 -0.2178
 7724SOL    HW126764   4.026   7.155   0.926 -0.9916  0.6682  2.3089
 7724SOL    HW226765   3.967   7.294   0.928 -1.8521  0.4298 -0.9782
 7725SOL     OW26766   4.518   9.242   5.092 -0.1370  0.2729  0.1862
 7725SOL    HW126767   4.443   9.220   5.147 -0.2462  1.3829  0.5097
 7725SOL    HW226768   4.481   9.258   5.006 -0.2000  0.2874  0.2156
 7726SOL     OW26769   6.820   5.202   1.249 -0.4970  0.4962  0.5285
 7726SOL    HW126770   6.887   5.201   1.317 -1.2481  0.1218  1.2856
 7726SOL    HW226771   6.825   5.114   1.210 -2.1279 -0.4227  2.2219
 7727SOL     OW26772   2.067   2.920   4.860 -0.3214 -0.6346  0.2202
 7727SOL    HW126773   2.001   2.961   4.914  0.6668  1.4262 -0.0592
 7727SOL    HW226774   2.112   2.992   4.817 -0.1663 -2.1063 -2.3117
 7728SOL     OW26775   3.298   5.095   0.709  0.4163 -0.2790 -0.3794
 7728SOL    HW126776   3.348   5.137   0.778 -1.2722 -1.2978  1.5848
 7728SOL    HW226777   3.330   5.134   0.628  1.1585  2.3729  1.0951
 7729SOL     OW26778   4.479   9.791   2.781  0.4029  0.1391 -0.2991
 7729SOL    HW126779   4.541   9.779   2.853  2.5819  2.0943 -1.6859
 7729SOL    HW226780   4.471   9.704   2.742  2.4413 -0.1949 -0.1188
 7730SOL     OW26781   8.400   8.225   1.971 -0.5433 -0.1292  0.0429
 7730SOL    HW126782   8.431   8.311   1.943 -0.6093 -0.6411 -1.7317
 7730SOL    HW226783   8.414   8.224   2.065  0.3099  1.4754 -0.0320
 7731SOL     OW26784   2.652   5.892   1.110  0.0153 -0.0711  0.0789
 7731SOL    HW126785   2.665   5.827   1.041  1.8383 -0.4916  0.7642
 7731SOL    HW226786   2.726   5.952   1.101 -1.4382  1.7731 -0.3231
 7732SOL     OW26787   0.129   4.407   9.198  0.4127 -0.7834  0.8458
 7732SOL    HW126788   0.082   4.469   9.253  0.0474 -0.8801  0.6446
 7732SOL    HW226789   0.085   4.323   9.212 -0.9046 -0.4606 -1.0079
 7733SOL     OW26790   2.532   1.221   8.589  0.2205  0.2109  0.5252
 7733SOL    HW126791   2.614   1.184   8.556  0.0256  0.2196  0.0336
 7733SOL    HW226792   2.510   1.166   8.664  0.3987 -0.1182  0.3385
 7734SOL     OW26793   8.567   8.438   3.764 -0.3571 -0.1742  0.0722
 7734SOL    HW126794   8.498   8.455   3.829  1.2332 -0.7698  2.0069
 7734SOL    HW226795   8.646   8.476   3.801  0.8334 -1.4421 -1.0323
 7735SOL     OW26796   9.706  10.373   8.121 -0.4384 -0.4665  0.1801
 7735SOL    HW126797   9.716  10.427   8.043 -0.3703  0.7431  1.0021
 7735SOL    HW226798   9.796  10.345   8.141 -0.3099  0.0914  0.4124
 7736SOL     OW26799   5.443   3.867   1.733 -0.2443 -0.0912  0.0253
 7736SOL    HW126800   5.449   3.861   1.638 -0.1585 -0.7168  0.0677
 7736SOL    HW226801   5.352   3.842   1.753  0.1170 -1.3347  0.2039
 7737SOL     OW26802   7.880   4.081   5.807 -0.2741 -0.3015  0.2437
 7737SOL    HW126803   7.884   4.008   5.745 -2.4600 -1.9767  1.9073
 7737SOL    HW226804   7.938   4.055   5.878 -1.3094 -0.6222  0.9953
 7738SOL     OW26805   6.248  10.188   6.817  0.0565  0.5567 -0.0116
 7738SOL    HW126806   6.285  10.118   6.763  0.9402  1.3430 -0.4705
 7738SOL    HW226807   6.308  10.195   6.891 -0.1314  0.6892  0.1287
 7739SOL     OW26808   7.148   1.808   3.530 -0.1216  0.4212  0.0901
 7739SOL    HW126809   7.206   1.759   3.589 -2.2665 -1.7255  0.5836
 7739SOL    HW226810   7.137   1.893   3.572  1.3094  0.2603  0.8421
 7740SOL     OW26811   0.011   1.166   7.307 -0.2485  0.2023 -0.0728
 7740SOL    HW126812   0.101   1.151   7.279 -0.2575 -2.0813  0.8737
 7740SOL    HW226813   0.020   1.209   7.392 -0.1000  1.1212 -0.5423
 7741SOL     OW26814   5.389   7.760   5.389  0.0279  0.1248  0.3551
 7741SOL    HW126815   5.324   7.762   5.319  0.8142  1.2341 -0.3751
 7741SOL    HW226816   5.340   7.729   5.466 -1.1281  0.0332 -0.3910
 7742SOL     OW26817  10.136   6.442   8.225  0.1304  0.6489 -0.1645
 7742SOL    HW126818  10.076   6.501   8.271  1.5226  2.8868 -1.0457
 7742SOL    HW226819  10.118   6.457   8.132 -0.1834 -1.1119 -0.4085
 7743SOL     OW26820   0.913   5.169   9.691  0.0961 -0.1183  0.4780
 7743SOL    HW126821   0.963   5.145   9.769  1.0270  0.6771  0.1620
 7743SOL    HW226822   0.971   5.147   9.618 -0.7704 -0.8643 -0.0010
 7744SOL     OW26823  10.672   2.666   9.748 -0.4948 -0.3206 -0.2062
 7744SOL    HW126824  10.629   2.604   9.807 -1.6477  1.1705  0.6185
 7744SOL    HW226825  10.680   2.746   9.800  0.1939  0.4774 -1.4886
 7745SOL     OW26826   0.524   1.989   7.006 -0.0048 -0.2951 -0.2800
 7745SOL    HW126827   0.439   1.960   7.039  0.0352 -0.1487 -0.0484
 7745SOL    HW226828   0.586   1.960   7.072  0.0989 -0.1736 -0.3238
 7746SOL     OW26829   1.601   4.535   9.917 -0.9351  0.3439 -0.1999
 7746SOL    HW126830   1.506   4.544   9.918 -1.1029 -1.1857  1.2017
 7746SOL    HW226831   1.616   4.442   9.898  0.1327 -0.2663  3.0734
 7747SOL     OW26832   9.017   7.581   2.566  0.1724  0.1034  0.1445
 7747SOL    HW126833   9.064   7.563   2.648  0.4504  0.7762  0.1398
 7747SOL    HW226834   8.986   7.495   2.537  0.0545 -0.1399  0.9651
 7748SOL     OW26835   1.059   1.963   8.371 -0.0464 -0.1354 -0.2183
 7748SOL    HW126836   1.048   1.895   8.304 -0.5596 -0.3779  0.1133
 7748SOL    HW226837   1.084   2.041   8.321  0.7593 -0.6093 -0.5817
 7749SOL     OW26838   1.710   8.936  10.631  0.3704 -0.3595 -0.4270
 7749SOL    HW126839   1.739   8.857  10.677 -0.0555 -0.9964 -1.2193
 7749SOL    HW226840   1.615   8.933  10.634  0.3524  0.5818  0.2737
 7750SOL     OW26841   3.816   5.026   6.694  0.1359  0.0507 -0.7456
 7750SOL    HW126842   3.753   4.998   6.628  1.4493 -1.6299 -1.3809
 7750SOL    HW226843   3.901   5.018   6.651  1.1920 -2.4643  1.4578
 7751SOL     OW26844  10.749   6.838   8.311 -0.0015  0.5867  0.1949
 7751SOL    HW126845  10.713   6.814   8.396 -0.2084  0.1389 -0.0184
 7751SOL    HW226846  10.826   6.782   8.301  0.2772  0.9485  0.2779
 7752SOL     OW26847   5.511   2.329   8.279  0.0422  0.2738  0.7317
 7752SOL    HW126848   5.503   2.287   8.365 -1.4722 -0.9981  0.0173
 7752SOL    HW226849   5.525   2.256   8.218 -2.0747  0.7878 -0.4782
 7753SOL     OW26850   2.333   3.678   9.561 -0.2431  0.2639 -0.3247
 7753SOL    HW126851   2.314   3.673   9.467  0.6737  0.8956 -0.5606
 7753SOL    HW226852   2.396   3.608   9.576  0.3504  0.7768 -0.3853
 7754SOL     OW26853  10.829   1.124   0.021  0.7259  0.2657 -0.3084
 7754SOL    HW126854  10.812   1.212  -0.014  1.0277  1.0784  1.4690
 7754SOL    HW226855  10.763   1.069  -0.021  0.0416  1.4940 -0.9076
 7755SOL     OW26856   8.885   7.492   8.750  0.2159  0.1177  0.1152
 7755SOL    HW126857   8.815   7.550   8.779  1.0511  0.7338  0.9485
 7755SOL    HW226858   8.870   7.480   8.657 -0.5485  0.8632  0.1386
 7756SOL     OW26859   6.744   6.519   9.541 -0.1410  0.3373 -0.0777
 7756SOL    HW126860   6.721   6.539   9.450  0.1791  1.3945  0.0680
 7756SOL    HW226861   6.796   6.593   9.570  2.7535 -1.5380 -0.1049
 7757SOL     OW26862   6.320   4.737  10.904  0.1263 -0.4055 -0.4694
 7757SOL    HW126863   6.238   4.742  10.952 -0.0612 -2.5591 -0.4952
 7757SOL    HW226864   6.353   4.649  10.920  2.1341  0.1888 -0.9713
 7758SOL     OW26865   1.263   3.328   8.208  0.5615 -0.1237 -0.3737
 7758SOL    HW126866   1.198   3.306   8.274  2.1926 -0.8661  1.0384
 7758SOL    HW226867   1.295   3.415   8.234  0.5019  0.0218 -0.7776
 7759SOL     OW26868   5.087   3.102   7.758 -0.1958 -0.8259  0.4567
 7759SOL    HW126869   5.022   3.041   7.725 -1.1601  0.2262  0.3519
 7759SOL    HW226870   5.086   3.175   7.696 -0.1996  0.0174  1.4211
 7760SOL     OW26871   0.981   2.915   0.626 -0.4122  0.2601  0.4982
 7760SOL    HW126872   1.013   2.995   0.668  2.0195  0.7109 -1.9626
 7760SOL    HW226873   1.059   2.865   0.605 -1.7376 -1.5723 -0.3603
 7761SOL     OW26874   7.677  10.924   9.981 -0.0492  0.1294  0.1216
 7761SOL    HW126875   7.584  10.901   9.979  0.0174 -0.2135 -2.3025
 7761SOL    HW226876   7.678  11.019   9.975 -0.2778  0.0523 -1.6265
 7762SOL     OW26877   2.594   1.387   1.715  0.6414 -0.1592 -0.7501
 7762SOL    HW126878   2.586   1.306   1.766 -0.2895 -0.0500 -0.7192
 7762SOL    HW226879   2.510   1.397   1.672  0.6987  0.8865 -0.6377
 7763SOL     OW26880   1.338   4.881   2.555  0.2456  0.2604  0.2182
 7763SOL    HW126881   1.312   4.922   2.472  0.5643 -0.9570 -0.5041
 7763SOL    HW226882   1.285   4.925   2.621 -1.6596 -0.2737 -0.8926
 7764SOL     OW26883  10.393   3.035   4.758 -0.0237  0.1388 -0.5162
 7764SOL    HW126884  10.361   3.125   4.753  0.2256  0.2538  0.0208
 7764SOL    HW226885  10.475   3.040   4.806 -0.1410 -0.4105 -0.2463
 7765SOL     OW26886   4.689   6.627   2.385  0.4811  0.4208 -0.6922
 7765SOL    HW126887   4.770   6.601   2.428  0.3492  1.1699  0.0536
 7765SOL    HW226888   4.714   6.651   2.296  1.3932  2.2982  0.0220
 7766SOL     OW26889   1.612   1.210   6.782 -0.1923  0.0600 -0.1882
 7766SOL    HW126890   1.582   1.154   6.853  0.1394 -0.3028 -0.3287
 7766SOL    HW226891   1.641   1.148   6.714 -1.0353  0.3869 -0.8730
 7767SOL     OW26892   7.136  10.064   5.450  0.1237 -0.0108  0.3227
 7767SOL    HW126893   7.114  10.146   5.496 -0.7762 -0.5132  0.8112
 7767SOL    HW226894   7.075  10.062   5.376 -0.5996 -0.7505  0.9200
 7768SOL     OW26895   0.677   4.327  11.090  0.4474 -0.1550 -0.0848
 7768SOL    HW126896   0.729   4.265  11.039 -1.1083  0.0758 -2.0987
 7768SOL    HW226897   0.731   4.406  11.093  0.9541 -0.4676 -0.5909
 7769SOL     OW26898   2.511   4.886   1.736  0.4676  0.4735 -0.1990
 7769SOL    HW126899   2.438   4.943   1.713 -1.7132 -2.1898 -0.4423
 7769SOL    HW226900   2.492   4.860   1.827  0.4623 -1.0789 -0.6201
 7770SOL     OW26901   4.841   2.007   6.593 -0.4820  0.2460 -0.5314
 7770SOL    HW126902   4.871   1.969   6.510 -0.2105 -0.7425  0.0026
 7770SOL    HW226903   4.922   2.028   6.640 -0.6328  1.3322 -0.7368
 7771SOL     OW26904   1.002   5.327   2.778 -0.7681 -0.1052 -0.2268
 7771SOL    HW126905   0.986   5.236   2.802 -0.6316  0.0747  0.5915
 7771SOL    HW226906   0.994   5.329   2.683 -2.3155 -0.6609 -0.1344
 7772SOL     OW26907   2.110  11.102  10.804 -0.0265 -0.6692 -0.0056
 7772SOL    HW126908   2.094  11.140  10.718  0.3179 -1.0169 -0.2294
 7772SOL    HW226909   2.098  11.007  10.791  1.3240 -0.8624  0.0022
 7773SOL     OW26910   7.735   8.228   3.702 -0.5039 -0.0361 -0.1017
 7773SOL    HW126911   7.776   8.229   3.616  0.2648 -0.2300  0.2561
 7773SOL    HW226912   7.735   8.136   3.728  0.0656  0.1112  0.4687
 7774SOL     OW26913   0.737   4.917   1.772  0.1546 -0.2259 -0.0528
 7774SOL    HW126914   0.662   4.962   1.731  0.6912 -0.1058 -0.9339
 7774SOL    HW226915   0.708   4.827   1.782 -0.2006 -0.1278 -0.1654
 7775SOL     OW26916   0.660   8.810   3.418  0.7284  0.2079  0.4199
 7775SOL    HW126917   0.749   8.842   3.425  1.0304 -0.3233 -0.7150
 7775SOL    HW226918   0.668   8.726   3.373 -0.2941 -0.1086  0.7882
 7776SOL     OW26919   5.574   7.845   4.170  0.7099 -0.1112  0.3417
 7776SOL    HW126920   5.496   7.846   4.225 -0.1494 -0.3563 -0.8296
 7776SOL    HW226921   5.594   7.937   4.155 -0.0627 -0.0344 -0.2975
 7777SOL     OW26922   9.122   5.044   5.641 -1.1604  0.0013 -0.1490
 7777SOL    HW126923   9.144   5.122   5.588 -0.2200 -0.4007 -0.3838
 7777SOL    HW226924   9.081   4.984   5.579  1.4348 -1.1478 -0.9297
 7778SOL     OW26925  10.691  10.984   8.064  0.5122 -0.2331 -0.5186
 7778SOL    HW126926  10.627  11.036   8.015 -0.3400  0.9862  1.7811
 7778SOL    HW226927  10.769  10.983   8.007 -0.9084 -0.2152 -2.5593
 7779SOL     OW26928   9.125   9.999   1.870 -0.1245  1.1247 -0.1424
 7779SOL    HW126929   9.143  10.088   1.840  0.7340  0.7614 -0.7489
 7779SOL    HW226930   9.071   9.962   1.800  2.7188 -0.0567 -1.8775
 7780SOL     OW26931   9.132   4.538   9.161  0.1287  0.1969 -0.1754
 7780SOL    HW126932   9.137   4.634   9.160 -1.8034  0.3654 -1.8355
 7780SOL    HW226933   9.050   4.519   9.205  0.4602 -0.6994  0.0648
 7781SOL     OW26934   8.434   5.905   6.761  0.2725 -0.4505 -0.3041
 7781SOL    HW126935   8.371   5.946   6.703 -0.4787 -0.8524  0.2145
 7781SOL    HW226936   8.382   5.846   6.815  1.2029 -1.4548 -0.4628
 7782SOL     OW26937   8.236   0.427   6.017 -0.0558  0.4148  0.0652
 7782SOL    HW126938   8.207   0.346   6.059  0.2545  0.6175  0.6818
 7782SOL    HW226939   8.205   0.420   5.926 -0.2287 -0.2875  0.1759
 7783SOL     OW26940   8.757   2.053   7.937  0.1214  0.8173 -0.2619
 7783SOL    HW126941   8.806   2.016   7.864  0.5474  0.0830  0.3716
 7783SOL    HW226942   8.786   2.144   7.943  0.2860  0.8048 -0.8286
 7784SOL     OW26943   6.412   6.568   3.991  0.0320 -1.1780 -0.4072
 7784SOL    HW126944   6.454   6.522   3.918 -3.4797 -1.8780 -2.2083
 7784SOL    HW226945   6.335   6.515   4.011 -0.0566 -0.0508  2.7448
 7785SOL     OW26946   9.642  10.385   6.855  0.6289 -0.0764 -0.3243
 7785SOL    HW126947   9.729  10.424   6.851  1.3700 -1.7569 -1.4259
 7785SOL    HW226948   9.598  10.417   6.776  1.3229 -1.5821 -1.3600
 7786SOL     OW26949   1.608   0.806   3.861 -0.1444  0.1550  0.0126
 7786SOL    HW126950   1.633   0.743   3.928 -0.3135 -0.5491 -0.5742
 7786SOL    HW226951   1.620   0.759   3.778 -0.1543  0.9344 -0.4434
 7787SOL     OW26952   7.519  10.120   3.249  0.1257  0.0787  0.0049
 7787SOL    HW126953   7.492  10.063   3.321  2.2152  0.2495  0.9964
 7787SOL    HW226954   7.448  10.184   3.241 -1.4083 -1.5577  0.0682
 7788SOL     OW26955   7.823   4.671   1.336  0.3331  0.1226 -0.2773
 7788SOL    HW126956   7.847   4.603   1.400 -1.2624  0.3456  0.6120
 7788SOL    HW226957   7.820   4.625   1.252  0.6936 -0.5885  0.0877
 7789SOL     OW26958   1.382   1.694   3.003 -0.2353 -0.1319 -0.5559
 7789SOL    HW126959   1.316   1.685   3.072  0.3978  0.4941  0.1464
 7789SOL    HW226960   1.449   1.751   3.041 -0.3541  1.0620 -2.0335
 7790SOL     OW26961   0.434   5.227   8.033  0.0484 -0.5635 -0.1412
 7790SOL    HW126962   0.437   5.181   8.117 -0.2898  0.7938  0.6374
 7790SOL    HW226963   0.346   5.211   8.000 -0.3947  0.3112  0.5948
 7791SOL     OW26964   7.161   4.906   1.850  0.2580 -0.4018 -0.5417
 7791SOL    HW126965   7.082   4.868   1.886 -0.4894  1.2013 -0.4178
 7791SOL    HW226966   7.186   4.846   1.779  0.0650 -1.9616  0.6605
 7792SOL     OW26967   4.272   9.999   3.636  0.8478 -0.1393  0.0242
 7792SOL    HW126968   4.182   9.973   3.657  1.0255  0.4145  1.5955
 7792SOL    HW226969   4.312   9.920   3.600 -0.6182 -0.0392 -1.9959
 7793SOL     OW26970   6.295   9.513   1.652 -0.2252  0.4693 -0.0864
 7793SOL    HW126971   6.378   9.465   1.662  1.8499  4.0125  1.7856
 7793SOL    HW226972   6.294   9.541   1.560  0.3788 -0.0558 -0.2590
 7794SOL     OW26973   8.876   7.226   7.328 -0.3259 -0.0334  0.2231
 7794SOL    HW126974   8.845   7.304   7.281  1.0829  0.4413  0.0466
 7794SOL    HW226975   8.816   7.156   7.300 -1.6668  0.9756  0.4563
 7795SOL     OW26976  10.056  11.040   2.817  0.1847  0.3005 -0.4385
 7795SOL    HW126977  10.007  10.959   2.803 -0.9641  1.1434 -1.5130
 7795SOL    HW226978  10.016  11.079   2.896 -0.2499  0.5153 -0.7595
 7796SOL     OW26979   3.316   0.306   5.837  0.1126  0.2649  0.2980
 7796SOL    HW126980   3.379   0.234   5.843 -1.0348 -0.8213 -0.1873
 7796SOL    HW226981   3.324   0.337   5.746  0.8332  0.9853  0.5966
 7797SOL     OW26982   2.757   9.819   0.368  0.6695  0.6270 -0.2063
 7797SOL    HW126983   2.757   9.725   0.347  1.8428 -0.1651  2.7548
 7797SOL    HW226984   2.674   9.851   0.335  0.8407 -1.0992 -2.5833
 7798SOL     OW26985   5.430   3.960   2.027 -0.0641  0.6281 -0.0929
 7798SOL    HW126986   5.432   3.918   1.941  1.2828 -0.7636  0.5706
 7798SOL    HW226987   5.353   3.923   2.070 -0.2817  0.7262 -0.3915
 7799SOL     OW26988   5.202   7.049   4.262 -0.2073 -0.2656  0.0885
 7799SOL    HW126989   5.253   7.083   4.335  2.1333 -1.7806 -0.7212
 7799SOL    HW226990   5.145   6.982   4.301  1.2285 -1.2728  0.5481
 7800SOL     OW26991   2.636   6.959   9.432  0.2498 -0.0130  0.4730
 7800SOL    HW126992   2.641   7.001   9.518  0.2065  1.0754 -0.0411
 7800SOL    HW226993   2.723   6.970   9.394  0.0675  0.1294  0.0962
 7801SOL     OW26994   3.616   0.697   1.097  0.1913  0.3056 -0.4541
 7801SOL    HW126995   3.611   0.629   1.030  0.5034 -1.7861  1.5110
 7801SOL    HW226996   3.527   0.732   1.103 -0.2220 -0.6604 -0.7866
 7802SOL     OW26997   2.082   7.654   8.378 -0.4958 -0.1500  0.1469
 7802SOL    HW126998   2.002   7.665   8.430  0.0659  2.4017  0.5912
 7802SOL    HW226999   2.146   7.618   8.440 -0.7754 -0.3533  0.3189
 7803SOL     OW27000   7.809   3.861   0.642  0.0199 -0.2524 -0.2920
 7803SOL    HW127001   7.896   3.877   0.679  0.1299 -1.5878  0.0606
 7803SOL    HW227002   7.750   3.867   0.717  0.0119 -0.9951 -0.2331
 7804SOL     OW27003   8.791   1.103   1.766 -0.8612  0.4506 -0.1868
 7804SOL    HW127004   8.730   1.056   1.709  0.9074 -0.9251 -1.0464
 7804SOL    HW227005   8.735   1.157   1.822 -2.7293  1.1249 -2.5495
 7805SOL     OW27006   2.393   8.330  10.634  0.3774  0.1620 -0.3364
 7805SOL    HW127007   2.415   8.304  10.724 -0.6725 -0.6689 -0.2949
 7805SOL    HW227008   2.408   8.251  10.582  1.4825  0.7929 -0.9906
 7806SOL     OW27009   4.857   2.951   9.897 -0.0341 -0.0540 -0.1511
 7806SOL    HW127010   4.889   2.904   9.819  1.0034  0.4185 -0.0337
 7806SOL    HW227011   4.885   3.042   9.883 -0.0301  0.0801  0.6739
 7807SOL     OW27012   9.475  10.881   1.297 -0.3525 -0.2677  0.6728
 7807SOL    HW127013   9.519  10.944   1.241  0.6359 -1.4251  0.0956
 7807SOL    HW227014   9.386  10.915   1.308  0.1227  1.1431  0.2971
 7808SOL     OW27015   8.946   1.550   3.842  0.5114  0.3180 -0.1973
 7808SOL    HW127016   8.890   1.546   3.920  1.1623 -0.1622  0.2615
 7808SOL    HW227017   8.899   1.607   3.782  1.4019  3.2649  1.6845
 7809SOL     OW27018  10.596   1.239   5.749 -0.2642  0.1181 -0.0286
 7809SOL    HW127019  10.545   1.281   5.681  2.0486  0.8027 -1.4653
 7809SOL    HW227020  10.646   1.171   5.704  1.1092  0.3949  0.9949
 7810SOL     OW27021   3.709   5.864   2.062 -0.0302  0.2269 -0.3345
 7810SOL    HW127022   3.795   5.833   2.032 -1.1812 -2.4349 -1.2376
 7810SOL    HW227023   3.702   5.953   2.027  3.0124  1.2111  1.2818
 7811SOL     OW27024   6.110   2.029   7.650  0.3127  0.3930  0.3604
 7811SOL    HW127025   6.055   2.093   7.606  0.2310  0.3372  0.3812
 7811SOL    HW227026   6.090   1.946   7.606  0.8865  0.4934 -0.0927
 7812SOL     OW27027   5.384   7.161   4.442 -0.1500  0.3049 -0.0595
 7812SOL    HW127028   5.382   7.245   4.488 -0.8729  0.0594  0.3740
 7812SOL    HW227029   5.452   7.111   4.488  0.5818  0.7873 -0.5846
 7813SOL     OW27030   6.920   4.083   6.671  0.2675  0.5549 -0.5293
 7813SOL    HW127031   7.014   4.095   6.655 -0.3966  3.8207 -3.1787
 7813SOL    HW227032   6.894   4.014   6.610  0.8812 -0.0469 -0.1113
 7814SOL     OW27033   9.509   7.473   3.066 -0.2898  0.2844 -0.0963
 7814SOL    HW127034   9.574   7.503   3.130  0.6058  0.3436 -1.0097
 7814SOL    HW227035   9.456   7.551   3.048  0.1730  0.5653 -0.2627
 7815SOL     OW27036   7.878   8.033   0.028  0.2321 -0.4719  0.1246
 7815SOL    HW127037   7.900   8.111   0.078 -0.3203 -0.7962  0.9063
 7815SOL    HW227038   7.783   8.027   0.033 -0.1227  0.8084 -3.0207
 7816SOL     OW27039   3.679   2.973   6.867  0.4382 -0.2638 -0.8901
 7816SOL    HW127040   3.658   3.057   6.910 -2.6365 -0.5328 -1.5845
 7816SOL    HW227041   3.676   2.993   6.774  1.5944 -0.7927 -1.0490
 7817SOL     OW27042   3.977   4.019  10.779  0.0898 -0.0498  0.2425
 7817SOL    HW127043   3.947   4.022  10.870 -0.3264  0.0599  0.1055
 7817SOL    HW227044   3.897   4.003  10.728  0.6375 -2.7309  0.0870
 7818SOL     OW27045   1.907   0.439   4.181 -0.0908  0.3628  0.1266
 7818SOL    HW127046   1.980   0.481   4.137 -1.0702  1.2971 -0.6828
 7818SOL    HW227047   1.831   0.458   4.126 -0.7684 -1.6145  0.2827
 7819SOL     OW27048   2.998   7.111   0.679 -0.4046  0.3867 -0.9622
 7819SOL    HW127049   2.922   7.072   0.636 -0.8030 -0.5351  0.5326
 7819SOL    HW227050   3.047   7.152   0.608 -0.8816 -1.3365 -2.3441
 7820SOL     OW27051   0.935   8.490   5.587  0.3671  0.2271 -0.0819
 7820SOL    HW127052   1.009   8.497   5.647  0.9462 -0.5160 -0.6922
 7820SOL    HW227053   0.871   8.553   5.620  0.5865 -0.3031  1.4331
 7821SOL     OW27054   7.704   3.131  10.751  0.0603 -0.4280  0.0556
 7821SOL    HW127055   7.686   3.100  10.840  1.7658 -2.4430 -0.2260
 7821SOL    HW227056   7.733   3.053  10.704 -0.7587  0.6027 -2.2859
 7822SOL     OW27057   8.605   7.114   5.857 -0.3632 -0.1314 -0.2134
 7822SOL    HW127058   8.523   7.098   5.905 -0.3717 -0.2018 -0.2512
 7822SOL    HW227059   8.580   7.172   5.785 -0.8206 -1.8572 -1.5273
 7823SOL     OW27060   3.186   4.573   3.190  0.0394 -0.0306  0.3847
 7823SOL    HW127061   3.276   4.599   3.171  0.0111 -0.6047 -0.5923
 7823SOL    HW227062   3.194   4.513   3.264  0.5387 -0.6149 -0.1266
 7824SOL     OW27063   4.189   2.414   4.030  0.8510  0.5811  0.2736
 7824SOL    HW127064   4.133   2.343   4.000  0.9919  0.2590  0.7541
 7824SOL    HW227065   4.215   2.460   3.950 -1.3904  1.7508  0.1411
 7825SOL     OW27066   4.952   7.948   7.287 -0.5661 -0.2678 -0.1239
 7825SOL    HW127067   4.904   7.868   7.265 -1.3626  0.5808 -1.5646
 7825SOL    HW227068   4.941   7.956   7.382 -1.6178 -1.1562 -0.1483
 7826SOL     OW27069  10.542   9.773   7.257 -0.4423 -0.0054 -0.1622
 7826SOL    HW127070  10.591   9.843   7.300  0.3063 -0.0237 -0.9732
 7826SOL    HW227071  10.591   9.693   7.277  1.2387  0.2311 -2.8689
 7827SOL     OW27072   3.621   8.890   7.436  0.1385  0.4024 -0.1648
 7827SOL    HW127073   3.664   8.973   7.416 -0.2110  0.4382 -0.8082
 7827SOL    HW227074   3.529   8.914   7.449 -0.0115  0.0855 -0.6123
 7828SOL     OW27075   8.197   6.935   6.447 -0.0837 -0.1312 -0.4587
 7828SOL    HW127076   8.143   6.894   6.380 -1.4935  0.7099  0.1331
 7828SOL    HW227077   8.137   6.990   6.497  0.8686 -0.8283  1.5860
 7829SOL     OW27078   8.914   6.037  10.190 -0.1586  0.2456 -0.3581
 7829SOL    HW127079   8.920   6.029  10.286  0.7609  0.0026 -0.4323
 7829SOL    HW227080   8.889   5.950  10.160  1.0729 -0.0819 -0.4568
 7830SOL     OW27081   1.461   4.564   4.870 -0.5507 -0.1625  0.5307
 7830SOL    HW127082   1.501   4.622   4.805  0.4970  0.4247  1.6638
 7830SOL    HW227083   1.387   4.614   4.904 -1.1816 -0.5231 -0.2804
 7831SOL     OW27084   6.491   4.032   0.704 -0.4556  0.3956 -0.0407
 7831SOL    HW127085   6.471   4.076   0.786 -0.7553  0.1842  0.0005
 7831SOL    HW227086   6.547   4.093   0.656  0.0077  0.3802  0.4680
 7832SOL     OW27087   3.417   1.437   9.325 -0.2798 -0.2690 -0.2448
 7832SOL    HW127088   3.365   1.391   9.391  0.3407  0.0198  0.4518
 7832SOL    HW227089   3.354   1.457   9.256 -0.9354 -0.5899  0.2443
 7833SOL     OW27090   0.951   6.230   7.797  0.3277 -0.0324  0.3955
 7833SOL    HW127091   0.959   6.186   7.882  0.1535  0.8410  0.8836
 7833SOL    HW227092   0.964   6.161   7.733  2.2185 -0.4096  1.1243
 7834SOL     OW27093   1.790   0.228   8.005 -0.1550 -0.6941 -0.2060
 7834SOL    HW127094   1.741   0.245   8.085  0.0990 -2.6796  0.4227
 7834SOL    HW227095   1.750   0.286   7.940 -2.2854 -1.1005  0.6525
 7835SOL     OW27096   9.971   3.011   6.689  0.2959 -0.2564 -0.8290
 7835SOL    HW127097   9.991   3.101   6.717 -3.8707  1.3593 -2.3612
 7835SOL    HW227098   9.983   2.958   6.769  1.6189  1.8031  0.4399
 7836SOL     OW27099  10.852   5.104   3.595  0.3931  0.1805  0.4131
 7836SOL    HW127100  10.770   5.078   3.553 -0.0210  1.4014  0.4174
 7836SOL    HW227101  10.915   5.112   3.522 -0.0346  1.2196  0.1438
 7837SOL     OW27102   6.495  10.328   9.554  0.0832 -0.0018  0.1830
 7837SOL    HW127103   6.413  10.375   9.566  0.3177  0.0894  1.5846
 7837SOL    HW227104   6.526  10.311   9.643  2.1223  0.9183 -0.3040
 7838SOL     OW27105   4.529   4.570   0.678 -0.4557  0.3076  0.4004
 7838SOL    HW127106   4.560   4.590   0.766 -0.2210  0.6687  0.2378
 7838SOL    HW227107   4.434   4.576   0.685 -0.3931  3.5339 -0.0776
 7839SOL     OW27108   6.984   4.706   6.996  0.3672  0.4783 -0.5183
 7839SOL    HW127109   7.045   4.780   6.986  0.3032  0.2590 -3.2369
 7839SOL    HW227110   7.036   4.638   7.039  0.5391  1.9170  1.6765
 7840SOL     OW27111   2.319   2.331   1.577  0.5709 -0.3223  0.1375
 7840SOL    HW127112   2.250   2.274   1.610 -0.7841  1.7067  0.9977
 7840SOL    HW227113   2.378   2.344   1.651  0.4544 -0.0132  0.1785
 7841SOL     OW27114   7.419   5.667   9.011  0.2403 -0.9756  0.5697
 7841SOL    HW127115   7.376   5.721   9.076  0.3405 -0.5326  0.2703
 7841SOL    HW227116   7.348   5.622   8.965  0.0908 -0.2266  0.0587
 7842SOL     OW27117   3.789   5.778   1.433  0.3110  0.2183 -0.6328
 7842SOL    HW127118   3.807   5.843   1.501  1.6117  1.2065 -1.8598
 7842SOL    HW227119   3.814   5.694   1.473  0.5570  0.7184  0.2871
 7843SOL     OW27120   5.808   7.452  10.080 -0.4294 -0.0241 -1.1591
 7843SOL    HW127121   5.787   7.359  10.078  1.4627 -0.5723  1.0443
 7843SOL    HW227122   5.758   7.486  10.154  0.4128  0.2922 -0.7340
 7844SOL     OW27123  10.034   4.686   9.532 -0.2681  0.1329  0.3131
 7844SOL    HW127124  10.044   4.728   9.447  0.1064  1.0272  0.7799
 7844SOL    HW227125  10.010   4.596   9.512 -1.5067  0.6558 -0.7341
 7845SOL     OW27126   9.927   2.395   3.308 -0.0901  0.0263 -0.2914
 7845SOL    HW127127   9.898   2.486   3.298 -0.2257  0.2745  1.8452
 7845SOL    HW227128   9.847   2.347   3.333  0.4951 -0.0418  1.6556
 7846SOL     OW27129   0.010   2.418   9.451 -0.2357  0.1629 -0.1216
 7846SOL    HW127130   0.100   2.407   9.420 -0.0700  2.4549 -0.6109
 7846SOL    HW227131   0.016   2.406   9.546  1.0111  2.1393  0.1248
 7847SOL     OW27132   7.024   2.953   6.735  0.1719 -0.5436  0.0662
 7847SOL    HW127133   7.065   3.031   6.697  1.4858 -1.0272  0.4090
 7847SOL    HW227134   6.958   2.927   6.671  0.0097  0.6006 -0.2511
 7848SOL     OW27135   6.907   0.901   9.731  0.3764 -0.7137 -0.3055
 7848SOL    HW127136   6.902   0.944   9.646 -0.4812 -1.0449 -0.4359
 7848SOL    HW227137   6.873   0.813   9.715 -0.1667 -0.6501  0.4614
 7849SOL     OW27138   6.211   7.733   1.448 -0.2369 -0.1926  0.2063
 7849SOL    HW127139   6.122   7.700   1.462 -0.5168  1.2351  2.1351
 7849SOL    HW227140   6.246   7.744   1.537  1.0821  1.3285 -0.4706
 7850SOL     OW27141  10.081   1.989   5.771 -0.0060 -0.0762 -0.5574
 7850SOL    HW127142  10.092   1.997   5.866 -0.2833  3.4794 -0.7005
 7850SOL    HW227143   9.990   2.013   5.755  0.4499  0.9070 -1.8350
 7851SOL     OW27144   9.280   7.980   6.510  0.2765  0.0240 -0.3362
 7851SOL    HW127145   9.323   7.987   6.595  2.0161 -4.0249 -0.6491
 7851SOL    HW227146   9.206   8.040   6.515  1.6553  1.6909  3.0944
 7852SOL     OW27147  10.975   7.285  10.869 -0.3727  0.0598 -0.4415
 7852SOL    HW127148  10.905   7.319  10.925 -0.3508  2.2000 -1.6057
 7852SOL    HW227149  10.932   7.257  10.789 -0.1220 -0.7123 -0.3211
 7853SOL     OW27150   1.614   1.757   6.769  0.6059  0.6406  0.3932
 7853SOL    HW127151   1.571   1.786   6.849 -0.7881 -1.7214  0.5893
 7853SOL    HW227152   1.544   1.755   6.704  1.7146  2.5207 -0.9586
 7854SOL     OW27153   5.924   4.489   0.833  0.5555 -0.1886 -0.9719
 7854SOL    HW127154   5.863   4.476   0.760  0.1462  0.2085 -0.7107
 7854SOL    HW227155   5.868   4.497   0.910  0.9943 -0.7992 -0.5772
 7855SOL     OW27156   0.781   4.821   0.904 -0.2639  0.3712 -0.1494
 7855SOL    HW127157   0.756   4.818   0.997 -0.2032 -1.1254 -0.1522
 7855SOL    HW227158   0.705   4.787   0.858  0.1590 -0.0587 -0.5353
 7856SOL     OW27159   4.652   5.432  10.506 -0.0877 -0.1300 -0.0749
 7856SOL    HW127160   4.630   5.476  10.587 -0.8499 -1.6006  0.5534
 7856SOL    HW227161   4.568   5.418  10.462  0.1023 -1.1372 -0.1461
 7857SOL     OW27162   4.401   1.513   4.083  0.4583 -0.3002 -0.1532
 7857SOL    HW127163   4.326   1.555   4.042  0.7510  0.7425  0.3262
 7857SOL    HW227164   4.376   1.421   4.092 -0.8415  0.0678  0.1842
 7858SOL     OW27165   2.897   5.910   9.670 -0.0165  0.0996  0.1997
 7858SOL    HW127166   2.804   5.887   9.675 -0.0895  0.5327  0.8406
 7858SOL    HW227167   2.943   5.831   9.697 -0.2023 -0.0178  0.1735
 7859SOL     OW27168   8.194  10.432   9.579  0.6298  0.5114 -0.1664
 7859SOL    HW127169   8.269  10.373   9.581  0.5189  0.2693  3.1753
 7859SOL    HW227170   8.229  10.514   9.545  1.4519 -0.5968 -2.1841
 7860SOL     OW27171   5.993   2.875   1.188 -0.0772 -0.3292  0.0935
 7860SOL    HW127172   5.911   2.893   1.234  0.2273  1.1296  0.1176
 7860SOL    HW227173   5.966   2.845   1.101 -0.6410 -2.0178  0.8193
 7861SOL     OW27174   5.125   0.741   3.739 -0.3925  0.0855 -0.1699
 7861SOL    HW127175   5.054   0.706   3.793 -1.5982  0.2173 -1.5961
 7861SOL    HW227176   5.154   0.819   3.786 -1.9393  0.6379 -0.0826
 7862SOL     OW27177   9.103   7.895   6.754 -0.6829 -0.0922  0.1085
 7862SOL    HW127178   9.041   7.832   6.791 -0.2979 -2.0566 -2.2656
 7862SOL    HW227179   9.175   7.840   6.721 -0.0061  1.6553 -1.5052
 7863SOL     OW27180   0.819   9.235   1.454 -0.1976 -0.0643  0.3759
 7863SOL    HW127181   0.859   9.268   1.534 -1.2637 -1.1181  1.3855
 7863SOL    HW227182   0.848   9.144   1.448 -0.5540 -0.1469 -0.1418
 7864SOL     OW27183   8.094   7.729   6.117  0.1128  0.3212 -0.0336
 7864SOL    HW127184   8.011   7.730   6.070 -0.2345 -0.3915  0.5431
 7864SOL    HW227185   8.090   7.803   6.177 -1.4958 -1.4893  2.2803
 7865SOL     OW27186   8.704   2.212   7.376  0.6004  0.8478 -0.1772
 7865SOL    HW127187   8.633   2.250   7.324  0.5145  0.2882 -0.4837
 7865SOL    HW227188   8.772   2.279   7.378  0.4722  0.9973 -0.7555
 7866SOL     OW27189  11.053   9.197   6.950 -0.6548  0.1913  0.6286
 7866SOL    HW127190  11.106   9.190   7.029  0.3886  1.8414  0.1188
 7866SOL    HW227191  10.994   9.121   6.954  1.9189 -1.9426  1.0748
 7867SOL     OW27192   0.309   4.916   1.522 -0.1236 -0.3559  0.4329
 7867SOL    HW127193   0.271   4.828   1.527  0.8782 -0.8022  0.3244
 7867SOL    HW227194   0.244   4.967   1.473 -0.6053 -1.0839  0.2898
 7868SOL     OW27195  10.329   7.952   9.421  0.0305  0.2162 -0.2898
 7868SOL    HW127196  10.393   7.995   9.364  1.0712  0.8211  1.2562
 7868SOL    HW227197  10.264   8.020   9.439 -0.0496  0.1661 -0.3925
 7869SOL     OW27198   5.377   9.763   2.441  0.6055 -0.0395 -0.8447
 7869SOL    HW127199   5.469   9.735   2.440  0.2557 -1.2738 -2.3575
 7869SOL    HW227200   5.337   9.716   2.368 -1.2704  0.3770 -0.1392
 7870SOL     OW27201   9.875   3.491   9.285  0.0948  0.0921 -0.0952
 7870SOL    HW127202   9.848   3.534   9.204 -2.1529 -0.5902  0.2364
 7870SOL    HW227203   9.884   3.562   9.348  0.2428  0.4616 -0.5302
 7871SOL     OW27204   9.301   2.111  10.611  0.5159  0.3500 -0.4643
 7871SOL    HW127205   9.228   2.152  10.565 -1.0759 -0.5623  1.1052
 7871SOL    HW227206   9.338   2.049  10.547 -0.5543  0.3114 -1.0719
 7872SOL     OW27207   9.163   9.239  11.083 -0.4195  0.1977 -0.2051
 7872SOL    HW127208   9.100   9.198  11.143  0.6279 -0.7910  0.2692
 7872SOL    HW227209   9.109   9.283  11.018 -1.6080  1.3815  1.4925
 7873SOL     OW27210   2.764   3.363   5.844  0.0023  0.0935  0.0472
 7873SOL    HW127211   2.746   3.408   5.926  0.9035  0.1270  0.2369
 7873SOL    HW227212   2.838   3.306   5.863 -0.3982 -0.6206 -0.4970
 7874SOL     OW27213   2.009   6.327   5.240  0.2154 -0.2287 -0.0402
 7874SOL    HW127214   2.058   6.274   5.304  1.4506 -1.8233 -2.1587
 7874SOL    HW227215   2.063   6.405   5.228 -1.0462  1.1087  2.2615
 7875SOL     OW27216   8.862   4.294   6.096  0.3542 -0.3856  0.1315
 7875SOL    HW127217   8.807   4.266   6.022  1.4544 -1.6188 -0.2522
 7875SOL    HW227218   8.801   4.337   6.156 -0.8108 -0.6333 -0.8390
 7876SOL     OW27219   4.758   1.026   4.440 -0.4417  0.2562 -0.4091
 7876SOL    HW127220   4.834   0.971   4.423 -1.8021 -1.6164 -0.7269
 7876SOL    HW227221   4.764   1.048   4.533  0.9669  0.9731 -0.6404
 7877SOL     OW27222   4.411   7.533  10.857 -0.6846 -0.1664 -0.0675
 7877SOL    HW127223   4.499   7.501  10.878 -0.3042  0.1307 -1.1031
 7877SOL    HW227224   4.353   7.462  10.882 -0.1792 -0.2721  0.8638
 7878SOL     OW27225   2.776   4.762   8.629  0.5024  0.0379 -0.4992
 7878SOL    HW127226   2.814   4.678   8.605 -0.5536 -0.3947 -0.7202
 7878SOL    HW227227   2.851   4.820   8.639  1.6654 -1.8677  3.7329
 7879SOL     OW27228   2.776   9.458   6.549 -0.1365  0.1748  0.0753
 7879SOL    HW127229   2.753   9.429   6.460  0.3682  1.3494 -0.4551
 7879SOL    HW227230   2.718   9.532   6.565  2.2167  2.3468 -0.7640
 7880SOL     OW27231   4.702  10.515  10.896 -0.0893 -0.2177 -0.0339
 7880SOL    HW127232   4.656  10.519  10.980 -0.8247  0.4027 -0.4614
 7880SOL    HW227233   4.637  10.540  10.831  0.7940  0.5003 -0.6752
 7881SOL     OW27234   1.486   9.919   0.624  0.0611  0.0742 -0.4968
 7881SOL    HW127235   1.461   9.911   0.716 -0.9313  0.3106 -0.7359
 7881SOL    HW227236   1.412   9.963   0.582 -0.1323 -1.3002 -1.6924
 7882SOL     OW27237   6.908  10.837   4.646  0.1992  0.5908 -0.1077
 7882SOL    HW127238   6.921  10.777   4.719  1.8356  0.9989 -0.0169
 7882SOL    HW227239   6.973  10.907   4.661 -0.0010  1.1058 -1.5029
 7883SOL     OW27240   8.660   2.501   8.401 -0.4406 -0.1793  0.3538
 7883SOL    HW127241   8.626   2.565   8.463 -1.9585 -0.9098  0.3063
 7883SOL    HW227242   8.755   2.510   8.407 -0.5340 -0.3055  2.8567
 7884SOL     OW27243   9.290   3.024   6.745  0.0939  1.0124 -0.0819
 7884SOL    HW127244   9.208   3.074   6.747 -1.4728 -1.3202  2.4856
 7884SOL    HW227245   9.284   2.967   6.822  2.7195 -1.5136 -1.5790
 7885SOL     OW27246   7.984   7.231   9.095 -0.4999 -0.2698 -0.1103
 7885SOL    HW127247   7.950   7.226   9.005 -1.1816  0.0545  0.1265
 7885SOL    HW227248   7.927   7.173   9.145 -1.9680  1.7467  0.6669
 7886SOL     OW27249   4.589   9.860   6.265 -0.2861  0.5062 -0.1549
 7886SOL    HW127250   4.554   9.829   6.348 -1.4279  0.2299 -0.7178
 7886SOL    HW227251   4.524   9.924   6.234 -0.5863 -0.4034 -1.4809
 7887SOL     OW27252   4.683   0.792   8.331  0.5007  0.0183  0.2703
 7887SOL    HW127253   4.665   0.716   8.275 -0.5618  2.0234 -2.2904
 7887SOL    HW227254   4.771   0.820   8.306  0.3326  0.4515  0.1486
 7888SOL     OW27255   1.975   5.193   5.402  0.0499  0.4549 -0.2277
 7888SOL    HW127256   1.883   5.211   5.422 -0.4505 -0.6116 -1.4544
 7888SOL    HW227257   1.975   5.167   5.310  1.2840 -1.4591  0.2534
 7889SOL     OW27258  10.113   9.788   7.627  0.3712 -0.1748 -0.6337
 7889SOL    HW127259  10.205   9.766   7.641  0.1375 -1.9856 -1.5968
 7889SOL    HW227260  10.070   9.704   7.613 -1.1642  0.7303 -1.7233
 7890SOL     OW27261   5.301   2.031   2.329 -0.4372 -0.2036  0.2518
 7890SOL    HW127262   5.381   2.030   2.381 -1.2333 -1.2402  1.4813
 7890SOL    HW227263   5.230   2.034   2.392 -1.4059  0.4616 -0.8169
 7891SOL     OW27264   2.949   6.242   3.086 -0.1577  0.0772 -0.3146
 7891SOL    HW127265   2.955   6.322   3.138 -0.8735 -0.0767  0.0188
 7891SOL    HW227266   2.865   6.205   3.110 -0.4297 -0.0836 -1.4595
 7892SOL     OW27267   1.634   5.939   2.089 -0.8315 -0.5416  1.0215
 7892SOL    HW127268   1.550   5.975   2.116 -1.4480 -1.6164  0.5826
 7892SOL    HW227269   1.683   6.014   2.055 -2.2007 -0.1636 -0.1800
 7893SOL     OW27270  10.928   7.021  11.094 -0.1192  0.0253  0.1875
 7893SOL    HW127271  10.994   7.039  11.028 -0.0568 -1.7705 -0.2936
 7893SOL    HW227272  10.852   7.073  11.068  0.5682  0.8859 -0.1371
 7894SOL     OW27273   7.342   2.394   3.322 -0.1460 -0.0666 -0.0140
 7894SOL    HW127274   7.336   2.298   3.320 -2.2685  0.0113  0.4287
 7894SOL    HW227275   7.324   2.416   3.413  1.4284  0.7378  0.1328
 7895SOL     OW27276   9.588   1.794  11.072  0.2856  0.0832 -0.2315
 7895SOL    HW127277   9.626   1.877  11.099 -1.4557  0.6616  0.5651
 7895SOL    HW227278   9.495   1.812  11.060 -0.4807 -2.1107  1.6210
 7896SOL     OW27279   6.551   1.962   3.922  0.2684 -0.5878 -0.1609
 7896SOL    HW127280   6.592   2.034   3.874 -0.7532 -0.1297 -0.3875
 7896SOL    HW227281   6.597   1.884   3.892 -1.2926 -0.5168 -3.0765
 7897SOL     OW27282   3.706   4.695   7.859 -0.1039 -0.4776 -0.0439
 7897SOL    HW127283   3.769   4.639   7.814 -1.3953 -1.6526 -0.4840
 7897SOL    HW227284   3.709   4.778   7.812  0.0907 -0.9998 -0.9764
 7898SOL     OW27285   7.828   1.908   0.340  0.0994 -0.2565 -0.1833
 7898SOL    HW127286   7.817   1.982   0.400 -0.1547  0.3990 -1.0220
 7898SOL    HW227287   7.802   1.942   0.254 -4.0211 -2.3728 -0.0292
 7899SOL     OW27288   3.663  10.673   3.067 -0.4763  0.0735  0.1592
 7899SOL    HW127289   3.586  10.618   3.081 -0.2302 -0.1127  0.8200
 7899SOL    HW227290   3.702  10.641   2.986 -1.6238  0.7964 -0.7162
 7900SOL     OW27291   8.588   3.962   1.669 -0.2673 -0.5514  0.1246
 7900SOL    HW127292   8.495   3.945   1.680 -0.2713  0.2846  1.9172
 7900SOL    HW227293   8.627   3.877   1.650 -1.4702 -0.7811 -1.4215
 7901SOL     OW27294   1.374   9.096   0.813  0.2675 -0.3775  0.1559
 7901SOL    HW127295   1.291   9.140   0.832 -0.3456 -1.2949 -0.3291
 7901SOL    HW227296   1.390   9.113   0.721  1.5256  1.2427  0.6312
 7902SOL     OW27297   6.551   7.705   4.089 -0.0415  0.0391 -0.7433
 7902SOL    HW127298   6.621   7.731   4.150 -0.9274 -0.3994  0.5012
 7902SOL    HW227299   6.542   7.780   4.030  1.6251  0.0173 -1.0926
 7903SOL     OW27300   8.080   9.041   0.095 -0.4537  0.2931  0.2351
 7903SOL    HW127301   8.160   9.011   0.053  0.1893  2.2196 -0.0247
 7903SOL    HW227302   8.101   9.041   0.188 -0.3941  0.1468  0.2229
 7904SOL     OW27303   1.398   2.516   3.893 -0.1128  0.0244 -0.0908
 7904SOL    HW127304   1.491   2.531   3.911 -0.1403  0.0100  0.0597
 7904SOL    HW227305   1.369   2.459   3.963 -0.6012  1.2155  0.7072
 7905SOL     OW27306   8.859   1.667   7.892 -0.1588 -0.5675  0.3989
 7905SOL    HW127307   8.819   1.594   7.939 -0.7232 -1.2595 -1.0849
 7905SOL    HW227308   8.947   1.637   7.870 -1.4095 -2.2664 -3.0622
 7906SOL     OW27309   1.672   1.670   8.872 -0.1819 -0.0836 -0.3897
 7906SOL    HW127310   1.632   1.590   8.838 -0.7139  0.0707 -0.1362
 7906SOL    HW227311   1.694   1.649   8.963  1.8898 -0.7347 -0.9793
 7907SOL     OW27312  10.723   1.532   3.054  0.7152 -0.0547 -0.2497
 7907SOL    HW127313  10.741   1.596   3.122  2.1165 -1.1425  0.4373
 7907SOL    HW227314  10.806   1.487   3.040  0.0050 -1.0756 -1.4015
 7908SOL     OW27315   4.376   8.407   9.152  0.4036 -0.4022  0.0179
 7908SOL    HW127316   4.353   8.500   9.160  1.3886 -0.2377  1.1802
 7908SOL    HW227317   4.293   8.363   9.134 -0.7892  0.2574  3.2365
 7909SOL     OW27318  10.053   3.969   6.333 -0.0258 -0.5389  0.6887
 7909SOL    HW127319  10.135   4.018   6.327  1.0295 -2.4021 -2.5469
 7909SOL    HW227320   9.986   4.030   6.302  0.6967 -0.0228  0.1143
 7910SOL     OW27321  11.104  10.434   9.698  0.1420 -0.4110 -0.7573
 7910SOL    HW127322  11.025  10.384   9.719 -3.3856  3.9506 -2.1082
 7910SOL    HW227323  11.106  10.437   9.603  1.7796 -0.1232 -0.7480
 7911SOL     OW27324   2.637   1.237   2.995 -0.2841 -0.1174  0.6384
 7911SOL    HW127325   2.612   1.153   2.957  0.5945  0.3083 -0.9874
 7911SOL    HW227326   2.722   1.256   2.955 -0.3819  1.4435  1.1250
 7912SOL     OW27327   2.783   6.682   8.781 -0.1675 -0.6094 -0.2479
 7912SOL    HW127328   2.870   6.721   8.791  0.9177 -2.6141 -1.3622
 7912SOL    HW227329   2.758   6.654   8.869 -0.4472  1.3560  0.3635
 7913SOL     OW27330   3.623   5.069   6.484 -0.3280 -0.6491  0.1915
 7913SOL    HW127331   3.544   5.049   6.534 -1.4501 -1.6453 -1.8547
 7913SOL    HW227332   3.600   5.146   6.433  0.3015 -0.4980  0.1251
 7914SOL     OW27333   8.350   5.636  10.035  0.0864  0.0604  0.1933
 7914SOL    HW127334   8.336   5.566   9.971 -0.1585 -0.9578  1.3386
 7914SOL    HW227335   8.433   5.614  10.078  0.5516  1.0601 -0.1573
 7915SOL     OW27336   7.797   2.368   6.676 -0.5338 -0.0642 -0.1136
 7915SOL    HW127337   7.705   2.375   6.652 -0.3447  0.4536 -0.6895
 7915SOL    HW227338   7.843   2.349   6.594 -0.0570  0.2567  0.0718
 7916SOL     OW27339  11.085   5.975   8.203 -0.2799 -0.2299  0.3219
 7916SOL    HW127340  11.038   5.912   8.256 -0.6933 -0.9210 -0.8378
 7916SOL    HW227341  11.078   5.942   8.114 -0.1501  1.2413 -0.2590
 7917SOL     OW27342   0.628   2.027   8.571  0.4965  0.2905  0.9246
 7917SOL    HW127343   0.674   2.094   8.519  0.6689  0.4256  1.2452
 7917SOL    HW227344   0.690   2.006   8.642 -0.1849  0.9563  1.7471
 7918SOL     OW27345  10.788  10.117   1.611 -0.4198 -0.1386 -0.5926
 7918SOL    HW127346  10.703  10.135   1.571 -0.2175 -1.0939 -1.4964
 7918SOL    HW227347  10.771  10.046   1.673 -0.8930  1.8722  1.7135
 7919SOL     OW27348   5.324   5.145   5.961 -0.2260  0.3537 -0.1820
 7919SOL    HW127349   5.411   5.173   5.991  0.2185 -1.8489  0.7948
 7919SOL    HW227350   5.340   5.100   5.878 -0.3804 -0.3230  0.1501
 7920SOL     OW27351   4.639   6.042   0.280 -0.1409 -0.0231  0.3419
 7920SOL    HW127352   4.636   6.042   0.375  0.4518 -2.6795  0.4380
 7920SOL    HW227353   4.722   6.000   0.258 -0.5090  0.0258 -1.3341
 7921SOL     OW27354   4.279   2.949   0.627 -0.5819  0.6209 -0.3216
 7921SOL    HW127355   4.218   2.973   0.697 -1.4766  1.4186 -1.3444
 7921SOL    HW227356   4.225   2.905   0.562  0.2714 -0.2779 -0.4471
 7922SOL     OW27357   4.563   9.994   9.965  0.5027 -0.1725  0.1934
 7922SOL    HW127358   4.555  10.039  10.049 -0.1829 -0.5854  0.3550
 7922SOL    HW227359   4.599  10.060   9.906 -0.0860  0.4593  0.5286
 7923SOL     OW27360   9.098   3.581  10.976 -0.3489 -0.0900  0.1864
 7923SOL    HW127361   9.149   3.660  10.991 -0.1229 -0.3220  0.6912
 7923SOL    HW227362   9.044   3.572  11.054 -1.1066  0.1060 -0.3094
 7924SOL     OW27363   8.281   5.013   0.313  0.2200  0.1616 -0.2064
 7924SOL    HW127364   8.311   5.070   0.242  0.6063 -1.9073 -1.8096
 7924SOL    HW227365   8.287   4.925   0.277 -1.9164 -0.8125  1.5945
 7925SOL     OW27366   3.440   3.039   2.414  0.3574  0.1863  0.5510
 7925SOL    HW127367   3.443   3.060   2.321  1.0034  1.6903  0.8809
 7925SOL    HW227368   3.502   2.967   2.425  0.8116  0.4776 -0.0697
 7926SOL     OW27369   3.002  10.961  10.165  0.0462 -0.1568 -0.1167
 7926SOL    HW127370   2.991  10.924  10.077 -0.8870  0.1207 -0.1319
 7926SOL    HW227371   3.061  10.900  10.209  0.7758 -0.1354 -1.0269
 7927SOL     OW27372   6.420   6.395   2.082 -0.7263 -0.1294 -0.0450
 7927SOL    HW127373   6.379   6.398   1.995  0.2776  1.2846 -0.4964
 7927SOL    HW227374   6.364   6.335   2.132 -2.5856  0.7107 -1.0113
 7928SOL     OW27375   8.153   9.711   5.392 -0.2423 -0.2538  0.2356
 7928SOL    HW127376   8.065   9.689   5.365 -0.7278  1.8024  0.0005
 7928SOL    HW227377   8.159   9.806   5.382  2.5724 -0.4888 -1.4511
 7929SOL     OW27378   9.911   0.456   9.280 -0.3086 -0.1259  0.0730
 7929SOL    HW127379   9.993   0.431   9.324 -0.6303  0.5739  1.1008
 7929SOL    HW227380   9.842   0.432   9.341 -0.7073  1.8689  0.4926
 7930SOL     OW27381   0.727   5.156   3.663  0.4390 -0.2625  0.2245
 7930SOL    HW127382   0.751   5.106   3.584  1.3518  1.9459 -0.9777
 7930SOL    HW227383   0.725   5.247   3.634  0.2395  0.5733  2.6516
 7931SOL     OW27384   5.933   2.789   0.945  0.1949 -0.1053  0.5630
 7931SOL    HW127385   5.863   2.747   0.894  0.1364 -1.2669  1.5393
 7931SOL    HW227386   6.014   2.755   0.907  0.1482 -1.2304  1.3812
 7932SOL     OW27387  11.028   1.920   2.623 -0.2541 -0.0499 -1.5686
 7932SOL    HW127388  11.040   1.876   2.539 -2.2733  1.9615 -3.0319
 7932SOL    HW227389  11.001   2.009   2.600  1.1066  1.2224  1.2467
 7933SOL     OW27390   9.194   3.894   0.142 -0.1204  0.5355 -0.3293
 7933SOL    HW127391   9.256   3.821   0.144 -0.4296  0.2202 -1.4726
 7933SOL    HW227392   9.209   3.941   0.224  0.9823 -0.0669 -0.1709
 7934SOL     OW27393  10.827  10.712   0.974 -0.1725  0.5306  0.2120
 7934SOL    HW127394  10.814  10.730   0.881  1.0770  1.4197  0.1829
 7934SOL    HW227395  10.742  10.682   1.005 -2.1405  4.9283 -0.1444
 7935SOL     OW27396   1.946   6.441   9.153 -0.1312  0.2831  0.9959
 7935SOL    HW127397   1.879   6.478   9.211  1.8108  0.1597  3.5134
 7935SOL    HW227398   1.992   6.377   9.208  0.0102 -2.0756 -1.6337
 7936SOL     OW27399   5.475   9.630  10.127  0.2594 -0.1250  0.0771
 7936SOL    HW127400   5.427   9.689  10.185 -2.7561 -0.6851 -1.6242
 7936SOL    HW227401   5.499   9.556  10.183 -1.3892 -0.0496  0.9614
 7937SOL     OW27402   6.997   3.752   1.888 -0.4057  0.0953 -0.3475
 7937SOL    HW127403   7.091   3.732   1.883 -0.0377  1.8614 -1.4164
 7937SOL    HW227404   6.990   3.843   1.858 -2.5567 -0.2440 -1.0870
 7938SOL     OW27405   8.664   6.571   7.081  0.4305  0.3719  0.1748
 7938SOL    HW127406   8.607   6.613   7.016  0.1839  0.5886  0.5290
 7938SOL    HW227407   8.617   6.580   7.164  0.9880  0.5725  0.4759
 7939SOL     OW27408   3.150   8.956   1.483 -0.2913  0.3080 -0.1499
 7939SOL    HW127409   3.112   9.036   1.521 -1.6063 -0.1519 -0.4494
 7939SOL    HW227410   3.104   8.946   1.399  0.1826 -0.5243 -0.3118
 7940SOL     OW27411   2.792   3.953   3.255  0.1525  0.3585  0.2939
 7940SOL    HW127412   2.696   3.943   3.253  0.0972  1.0097 -0.4798
 7940SOL    HW227413   2.821   3.886   3.318 -1.0506  2.0743  2.8603
 7941SOL     OW27414   1.951   2.057   3.794  0.0029 -0.2888 -0.9418
 7941SOL    HW127415   2.009   2.025   3.724  1.1060 -1.4665  0.4475
 7941SOL    HW227416   1.894   1.983   3.814  0.1667 -0.2041 -0.1296
 7942SOL     OW27417   3.865   3.426   3.671 -0.0464 -0.0853 -0.7685
 7942SOL    HW127418   3.878   3.454   3.581  1.4614  1.3287 -0.1595
 7942SOL    HW227419   3.802   3.489   3.708  0.9049  0.6015 -0.2842
 7943SOL     OW27420  10.059   9.313   1.500 -0.0995  0.6867  0.0566
 7943SOL    HW127421  10.079   9.222   1.479 -0.0691  0.6218  0.3630
 7943SOL    HW227422  10.134   9.362   1.465  1.3569  0.3121  2.4276
 7944SOL     OW27423   1.598   9.606   6.807  0.3175  0.6894  0.2629
 7944SOL    HW127424   1.626   9.683   6.856  2.4144  0.2296 -0.1209
 7944SOL    HW227425   1.621   9.532   6.863  1.9304  0.2046 -0.9481
 7945SOL     OW27426   2.381   8.783   1.694 -0.3099  0.2122  0.3263
 7945SOL    HW127427   2.355   8.806   1.604  0.7741 -0.5099 -0.1996
 7945SOL    HW227428   2.304   8.738   1.729 -1.3263  1.8678  0.3299
 7946SOL     OW27429   0.971   1.887   8.013  0.2324  0.0619 -0.3385
 7946SOL    HW127430   0.949   1.975   7.982 -1.4363  0.3598  1.4884
 7946SOL    HW227431   0.891   1.837   8.003 -0.1258 -0.0779  2.3970
 7947SOL     OW27432   4.973  10.873   0.693  0.0141 -0.0358 -0.3083
 7947SOL    HW127433   4.935  10.787   0.714  1.2056 -0.0976  1.9420
 7947SOL    HW227434   5.055  10.852   0.648 -0.8231  0.0229 -1.9287
 7948SOL     OW27435   5.358  10.611   9.700  0.6656  0.7535  0.5371
 7948SOL    HW127436   5.429  10.675   9.702 -0.3399  1.9402 -0.1476
 7948SOL    HW227437   5.337  10.603   9.607  1.2358 -1.1391  0.5350
 7949SOL     OW27438   1.143   4.945  10.410  0.1077 -0.5350 -0.2680
 7949SOL    HW127439   1.110   4.957  10.500 -0.7878 -2.2780 -0.3240
 7949SOL    HW227440   1.206   5.016  10.399 -1.7842  1.4450  0.7449
 7950SOL     OW27441   9.605   2.405   9.346  0.1441  1.1222 -0.1801
 7950SOL    HW127442   9.673   2.392   9.280  1.4698  1.1002  1.1181
 7950SOL    HW227443   9.633   2.351   9.420 -1.3233  1.0950  0.3869
 7951SOL     OW27444  10.818   4.651   6.910  0.1361 -0.1273  0.4537
 7951SOL    HW127445  10.813   4.556   6.920 -0.6696 -0.0306  1.0678
 7951SOL    HW227446  10.779   4.685   6.990  0.2179  0.7229  0.1367
 7952SOL     OW27447   0.767   7.472  10.269 -0.3863 -0.3081 -0.1082
 7952SOL    HW127448   0.813   7.399  10.310  0.0472  0.0548  0.0485
 7952SOL    HW227449   0.692   7.488  10.327  0.7344  0.8286  1.1073
 7953SOL     OW27450   1.300   6.795   9.635 -0.1489  0.3350 -0.1901
 7953SOL    HW127451   1.300   6.803   9.539  1.6911  1.1263 -0.1604
 7953SOL    HW227452   1.338   6.708   9.651 -1.2712 -0.1773 -0.1515
 7954SOL     OW27453   4.147   0.391   3.567 -0.1122 -0.4795 -0.4259
 7954SOL    HW127454   4.144   0.378   3.472  1.8964 -0.1651 -0.5793
 7954SOL    HW227455   4.187   0.478   3.578  1.7309 -1.4097  0.6924
 7955SOL     OW27456   0.513   9.160   9.630 -0.6432 -0.3437 -0.3626
 7955SOL    HW127457   0.558   9.151   9.546 -1.5872 -0.1063 -0.9031
 7955SOL    HW227458   0.493   9.253   9.637 -0.1257 -0.2784  0.3682
 7956SOL     OW27459   8.178   6.851   0.155  0.1535 -0.2721  0.2353
 7956SOL    HW127460   8.237   6.799   0.101  0.9233 -0.0646  0.8593
 7956SOL    HW227461   8.153   6.792   0.227 -1.8238 -0.9555 -0.9462
 7957SOL     OW27462   1.268   2.327   1.490  0.0220 -0.3071  0.1382
 7957SOL    HW127463   1.177   2.349   1.511  0.0271 -0.0928 -0.0573
 7957SOL    HW227464   1.273   2.338   1.395  0.0336 -1.1283  0.0402
 7958SOL     OW27465   7.660   6.069   1.226  0.1616  0.4785  0.1370
 7958SOL    HW127466   7.609   6.149   1.238 -0.9535 -0.1877 -0.0228
 7958SOL    HW227467   7.595   5.999   1.225  1.2457 -0.6402  2.1410
 7959SOL     OW27468   9.055   7.182  10.011  0.1426 -0.1458  0.7474
 7959SOL    HW127469   9.101   7.139   9.939  2.5468  0.2774  1.9068
 7959SOL    HW227470   9.124   7.231  10.057 -1.6711  1.2456  2.1304
 7960SOL     OW27471   9.175   2.834  10.539 -0.3598 -0.2052 -0.1665
 7960SOL    HW127472   9.146   2.923  10.559 -0.6145 -0.1259 -0.8649
 7960SOL    HW227473   9.094   2.784  10.532 -0.2077 -0.5768  0.5535
 7961SOL     OW27474   5.636   5.887   8.921 -0.8867  0.0081 -0.1283
 7961SOL    HW127475   5.604   5.813   8.972  0.6494 -0.4074  0.2639
 7961SOL    HW227476   5.689   5.848   8.851 -0.5210  0.7108 -0.2531
 7962SOL     OW27477   5.915   1.529  10.217 -0.0670 -0.1789  0.3020
 7962SOL    HW127478   5.878   1.516  10.130  0.9544 -2.6322  0.1720
 7962SOL    HW227479   6.009   1.520  10.205  0.4793  3.1748  1.1000
 7963SOL     OW27480   4.138   8.549   3.316  0.1904  0.5353 -0.2559
 7963SOL    HW127481   4.133   8.644   3.311 -1.3817  0.4909 -0.1288
 7963SOL    HW227482   4.051   8.522   3.345  1.1421 -0.8307  1.5581
 7964SOL     OW27483   7.647   4.380   7.615  0.3126 -0.1637 -0.0641
 7964SOL    HW127484   7.636   4.388   7.710  1.2586 -2.5963  0.3183
 7964SOL    HW227485   7.737   4.348   7.605 -0.1546 -1.0154 -1.7287
 7965SOL     OW27486   9.961   6.147   9.854  0.4504 -0.5827 -0.2044
 7965SOL    HW127487  10.024   6.198   9.905 -1.4951  1.6431  0.1682
 7965SOL    HW227488  10.001   6.139   9.767  1.0648  1.2508 -0.1394
 7966SOL     OW27489   3.076   5.076   6.472 -0.0212 -0.4128  0.1499
 7966SOL    HW127490   3.110   5.120   6.395 -0.9262  1.6663  0.8665
 7966SOL    HW227491   2.987   5.050   6.448 -0.2501  0.1004  0.4320
 7967SOL     OW27492   4.206   3.790   6.974  0.3150  0.1818 -0.0898
 7967SOL    HW127493   4.124   3.838   6.965 -0.5502 -0.8475  1.7327
 7967SOL    HW227494   4.255   3.839   7.039  0.1989 -0.3957  0.4402
 7968SOL     OW27495   1.632   4.400   6.913 -0.0859  0.2769 -0.5236
 7968SOL    HW127496   1.572   4.424   6.843  1.5281  1.8091 -1.4469
 7968SOL    HW227497   1.712   4.374   6.868  0.0145 -1.6674  0.6791
 7969SOL     OW27498   6.934   5.794   7.614 -0.4779 -0.1891  0.2310
 7969SOL    HW127499   6.969   5.834   7.693  1.7562 -3.0316  0.8307
 7969SOL    HW227500   7.010   5.780   7.558 -1.3378 -2.1321 -0.5344
 7970SOL     OW27501   1.269   8.673   3.879 -0.1738  0.0877 -0.4778
 7970SOL    HW127502   1.328   8.609   3.840 -0.2685  1.4038 -3.0152
 7970SOL    HW227503   1.325   8.747   3.901 -0.5238  0.4414 -0.7533
 7971SOL     OW27504   1.204   0.663   9.819 -0.3854  0.1437 -0.1357
 7971SOL    HW127505   1.221   0.578   9.777 -0.5815  0.4122 -0.7664
 7971SOL    HW227506   1.290   0.689   9.853 -0.7064 -1.2864  1.9593
 7972SOL     OW27507   0.664   2.650   2.216 -0.3441 -0.3047  0.4365
 7972SOL    HW127508   0.723   2.700   2.160 -0.2870  0.2744  0.9928
 7972SOL    HW227509   0.674   2.559   2.188 -2.4139  0.2216 -2.3871
 7973SOL     OW27510  10.872   9.645   1.622  0.0921  0.2566  0.2324
 7973SOL    HW127511  10.821   9.715   1.663  0.6950  0.6248  0.3569
 7973SOL    HW227512  10.896   9.678   1.536  1.1920  0.6033  0.6526
 7974SOL     OW27513   1.545   2.722   0.786  0.2262 -0.3359 -0.0459
 7974SOL    HW127514   1.489   2.800   0.778 -0.3697 -0.8501 -1.0410
 7974SOL    HW227515   1.591   2.734   0.869 -0.4461  0.6966  0.1940
 7975SOL     OW27516   4.504   2.366  10.960 -0.8234 -0.3698  0.2224
 7975SOL    HW127517   4.444   2.371  11.035 -1.0983 -0.7597  0.0305
 7975SOL    HW227518   4.454   2.320  10.893 -2.4255  3.9392 -1.9471
 7976SOL     OW27519   9.962   7.261   1.802  0.1129  0.0710 -0.2625
 7976SOL    HW127520  10.018   7.330   1.766 -0.6857  1.3916  0.9392
 7976SOL    HW227521   9.875   7.280   1.767 -0.6102  1.1614  1.9596
 7977SOL     OW27522   4.898   5.593   2.599 -0.0884 -1.0315 -0.1160
 7977SOL    HW127523   4.879   5.563   2.688  0.8795 -1.2642  0.0220
 7977SOL    HW227524   4.933   5.681   2.610  0.6155 -1.2928 -0.2022
 7978SOL     OW27525   2.049  10.570   4.844 -0.6460 -0.5390 -0.3613
 7978SOL    HW127526   2.135  10.592   4.880 -0.1362 -0.5228 -1.5443
 7978SOL    HW227527   2.058  10.585   4.750 -2.2019  0.2980 -0.4157
 7979SOL     OW27528   9.715   9.896   8.428 -0.2583  0.2938  0.0818
 7979SOL    HW127529   9.736   9.989   8.430 -0.8493  0.4235  0.4180
 7979SOL    HW227530   9.668   9.883   8.346  1.6828 -0.1320 -1.0261
 7980SOL     OW27531   6.961   6.578   0.509  0.1615 -0.1162 -0.2878
 7980SOL    HW127532   6.977   6.593   0.602  2.4553 -0.8674 -0.4970
 7980SOL    HW227533   6.957   6.665   0.470 -2.0089  0.2587  0.6161
 7981SOL     OW27534   0.031   8.127   1.911  0.1822  0.9481  0.6734
 7981SOL    HW127535   0.057   8.160   1.825 -1.2166  1.7798  0.5358
 7981SOL    HW227536  -0.049   8.176   1.932 -1.3257 -1.4921  0.9973
 7982SOL     OW27537   2.613   2.936   0.359 -0.2746  0.3527  0.3441
 7982SOL    HW127538   2.641   2.864   0.416 -0.2103 -1.3098 -1.6513
 7982SOL    HW227539   2.523   2.954   0.386 -0.8260 -1.5540 -0.0316
 7983SOL     OW27540   8.349   7.047   5.697  0.1125 -0.0997  0.1476
 7983SOL    HW127541   8.320   6.978   5.757 -1.2249  1.4121  1.3151
 7983SOL    HW227542   8.433   7.016   5.665 -0.9957 -2.8737 -0.3843
 7984SOL     OW27543   0.711   7.751   0.448 -0.0786  0.4660  0.4402
 7984SOL    HW127544   0.662   7.695   0.508  0.1631  1.2355  1.3898
 7984SOL    HW227545   0.654   7.826   0.434  0.5149  1.0312  0.9845
 7985SOL     OW27546   2.398   0.137   5.528  0.5311  0.4598 -0.4245
 7985SOL    HW127547   2.316   0.173   5.562  0.3665  1.5841 -1.8972
 7985SOL    HW227548   2.403   0.170   5.438  0.9293 -2.3384 -1.5372
 7986SOL     OW27549   1.239   9.597   8.620  0.0861  1.1465 -0.2164
 7986SOL    HW127550   1.259   9.514   8.663 -1.1397  0.6916 -0.4789
 7986SOL    HW227551   1.149   9.616   8.645 -0.1662  1.6108 -1.3954
 7987SOL     OW27552   3.223   8.776   7.650 -0.2779 -0.2979 -0.0749
 7987SOL    HW127553   3.254   8.752   7.737  0.6645 -0.2768 -0.3888
 7987SOL    HW227554   3.276   8.722   7.591  2.3079  2.8367 -0.8560
 7988SOL     OW27555   1.757   3.822   7.879  0.0474  0.3310 -0.2812
 7988SOL    HW127556   1.749   3.767   7.956 -0.8124  0.3784 -0.3309
 7988SOL    HW227557   1.778   3.762   7.808 -0.6874  0.0837 -0.2973
 7989SOL     OW27558   0.254   3.926   9.932 -0.0049  0.2288  0.0897
 7989SOL    HW127559   0.299   4.010   9.921 -0.4775  0.5329  0.4170
 7989SOL    HW227560   0.324   3.865   9.956  0.1356  0.8807  1.4390
 7990SOL     OW27561   5.562   9.460   7.445  0.4158 -0.2369  0.0215
 7990SOL    HW127562   5.594   9.458   7.535  1.1149 -0.1370 -0.2204
 7990SOL    HW227563   5.470   9.484   7.453  0.2311 -1.1064  0.7724
 7991SOL     OW27564  10.946   4.282   5.290  0.5376 -0.7760  0.1904
 7991SOL    HW127565  10.875   4.321   5.341  1.9300  1.1028  0.8211
 7991SOL    HW227566  11.015   4.348   5.292  2.6474 -2.8788  0.3372
 7992SOL     OW27567   7.573  11.109   0.229  0.0328 -0.3408  0.3623
 7992SOL    HW127568   7.546  11.155   0.150  2.0579  2.5064  1.1889
 7992SOL    HW227569   7.507  11.132   0.294  0.2390  0.1914  0.3862
 7993SOL     OW27570   1.303   4.246   0.546  0.0378  0.0930  0.1196
 7993SOL    HW127571   1.302   4.151   0.559  0.4769 -0.0079 -0.5449
 7993SOL    HW227572   1.219   4.266   0.506  0.5138 -0.2255 -1.0844
 7994SOL     OW27573   0.456   9.473   9.633  0.3009 -0.0999 -0.1026
 7994SOL    HW127574   0.527   9.477   9.697 -0.2867  0.6400  0.5315
 7994SOL    HW227575   0.376   9.476   9.686 -0.1938  0.7532 -0.8707
 7995SOL     OW27576   2.504   1.526   0.118 -0.0265  0.7317  0.0202
 7995SOL    HW127577   2.506   1.569   0.033 -1.6807 -1.2418 -1.1178
 7995SOL    HW227578   2.562   1.450   0.108  0.5943  1.0553  1.0188
 7996SOL     OW27579   9.845   7.882   4.559  0.1790  0.1858 -0.3971
 7996SOL    HW127580   9.795   7.949   4.512 -1.2680 -0.0545  0.7350
 7996SOL    HW227581   9.785   7.807   4.564  0.7669 -0.2328  0.6998
 7997SOL     OW27582   4.843   6.169   6.636 -0.6670  0.4339  0.3586
 7997SOL    HW127583   4.814   6.247   6.588 -0.3777  0.7312  0.6660
 7997SOL    HW227584   4.842   6.099   6.570 -0.2199  0.8540 -0.0991
 7998SOL     OW27585   3.475   5.174   4.294  0.2723 -0.5255  0.3917
 7998SOL    HW127586   3.428   5.142   4.217  0.6885 -2.1285  0.7739
 7998SOL    HW227587   3.548   5.225   4.258 -1.0999  1.1096 -0.2124
 7999SOL     OW27588   9.250   0.304   6.105  0.6376 -0.4016 -0.5288
 7999SOL    HW127589   9.207   0.219   6.109 -3.0390  1.2790  0.4356
 7999SOL    HW227590   9.260   0.330   6.197  1.3846  0.3579 -0.8087
 8000SOL     OW27591   4.658  10.180   6.815  0.5982  0.8044 -0.1521
 8000SOL    HW127592   4.598  10.112   6.846  1.8069 -0.1340  0.2237
 8000SOL    HW227593   4.609  10.261   6.823  0.7236  0.6567  4.1188
 8001SOL     OW27594  10.283   5.694   9.726 -0.4281  0.1261 -0.2572
 8001SOL    HW127595  10.312   5.682   9.817 -1.5176  0.2603  0.1275
 8001SOL    HW227596  10.328   5.626   9.677 -0.6733 -0.6636  0.5781
 8002SOL     OW27597   9.376  10.881   2.442 -0.2062  0.2129 -0.2112
 8002SOL    HW127598   9.322  10.952   2.476  0.6224  0.7762 -0.0375
 8002SOL    HW227599   9.456  10.884   2.495 -1.0650 -2.3690  1.4415
 8003SOL     OW27600   5.217   2.133   0.882 -0.0509 -0.0436 -0.0737
 8003SOL    HW127601   5.206   2.082   0.802  1.7534 -1.3170  0.4307
 8003SOL    HW227602   5.142   2.108   0.937 -1.2460  0.7666 -1.2760
 8004SOL     OW27603  11.022  10.980  11.025 -0.5736  0.1884 -0.2188
 8004SOL    HW127604  11.003  10.993  11.118 -0.0773 -0.4929 -0.0161
 8004SOL    HW227605  11.083  11.051  11.003  0.0368 -0.1971  0.2135
 8005SOL     OW27606   0.122   8.288   1.606 -0.3785 -0.3656 -0.2440
 8005SOL    HW127607   0.163   8.334   1.532  0.8522 -0.9518  0.0360
 8005SOL    HW227608   0.145   8.340   1.683  0.0623 -0.8278 -0.0564
 8006SOL     OW27609   1.180   4.752   2.328  0.4104  0.5526  0.5245
 8006SOL    HW127610   1.246   4.691   2.359  1.0507  0.5128 -0.8314
 8006SOL    HW227611   1.229   4.827   2.296 -0.2550  0.9346  0.3729
 8007SOL     OW27612   0.665   2.330   9.759 -0.0631 -0.2818 -0.0492
 8007SOL    HW127613   0.579   2.373   9.759  0.2092  0.3406 -1.6325
 8007SOL    HW227614   0.655   2.256   9.819 -1.2718  0.5957  0.8905
 8008SOL     OW27615   7.702   8.210   3.219  0.2411 -0.0820 -0.7037
 8008SOL    HW127616   7.607   8.199   3.215  0.3935 -2.4609  0.2704
 8008SOL    HW227617   7.725   8.254   3.137 -1.4874 -1.5274 -2.0323
 8009SOL     OW27618   1.612   3.566   1.213 -0.2567  0.3936 -0.0920
 8009SOL    HW127619   1.662   3.567   1.294  0.6209 -0.0455 -0.6159
 8009SOL    HW227620   1.574   3.654   1.207  0.5158  0.7593  0.2771
 8010SOL     OW27621   6.519   3.518   4.060  0.4877 -0.1951  0.0931
 8010SOL    HW127622   6.501   3.451   3.994 -0.3116 -1.2705  1.3656
 8010SOL    HW227623   6.476   3.487   4.139  1.4994  1.0212  1.1742
 8011SOL     OW27624   1.620   6.462  10.722 -0.0079 -0.0843  0.0251
 8011SOL    HW127625   1.654   6.548  10.700 -0.2558 -0.1734 -0.7415
 8011SOL    HW227626   1.583   6.472  10.810 -3.2258  1.5424 -1.3855
 8012SOL     OW27627   9.818   3.201   3.367  0.3203  0.3788 -0.4329
 8012SOL    HW127628   9.795   3.255   3.443 -1.1824 -0.9677  0.1007
 8012SOL    HW227629   9.849   3.265   3.302  2.0779  1.5338  1.3955
 8013SOL     OW27630   2.201   9.605   4.033  0.0725 -0.3776 -0.1708
 8013SOL    HW127631   2.266   9.595   4.102  0.4887  1.1124 -0.3145
 8013SOL    HW227632   2.121   9.567   4.070  0.9379 -2.0401  0.0860
 8014SOL     OW27633   5.486   7.694   6.076 -0.4156  0.1788  0.7841
 8014SOL    HW127634   5.527   7.609   6.065 -0.0132  0.5119 -0.4875
 8014SOL    HW227635   5.518   7.726   6.161  0.5063 -0.3567  0.6496
 8015SOL     OW27636   1.957   3.306   6.302  0.0466  0.1314 -0.1334
 8015SOL    HW127637   1.981   3.230   6.356 -0.8712  0.0885  0.2261
 8015SOL    HW227638   1.932   3.268   6.218  0.5692  0.1210 -0.2856
 8016SOL     OW27639   4.447   2.027   5.573  0.6206 -0.7496  0.4081
 8016SOL    HW127640   4.503   2.103   5.591  0.1179  0.1138 -1.3935
 8016SOL    HW227641   4.508   1.958   5.545  1.0588 -0.9507  1.8053
 8017SOL     OW27642   9.716   2.564   5.601  0.0743 -0.1689  0.7429
 8017SOL    HW127643   9.783   2.517   5.552  0.5901  2.3935 -1.1840
 8017SOL    HW227644   9.639   2.563   5.545 -0.5902 -0.5372  1.6366
 8018SOL     OW27645   2.872   7.636   9.340  0.1144  0.5593 -0.1159
 8018SOL    HW127646   2.966   7.636   9.359  0.1605  0.3295 -0.3376
 8018SOL    HW227647   2.861   7.701   9.271  0.6344 -1.7753 -2.5641
 8019SOL     OW27648   8.048   0.532  10.805 -0.6979  0.0897 -0.2168
 8019SOL    HW127649   8.093   0.531  10.889 -1.6293  0.1970  0.2916
 8019SOL    HW227650   8.081   0.454  10.760  0.4029  0.4588 -0.0916
 8020SOL     OW27651   4.142   8.324   7.545 -0.1769  0.1164  0.4048
 8020SOL    HW127652   4.150   8.229   7.551  0.4359 -0.0451 -1.8777
 8020SOL    HW227653   4.226   8.357   7.578  1.2930 -0.4270 -2.4242
 8021SOL     OW27654   5.441   3.031   1.748  0.3100  0.4696 -0.1082
 8021SOL    HW127655   5.429   3.070   1.835  1.4555 -0.0620  0.3067
 8021SOL    HW227656   5.399   2.945   1.754 -0.6358  0.8989 -0.4574
 8022SOL     OW27657   3.569   0.884   2.940  0.3611  0.7073 -0.0265
 8022SOL    HW127658   3.597   0.882   2.849  0.0657 -0.2754 -0.1009
 8022SOL    HW227659   3.490   0.831   2.943  0.0512  1.1848  0.7039
 8023SOL     OW27660   6.274   0.111  10.472 -0.5757  0.0830  0.1713
 8023SOL    HW127661   6.277   0.163  10.391 -0.5979  0.7697  0.6071
 8023SOL    HW227662   6.320   0.165  10.536  0.2762 -0.8761  0.3839
 8024SOL     OW27663   4.338   8.303  10.293 -1.1420  0.0010  1.0232
 8024SOL    HW127664   4.388   8.381  10.266  1.0139 -1.8128 -0.6742
 8024SOL    HW227665   4.253   8.314  10.252 -0.7304  1.2717  0.4498
 8025SOL     OW27666   8.908   9.310   0.679  0.2956 -0.2516  0.2944
 8025SOL    HW127667   8.982   9.253   0.656 -1.3072 -1.5050 -2.1873
 8025SOL    HW227668   8.841   9.250   0.712 -0.3734  0.5732  0.4627
 8026SOL     OW27669   1.364   6.217   0.826 -0.2689 -0.4785 -0.2721
 8026SOL    HW127670   1.316   6.152   0.879  0.3606 -2.0127 -1.4890
 8026SOL    HW227671   1.404   6.165   0.756  0.7196  1.1836 -0.9896
 8027SOL     OW27672   6.952   7.964  11.010  1.0223  0.8987  0.0994
 8027SOL    HW127673   6.953   7.897  10.942  0.1243  1.7045 -0.7405
 8027SOL    HW227674   7.043   7.989  11.020  1.2496  0.2536 -0.2770
 8028SOL     OW27675  10.178   6.382  10.638  0.0979  0.3471  0.4332
 8028SOL    HW127676  10.206   6.346  10.723 -2.0990  0.1007  1.1330
 8028SOL    HW227677  10.122   6.314  10.601 -1.8114  1.8342  0.4407
 8029SOL     OW27678   7.630   7.591   9.291  0.4115  0.2133 -0.2108
 8029SOL    HW127679   7.672   7.650   9.228  2.2287  0.6725  1.3352
 8029SOL    HW227680   7.686   7.594   9.368 -1.4515 -0.7305  1.2729
 8030SOL     OW27681   4.892   2.169   8.520 -0.0740  0.0076  0.2649
 8030SOL    HW127682   4.855   2.165   8.609  0.8486  0.1380  0.6604
 8030SOL    HW227683   4.901   2.262   8.502 -0.8099 -0.0027 -0.2128
 8031SOL     OW27684   1.859   1.023   7.955  0.3536 -0.3678 -0.1961
 8031SOL    HW127685   1.829   0.966   7.884 -0.0438 -1.8204  1.0618
 8031SOL    HW227686   1.935   0.977   7.991  1.6530  1.2381 -0.7663
 8032SOL     OW27687   6.952   6.622   5.369 -0.5127  0.2166 -0.0858
 8032SOL    HW127688   6.898   6.616   5.448  1.8524  1.4603  1.7587
 8032SOL    HW227689   6.966   6.716   5.357 -0.3605  0.0167 -1.6806
 8033SOL     OW27690   4.316   1.556  10.898 -0.0697 -0.1777 -0.1964
 8033SOL    HW127691   4.309   1.563  10.993 -0.5748  0.4125 -0.2688
 8033SOL    HW227692   4.235   1.511  10.872  0.3315 -0.8443 -0.2972
 8034SOL     OW27693  11.097  10.595  10.146 -0.2799  0.3547 -0.1378
 8034SOL    HW127694  11.138  10.571  10.229 -1.0051 -0.2745  0.0559
 8034SOL    HW227695  11.146  10.546  10.080  0.0646  0.5680 -0.0416
 8035SOL     OW27696   7.960   5.631  11.063  0.0596  0.3023 -0.0607
 8035SOL    HW127697   7.961   5.552  11.118 -0.2311 -0.0862 -0.6013
 8035SOL    HW227698   7.879   5.623  11.013 -0.5172  1.4757  0.6376
 8036SOL     OW27699   8.851   1.794   4.461 -0.2827 -0.2956 -0.3471
 8036SOL    HW127700   8.772   1.841   4.489  0.1340 -1.0503  2.3812
 8036SOL    HW227701   8.922   1.856   4.478 -0.1300 -0.2430 -1.1629
 8037SOL     OW27702   9.596   8.685   8.256  0.2055 -0.3725 -0.3696
 8037SOL    HW127703   9.560   8.716   8.339  1.0185 -1.6404  0.4815
 8037SOL    HW227704   9.560   8.745   8.191  1.6762  2.3982  1.1680
 8038SOL     OW27705   0.775   1.048   6.876 -0.2740  0.1250  0.0434
 8038SOL    HW127706   0.757   0.970   6.823 -1.7570 -0.2875  1.0922
 8038SOL    HW227707   0.805   1.114   6.813  0.1712 -1.0294 -0.9764
 8039SOL     OW27708  10.702   8.478   2.781  0.2273 -0.1606  0.3120
 8039SOL    HW127709  10.739   8.403   2.826  1.8966 -0.4214 -1.3625
 8039SOL    HW227710  10.627   8.443   2.732 -1.0511 -0.0346  2.0883
 8040SOL     OW27711   0.366   6.748   8.052 -0.3403 -0.5801 -0.8931
 8040SOL    HW127712   0.276   6.739   8.022 -0.4352  0.0642 -0.8146
 8040SOL    HW227713   0.366   6.712   8.141 -1.2137  2.1061  0.2870
 8041SOL     OW27714   1.477  10.603   9.159  0.0239  0.5305  0.3587
 8041SOL    HW127715   1.483  10.553   9.241 -1.4265  0.4272  0.4305
 8041SOL    HW227716   1.397  10.570   9.118  1.3482 -0.2839 -1.7092
 8042SOL     OW27717   0.429  11.043   3.252  0.5244 -0.2343  0.2481
 8042SOL    HW127718   0.337  11.060   3.230  1.3613  1.4139 -2.4038
 8042SOL    HW227719   0.448  11.104   3.324  0.0194  0.7923 -0.4724
 8043SOL     OW27720   2.640   1.515   4.277 -0.0346  0.4842 -0.5902
 8043SOL    HW127721   2.594   1.433   4.260 -2.4265  1.3870  0.9301
 8043SOL    HW227722   2.643   1.522   4.373  3.2724  0.5817 -0.6009
 8044SOL     OW27723   6.816   1.255   6.486 -0.3200 -0.1152  0.2747
 8044SOL    HW127724   6.908   1.245   6.511 -0.8492 -1.5093  1.7928
 8044SOL    HW227725   6.798   1.178   6.432 -0.4982  0.4143 -0.4492
 8045SOL     OW27726   5.275   0.569   9.961 -0.3732 -0.4994  0.1312
 8045SOL    HW127727   5.280   0.529  10.048 -1.4849 -1.3770 -0.1818
 8045SOL    HW227728   5.182   0.587   9.948 -0.3819 -1.4737 -1.3466
 8046SOL     OW27729   0.794   1.511  10.904  0.1347 -0.4417  0.1826
 8046SOL    HW127730   0.848   1.582  10.870  0.1813 -0.4511  0.2369
 8046SOL    HW227731   0.812   1.510  10.998 -0.7775  0.2702  0.3820
 8047SOL     OW27732   4.366   6.489  10.973 -0.1029 -0.0916 -0.5741
 8047SOL    HW127733   4.338   6.442  10.894  1.3929 -1.3062 -0.4257
 8047SOL    HW227734   4.335   6.433  11.045  1.6979 -0.9155 -0.3953
 8048SOL     OW27735   9.665   0.108   0.207 -0.2755  0.3420  0.1577
 8048SOL    HW127736   9.669   0.015   0.229 -0.5750  0.3243  0.1465
 8048SOL    HW227737   9.722   0.117   0.130 -1.4847 -0.1336 -0.8347
 8049SOL     OW27738   9.832   2.823   4.664  0.1156 -0.5752 -0.5358
 8049SOL    HW127739   9.742   2.801   4.688  0.5334 -1.6932  0.0778
 8049SOL    HW227740   9.885   2.754   4.704  1.1814 -0.3466 -1.4953
 8050SOL     OW27741   5.363   8.057   7.502 -0.2149 -0.1677 -0.0234
 8050SOL    HW127742   5.321   8.125   7.450  0.1065 -0.9155 -1.2936
 8050SOL    HW227743   5.419   8.010   7.440  0.4415 -0.8739  1.0697
 8051SOL     OW27744   3.533   1.280   6.619  0.0090  0.4159  0.3276
 8051SOL    HW127745   3.463   1.220   6.645  0.6655 -1.2069 -1.4024
 8051SOL    HW227746   3.574   1.306   6.701 -1.7153  0.3050  1.2756
 8052SOL     OW27747   6.042   2.184   9.894 -0.3549  0.1800 -0.5252
 8052SOL    HW127748   6.098   2.107   9.894  0.0812  0.4402  1.3481
 8052SOL    HW227749   5.955   2.150   9.876 -0.0403 -0.6452 -0.5532
 8053SOL     OW27750   0.053   5.568   8.941 -0.9518 -0.1492 -0.7020
 8053SOL    HW127751   0.117   5.548   9.009 -0.2604 -1.5137 -1.7165
 8053SOL    HW227752   0.066   5.661   8.923  2.1858 -0.7554 -2.2560
 8054SOL     OW27753   2.903   4.049   5.302  0.1196 -0.1095  0.4962
 8054SOL    HW127754   2.853   3.967   5.309 -0.5534  0.1858 -0.6852
 8054SOL    HW227755   2.839   4.114   5.275  1.0697  0.3411 -0.7850
 8055SOL     OW27756   2.472   2.688   9.807  0.4118  0.2996 -0.1050
 8055SOL    HW127757   2.496   2.603   9.770  0.2308  0.3865 -0.4289
 8055SOL    HW227758   2.440   2.738   9.732  0.9098  0.7957  0.0146
 8056SOL     OW27759   2.547   3.856   2.604  0.1294  0.8441 -0.4245
 8056SOL    HW127760   2.561   3.762   2.593 -1.8194  0.5673 -0.8873
 8056SOL    HW227761   2.624   3.897   2.565  0.0020 -0.5235 -2.2189
 8057SOL     OW27762   0.309   4.004   9.304 -0.1667 -0.1227 -0.3683
 8057SOL    HW127763   0.349   3.989   9.218 -2.7238 -1.4528 -1.4147
 8057SOL    HW227764   0.360   3.949   9.364  1.9779  1.2062 -0.8613
 8058SOL     OW27765   5.207   7.894   7.663 -0.8117  0.9565  0.1215
 8058SOL    HW127766   5.238   7.879   7.753 -1.8349 -1.8246  0.1277
 8058SOL    HW227767   5.278   7.943   7.621  0.3577  1.0302  2.0256
 8059SOL     OW27768   1.137   5.042   3.569  0.1452 -0.4430  0.1576
 8059SOL    HW127769   1.088   4.961   3.580 -0.0460 -0.3602 -0.0843
 8059SOL    HW227770   1.092   5.088   3.498 -0.1055  0.1478  0.6974
 8060SOL     OW27771   7.100   1.549   4.023  0.1293 -0.0264  0.0323
 8060SOL    HW127772   7.104   1.496   4.102  0.5994  1.0139  0.7308
 8060SOL    HW227773   7.042   1.622   4.046 -1.1666 -0.6450 -1.1730
 8061SOL     OW27774   7.759   2.873  10.607  0.6333 -0.5145 -0.3805
 8061SOL    HW127775   7.852   2.860  10.626  0.4319 -2.3135 -0.3879
 8061SOL    HW227776   7.758   2.924  10.527  1.6135 -0.3827 -0.3277
 8062SOL     OW27777   6.434   7.810   4.705  0.3197 -0.1666  0.7927
 8062SOL    HW127778   6.450   7.771   4.792 -0.6823 -0.1824  0.9809
 8062SOL    HW227779   6.488   7.759   4.646  0.8738 -0.2816  1.3840
 8063SOL     OW27780  10.060   3.426   3.577 -0.2362 -0.1098  0.2502
 8063SOL    HW127781   9.975   3.457   3.609 -0.3413  0.4912 -0.5720
 8063SOL    HW227782  10.100   3.504   3.537 -0.8059 -1.1269 -2.5465
 8064SOL     OW27783   4.438   1.498   9.420 -0.8554 -0.0939 -0.0247
 8064SOL    HW127784   4.439   1.562   9.349 -0.5535  0.2352  0.2694
 8064SOL    HW227785   4.397   1.544   9.493  2.2003  0.9435  1.2268
 8065SOL     OW27786   8.741   0.978   0.484  0.4958  0.4847 -0.2137
 8065SOL    HW127787   8.677   1.044   0.511  0.2955 -0.1015  0.8245
 8065SOL    HW227788   8.807   0.979   0.554  2.3544  1.9754 -1.8759
 8066SOL     OW27789   6.752   1.277   2.588  0.4221  0.0981 -0.0871
 8066SOL    HW127790   6.810   1.223   2.642  0.2132  0.0868  0.1281
 8066SOL    HW227791   6.806   1.353   2.564  1.5097 -1.2862 -2.3593
 8067SOL     OW27792   6.573   6.117   1.868 -0.2382  0.0077 -0.2333
 8067SOL    HW127793   6.599   6.188   1.809  0.7057 -0.3555 -0.2724
 8067SOL    HW227794   6.653   6.094   1.915 -0.5537 -0.9401 -0.1312
 8068SOL     OW27795   7.193   3.636  10.315 -0.4394  0.0675  0.0113
 8068SOL    HW127796   7.208   3.541  10.319 -0.1160  0.1550  2.0994
 8068SOL    HW227797   7.204   3.666  10.405  1.8240  2.4616 -0.9197
 8069SOL     OW27798   5.924   5.613   3.077  0.6093 -0.6522 -0.5974
 8069SOL    HW127799   5.861   5.563   3.025  0.3874 -1.6157  0.5478
 8069SOL    HW227800   6.005   5.609   3.026  0.1994 -0.8902 -1.2489
 8070SOL     OW27801   5.060   5.298   4.145  0.1709  0.1335  0.0886
 8070SOL    HW127802   5.144   5.305   4.190 -0.5532  0.4833  1.4366
 8070SOL    HW227803   5.031   5.208   4.161  0.2174  0.0548 -0.2588
 8071SOL     OW27804   2.736   7.375   8.472 -0.3556  0.5888  0.3636
 8071SOL    HW127805   2.793   7.304   8.441  0.4985  1.0746  0.8054
 8071SOL    HW227806   2.684   7.335   8.541 -1.5589 -0.2346 -0.9512
 8072SOL     OW27807   3.279   2.173   0.458  0.2153 -0.2031 -0.3432
 8072SOL    HW127808   3.295   2.254   0.410 -1.6379 -0.6729 -1.9196
 8072SOL    HW227809   3.242   2.202   0.542  0.1031  0.5974 -0.6584
 8073SOL     OW27810   5.846   1.197   1.709  0.2370 -0.2451 -0.1865
 8073SOL    HW127811   5.763   1.172   1.749 -0.0126 -0.3686 -0.7702
 8073SOL    HW227812   5.873   1.275   1.756 -0.8185  0.4994 -0.7916
 8074SOL     OW27813   4.796   8.956   7.563  0.9681  0.1473 -0.4602
 8074SOL    HW127814   4.759   8.875   7.599  1.1114 -0.0911 -0.8459
 8074SOL    HW227815   4.733   8.982   7.495  0.4086  0.8941  0.3259
 8075SOL     OW27816   0.105   4.188  10.151  0.8050  0.0753  0.7344
 8075SOL    HW127817   0.197   4.210  10.166  1.6617 -3.5676  1.9446
 8075SOL    HW227818   0.070   4.166  10.237 -0.7478 -0.1371  0.0928
 8076SOL     OW27819   1.639   1.306   3.950 -0.1469  0.2818 -0.1397
 8076SOL    HW127820   1.550   1.273   3.942 -0.9021  2.1608  0.1555
 8076SOL    HW227821   1.631   1.387   4.001  1.6742  0.7014 -0.4425
 8077SOL     OW27822   5.844   3.395   6.402  0.1002 -0.2186  0.1470
 8077SOL    HW127823   5.798   3.319   6.367 -0.0006  0.1704 -0.5802
 8077SOL    HW227824   5.907   3.358   6.464  1.9600 -1.1744 -2.1480
 8078SOL     OW27825  10.745   9.990   2.470  0.2317 -0.4894 -0.3167
 8078SOL    HW127826  10.730  10.031   2.555  0.2180  0.5555 -0.8132
 8078SOL    HW227827  10.840   9.994   2.458  0.1037  0.8825 -1.0714
 8079SOL     OW27828   0.858   5.075   2.709 -0.5616  0.9497 -0.4248
 8079SOL    HW127829   0.888   5.145   2.651 -0.6687  0.9718 -0.4541
 8079SOL    HW227830   0.869   4.995   2.657  0.1790  0.8714 -0.1543
 8080SOL     OW27831   9.488   6.347   7.111  0.4358 -0.5805  0.2569
 8080SOL    HW127832   9.490   6.319   7.019 -2.7979  0.6381 -0.3421
 8080SOL    HW227833   9.554   6.416   7.116  0.3340 -0.3163 -1.3331
 8081SOL     OW27834   1.732   8.179   6.691 -0.6513 -0.9682 -0.3098
 8081SOL    HW127835   1.770   8.225   6.616 -1.2089  0.7483  0.4204
 8081SOL    HW227836   1.638   8.199   6.685 -0.9813 -2.4030 -0.2127
 8082SOL     OW27837   4.816   3.848   2.641 -0.0543 -0.2008  0.1475
 8082SOL    HW127838   4.848   3.938   2.631  0.4361 -0.2859  0.8692
 8082SOL    HW227839   4.778   3.846   2.729 -0.8214 -0.4742 -0.1876
 8083SOL     OW27840   2.795   0.443   4.141 -0.2379 -0.4605 -0.0348
 8083SOL    HW127841   2.802   0.354   4.107 -0.8930  0.0452 -1.6390
 8083SOL    HW227842   2.715   0.443   4.193 -1.0431 -0.4994 -1.2179
 8084SOL     OW27843   3.488  10.227   6.542 -0.1970 -0.3821 -0.6456
 8084SOL    HW127844   3.459  10.317   6.526  0.1407 -0.2072 -0.2765
 8084SOL    HW227845   3.578  10.235   6.573 -0.5222 -0.7657  0.4413
 8085SOL     OW27846   3.008   2.861   0.531 -0.0661 -0.3936  0.2256
 8085SOL    HW127847   2.967   2.862   0.618  1.4541 -1.2287  1.0100
 8085SOL    HW227848   2.962   2.928   0.481  0.2909  1.5389  2.3078
 8086SOL     OW27849  10.108   7.002   5.284 -0.1276 -0.4460 -0.5210
 8086SOL    HW127850  10.128   7.030   5.373  1.1428 -1.5003 -0.4623
 8086SOL    HW227851  10.037   7.061   5.257 -0.6251 -0.1837  1.2093
 8087SOL     OW27852  10.140   1.420   7.586 -0.4873  0.1617  0.2269
 8087SOL    HW127853  10.079   1.455   7.651  0.1048  2.2582 -0.2656
 8087SOL    HW227854  10.118   1.467   7.506  1.0638  0.1530 -0.2200
 8088SOL     OW27855   2.922   0.204   7.364  0.0502 -0.3282  0.3593
 8088SOL    HW127856   2.923   0.229   7.456  1.0133 -0.5409  0.4158
 8088SOL    HW227857   2.962   0.118   7.362  0.1240 -0.2825 -0.2736
 8089SOL     OW27858   9.465   4.976   1.998  0.0729  1.3367 -0.1014
 8089SOL    HW127859   9.466   5.028   2.078  0.3438  1.7093 -0.3375
 8089SOL    HW227860   9.384   5.001   1.954  0.3870  1.8742 -0.4029
 8090SOL     OW27861   8.264   2.187   9.338 -0.2638  0.0917  0.1640
 8090SOL    HW127862   8.276   2.247   9.265  0.0761  1.5161  1.3244
 8090SOL    HW227863   8.344   2.196   9.390 -0.9633  0.0138  1.3129
 8091SOL     OW27864   8.875   2.269   0.554  0.5360 -0.3708 -0.5005
 8091SOL    HW127865   8.866   2.343   0.495  0.8728 -1.5668 -2.1289
 8091SOL    HW227866   8.854   2.304   0.640  0.3000  1.5039 -1.2735
 8092SOL     OW27867   4.182  10.441   9.116 -0.4370 -0.4778  0.6030
 8092SOL    HW127868   4.183  10.509   9.184  0.6471  0.4137 -0.2546
 8092SOL    HW227869   4.229  10.481   9.043 -1.4643 -1.4705 -0.6272
 8093SOL     OW27870   8.300   3.532   4.125 -0.2002 -0.4751 -0.1556
 8093SOL    HW127871   8.223   3.498   4.173 -1.4982  0.3831 -1.5496
 8093SOL    HW227872   8.263   3.593   4.061  1.6803  0.0191 -0.8197
 8094SOL     OW27873   4.797   9.300   5.884  0.0293  0.0584  0.3019
 8094SOL    HW127874   4.746   9.226   5.915  0.0446 -0.0743  0.0115
 8094SOL    HW227875   4.790   9.365   5.954 -2.3958  0.9409 -0.6672
 8095SOL     OW27876   3.794   7.923   4.474  0.2867 -0.4137 -0.6617
 8095SOL    HW127877   3.739   7.854   4.511 -0.7469 -0.2849 -1.8573
 8095SOL    HW227878   3.845   7.879   4.406  1.3141 -0.4253  0.0883
 8096SOL     OW27879   9.230   6.244   3.399  0.3705 -0.2323  0.1121
 8096SOL    HW127880   9.134   6.251   3.395  0.4191  0.0931 -0.9616
 8096SOL    HW227881   9.247   6.186   3.472 -0.5958  0.7557  1.1632
 8097SOL     OW27882   2.755  10.189  10.947  0.3470  0.0156 -0.3722
 8097SOL    HW127883   2.707  10.164  11.026  0.9453  0.2460  0.0711
 8097SOL    HW227884   2.829  10.240  10.979  0.4371  0.3578 -1.1040
 8098SOL     OW27885   4.109   1.947   1.284 -0.3356  0.3021  0.2664
 8098SOL    HW127886   4.089   1.889   1.358 -0.0396 -0.4948 -0.2631
 8098SOL    HW227887   4.113   1.888   1.208 -0.0207  1.0210 -0.2831
 8099SOL     OW27888   2.010   3.049   2.892  0.4890 -0.1649  0.2072
 8099SOL    HW127889   2.071   3.011   2.828  1.2326  0.8653  0.2709
 8099SOL    HW227890   1.953   3.105   2.840 -0.7291 -1.4574  0.0864
 8100SOL     OW27891   4.692   1.528   0.801  0.0041 -0.4177 -0.3302
 8100SOL    HW127892   4.637   1.512   0.877 -0.0419 -2.5830 -0.7754
 8100SOL    HW227893   4.724   1.442   0.775  1.4137  0.4655 -1.7350
 8101SOL     OW27894   7.767   8.954   0.323  0.5438 -0.1675 -0.5670
 8101SOL    HW127895   7.838   9.006   0.286 -0.5001  1.5798 -0.2736
 8101SOL    HW227896   7.692   8.973   0.266 -0.4787  0.6846  0.9813
 8102SOL     OW27897   4.626   5.355  10.991  0.6463 -0.1788  0.3364
 8102SOL    HW127898   4.651   5.371  11.082  0.5916  1.3726  0.1033
 8102SOL    HW227899   4.535   5.383  10.986  0.1711 -1.6617  0.1292
 8103SOL     OW27900   2.261   5.813   9.360 -0.0163  0.0610 -0.0026
 8103SOL    HW127901   2.246   5.850   9.446 -1.1689 -1.3604  0.4581
 8103SOL    HW227902   2.212   5.730   9.360  2.1893 -1.3669 -1.0254
 8104SOL     OW27903   1.209   9.893   2.383 -0.0469  0.3299 -0.1041
 8104SOL    HW127904   1.172   9.952   2.318 -0.6078  0.1229  0.0265
 8104SOL    HW227905   1.259   9.829   2.332  1.1564  1.3087 -0.2120
 8105SOL     OW27906   0.344   3.170   4.827  0.1719  0.4624 -0.5792
 8105SOL    HW127907   0.300   3.117   4.892 -0.3178  0.7613 -0.6623
 8105SOL    HW227908   0.417   3.211   4.874 -0.7335  1.4221  0.0262
 8106SOL     OW27909   5.412   7.263   6.187 -0.0290  0.5816  0.0005
 8106SOL    HW127910   5.415   7.266   6.092 -1.5608 -1.7405 -0.1814
 8106SOL    HW227911   5.330   7.308   6.210  0.0256  0.5889  0.1846
 8107SOL     OW27912   6.607   9.937   7.248 -0.2259 -0.3202  0.0589
 8107SOL    HW127913   6.569   9.924   7.335 -1.0556  0.8097 -0.1030
 8107SOL    HW227914   6.531   9.937   7.189  0.3254 -1.0412 -0.6645
 8108SOL     OW27915   5.901   3.518   0.424  0.0736 -0.3897 -0.6191
 8108SOL    HW127916   5.879   3.601   0.465  0.5262 -0.3558 -0.4446
 8108SOL    HW227917   5.851   3.453   0.473 -0.4767 -0.1939 -0.9182
 8109SOL     OW27918   4.227   1.843   3.876  0.2550 -0.1560  0.3674
 8109SOL    HW127919   4.217   1.886   3.961  0.6416 -0.5125  0.5975
 8109SOL    HW227920   4.147   1.792   3.865  0.4196 -0.5008  0.7467
 8110SOL     OW27921   5.111   8.759   8.696  0.0354  0.0291  0.0236
 8110SOL    HW127922   5.157   8.730   8.617  0.6999  2.3754 -0.5300
 8110SOL    HW227923   5.180   8.786   8.756 -0.4911 -1.2536  1.2756
 8111SOL     OW27924   9.514  10.663   8.886  0.3508  0.2896 -0.2926
 8111SOL    HW127925   9.515  10.756   8.864  0.9661  0.9213  2.1284
 8111SOL    HW227926   9.598  10.629   8.854  0.3159  0.6503 -0.7799
 8112SOL     OW27927   9.297   9.361   8.415  0.3228 -0.0492  0.0762
 8112SOL    HW127928   9.255   9.302   8.352 -0.1396 -0.9087  1.1494
 8112SOL    HW227929   9.234   9.367   8.487  0.7216  1.1372  0.3379
 8113SOL     OW27930   7.541   0.826   5.625 -0.4806 -0.2119  0.0067
 8113SOL    HW127931   7.603   0.880   5.575 -0.2769 -0.6943 -0.2688
 8113SOL    HW227932   7.596   0.777   5.686 -0.8464  1.4965  1.8136
 8114SOL     OW27933   3.761   6.019   6.752 -0.3496  0.1213  0.2567
 8114SOL    HW127934   3.724   6.107   6.763  0.4393  0.6169 -0.8371
 8114SOL    HW227935   3.740   5.996   6.661  1.5625  0.2182 -0.2447
 8115SOL     OW27936   4.009   4.504   1.633 -0.2019 -0.2241 -0.6377
 8115SOL    HW127937   4.084   4.496   1.572  1.9303  3.4839  1.1683
 8115SOL    HW227938   3.946   4.558   1.586  0.9334  1.6474 -0.0970
 8116SOL     OW27939   2.789   2.599   9.556  0.1130  0.0151 -0.6437
 8116SOL    HW127940   2.710   2.549   9.574  0.0544  0.1557 -0.5067
 8116SOL    HW227941   2.838   2.545   9.495 -0.8210  0.6339 -1.9943
 8117SOL     OW27942   5.569  10.128   6.058 -0.0997  0.4365 -0.4369
 8117SOL    HW127943   5.510  10.157   6.127  1.1151 -2.2686  1.9135
 8117SOL    HW227944   5.527  10.051   6.021  0.5263  0.3031 -0.8844
 8118SOL     OW27945   6.522   9.916   2.407  0.0751  0.5884  0.3338
 8118SOL    HW127946   6.530   9.963   2.490 -1.2343 -0.4368  1.0776
 8118SOL    HW227947   6.561   9.831   2.424  0.5439  0.6525 -0.3712
 8119SOL     OW27948   5.959   6.241   8.685  0.1078 -0.1517 -0.0510
 8119SOL    HW127949   6.014   6.264   8.760  0.5773  0.8130 -0.6750
 8119SOL    HW227950   6.010   6.267   8.608 -0.5705 -0.6734 -0.7027
 8120SOL     OW27951   2.888  10.974   1.695 -0.0444  0.0068  0.2445
 8120SOL    HW127952   2.831  10.988   1.772  0.0047 -1.5004  0.5740
 8120SOL    HW227953   2.970  10.942   1.732  0.3049  0.1740 -0.3821
 8121SOL     OW27954   5.375   3.564   3.477  0.3354  0.6828  0.0433
 8121SOL    HW127955   5.322   3.494   3.440  1.5285  0.7783 -1.9696
 8121SOL    HW227956   5.431   3.519   3.541 -0.9227  0.3136  0.9150
 8122SOL     OW27957   6.855   3.265   9.352 -0.3625 -0.1622  0.1458
 8122SOL    HW127958   6.770   3.249   9.393 -1.1336  0.4065 -1.1658
 8122SOL    HW227959   6.886   3.346   9.394 -1.0372  0.2938 -0.2138
 8123SOL     OW27960   4.128   9.274   0.541 -0.3596 -0.2456  0.0540
 8123SOL    HW127961   4.184   9.296   0.615 -1.9222  0.1908  1.1702
 8123SOL    HW227962   4.083   9.356   0.520  0.2375 -0.2973 -1.5677
 8124SOL     OW27963   1.988   1.284   4.379 -0.0899  0.9887  0.5188
 8124SOL    HW127964   1.914   1.234   4.411  0.1142  1.1077  1.1919
 8124SOL    HW227965   1.958   1.375   4.378 -0.4268  0.8770 -0.6050
 8125SOL     OW27966   1.481   6.372   6.485 -0.1512  0.5220  0.2315
 8125SOL    HW127967   1.490   6.303   6.419  0.7382  0.6208  0.2372
 8125SOL    HW227968   1.513   6.332   6.565  1.9823  1.4279 -0.0989
 8126SOL     OW27969   9.100   7.429   2.837  0.1657  0.8487  0.2429
 8126SOL    HW127970   9.118   7.335   2.828  0.0616  0.8867 -0.4158
 8126SOL    HW227971   9.090   7.442   2.932  1.6608  0.4770  0.4923
 8127SOL     OW27972   3.526  11.016   4.941  0.3219  0.6107  0.0055
 8127SOL    HW127973   3.608  10.995   4.985  0.6862  1.8820 -0.0060
 8127SOL    HW227974   3.507  10.940   4.887  0.6877 -0.3251  1.1590
 8128SOL     OW27975   4.519   9.011   4.479  0.2592 -0.1341  0.6713
 8128SOL    HW127976   4.580   8.939   4.461  0.4032 -0.1616  1.2768
 8128SOL    HW227977   4.571   9.090   4.463  0.1226 -0.1576  0.0792
 8129SOL     OW27978   6.478   5.561   8.899  0.2432  0.3354  0.2491
 8129SOL    HW127979   6.495   5.491   8.836  0.0496  0.1065  0.4456
 8129SOL    HW227980   6.537   5.541   8.972 -0.5105 -0.1958  0.7325
 8130SOL     OW27981   4.032   8.154   4.340  0.4009  0.2353 -0.0017
 8130SOL    HW127982   3.976   8.140   4.264  1.8132  0.0431 -1.0608
 8130SOL    HW227983   3.988   8.221   4.391 -1.5252 -0.9387 -0.0012
 8131SOL     OW27984   6.302   9.452   1.356  0.0457  0.2887 -0.1139
 8131SOL    HW127985   6.292   9.483   1.266 -0.4655  2.9995  0.7778
 8131SOL    HW227986   6.235   9.385   1.366  0.4411 -0.4092 -1.8780
 8132SOL     OW27987   5.435  10.749   1.642 -0.0229 -0.3730 -0.3173
 8132SOL    HW127988   5.460  10.669   1.689  1.2833  0.7293  0.9509
 8132SOL    HW227989   5.370  10.791   1.699 -0.2200 -0.1925 -0.6702
 8133SOL     OW27990   3.132   2.913  10.827  0.5720  0.4010 -0.4289
 8133SOL    HW127991   3.058   2.974  10.830 -0.5576 -0.9571  0.6964
 8133SOL    HW227992   3.095   2.833  10.789  1.1868 -0.6161  1.0363
 8134SOL     OW27993   6.769   2.540  10.471  0.3138  0.4599  0.4528
 8134SOL    HW127994   6.856   2.565  10.502  1.4469 -3.1571  0.6546
 8134SOL    HW227995   6.784   2.507  10.383 -0.1920 -2.9360  1.5066
 8135SOL     OW27996   9.088   3.661   8.891  0.3831  0.2011 -0.7945
 8135SOL    HW127997   9.022   3.593   8.904 -0.6690  1.1727 -0.9193
 8135SOL    HW227998   9.113   3.653   8.799  0.7595 -0.4450 -0.6401
 8136SOL     OW27999   7.758   7.232   1.064 -0.4197 -0.0658 -0.0668
 8136SOL    HW128000   7.663   7.239   1.057 -0.6038 -1.3151  0.7100
 8136SOL    HW228001   7.776   7.138   1.054  0.7095  0.1316 -0.0473
 8137SOL     OW28002   1.559   7.907   1.242 -0.0342  0.1147  0.0204
 8137SOL    HW128003   1.615   7.938   1.171  0.1201  0.2960  0.2211
 8137SOL    HW228004   1.472   7.943   1.221 -0.7023 -2.2406 -1.6714
 8138SOL     OW28005   7.998   8.926   9.124  0.0034 -0.0822 -0.8339
 8138SOL    HW128006   8.036   8.850   9.167 -0.6349  0.3931  0.6308
 8138SOL    HW228007   8.073   8.984   9.107  0.1471  0.2339  0.7430
 8139SOL     OW28008   6.044   5.213   3.559  0.2287  0.3492 -0.4775
 8139SOL    HW128009   6.077   5.245   3.643 -0.6968  0.1394 -0.0229
 8139SOL    HW228010   6.049   5.288   3.501 -0.0912  0.7764  0.0440
 8140SOL     OW28011   4.710   9.606   9.811  0.6889 -0.1715  0.0285
 8140SOL    HW128012   4.689   9.641   9.724  2.8180 -0.5161 -0.7027
 8140SOL    HW228013   4.715   9.683   9.868  2.4360  0.4865 -0.9165
 8141SOL     OW28014   5.063   8.044   5.616  0.2892  0.2314  0.8606
 8141SOL    HW128015   5.116   8.122   5.600 -0.7623  0.6384 -0.7669
 8141SOL    HW228016   4.974   8.076   5.624 -0.2253 -0.8334 -0.2848
 8142SOL     OW28017   7.830   8.858   2.847  0.0574  0.1461 -0.7108
 8142SOL    HW128018   7.752   8.895   2.805  0.6487  2.2827 -0.0556
 8142SOL    HW228019   7.822   8.763   2.834 -2.4858  0.3302 -0.9008
 8143SOL     OW28020   9.995   5.449   5.144  0.1355 -0.3232 -0.3431
 8143SOL    HW128021  10.009   5.533   5.101  1.5996 -0.0317  0.6428
 8143SOL    HW228022  10.061   5.391   5.107 -1.2951 -1.3008 -1.5260
 8144SOL     OW28023   8.010   9.284   3.070  0.0343 -0.3880 -0.1037
 8144SOL    HW128024   8.023   9.289   2.976 -1.2555 -0.8499 -0.3247
 8144SOL    HW228025   8.016   9.190   3.090 -0.5465 -0.3720  0.1431
 8145SOL     OW28026   4.275   7.289   6.471 -0.0759 -0.3727 -0.0433
 8145SOL    HW128027   4.197   7.241   6.443  0.2988 -1.6444  0.9660
 8145SOL    HW228028   4.253   7.320   6.559 -0.2915  1.3238 -0.6587
 8146SOL     OW28029  10.084   8.502   6.809 -0.6256  0.1722 -0.6317
 8146SOL    HW128030  10.026   8.426   6.803 -0.1226 -0.3217  0.5646
 8146SOL    HW228031  10.027   8.574   6.837 -0.5614 -0.5005  1.3831
 8147SOL     OW28032   6.003   1.214   4.861  0.3178  0.0715  0.1148
 8147SOL    HW128033   6.080   1.175   4.902  0.4825 -1.0815 -1.2110
 8147SOL    HW228034   5.959   1.262   4.932  1.1052 -1.0200  1.3841
 8148SOL     OW28035   5.090   1.758   2.801  0.5261  0.0249 -0.4086
 8148SOL    HW128036   5.000   1.783   2.821  0.4566 -0.3325 -0.2666
 8148SOL    HW228037   5.141   1.792   2.875  0.5324  0.3833 -0.5776
 8149SOL     OW28038   3.283   6.989   2.310  0.0282 -0.1632  0.4923
 8149SOL    HW128039   3.268   6.971   2.217  1.3276 -0.5617  0.3378
 8149SOL    HW228040   3.325   6.910   2.344  1.6393  0.8019  0.8796
 8150SOL     OW28041   4.152   1.482   6.220  0.1604  0.0394  0.5965
 8150SOL    HW128042   4.093   1.419   6.261  0.1975 -0.1035  0.4312
 8150SOL    HW228043   4.134   1.565   6.265 -0.0494 -0.0396  0.6583
 8151SOL     OW28044   0.706   5.525  10.583 -0.0851  0.2139 -0.0170
 8151SOL    HW128045   0.690   5.492  10.494 -1.9325  3.6745 -1.1911
 8151SOL    HW228046   0.624   5.570  10.606  0.3637 -0.5265  3.4864
 8152SOL     OW28047   0.120   2.112   0.097 -0.2737 -0.3842 -0.5131
 8152SOL    HW128048   0.084   2.033   0.057 -1.0690  0.1058 -0.7993
 8152SOL    HW228049   0.199   2.131   0.047 -1.0624  0.0165 -1.6504
 8153SOL     OW28050   6.682   1.522   8.522  0.0293  0.6248 -0.2109
 8153SOL    HW128051   6.777   1.509   8.516  0.0603  0.5819  0.3305
 8153SOL    HW228052   6.655   1.542   8.432  0.9542  3.4028  0.0078
 8154SOL     OW28053   5.206  10.401   6.274  0.1009  0.2602  0.1252
 8154SOL    HW128054   5.185  10.415   6.366  0.7746  0.4261  0.2575
 8154SOL    HW228055   5.125  10.423   6.227 -0.4707 -0.5396  0.7267
 8155SOL     OW28056   8.104   9.007   0.366  0.3543  0.4791 -0.0835
 8155SOL    HW128057   8.155   9.073   0.414  1.8833 -1.0638  0.5030
 8155SOL    HW228058   8.079   8.944   0.432  1.1540 -0.8770 -1.0286
 8156SOL     OW28059   4.202   9.950   4.215 -0.2490 -0.8629 -0.2713
 8156SOL    HW128060   4.141  10.006   4.263 -0.3081 -0.1304 -1.1681
 8156SOL    HW228061   4.263  10.012   4.174  0.5368 -1.5379 -0.1443
 8157SOL     OW28062   4.938   5.066   1.422  0.4163 -0.4319  0.0063
 8157SOL    HW128063   5.021   5.106   1.395  0.6558 -1.5303 -0.9144
 8157SOL    HW228064   4.963   4.997   1.483  0.1058 -0.2657  0.3327
 8158SOL     OW28065   7.376   9.450   0.362  1.2051 -1.3081 -0.2889
 8158SOL    HW128066   7.352   9.537   0.392 -2.1587 -2.1571 -0.1480
 8158SOL    HW228067   7.349   9.391   0.433  1.7904 -2.6255 -1.1087
 8159SOL     OW28068   4.828   9.923   2.314 -0.1214 -0.2135  0.4910
 8159SOL    HW128069   4.837  10.001   2.368 -0.9763  0.1959  0.0693
 8159SOL    HW228070   4.872   9.854   2.363  2.4001  0.9331 -0.0409
 8160SOL     OW28071   4.794   2.254   7.649  0.4547 -0.0017 -0.1232
 8160SOL    HW128072   4.860   2.324   7.642  1.6908 -0.6841  3.0312
 8160SOL    HW228073   4.844   2.173   7.641 -0.6658 -0.5862 -1.6547
 8161SOL     OW28074   2.283   9.208   7.207 -0.0179  0.5578  0.4790
 8161SOL    HW128075   2.291   9.117   7.177 -2.0698  1.1046 -2.1710
 8161SOL    HW228076   2.370   9.246   7.195  0.3376 -0.5138 -0.4510
 8162SOL     OW28077   0.957  10.882   9.514 -0.2900 -0.2918  0.1388
 8162SOL    HW128078   0.917  10.861   9.599 -1.5512 -2.4815 -0.9040
 8162SOL    HW228079   0.889  10.928   9.466  0.2715  0.5482  0.1165
 8163SOL     OW28080   4.844   2.347   6.565  0.0880 -0.4769 -0.2220
 8163SOL    HW128081   4.908   2.400   6.612  1.5231 -2.0508 -0.2889
 8163SOL    HW228082   4.811   2.285   6.630 -0.8209 -0.1853 -0.3828
 8164SOL     OW28083   3.585   6.667   1.467 -0.5904 -0.0210  0.2915
 8164SOL    HW128084   3.557   6.669   1.376  1.0469 -2.2155 -0.3109
 8164SOL    HW228085   3.504   6.685   1.517 -2.4330 -2.7825 -1.4527
 8165SOL     OW28086   9.737   9.330   9.952  0.2816 -0.3934 -0.0094
 8165SOL    HW128087   9.674   9.396   9.982 -0.1319 -1.4743  1.6854
 8165SOL    HW228088   9.798   9.322  10.026 -0.2374 -2.5476  0.2328
 8166SOL     OW28089   3.872   4.713   5.282 -0.1336  0.5656 -0.1203
 8166SOL    HW128090   3.862   4.729   5.376  1.1884 -0.0133  0.1427
 8166SOL    HW228091   3.959   4.746   5.261 -0.1674  0.1311 -1.0180
 8167SOL     OW28092   2.986  10.944   7.702 -0.3184 -0.2389  0.1232
 8167SOL    HW128093   2.928  10.927   7.629 -0.0087 -0.5262 -0.0591
 8167SOL    HW228094   2.954  11.026   7.740 -1.3324 -0.8120  0.5233
 8168SOL     OW28095   4.616   3.858  10.883  0.0142  0.2758  0.3681
 8168SOL    HW128096   4.552   3.909  10.933 -1.0875 -0.6542 -0.0432
 8168SOL    HW228097   4.573   3.775  10.867  0.6768  0.2231 -1.3697
 8169SOL     OW28098   2.972   4.854   3.366 -0.3477 -0.0181 -0.0396
 8169SOL    HW128099   3.059   4.839   3.403  0.7046  3.4006 -0.7952
 8169SOL    HW228100   2.982   4.837   3.272 -0.0173  1.8025 -0.3692
 8170SOL     OW28101   9.417   1.037   5.356 -0.0798 -0.5325 -0.2520
 8170SOL    HW128102   9.484   1.104   5.369 -2.0063  1.4198 -0.0329
 8170SOL    HW228103   9.344   1.064   5.411 -0.4787 -3.5622  0.9409
 8171SOL     OW28104  10.699   1.359  10.256 -0.7192 -0.5763 -0.1290
 8171SOL    HW128105  10.713   1.441  10.208 -0.4277 -1.0232 -0.8274
 8171SOL    HW228106  10.616   1.372  10.302  0.7768  1.2866  2.3120
 8172SOL     OW28107  10.457   4.290   9.648 -0.0858  0.0433 -0.5510
 8172SOL    HW128108  10.375   4.254   9.614  0.2816 -0.2072 -1.2011
 8172SOL    HW228109  10.525   4.241   9.602  0.4392 -0.4556  0.7265
 8173SOL     OW28110   3.344   4.696   0.931 -0.2751 -0.4185 -0.2071
 8173SOL    HW128111   3.405   4.648   0.875 -1.0263  0.2955 -1.6955
 8173SOL    HW228112   3.257   4.666   0.903 -0.6944  0.6033 -0.0514
 8174SOL     OW28113   1.268   8.483   9.608  0.1732  0.6767  0.3035
 8174SOL    HW128114   1.345   8.537   9.630 -0.4314  0.8900  2.0825
 8174SOL    HW228115   1.217   8.538   9.547  1.4299  0.4991 -0.9568
 8175SOL     OW28116   0.190  10.775   7.265  0.3125  0.2384  0.0767
 8175SOL    HW128117   0.204  10.862   7.228 -1.3818  0.9251  0.9262
 8175SOL    HW228118   0.225  10.781   7.354 -2.2748  1.0500  1.1659
 8176SOL     OW28119  11.025   6.736   8.222  0.4598  0.0000  0.6345
 8176SOL    HW128120  11.044   6.651   8.262 -0.4277 -0.2074  0.6322
 8176SOL    HW228121  11.109   6.783   8.225  1.2538 -1.2996 -0.4471
 8177SOL     OW28122   1.717  10.578   1.448  0.0746  0.8746  0.1665
 8177SOL    HW128123   1.642  10.607   1.500 -1.0888  0.9035 -1.4510
 8177SOL    HW228124   1.709  10.482   1.446  0.6246  0.8118  0.7582
 8178SOL     OW28125   7.356   5.276   0.474 -0.1022  0.0018 -0.9229
 8178SOL    HW128126   7.278   5.223   0.458  0.1481 -0.3383 -1.0169
 8178SOL    HW228127   7.322   5.365   0.483 -0.9638 -0.5170  2.4682
 8179SOL     OW28128  10.788   2.416   4.858 -0.4595 -0.3601 -0.3689
 8179SOL    HW128129  10.882   2.418   4.839 -0.2929  0.8408  0.4512
 8179SOL    HW228130  10.746   2.412   4.772  0.3398 -1.5946 -0.7198
 8180SOL     OW28131   8.883  10.695   6.417  0.1462  0.4296 -0.2185
 8180SOL    HW128132   8.869  10.611   6.374 -2.1406 -0.0498  1.2628
 8180SOL    HW228133   8.939  10.744   6.357 -0.2124 -1.3705 -2.1327
 8181SOL     OW28134   4.216   3.076   9.770  0.8329 -0.2769 -0.1684
 8181SOL    HW128135   4.182   3.089   9.682  0.5865 -1.9170 -0.3408
 8181SOL    HW228136   4.233   2.982   9.776 -0.4133 -0.4350  1.9732
 8182SOL     OW28137   5.844   0.564  10.489 -0.7812  0.0490  0.4155
 8182SOL    HW128138   5.812   0.478  10.461  1.2076 -0.4927 -0.3714
 8182SOL    HW228139   5.863   0.553  10.582  0.4212 -0.7100  0.1022
 8183SOL     OW28140   5.108   0.230   5.071 -0.1845 -0.0313 -0.2992
 8183SOL    HW128141   5.012   0.231   5.073 -0.1791  0.0698  0.0074
 8183SOL    HW228142   5.131   0.145   5.035 -0.3629 -0.9506  1.6133
 8184SOL     OW28143   6.069   3.028   2.482  0.2040 -0.0000  0.0918
 8184SOL    HW128144   6.035   3.101   2.430  0.0413 -0.6205 -0.6875
 8184SOL    HW228145   6.159   3.017   2.451  1.3317  1.8859  2.4103
 8185SOL     OW28146   1.545   7.702   9.440 -0.6171  0.0651  0.6561
 8185SOL    HW128147   1.459   7.713   9.400 -0.8556  1.3769  1.4504
 8185SOL    HW228148   1.568   7.610   9.425 -2.8838 -0.7611  1.8282
 8186SOL     OW28149   9.578   3.112   1.941  0.2275  0.6090 -0.1629
 8186SOL    HW128150   9.661   3.072   1.917  0.4152  1.6008 -1.2373
 8186SOL    HW228151   9.523   3.038   1.969  0.4642 -0.4922 -2.3392
 8187SOL     OW28152   8.470   5.208  11.017  0.1947 -0.0714 -0.3777
 8187SOL    HW128153   8.458   5.114  11.015  0.9802 -0.1643 -1.5505
 8187SOL    HW228154   8.424   5.237  11.096  0.3849 -1.4924  0.2770
 8188SOL     OW28155   9.121   9.117  10.133  0.1502 -0.3589  0.1632
 8188SOL    HW128156   9.151   9.194  10.085  0.7198  0.0723  1.1711
 8188SOL    HW228157   9.064   9.153  10.201  1.6619 -0.6407  1.6419
 8189SOL     OW28158   9.814   8.557  10.013 -0.1526  0.0623  0.5182
 8189SOL    HW128159   9.746   8.503   9.971  0.2579 -0.1489  0.1205
 8189SOL    HW228160   9.861   8.496  10.070 -0.9420  0.4202  1.5988
 8190SOL     OW28161  10.090   4.683   1.174 -0.4563  0.1080 -0.4196
 8190SOL    HW128162  10.085   4.592   1.204 -1.8701  0.6377  1.0969
 8190SOL    HW228163  10.092   4.677   1.079 -1.1402 -1.5026 -0.3667
 8191SOL     OW28164   1.454   9.570   1.144 -0.0221  0.1490  1.0386
 8191SOL    HW128165   1.465   9.661   1.172  0.1403 -0.1489  2.0058
 8191SOL    HW228166   1.520   9.522   1.194  0.8566 -0.3286 -0.5102
 8192SOL     OW28167   7.880   4.552   9.359  0.5750  0.1507 -0.9864
 8192SOL    HW128168   7.906   4.644   9.369 -0.4277  0.4150 -0.6372
 8192SOL    HW228169   7.833   4.549   9.276 -0.3073  0.1874 -0.5034
 8193SOL     OW28170  10.403   4.101  10.905  0.7344  0.0957  0.0803
 8193SOL    HW128171  10.429   4.152  10.982 -0.0196  0.3054  0.2135
 8193SOL    HW228172  10.385   4.014  10.940 -0.5002  0.4257  0.3236
 8194SOL     OW28173   7.538   1.884   3.882 -0.3574  0.0400 -0.2480
 8194SOL    HW128174   7.552   1.789   3.883 -1.0221 -0.0830 -1.1070
 8194SOL    HW228175   7.625   1.921   3.894 -0.0111 -0.6807 -0.4757
 8195SOL     OW28176   2.181  10.155  10.226  0.2630 -0.1303  0.1516
 8195SOL    HW128177   2.141  10.086  10.173 -1.0378 -1.0016  2.1098
 8195SOL    HW228178   2.116  10.225  10.227  0.7459  0.3250 -0.2773
 8196SOL     OW28179   2.049   1.363   8.095 -0.0563  0.0029 -0.0915
 8196SOL    HW128180   2.008   1.331   8.015 -0.6494  1.5893 -0.4369
 8196SOL    HW228181   1.986   1.343   8.164 -0.6562  0.8916 -0.3787
 8197SOL     OW28182   2.972   8.664   0.068 -0.1984  0.2186 -0.1193
 8197SOL    HW128183   2.936   8.582   0.102 -0.7744  0.3964 -0.2894
 8197SOL    HW228184   3.067   8.649   0.065 -0.3289 -0.5910 -0.5426
 8198SOL     OW28185   7.804   0.957   3.892  0.3240  0.2532  0.1426
 8198SOL    HW128186   7.817   1.051   3.891  0.3372  0.2481 -0.3294
 8198SOL    HW228187   7.853   0.924   3.817  0.4983 -0.1545  0.4294
 8199SOL     OW28188   8.994   8.550   6.599  0.0342 -1.0083 -0.0876
 8199SOL    HW128189   8.946   8.471   6.576 -1.5354  0.1270 -0.9440
 8199SOL    HW228190   8.949   8.620   6.551  0.7250  0.5532  1.4235
 8200SOL     OW28191   4.702   9.186   0.527  0.4516  0.1077 -0.1761
 8200SOL    HW128192   4.613   9.157   0.547  0.4073  0.2617 -0.1518
 8200SOL    HW228193   4.718   9.260   0.584  0.2796  0.6227 -0.7862
 8201SOL     OW28194   6.273   6.119   0.479 -0.4622 -0.1840  0.2049
 8201SOL    HW128195   6.275   6.157   0.567 -1.0724  3.8448 -1.3207
 8201SOL    HW228196   6.189   6.146   0.442 -0.9322 -3.1256 -1.1938
 8202SOL     OW28197   0.793   8.055   8.549  0.2282  0.2884 -0.1308
 8202SOL    HW128198   0.817   8.134   8.596 -1.9838  0.1430  1.3825
 8202SOL    HW228199   0.871   7.999   8.554  0.9096  1.3089  1.1066
 8203SOL     OW28200   4.882   3.193   0.873  0.2888  0.5391 -0.0990
 8203SOL    HW128201   4.937   3.270   0.858  0.4084  0.5191  0.2204
 8203SOL    HW228202   4.820   3.221   0.940 -0.3965  0.7079 -0.7963
 8204SOL     OW28203   9.690  10.041   2.372 -0.0472  0.1389 -0.0147
 8204SOL    HW128204   9.768  10.092   2.391  0.5072 -0.0274 -1.6255
 8204SOL    HW228205   9.701  10.015   2.280 -1.0344 -1.5741  0.3020
 8205SOL     OW28206   1.229   4.074   2.096  0.0357 -0.1358 -1.0324
 8205SOL    HW128207   1.245   4.155   2.048 -0.7860 -0.0118 -1.1054
 8205SOL    HW228208   1.203   4.103   2.183 -2.2704 -0.2301 -1.6297
 8206SOL     OW28209   2.822   0.691   0.948  0.0986  0.1682 -0.5517
 8206SOL    HW128210   2.812   0.612   1.001  2.1098  0.8297  0.8934
 8206SOL    HW228211   2.785   0.667   0.863 -1.4373 -1.5503  0.5274
 8207SOL     OW28212   5.547   7.413   3.222  0.3344 -0.1865 -1.1325
 8207SOL    HW128213   5.452   7.421   3.227  0.0597 -2.1815 -2.1842
 8207SOL    HW228214   5.580   7.491   3.268 -1.7785  0.4715 -0.6124
 8208SOL     OW28215   9.306   4.157   3.733  0.0494 -0.0040 -0.1958
 8208SOL    HW128216   9.392   4.168   3.773 -0.4782  4.4607  0.2011
 8208SOL    HW228217   9.253   4.117   3.802  0.8047  1.1973  1.1368
 8209SOL     OW28218   4.950   2.792   5.923  0.0822  0.0812 -0.2180
 8209SOL    HW128219   5.013   2.855   5.959 -1.3947  2.2874 -1.3139
 8209SOL    HW228220   5.005   2.727   5.879  1.7381 -0.4554  2.3813
 8210SOL     OW28221   7.006   3.163   0.145 -0.1483 -0.1817 -0.2343
 8210SOL    HW128222   6.972   3.074   0.152  2.0457 -1.1668 -1.1916
 8210SOL    HW228223   6.985   3.190   0.055  2.1888 -1.1332 -1.1327
 8211SOL     OW28224   1.843   8.808   1.963 -0.0132  0.0736 -0.0529
 8211SOL    HW128225   1.841   8.862   2.042  0.9352 -0.0247  0.0566
 8211SOL    HW228226   1.808   8.864   1.894 -2.1039 -0.2753  0.6633
 8212SOL     OW28227   7.501  10.602   2.904 -0.1277  0.0754 -0.0471
 8212SOL    HW128228   7.526  10.529   2.960  1.5021  1.6724  1.4432
 8212SOL    HW228229   7.460  10.666   2.963  0.0458  1.0975 -0.9830
 8213SOL     OW28230   5.833   6.904   8.445  0.6230 -0.5322  0.5285
 8213SOL    HW128231   5.798   6.956   8.373  1.3415  0.0236  0.5694
 8213SOL    HW228232   5.813   6.813   8.421 -0.3328 -0.2685  0.2908
 8214SOL     OW28233   7.104   6.030   7.601 -0.6085 -0.3855  0.2234
 8214SOL    HW128234   7.087   6.123   7.589 -1.5549 -0.4604  0.9141
 8214SOL    HW228235   7.079   6.012   7.692  0.2723 -1.1590  0.3316
 8215SOL     OW28236   0.514   4.086   0.749 -0.3931 -0.2757 -0.5124
 8215SOL    HW128237   0.430   4.130   0.737 -0.4156 -0.1047  0.2320
 8215SOL    HW228238   0.552   4.128   0.826  1.2376  0.9884 -1.9126
 8216SOL     OW28239   1.609   1.235   7.430  0.1557 -0.1361  0.4662
 8216SOL    HW128240   1.556   1.311   7.405 -0.0954 -0.4213  0.1109
 8216SOL    HW228241   1.691   1.273   7.463 -0.3980  0.3213  1.3457
 8217SOL     OW28242   4.278   0.540   1.904  0.7489  1.2403 -0.7961
 8217SOL    HW128243   4.328   0.489   1.840  1.2961  1.6832 -0.7332
 8217SOL    HW228244   4.195   0.559   1.860  0.0557 -0.6668 -0.3964
 8218SOL     OW28245   9.671   4.630   4.755  0.0773  0.1536  0.2607
 8218SOL    HW128246   9.762   4.626   4.727 -0.1255 -0.2477 -0.3507
 8218SOL    HW228247   9.649   4.722   4.750  0.5426  0.2976  0.7231
 8219SOL     OW28248  10.163   7.419   0.576 -0.0950  0.0477 -0.6018
 8219SOL    HW128249  10.088   7.470   0.546 -1.2188 -0.7987  0.6627
 8219SOL    HW228250  10.171   7.440   0.669  0.1380 -1.1772 -0.3258
 8220SOL     OW28251   7.605   9.869   4.842 -0.0445 -0.1296  0.8249
 8220SOL    HW128252   7.642   9.957   4.839 -0.8749  0.3127  2.2987
 8220SOL    HW228253   7.533   9.876   4.905 -0.7493 -1.6357  0.2303
 8221SOL     OW28254   1.259   2.947   0.089  0.4074  0.2634  0.2048
 8221SOL    HW128255   1.255   3.008   0.015 -0.5743  0.1015  0.1098
 8221SOL    HW228256   1.263   2.860   0.048 -2.5947  0.0049  0.2619
 8222SOL     OW28257   1.534   8.405   9.178 -0.6346 -0.5273  0.3582
 8222SOL    HW128258   1.575   8.484   9.143  0.2816  0.0821  2.6217
 8222SOL    HW228259   1.441   8.414   9.156 -0.1633 -0.0755 -1.5754
 8223SOL     OW28260   4.409   4.593   5.058  0.4034 -0.4386  0.0410
 8223SOL    HW128261   4.458   4.675   5.051 -0.6733  0.1988 -0.3950
 8223SOL    HW228262   4.439   4.541   4.983  0.2828  0.0290 -0.3409
 8224SOL     OW28263   7.059   0.195   9.420 -0.0684 -0.2430 -0.3477
 8224SOL    HW128264   7.143   0.183   9.464 -0.2514 -0.9323 -0.1710
 8224SOL    HW228265   6.998   0.140   9.470 -0.2256 -1.2494 -1.5920
 8225SOL     OW28266   3.438   2.963   3.614  0.0897  0.0140 -0.2564
 8225SOL    HW128267   3.431   2.957   3.709 -0.6773  0.7396 -0.2583
 8225SOL    HW228268   3.500   3.033   3.598  1.0831 -0.8520 -0.2979
 8226SOL     OW28269   9.455   7.313  10.996  0.2118  0.3146 -0.8243
 8226SOL    HW128270   9.505   7.393  11.014  0.8335  0.6016 -3.4414
 8226SOL    HW228271   9.379   7.344  10.946 -1.3959 -0.4012  1.0423
 8227SOL     OW28272   2.090   3.334   8.337  0.2386  0.4163  0.0210
 8227SOL    HW128273   2.085   3.285   8.256  0.8081  1.0199 -0.3865
 8227SOL    HW228274   2.129   3.274   8.400  0.3871  0.1587 -0.3184
 8228SOL     OW28275  10.683   5.954  10.538  0.2553  0.3861  0.8251
 8228SOL    HW128276  10.704   6.047  10.540  2.0830  0.0017  0.6606
 8228SOL    HW228277  10.650   5.935  10.626 -1.1015  1.3622  0.5697
 8229SOL     OW28278   2.023   0.669   4.487  0.2181  0.0289 -0.3666
 8229SOL    HW128279   1.954   0.610   4.457 -0.8641  0.8485  0.4218
 8229SOL    HW228280   2.082   0.614   4.539 -0.2196 -0.5535 -0.4835
 8230SOL     OW28281   7.525   7.704   5.601 -0.0305 -0.3638 -0.1264
 8230SOL    HW128282   7.524   7.669   5.690  1.5275  1.9105  0.8575
 8230SOL    HW228283   7.524   7.799   5.612  0.0560 -0.0209 -2.5506
 8231SOL     OW28284   4.142  10.903   0.410  0.2644 -0.1367 -0.4039
 8231SOL    HW128285   4.065  10.928   0.358  1.1088 -0.8757 -2.0575
 8231SOL    HW228286   4.111  10.830   0.464 -0.1903 -0.4815 -1.1122
 8232SOL     OW28287   7.533  10.277   9.239 -0.3346  0.0022 -0.3722
 8232SOL    HW128288   7.519  10.316   9.325 -1.3252 -1.5149  0.1968
 8232SOL    HW228289   7.611  10.223   9.250 -1.2670 -1.3257  0.0341
 8233SOL     OW28290   7.990   6.288   2.903 -0.1845 -0.0971  0.7299
 8233SOL    HW128291   7.998   6.252   2.815  0.8137  0.0508  0.7526
 8233SOL    HW228292   8.000   6.383   2.891  1.4302 -0.1796  1.1482
 8234SOL     OW28293   4.277   3.846   4.191 -0.0717  0.0550 -0.0214
 8234SOL    HW128294   4.260   3.759   4.156 -1.1712  0.3817 -0.3244
 8234SOL    HW228295   4.339   3.831   4.263  2.0760 -0.6379 -1.8888
 8235SOL     OW28296   0.459   9.260   1.846  0.5777 -0.0399  0.3691
 8235SOL    HW128297   0.403   9.272   1.769 -1.2510 -0.5017  1.5553
 8235SOL    HW228298   0.488   9.349   1.867  0.2284  0.2309 -0.2428
 8236SOL     OW28299   8.236   6.414   5.638  0.3233 -0.4207 -0.0184
 8236SOL    HW128300   8.170   6.357   5.599  2.3448 -2.0831 -1.1747
 8236SOL    HW228301   8.311   6.358   5.652  1.1855  1.1846  2.2380
 8237SOL     OW28302   4.096   1.808  10.619  0.2377 -0.1841  0.2293
 8237SOL    HW128303   4.166   1.763  10.666  0.6583  1.0559  0.8420
 8237SOL    HW228304   4.053   1.739  10.569  0.1741 -1.4442  1.9377
 8238SOL     OW28305   4.195   4.573   2.146 -0.4205  0.2691  0.1738
 8238SOL    HW128306   4.287   4.590   2.165  0.3086 -3.1814  0.4067
 8238SOL    HW228307   4.196   4.534   2.058 -1.5985 -0.3433  0.4181
 8239SOL     OW28308   2.716   0.123   1.303 -0.0885  0.4408 -0.1828
 8239SOL    HW128309   2.643   0.065   1.280 -1.1366  1.1043  1.3244
 8239SOL    HW228310   2.781   0.065   1.343  0.1934 -0.1331 -1.4146
 8240SOL     OW28311   8.040   4.249  10.527 -0.1465 -0.2305 -0.0332
 8240SOL    HW128312   8.010   4.310  10.460 -0.0131  0.3710  0.4445
 8240SOL    HW228313   8.104   4.299  10.578 -0.4265 -0.6001  0.6918
 8241SOL     OW28314   1.904   1.302   8.908 -0.4683 -0.5168 -0.3717
 8241SOL    HW128315   1.841   1.232   8.889  0.1661 -1.1961 -0.0435
 8241SOL    HW228316   1.985   1.274   8.864 -0.3474  0.2721 -0.6697
 8242SOL     OW28317   5.952   9.908   1.712  0.2853 -0.3617 -0.1331
 8242SOL    HW128318   5.986   9.820   1.702  3.5568  0.8193 -0.6897
 8242SOL    HW228319   5.994   9.958   1.642 -0.6914  1.8173  0.7356
 8243SOL     OW28320   0.980   0.776   9.433  0.7046  0.2917  0.5417
 8243SOL    HW128321   0.966   0.870   9.421  2.0771  0.7759  2.1981
 8243SOL    HW228322   0.959   0.760   9.525 -1.1002 -1.3985 -0.0851
 8244SOL     OW28323   7.118   4.981   7.480  0.4104 -0.0633 -0.1323
 8244SOL    HW128324   7.179   4.917   7.443  0.9722 -0.0919  0.8313
 8244SOL    HW228325   7.168   5.063   7.482  0.0993  0.1301 -0.2194
 8245SOL     OW28326   2.763   7.979   5.553 -0.2854  0.0931  0.2508
 8245SOL    HW128327   2.795   8.044   5.615  0.1404  0.7542 -0.6297
 8245SOL    HW228328   2.802   8.005   5.469 -1.8496 -0.0341 -0.5533
 8246SOL     OW28329   5.080   7.784  10.666  0.1472 -0.5257  0.0564
 8246SOL    HW128330   5.074   7.722  10.739  1.2631  0.1440  0.7550
 8246SOL    HW228331   5.172   7.811  10.666 -0.0959  0.3346 -0.8967
 8247SOL     OW28332   9.327   2.742  10.213  0.2394 -0.5606 -0.1049
 8247SOL    HW128333   9.247   2.697  10.242 -0.9135  1.4960  0.0740
 8247SOL    HW228334   9.296   2.808  10.151  1.3397  2.3725  2.2393
 8248SOL     OW28335  10.812   1.674  10.910  0.4204  0.0064  0.8812
 8248SOL    HW128336  10.791   1.609  10.842  4.2301  1.4132 -1.9832
 8248SOL    HW228337  10.731   1.722  10.922 -1.0792 -1.8517 -0.8919
 8249SOL     OW28338   5.550   9.612   6.052  0.2719 -0.5788  0.1340
 8249SOL    HW128339   5.630   9.644   6.093  0.5128 -2.2347  1.0405
 8249SOL    HW228340   5.486   9.609   6.123 -0.4739  0.2660 -0.4815
 8250SOL     OW28341   3.346   6.245   1.832  0.0051 -0.0524  0.1052
 8250SOL    HW128342   3.430   6.219   1.870  0.5490  0.3747 -0.7345
 8250SOL    HW228343   3.290   6.168   1.840  0.3454 -0.2145  1.0398
 8251SOL     OW28344   3.765   8.688   1.027 -0.0192 -0.3597 -0.2161
 8251SOL    HW128345   3.705   8.720   1.095  1.1885  0.7540  0.3598
 8251SOL    HW228346   3.716   8.697   0.946 -1.3656 -1.3785  0.4366
 8252SOL     OW28347   8.451   8.879   2.694 -0.2844  0.3562  0.7725
 8252SOL    HW128348   8.502   8.936   2.752 -0.1661 -0.6613  1.6903
 8252SOL    HW228349   8.444   8.929   2.612  0.5507  1.3170  1.2634
 8253SOL     OW28350   3.539  10.402   7.502  0.1322 -0.1544  0.0814
 8253SOL    HW128351   3.606  10.335   7.509 -0.8966 -1.4972 -1.9704
 8253SOL    HW228352   3.584  10.484   7.524  1.9983 -1.2059  0.3181
 8254SOL     OW28353   8.220   7.155   1.823 -0.2183  0.2050  0.1486
 8254SOL    HW128354   8.256   7.110   1.899  0.4063  0.4362 -0.0027
 8254SOL    HW228355   8.150   7.211   1.858  0.2579  0.5313  0.5908
 8255SOL     OW28356   6.462   9.582   4.672 -0.5712 -0.0866 -0.5123
 8255SOL    HW128357   6.428   9.650   4.614  0.4783  0.6911 -0.2518
 8255SOL    HW228358   6.480   9.628   4.754 -2.0352 -1.1650  0.4614
 8256SOL     OW28359   8.881   2.655   7.218 -0.8911 -0.3665  0.1311
 8256SOL    HW128360   8.950   2.600   7.179  1.0179  0.6840  1.8809
 8256SOL    HW228361   8.801   2.604   7.205  0.5469 -2.8036  0.2069
 8257SOL     OW28362   2.190   7.321   5.718 -0.5894 -0.1600  0.2613
 8257SOL    HW128363   2.228   7.393   5.770 -1.3824  0.5802 -0.1593
 8257SOL    HW228364   2.105   7.354   5.690 -0.1682 -0.5157 -1.5500
 8258SOL     OW28365   5.773   4.108   9.561  0.0458  0.5204 -0.7039
 8258SOL    HW128366   5.723   4.170   9.614 -0.5162 -0.4903 -0.0173
 8258SOL    HW228367   5.863   4.118   9.591 -0.2439  0.0783  0.3358
 8259SOL     OW28368   0.631   4.795   5.744 -0.0363  0.3751 -1.1261
 8259SOL    HW128369   0.684   4.742   5.686  1.9428 -1.0339  1.7239
 8259SOL    HW228370   0.685   4.871   5.764  0.6950 -0.6180  1.0741
 8260SOL     OW28371   2.299   9.954  10.591  0.1555  0.3877 -0.1008
 8260SOL    HW128372   2.355  10.015  10.638  0.2401 -0.0373  0.3556
 8260SOL    HW228373   2.351   9.926  10.516  0.1414  0.8213 -0.2729
 8261SOL     OW28374  10.708   8.691   3.566 -0.6944  0.2065 -0.4112
 8261SOL    HW128375  10.702   8.749   3.642 -1.7861 -1.5896  0.9357
 8261SOL    HW228376  10.722   8.751   3.492  0.4199  2.0055  1.1669
 8262SOL     OW28377   2.897   6.776   2.778 -0.5217 -0.3182 -0.0723
 8262SOL    HW128378   2.980   6.793   2.734 -0.2707 -1.3281 -0.0268
 8262SOL    HW228379   2.842   6.736   2.711 -1.3614  1.2928 -0.3941
 8263SOL     OW28380   1.290   5.677   4.382  0.2293 -0.0771 -0.0216
 8263SOL    HW128381   1.319   5.708   4.295  2.1872 -0.7735  0.3415
 8263SOL    HW228382   1.241   5.597   4.364 -0.2004  0.2957 -0.5490
 8264SOL     OW28383   4.742   8.057   9.783  0.2795  0.2878 -0.1840
 8264SOL    HW128384   4.741   8.146   9.749 -0.5318 -0.1429 -1.3450
 8264SOL    HW228385   4.719   8.066   9.876 -0.0355  1.2647 -0.3499
 8265SOL     OW28386   0.446   4.149   6.522 -0.3550 -0.1342  0.0901
 8265SOL    HW128387   0.364   4.142   6.570  0.2053 -0.4203  1.0374
 8265SOL    HW228388   0.453   4.242   6.500  0.1217  0.3272  1.9794
 8266SOL     OW28389   3.247   9.831   8.623 -0.2300  0.4886  0.3866
 8266SOL    HW128390   3.153   9.845   8.625 -0.1662  1.2275 -0.5735
 8266SOL    HW228391   3.271   9.807   8.712 -1.0879  1.9691  1.0434
 8267SOL     OW28392   7.296   2.683   1.417 -0.4625 -0.5297  0.0867
 8267SOL    HW128393   7.389   2.680   1.394 -0.2632  0.0174  0.8032
 8267SOL    HW228394   7.260   2.602   1.380  0.9068 -2.3690  2.4433
 8268SOL     OW28395   0.381   1.408   2.232  0.0933 -0.3548  0.7564
 8268SOL    HW128396   0.426   1.328   2.207  1.5805  0.6475  0.1074
 8268SOL    HW228397   0.394   1.467   2.158 -1.3567  0.3515  1.0341
 8269SOL     OW28398   3.573  10.389   0.523  0.0109 -0.1995  0.2487
 8269SOL    HW128399   3.523  10.310   0.505  0.7790 -0.7929  0.6687
 8269SOL    HW228400   3.563  10.442   0.444  0.2050 -1.1022 -0.4013
 8270SOL     OW28401   7.734   9.301   7.166  0.0834 -0.1767  0.0871
 8270SOL    HW128402   7.798   9.365   7.135  0.6182 -1.1350 -0.8676
 8270SOL    HW228403   7.711   9.250   7.088  0.4001 -1.7638  0.9853
 8271SOL     OW28404   9.074   7.660   5.387  0.2728 -0.7615 -0.7501
 8271SOL    HW128405   9.160   7.656   5.429  0.0963  1.4123 -0.0679
 8271SOL    HW228406   9.037   7.572   5.398  1.6321 -1.2015  0.5753
 8272SOL     OW28407   3.453   1.031   2.677  0.5012  0.3651  0.3433
 8272SOL    HW128408   3.417   0.948   2.646 -0.0099  1.7566 -3.2804
 8272SOL    HW228409   3.547   1.015   2.686  0.2827 -0.8315  0.6633
 8273SOL     OW28410   2.675   5.513   7.716 -0.7017  0.3629  0.3900
 8273SOL    HW128411   2.723   5.497   7.635  1.6412 -1.7582  2.0112
 8273SOL    HW228412   2.586   5.483   7.699 -0.0128 -0.9311 -1.1310
 8274SOL     OW28413   4.693   7.466  10.925 -0.4001 -0.2628  0.7080
 8274SOL    HW128414   4.733   7.549  10.899 -0.9315  0.1180  1.0845
 8274SOL    HW228415   4.713   7.406  10.853  0.2508  0.1060  0.5756
 8275SOL     OW28416   2.749   1.952   8.470  0.8546 -0.1288 -0.0207
 8275SOL    HW128417   2.812   1.956   8.398  0.4134  0.2347 -0.3931
 8275SOL    HW228418   2.741   2.043   8.499  0.8055 -0.2320  0.2985
 8276SOL     OW28419   5.054   4.295   5.922  0.0321  0.1876 -0.8524
 8276SOL    HW128420   5.037   4.231   5.991  1.4565  1.6886  0.9977
 8276SOL    HW228421   5.127   4.259   5.873  0.4977  0.1275 -0.1321
 8277SOL     OW28422   4.834   3.173   5.540 -0.0333  0.2779 -0.7377
 8277SOL    HW128423   4.807   3.255   5.581 -1.5058 -0.4092 -0.2388
 8277SOL    HW228424   4.889   3.130   5.606  0.8321  0.8866 -1.0435
 8278SOL     OW28425   4.094   3.317  10.564 -0.3512  0.3063  0.1570
 8278SOL    HW128426   4.045   3.235  10.554 -2.1029  1.4915 -2.1231
 8278SOL    HW228427   4.095   3.355  10.476  3.0217  1.3693  0.5266
 8279SOL     OW28428   3.703   9.763   1.821  0.0375  0.4031  0.1278
 8279SOL    HW128429   3.732   9.755   1.912  0.2638  1.6824  0.1843
 8279SOL    HW228430   3.648   9.686   1.806  1.1933 -0.6084  0.8834
 8280SOL     OW28431   8.866   2.832   4.922  0.0269  0.5277 -0.5060
 8280SOL    HW128432   8.950   2.840   4.968 -0.3389  1.1457  0.0611
 8280SOL    HW228433   8.886   2.777   4.846  1.3523  2.1326 -1.3843
 8281SOL     OW28434  10.663   5.118   8.587 -0.3668  0.1264 -0.1877
 8281SOL    HW128435  10.718   5.190   8.559 -1.6695  0.3496 -2.4430
 8281SOL    HW228436  10.700   5.041   8.543  0.9912 -0.6398  2.1668
 8282SOL     OW28437   9.505   7.378   8.788 -0.3593  0.1388  0.4709
 8282SOL    HW128438   9.548   7.331   8.717  1.9462 -0.1344  1.9451
 8282SOL    HW228439   9.493   7.312   8.857 -4.6117 -0.1974 -0.2855
 8283SOL     OW28440   0.757   1.619   0.902  0.2278  0.5124 -0.2130
 8283SOL    HW128441   0.846   1.630   0.870 -0.2127  1.5816 -1.1193
 8283SOL    HW228442   0.723   1.543   0.855  1.0021 -0.6186  0.9704
 8284SOL     OW28443  11.048   2.034   9.357  0.3966 -0.3756 -0.1383
 8284SOL    HW128444  11.103   2.005   9.429 -0.3023 -1.5026 -0.0343
 8284SOL    HW228445  11.002   1.955   9.328 -0.3361  0.3156 -0.9369
 8285SOL     OW28446   5.395   2.347   4.920 -0.1847 -0.3323  0.0586
 8285SOL    HW128447   5.367   2.276   4.977  0.7608  0.6911  1.8889
 8285SOL    HW228448   5.314   2.391   4.894 -1.0385 -3.3190 -3.0217
 8286SOL     OW28449   9.163   6.758   5.887 -0.7328 -0.5337 -0.4171
 8286SOL    HW128450   9.152   6.853   5.888  0.4778 -0.3807  0.1340
 8286SOL    HW228451   9.134   6.729   5.974 -2.3847 -0.8632 -1.0291
 8287SOL     OW28452   3.804   6.722   1.188 -0.1363 -0.3935  0.1799
 8287SOL    HW128453   3.713   6.748   1.199 -0.6968 -2.1129 -0.0227
 8287SOL    HW228454   3.799   6.631   1.158  1.6547 -0.7547  0.8610
 8288SOL     OW28455   1.973   9.765   7.627  0.1507  0.0332  0.2599
 8288SOL    HW128456   2.002   9.675   7.638 -1.7590 -0.8918 -1.5219
 8288SOL    HW228457   1.911   9.779   7.698  0.3504 -0.0974  0.4613
 8289SOL     OW28458   9.918   8.445   2.910  0.0181 -0.4195 -0.1779
 8289SOL    HW128459   9.865   8.432   2.832 -1.4086 -1.5783  0.9445
 8289SOL    HW228460  10.009   8.441   2.878 -0.4946  0.8285 -2.0041
 8290SOL     OW28461   9.402   8.794   0.543 -0.3062  0.1901  0.6952
 8290SOL    HW128462   9.378   8.846   0.619  2.5207  0.0842  1.7669
 8290SOL    HW228463   9.452   8.854   0.487 -0.0382 -0.4433  0.2357
 8291SOL     OW28464   1.205   8.586  10.199 -0.3476  0.2188  0.5549
 8291SOL    HW128465   1.119   8.557  10.169 -0.1984  1.8177 -1.7196
 8291SOL    HW228466   1.260   8.507  10.195 -1.4194 -0.5627  0.9378
 8292SOL     OW28467   6.997   7.201   1.736 -0.3305 -0.0262  0.0733
 8292SOL    HW128468   6.982   7.289   1.702 -2.2605 -0.3240  0.0937
 8292SOL    HW228469   6.971   7.206   1.828 -0.5006 -0.6426  0.0572
 8293SOL     OW28470   6.638   4.238   5.123  0.3543  0.3891 -0.0589
 8293SOL    HW128471   6.687   4.162   5.092  0.8650  0.4214  0.6503
 8293SOL    HW228472   6.606   4.213   5.209 -0.4853  0.5424 -0.3204
 8294SOL     OW28473   0.675   8.228   6.086 -0.1157 -0.0343 -0.2017
 8294SOL    HW128474   0.604   8.248   6.147 -1.4225  0.0800 -1.6804
 8294SOL    HW228475   0.631   8.193   6.008  1.5731 -1.3796 -0.6199
 8295SOL     OW28476   2.439   7.540   4.011 -0.3490 -0.4223  0.1370
 8295SOL    HW128477   2.534   7.535   3.998 -0.4782  2.3868 -3.9251
 8295SOL    HW228478   2.403   7.473   3.952 -0.9414 -1.1329  1.2761
 8296SOL     OW28479   8.913  10.960   5.921 -0.3591  0.8427  0.0962
 8296SOL    HW128480   8.961  10.961   5.839  1.2640  1.2213  1.0151
 8296SOL    HW228481   8.871  10.874   5.923 -0.0791  0.6708 -0.9149
 8297SOL     OW28482   0.596   2.480   0.915 -0.2889 -0.6180 -0.3601
 8297SOL    HW128483   0.684   2.499   0.884 -0.5280 -0.3976 -0.9239
 8297SOL    HW228484   0.596   2.386   0.932  0.5170 -0.3532  1.1808
 8298SOL     OW28485  10.506   0.114   7.308 -0.3646 -0.1486 -1.0035
 8298SOL    HW128486  10.534   0.125   7.217 -1.1690 -2.0463 -1.5239
 8298SOL    HW228487  10.421   0.070   7.301 -0.0099 -1.1591  0.6766
 8299SOL     OW28488   8.467   9.163   1.983 -0.0166 -0.1905  0.1828
 8299SOL    HW128489   8.553   9.122   1.988 -0.0605 -0.5037 -1.1206
 8299SOL    HW228490   8.476   9.243   2.034  0.8682 -0.5160  0.5626
 8300SOL     OW28491   9.900   9.943   2.733 -0.1701  0.4745  0.2529
 8300SOL    HW128492   9.880   9.906   2.647  1.3736  0.4068 -0.1167
 8300SOL    HW228493   9.836   9.904   2.792 -1.3566  0.6271 -0.8702
 8301SOL     OW28494   0.870   7.343   4.078 -0.7388 -0.2747 -0.3490
 8301SOL    HW128495   0.806   7.402   4.117  0.7170  0.6028  0.8300
 8301SOL    HW228496   0.949   7.396   4.068  0.8156 -2.0832  1.2994
 8302SOL     OW28497   6.130   7.040   4.302 -0.0867 -0.1258  0.3433
 8302SOL    HW128498   6.157   6.948   4.296 -2.4956 -0.9092  0.0640
 8302SOL    HW228499   6.125   7.070   4.212  4.3862  1.6370  0.4432
 8303SOL     OW28500   3.191   5.333   9.006  0.2500 -0.1296 -0.3253
 8303SOL    HW128501   3.176   5.306   9.097 -0.0412  0.5851 -0.1596
 8303SOL    HW228502   3.103   5.334   8.967  0.3135  0.0994 -0.4618
 8304SOL     OW28503   4.781   7.508   8.005 -0.2681 -0.4748  0.0861
 8304SOL    HW128504   4.783   7.591   8.053  0.2570 -0.3748 -0.1010
 8304SOL    HW228505   4.848   7.454   8.048  1.1214  0.0588 -1.2997
 8305SOL     OW28506   9.788   8.078   3.716 -0.2932 -0.4224 -0.0369
 8305SOL    HW128507   9.715   8.122   3.760  0.0038 -0.9099  0.9928
 8305SOL    HW228508   9.857   8.145   3.711  0.2777 -0.8113  1.8231
 8306SOL     OW28509   3.183   3.667   6.632  0.1197 -0.1989  0.3502
 8306SOL    HW128510   3.102   3.667   6.683 -1.9523 -1.3573 -2.6317
 8306SOL    HW228511   3.200   3.759   6.613 -2.3172 -0.0038 -1.3885
 8307SOL     OW28512   0.895   8.882   8.582 -0.1277  0.3786  0.4259
 8307SOL    HW128513   0.969   8.862   8.640  0.9781  2.0243 -0.3393
 8307SOL    HW228514   0.859   8.796   8.559  2.4513 -0.6076 -0.3233
 8308SOL     OW28515   5.991   1.888   5.661  0.0934  0.1937  0.7409
 8308SOL    HW128516   5.989   1.911   5.569  0.4825 -1.3340  0.3290
 8308SOL    HW228517   5.922   1.942   5.701  0.6506  1.6576 -0.2237
 8309SOL     OW28518   0.965   7.883  10.705  0.5446  0.2768 -0.1305
 8309SOL    HW128519   0.971   7.818  10.635 -0.0612  0.7866 -0.6760
 8309SOL    HW228520   1.041   7.940  10.691  0.2100  0.6083 -0.6200
 8310SOL     OW28521   8.286  10.194   0.341 -0.9547  0.0906 -0.1432
 8310SOL    HW128522   8.212  10.245   0.308 -0.2807  0.6323 -0.8503
 8310SOL    HW228523   8.257  10.103   0.332 -2.0874  0.3201  0.9445
 8311SOL     OW28524   7.631   8.395   9.560 -0.2388  0.3004 -0.6384
 8311SOL    HW128525   7.542   8.429   9.560 -1.0231 -1.6496 -0.0594
 8311SOL    HW228526   7.642   8.356   9.473  0.0518  0.5140 -0.7004
 8312SOL     OW28527   1.612   5.593   2.671  0.1616 -0.3978  0.0838
 8312SOL    HW128528   1.526   5.624   2.642  2.0772  5.1566 -0.9848
 8312SOL    HW228529   1.661   5.578   2.591  0.9755 -0.7447  0.6287
 8313SOL     OW28530   0.546  10.141   0.959 -0.1336  0.0223  0.1153
 8313SOL    HW128531   0.624  10.125   1.011 -0.3323 -0.0908  0.3817
 8313SOL    HW228532   0.564  10.223   0.913  0.3398 -0.2604 -0.2065
 8314SOL     OW28533   4.883   6.753   6.356  0.1994  0.1008 -0.2230
 8314SOL    HW128534   4.925   6.824   6.307 -0.7386  0.4033 -0.6217
 8314SOL    HW228535   4.953   6.716   6.410  0.5193  2.0040  0.7756
 8315SOL     OW28536   6.565   7.025   8.579  0.0093  0.1273 -0.1431
 8315SOL    HW128537   6.539   6.933   8.576 -0.8596  0.1205  3.2549
 8315SOL    HW228538   6.655   7.024   8.610 -0.3324  0.4194  0.8841
 8316SOL     OW28539   6.872   2.351   0.728 -0.3125 -0.0987 -0.0207
 8316SOL    HW128540   6.873   2.260   0.700  1.5155  0.8115 -3.4266
 8316SOL    HW228541   6.781   2.368   0.752 -1.0674 -2.3424 -1.0614
 8317SOL     OW28542   5.327   9.513   9.883 -0.0428 -0.4207  0.0837
 8317SOL    HW128543   5.382   9.494   9.959 -2.2250 -2.5733  1.2824
 8317SOL    HW228544   5.259   9.571   9.916  0.8649  1.4340 -1.1436
 8318SOL     OW28545   0.026  10.503   8.642 -0.2727  0.0607  0.0709
 8318SOL    HW128546   0.077  10.425   8.621  0.0311  0.1584  0.4192
 8318SOL    HW228547   0.086  10.576   8.623  0.5387  0.1300  2.5350
 8319SOL     OW28548   6.781   8.705   1.565  0.0916  0.1608 -0.4020
 8319SOL    HW128549   6.766   8.637   1.631  0.7797  0.6012  0.2293
 8319SOL    HW228550   6.701   8.707   1.514 -1.1322  0.9154  1.4470
 8320SOL     OW28551   2.927   3.665   6.783 -0.0216  0.1200 -0.1309
 8320SOL    HW128552   2.908   3.679   6.876 -2.5204 -1.7621 -0.2719
 8320SOL    HW228553   2.854   3.705   6.737  1.1283  0.9311 -1.3552
 8321SOL     OW28554   3.891   6.633   5.322  0.4207  0.0440  0.0502
 8321SOL    HW128555   3.895   6.720   5.281  0.3875 -0.2622 -0.6240
 8321SOL    HW228556   3.962   6.633   5.386  1.2955  0.0985 -0.8970
 8322SOL     OW28557   2.543   1.887   9.605  0.6665 -0.1727 -0.4435
 8322SOL    HW128558   2.503   1.842   9.680 -1.0664  2.3732  0.2835
 8322SOL    HW228559   2.627   1.920   9.639  2.1052 -2.8468 -1.0663
 8323SOL     OW28560   0.081   8.646   4.964  0.0592 -0.5332  0.1536
 8323SOL    HW128561   0.009   8.663   5.025  0.3907 -0.8899  0.6524
 8323SOL    HW228562   0.044   8.589   4.898 -0.4019  0.1389 -0.1849
 8324SOL     OW28563   6.503   7.747   0.215 -0.0395  0.1943 -0.6978
 8324SOL    HW128564   6.539   7.668   0.256 -1.5708 -1.2496 -1.9883
 8324SOL    HW228565   6.469   7.798   0.288  0.4113 -0.6510  0.1241
 8325SOL     OW28566   8.796  11.000   4.737 -0.0691  0.4697 -0.3171
 8325SOL    HW128567   8.851  10.945   4.793  0.3266  1.3556  0.1979
 8325SOL    HW228568   8.795  11.085   4.782 -1.8716  0.4758 -0.3207
 8326SOL     OW28569   1.827   3.233   0.808  0.0741  0.6687 -0.1271
 8326SOL    HW128570   1.786   3.319   0.816  0.9681  1.2785 -1.6378
 8326SOL    HW228571   1.904   3.248   0.754  1.1849 -0.8095  0.9537
 8327SOL     OW28572   1.572   3.355   6.389  0.1899  0.4238 -0.1801
 8327SOL    HW128573   1.609   3.424   6.334 -1.0182  0.2953 -1.2056
 8327SOL    HW228574   1.477   3.359   6.372 -0.0539 -0.5480  0.8363
 8328SOL     OW28575   4.284   5.347   1.477 -0.0250  0.1623 -0.6995
 8328SOL    HW128576   4.337   5.285   1.528 -0.0005  1.2899  0.7125
 8328SOL    HW228577   4.202   5.300   1.462  0.6007 -0.8382 -1.1264
 8329SOL     OW28578   6.768   9.604   8.310 -0.9148 -0.0350 -0.7095
 8329SOL    HW128579   6.832   9.672   8.290 -0.4315  0.8350  3.1434
 8329SOL    HW228580   6.817   9.523   8.308 -0.0685  0.4268  0.4041
 8330SOL     OW28581   9.797   8.026   1.032  0.1211 -0.1954  0.1996
 8330SOL    HW128582   9.715   8.075   1.027 -0.2918 -0.7746  1.0517
 8330SOL    HW228583   9.826   8.037   1.123  0.9039 -0.1349 -0.0500
 8331SOL     OW28584   4.147   6.202   1.640 -0.5728 -0.0924  0.4265
 8331SOL    HW128585   4.108   6.283   1.608  1.7465  0.5599 -1.0070
 8331SOL    HW228586   4.126   6.137   1.574 -1.4911 -0.4233  1.0242
 8332SOL     OW28587   1.520   8.107   1.469  0.3861 -0.0937  0.2205
 8332SOL    HW128588   1.576   8.166   1.520 -0.1851 -0.8193  1.7245
 8332SOL    HW228589   1.572   8.086   1.391  1.3091  0.9758  0.5228
 8333SOL     OW28590   9.759   7.873   8.273 -0.9721 -0.2895 -0.1811
 8333SOL    HW128591   9.725   7.860   8.361 -1.9244  1.2233 -0.2866
 8333SOL    HW228592   9.839   7.820   8.270 -1.0980 -0.6292  1.4629
 8334SOL     OW28593   3.240   6.386   3.018 -0.6235  0.7106 -0.1833
 8334SOL    HW128594   3.156   6.416   3.051 -1.4946 -0.0410 -1.6263
 8334SOL    HW228595   3.258   6.306   3.068 -1.6852 -0.1470 -1.1331
 8335SOL     OW28596   1.475   3.291   5.116 -0.4614 -0.6427 -0.0520
 8335SOL    HW128597   1.465   3.236   5.193  0.8908 -1.9551 -0.7534
 8335SOL    HW228598   1.473   3.381   5.150 -2.1334 -1.1161  1.1865
 8336SOL     OW28599   5.092   3.634   3.708  0.0338 -0.0246  0.8680
 8336SOL    HW128600   5.042   3.651   3.628  0.7763  0.8407  0.5602
 8336SOL    HW228601   5.113   3.721   3.741  0.7977 -0.3729  1.3211
 8337SOL     OW28602   7.472   8.590   7.093 -0.2339  0.1535 -0.1651
 8337SOL    HW128603   7.423   8.606   7.013 -1.6332 -2.1160  0.1328
 8337SOL    HW228604   7.455   8.666   7.149 -2.5113 -0.0390 -0.5378
 8338SOL     OW28605   7.777   6.866   8.095 -0.1809 -0.2217 -0.0397
 8338SOL    HW128606   7.836   6.792   8.085  0.3060  0.1925 -0.3069
 8338SOL    HW228607   7.714   6.838   8.161  0.5443 -0.5309  0.5365
 8339SOL     OW28608   3.718   7.151   6.171  0.5481 -0.2551 -0.5354
 8339SOL    HW128609   3.704   7.180   6.081  2.2652  0.3721 -0.6422
 8339SOL    HW228610   3.813   7.153   6.182  0.3779 -0.4454  1.2558
 8340SOL     OW28611   2.114   0.268   3.686 -0.1575 -0.1024  0.0786
 8340SOL    HW128612   2.199   0.299   3.655 -0.1744 -1.8962 -1.9645
 8340SOL    HW228613   2.073   0.230   3.609 -2.3789 -0.2722  1.2767
 8341SOL     OW28614   6.388   1.847   2.734 -0.1041  0.1012  0.1534
 8341SOL    HW128615   6.395   1.941   2.750  0.4706  0.2803 -1.0167
 8341SOL    HW228616   6.416   1.806   2.816 -1.5035  0.9310  1.0890
 8342SOL     OW28617   4.694   2.934   2.650 -0.2362  0.4437  0.2817
 8342SOL    HW128618   4.753   2.864   2.677 -1.8463 -0.8338  0.6343
 8342SOL    HW228619   4.716   2.951   2.559  0.3762 -0.2947  0.2848
 8343SOL     OW28620   0.399   3.240   9.952  0.7971 -0.6124 -0.6758
 8343SOL    HW128621   0.375   3.248  10.044  0.0577 -2.0897 -0.7182
 8343SOL    HW228622   0.478   3.186   9.952  1.5197  0.4211 -0.8426
 8344SOL     OW28623   7.799   7.596  10.353  0.4704 -0.0242  0.2704
 8344SOL    HW128624   7.818   7.519  10.407  1.2445 -0.3122 -0.3930
 8344SOL    HW228625   7.852   7.584  10.274 -0.4749  0.4845 -0.4720
 8345SOL     OW28626   5.142   0.051   0.937  0.3723 -0.2263  0.7130
 8345SOL    HW128627   5.229   0.067   0.974  0.5052  1.7132 -0.3166
 8345SOL    HW228628   5.130  -0.044   0.943  1.6811 -0.3255  2.7499
 8346SOL     OW28629   0.135   1.453   4.333  0.0509 -0.2579  0.6061
 8346SOL    HW128630   0.043   1.440   4.313 -0.0907 -0.5811  1.4087
 8346SOL    HW228631   0.163   1.524   4.275 -1.2891  1.4121  1.8616
 8347SOL     OW28632   0.444   2.167   4.240 -0.1458 -0.3782 -0.1201
 8347SOL    HW128633   0.462   2.073   4.250  0.8950 -0.1739  0.0051
 8347SOL    HW228634   0.366   2.170   4.184  0.0604 -1.3090 -0.4796
 8348SOL     OW28635   3.746   7.417   9.523  0.1076  0.0610 -0.2121
 8348SOL    HW128636   3.804   7.438   9.450  0.6188 -0.9570 -0.1180
 8348SOL    HW228637   3.714   7.329   9.505 -1.5594  0.6551 -0.3317
 8349SOL     OW28638   7.905  11.074   9.735 -0.2388 -0.3712 -0.3703
 8349SOL    HW128639   7.960  11.090   9.812 -2.6826  0.3011  1.3450
 8349SOL    HW228640   7.902  10.979   9.726 -0.4858 -0.4898  0.8378
 8350SOL     OW28641   8.932   9.818   5.625 -0.4836  0.6334 -0.1044
 8350SOL    HW128642   9.022   9.828   5.655 -0.4772  1.4051 -0.3535
 8350SOL    HW228643   8.897   9.746   5.676  0.1863  0.5300  0.2116
 8351SOL     OW28644   7.261   0.773   4.005 -0.1077  0.3000  0.0747
 8351SOL    HW128645   7.356   0.780   4.013 -0.3036  3.6889  0.8260
 8351SOL    HW228646   7.243   0.802   3.916 -0.4596 -0.8221 -0.2369
 8352SOL     OW28647   4.119   6.171   6.520 -0.6169 -0.5091 -0.3683
 8352SOL    HW128648   4.039   6.215   6.547  0.2718  1.1173 -0.2919
 8352SOL    HW228649   4.090   6.085   6.489 -2.3999  0.1426 -0.5880
 8353SOL     OW28650   3.909  10.720   4.381  0.2052  0.1789  0.1679
 8353SOL    HW128651   4.001  10.694   4.373  0.1534  0.2873 -0.8371
 8353SOL    HW228652   3.913  10.809   4.416  0.4793  0.1757  0.1509
 8354SOL     OW28653   4.120   0.780   2.453 -0.5575  0.0884  0.4616
 8354SOL    HW128654   4.073   0.720   2.396  0.1927 -1.4828  1.4217
 8354SOL    HW228655   4.068   0.860   2.452 -0.3348  0.3318 -2.7548
 8355SOL     OW28656   0.242   9.019   9.337  0.0878 -0.4489 -1.2808
 8355SOL    HW128657   0.279   9.099   9.373  0.8611 -0.5064 -1.9119
 8355SOL    HW228658   0.157   9.010   9.379  0.8414 -0.3829  0.3079
 8356SOL     OW28659   9.649   5.792  10.681 -0.2950  0.0885  0.1007
 8356SOL    HW128660   9.720   5.789  10.617 -0.8281  0.7116 -0.5279
 8356SOL    HW228661   9.587   5.725  10.651  1.4037 -2.7025  2.3550
 8357SOL     OW28662   9.632   6.945  10.276 -0.0833  0.6018 -0.1864
 8357SOL    HW128663   9.589   6.998  10.343 -0.7129 -0.4048  0.2275
 8357SOL    HW228664   9.725   6.962  10.289  0.0312 -1.5177  2.7123
 8358SOL     OW28665   7.796  10.527   2.399  0.0263 -0.4364 -0.5376
 8358SOL    HW128666   7.754  10.602   2.442  0.1026  0.1690 -1.5035
 8358SOL    HW228667   7.794  10.458   2.465  1.8847  1.0341  1.1993
 8359SOL     OW28668   5.920   7.066   1.234  0.6728  0.2445  0.2901
 8359SOL    HW128669   5.897   6.983   1.277  1.7604 -0.6841 -0.8667
 8359SOL    HW228670   6.003   7.091   1.274 -0.0008  1.1881  1.1552
 8360SOL     OW28671   1.415   4.449   5.664 -0.4270  0.3655  0.1761
 8360SOL    HW128672   1.415   4.380   5.598  0.5087  0.6863 -0.1713
 8360SOL    HW228673   1.436   4.403   5.746  1.1408  0.3437 -0.2020
 8361SOL     OW28674  11.080   8.587   5.869  0.3738 -0.1699 -0.0987
 8361SOL    HW128675  11.165   8.614   5.836  1.4774 -0.9092  1.9726
 8361SOL    HW228676  11.097   8.554   5.957 -2.2469  0.9980  0.9837
 8362SOL     OW28677   8.995   6.088  10.444  0.2478 -0.6574 -0.6601
 8362SOL    HW128678   8.945   6.059  10.520 -1.7282  0.4260 -1.4791
 8362SOL    HW228679   9.025   6.177  10.467  0.5128 -0.7162 -0.7692
 8363SOL     OW28680   3.533   5.990   3.633 -0.1539  0.6021 -0.1342
 8363SOL    HW128681   3.495   5.934   3.565  0.8790 -0.7958  0.3906
 8363SOL    HW228682   3.504   6.078   3.610 -1.0806 -0.0181 -1.5157
 8364SOL     OW28683   0.822   9.131   3.091  0.5141  0.3745  0.3129
 8364SOL    HW128684   0.878   9.062   3.056  1.1026  0.5253  0.9370
 8364SOL    HW228685   0.736   9.090   3.100  0.3833  0.2944 -1.1457
 8365SOL     OW28686   8.323   4.322   4.762  0.2551 -0.2791  0.2507
 8365SOL    HW128687   8.360   4.282   4.684 -2.5044 -1.3204 -0.6449
 8365SOL    HW228688   8.375   4.287   4.835  2.6778  0.4835 -1.0136
 8366SOL     OW28689   9.354   6.729   7.353 -0.4489 -0.1020  0.3477
 8366SOL    HW128690   9.446   6.733   7.381 -0.5906  0.6972  0.7344
 8366SOL    HW228691   9.356   6.682   7.269  0.5328  1.3444 -0.4936
 8367SOL     OW28692   4.298   8.133   1.695  0.1758 -0.1886  0.4342
 8367SOL    HW128693   4.270   8.128   1.604  0.8730 -0.3810  0.2232
 8367SOL    HW228694   4.218   8.152   1.744 -0.1252  0.3782 -0.2636
 8368SOL     OW28695   5.222   8.333   1.560  0.7933 -0.1047 -0.0147
 8368SOL    HW128696   5.241   8.358   1.470 -0.2127  0.2990 -0.1340
 8368SOL    HW228697   5.253   8.407   1.613  3.6793 -1.3847  0.2405
 8369SOL     OW28698   6.231   1.806  10.995  0.3077  0.1249 -0.0561
 8369SOL    HW128699   6.185   1.868  11.052 -0.3568  0.3985 -0.8637
 8369SOL    HW228700   6.161   1.769  10.940  1.0146  0.3826 -1.1574
 8370SOL     OW28701   3.698   7.058   0.692  0.5297  0.0315 -0.2489
 8370SOL    HW128702   3.787   7.035   0.664  0.5072  0.7599 -0.9384
 8370SOL    HW228703   3.666   7.117   0.624 -1.9535 -3.1717 -2.1446
 8371SOL     OW28704   8.949   2.971   6.570 -0.4133  0.6345 -0.0555
 8371SOL    HW128705   8.983   3.005   6.488 -1.3524  2.2099  0.1596
 8371SOL    HW228706   9.006   3.009   6.637 -0.1005 -0.0525  0.0792
 8372SOL     OW28707  10.484   2.593   4.495  0.0648  0.0455  0.0722
 8372SOL    HW128708  10.435   2.670   4.523 -1.0751 -0.7203  0.2514
 8372SOL    HW228709  10.575   2.623   4.490  0.0143  0.7665  2.5044
 8373SOL     OW28710  11.022   1.071   7.602  0.4399  0.2452  0.8860
 8373SOL    HW128711  10.984   1.110   7.524 -0.6084 -0.6705  0.9055
 8373SOL    HW228712  11.051   1.146   7.655  0.4036  0.8970  0.0023
 8374SOL     OW28713   0.916   7.604   5.064  0.5900 -0.1405 -0.6479
 8374SOL    HW128714   0.993   7.562   5.102  0.7466 -0.5206 -1.3828
 8374SOL    HW228715   0.934   7.698   5.071  1.2466 -0.2309 -1.0586
 8375SOL     OW28716   5.012   1.616   8.633 -0.2421  0.2337 -0.0616
 8375SOL    HW128717   4.993   1.667   8.711  0.2268 -0.4911  0.5444
 8375SOL    HW228718   5.101   1.642   8.608 -1.5905  3.1478 -2.5127
 8376SOL     OW28719   6.974   5.326   7.627  0.1214  0.5141  0.1198
 8376SOL    HW128720   6.940   5.263   7.564  0.6250  0.6856 -0.3335
 8376SOL    HW228721   7.029   5.385   7.575 -0.7335  1.6407  0.4305
 8377SOL     OW28722   8.893   0.052   0.076  0.5339  0.1204  0.1724
 8377SOL    HW128723   8.904   0.108   0.153  0.6517 -1.0820  1.0659
 8377SOL    HW228724   8.971  -0.004   0.076  0.3062 -0.2137 -0.5571
 8378SOL     OW28725   2.783   8.892   6.046  0.2102  0.4529 -0.1397
 8378SOL    HW128726   2.701   8.940   6.058 -0.0834 -0.0361 -0.1633
 8378SOL    HW228727   2.832   8.908   6.128 -1.5108 -2.3334  1.5784
 8379SOL     OW28728   0.355   2.195   3.443  0.1821  0.5374  0.0869
 8379SOL    HW128729   0.373   2.247   3.365 -0.7607  0.4873 -0.1872
 8379SOL    HW228730   0.410   2.117   3.434  1.0224  1.1301  0.1138
 8380SOL     OW28731   2.753   8.641   8.333 -0.7814 -1.0358  0.3878
 8380SOL    HW128732   2.802   8.560   8.318  0.5681 -1.0438  3.7981
 8380SOL    HW228733   2.815   8.710   8.310  0.8173 -1.0575  3.9260
 8381SOL     OW28734   1.964   8.800   3.749 -0.5344 -0.3060 -0.1082
 8381SOL    HW128735   1.889   8.768   3.799 -3.7161  2.9599 -2.3266
 8381SOL    HW228736   1.938   8.791   3.657  1.9410  0.7088 -1.0013
 8382SOL     OW28737   0.492   8.899   5.734 -0.0633 -0.1295  0.1063
 8382SOL    HW128738   0.416   8.882   5.790  0.9534  0.1947  1.6713
 8382SOL    HW228739   0.566   8.901   5.795  1.5856 -2.8072 -1.5810
 8383SOL     OW28740   6.478   4.799   8.053  0.5062  0.0473  0.2152
 8383SOL    HW128741   6.389   4.829   8.071  0.0067 -0.4546 -1.2624
 8383SOL    HW228742   6.532   4.877   8.063 -0.1897  0.5165  0.4253
 8384SOL     OW28743   8.319   2.065   7.219 -0.1652  0.2477  0.4494
 8384SOL    HW128744   8.327   2.004   7.145 -0.0911  0.0888  0.5861
 8384SOL    HW228745   8.262   2.019   7.281  0.7368 -0.1399  1.0088
 8385SOL     OW28746   7.026   8.419   4.390  0.2624  0.1160  0.0248
 8385SOL    HW128747   6.938   8.380   4.390  0.1029  0.3645 -2.0401
 8385SOL    HW228748   7.028   8.473   4.469 -1.3358 -0.1329  0.2707
 8386SOL     OW28749   6.229  10.242   4.339 -0.0905 -0.3293  0.0542
 8386SOL    HW128750   6.295  10.183   4.375  0.2289  0.0640  0.1187
 8386SOL    HW228751   6.160  10.184   4.307  0.7652 -0.7965 -1.0072
 8387SOL     OW28752   5.198   5.979   9.455  0.0210  0.1503  0.5633
 8387SOL    HW128753   5.155   6.039   9.516 -0.4097  0.1837  0.2268
 8387SOL    HW228754   5.261   6.035   9.408  1.0088 -0.0624  1.6123
 8388SOL     OW28755   2.190   5.254   3.633  0.8749  0.0398  0.4202
 8388SOL    HW128756   2.199   5.341   3.595  0.5637 -0.7729 -1.6217
 8388SOL    HW228757   2.098   5.232   3.620  1.9787 -3.0743 -5.1363
 8389SOL     OW28758   0.684   5.534   3.716 -0.7361  0.0619 -0.1853
 8389SOL    HW128759   0.672   5.489   3.632 -0.8197 -1.6356  0.6877
 8389SOL    HW228760   0.744   5.478   3.765 -2.7619 -0.4758  1.8883
 8390SOL     OW28761   8.656   9.352   8.139  0.0918  0.0059 -0.2101
 8390SOL    HW128762   8.571   9.361   8.181 -0.6615  0.8684 -1.8394
 8390SOL    HW228763   8.658   9.261   8.109 -0.7665  0.2841 -1.1656
 8391SOL     OW28764  10.327   1.750   2.146  0.2278 -0.1451 -0.0570
 8391SOL    HW128765  10.252   1.799   2.112 -0.1013 -0.3223  0.4033
 8391SOL    HW228766  10.354   1.694   2.073  0.6957  0.8088 -0.6296
 8392SOL     OW28767   8.165   4.402   7.192 -0.4604 -0.6962  0.5438
 8392SOL    HW128768   8.249   4.433   7.225 -0.2610  2.2843 -2.1990
 8392SOL    HW228769   8.112   4.387   7.270  1.5898  0.4825  2.2664
 8393SOL     OW28770   7.819   3.784   6.233 -0.2291  0.1582 -0.6807
 8393SOL    HW128771   7.880   3.810   6.302 -1.4518  0.3772  0.3608
 8393SOL    HW228772   7.844   3.836   6.158  0.2879  0.9178  0.0038
 8394SOL     OW28773   5.137   8.793   4.250  0.3106 -0.7383 -0.3708
 8394SOL    HW128774   5.071   8.749   4.196 -1.4794 -0.3982  1.4057
 8394SOL    HW228775   5.087   8.854   4.305  2.2140  0.1942  0.4489
 8395SOL     OW28776   4.158   3.279   7.783 -0.2683  0.1482 -0.5119
 8395SOL    HW128777   4.226   3.236   7.731 -0.1927 -0.4584  0.0651
 8395SOL    HW228778   4.096   3.208   7.804  0.1322  0.1771  0.9088
 8396SOL     OW28779   7.026   6.100   2.355  0.5627 -0.0401  1.0457
 8396SOL    HW128780   6.939   6.138   2.362  0.9909  1.0467  0.6736
 8396SOL    HW228781   7.010   6.008   2.335 -0.5131  0.4326 -0.5261
 8397SOL     OW28782   6.745   3.680   5.022  0.7971  0.1245  0.2566
 8397SOL    HW128783   6.773   3.671   4.931  0.0278  0.9904 -0.0849
 8397SOL    HW228784   6.649   3.680   5.017  0.7455  0.9344  0.9777
 8398SOL     OW28785   2.164   7.928   5.766 -0.0202 -0.3947  0.1838
 8398SOL    HW128786   2.097   7.996   5.775  2.7937  2.3364  3.3026
 8398SOL    HW228787   2.214   7.954   5.690  0.3946  0.4662  0.7354
 8399SOL     OW28788  10.443  11.063   5.267 -0.2492  0.3025  0.2170
 8399SOL    HW128789  10.364  11.011   5.251 -0.1847  0.0649  0.6510
 8399SOL    HW228790  10.501  11.040   5.195 -0.7934  0.9220 -0.4357
 8400SOL     OW28791   8.571   1.274   7.932  0.4397  0.5169 -0.0610
 8400SOL    HW128792   8.530   1.191   7.956 -1.0809  1.6831  1.5245
 8400SOL    HW228793   8.516   1.341   7.971  1.0354  2.3654 -2.1808
 8401SOL     OW28794   3.464   3.442   1.123  0.2105  1.1117  0.1453
 8401SOL    HW128795   3.477   3.380   1.052 -0.3556  0.1652  0.8420
 8401SOL    HW228796   3.495   3.397   1.201 -0.3691  1.6305  0.6939
 8402SOL     OW28797   5.240   7.995   8.863 -0.1380 -0.2519  0.0160
 8402SOL    HW128798   5.236   8.089   8.880 -0.2868 -0.4819  1.3233
 8402SOL    HW228799   5.332   7.972   8.880 -0.8237 -0.9703  3.4552
 8403SOL     OW28800   2.156  10.975   4.960  0.3130  0.5553 -0.0615
 8403SOL    HW128801   2.240  10.988   5.004  0.5175  1.0109 -0.5741
 8403SOL    HW228802   2.105  11.053   4.981 -0.1712  0.0541  0.6543
 8404SOL     OW28803  10.533   9.602   2.844 -0.7290 -0.5022 -0.0725
 8404SOL    HW128804  10.577   9.620   2.761 -2.2990  1.6013 -0.5230
 8404SOL    HW228805  10.591   9.541   2.889  1.3608  0.1788 -1.6910
 8405SOL     OW28806   1.146   2.635   9.171  0.4289 -0.1071  0.7424
 8405SOL    HW128807   1.073   2.675   9.124 -0.2386 -1.1603  0.8521
 8405SOL    HW228808   1.104   2.575   9.233  1.4059 -1.8186 -0.1941
 8406SOL     OW28809   8.199   8.505   5.848 -0.1607  0.3979  0.5222
 8406SOL    HW128810   8.139   8.431   5.856  0.1400  0.0010 -0.6928
 8406SOL    HW228811   8.255   8.500   5.925 -0.6529 -0.1716  0.8497
 8407SOL     OW28812   7.883   9.627   3.151 -0.0003 -0.1928  0.1437
 8407SOL    HW128813   7.817   9.696   3.158 -3.3791 -3.1372  0.2185
 8407SOL    HW228814   7.899   9.618   3.058 -0.4042 -0.0372  0.0571
 8408SOL     OW28815   2.686  10.080   4.954 -0.7895  0.5028 -0.1465
 8408SOL    HW128816   2.719  10.039   5.034  1.1948 -1.6571 -1.9193
 8408SOL    HW228817   2.658  10.006   4.900 -3.2875  1.9770 -1.0281
 8409SOL     OW28818   4.133   4.276   2.155  0.4874 -0.0284 -0.2078
 8409SOL    HW128819   4.228   4.286   2.165  0.7318 -1.1512 -1.2099
 8409SOL    HW228820   4.122   4.246   2.065 -0.9726  1.8765 -0.7157
 8410SOL     OW28821  10.246   9.743   3.678 -0.4275 -0.3089  0.7622
 8410SOL    HW128822  10.286   9.661   3.707  0.3755 -0.5888 -1.0003
 8410SOL    HW228823  10.219   9.786   3.759  1.2936 -1.2139  1.8810
 8411SOL     OW28824   9.877   8.353   3.679 -0.7539 -0.3255  0.4019
 8411SOL    HW128825   9.889   8.393   3.765  0.6713 -2.1347  1.0999
 8411SOL    HW228826   9.806   8.403   3.639 -1.6807  0.3564  2.7513
 8412SOL     OW28827   8.620  11.081   4.447 -0.0982  0.2601 -0.3112
 8412SOL    HW128828   8.632  11.164   4.493 -0.4510  0.1519 -0.0215
 8412SOL    HW228829   8.525  11.069   4.443 -0.0884  0.3983 -1.3134
 8413SOL     OW28830   8.464   8.714   9.941  0.2965 -0.3946 -0.1483
 8413SOL    HW128831   8.442   8.793   9.891  0.0224 -0.6450 -0.4230
 8413SOL    HW228832   8.549   8.686   9.906  0.4606 -0.1446  0.0455
 8414SOL     OW28833   9.242   5.155   0.784  0.3713 -1.0856 -0.3089
 8414SOL    HW128834   9.254   5.068   0.822  0.5319 -0.4083  1.2418
 8414SOL    HW228835   9.326   5.199   0.795 -0.4896  0.2357  1.5878
 8415SOL     OW28836   3.741   8.057   1.526  0.2371 -0.4461 -0.2626
 8415SOL    HW128837   3.763   7.964   1.525 -1.4705 -0.8719 -0.1793
 8415SOL    HW228838   3.686   8.069   1.448  0.0832  0.4127 -0.0294
 8416SOL     OW28839  10.985   1.407   3.056 -0.2157 -0.0140 -0.1327
 8416SOL    HW128840  11.021   1.455   3.131  0.0322 -1.7140  0.8871
 8416SOL    HW228841  11.037   1.437   2.981  0.2846  0.8831  0.5476
 8417SOL     OW28842   9.194   6.449   9.094 -0.6039 -0.7097  0.0909
 8417SOL    HW128843   9.227   6.457   9.183 -0.8367 -0.4295  0.1539
 8417SOL    HW228844   9.134   6.374   9.097 -0.3855 -0.8831  0.1021
 8418SOL     OW28845  10.190  10.275  10.307 -0.3272 -0.3722 -0.1480
 8418SOL    HW128846  10.195  10.257  10.401  0.5524 -0.2619 -0.1590
 8418SOL    HW228847  10.169  10.368  10.302 -0.8187 -0.4767 -0.0669
 8419SOL     OW28848  10.249   4.526   8.397  0.3083 -0.4286  0.0902
 8419SOL    HW128849  10.265   4.461   8.329 -0.5839 -0.1858 -0.3585
 8419SOL    HW228850  10.312   4.596   8.379 -0.9125  0.3259 -1.4003
 8420SOL     OW28851   0.376   3.231   7.167 -0.0873 -0.1573  0.4198
 8420SOL    HW128852   0.420   3.310   7.135 -0.4848 -0.1071 -0.0169
 8420SOL    HW228853   0.445   3.182   7.212 -0.0871  0.9496  1.6487
 8421SOL     OW28854   3.242  10.374  10.291 -0.5375  0.0022  0.3859
 8421SOL    HW128855   3.260  10.282  10.306  0.0523  0.0545  0.0513
 8421SOL    HW228856   3.225  10.411  10.377 -0.0122 -0.2630  0.6015
 8422SOL     OW28857   6.079   5.283   6.681 -0.2758 -0.2956  0.6978
 8422SOL    HW128858   6.084   5.216   6.613  0.3508 -2.1095  2.4148
 8422SOL    HW228859   6.159   5.270   6.733 -0.6346  1.1416  1.6655
 8423SOL     OW28860  10.846   7.821   9.720 -0.0211  0.1489 -0.5760
 8423SOL    HW128861  10.790   7.805   9.644  0.3637  1.0394 -1.0682
 8423SOL    HW228862  10.887   7.736   9.738 -1.7603 -0.6072  0.0190
 8424SOL     OW28863   2.598   9.483  10.266  0.2473  0.3579  0.3131
 8424SOL    HW128864   2.607   9.532  10.347  0.2796  0.0613  0.4921
 8424SOL    HW228865   2.685   9.444  10.252  0.2444  0.4136  0.1320
 8425SOL     OW28866  10.004  10.396   7.817  0.4183  0.5844 -0.8549
 8425SOL    HW128867   9.970  10.338   7.749  0.5566 -2.2037  1.2410
 8425SOL    HW228868  10.054  10.337   7.875  0.6958  2.8527  1.3859
 8426SOL     OW28869   6.291   5.254   3.237  0.4038  0.4326  0.3440
 8426SOL    HW128870   6.265   5.210   3.155  1.9882 -0.2956  0.2011
 8426SOL    HW228871   6.348   5.325   3.208 -0.1078  1.0048  0.7407
 8427SOL     OW28872   9.992   9.188   1.217 -0.1987  0.7949  0.0978
 8427SOL    HW128873  10.009   9.185   1.311  2.6276  0.4936 -0.3272
 8427SOL    HW228874  10.010   9.099   1.186 -0.5963  1.0144 -0.7938
 8428SOL     OW28875   0.204  10.879   9.153  0.0375 -0.4494 -0.1013
 8428SOL    HW128876   0.208  10.924   9.238 -0.6991 -0.5069 -0.0273
 8428SOL    HW228877   0.176  10.947   9.091  3.1854  0.3142 -0.8662
 8429SOL     OW28878   3.684   0.979  10.073 -0.2503 -0.4172  0.0415
 8429SOL    HW128879   3.666   0.892  10.108  0.4645 -0.3647  0.5523
 8429SOL    HW228880   3.779   0.985  10.070 -0.2463  0.8711  1.3668
 8430SOL     OW28881   4.223   7.726   8.836  0.0308  0.4213  0.3838
 8430SOL    HW128882   4.253   7.759   8.752  1.4649 -2.3716 -0.3191
 8430SOL    HW228883   4.136   7.690   8.819  0.5106 -0.5591 -0.0534
 8431SOL     OW28884   9.077   3.157   6.798 -0.0888  0.3436  0.4118
 8431SOL    HW128885   9.034   3.170   6.883  1.2681  1.6888  0.9469
 8431SOL    HW228886   9.074   3.244   6.757 -2.2216 -0.6186 -1.7219
 8432SOL     OW28887   7.847   7.351   4.705 -0.0036  0.6336  0.1235
 8432SOL    HW128888   7.784   7.423   4.704  0.6301  1.1806 -1.0284
 8432SOL    HW228889   7.872   7.343   4.797  1.5776  3.3675  0.0235
 8433SOL     OW28890   5.471   4.400   7.166 -0.5223  0.1273  0.3292
 8433SOL    HW128891   5.509   4.429   7.249  1.2641 -0.9041 -0.0781
 8433SOL    HW228892   5.508   4.312   7.152 -0.4709  0.4322 -1.7414
 8434SOL     OW28893   0.888   3.131   3.850 -0.2055 -0.1145  0.0843
 8434SOL    HW128894   0.888   3.089   3.936  0.7155  1.4913  0.9302
 8434SOL    HW228895   0.867   3.061   3.789 -0.6408 -1.3585  1.5864
 8435SOL     OW28896   7.295   0.025   7.161 -0.0060 -0.2913 -0.0159
 8435SOL    HW128897   7.351   0.065   7.226 -0.6134  0.9636 -0.2383
 8435SOL    HW228898   7.285  -0.066   7.190 -1.2831  0.5188  2.3568
 8436SOL     OW28899   0.802   1.331   3.147 -0.2550  0.0001 -0.0284
 8436SOL    HW128900   0.889   1.295   3.166  0.1747  0.1004 -1.6467
 8436SOL    HW228901   0.796   1.410   3.200  0.8512  0.2561 -0.2572
 8437SOL     OW28902   4.314   8.443   0.139 -0.3610 -0.6429 -0.0367
 8437SOL    HW128903   4.287   8.482   0.223 -0.0061 -1.2385  0.3588
 8437SOL    HW228904   4.260   8.488   0.074 -0.0128  0.4674  0.4173
 8438SOL     OW28905   2.762   9.031   0.884  0.1285 -0.2438  0.5696
 8438SOL    HW128906   2.735   9.104   0.828  0.4522  0.5031  1.3763
 8438SOL    HW228907   2.847   9.004   0.849  0.4814  0.4307  0.8931
 8439SOL     OW28908   5.341   7.807  10.648 -0.1719 -0.0853  0.2299
 8439SOL    HW128909   5.355   7.838  10.558  2.9207 -0.4132  0.4821
 8439SOL    HW228910   5.385   7.722  10.651 -0.4062 -0.1783  2.0002
 8440SOL     OW28911   1.671   4.682   4.198 -0.3205  0.5574 -0.0008
 8440SOL    HW128912   1.576   4.674   4.190 -0.1478 -2.4051 -0.1866
 8440SOL    HW228913   1.705   4.665   4.110  0.4344 -0.9642  0.5460
 8441SOL     OW28914   0.060   6.204   9.539 -0.1339 -0.4664  0.2126
 8441SOL    HW128915   0.040   6.119   9.577 -2.3619 -1.5389 -2.8876
 8441SOL    HW228916  -0.019   6.256   9.554 -0.6035 -0.5367 -1.6673
 8442SOL     OW28917  10.027   8.631   5.417 -0.2162  0.8179 -0.2695
 8442SOL    HW128918  10.096   8.603   5.356  0.1948 -1.3665  1.0596
 8442SOL    HW228919   9.948   8.589   5.383 -0.3707  1.1656 -0.3402
 8443SOL     OW28920   6.407   0.403   5.781 -0.0987  0.3212 -0.5908
 8443SOL    HW128921   6.391   0.497   5.778  2.4677  0.7884 -1.4504
 8443SOL    HW228922   6.348   0.371   5.850 -1.6028  2.3932 -0.8408
 8444SOL     OW28923  11.080   4.623   0.919  0.3605  0.1863 -0.3185
 8444SOL    HW128924  11.012   4.648   0.856 -0.2882  0.5923  0.5156
 8444SOL    HW228925  11.048   4.540   0.957 -0.2989  0.9777  0.9355
 8445SOL     OW28926  11.080   7.903   2.803 -0.1746  0.0377 -0.3529
 8445SOL    HW128927  11.160   7.935   2.846 -1.3157  4.2859 -0.9171
 8445SOL    HW228928  11.096   7.918   2.709 -1.6672  1.2997 -0.4500
 8446SOL     OW28929  10.217   0.972   0.551  0.1995  0.2511  0.1162
 8446SOL    HW128930  10.205   0.990   0.644 -0.0047 -2.1210  0.6028
 8446SOL    HW228931  10.312   0.973   0.539  0.2347  0.3710  0.3997
 8447SOL     OW28932  10.621   8.594   2.417 -0.1060 -0.4132 -0.3601
 8447SOL    HW128933  10.574   8.669   2.381 -0.5970 -1.3049 -1.6386
 8447SOL    HW228934  10.655   8.626   2.501 -1.3633  0.8370 -0.2829
 8448SOL     OW28935   8.364   1.912   0.919 -0.0831  0.2197 -0.1202
 8448SOL    HW128936   8.459   1.912   0.915 -0.1034  0.2625 -0.6374
 8448SOL    HW228937   8.344   1.869   1.003  0.3991  1.2276  0.5319
 8449SOL     OW28938   6.208   2.483   5.411 -0.2389 -0.0012 -0.6499
 8449SOL    HW128939   6.185   2.462   5.321  2.1334 -1.6622 -0.9531
 8449SOL    HW228940   6.266   2.412   5.438 -0.4268  0.7544  2.0177
 8450SOL     OW28941   6.472   6.892   1.734  0.0964  0.3092  0.3680
 8450SOL    HW128942   6.483   6.870   1.641  1.6498 -1.3549  0.8863
 8450SOL    HW228943   6.394   6.947   1.737 -0.7508 -0.6815 -1.7737
 8451SOL     OW28944  10.342   3.819  10.982 -0.0068 -0.1028 -0.6148
 8451SOL    HW128945  10.385   3.741  10.946 -0.6618 -0.7273 -0.0745
 8451SOL    HW228946  10.264   3.830  10.929 -0.3359 -0.2985 -0.1791
 8452SOL     OW28947  10.915   4.702   0.729  0.1728  0.1842  0.0945
 8452SOL    HW128948  10.965   4.783   0.716 -0.6081  0.6165 -0.2991
 8452SOL    HW228949  10.930   4.651   0.650  1.0109 -0.2578  0.5253
 8453SOL     OW28950   3.080   4.208   6.999 -0.7003 -0.2424  0.1867
 8453SOL    HW128951   3.030   4.127   6.998 -1.6160  0.3051  0.1151
 8453SOL    HW228952   3.120   4.213   6.912 -1.5343 -0.0784 -0.1878
 8454SOL     OW28953   7.058   1.322   4.696  0.2081  0.0717 -0.5439
 8454SOL    HW128954   7.061   1.320   4.600  0.1554  0.7741 -0.5634
 8454SOL    HW228955   7.125   1.386   4.720 -0.6930  0.8924 -0.1712
 8455SOL     OW28956   4.278   3.877  11.077 -0.2282 -0.6053  0.1812
 8455SOL    HW128957   4.203   3.921  11.117 -0.2044 -0.1103 -0.3022
 8455SOL    HW228958   4.287   3.796  11.126 -0.4002 -0.1654  0.9572
 8456SOL     OW28959   6.806   2.558   5.080  0.0539 -0.3299 -0.0666
 8456SOL    HW128960   6.868   2.497   5.119  1.0281  0.2873 -0.6089
 8456SOL    HW228961   6.738   2.503   5.042 -0.3671 -0.9864  1.5471
 8457SOL     OW28962  10.718   7.487   0.347  0.1927 -0.5484  1.3728
 8457SOL    HW128963  10.626   7.461   0.336 -0.1785  1.2152 -0.2489
 8457SOL    HW228964  10.715   7.567   0.398  0.5734  0.8588 -0.7022
 8458SOL     OW28965   2.895   9.757   1.880  0.7016  0.0918 -0.3650
 8458SOL    HW128966   2.874   9.841   1.922  0.4511 -1.0532  1.9755
 8458SOL    HW228967   2.845   9.758   1.799  2.0330  2.8873 -1.2963
 8459SOL     OW28968   5.841   6.006   0.390  0.1493  0.2405 -0.3108
 8459SOL    HW128969   5.872   5.955   0.465 -0.6643  0.7041  0.3643
 8459SOL    HW228970   5.749   6.022   0.409  0.0370  0.7324 -1.2152
 8460SOL     OW28971   1.134   0.564   6.695  0.3665  0.2332 -0.1393
 8460SOL    HW128972   1.143   0.469   6.699  0.5808  0.1621 -1.5007
 8460SOL    HW228973   1.224   0.597   6.696  0.3701  0.3077 -1.0803
 8461SOL     OW28974   7.774   3.454   1.219  0.0279 -0.5344 -0.2792
 8461SOL    HW128975   7.816   3.493   1.295  0.8076  0.8847 -1.3904
 8461SOL    HW228976   7.784   3.360   1.231 -0.0460 -0.3556  1.4477
 8462SOL     OW28977   4.434   6.515   9.811 -0.0183 -0.3682  0.2910
 8462SOL    HW128978   4.350   6.474   9.791  0.4202 -1.4620  0.5892
 8462SOL    HW228979   4.464   6.470   9.889 -0.1289  1.4937  1.4562
 8463SOL     OW28980   0.984   4.229   3.970 -0.0957 -0.1779  0.0142
 8463SOL    HW128981   1.014   4.257   4.056 -0.4637  0.3966 -0.0393
 8463SOL    HW228982   0.951   4.140   3.984  0.3334 -0.2836  0.3544
 8464SOL     OW28983   7.362  11.031   2.513 -0.5248 -0.5669 -0.5581
 8464SOL    HW128984   7.276  10.997   2.490  0.0033 -1.6910 -0.9806
 8464SOL    HW228985   7.369  11.018   2.608 -0.8592 -0.3740 -0.5080
 8465SOL     OW28986   6.068   7.869  10.840 -0.0378 -0.6649 -0.1732
 8465SOL    HW128987   6.020   7.801  10.886 -0.1291 -0.4354  0.0719
 8465SOL    HW228988   6.068   7.841  10.748 -1.4686 -0.1878 -0.3348
 8466SOL     OW28989   0.386   3.609  10.316 -0.2658 -0.2398  0.3807
 8466SOL    HW128990   0.398   3.602  10.411 -2.5381  2.2215  0.9725
 8466SOL    HW228991   0.414   3.698  10.295 -0.6365 -0.4550 -1.1220
 8467SOL     OW28992  10.451   6.482   2.432  0.4234  0.0341  0.3260
 8467SOL    HW128993  10.489   6.430   2.503  0.0572  1.9174  1.9910
 8467SOL    HW228994  10.497   6.452   2.353  1.4582 -1.5327  1.4505
 8468SOL     OW28995   2.801   7.287   9.787 -0.3629  0.7012  0.2058
 8468SOL    HW128996   2.874   7.340   9.753  0.3561 -0.1808  0.3434
 8468SOL    HW228997   2.746   7.270   9.711  0.7450 -0.4745 -0.3603
 8469SOL     OW28998   6.259   2.781   6.513 -0.3205  0.0179 -0.3051
 8469SOL    HW128999   6.260   2.870   6.478  1.9668 -0.0868 -0.6237
 8469SOL    HW229000   6.237   2.792   6.606  0.7732  1.0229 -0.1485
 8470SOL     OW29001   7.076   7.715   3.581  0.1436 -0.1891  0.6065
 8470SOL    HW129002   7.002   7.691   3.526  0.5067  1.1805 -0.5259
 8470SOL    HW229003   7.149   7.664   3.546  0.7121  1.7469 -1.2207
 8471SOL     OW29004   7.608   2.041  10.329  0.4986 -0.0135  0.3811
 8471SOL    HW129005   7.661   1.987  10.271 -0.5594  0.1512 -0.7835
 8471SOL    HW229006   7.535   1.984  10.356 -0.3286  0.6279 -0.4247
 8472SOL     OW29007   8.024  10.230   6.250 -0.0157  0.1101  0.5130
 8472SOL    HW129008   8.009  10.149   6.300 -1.8350  0.7644  1.1044
 8472SOL    HW229009   7.938  10.252   6.214  0.7819  0.9473 -0.9693
 8473SOL     OW29010  10.969   9.981   4.303 -0.0955 -0.3698 -0.0732
 8473SOL    HW129011  11.011   9.909   4.349 -0.4988  0.3559  1.5112
 8473SOL    HW229012  10.877   9.977   4.332 -0.1481  0.6717 -0.0577
 8474SOL     OW29013   6.834   9.594   4.565 -1.0023  0.0187  0.3484
 8474SOL    HW129014   6.817   9.532   4.637 -2.3762 -0.8469 -0.6616
 8474SOL    HW229015   6.921   9.629   4.583 -1.3791 -0.0267  2.5269
 8475SOL     OW29016   6.749   0.024   5.049  0.0321 -0.1654  0.0059
 8475SOL    HW129017   6.800   0.019   4.968  0.9618 -1.3798  0.6378
 8475SOL    HW229018   6.658   0.030   5.019  0.4704  1.6239 -1.1369
 8476SOL     OW29019   4.425   1.495   8.269 -0.1432 -0.3355  0.0240
 8476SOL    HW129020   4.350   1.467   8.216 -1.3100  3.4279 -0.6375
 8476SOL    HW229021   4.501   1.454   8.227 -1.5204 -1.8475 -1.1458
 8477SOL     OW29022   2.633   4.374   4.477 -0.3721  0.6262 -0.5632
 8477SOL    HW129023   2.582   4.455   4.478 -1.0642  0.2311 -1.7489
 8477SOL    HW229024   2.572   4.307   4.510 -0.4634  0.2473 -1.4768
 8478SOL     OW29025   8.300   5.550   5.695 -0.2682  0.0129 -0.3808
 8478SOL    HW129026   8.381   5.500   5.696 -0.5664 -0.4761  0.7123
 8478SOL    HW229027   8.252   5.517   5.619  0.0809 -0.4629 -0.3973
 8479SOL     OW29028   2.287   0.737   0.138  0.2993  0.0053 -0.1361
 8479SOL    HW129029   2.376   0.743   0.171 -0.2501  0.6399  1.3250
 8479SOL    HW229030   2.277   0.646   0.111  1.6972  0.1652 -1.3042
 8480SOL     OW29031   6.330   5.573   0.407  0.4621  0.3195  0.0602
 8480SOL    HW129032   6.302   5.528   0.486 -2.6668  0.7205 -0.7035
 8480SOL    HW229033   6.260   5.635   0.388  1.8907  1.4050 -2.1379
 8481SOL     OW29034   6.575   7.215   8.367 -0.2430 -0.6084 -0.4404
 8481SOL    HW129035   6.577   7.166   8.449  1.3915  0.1259 -0.0029
 8481SOL    HW229036   6.501   7.275   8.376  0.0063 -0.4354  0.5654
 8482SOL     OW29037   9.824   0.656   5.418  0.4093  0.4329  0.6123
 8482SOL    HW129038   9.782   0.739   5.394 -0.8161 -0.0740  0.9598
 8482SOL    HW229039   9.877   0.678   5.494  1.4112  1.2457 -0.2811
 8483SOL     OW29040   6.333   9.574   6.658 -0.0520  0.0803 -0.2401
 8483SOL    HW129041   6.342   9.605   6.568  1.4266  1.6350  0.3992
 8483SOL    HW229042   6.239   9.574   6.675 -0.4136 -0.9911 -2.0023
 8484SOL     OW29043   5.375   5.928   6.208 -0.6066 -0.1853 -0.2010
 8484SOL    HW129044   5.300   5.987   6.217 -2.3665 -2.0827 -1.4148
 8484SOL    HW229045   5.429   5.968   6.139 -2.0254 -0.1870 -1.3612
 8485SOL     OW29046   8.359   6.874  10.877 -0.6208 -0.4142  0.2184
 8485SOL    HW129047   8.269   6.904  10.893 -0.8528 -1.0517  0.1357
 8485SOL    HW229048   8.383   6.828  10.957 -0.2395  0.0508  0.3731
 8486SOL     OW29049   6.483   0.108   4.259 -0.2152  0.2159  0.6280
 8486SOL    HW129050   6.576   0.094   4.278 -0.5167 -1.0423  1.2804
 8486SOL    HW229051   6.443   0.127   4.343 -0.5940  0.5561  0.3790
 8487SOL     OW29052   1.825   6.288  10.466 -0.0301 -0.3827  0.1363
 8487SOL    HW129053   1.757   6.241  10.516  0.1056  2.7227  3.7175
 8487SOL    HW229054   1.907   6.256  10.502  0.2501 -0.7446 -0.8080
 8488SOL     OW29055   6.794   5.819   1.513 -0.3939  0.4331 -0.5391
 8488SOL    HW129056   6.835   5.873   1.581  0.3364  1.6916 -1.9391
 8488SOL    HW229057   6.864   5.799   1.452 -1.0950 -0.4644 -1.0835
 8489SOL     OW29058   2.686   3.004   7.624  0.2217  0.1990 -0.2683
 8489SOL    HW129059   2.705   2.977   7.714 -1.7999 -2.2045 -0.4546
 8489SOL    HW229060   2.632   3.082   7.633 -0.5794 -0.4425  0.6498
 8490SOL     OW29061   9.284   8.418   3.388 -0.0752  0.5763  0.3125
 8490SOL    HW129062   9.244   8.470   3.318 -2.9902 -0.9844  0.6778
 8490SOL    HW229063   9.366   8.385   3.349 -0.9335  0.8462 -1.8778
 8491SOL     OW29064   8.865   9.085   3.895 -0.4347 -0.0531 -0.5144
 8491SOL    HW129065   8.778   9.113   3.921 -0.1064  0.8543 -0.3578
 8491SOL    HW229066   8.924   9.148   3.936  0.4315 -1.7192  0.9260
 8492SOL     OW29067   4.074   8.007   7.754  0.2081  0.1952  0.3682
 8492SOL    HW129068   3.986   8.044   7.757  0.2782  0.6225 -1.6591
 8492SOL    HW229069   4.061   7.915   7.730  0.2103 -0.4178  2.5256
 8493SOL     OW29070   8.141   2.044   8.206  0.4276 -0.2797 -0.1047
 8493SOL    HW129071   8.177   2.064   8.292 -0.2843  0.9416 -0.0564
 8493SOL    HW229072   8.134   2.130   8.163  0.3944 -0.8230 -1.2330
 8494SOL     OW29073   6.395   2.094   9.458  0.3849  0.5013 -0.7082
 8494SOL    HW129074   6.451   2.072   9.384 -0.8467  0.5307 -1.6904
 8494SOL    HW229075   6.319   2.138   9.419  0.3742  1.8468  0.7121
 8495SOL     OW29076   6.352   5.770   4.927  0.1271  0.2221 -0.2561
 8495SOL    HW129077   6.382   5.720   5.003  2.0001 -0.4788 -1.3927
 8495SOL    HW229078   6.329   5.704   4.863 -0.5996  0.8163 -0.6233
 8496SOL     OW29079   7.644   1.253   2.170 -0.3494 -0.2671  0.4734
 8496SOL    HW129080   7.585   1.180   2.153  0.6793 -1.0795  0.3641
 8496SOL    HW229081   7.609   1.293   2.250 -0.2013 -1.6498  1.2572
 8497SOL     OW29082   3.499   2.553   5.087 -0.0690 -0.3811  0.0638
 8497SOL    HW129083   3.528   2.478   5.139  0.1767 -0.0229  0.4609
 8497SOL    HW229084   3.580   2.594   5.058 -0.1703  0.3496  0.7696
 8498SOL     OW29085  10.012   6.676   0.233 -0.1869  0.3925  0.2570
 8498SOL    HW129086  10.071   6.726   0.177  0.2591  0.7385  1.0242
 8498SOL    HW229087   9.925   6.711   0.214 -0.0590  0.3981 -0.3293
 8499SOL     OW29088  10.979  10.346   0.843  0.1141  0.3537  0.1996
 8499SOL    HW129089  10.977  10.412   0.913 -1.1039 -0.9134  1.4442
 8499SOL    HW229090  10.888  10.319   0.834  0.4059 -0.2255 -1.2089
 8500SOL     OW29091   7.909   3.620   5.120  0.8318 -0.1946  0.1192
 8500SOL    HW129092   7.984   3.584   5.072  0.5441 -0.0122 -0.4859
 8500SOL    HW229093   7.888   3.554   5.185  0.4000 -1.0890 -0.8882
 8501SOL     OW29094   9.050   6.244  10.050  0.4079 -0.4231  0.9381
 8501SOL    HW129095   9.021   6.326  10.088 -0.6576 -0.7225  0.7923
 8501SOL    HW229096   9.012   6.176  10.106  1.4743 -0.8266  1.2024
 8502SOL     OW29097   1.060   5.247   0.231  0.1977 -0.2851 -0.2050
 8502SOL    HW129098   1.083   5.286   0.146  1.8211 -1.6129 -0.4268
 8502SOL    HW229099   0.967   5.227   0.223  0.0419  0.6953 -1.2046
 8503SOL     OW29100  10.470  10.168   9.508 -0.3958 -0.0675  0.1166
 8503SOL    HW129101  10.421  10.088   9.487 -1.5015  0.8382 -0.8666
 8503SOL    HW229102  10.549  10.163   9.454 -0.5100 -0.4391 -0.0166
 8504SOL     OW29103   2.205   6.121   0.353  0.5586  0.5346  0.5546
 8504SOL    HW129104   2.287   6.171   0.354  1.1129 -0.2735  2.9689
 8504SOL    HW229105   2.208   6.072   0.271  2.0931  1.1599  0.2065
 8505SOL     OW29106   4.350  10.942   8.055 -0.4725  0.0131  0.4798
 8505SOL    HW129107   4.292  10.908   7.987 -0.6142  1.6310 -0.2470
 8505SOL    HW229108   4.416  10.993   8.008  1.1448 -1.1732  1.3572
 8506SOL     OW29109   3.926   5.557   0.024  0.5545  0.8957 -0.3435
 8506SOL    HW129110   3.882   5.641   0.030 -1.4648  0.0243 -1.8681
 8506SOL    HW229111   3.959   5.552  -0.066 -3.1721 -1.5498 -1.8337
 8507SOL     OW29112   6.681  10.887   4.461  0.0516  0.1164  0.6082
 8507SOL    HW129113   6.759  10.849   4.502  0.4753  1.5928  1.2395
 8507SOL    HW229114   6.714  10.964   4.414 -0.2110 -2.0619 -3.6077
 8508SOL     OW29115  10.995   8.522   5.353  0.4632  0.1145 -0.3093
 8508SOL    HW129116  11.075   8.551   5.396 -0.2939  1.9826 -0.0666
 8508SOL    HW229117  10.926   8.532   5.419 -0.3684  1.0224 -1.2591
 8509SOL     OW29118   6.107   7.179   5.207 -0.0224  0.6441 -0.3599
 8509SOL    HW129119   6.125   7.182   5.301  0.7771  0.3079 -0.4960
 8509SOL    HW229120   6.067   7.093   5.193  0.0461  0.6112 -0.3554
 8510SOL     OW29121   1.920   3.498   2.140  0.3802  0.1695 -0.1612
 8510SOL    HW129122   1.909   3.411   2.179  1.2797 -0.3695 -1.0444
 8510SOL    HW229123   1.921   3.482   2.045 -0.0062  1.2211 -0.3601
 8511SOL     OW29124  10.315   6.539   2.013 -0.1534 -0.5350  0.6265
 8511SOL    HW129125  10.233   6.587   2.001  0.5622  0.6554  0.3047
 8511SOL    HW229126  10.328   6.493   1.930  0.3758  0.7139 -0.0250
 8512SOL     OW29127   0.936   4.324   8.192  0.3454 -0.3790  0.5027
 8512SOL    HW129128   0.888   4.251   8.231  0.3589 -0.6539  0.0123
 8512SOL    HW229129   1.022   4.321   8.234 -0.0066  0.0232  1.2718
 8513SOL     OW29130   5.659   0.814   6.189  0.0516  0.2771  0.0304
 8513SOL    HW129131   5.642   0.880   6.256 -0.5522 -0.7090  0.8761
 8513SOL    HW229132   5.639   0.858   6.106 -1.7035  0.7364  0.6552
 8514SOL     OW29133   3.191   4.947   0.092 -0.2556  0.2338  0.1235
 8514SOL    HW129134   3.259   4.898   0.139  1.2258  1.2201 -0.8843
 8514SOL    HW229135   3.237   4.986   0.018 -1.3321  3.1324  0.8476
 8515SOL     OW29136   3.469   7.910   5.896 -0.5067 -0.5839  0.1741
 8515SOL    HW129137   3.490   7.829   5.942 -2.3215 -0.9289  0.4452
 8515SOL    HW229138   3.509   7.979   5.950  1.7239 -1.2761 -0.4693
 8516SOL     OW29139   5.586  10.517   0.356 -0.9806 -0.2273  0.2970
 8516SOL    HW129140   5.536  10.475   0.426 -2.7333  0.0096 -0.7344
 8516SOL    HW229141   5.613  10.601   0.393  1.0489 -1.4742  1.7820
 8517SOL     OW29142   1.814   4.528   3.684  0.1972 -0.0864  0.1744
 8517SOL    HW129143   1.895   4.479   3.695 -0.3899 -1.5306 -1.5181
 8517SOL    HW229144   1.828   4.580   3.605  0.3295  1.5490  1.2337
 8518SOL     OW29145   7.252  10.311   2.640  0.3455 -0.9799  0.1804
 8518SOL    HW129146   7.170  10.309   2.592 -0.3937  1.5261  1.1667
 8518SOL    HW229147   7.240  10.379   2.706  3.3066 -0.3025  0.1852
 8519SOL     OW29148   0.108   1.588   4.602  0.2230 -0.2916  0.0373
 8519SOL    HW129149   0.026   1.582   4.651  1.1963 -1.6533  1.6319
 8519SOL    HW229150   0.089   1.552   4.516 -0.4687 -2.3569  0.9816
 8520SOL     OW29151  10.018   7.235   9.841 -0.0716  0.2707  0.2228
 8520SOL    HW129152   9.957   7.287   9.790 -0.9746  0.1668  1.1574
 8520SOL    HW229153  10.039   7.290   9.917  0.6703  0.1320  0.1341
 8521SOL     OW29154   0.791   0.375   7.402 -0.0210 -0.1557  0.1940
 8521SOL    HW129155   0.710   0.338   7.370  0.0603 -0.3157  0.1757
 8521SOL    HW229156   0.860   0.335   7.349  0.2085 -1.2567  1.2882
 8522SOL     OW29157   5.696   2.201   2.934  0.5006 -0.1157 -0.8939
 8522SOL    HW129158   5.790   2.202   2.956  0.5933  0.7595 -1.3057
 8522SOL    HW229159   5.692   2.156   2.850  0.1815 -3.1413  0.5862
 8523SOL     OW29160   8.297   5.173   0.763  0.5376 -0.2132 -0.8198
 8523SOL    HW129161   8.210   5.140   0.782  0.8164 -0.4708  0.0708
 8523SOL    HW229162   8.347   5.097   0.734  1.5351 -0.9789  2.4298
 8524SOL     OW29163   4.587   1.559   4.534 -0.0767 -0.1691  0.4137
 8524SOL    HW129164   4.600   1.540   4.441 -1.5876 -1.6735  0.4616
 8524SOL    HW229165   4.622   1.648   4.546  2.1395 -0.7504 -1.0991
 8525SOL     OW29166   5.244  11.016  10.652  0.2700  0.2059 -0.1297
 8525SOL    HW129167   5.230  10.954  10.724 -0.5635 -1.0659 -1.3311
 8525SOL    HW229168   5.156  11.045  10.628  0.5551  0.7347 -0.5584
 8526SOL     OW29169   2.117   5.187   2.593  0.5754  0.2992 -0.0945
 8526SOL    HW129170   2.183   5.256   2.592 -1.3494  2.3188  1.2770
 8526SOL    HW229171   2.117   5.156   2.684 -1.9307  2.0852  0.6164
 8527SOL     OW29172   7.626   5.275   4.309 -0.1725  0.1542 -0.1940
 8527SOL    HW129173   7.593   5.201   4.360 -0.7498 -0.2975 -1.2010
 8527SOL    HW229174   7.549   5.331   4.297  0.6433  2.0133  2.2990
 8528SOL     OW29175   7.443   3.339   6.857  0.5508 -0.0464  0.2390
 8528SOL    HW129176   7.416   3.423   6.820  1.5548  0.6030  0.9303
 8528SOL    HW229177   7.518   3.360   6.912  1.4932 -1.5631 -0.4157
 8529SOL     OW29178  10.991   1.795   7.726  0.5823 -0.2759  0.5320
 8529SOL    HW129179  11.028   1.708   7.735 -0.3826 -0.6016  1.6168
 8529SOL    HW229180  11.047   1.851   7.780  0.4810 -0.4557  0.8255
 8530SOL     OW29181   3.831   3.317   0.256 -0.1297  0.1325  0.0718
 8530SOL    HW129182   3.737   3.299   0.253 -0.2060  0.1560  1.5442
 8530SOL    HW229183   3.873   3.231   0.249 -0.3168 -0.0148  0.6519
 8531SOL     OW29184   9.396   9.894   3.975  0.1592 -0.9230  0.0613
 8531SOL    HW129185   9.447   9.929   3.903  0.0690 -2.1393 -0.6143
 8531SOL    HW229186   9.310   9.874   3.937 -1.1315  1.7206  1.3158
 8532SOL     OW29187  10.477   1.744   9.098 -0.2579 -0.1097 -0.0151
 8532SOL    HW129188  10.460   1.766   9.190 -1.0942  0.3282 -0.2626
 8532SOL    HW229189  10.391   1.718   9.063 -0.0973  0.4435 -0.8602
 8533SOL     OW29190   8.828  10.838   9.765  0.6382  0.1473 -0.5377
 8533SOL    HW129191   8.750  10.887   9.790  0.3674 -0.5403 -0.0098
 8533SOL    HW229192   8.897  10.872   9.822  0.6162  0.3940 -0.6544
 8534SOL     OW29193   3.265   9.200   4.008 -0.2159  0.5630 -0.2876
 8534SOL    HW129194   3.287   9.274   4.063 -1.0222 -0.1530  1.0500
 8534SOL    HW229195   3.292   9.123   4.059 -2.6942 -0.2006  0.0139
 8535SOL     OW29196   1.130   3.202   0.151 -0.0946  0.4108  0.1111
 8535SOL    HW129197   1.153   3.114   0.124  0.2285  0.5710 -0.1465
 8535SOL    HW229198   1.076   3.191   0.230  1.4496  0.0516  1.1603
 8536SOL     OW29199   4.411   0.242   3.940 -0.3434 -0.1560 -0.3194
 8536SOL    HW129200   4.444   0.155   3.965 -0.4324 -0.2401 -0.4998
 8536SOL    HW229201   4.319   0.228   3.919 -0.8070  0.2616  1.2355
 8537SOL     OW29202  10.880   4.201  11.031  0.2319  0.1408 -0.0299
 8537SOL    HW129203  10.900   4.114  10.997 -0.0335  0.5323 -1.2634
 8537SOL    HW229204  10.936   4.211  11.107  2.5508  0.0596 -1.6391
 8538SOL     OW29205   6.239   4.601   6.953  0.3771  0.3816 -0.0821
 8538SOL    HW129206   6.240   4.517   6.998 -0.3285 -0.5483 -1.6920
 8538SOL    HW229207   6.180   4.656   7.004 -0.9004 -0.8311 -0.2002
 8539SOL     OW29208   6.302   3.302  10.663  0.1625 -0.5430 -0.0546
 8539SOL    HW129209   6.263   3.369  10.607 -0.0872 -0.1472  0.5817
 8539SOL    HW229210   6.396   3.309  10.648  0.0831 -0.5650 -0.5592
 8540SOL     OW29211   9.802   1.319   4.519 -0.9896 -0.0902  0.2264
 8540SOL    HW129212   9.744   1.247   4.493 -1.9653  0.0639  1.8380
 8540SOL    HW229213   9.743   1.385   4.556  0.1506  0.3726  1.2798
 8541SOL     OW29214  10.291   8.752   7.076 -0.0314  0.5411  0.1095
 8541SOL    HW129215  10.274   8.692   7.149 -2.3914  0.6090 -0.3205
 8541SOL    HW229216  10.297   8.838   7.117  2.4768  0.1877  0.6200
 8542SOL     OW29217   6.594   1.792   5.011 -0.1411 -0.2376 -0.4590
 8542SOL    HW129218   6.637   1.825   5.090 -0.2685 -0.1188 -0.4379
 8542SOL    HW229219   6.655   1.815   4.940  0.0537 -0.4988 -0.3774
 8543SOL     OW29220   3.765   5.832   7.227 -0.1915  0.2075 -0.2136
 8543SOL    HW129221   3.716   5.907   7.261 -0.7506  0.3963 -1.3650
 8543SOL    HW229222   3.790   5.858   7.139  2.4627  0.2969  0.5038
 8544SOL     OW29223   3.534   1.733  10.665  0.1168 -0.2430 -0.4624
 8544SOL    HW129224   3.567   1.724  10.754  1.5673  0.4051 -0.8970
 8544SOL    HW229225   3.443   1.760  10.675  0.7982  1.7473  0.8406
 8545SOL     OW29226   4.092   2.469   9.044  0.5468  0.2208 -0.1511
 8545SOL    HW129227   4.014   2.492   8.994  1.4726 -0.5724 -2.0596
 8545SOL    HW229228   4.062   2.404   9.108 -0.4820  0.4976 -0.3448
 8546SOL     OW29229   4.571   1.783  10.004 -0.8674 -0.4464 -0.6743
 8546SOL    HW129230   4.629   1.850  10.043 -0.2092 -0.9810 -0.7090
 8546SOL    HW229231   4.625   1.742   9.937 -1.8675  0.1894 -1.8933
 8547SOL     OW29232   7.075   7.790  10.701 -0.2237 -0.2162 -0.3156
 8547SOL    HW129233   7.156   7.758  10.661  0.5111  0.6555  0.4446
 8547SOL    HW229234   7.072   7.883  10.679 -0.5129 -0.0301  0.4717
 8548SOL     OW29235   2.271   1.318   9.500  0.6702  0.1047 -0.4488
 8548SOL    HW129236   2.285   1.224   9.506  2.2920  0.1116 -2.9151
 8548SOL    HW229237   2.186   1.327   9.456 -0.3332 -0.1261  1.3575
 8549SOL     OW29238   6.220   7.159   7.694 -0.9151  0.2113  0.1369
 8549SOL    HW129239   6.223   7.162   7.598  2.7246  0.0586  0.0991
 8549SOL    HW229240   6.280   7.088   7.717 -0.0189  1.6390  2.5260
 8550SOL     OW29241   3.917   4.019   8.678 -0.2207 -0.1084 -0.1607
 8550SOL    HW129242   4.000   3.993   8.718  0.5906  0.7923 -1.1760
 8550SOL    HW229243   3.931   4.110   8.653 -1.3994 -0.0562 -0.6800
 8551SOL     OW29244   7.073   1.341   1.432  0.1157 -0.5645  0.2027
 8551SOL    HW129245   7.055   1.337   1.526  1.6205  0.0065  0.5413
 8551SOL    HW229246   7.034   1.423   1.403  1.5628  0.3770  0.8095
 8552SOL     OW29247   1.524   5.751   8.269  0.0739  0.0673  0.1453
 8552SOL    HW129248   1.519   5.659   8.296 -0.1991 -0.0931 -0.4272
 8552SOL    HW229249   1.498   5.801   8.346 -0.0367 -0.3453  0.3787
 8553SOL     OW29250   9.768   6.773   0.386 -0.1495 -0.3768  0.1590
 8553SOL    HW129251   9.712   6.741   0.315 -2.8322  1.4751  1.2632
 8553SOL    HW229252   9.780   6.866   0.366 -0.5641  0.0658  1.8265
 8554SOL     OW29253   6.271  10.488   4.001  0.6326  0.4614 -0.5546
 8554SOL    HW129254   6.350  10.473   4.053  1.9461  0.7640 -2.4062
 8554SOL    HW229255   6.260  10.408   3.950 -0.8472  0.0274  0.3716
 8555SOL     OW29256   0.551   6.844   5.541 -0.1619 -0.0372  0.5853
 8555SOL    HW129257   0.603   6.891   5.476  1.6271 -0.6389  1.5311
 8555SOL    HW229258   0.540   6.756   5.504  0.9001 -0.3950  1.1062
 8556SOL     OW29259   7.837   6.804  10.347 -0.0204  0.7041 -0.2322
 8556SOL    HW129260   7.929   6.827  10.333 -0.2191  1.3459 -0.5326
 8556SOL    HW229261   7.805   6.779  10.260  0.1947 -0.7849  0.0880
 8557SOL     OW29262   2.598   7.215   9.618  0.3342 -0.3911 -0.1984
 8557SOL    HW129263   2.569   7.277   9.551 -0.4258 -1.0272 -0.4741
 8557SOL    HW229264   2.517   7.184   9.659  0.7673 -0.2747  0.7842
 8558SOL     OW29265   2.209   1.714   9.656 -0.1348 -0.2387 -0.4442
 8558SOL    HW129266   2.280   1.753   9.706  0.0762 -0.1325 -0.8206
 8558SOL    HW229267   2.216   1.755   9.569 -0.6201 -0.2644 -0.4980
 8559SOL     OW29268   8.539   7.432   0.562 -0.6668  0.7609 -0.4005
 8559SOL    HW129269   8.523   7.494   0.633 -0.7952  1.5277 -1.0860
 8559SOL    HW229270   8.460   7.377   0.559 -0.9333  1.1380 -0.3601
 8560SOL     OW29271   5.823   1.124  10.270 -0.2228 -0.0213  0.0131
 8560SOL    HW129272   5.825   1.132  10.175  1.2296  3.0752  0.1458
 8560SOL    HW229273   5.732   1.143  10.294 -0.2741  0.7634 -0.7358
 8561SOL     OW29274   5.571   1.793   7.140 -0.2128  0.0566  0.0697
 8561SOL    HW129275   5.482   1.797   7.174  0.2134  0.1132  1.2001
 8561SOL    HW229276   5.572   1.715   7.084 -0.5210 -0.9461  1.4076
 8562SOL     OW29277   8.684   4.602   4.808 -0.1822  0.0377  0.7821
 8562SOL    HW129278   8.601   4.641   4.837 -0.8576 -0.5338 -0.3480
 8562SOL    HW229279   8.687   4.517   4.851 -0.4432 -0.1639  0.4062
 8563SOL     OW29280   7.425   6.189   3.561  0.0210 -0.1037  0.2301
 8563SOL    HW129281   7.475   6.253   3.610  0.0414  0.2878 -0.2870
 8563SOL    HW229282   7.422   6.224   3.472  0.3144 -0.9783 -0.1408
 8564SOL     OW29283   2.027   2.572   3.136  0.1080  0.1006  0.0626
 8564SOL    HW129284   2.051   2.648   3.084 -1.9258  0.1091 -0.9772
 8564SOL    HW229285   2.062   2.590   3.223  0.7210  1.6400 -0.4719
 8565SOL     OW29286   2.992   1.451   3.585  0.2375 -0.0830 -0.5438
 8565SOL    HW129287   3.086   1.458   3.571  0.0877  1.6152 -0.9103
 8565SOL    HW229288   2.984   1.408   3.671  1.3853  1.0761  0.1809
 8566SOL     OW29289   5.169   4.625   2.618  0.6919 -0.0618 -0.5026
 8566SOL    HW129290   5.138   4.677   2.544  0.1161 -1.1380 -1.0467
 8566SOL    HW229291   5.253   4.590   2.589  0.8371  0.1470 -0.3361
 8567SOL     OW29292   9.633   8.351   7.201  0.2338  0.2849 -0.5444
 8567SOL    HW129293   9.567   8.285   7.224 -0.5931  0.5777 -1.9603
 8567SOL    HW229294   9.661   8.388   7.285 -0.0984 -1.0793  0.1982
 8568SOL     OW29295   9.618  10.577   5.821 -0.0169  0.2542  0.3459
 8568SOL    HW129296   9.692  10.595   5.765  0.3063 -0.5885  0.4885
 8568SOL    HW229297   9.653  10.522   5.891 -0.9957 -1.1785 -0.2344
 8569SOL     OW29298   1.163   5.230  10.622  0.0561 -0.0386 -0.5364
 8569SOL    HW129299   1.069   5.245  10.630  0.1302  0.4303 -0.5272
 8569SOL    HW229300   1.184   5.254  10.532  0.4047  1.2131 -0.1345
 8570SOL     OW29301  11.091   6.661   0.265 -0.1695  0.0365  0.5829
 8570SOL    HW129302  11.047   6.698   0.342 -0.4046 -0.5056  0.7178
 8570SOL    HW229303  11.037   6.688   0.191 -0.8176 -0.7328  0.7591
 8571SOL     OW29304  10.842   1.677   6.125  0.5047  0.4098  0.4160
 8571SOL    HW129305  10.794   1.754   6.156  0.5038  0.4523  0.3093
 8571SOL    HW229306  10.918   1.672   6.183  0.0056 -0.0752  1.0384
 8572SOL     OW29307   2.725   9.610   3.334  0.5189 -0.3944  0.3700
 8572SOL    HW129308   2.783   9.588   3.261 -0.4963  0.9155 -0.8851
 8572SOL    HW229309   2.648   9.555   3.320  0.0151  0.3832  0.0051
 8573SOL     OW29310   9.736   2.460   1.461  0.5471 -0.0680 -0.0111
 8573SOL    HW129311   9.726   2.412   1.379  1.8054  0.4203 -0.4652
 8573SOL    HW229312   9.788   2.537   1.438  3.0136 -1.1046  1.6206
 8574SOL     OW29313   6.170   5.673   6.264 -0.2386 -0.2333  0.3659
 8574SOL    HW129314   6.091   5.625   6.289  0.1948 -0.9038  0.4775
 8574SOL    HW229315   6.138   5.745   6.210 -0.9862 -0.1120  0.9447
 8575SOL     OW29316   1.420   8.146   8.453 -0.2144  0.4525  0.0796
 8575SOL    HW129317   1.345   8.126   8.508 -0.7088  2.7925  0.3661
 8575SOL    HW229318   1.473   8.206   8.506  1.2034 -0.1311 -0.6221
 8576SOL     OW29319   7.820   6.647   9.568 -0.2839  0.6057 -0.0691
 8576SOL    HW129320   7.755   6.631   9.499  0.9926  0.9609 -1.4223
 8576SOL    HW229321   7.772   6.637   9.650 -1.3447 -2.2857 -0.9240
 8577SOL     OW29322   3.623   8.325   9.504 -0.5404 -0.0254  0.5086
 8577SOL    HW129323   3.648   8.346   9.414 -0.2010  1.0552  0.8353
 8577SOL    HW229324   3.675   8.247   9.526 -0.3026 -0.0376 -0.0820
 8578SOL     OW29325   6.191   4.327   6.127  0.0890 -0.6981 -0.5959
 8578SOL    HW129326   6.271   4.380   6.133 -0.5542  0.1036  1.6479
 8578SOL    HW229327   6.218   4.239   6.153  0.0307 -0.1440  1.4769
 8579SOL     OW29328   2.781   8.708   1.185 -0.1024 -0.6155 -0.8311
 8579SOL    HW129329   2.782   8.615   1.206 -1.7502 -0.2013  1.4405
 8579SOL    HW229330   2.695   8.722   1.144  0.1575 -0.0851 -1.2165
 8580SOL     OW29331   2.412   8.210   9.218 -0.5406  0.5523 -0.3153
 8580SOL    HW129332   2.473   8.279   9.243 -2.2717  1.6532  1.1148
 8580SOL    HW229333   2.358   8.197   9.296 -1.6237 -0.9220 -1.2746
 8581SOL     OW29334   8.612   1.672   5.010  0.2320 -0.1085 -0.2039
 8581SOL    HW129335   8.546   1.716   4.956 -2.0862 -2.1390  0.7657
 8581SOL    HW229336   8.653   1.609   4.951  2.4539  2.0891 -1.1817
 8582SOL     OW29337   9.487   9.421   8.641  0.5740 -0.1073 -0.2596
 8582SOL    HW129338   9.436   9.422   8.560 -0.9406 -3.1526  0.4653
 8582SOL    HW229339   9.462   9.501   8.686  1.1167  1.4353 -2.5466
 8583SOL     OW29340   7.990   7.462   2.742  0.0405  0.5393  0.2605
 8583SOL    HW129341   8.000   7.515   2.663 -0.0298  1.0897  0.6219
 8583SOL    HW229342   8.056   7.496   2.802  1.5992 -1.2626 -0.2902
 8584SOL     OW29343   2.944   3.777  10.003  0.0009 -0.2152 -0.0319
 8584SOL    HW129344   3.009   3.803   9.938  1.2170  1.0845  1.6094
 8584SOL    HW229345   2.987   3.707  10.053 -1.5316 -2.3519 -1.5484
 8585SOL     OW29346   7.531   9.166   5.050  0.3549 -0.4414 -0.1603
 8585SOL    HW129347   7.568   9.239   5.001 -0.5052 -0.2237 -0.5030
 8585SOL    HW229348   7.518   9.097   4.986 -0.0126 -0.4434 -0.0882
 8586SOL     OW29349   2.848   8.961   6.298  0.6639  0.1001 -0.3163
 8586SOL    HW129350   2.939   8.978   6.322  1.2627 -0.6361 -1.9303
 8586SOL    HW229351   2.803   9.042   6.320  1.2479 -0.2020  2.4300
 8587SOL     OW29352  10.747   3.839   0.883 -0.6008 -0.7262 -0.1960
 8587SOL    HW129353  10.653   3.848   0.865 -0.5098 -3.3126 -2.6697
 8587SOL    HW229354  10.754   3.757   0.933  0.1394  1.3776  3.5454
 8588SOL     OW29355   3.845   9.127   4.887  0.0960  0.0133 -0.1369
 8588SOL    HW129356   3.767   9.084   4.851  0.0144 -0.3029  0.4142
 8588SOL    HW229357   3.835   9.122   4.982  1.0259 -0.4850 -0.0442
 8589SOL     OW29358   9.725  10.798   4.750 -0.2622  0.9239  0.1553
 8589SOL    HW129359   9.777  10.739   4.805 -0.9060 -0.0048 -0.2036
 8589SOL    HW229360   9.734  10.763   4.662 -1.7964  0.4909  0.1425
 8590SOL     OW29361   2.100   0.201   8.997  0.3881 -0.6446  0.1623
 8590SOL    HW129362   2.056   0.270   8.947  1.2139  1.9993  2.8368
 8590SOL    HW229363   2.030   0.149   9.034 -0.4299  0.8579  0.8170
 8591SOL     OW29364   9.186   7.307   0.297  0.6089  0.0271  0.6202
 8591SOL    HW129365   9.118   7.241   0.287 -0.8144  1.5290  0.0291
 8591SOL    HW229366   9.158   7.380   0.242  2.7110  0.7029  0.3484
 8592SOL     OW29367  10.571   3.938   7.199 -0.3888  0.1891  0.0331
 8592SOL    HW129368  10.476   3.940   7.185 -0.3939 -3.1100 -1.4727
 8592SOL    HW229369  10.607   3.986   7.124 -0.7949  2.3760  1.1596
 8593SOL     OW29370   1.498  10.332  11.056 -0.6108 -0.0401 -0.2014
 8593SOL    HW129371   1.579  10.361  11.098 -0.1384 -0.1632 -1.0027
 8593SOL    HW229372   1.478  10.401  10.992 -0.9871 -0.1435 -0.1976
 8594SOL     OW29373   3.169   0.329   7.759 -0.4424 -0.0394 -0.7923
 8594SOL    HW129374   3.105   0.274   7.713 -0.4033 -1.4240  0.7261
 8594SOL    HW229375   3.136   0.333   7.849 -0.3396  2.3196 -0.8068
 8595SOL     OW29376  10.314   0.456   5.210 -0.3985  0.5967  0.0754
 8595SOL    HW129377  10.383   0.406   5.166 -1.3913  0.0564 -0.9006
 8595SOL    HW229378  10.355   0.540   5.231  0.9715 -0.2049  0.7600
 8596SOL     OW29379   4.073   8.424   5.768 -0.0850 -0.6354  0.2944
 8596SOL    HW129380   4.001   8.484   5.788 -0.4869 -1.2003  0.5605
 8596SOL    HW229381   4.131   8.430   5.845  0.1731 -0.1617  0.0687
 8597SOL     OW29382   8.085   8.371   4.211 -0.3970  0.1065  0.4026
 8597SOL    HW129383   8.085   8.428   4.135  0.3562  0.6208  0.7840
 8597SOL    HW229384   8.130   8.291   4.182 -1.7855 -0.4801 -0.2449
 8598SOL     OW29385   7.624   8.228   9.334 -0.0608 -0.0300  0.0293
 8598SOL    HW129386   7.598   8.153   9.280  1.3816 -0.2629 -0.3918
 8598SOL    HW229387   7.703   8.262   9.291 -0.4368  1.4707  0.4623
 8599SOL     OW29388   1.833   4.632   7.567  0.2458 -0.5249  0.0941
 8599SOL    HW129389   1.768   4.686   7.611  1.4933  1.6584 -0.5369
 8599SOL    HW229390   1.819   4.649   7.473  2.9124  1.7204 -0.0406
 8600SOL     OW29391   7.489   8.867   1.770  0.2745  0.1869 -0.0830
 8600SOL    HW129392   7.537   8.941   1.807 -1.9170  1.4826  0.3531
 8600SOL    HW229393   7.466   8.895   1.681  2.1669 -1.3365 -1.1245
 8601SOL     OW29394   5.032   6.709   3.120  0.2656  0.4118  0.3209
 8601SOL    HW129395   5.035   6.665   3.035  0.4474  1.8030 -0.4231
 8601SOL    HW229396   4.939   6.707   3.144  0.2610 -0.2948  0.2558
 8602SOL     OW29397   7.512   0.014   7.861  0.1008 -0.2935  0.3116
 8602SOL    HW129398   7.558   0.035   7.942  0.6402 -0.2649 -0.0001
 8602SOL    HW229399   7.581  -0.007   7.798 -0.3032 -0.1634 -0.1860
 8603SOL     OW29400   8.607   2.694   8.582  0.5264 -0.4421  0.8124
 8603SOL    HW129401   8.640   2.641   8.654  0.3695  0.4231  1.5435
 8603SOL    HW229402   8.625   2.784   8.608  0.4995 -0.1113 -0.2547
 8604SOL     OW29403   8.728   0.278   2.901 -0.0592  0.0820 -0.6093
 8604SOL    HW129404   8.789   0.331   2.953  0.1508  0.7130 -1.4758
 8604SOL    HW229405   8.721   0.324   2.818 -0.8384 -0.6046 -0.9399
 8605SOL     OW29406   9.981   2.605   4.489  0.1955 -0.1507  0.0791
 8605SOL    HW129407   9.891   2.578   4.508  0.4243 -0.6951  0.4158
 8605SOL    HW229408   9.972   2.672   4.421 -0.4997  0.2503  0.5550
 8606SOL     OW29409   5.143   1.136   1.903  0.0580  0.4817 -0.1633
 8606SOL    HW129410   5.229   1.107   1.873 -0.7537 -0.6750 -1.5247
 8606SOL    HW229411   5.099   1.165   1.823 -1.1326  0.1872  0.3660
 8607SOL     OW29412   0.602  10.738   2.683 -0.0528 -0.1295  0.2869
 8607SOL    HW129413   0.617  10.708   2.594  0.8961 -1.1607  0.7747
 8607SOL    HW229414   0.681  10.789   2.705 -0.4753  0.4994  0.3978
 8608SOL     OW29415   2.825  11.082   6.014  0.1954 -0.1135 -0.3858
 8608SOL    HW129416   2.749  11.125   5.973  0.9670 -0.4889 -2.3058
 8608SOL    HW229417   2.888  11.153   6.027  0.2543 -0.1298 -0.5845
 8609SOL     OW29418   7.215   3.104   6.241 -0.0388 -0.5063  0.0747
 8609SOL    HW129419   7.278   3.036   6.263  1.1215  0.1557 -1.0865
 8609SOL    HW229420   7.220   3.112   6.146  0.2901  1.5990  0.2331
 8610SOL     OW29421   9.721   4.494   1.277 -0.6155 -0.3123  0.1269
 8610SOL    HW129422   9.775   4.429   1.233  1.5426  1.4331  0.0102
 8610SOL    HW229423   9.707   4.460   1.365  0.3449 -1.0092  0.0183
 8611SOL     OW29424   3.415   1.473   6.811  0.2089 -0.4900 -0.4151
 8611SOL    HW129425   3.503   1.508   6.828  1.1627 -0.5327 -4.3228
 8611SOL    HW229426   3.413   1.390   6.859  0.5127  1.4313  3.2974
 8612SOL     OW29427   8.490   7.548   6.822 -0.3560  0.1708  0.8275
 8612SOL    HW129428   8.510   7.466   6.776 -4.0457  0.3586 -1.5476
 8612SOL    HW229429   8.453   7.520   6.905  0.9065 -0.4003  1.2286
 8613SOL     OW29430   0.830   8.323   6.459  0.0565 -0.6503 -0.0638
 8613SOL    HW129431   0.783   8.249   6.496 -0.9861 -0.5008 -1.0280
 8613SOL    HW229432   0.805   8.398   6.514 -0.1242 -0.7330 -0.0357
 8614SOL     OW29433   3.705   8.223   7.949  0.5529  0.3144  0.8615
 8614SOL    HW129434   3.727   8.250   7.860  0.9269  0.2031  0.9183
 8614SOL    HW229435   3.696   8.305   7.997  2.3237  0.3670  1.1898
 8615SOL     OW29436   6.798   7.229  10.674 -0.0538 -0.5133  0.2210
 8615SOL    HW129437   6.858   7.298  10.647  0.8972 -0.8755  1.3372
 8615SOL    HW229438   6.724   7.275  10.713 -0.6416 -0.0554 -1.3799
 8616SOL     OW29439   8.262  10.394   9.985  0.4967 -0.1355 -0.3106
 8616SOL    HW129440   8.232  10.485   9.996 -1.6667 -0.7813 -0.3919
 8616SOL    HW229441   8.271  10.383   9.891  0.3861 -0.1113 -0.3247
 8617SOL     OW29442   7.540  10.695   4.335 -0.0487  0.0735 -0.2394
 8617SOL    HW129443   7.610  10.739   4.286 -0.2375  1.5595  0.7649
 8617SOL    HW229444   7.459  10.732   4.300 -0.2147  0.5516  0.6327
 8618SOL     OW29445   4.453   7.313   4.705  0.3989 -0.6995  0.0038
 8618SOL    HW129446   4.520   7.316   4.773  0.5386  1.3288 -0.1732
 8618SOL    HW229447   4.448   7.402   4.671 -0.9852 -1.2432 -1.3781
 8619SOL     OW29448   8.892   7.236   1.451 -0.4237 -0.2075  0.2299
 8619SOL    HW129449   8.871   7.326   1.477 -0.5019  0.2303 -1.2800
 8619SOL    HW229450   8.975   7.243   1.403 -0.5101 -0.9126 -0.0350
 8620SOL     OW29451   7.124   8.051   3.302 -0.1373 -0.4423 -0.5558
 8620SOL    HW129452   7.045   8.025   3.349  0.7350  0.2855  1.3890
 8620SOL    HW229453   7.184   7.976   3.313 -0.9598 -1.6600 -3.2932
 8621SOL     OW29454   3.782   9.118   6.182 -0.5275  0.1050  0.2314
 8621SOL    HW129455   3.858   9.111   6.241 -0.4425  0.0887  0.1208
 8621SOL    HW229456   3.757   9.028   6.164  0.2964  0.0673 -0.8449
 8622SOL     OW29457   8.923   8.709   4.346 -0.1470 -0.0051 -0.0603
 8622SOL    HW129458   9.013   8.706   4.315 -0.4929 -1.6486 -1.0374
 8622SOL    HW229459   8.923   8.778   4.413  1.9352 -0.3273  0.3523
 8623SOL     OW29460   9.430   3.931   3.997  0.4444 -0.4533  0.0983
 8623SOL    HW129461   9.357   3.891   3.948  0.1736 -0.6932  0.6905
 8623SOL    HW229462   9.439   3.876   4.075  1.4192 -0.5648 -0.0845
 8624SOL     OW29463   1.243  10.790   1.380 -0.0834 -0.4975  0.1693
 8624SOL    HW129464   1.310  10.741   1.428 -0.4254  0.2344  1.4301
 8624SOL    HW229465   1.214  10.857   1.441 -0.4460  0.5594 -1.1200
 8625SOL     OW29466   7.520  10.636   9.512  0.2255  0.5566  0.4167
 8625SOL    HW129467   7.531  10.682   9.595  2.9970  0.0236  0.4361
 8625SOL    HW229468   7.513  10.706   9.447 -0.6600  0.9725  0.9469
 8626SOL     OW29469   4.564   1.831   6.299  0.2030  0.0987 -0.4613
 8626SOL    HW129470   4.581   1.897   6.232  0.6206 -0.6078 -1.0591
 8626SOL    HW229471   4.629   1.762   6.283 -0.5389 -0.6919 -0.1646
 8627SOL     OW29472   2.136   4.233  10.707 -0.3083 -0.1855 -0.3498
 8627SOL    HW129473   2.058   4.270  10.747 -0.1174 -0.3727  0.2010
 8627SOL    HW229474   2.103   4.176  10.638 -0.6252  0.4164 -0.7018
 8628SOL     OW29475  10.601  10.596   1.583  0.2122  0.1785 -0.4900
 8628SOL    HW129476  10.539  10.535   1.624  0.4337 -0.9341 -1.7351
 8628SOL    HW229477  10.581  10.681   1.622 -0.9193 -0.4729  0.4079
 8629SOL     OW29478   4.785   6.848   0.747  0.0794  0.2055  0.1744
 8629SOL    HW129479   4.731   6.779   0.786  0.2681 -0.0038  0.0739
 8629SOL    HW229480   4.860   6.801   0.710  0.0567  0.4321 -0.1669
 8630SOL     OW29481   4.843   2.525   1.480  0.1370  0.2882  0.4155
 8630SOL    HW129482   4.778   2.569   1.535 -0.1980 -0.2114  0.4294
 8630SOL    HW229483   4.794   2.495   1.404 -0.1851 -2.1124  1.4754
 8631SOL     OW29484   6.115   2.858   7.882 -0.0170 -0.1096 -0.1365
 8631SOL    HW129485   6.078   2.818   7.962  1.0918 -0.5800  0.1601
 8631SOL    HW229486   6.086   2.800   7.811 -0.5749  0.0204 -0.0208
 8632SOL     OW29487  10.518   1.052   3.421 -0.1740  0.3456 -0.1979
 8632SOL    HW129488  10.440   1.003   3.447  0.6224 -1.4911 -1.0432
 8632SOL    HW229489  10.508   1.065   3.327  0.0767  1.0027 -0.1425
 8633SOL     OW29490   6.741   4.494   1.065  0.2440 -0.0917  0.1686
 8633SOL    HW129491   6.736   4.425   0.999 -0.6159 -0.8959  1.0389
 8633SOL    HW229492   6.831   4.491   1.096  0.5557  0.0509 -0.7027
 8634SOL     OW29493   3.289   1.130   1.446 -0.2025 -0.1963  0.6449
 8634SOL    HW129494   3.341   1.179   1.511 -0.9584 -0.6410  1.6151
 8634SOL    HW229495   3.207   1.179   1.440 -0.7835 -1.0544  1.2762
 8635SOL     OW29496   8.509   5.627   7.616  0.2881  0.2865  0.2011
 8635SOL    HW129497   8.531   5.614   7.524  2.9868 -1.6486  1.0030
 8635SOL    HW229498   8.556   5.707   7.640  0.3356  0.2828  0.1220
 8636SOL     OW29499   6.967   6.644   1.766 -0.0799 -0.3059 -0.0396
 8636SOL    HW129500   7.027   6.711   1.798 -0.1171  0.3674 -1.3244
 8636SOL    HW229501   6.955   6.665   1.673 -1.4478 -1.0780 -0.0565
 8637SOL     OW29502   3.148   1.274   5.443  0.2664 -0.0804 -0.1769
 8637SOL    HW129503   3.061   1.276   5.404  0.1645  0.7341  0.0921
 8637SOL    HW229504   3.173   1.365   5.453  1.8775 -0.2844 -1.8369
 8638SOL     OW29505   5.841   6.445   5.967  0.1696 -0.1201  0.0518
 8638SOL    HW129506   5.897   6.519   5.992 -1.7522  1.3464  0.2672
 8638SOL    HW229507   5.886   6.405   5.892  1.1424  1.4686 -0.2542
 8639SOL     OW29508   8.284   6.267   3.562 -0.0750  0.2564 -0.3465
 8639SOL    HW129509   8.197   6.281   3.526 -0.1895 -0.1880 -0.2566
 8639SOL    HW229510   8.272   6.274   3.657  0.4284  2.5127 -0.4096
 8640SOL     OW29511   0.072   7.018   7.938  0.4016 -0.0463  0.0007
 8640SOL    HW129512   0.079   7.055   8.026 -2.1265 -1.6953  1.0130
 8640SOL    HW229513  -0.001   7.065   7.897  1.5363  0.6912 -1.2666
 8641SOL     OW29514   2.608  10.235   0.595  0.6068  0.2256  0.0603
 8641SOL    HW129515   2.656  10.175   0.652  0.8454  1.5143  1.2712
 8641SOL    HW229516   2.677  10.280   0.546  0.4579 -0.1032 -0.4525
 8642SOL     OW29517   6.892   3.680  10.643 -0.3256 -0.3477  0.1917
 8642SOL    HW129518   6.978   3.710  10.673 -1.9698  0.9394  4.4525
 8642SOL    HW229519   6.844   3.760  10.625 -1.4572 -0.8729  0.7509
 8643SOL     OW29520   4.384  10.201   9.811 -0.8115 -0.1795  0.0561
 8643SOL    HW129521   4.462  10.217   9.864 -0.5918 -0.8813 -0.0516
 8643SOL    HW229522   4.399  10.116   9.771 -2.0584 -0.7967  0.8294
 8644SOL     OW29523   7.607   6.146   6.349  0.1256 -0.7364 -0.9742
 8644SOL    HW129524   7.603   6.108   6.438  2.1901 -0.8357 -0.8722
 8644SOL    HW229525   7.599   6.070   6.291  0.1024 -0.8379 -0.8402
 8645SOL     OW29526   0.446   4.356   1.208  0.4541  0.0865 -0.5106
 8645SOL    HW129527   0.351   4.348   1.197  0.3124  1.1863 -0.2305
 8645SOL    HW229528   0.471   4.424   1.146  1.0747 -0.2103 -0.5913
 8646SOL     OW29529   8.424   5.622   5.351 -0.3946  0.0039 -0.1173
 8646SOL    HW129530   8.353   5.574   5.392  0.5398 -0.5030  0.9733
 8646SOL    HW229531   8.490   5.631   5.420  0.6478  0.3510 -1.1224
 8647SOL     OW29532   9.401   9.142   4.830  0.8579 -0.1969 -0.1413
 8647SOL    HW129533   9.398   9.237   4.840 -1.1070 -0.2941  0.6919
 8647SOL    HW229534   9.360   9.125   4.745 -0.0701 -0.3495  0.3252
 8648SOL     OW29535   2.511   8.111   4.019 -0.1445 -0.0039  0.3525
 8648SOL    HW129536   2.560   8.184   3.981  1.0309 -0.5972  0.6615
 8648SOL    HW229537   2.421   8.141   4.021  0.2695  1.3213  0.1912
 8649SOL     OW29538   6.308   7.342   0.099 -0.2026  0.4359 -0.5661
 8649SOL    HW129539   6.226   7.310   0.136 -0.1342 -0.8407 -1.4561
 8649SOL    HW229540   6.352   7.264   0.066  0.8875  1.2255 -1.0549
 8650SOL     OW29541   4.897   2.129   0.482 -0.1252  0.2964 -0.6940
 8650SOL    HW129542   4.872   2.080   0.560  1.5775 -3.1128 -2.0792
 8650SOL    HW229543   4.990   2.147   0.493 -0.3292  1.7071 -1.0395
 8651SOL     OW29544   2.423   7.288   2.688  0.2935  0.4760  0.1348
 8651SOL    HW129545   2.457   7.318   2.603  1.4496  1.0451  0.7675
 8651SOL    HW229546   2.356   7.352   2.711  0.3201  0.5995 -0.1188
 8652SOL     OW29547   4.230   6.294   6.763 -0.0465 -0.2338 -0.7671
 8652SOL    HW129548   4.293   6.365   6.769 -0.5575  0.2307 -0.8633
 8652SOL    HW229549   4.213   6.285   6.669  0.2352 -0.6807 -0.7798
 8653SOL     OW29550   2.227   9.628   0.343 -0.3971 -0.4289  0.5017
 8653SOL    HW129551   2.147   9.620   0.394 -0.2710  0.7939  0.9418
 8653SOL    HW229552   2.247   9.539   0.315 -2.7863 -0.5698 -1.0220
 8654SOL     OW29553   2.949   2.772   5.079  0.3468  0.4054 -0.2657
 8654SOL    HW129554   3.010   2.837   5.112 -0.9830  1.0409  1.0590
 8654SOL    HW229555   2.994   2.732   5.004  2.0520  1.3364  0.2174
 8655SOL     OW29556   5.022   3.528   7.300  0.3258  0.0201  0.1232
 8655SOL    HW129557   4.937   3.511   7.340  0.9725  0.2112  1.6383
 8655SOL    HW229558   5.026   3.468   7.226 -1.2032  0.1582 -0.0979
 8656SOL     OW29559   7.666   6.184   2.010 -0.7625  0.2266 -0.8453
 8656SOL    HW129560   7.681   6.172   1.916 -2.9592  2.5105 -1.5830
 8656SOL    HW229561   7.616   6.106   2.037  0.3677 -0.7222 -1.3788
 8657SOL     OW29562   4.926   9.120   8.856  0.1491 -0.0494 -0.5216
 8657SOL    HW129563   4.988   9.152   8.921  0.3511  0.4105 -0.9323
 8657SOL    HW229564   4.845   9.169   8.874 -0.3524 -1.2027  0.5075
 8658SOL     OW29565  10.759   7.505   7.064 -0.6663  0.3095 -0.4763
 8658SOL    HW129566  10.771   7.424   7.014 -0.2478 -0.0142  0.1294
 8658SOL    HW229567  10.809   7.490   7.145  1.7414  2.2167 -1.4794
 8659SOL     OW29568   6.956   7.524   5.098 -1.1177 -0.2361  0.4017
 8659SOL    HW129569   6.997   7.609   5.115  2.9668 -1.7054 -1.1137
 8659SOL    HW229570   6.976   7.505   5.006 -1.3114 -3.1084  0.8636
 8660SOL     OW29571   4.461   0.274   7.839 -0.0452  0.1604 -0.2492
 8660SOL    HW129572   4.518   0.305   7.910 -0.1669  0.0075 -0.0824
 8660SOL    HW229573   4.484   0.181   7.829 -0.7659 -0.0916  0.3110
 8661SOL     OW29574   5.191   2.901   1.857 -0.2296  0.6145  0.2676
 8661SOL    HW129575   5.159   2.871   1.771  3.2913 -3.2492 -0.0291
 8661SOL    HW229576   5.146   2.845   1.920  0.3582  0.3762  0.4869
 8662SOL     OW29577   9.581   9.959   3.751 -0.1918 -0.7879  0.1838
 8662SOL    HW129578   9.611  10.038   3.705 -1.6077  1.2940  2.5731
 8662SOL    HW229579   9.661   9.909   3.768  1.1159  1.3631  0.6807
 8663SOL     OW29580   2.771   7.491   9.540  0.1148  0.2181 -0.5694
 8663SOL    HW129581   2.794   7.542   9.462  0.2344  2.9558  1.1437
 8663SOL    HW229582   2.717   7.549   9.593 -2.7352 -2.6565  0.0406
 8664SOL     OW29583   7.309   1.651   5.834  0.4001  0.0562 -0.0525
 8664SOL    HW129584   7.269   1.690   5.757  0.3100  0.4450  0.1885
 8664SOL    HW229585   7.320   1.724   5.895  0.0736 -0.3206  0.4694
 8665SOL     OW29586   3.480   0.477   2.751  0.5056 -0.2250  0.1269
 8665SOL    HW129587   3.488   0.398   2.805  1.5835 -0.5622 -0.5126
 8665SOL    HW229588   3.385   0.491   2.744  0.1492 -2.8592 -1.7486
 8666SOL     OW29589   9.765   9.916   4.337 -0.3424  0.0330 -0.0353
 8666SOL    HW129590   9.715   9.944   4.414 -1.2711 -1.6192  0.0014
 8666SOL    HW229591   9.711   9.942   4.263 -0.0585  0.4528 -0.1034
 8667SOL     OW29592   9.811  10.093   1.288  0.5605  0.3517 -0.2554
 8667SOL    HW129593   9.859  10.095   1.371 -0.5161  0.5783  0.3859
 8667SOL    HW229594   9.796  10.186   1.268  1.3793  0.3208 -1.0514
 8668SOL     OW29595   7.333   4.807   7.321  0.4932 -0.0185 -0.3236
 8668SOL    HW129596   7.370   4.814   7.409  0.4764  1.9963 -0.4258
 8668SOL    HW229597   7.359   4.720   7.290  2.7693  0.2558  0.6598
 8669SOL     OW29598   8.182   4.949  10.200 -0.0381  0.2728  0.3153
 8669SOL    HW129599   8.214   4.884  10.263 -0.6977 -0.1221  0.2537
 8669SOL    HW229600   8.089   4.956  10.219  0.0638  1.3787  0.4695
 8670SOL     OW29601   6.916   8.334   2.119  0.1395  0.6553  0.3723
 8670SOL    HW129602   6.899   8.424   2.089  0.6142  1.2525  1.8241
 8670SOL    HW229603   7.011   8.325   2.116  0.0384 -0.2866 -1.0317
 8671SOL     OW29604   9.991  10.032   9.372  0.4750  0.4921 -0.2287
 8671SOL    HW129605   9.960  10.121   9.357 -2.8966 -0.6916 -1.3731
 8671SOL    HW229606   9.978   9.988   9.288 -1.5911 -1.9223  1.2048
 8672SOL     OW29607   5.039   4.107   6.741  0.4989 -0.4590 -0.1089
 8672SOL    HW129608   5.012   4.138   6.827  0.1066  0.8499 -0.6739
 8672SOL    HW229609   5.133   4.127   6.738  0.1278  1.4242 -0.7198
 8673SOL     OW29610   1.286   0.364   6.814  0.0443  0.5120 -0.2771
 8673SOL    HW129611   1.355   0.381   6.878  1.7380 -0.3437 -1.7989
 8673SOL    HW229612   1.214   0.328   6.865  1.3469 -0.1586  1.1650
 8674SOL     OW29613   1.350   8.624  10.451 -0.0198  0.4873 -0.3903
 8674SOL    HW129614   1.334   8.568  10.527  3.1063  0.4822  0.4054
 8674SOL    HW229615   1.315   8.575  10.377 -1.3989 -0.3992  0.7895
 8675SOL     OW29616   1.403   5.345   9.102 -0.2861  0.6197  0.2859
 8675SOL    HW129617   1.348   5.393   9.165  1.4658  0.2981  2.1862
 8675SOL    HW229618   1.481   5.399   9.093  1.4611 -1.4156  1.9834
 8676SOL     OW29619   8.393   6.559   6.394 -0.1959  0.2292  0.0161
 8676SOL    HW129620   8.374   6.467   6.411 -2.0096  0.1965 -1.7719
 8676SOL    HW229621   8.483   6.572   6.424 -0.6232 -1.5640  2.2748
 8677SOL     OW29622  10.437   1.044   2.557 -0.3512  0.8136 -0.3488
 8677SOL    HW129623  10.370   1.088   2.608 -2.0049  0.5092 -2.1580
 8677SOL    HW229624  10.395   0.963   2.527  1.4751 -0.3445  0.0386
 8678SOL     OW29625   2.363   1.414   5.570  0.6703  0.0945 -0.3241
 8678SOL    HW129626   2.394   1.419   5.480  1.1224 -0.7179 -0.2233
 8678SOL    HW229627   2.420   1.350   5.612  0.0846  0.0189  0.3860
 8679SOL     OW29628   6.209   2.084   0.749 -0.3864 -0.0497 -0.3684
 8679SOL    HW129629   6.303   2.066   0.748 -0.0040  1.7612 -0.9027
 8679SOL    HW229630   6.198   2.154   0.814 -1.3958 -0.3571 -0.1904
 8680SOL     OW29631   4.984   8.047  10.674 -0.2054 -0.1668 -0.3694
 8680SOL    HW129632   4.983   7.951  10.670 -0.2899 -0.1888  0.1354
 8680SOL    HW229633   5.068   8.069  10.713 -0.6903 -0.0928  0.6836
 8681SOL     OW29634   7.382   9.802   0.525 -0.1621 -0.4064  0.0532
 8681SOL    HW129635   7.378   9.804   0.430  1.9994 -0.4864 -0.0692
 8681SOL    HW229636   7.295   9.773   0.552 -0.2352 -2.2208 -1.9467
 8682SOL     OW29637  10.081   6.838   1.176  0.3198 -0.0463  0.1205
 8682SOL    HW129638  10.097   6.762   1.120  1.3763 -0.6440  1.1922
 8682SOL    HW229639  10.075   6.801   1.265 -0.9251  0.9224  0.4601
 8683SOL     OW29640  10.708   8.835   8.920  0.1497  0.0157  0.1452
 8683SOL    HW129641  10.663   8.762   8.878  0.3661  0.1829 -0.3993
 8683SOL    HW229642  10.647   8.908   8.914  0.6050  0.3305 -0.8967
 8684SOL     OW29643   8.608   4.544   7.192 -0.1833 -0.1127 -0.2496
 8684SOL    HW129644   8.654   4.496   7.123 -2.2215  0.3528 -2.0218
 8684SOL    HW229645   8.632   4.635   7.179 -0.6213 -0.0153 -0.3863
 8685SOL     OW29646   5.942   1.402   1.885 -0.5130  0.9894  0.1067
 8685SOL    HW129647   5.885   1.472   1.852 -1.9279  0.3853  1.1662
 8685SOL    HW229648   5.886   1.353   1.946  0.7408 -0.4819  0.1116
 8686SOL     OW29649   5.797   8.215  10.679  0.2876 -0.0790  0.3377
 8686SOL    HW129650   5.791   8.306  10.647  0.0440 -0.4540 -0.7433
 8686SOL    HW229651   5.867   8.176  10.627  0.4685 -0.4826  0.8778
 8687SOL     OW29652   1.586   8.377   1.210  0.7567  0.4241  0.5551
 8687SOL    HW129653   1.501   8.380   1.253  1.3124  0.7915  1.6600
 8687SOL    HW229654   1.568   8.339   1.124 -0.6768  1.4441  0.3701
 8688SOL     OW29655   7.313   0.984   9.541 -0.0743  0.0315 -0.2974
 8688SOL    HW129656   7.272   0.898   9.530 -0.2872 -0.3947  2.7696
 8688SOL    HW229657   7.298   1.006   9.633  1.9951  2.3051 -0.3881
 8689SOL     OW29658   8.847   4.782  11.005  0.0688  0.3342 -0.0726
 8689SOL    HW129659   8.823   4.853  10.947  0.2929  1.3286  1.0120
 8689SOL    HW229660   8.924   4.815  11.052  0.4534 -0.8018  0.1301
 8690SOL     OW29661   0.299   8.407   6.001  0.2900  0.4627 -0.0560
 8690SOL    HW129662   0.248   8.375   5.927  0.5022  0.2011 -0.0951
 8690SOL    HW229663   0.249   8.481   6.036  0.4868  0.9593 -0.8182
 8691SOL     OW29664   0.634   2.180   4.723  0.1593  0.1082  0.0679
 8691SOL    HW129665   0.634   2.259   4.669  3.0690 -0.3771 -0.7806
 8691SOL    HW229666   0.716   2.185   4.773  0.1331 -2.1009  0.4174
 8692SOL     OW29667   4.299   4.861   1.818 -0.3495 -0.0487 -0.0047
 8692SOL    HW129668   4.294   4.889   1.727  0.9878  0.2973  0.0107
 8692SOL    HW229669   4.291   4.942   1.868 -2.0442 -0.3308  0.2520
 8693SOL     OW29670   2.096   7.673   0.048  0.0406  0.6359  0.6956
 8693SOL    HW129671   2.018   7.640   0.004  0.7807 -2.1281  1.2848
 8693SOL    HW229672   2.091   7.768   0.037 -2.2043  0.3865 -1.2214
 8694SOL     OW29673   0.236   9.287   1.153  0.9577  0.3431 -0.3248
 8694SOL    HW129674   0.319   9.290   1.201 -0.5816  2.5849  2.5034
 8694SOL    HW229675   0.216   9.379   1.134 -1.4751  0.0165  0.3041
 8695SOL     OW29676   5.369   8.845   1.488 -0.1182  0.7150 -0.4196
 8695SOL    HW129677   5.334   8.924   1.447 -3.1852 -0.5341 -0.4626
 8695SOL    HW229678   5.292   8.790   1.504  1.6742 -1.4722  1.3604
 8696SOL     OW29679   1.434   5.504   0.274  0.1240  0.2968  0.2598
 8696SOL    HW129680   1.421   5.413   0.246  0.0778  0.3292  0.1754
 8696SOL    HW229681   1.525   5.522   0.251 -0.4028  0.8884 -1.5009
 8697SOL     OW29682   2.986   0.276   1.709 -0.1617  0.2909 -0.2682
 8697SOL    HW129683   2.964   0.315   1.624 -2.1444 -0.0329  0.0660
 8697SOL    HW229684   2.928   0.318   1.771  1.3025  0.5502  0.9925
 8698SOL     OW29685   1.556   0.704   8.520  0.1023 -0.3768  0.6952
 8698SOL    HW129686   1.461   0.712   8.515  0.1311  0.0201  0.6913
 8698SOL    HW229687   1.588   0.793   8.502  0.4641 -0.4689  0.8679
 8699SOL     OW29688   4.526  10.963   2.901 -0.2533  0.5671 -0.4837
 8699SOL    HW129689   4.573  11.045   2.888  1.0471 -0.0633  0.1152
 8699SOL    HW229690   4.564  10.903   2.837 -0.2854  0.0697 -0.0453
 8700SOL     OW29691   1.043   0.516   5.515  0.0967  0.4100  0.0736
 8700SOL    HW129692   1.102   0.579   5.474 -0.5376  0.8166 -0.2149
 8700SOL    HW229693   0.973   0.569   5.553 -0.8728 -0.1682 -0.8824
 8701SOL     OW29694   2.596   8.235   9.554  0.0070  0.4145 -0.2903
 8701SOL    HW129695   2.524   8.179   9.523 -2.2928  1.9488  1.8773
 8701SOL    HW229696   2.613   8.206   9.643  0.3147  1.6915  0.0935
 8702SOL     OW29697   7.136   6.175   5.576 -0.1119  0.5292 -0.4520
 8702SOL    HW129698   7.135   6.096   5.521  1.6845  0.6002 -0.6624
 8702SOL    HW229699   7.204   6.230   5.537 -2.5750  3.0933 -1.4831
 8703SOL     OW29700   1.360   5.526   2.561 -0.2587 -0.2345 -0.1411
 8703SOL    HW129701   1.357   5.433   2.584  0.0484 -0.1876  0.0996
 8703SOL    HW229702   1.289   5.566   2.611  1.5772  0.1949  2.2982
 8704SOL     OW29703   7.960   6.922   8.710 -0.2847 -0.0889  0.7923
 8704SOL    HW129704   7.932   6.863   8.780 -1.0459  2.2082  2.5586
 8704SOL    HW229705   8.055   6.925   8.718 -0.3441 -0.0607  1.5757
 8705SOL     OW29706   4.255   1.025   8.487 -0.3732 -0.3448  0.0245
 8705SOL    HW129707   4.320   0.968   8.447 -0.0514  0.2354 -0.2832
 8705SOL    HW229708   4.286   1.038   8.577  0.5211  0.7949 -0.4287
 8706SOL     OW29709   5.887   5.266   7.134 -0.3690 -0.0032 -0.1934
 8706SOL    HW129710   5.914   5.180   7.166 -0.9788  0.2093  0.9422
 8706SOL    HW229711   5.900   5.261   7.039 -1.2396 -1.6730 -0.2741
 8707SOL     OW29712   4.654   5.000   1.590  0.4315 -0.1368 -0.0471
 8707SOL    HW129713   4.665   4.927   1.652  0.2923  0.3674  0.5747
 8707SOL    HW229714   4.729   4.992   1.531  0.9797 -0.1808  0.6412
 8708SOL     OW29715   8.346   5.330   2.802 -0.5059 -0.1574 -0.3757
 8708SOL    HW129716   8.321   5.280   2.723  0.6188 -2.0077  0.3670
 8708SOL    HW229717   8.272   5.319   2.861 -0.0361 -1.4833 -0.0057
 8709SOL     OW29718   7.240   4.536   8.825 -0.6740  0.3355  0.0660
 8709SOL    HW129719   7.277   4.467   8.881  0.5300 -0.0064 -1.0762
 8709SOL    HW229720   7.258   4.617   8.871  1.6416  0.1822 -0.4382
 8710SOL     OW29721   8.234   1.548   0.979  0.4771 -0.4765 -0.0992
 8710SOL    HW129722   8.158   1.516   1.028  0.1707 -0.9307 -0.8565
 8710SOL    HW229723   8.281   1.603   1.042 -1.1393  0.8372  0.0335
 8711SOL     OW29724   6.254   7.630   2.027 -0.2367  0.5520 -0.4031
 8711SOL    HW129725   6.229   7.564   2.091 -1.8143  0.7140 -0.8033
 8711SOL    HW229726   6.171   7.655   1.985  0.6649  0.8621 -2.0888
 8712SOL     OW29727  10.661   0.156   4.462  0.0753  0.5598  0.6067
 8712SOL    HW129728  10.650   0.251   4.454 -1.2650  0.5699  2.1152
 8712SOL    HW229729  10.693   0.143   4.551  1.5563 -0.3445 -0.0255
 8713SOL     OW29730   3.288   2.018   3.408  0.1003  0.4736 -0.0245
 8713SOL    HW129731   3.230   2.003   3.334  0.2615 -0.3626  0.0076
 8713SOL    HW229732   3.327   2.103   3.391  0.1168  0.3020 -0.8833
 8714SOL     OW29733   4.250   8.842   0.849  0.2882 -0.3390  0.6700
 8714SOL    HW129734   4.195   8.907   0.805 -0.2597 -1.1884  0.0567
 8714SOL    HW229735   4.328   8.890   0.875 -0.0983  0.5563  0.2241
 8715SOL     OW29736  10.908   6.825   4.781 -0.0641 -0.0829 -0.0994
 8715SOL    HW129737  10.872   6.876   4.709 -1.3304  0.6220  0.9847
 8715SOL    HW229738  10.953   6.751   4.739  0.2563  0.9339 -1.6303
 8716SOL     OW29739  10.166   6.800   7.670  0.4536  0.4291 -0.1950
 8716SOL    HW129740  10.126   6.732   7.725  0.7037  0.6206  0.2247
 8716SOL    HW229741  10.093   6.857   7.645  0.2767  0.1254 -0.3809
 8717SOL     OW29742   5.195   4.772   4.862  0.0008 -0.5581  0.1160
 8717SOL    HW129743   5.272   4.815   4.897  0.7399 -0.9352 -1.0074
 8717SOL    HW229744   5.190   4.689   4.909  0.8659 -0.9708 -0.5032
 8718SOL     OW29745   4.854   3.249   3.349  0.0031  0.1399 -0.0146
 8718SOL    HW129746   4.870   3.181   3.283 -1.0753 -0.2865  0.1476
 8718SOL    HW229747   4.819   3.323   3.299 -0.9458 -0.2328  0.0856
 8719SOL     OW29748   0.760   6.722  10.104  0.5723  0.1142 -0.4264
 8719SOL    HW129749   0.666   6.737  10.111  0.0649 -2.3115 -1.2008
 8719SOL    HW229750   0.772   6.677  10.021  2.0179 -2.2073  0.9170
 8720SOL     OW29751   8.931   3.520  10.028  0.5024 -0.0081 -0.3248
 8720SOL    HW129752   8.885   3.597  10.060 -1.7440 -1.3149 -0.2258
 8720SOL    HW229753   9.001   3.505  10.092 -1.1850 -0.0209  1.6068
 8721SOL     OW29754   1.235   3.647  10.356  0.0737 -0.1129 -0.2887
 8721SOL    HW129755   1.206   3.635  10.266 -1.7320  1.8655 -0.0215
 8721SOL    HW229756   1.308   3.709  10.350  0.2216 -0.2968 -0.4097
 8722SOL     OW29757   0.981   0.583   1.657 -0.5498  0.1065  0.8956
 8722SOL    HW129758   1.033   0.636   1.597 -1.2619  1.7245  1.6351
 8722SOL    HW229759   0.942   0.515   1.602 -0.3512  0.9106 -0.2693
 8723SOL     OW29760   5.791   9.290   1.056  0.4776 -0.2837 -0.1437
 8723SOL    HW129761   5.842   9.245   0.989 -1.0739 -0.5373 -1.2064
 8723SOL    HW229762   5.815   9.382   1.047 -1.2861  0.0261 -2.6072
 8724SOL     OW29763   2.903  10.250   1.560 -0.2914 -0.1067 -0.4302
 8724SOL    HW129764   2.851  10.330   1.556 -0.1295 -0.0293 -1.3219
 8724SOL    HW229765   2.925  10.239   1.652 -0.5867  0.6989 -0.2594
 8725SOL     OW29766  10.938   0.980   2.841  0.5097 -0.1601 -0.1238
 8725SOL    HW129767  10.954   1.058   2.893 -2.4673  0.6549 -0.2380
 8725SOL    HW229768  10.941   1.010   2.751 -1.2880  0.0632 -0.1551
 8726SOL     OW29769  10.129   3.026  10.036 -0.4695 -0.3617 -0.1230
 8726SOL    HW129770  10.101   3.110  10.073 -0.5855 -0.1327 -0.7308
 8726SOL    HW229771  10.188   2.990  10.102  0.4189  0.6839 -0.3189
 8727SOL     OW29772  10.641   7.029   1.429  0.1918 -0.5759 -0.3818
 8727SOL    HW129773  10.561   6.977   1.417 -1.0869  0.7209  1.8029
 8727SOL    HW229774  10.685   6.988   1.503 -0.3084  0.7624  0.6990
 8728SOL     OW29775   7.849  11.030   4.081 -0.0377 -0.1388  0.2006
 8728SOL    HW129776   7.941  11.023   4.106  0.5186  1.1766 -1.2348
 8728SOL    HW229777   7.824  11.119   4.107 -0.3897  0.0970 -0.8870
 8729SOL     OW29778   5.034   2.987   0.207  0.0848 -0.3368 -0.2588
 8729SOL    HW129779   4.941   2.969   0.219 -0.1094 -0.7900 -2.1269
 8729SOL    HW229780   5.041   3.082   0.211 -0.2840 -0.3422  0.8726
 8730SOL     OW29781   7.226   9.314   4.082 -0.1333  0.2968  0.3938
 8730SOL    HW129782   7.195   9.224   4.073  0.0610  0.3975 -1.8729
 8730SOL    HW229783   7.265   9.317   4.170 -0.4936 -1.7011  0.6760
 8731SOL     OW29784   2.785   5.783   3.955  0.0594 -0.1603 -0.2932
 8731SOL    HW129785   2.716   5.775   3.889  0.6568 -0.5290 -0.8801
 8731SOL    HW229786   2.855   5.725   3.924  1.2162  1.2710 -0.4556
 8732SOL     OW29787   3.577   6.519   9.209  0.3845 -0.9994 -0.0449
 8732SOL    HW129788   3.556   6.507   9.301  2.6166 -3.5829  0.2596
 8732SOL    HW229789   3.654   6.576   9.208 -0.6677  0.4779 -0.4927
 8733SOL     OW29790   9.246   8.696   8.339  0.3245 -0.1946 -0.1278
 8733SOL    HW129791   9.190   8.771   8.320  2.0053  0.8136 -1.3486
 8733SOL    HW229792   9.320   8.732   8.388 -0.7087 -1.7435  2.8206
 8734SOL     OW29793   5.252   8.169   1.929  0.3891  0.3445 -0.2990
 8734SOL    HW129794   5.301   8.114   1.990 -2.1868 -2.9429 -0.9279
 8734SOL    HW229795   5.162   8.168   1.962 -0.6727  0.1698 -2.9588
 8735SOL     OW29796   7.128   0.628   4.704  0.0363 -0.2259  0.0853
 8735SOL    HW129797   7.037   0.653   4.721 -0.4086 -1.7171  0.1370
 8735SOL    HW229798   7.172   0.637   4.788 -0.3886 -0.6671  0.3673
 8736SOL     OW29799   6.171   4.873   0.571 -0.1847  0.6375 -0.2294
 8736SOL    HW129800   6.217   4.857   0.653 -1.0240 -0.5679  0.0400
 8736SOL    HW229801   6.239   4.872   0.504  0.6898  2.8711  0.5334
 8737SOL     OW29802   1.959   2.564   2.755  0.2429 -0.4804 -0.9388
 8737SOL    HW129803   1.956   2.469   2.756  1.1686 -0.5321  1.1953
 8737SOL    HW229804   1.880   2.591   2.804 -0.3572 -0.1081 -2.0734
 8738SOL     OW29805   3.469   4.618   5.726 -0.2874 -0.4840 -0.3645
 8738SOL    HW129806   3.532   4.684   5.698  1.3722 -1.2291  1.3527
 8738SOL    HW229807   3.392   4.667   5.754  0.8640  0.7464  0.7588
 8739SOL     OW29808   9.472  10.860   8.180 -0.3123  0.2252 -0.3710
 8739SOL    HW129809   9.531  10.807   8.234  0.3335  1.5208  0.2492
 8739SOL    HW229810   9.477  10.821   8.093  1.1324  0.0354 -0.2224
 8740SOL     OW29811   5.806   9.184   4.569 -0.0211 -0.0023 -0.1538
 8740SOL    HW129812   5.745   9.238   4.620 -0.9010 -1.0139 -0.0995
 8740SOL    HW229813   5.884   9.179   4.624 -0.4184  0.1350  0.4420
 8741SOL     OW29814   7.255   4.118   5.718  0.1890 -0.5743 -0.3634
 8741SOL    HW129815   7.261   4.086   5.628 -2.8761  1.8528 -1.5950
 8741SOL    HW229816   7.265   4.039   5.772  1.5723 -2.1804 -2.7757
 8742SOL     OW29817   3.893   0.760   9.213 -0.0030 -0.5719 -0.0267
 8742SOL    HW129818   3.885   0.836   9.156  0.2640  0.0101  0.6909
 8742SOL    HW229819   3.960   0.706   9.171 -1.1905 -1.1187 -1.2933
 8743SOL     OW29820   3.238   4.488   8.874 -0.7801 -0.4958  0.4856
 8743SOL    HW129821   3.272   4.499   8.963 -0.0017  0.2595  0.1081
 8743SOL    HW229822   3.243   4.575   8.836 -2.5287 -0.4959  0.1796
 8744SOL     OW29823   6.798   7.611   6.313  0.3632  0.1417 -0.4996
 8744SOL    HW129824   6.723   7.621   6.255  0.7284  1.8910 -0.7228
 8744SOL    HW229825   6.818   7.518   6.311 -0.6694 -0.0770 -1.8767
 8745SOL     OW29826   3.966  10.145  10.253  0.4715  0.1218 -0.3403
 8745SOL    HW129827   3.953  10.234  10.286 -1.2151  0.1846 -1.0517
 8745SOL    HW229828   4.052  10.119  10.286 -0.6917  0.4462  3.4502
 8746SOL     OW29829   9.338   4.267   5.578 -0.1963 -0.5856 -0.0862
 8746SOL    HW129830   9.292   4.212   5.641  0.1391  0.0365  0.7368
 8746SOL    HW229831   9.428   4.234   5.579  0.4961  1.1062  1.8708
 8747SOL     OW29832   1.134   1.845   7.121 -0.4095 -0.0551  0.2053
 8747SOL    HW129833   1.103   1.777   7.061 -1.9769 -0.5966  1.5489
 8747SOL    HW229834   1.161   1.917   7.064 -0.6924 -1.0101 -1.1825
 8748SOL     OW29835   1.648   8.660   9.402  0.8499  0.4789  0.0653
 8748SOL    HW129836   1.621   8.743   9.442 -0.2844 -0.0702  0.4792
 8748SOL    HW229837   1.662   8.601   9.475  1.1248  0.1503 -0.2519
 8749SOL     OW29838   3.178   6.152   9.703  0.0020  0.3842 -1.2861
 8749SOL    HW129839   3.236   6.165   9.777 -0.7945 -2.1213 -0.1191
 8749SOL    HW229840   3.095   6.193   9.729  0.5704  2.1888 -2.1286
 8750SOL     OW29841  10.862   9.150   5.866 -0.0067  0.0289 -0.6928
 8750SOL    HW129842  10.784   9.195   5.834 -1.4447 -1.4603  0.5603
 8750SOL    HW229843  10.913   9.131   5.787 -1.4239  0.1248 -1.6627
 8751SOL     OW29844   3.659   3.271   6.483  0.3672 -0.4224 -0.2563
 8751SOL    HW129845   3.688   3.333   6.550  0.1202 -1.7571  1.1107
 8751SOL    HW229846   3.653   3.187   6.528  2.5001 -1.9012 -2.4637
 8752SOL     OW29847   5.078   2.634   7.957  0.4702 -0.3721 -0.4863
 8752SOL    HW129848   5.156   2.636   7.901 -0.1235  3.0478 -1.4332
 8752SOL    HW229849   5.045   2.545   7.948  2.4767 -1.0098 -2.6500
 8753SOL     OW29850   5.908   7.268   2.041  0.0508 -0.2855 -0.0174
 8753SOL    HW129851   5.951   7.341   1.996 -0.7378 -0.9082 -1.8795
 8753SOL    HW229852   5.849   7.309   2.104  0.0223  0.6756 -0.6567
 8754SOL     OW29853  10.326   9.256   8.485 -0.1763  0.0823  0.1531
 8754SOL    HW129854  10.393   9.289   8.426 -0.7088  1.4596  0.2865
 8754SOL    HW229855  10.353   9.165   8.503  0.1250 -0.2966 -1.9636
 8755SOL     OW29856   5.195   6.638   9.435 -0.1342  0.1711 -0.6188
 8755SOL    HW129857   5.253   6.686   9.494 -0.3045  1.6123 -1.5625
 8755SOL    HW229858   5.152   6.706   9.383 -2.0923 -0.8928 -0.4949
 8756SOL     OW29859   9.739   0.388   9.505 -0.2745 -0.1981  0.0571
 8756SOL    HW129860   9.830   0.363   9.519  0.3436  1.8981  0.0696
 8756SOL    HW229861   9.689   0.328   9.561  1.2318 -0.1111  1.5706
 8757SOL     OW29862  10.857   8.615   4.665  0.1205  0.2434 -0.1434
 8757SOL    HW129863  10.925   8.550   4.680 -0.0349 -0.3248 -1.6631
 8757SOL    HW229864  10.776   8.572   4.694  0.1510  0.1550 -0.1893
 8758SOL     OW29865   6.799   6.450   3.119 -0.2517 -0.0909  0.0206
 8758SOL    HW129866   6.785   6.385   3.188 -0.9559  0.3474  0.3067
 8758SOL    HW229867   6.723   6.508   3.125  1.1000  1.7078  0.8136
 8759SOL     OW29868   8.891   6.366   1.388 -0.0646  0.1084 -0.4486
 8759SOL    HW129869   8.881   6.310   1.464  3.1978 -0.7765 -0.5432
 8759SOL    HW229870   8.839   6.324   1.319  1.6116 -2.4149 -0.2821
 8760SOL     OW29871   4.432   1.805   4.882 -0.1238  0.0738 -0.1775
 8760SOL    HW129872   4.415   1.738   4.815 -0.9511 -0.0359  0.1315
 8760SOL    HW229873   4.392   1.770   4.961  0.8667  0.1987  0.3875
 8761SOL     OW29874   6.491   6.627   7.633 -0.2591  0.0117 -0.1372
 8761SOL    HW129875   6.458   6.717   7.623 -1.3849 -0.3534  0.1366
 8761SOL    HW229876   6.415   6.577   7.664 -0.3375 -1.5262 -2.5231
 8762SOL     OW29877   3.576   3.909   8.902 -0.1580  0.0045  0.1518
 8762SOL    HW129878   3.542   3.975   8.842 -0.2409 -1.0067 -0.9440
 8762SOL    HW229879   3.532   3.828   8.877  2.2955 -1.1653 -0.7394
 8763SOL     OW29880   9.646   0.279   9.129  0.2047 -0.2533 -0.1739
 8763SOL    HW129881   9.628   0.267   9.036  0.0432  0.6344 -0.2673
 8763SOL    HW229882   9.734   0.315   9.133  0.3812 -0.6926  0.0526
 8764SOL     OW29883   0.635   1.299   3.880 -0.1006 -0.0066  0.2020
 8764SOL    HW129884   0.720   1.257   3.890  0.6292  0.9033 -1.6706
 8764SOL    HW229885   0.580   1.232   3.838  0.2652  0.0432 -0.3554
 8765SOL     OW29886   1.172  10.283   1.746 -0.0108  0.1175  0.4519
 8765SOL    HW129887   1.171  10.373   1.711  1.0725  0.3997  1.0795
 8765SOL    HW229888   1.256  10.277   1.793  0.1964 -1.4137 -0.0604
 8766SOL     OW29889   0.534   9.544   1.954 -1.0442 -0.1489 -0.3244
 8766SOL    HW129890   0.608   9.503   1.999 -1.1034 -0.0712 -0.1549
 8766SOL    HW229891   0.573   9.610   1.898 -0.9804 -0.1489 -0.2803
 8767SOL     OW29892   4.824  10.098   3.864 -0.5853  0.7662  0.7041
 8767SOL    HW129893   4.778  10.145   3.933 -2.4496  0.6770 -0.4235
 8767SOL    HW229894   4.828  10.007   3.896 -2.1521  0.5615  0.3707
 8768SOL     OW29895   3.366   1.122   5.511  0.4496 -0.0758 -0.3145
 8768SOL    HW129896   3.421   1.112   5.433  0.0043  0.1608 -0.6611
 8768SOL    HW229897   3.305   1.192   5.489 -0.1416 -0.4933 -0.0218
 8769SOL     OW29898   9.938   4.685  10.550 -0.2159 -0.0703 -0.2268
 8769SOL    HW129899   9.862   4.743  10.539 -2.1336 -2.4960 -0.6797
 8769SOL    HW229900   9.993   4.730  10.614 -1.4301  2.3430 -0.7494
 8770SOL     OW29901   3.358   1.349   8.541  0.1372 -0.4379 -0.2944
 8770SOL    HW129902   3.343   1.438   8.508  1.2514  0.6302  1.8753
 8770SOL    HW229903   3.443   1.325   8.504 -0.3038 -0.7701 -1.1339
 8771SOL     OW29904   3.842   3.431   5.373  0.8961  0.0242 -0.3975
 8771SOL    HW129905   3.759   3.450   5.329 -0.0488 -1.7487  0.5149
 8771SOL    HW229906   3.819   3.372   5.444  2.8452  0.1566  0.4177
 8772SOL     OW29907  10.358   3.269  10.380 -0.1815 -0.5483 -0.1804
 8772SOL    HW129908  10.429   3.288  10.318  0.9484 -0.8547  0.9795
 8772SOL    HW229909  10.279   3.270  10.326  0.5894  0.6658 -1.3601
 8773SOL     OW29910   3.513   9.731   3.274  0.2668  0.0209  0.3464
 8773SOL    HW129911   3.537   9.706   3.363  1.0686  0.4479  0.2577
 8773SOL    HW229912   3.431   9.779   3.283 -0.0260 -0.5407  0.7720
 8774SOL     OW29913   4.351   0.498   1.616  0.0081 -0.1258 -0.5476
 8774SOL    HW129914   4.329   0.445   1.540 -0.3377  0.7366 -1.0634
 8774SOL    HW229915   4.327   0.587   1.592  0.2001  0.2190  0.4493
 8775SOL     OW29916   2.217   8.040   2.612 -0.5148  0.2764 -0.0638
 8775SOL    HW129917   2.162   7.967   2.583 -0.2414  0.6522 -1.6777
 8775SOL    HW229918   2.301   8.025   2.567  0.4090  0.2250  1.6070
 8776SOL     OW29919   9.186  10.584   5.998 -0.2526 -0.2331  0.0597
 8776SOL    HW129920   9.138  10.657   5.960  0.0246 -0.3767 -0.5764
 8776SOL    HW229921   9.143  10.506   5.964  1.2745 -0.3808 -1.6640
 8777SOL     OW29922   0.457   0.635  10.183 -0.6419 -0.2152  0.4487
 8777SOL    HW129923   0.514   0.631  10.260  0.5262  0.7541 -0.3289
 8777SOL    HW229924   0.431   0.544  10.167  1.4692 -0.8208  0.2705
 8778SOL     OW29925   0.619   5.351   1.054 -0.0668 -0.5023  0.7074
 8778SOL    HW129926   0.613   5.278   1.116 -0.4581 -0.8944  0.2179
 8778SOL    HW229927   0.560   5.326   0.982  0.1077  0.1088  0.3483
 8779SOL     OW29928   9.559   3.928   5.803  0.1126  0.4475  0.0738
 8779SOL    HW129929   9.640   3.966   5.838 -0.0664  0.7360  0.1763
 8779SOL    HW229930   9.560   3.837   5.833 -0.3369  0.8520  1.3474
 8780SOL     OW29931   9.718   8.655   1.544 -0.0280  0.0043 -0.1158
 8780SOL    HW129932   9.768   8.690   1.618 -0.1930  0.3510 -0.1650
 8780SOL    HW229933   9.682   8.573   1.577 -0.1898  0.2091  0.2272
 8781SOL     OW29934   3.596   7.773   8.173  0.1819 -0.3209  0.3580
 8781SOL    HW129935   3.531   7.725   8.122 -0.1637 -0.2400  0.7184
 8781SOL    HW229936   3.598   7.860   8.134  0.3768 -0.4490  0.0814
 8782SOL     OW29937  10.454   1.801   2.651 -0.3678 -0.0476  0.9219
 8782SOL    HW129938  10.456   1.841   2.564 -0.9911  0.9096  1.3258
 8782SOL    HW229939  10.453   1.707   2.634  1.4706  0.0547 -0.0585
 8783SOL     OW29940   4.498   2.721   9.925  0.0048  0.5265 -0.3352
 8783SOL    HW129941   4.496   2.652   9.859 -1.3012 -0.0208  0.2458
 8783SOL    HW229942   4.564   2.693   9.988 -0.1128  0.0858 -0.4062
 8784SOL     OW29943   1.413   1.349   9.772 -0.3067 -0.0817  0.2947
 8784SOL    HW129944   1.356   1.353   9.695 -0.7281 -0.0059  0.6089
 8784SOL    HW229945   1.398   1.262   9.809  0.4472 -0.4070 -0.1170
 8785SOL     OW29946  10.684   4.048   1.220 -0.2261 -0.4508 -0.0049
 8785SOL    HW129947  10.746   4.029   1.148  0.2351 -2.0015  0.7499
 8785SOL    HW229948  10.727   4.116   1.271  0.0365 -0.2489 -0.4862
 8786SOL     OW29949   5.347   5.081   7.250  0.2033  0.5178  0.2288
 8786SOL    HW129950   5.309   5.103   7.165  0.5736  2.2578  0.4776
 8786SOL    HW229951   5.441   5.080   7.234  0.2256 -1.0380  0.2350
 8787SOL     OW29952   0.979   1.131  10.799 -0.2724  0.1816 -0.3790
 8787SOL    HW129953   1.071   1.126  10.771 -0.4368 -2.6046 -0.7104
 8787SOL    HW229954   0.929   1.113  10.719 -1.0286 -0.1371  0.1565
 8788SOL     OW29955   6.975  10.521   5.821  0.1204  0.0399 -0.5715
 8788SOL    HW129956   6.915  10.475   5.880  1.1547 -0.6096  0.0025
 8788SOL    HW229957   6.921  10.545   5.746 -1.2317  0.8538  0.5997
 8789SOL     OW29958   7.526   2.608   8.360 -0.8428  0.5589 -0.7477
 8789SOL    HW129959   7.510   2.514   8.362 -0.6918  0.5055  2.0266
 8789SOL    HW229960   7.622   2.616   8.353 -0.6237  0.3816  1.4029
 8790SOL     OW29961   8.576   4.893   1.933  0.0331  0.2460  0.1336
 8790SOL    HW129962   8.577   4.942   2.015 -0.7632  0.1217  0.2275
 8790SOL    HW229963   8.614   4.953   1.868  0.4920  0.4120  0.5537
 8791SOL     OW29964   3.657   4.838   5.650  0.3340  0.0006  0.2033
 8791SOL    HW129965   3.751   4.843   5.636  0.4803 -0.4558  0.9746
 8791SOL    HW229966   3.643   4.885   5.733 -0.0303 -0.5086  0.4308
 8792SOL     OW29967   8.333  11.040   3.062 -0.2669  0.1455 -0.4581
 8792SOL    HW129968   8.313  10.976   2.994  0.0962  1.4862 -1.8655
 8792SOL    HW229969   8.425  11.063   3.048  1.0962 -2.2908  2.8731
 8793SOL     OW29970   4.903   5.205   9.862  0.2654 -0.4426  0.5106
 8793SOL    HW129971   4.849   5.156   9.800 -1.0969  0.5858  0.8253
 8793SOL    HW229972   4.903   5.150   9.941 -1.0891 -0.0718  0.7972
 8794SOL     OW29973   5.676   0.724   2.880 -0.3285 -0.0194  0.7391
 8794SOL    HW129974   5.589   0.696   2.909 -1.2375  1.3311 -0.5407
 8794SOL    HW229975   5.685   0.814   2.912 -0.8061  1.0314 -1.8328
 8795SOL     OW29976   8.732   7.369  10.171 -0.2429 -0.1526 -0.2114
 8795SOL    HW129977   8.726   7.434  10.101  0.2207 -1.6562 -1.7089
 8795SOL    HW229978   8.650   7.320  10.165 -1.2176  1.0978  1.8194
 8796SOL     OW29979   8.146   1.126   4.005  0.2390 -0.1727  0.3499
 8796SOL    HW129980   8.180   1.071   3.934  1.0863 -0.2586  0.8049
 8796SOL    HW229981   8.215   1.124   4.071  0.0749  1.0636  0.5694
 8797SOL     OW29982  10.560   7.287   1.560  1.0258 -0.3445 -0.1722
 8797SOL    HW129983  10.547   7.192   1.566  0.3032 -0.3124 -1.0479
 8797SOL    HW229984  10.536   7.309   1.470  0.8670  0.7124  0.1157
 8798SOL     OW29985   2.620   9.633   1.411  0.0761 -0.2321  0.4122
 8798SOL    HW129986   2.670   9.559   1.445  0.1999 -0.2776  0.1354
 8798SOL    HW229987   2.587   9.603   1.326  1.1795  0.4545 -0.2942
 8799SOL     OW29988  10.711   0.289   7.973 -0.4038 -0.7152 -0.1883
 8799SOL    HW129989  10.658   0.274   8.051  1.0166  0.2901  1.0106
 8799SOL    HW229990  10.647   0.295   7.902 -2.0764  1.9473  1.4110
 8800SOL     OW29991   7.498   2.056   4.886 -0.1637 -0.0823  0.2880
 8800SOL    HW129992   7.428   2.120   4.889 -0.6292 -0.5970  0.5905
 8800SOL    HW229993   7.458   1.978   4.847 -0.0570 -0.7233  1.3911
 8801SOL     OW29994   9.928   4.576   3.180 -0.1122 -0.2041 -0.0545
 8801SOL    HW129995   9.834   4.588   3.192  0.1345  1.1135  0.7323
 8801SOL    HW229996   9.963   4.568   3.268  0.6666  0.5984 -0.2810
 8802SOL     OW29997   1.018  10.031   9.475  0.6581 -0.4573 -0.0626
 8802SOL    HW129998   1.000  10.086   9.399 -0.8774  1.9023  1.8678
 8802SOL    HW229999   0.950   9.964   9.472 -0.5616  0.7361  0.1907
 8803SOL     OW30000   8.712   0.663  10.119 -0.4120 -0.7673  0.3666
 8803SOL    HW130001   8.675   0.597  10.062 -1.1105  0.8184 -1.1001
 8803SOL    HW230002   8.805   0.664  10.097 -0.5448 -0.6979 -0.2168
 8804SOL     OW30003   0.170   1.535   5.674  0.8598  0.0197  0.3519
 8804SOL    HW130004   0.099   1.570   5.619  0.6087 -1.2024 -0.1290
 8804SOL    HW230005   0.250   1.569   5.634  0.6111  0.2970  0.0803
 8805SOL     OW30006  10.416   9.183   0.966  0.3048  0.7233 -0.8536
 8805SOL    HW130007  10.338   9.151   0.920 -0.7046  0.4480  0.9419
 8805SOL    HW230008  10.438   9.112   1.027 -1.1736  2.7064  2.2885
 8806SOL     OW30009   4.930   0.896   7.826  0.2562 -0.3670  0.5217
 8806SOL    HW130010   4.850   0.945   7.806  1.0606  0.6161 -0.4629
 8806SOL    HW230011   4.912   0.807   7.796 -0.5102 -0.1759  0.4054
 8807SOL     OW30012   9.718   0.813   0.690 -0.5370 -0.1374 -0.4716
 8807SOL    HW130013   9.743   0.864   0.614  2.8969  0.0186  0.5971
 8807SOL    HW230014   9.717   0.722   0.660  0.5954 -0.0558 -0.7758
 8808SOL     OW30015   2.033   9.077   8.871 -0.4661 -0.0791 -0.6686
 8808SOL    HW130016   2.111   9.093   8.818  0.0097 -2.4682 -0.7642
 8808SOL    HW230017   1.979   9.018   8.819 -1.0151 -0.7165  0.5743
 8809SOL     OW30018   4.996  10.933   7.917  0.6100 -0.6202 -0.1557
 8809SOL    HW130019   5.040  10.873   7.977  1.6979  0.3232  0.0319
 8809SOL    HW230020   5.066  10.989   7.883 -0.4788  1.1610  0.3950
 8810SOL     OW30021   6.753   9.364   6.428  0.0960  0.5275  0.3512
 8810SOL    HW130022   6.754   9.312   6.508  1.3351  0.0629  0.0664
 8810SOL    HW230023   6.670   9.411   6.430 -0.7325 -0.9095  0.9670
 8811SOL     OW30024   5.928   2.587  10.170 -0.7101 -0.6202  0.1514
 8811SOL    HW130025   5.973   2.514  10.127 -1.8815 -0.8914 -0.6518
 8811SOL    HW230026   5.955   2.581  10.261 -0.2940 -1.6840 -0.0287
 8812SOL     OW30027   8.349   6.541   4.718  0.6003 -0.3622 -0.2956
 8812SOL    HW130028   8.309   6.547   4.632  0.4038  0.4479 -0.1522
 8812SOL    HW230029   8.443   6.533   4.701  0.4319 -2.1220 -0.6292
 8813SOL     OW30030   4.896   3.506   7.695 -0.1098  0.7551 -0.0226
 8813SOL    HW130031   4.974   3.460   7.664  3.0535  3.9011  2.4959
 8813SOL    HW230032   4.831   3.437   7.707  2.9233 -2.4050 -0.2988
 8814SOL     OW30033   2.063   2.697   4.263 -0.0112  0.1562  0.1558
 8814SOL    HW130034   2.098   2.632   4.324  0.3781 -1.4558 -1.7024
 8814SOL    HW230035   2.125   2.770   4.268  1.1608 -0.8024  0.2204
 8815SOL     OW30036   3.394   8.839  10.818  0.2473 -0.4196  0.6722
 8815SOL    HW130037   3.474   8.810  10.861 -0.0009 -0.8556  0.8521
 8815SOL    HW230038   3.418   8.851  10.726  0.4701 -0.7660  0.6810
 8816SOL     OW30039   5.751   0.178   5.876 -0.2157  0.4066  0.1225
 8816SOL    HW130040   5.753   0.094   5.923 -0.5660  0.1267 -0.3432
 8816SOL    HW230041   5.731   0.243   5.943  0.6677  0.2034  0.5978
 8817SOL     OW30042   7.638   4.666   3.221  0.0553 -0.0642  0.3948
 8817SOL    HW130043   7.666   4.683   3.130 -0.0635 -0.2184  0.3290
 8817SOL    HW230044   7.558   4.615   3.212 -0.8976  1.3323  0.5679
 8818SOL     OW30045   4.172   0.447   6.448 -0.7896  0.3926 -0.0274
 8818SOL    HW130046   4.134   0.493   6.523 -0.5532 -0.2707  0.4966
 8818SOL    HW230047   4.116   0.371   6.435  0.0682 -0.3332  0.4493
 8819SOL     OW30048   8.000   8.661   6.783  0.3207 -0.6088 -0.6278
 8819SOL    HW130049   8.065   8.600   6.749  1.0126  0.1504 -0.7113
 8819SOL    HW230050   8.050   8.742   6.800 -0.7990  0.3711 -1.7867
 8820SOL     OW30051   5.444   8.529   5.331 -0.4964  0.3411 -0.1395
 8820SOL    HW130052   5.452   8.610   5.281 -0.4405  1.1436  1.1116
 8820SOL    HW230053   5.356   8.533   5.369  0.0569  0.5823  1.1717
 8821SOL     OW30054   0.082   2.975   5.569  0.1290  0.2320 -0.2057
 8821SOL    HW130055   0.039   3.043   5.517 -0.3267 -0.2741 -0.5029
 8821SOL    HW230056   0.127   2.920   5.505  2.0356  1.2817  0.1689
 8822SOL     OW30057   6.474   4.810  10.546 -0.4322 -0.1594  0.0822
 8822SOL    HW130058   6.523   4.837  10.469  0.7940 -1.0854  0.5057
 8822SOL    HW230059   6.423   4.734  10.517 -2.6622  1.5094 -0.6864
 8823SOL     OW30060   8.682   6.236   1.239 -0.4570 -0.4913 -0.1732
 8823SOL    HW130061   8.600   6.189   1.250 -1.0463  0.4718 -0.3239
 8823SOL    HW230062   8.669   6.287   1.159  0.8835 -1.5335 -1.0961
 8824SOL     OW30063   2.544  10.817  10.828  0.4815  0.1210  0.6691
 8824SOL    HW130064   2.572  10.835  10.738  1.6186  1.0440  1.1756
 8824SOL    HW230065   2.614  10.854  10.882 -1.6742  2.5143  2.0230
 8825SOL     OW30066   8.984   9.631   3.198 -0.5706 -0.1011 -0.8442
 8825SOL    HW130067   9.071   9.664   3.220  0.2102 -0.2124 -3.3770
 8825SOL    HW230068   8.987   9.538   3.219  0.1620 -0.2259 -1.4489
 8826SOL     OW30069   0.036   8.426   0.383  0.4558  0.1223 -0.4703
 8826SOL    HW130070  -0.023   8.379   0.324 -0.9140 -0.9522  1.5991
 8826SOL    HW230071  -0.014   8.434   0.465  2.8122  0.1035  1.0670
 8827SOL     OW30072   4.393   0.616   7.917 -0.0801  0.5762  0.2186
 8827SOL    HW130073   4.448   0.688   7.887 -0.6154  0.7829 -0.2664
 8827SOL    HW230074   4.429   0.594   8.003  0.6682  0.8042 -0.0262
 8828SOL     OW30075   2.510   3.209  10.698  0.0408  0.0238  0.1136
 8828SOL    HW130076   2.438   3.264  10.727  0.2091 -0.3220  1.2518
 8828SOL    HW230077   2.510   3.216  10.603  1.1487  3.3711  0.2352
 8829SOL     OW30078   2.093   3.216  11.065 -0.0442  0.2458  0.0871
 8829SOL    HW130079   2.116   3.260  11.147 -1.2348 -0.4071  0.7978
 8829SOL    HW230080   2.085   3.123  11.089  0.1339 -0.0359 -0.8928
 8830SOL     OW30081   6.614   7.675  10.085  0.1192 -0.8986 -0.4017
 8830SOL    HW130082   6.602   7.658  10.178 -1.6231  0.1801 -0.3824
 8830SOL    HW230083   6.529   7.653  10.046 -0.2767  1.6996 -1.2248
 8831SOL     OW30084   5.918   3.158   8.659  0.1037  0.3605  0.1711
 8831SOL    HW130085   5.895   3.232   8.716  0.9724  1.2797 -0.6312
 8831SOL    HW230086   5.846   3.154   8.596 -0.8230 -0.6127  1.2411
 8832SOL     OW30087   7.568   7.466  10.316 -0.0159  0.2968  0.0507
 8832SOL    HW130088   7.597   7.393  10.261  0.5919 -0.6744  1.5917
 8832SOL    HW230089   7.647   7.520  10.326  0.4253 -0.5679  1.5132
 8833SOL     OW30090   4.366   8.999  10.556 -0.3958 -0.4079  0.0140
 8833SOL    HW130091   4.362   9.064  10.486  0.5519  0.4349  0.6953
 8833SOL    HW230092   4.279   8.959  10.558 -0.7923  0.3789 -0.8577
 8834SOL     OW30093   8.510   5.751   1.318  0.4838 -0.6547  0.5028
 8834SOL    HW130094   8.488   5.692   1.246  0.7118 -0.9227  0.6517
 8834SOL    HW230095   8.441   5.818   1.315 -0.9865 -2.0323  1.5983
 8835SOL     OW30096   1.126   5.431   4.318 -0.7690 -0.3317  0.2339
 8835SOL    HW130097   1.093   5.349   4.281 -0.4823 -0.3769  0.0739
 8835SOL    HW230098   1.087   5.435   4.405 -2.8963  0.6389 -0.6761
 8836SOL     OW30099   1.348   0.219   1.257  0.1318 -0.1895  0.4747
 8836SOL    HW130100   1.321   0.156   1.190  0.0001  0.1074  0.2483
 8836SOL    HW230101   1.433   0.252   1.227 -0.4933  0.8723 -0.2010
 8837SOL     OW30102   0.092   2.894   5.179 -0.0446 -0.0333  0.2862
 8837SOL    HW130103   0.152   2.968   5.187 -0.5164  0.2801  1.1161
 8837SOL    HW230104   0.005   2.934   5.173 -0.2119 -0.4909 -0.4584
 8838SOL     OW30105   4.926   2.613   5.684  0.6164  0.1546  0.0024
 8838SOL    HW130106   4.839   2.623   5.724  0.7595  2.8451 -0.1630
 8838SOL    HW230107   4.925   2.525   5.647 -2.2300  0.2555 -0.4169
 8839SOL     OW30108   9.616   0.910   6.372 -0.6060  0.4364  0.4356
 8839SOL    HW130109   9.612   0.830   6.320  0.4008 -0.2466  1.3665
 8839SOL    HW230110   9.707   0.940   6.363 -0.8553  1.2200  0.4639
 8840SOL     OW30111   0.286   3.789   8.246  0.0327  0.2561  0.1664
 8840SOL    HW130112   0.263   3.832   8.163 -0.1593 -2.1880 -1.1476
 8840SOL    HW230113   0.299   3.697   8.222  0.8771 -0.3621  2.7257
 8841SOL     OW30114   2.118   8.016   3.166  0.4019 -0.4318  0.1851
 8841SOL    HW130115   2.172   8.057   3.234  1.2148 -0.0012 -0.6906
 8841SOL    HW230116   2.031   8.052   3.180  1.1504  2.0107 -0.8111
 8842SOL     OW30117   3.111   8.650   3.406 -0.2881  0.0708  0.4310
 8842SOL    HW130118   3.097   8.694   3.322 -0.3914  1.7506  1.3010
 8842SOL    HW230119   3.022   8.636   3.440 -0.2873 -1.3775 -0.0866
 8843SOL     OW30120   3.139   4.040   4.859 -0.3507 -0.7387  0.0042
 8843SOL    HW130121   3.064   3.983   4.877 -0.6679 -0.1030  0.7870
 8843SOL    HW230122   3.167   4.071   4.945 -1.3144  1.6721 -0.4566
 8844SOL     OW30123   7.874  10.293   3.761 -0.3141 -0.1172 -0.3955
 8844SOL    HW130124   7.858  10.380   3.798 -0.3370 -1.2789  2.6665
 8844SOL    HW230125   7.970  10.287   3.756 -0.3121  1.0513 -3.4219
 8845SOL     OW30126   8.366   3.193   4.052 -0.5764 -0.3343  0.3259
 8845SOL    HW130127   8.383   3.101   4.032 -0.1818  0.2427 -2.4715
 8845SOL    HW230128   8.437   3.219   4.110 -0.2721 -1.5915  0.5504
 8846SOL     OW30129   2.073   0.839   8.388 -0.0423  0.0534 -0.3036
 8846SOL    HW130130   2.032   0.753   8.394  0.4175 -0.3323 -2.2574
 8846SOL    HW230131   2.165   0.824   8.406 -0.2012  0.4199  0.9219
 8847SOL     OW30132   0.186   7.749   7.870  0.6939 -0.5139 -0.3499
 8847SOL    HW130133   0.141   7.834   7.870  1.2773 -0.1713 -1.8819
 8847SOL    HW230134   0.213   7.736   7.961 -2.0412 -0.5236  0.5571
 8848SOL     OW30135   6.782  10.933  10.076 -0.2589 -0.0747 -0.0630
 8848SOL    HW130136   6.712  10.868  10.070  0.6999 -1.2427  0.8285
 8848SOL    HW230137   6.863  10.883  10.063  0.5354  0.8683  0.9915
 8849SOL     OW30138   1.477   1.091   4.210 -0.4478  0.3210 -0.4003
 8849SOL    HW130139   1.566   1.080   4.177 -1.1551 -0.5674 -2.0946
 8849SOL    HW230140   1.423   1.099   4.132 -1.8603  1.0095  0.6028
 8850SOL     OW30141   0.298   0.411   2.848  0.2737 -0.0396  0.2033
 8850SOL    HW130142   0.258   0.443   2.929 -1.1382 -1.8791  0.2988
 8850SOL    HW230143   0.358   0.342   2.877 -0.0977 -0.5740 -0.2684
 8851SOL     OW30144   6.462   1.789   2.978  0.5132  0.0645  0.0567
 8851SOL    HW130145   6.461   1.878   3.013  0.4725  0.0247  0.1605
 8851SOL    HW230146   6.465   1.734   3.056 -0.0421 -0.0342  0.0145
 8852SOL     OW30147   5.570   6.817   2.804 -0.0915 -0.0805 -0.4553
 8852SOL    HW130148   5.623   6.897   2.801  0.6354 -0.5729 -1.3086
 8852SOL    HW230149   5.525   6.815   2.720 -1.6007  0.3878  0.3021
 8853SOL     OW30150   4.078   1.472   7.036  0.7674  0.3811  0.0608
 8853SOL    HW130151   4.064   1.377   7.034  0.6219  0.4106 -1.3818
 8853SOL    HW230152   4.171   1.482   7.015  0.8384  0.5599  0.4542
 8854SOL     OW30153   4.650   2.270   1.042  0.5380 -0.3442 -0.3027
 8854SOL    HW130154   4.723   2.264   0.981 -0.0572  1.3822 -1.2600
 8854SOL    HW230155   4.604   2.187   1.033  0.3338 -0.0412 -2.4270
 8855SOL     OW30156   3.538  10.285   5.366 -0.1732  0.0199 -0.5151
 8855SOL    HW130157   3.524  10.237   5.448  1.8590  0.9574  0.4559
 8855SOL    HW230158   3.554  10.216   5.301  1.3232 -0.7237  0.5645
 8856SOL     OW30159   6.089   9.759   4.779 -0.1069 -0.8297  0.5778
 8856SOL    HW130160   6.031   9.789   4.709  0.7883 -0.4409 -0.0184
 8856SOL    HW230161   6.166   9.816   4.772  0.3780 -1.3804  1.3047
 8857SOL     OW30162   2.346   7.223   6.741 -0.4034 -0.1727 -0.3511
 8857SOL    HW130163   2.275   7.285   6.723 -0.3250 -0.0799 -0.3423
 8857SOL    HW230164   2.303   7.137   6.742 -0.8315  0.0233  1.3090
 8858SOL     OW30165   4.379   5.635   5.315 -0.0843 -0.9854 -0.2788
 8858SOL    HW130166   4.298   5.586   5.305  0.5271 -2.2891  0.8560
 8858SOL    HW230167   4.379   5.665   5.406  0.7720 -1.1222 -0.2209
 8859SOL     OW30168  10.403   6.263   6.413 -0.3971 -0.4448  0.3969
 8859SOL    HW130169  10.421   6.224   6.499  2.2760 -1.0973 -0.3508
 8859SOL    HW230170  10.483   6.310   6.391 -0.5539 -1.1965 -2.1815
 8860SOL     OW30171   4.107   2.560   4.838 -0.3668 -0.1176  0.7396
 8860SOL    HW130172   4.119   2.641   4.789 -0.1707 -0.2624  0.5458
 8860SOL    HW230173   4.130   2.490   4.776 -2.3852 -0.4312  0.2854
 8861SOL     OW30174   3.341   5.308   3.095 -0.2674 -0.1087 -0.2745
 8861SOL    HW130175   3.352   5.230   3.040 -0.7855 -0.1427 -0.3371
 8861SOL    HW230176   3.247   5.315   3.108 -0.1646  0.0096  0.4598
 8862SOL     OW30177   3.676   5.085   8.427  0.0084  0.8668 -0.2664
 8862SOL    HW130178   3.676   5.037   8.344 -0.8032 -0.7832  0.6444
 8862SOL    HW230179   3.768   5.085   8.454  0.0488 -0.0013 -0.3786
 8863SOL     OW30180  10.768   0.107   6.665 -0.4054  0.3858 -0.0732
 8863SOL    HW130181  10.677   0.114   6.694 -0.6061  0.5955 -0.7348
 8863SOL    HW230182  10.812   0.061   6.736 -1.2543 -0.7052 -0.2215
 8864SOL     OW30183   2.962   3.306   7.678  0.3611 -0.0638  0.2560
 8864SOL    HW130184   2.906   3.323   7.602  0.3012 -0.2813  0.2490
 8864SOL    HW230185   2.901   3.290   7.750  0.4181  0.8084  0.5077
 8865SOL     OW30186   8.472  10.151   3.647 -0.0666  0.6069 -0.0259
 8865SOL    HW130187   8.467  10.163   3.742 -0.5118  0.3499 -0.0112
 8865SOL    HW230188   8.380  10.148   3.619  0.0598  1.3103 -0.5483
 8866SOL     OW30189   4.507   3.793   7.360  0.8837 -0.7179 -0.5535
 8866SOL    HW130190   4.528   3.754   7.445  0.9538  0.1437 -0.1650
 8866SOL    HW230191   4.539   3.729   7.296  0.2679 -1.6743  0.0540
 8867SOL     OW30192   3.492   0.763   3.803 -0.2256  0.0608 -0.7383
 8867SOL    HW130193   3.487   0.774   3.898 -1.4170  1.3759 -0.9344
 8867SOL    HW230194   3.531   0.676   3.791  0.8973  0.2976  0.9393
 8868SOL     OW30195   4.414   0.754   2.904  0.0943  0.2891 -0.3311
 8868SOL    HW130196   4.333   0.707   2.886 -1.7332  3.0130  0.2342
 8868SOL    HW230197   4.483   0.689   2.892 -2.2587 -2.7639  1.3539
 8869SOL     OW30198  10.774   6.082   6.141  0.2314  0.1359 -0.8377
 8869SOL    HW130199  10.786   6.140   6.067 -0.6830  2.1183  0.4908
 8869SOL    HW230200  10.734   6.136   6.209 -0.3790 -1.9579  0.6050
 8870SOL     OW30201   5.708   3.156   9.338 -0.3745 -0.5257 -0.0210
 8870SOL    HW130202   5.803   3.148   9.352 -0.2012  0.3150 -0.6431
 8870SOL    HW230203   5.674   3.069   9.356  0.7376 -1.2910 -1.3940
 8871SOL     OW30204   8.550   4.960  10.982  0.3248 -0.3164  0.0628
 8871SOL    HW130205   8.622   4.940  10.921  0.6429  1.4614 -0.2005
 8871SOL    HW230206   8.586   4.939  11.068  1.0874  0.3012 -0.0921
 8872SOL     OW30207   2.554   5.631   8.476 -0.0990 -0.3620 -0.4482
 8872SOL    HW130208   2.519   5.550   8.512  1.1040 -0.2402  1.0596
 8872SOL    HW230209   2.569   5.687   8.553  0.3031  0.8128 -1.3524
 8873SOL     OW30210   4.374   9.661   7.232 -0.6649  0.2073 -0.3692
 8873SOL    HW130211   4.290   9.615   7.227 -0.5662  0.1056 -3.5480
 8873SOL    HW230212   4.438   9.591   7.246 -0.8150 -0.2813 -1.8963
 8874SOL     OW30213   9.829   9.566   8.260  0.0796 -0.7721 -0.0030
 8874SOL    HW130214   9.780   9.543   8.339  0.2463  1.4733  0.8363
 8874SOL    HW230215   9.880   9.644   8.285  0.5481 -0.3085 -2.1755
 8875SOL     OW30216   6.699   6.283   0.162  0.0321  0.2621 -0.3979
 8875SOL    HW130217   6.747   6.210   0.201 -0.7103  1.0087  2.0998
 8875SOL    HW230218   6.762   6.355   0.158  0.4096 -0.1084 -1.6865
 8876SOL     OW30219   4.828   2.910   1.624  0.6618 -0.2516 -0.7593
 8876SOL    HW130220   4.823   2.877   1.535 -2.4712 -1.5334 -0.2640
 8876SOL    HW230221   4.825   2.831   1.679  1.1250  0.5618  0.4822
 8877SOL     OW30222  10.437   5.220   0.006  0.2541 -0.4182 -1.2177
 8877SOL    HW130223  10.344   5.231  -0.011  0.1126 -0.1454 -0.3069
 8877SOL    HW230224  10.449   5.126   0.016 -0.2712 -0.3285  0.5000
 8878SOL     OW30225   0.070   6.646   0.720 -0.2323 -0.7792  0.1914
 8878SOL    HW130226   0.143   6.655   0.660 -1.8596  0.0355 -1.7591
 8878SOL    HW230227   0.026   6.731   0.719 -0.0519 -0.5628  2.9658
 8879SOL     OW30228  10.642   6.287   5.030 -0.6313 -0.7970 -0.4568
 8879SOL    HW130229  10.649   6.337   4.949  0.1946 -0.3911 -0.1487
 8879SOL    HW230230  10.725   6.303   5.075 -1.4641 -0.1697  0.9415
 8880SOL     OW30231   4.769   0.100   8.870 -0.0409 -0.3679  0.0765
 8880SOL    HW130232   4.743   0.089   8.779 -1.5155 -1.9609  0.6337
 8880SOL    HW230233   4.832   0.172   8.869 -0.8991  0.4147 -2.0295
 8881SOL     OW30234   9.933   6.877   1.466 -0.1684 -0.6051 -0.4300
 8881SOL    HW130235   9.918   6.897   1.558 -1.1609 -1.5432 -0.3694
 8881SOL    HW230236   9.891   6.950   1.419  0.4223 -0.0762 -0.1529
 8882SOL     OW30237   3.268   9.907   9.135 -0.1802 -0.6596  0.1435
 8882SOL    HW130238   3.263   9.993   9.095  0.0246 -0.9652 -0.5478
 8882SOL    HW230239   3.210   9.852   9.082  0.0162 -1.0415  0.3213
 8883SOL     OW30240   1.474   1.863   5.374  0.3736 -0.3713  0.0193
 8883SOL    HW130241   1.405   1.835   5.434  1.7336 -0.3691  1.6470
 8883SOL    HW230242   1.492   1.954   5.397  0.8489 -0.3349 -0.4655
 8884SOL     OW30243   8.318   6.680   7.724 -0.3844 -0.3230 -0.2501
 8884SOL    HW130244   8.270   6.602   7.751  0.7556 -1.0482 -0.2770
 8884SOL    HW230245   8.307   6.741   7.797  0.5566 -1.3301  0.7590
 8885SOL     OW30246   4.062   9.279   9.605  0.1782  0.1494  0.2144
 8885SOL    HW130247   4.056   9.288   9.701 -0.7754  0.7742  0.1126
 8885SOL    HW230248   4.101   9.362   9.576 -0.0120  0.1739  0.0240
 8886SOL     OW30249   7.058   4.353   8.369  0.2082  0.2104  0.3459
 8886SOL    HW130250   7.115   4.312   8.434  0.3408 -1.1458 -0.5907
 8886SOL    HW230251   6.973   4.360   8.412  0.3349 -0.5460  0.7384
 8887SOL     OW30252  10.612   8.274   7.231  0.0845 -0.4201 -0.7415
 8887SOL    HW130253  10.586   8.312   7.315  1.2043 -2.0953  0.4134
 8887SOL    HW230254  10.531   8.237   7.195 -0.4309  0.4385 -0.5021
 8888SOL     OW30255   9.858   4.112  10.674 -0.2875 -0.0859  0.4850
 8888SOL    HW130256   9.945   4.071  10.677  0.3384  1.2358  1.2502
 8888SOL    HW230257   9.861   4.169  10.597 -0.3122  0.2965  0.7650
 8889SOL     OW30258   3.276  10.978   0.883  0.4830  0.4153 -0.0499
 8889SOL    HW130259   3.267  11.062   0.838  0.0903 -0.3352 -1.4108
 8889SOL    HW230260   3.327  10.999   0.962  0.4089  1.9180 -0.3670
 8890SOL     OW30261  10.095   3.494  10.392 -0.1640 -0.5224  0.4678
 8890SOL    HW130262  10.081   3.430  10.323 -1.3517 -0.9477  1.0717
 8890SOL    HW230263  10.186   3.523  10.381  0.2537 -1.9718 -0.0971
 8891SOL     OW30264  11.053   8.596   9.494  0.2262 -0.3261  0.4866
 8891SOL    HW130265  11.016   8.639   9.417  2.1553 -1.0686 -0.9285
 8891SOL    HW230266  10.997   8.520   9.508  0.5945 -0.9338 -1.0593
 8892SOL     OW30267   0.106   9.546   5.586  0.1493  0.1261  0.2822
 8892SOL    HW130268   0.053   9.505   5.655  1.0817  0.2555  1.1027
 8892SOL    HW230269   0.110   9.480   5.517 -2.1743  0.6108 -0.4103
 8893SOL     OW30270   9.450   6.696   5.189  0.0080  0.0397  0.4391
 8893SOL    HW130271   9.418   6.694   5.099  1.4321  0.4263 -0.0988
 8893SOL    HW230272   9.373   6.720   5.241 -1.5156 -2.7986 -0.3039
 8894SOL     OW30273  10.315   8.442   8.155  0.4050 -0.3618  0.2027
 8894SOL    HW130274  10.249   8.509   8.177 -0.3257 -0.7246 -0.8160
 8894SOL    HW230275  10.361   8.478   8.080  0.1912 -0.8754 -0.1815
 8895SOL     OW30276   5.198   3.946   2.963 -0.3903 -0.6832  0.0219
 8895SOL    HW130277   5.204   3.918   3.054 -0.4211 -0.3141  0.1406
 8895SOL    HW230278   5.267   3.897   2.918  0.5946  0.1968  0.5190
 8896SOL     OW30279   9.641   6.796   4.492 -0.7795  0.2258 -0.7411
 8896SOL    HW130280   9.668   6.838   4.410 -2.1660 -0.3913 -1.5489
 8896SOL    HW230281   9.573   6.854   4.526 -0.2818  0.4236 -0.0524
 8897SOL     OW30282   0.804   6.675   8.513  0.8753 -0.1346  0.2397
 8897SOL    HW130283   0.748   6.747   8.541  1.3981  0.5674 -0.4668
 8897SOL    HW230284   0.796   6.609   8.582 -0.6417  0.0445  0.2522
 8898SOL     OW30285   5.405   7.812   7.178  0.3669  0.5486  0.4310
 8898SOL    HW130286   5.464   7.851   7.243  1.5102  0.0523 -0.2766
 8898SOL    HW230287   5.442   7.725   7.162 -0.8035  0.0627  0.2629
 8899SOL     OW30288   2.967   2.877   5.914  0.2898  0.3418 -0.1217
 8899SOL    HW130289   3.052   2.923   5.912  0.3306  0.3675  1.0747
 8899SOL    HW230290   2.974   2.819   5.989 -0.6384  0.0992 -0.2170
 8900SOL     OW30291   6.784   2.346   4.508  0.4085  0.0938 -0.7577
 8900SOL    HW130292   6.719   2.291   4.553  0.0982  0.0768 -1.2246
 8900SOL    HW230293   6.738   2.427   4.489  1.5216  1.4996  2.0160
 8901SOL     OW30294   9.458   4.946  10.647  0.6863  0.0625  0.2534
 8901SOL    HW130295   9.444   5.027  10.597  0.1518 -0.0764  0.1679
 8901SOL    HW230296   9.481   4.976  10.735 -1.3764  0.3510  0.7506
 8902SOL     OW30297   3.543   7.990   8.033 -0.1536  0.6423  0.0860
 8902SOL    HW130298   3.503   7.994   7.946 -0.1364 -0.6129 -0.0042
 8902SOL    HW230299   3.585   8.075   8.044 -1.0129  1.1941 -0.7077
 8903SOL     OW30300  10.676   8.199  10.821 -0.3855  0.2039 -0.2098
 8903SOL    HW130301  10.662   8.293  10.836 -0.4266  0.8395 -3.4341
 8903SOL    HW230302  10.685   8.191  10.726  1.7777 -2.8194  0.0983
 8904SOL     OW30303  10.477   1.889   5.008 -0.2078 -0.4498  0.1283
 8904SOL    HW130304  10.506   1.840   4.930 -0.3041  0.4618 -0.5009
 8904SOL    HW230305  10.536   1.963   5.013  0.3871 -0.9871  1.4972
 8905SOL     OW30306  10.335   3.828   1.024 -0.0613  0.2111  0.5297
 8905SOL    HW130307  10.418   3.846   0.979 -0.3373  0.9009  0.2839
 8905SOL    HW230308  10.281   3.905   1.007 -0.4081  0.1970  1.5119
 8906SOL     OW30309   4.021   1.902   7.222 -0.1444 -0.4085  0.6237
 8906SOL    HW130310   3.951   1.906   7.287  1.1780 -0.3346  2.1150
 8906SOL    HW230311   3.985   1.850   7.151 -1.5538 -0.7503  1.5497
 8907SOL     OW30312   5.149   4.692   9.849 -0.5719  0.0193  0.1466
 8907SOL    HW130313   5.187   4.640   9.920  0.7652  1.1737  0.3083
 8907SOL    HW230314   5.057   4.702   9.874 -0.2132  0.0935  1.5375
 8908SOL     OW30315   3.134   9.947   9.522  0.8499  0.2216 -0.2674
 8908SOL    HW130316   3.180   9.996   9.455 -0.3975 -1.3529 -2.4174
 8908SOL    HW230317   3.107   9.866   9.479  0.6356 -1.2385  2.3761
 8909SOL     OW30318   5.662   3.930   2.757 -0.2257  0.3373 -0.0914
 8909SOL    HW130319   5.649   4.024   2.752  0.3138  0.4433  0.4760
 8909SOL    HW230320   5.715   3.916   2.836 -0.6284 -0.4707  0.0550
 8910SOL     OW30321   1.684   1.834   2.093  0.5262  0.5313 -0.1382
 8910SOL    HW130322   1.679   1.802   2.183  4.5941  0.1167  0.1241
 8910SOL    HW230323   1.721   1.762   2.043  1.6493  1.8656 -1.3537
 8911SOL     OW30324   3.987   3.048   6.526  0.2285  0.4237 -0.6320
 8911SOL    HW130325   4.076   3.030   6.557  0.7367 -0.3849 -2.4201
 8911SOL    HW230326   3.980   3.143   6.528  0.8621  0.4686  0.2052
 8912SOL     OW30327   1.456   2.333   6.563  0.0551  0.1037  0.5389
 8912SOL    HW130328   1.488   2.402   6.620  0.5976  0.2463  0.0664
 8912SOL    HW230329   1.534   2.285   6.536 -0.2177 -0.0999  0.0929
 8913SOL     OW30330  10.153   1.777   8.928  0.4923  0.6223 -0.1525
 8913SOL    HW130331  10.161   1.871   8.941 -2.8545  0.7872  2.3155
 8913SOL    HW230332  10.122   1.767   8.838 -0.3527  2.0602 -0.0555
 8914SOL     OW30333   4.695   6.415   6.025 -0.5272  0.0147 -0.3321
 8914SOL    HW130334   4.745   6.488   6.062 -0.5625 -0.9772  1.7867
 8914SOL    HW230335   4.740   6.394   5.944  2.7460 -1.0004  1.5954
 8915SOL     OW30336   3.872   3.802  10.555  0.2358  0.3432  0.0571
 8915SOL    HW130337   3.856   3.881  10.504 -2.5973 -0.1777 -0.0233
 8915SOL    HW230338   3.814   3.810  10.631  1.4454 -0.7233  1.1448
 8916SOL     OW30339   2.490   4.166   1.946  0.1902 -0.0942 -0.1776
 8916SOL    HW130340   2.542   4.234   1.902 -0.0463  1.5504  1.9304
 8916SOL    HW230341   2.554   4.097   1.966  0.4941 -0.4233 -2.1130
 8917SOL     OW30342   9.117   4.072   6.708 -0.3942  0.0681  0.3376
 8917SOL    HW130343   9.143   4.127   6.634 -1.7428 -2.6468 -2.3544
 8917SOL    HW230344   9.107   4.134   6.781  0.4142  2.9900 -1.8327
 8918SOL     OW30345   1.913  10.929   3.721 -0.1682  0.5145 -0.4995
 8918SOL    HW130346   1.886  10.929   3.629 -1.2328  1.2674 -0.2196
 8918SOL    HW230347   1.904  11.020   3.748  0.7860  0.4181  0.1754
 8919SOL     OW30348   1.210   6.058   7.406  0.5799  0.4989  0.4745
 8919SOL    HW130349   1.168   6.112   7.339  0.0808  0.9598  1.1433
 8919SOL    HW230350   1.174   6.090   7.489 -0.9891 -1.9245  0.8187
 8920SOL     OW30351   9.632   5.772   1.013  0.4453  0.1730 -0.3399
 8920SOL    HW130352   9.643   5.864   1.036  1.5444 -0.6152  2.9311
 8920SOL    HW230353   9.538   5.756   1.022  0.4837  0.5866  1.2130
 8921SOL     OW30354   4.069   6.744   7.142  0.0104 -0.4098 -0.3066
 8921SOL    HW130355   3.989   6.721   7.095 -0.1040 -1.2502  0.2714
 8921SOL    HW230356   4.082   6.672   7.204 -0.7820  1.4078  2.1485
 8922SOL     OW30357   0.095   9.191   7.162  0.0122  0.1536  0.1753
 8922SOL    HW130358   0.087   9.100   7.192  2.7345 -0.7204 -1.4199
 8922SOL    HW230359   0.150   9.233   7.229  0.4279  0.0613 -0.1052
 8923SOL     OW30360   4.497   1.262   4.338 -0.0340  0.6858 -0.5044
 8923SOL    HW130361   4.559   1.330   4.312  0.4426  0.2605 -0.5051
 8923SOL    HW230362   4.531   1.182   4.299  0.0379  0.2456  0.4220
 8924SOL     OW30363   6.122   3.029   8.899  0.5585  0.4380 -0.6739
 8924SOL    HW130364   6.124   3.006   8.992 -0.1684 -0.4747 -0.8635
 8924SOL    HW230365   6.056   3.099   8.893 -0.3714 -0.4108 -0.6645
 8925SOL     OW30366   5.712   9.457   6.676  0.2811 -0.4297 -0.3560
 8925SOL    HW130367   5.706   9.369   6.641 -0.7418 -0.1467 -0.9431
 8925SOL    HW230368   5.667   9.512   6.612  0.1934  0.4044  0.3914
 8926SOL     OW30369   8.712   6.151   2.448  0.1112 -0.0942 -0.0959
 8926SOL    HW130370   8.795   6.197   2.436 -0.7083  0.9850 -1.9056
 8926SOL    HW230371   8.727   6.063   2.412  1.0303 -0.6254  1.4518
 8927SOL     OW30372   2.612   8.785   6.601 -0.3198 -0.3963 -0.0234
 8927SOL    HW130373   2.630   8.801   6.693  0.9120  0.8797 -0.4627
 8927SOL    HW230374   2.526   8.742   6.601 -1.1256  1.0663  1.6151
 8928SOL     OW30375   2.989   7.777   0.905 -0.5449 -0.1656 -0.6283
 8928SOL    HW130376   2.941   7.781   0.822 -1.7716 -0.7628  0.0241
 8928SOL    HW230377   3.030   7.863   0.913 -0.1966 -0.1998 -1.9749
 8929SOL     OW30378   6.259   4.882   8.343  0.5735 -0.3950  0.3780
 8929SOL    HW130379   6.186   4.821   8.351  0.7146 -1.8709 -5.4964
 8929SOL    HW230380   6.332   4.838   8.388 -0.3410 -2.6588 -0.2311
 8930SOL     OW30381   1.114   0.800   1.067  0.3420  0.1405 -0.2509
 8930SOL    HW130382   1.110   0.844   1.153 -0.8468  0.0315 -0.2299
 8930SOL    HW230383   1.162   0.719   1.084 -1.7926 -0.9772  0.8526
 8931SOL     OW30384   6.326   0.781   1.333 -0.0688  0.3833 -0.0713
 8931SOL    HW130385   6.328   0.828   1.417 -0.4894  1.1765 -0.4912
 8931SOL    HW230386   6.241   0.802   1.296 -0.6653 -1.4936  0.1288
 8932SOL     OW30387   5.568   5.999   5.812  0.2036 -0.1996  0.2113
 8932SOL    HW130388   5.578   5.905   5.797 -0.7585 -0.2040 -0.5358
 8932SOL    HW230389   5.584   6.011   5.906  0.6051 -1.0692  0.2573
 8933SOL     OW30390   3.840   7.756   2.171  0.1069  0.0766 -0.0236
 8933SOL    HW130391   3.755   7.713   2.164  0.2035  0.0345 -0.9617
 8933SOL    HW230392   3.904   7.685   2.170  0.1756  0.1276  0.3953
 8934SOL     OW30393   0.090   9.420   1.734 -0.4967 -0.2875 -0.3250
 8934SOL    HW130394   0.154   9.459   1.793 -1.2945  2.5926 -1.1895
 8934SOL    HW230395   0.140   9.392   1.657 -0.0269  0.0013 -0.1205
 8935SOL     OW30396  10.626   4.365   6.095 -0.1239 -0.2757  0.0749
 8935SOL    HW130397  10.635   4.290   6.036 -0.2309 -0.7605  0.6724
 8935SOL    HW230398  10.618   4.440   6.036  0.7771 -0.6333 -0.5268
 8936SOL     OW30399   9.899   0.224   0.062 -0.5263  0.1529 -0.0337
 8936SOL    HW130400   9.865   0.304   0.023 -1.0904 -0.2811 -0.4542
 8936SOL    HW230401   9.951   0.254   0.136 -1.4718  0.8624  0.3649
 8937SOL     OW30402   6.019   4.061   0.254  0.4627 -0.2771 -0.4441
 8937SOL    HW130403   6.059   4.036   0.170 -1.4760  0.4332 -1.6388
 8937SOL    HW230404   5.926   4.043   0.243 -0.0388  1.1419  1.0638
 8938SOL     OW30405  10.863   5.111   1.452 -0.0502 -0.0185 -0.9521
 8938SOL    HW130406  10.931   5.102   1.384 -0.5003 -0.5352 -1.3426
 8938SOL    HW230407  10.833   5.022   1.468  0.2023  0.0735  0.1005
 8939SOL     OW30408   4.938   5.169   0.992 -0.1228  0.8486  0.6858
 8939SOL    HW130409   4.864   5.197   1.046 -0.1695  1.2005  0.4399
 8939SOL    HW230410   4.957   5.243   0.935 -0.3489  0.3387 -0.0797
 8940SOL     OW30411   6.100   1.610   0.307 -0.2941  0.2384 -0.2191
 8940SOL    HW130412   6.080   1.616   0.401 -1.8125 -0.4274 -0.4807
 8940SOL    HW230413   6.157   1.686   0.291  0.1121  0.2947  1.2519
 8941SOL     OW30414   0.576   1.682   2.135  0.0011  0.4225 -0.3324
 8941SOL    HW130415   0.649   1.626   2.159 -0.5762 -0.1600  0.1056
 8941SOL    HW230416   0.608   1.771   2.149  0.1270  0.1404  1.3192
 8942SOL     OW30417   6.258   6.019   4.500 -0.1113  0.3645  0.4733
 8942SOL    HW130418   6.322   6.072   4.452  0.6329 -1.4612 -0.6623
 8942SOL    HW230419   6.229   6.075   4.572  1.1400  2.0313 -0.2606
 8943SOL     OW30420   3.934   6.946   6.704 -0.3643  0.3823 -0.9838
 8943SOL    HW130421   3.995   6.939   6.631 -0.0179  0.7575 -0.7359
 8943SOL    HW230422   3.847   6.941   6.663 -0.1790  0.8541 -1.4530
 8944SOL     OW30423   6.286   4.231   5.171  0.4193 -0.1427  0.6902
 8944SOL    HW130424   6.277   4.325   5.160 -1.2465 -0.5231 -2.0169
 8944SOL    HW230425   6.377   4.219   5.200  0.9799  2.2251  0.1071
 8945SOL     OW30426   3.245   5.913   2.035 -0.3381  0.3530  0.4819
 8945SOL    HW130427   3.207   5.953   1.956 -2.1536 -0.7755  0.7449
 8945SOL    HW230428   3.179   5.925   2.102 -0.0203 -1.2171  1.1037
 8946SOL     OW30429   5.594   1.064   2.282  0.2930 -0.1255  0.3637
 8946SOL    HW130430   5.509   1.062   2.237 -1.3578 -0.3399  3.2431
 8946SOL    HW230431   5.593   0.986   2.338  2.9969 -0.8324 -0.4015
 8947SOL     OW30432   8.252   4.870   0.893  0.2640  0.4041  0.2550
 8947SOL    HW130433   8.232   4.884   0.986 -0.1848  0.7447  0.1092
 8947SOL    HW230434   8.335   4.916   0.880  0.3764  0.2789  0.5077
 8948SOL     OW30435   8.950   4.568   1.846  0.0093 -0.2440  0.1968
 8948SOL    HW130436   8.903   4.488   1.825 -0.9698  0.9889 -2.9828
 8948SOL    HW230437   8.884   4.625   1.886  0.4525 -0.6207  1.5177
 8949SOL     OW30438  10.491   4.231   8.980  0.3470  0.0621  0.2251
 8949SOL    HW130439  10.561   4.268   8.927  0.0856  1.6354  0.8953
 8949SOL    HW230440  10.515   4.254   9.070 -0.3145 -0.6350  0.5904
 8950SOL     OW30441   0.719   7.706   4.357  0.2707  1.0414  0.7214
 8950SOL    HW130442   0.807   7.719   4.393  1.1016  0.3852 -0.9565
 8950SOL    HW230443   0.670   7.665   4.428  2.2318 -1.5043  0.7338
 8951SOL     OW30444   8.210  10.655   0.182  0.5954  0.8985 -0.0474
 8951SOL    HW130445   8.243  10.702   0.106  1.3592 -0.4539 -0.5896
 8951SOL    HW230446   8.280  10.594   0.205  0.8319  1.9679  2.4038
 8952SOL     OW30447   5.834   8.877   5.107 -0.4698 -0.1247 -0.8288
 8952SOL    HW130448   5.750   8.861   5.063 -0.3321 -2.5259 -0.3669
 8952SOL    HW230449   5.818   8.852   5.198  0.1868  1.4732 -0.2502
 8953SOL     OW30450   1.414   7.555   1.273 -0.3964  0.6161  0.1712
 8953SOL    HW130451   1.335   7.609   1.282 -0.8544 -0.2024  1.1779
 8953SOL    HW230452   1.465   7.573   1.352  0.2238  0.7988 -0.2619
 8954SOL     OW30453   3.483   1.061   7.730 -0.0517  0.8081  0.4763
 8954SOL    HW130454   3.449   1.082   7.643 -0.9602  0.9212  0.8473
 8954SOL    HW230455   3.465   1.139   7.782 -2.0754 -0.2309  1.4689
 8955SOL     OW30456   9.171   2.821   7.329  0.3366  0.4123 -0.2577
 8955SOL    HW130457   9.239   2.755   7.317 -0.2143 -0.3598  0.6950
 8955SOL    HW230458   9.103   2.777   7.380  0.3411  1.9739  1.2064
 8956SOL     OW30459  10.245   0.797   8.501  0.0911  0.4493  0.2674
 8956SOL    HW130460  10.291   0.856   8.560  1.2233  0.9822 -1.0724
 8956SOL    HW230461  10.263   0.832   8.413  0.8090 -1.8333 -0.5879
 8957SOL     OW30462  10.830   7.744  10.775  0.2788  0.3066  0.2630
 8957SOL    HW130463  10.885   7.803  10.724 -1.7050  0.8027 -1.4800
 8957SOL    HW230464  10.773   7.703  10.709 -0.8265 -0.8213  1.8537
 8958SOL     OW30465   7.584   5.290   7.284 -0.4135 -0.5252  0.4422
 8958SOL    HW130466   7.559   5.366   7.336 -0.0199 -0.3838  0.4336
 8958SOL    HW230467   7.508   5.271   7.230  0.2261  1.2228 -1.1690
 8959SOL     OW30468   0.921   4.842   4.682  0.4510 -0.3304  0.5445
 8959SOL    HW130469   0.844   4.897   4.696 -0.3871 -1.2363 -0.3159
 8959SOL    HW230470   0.895   4.781   4.612  2.3342  0.0748 -0.5934
 8960SOL     OW30471   3.550   2.898   7.841 -0.7132 -0.0025 -0.1945
 8960SOL    HW130472   3.577   2.812   7.808  0.5315  0.4002 -0.2862
 8960SOL    HW230473   3.617   2.922   7.904 -0.7393  1.1468 -0.5779
 8961SOL     OW30474   8.304  10.413   1.323  0.9186  0.0325  0.3440
 8961SOL    HW130475   8.336  10.497   1.291 -1.6879  0.7045 -0.8308
 8961SOL    HW230476   8.281  10.364   1.244 -0.2198 -0.6206  1.0433
 8962SOL     OW30477   4.586   4.258   1.965  0.4431  0.0483  0.1672
 8962SOL    HW130478   4.557   4.167   1.973  0.2681  0.0925  0.0467
 8962SOL    HW230479   4.544   4.290   1.885 -0.1376  0.4733  0.6355
 8963SOL     OW30480   3.985   7.611   1.850 -0.0279 -0.7401 -0.2242
 8963SOL    HW130481   4.049   7.592   1.781  1.0185 -1.0888  0.8214
 8963SOL    HW230482   4.037   7.624   1.929 -1.2780 -1.4396  0.7521
 8964SOL     OW30483   1.723   1.111   2.298 -0.6654 -0.3301 -0.0206
 8964SOL    HW130484   1.632   1.094   2.323 -0.7351 -0.0575 -0.0830
 8964SOL    HW230485   1.722   1.200   2.264 -0.2613 -0.0974  0.5499
 8965SOL     OW30486   0.167   2.785   7.561  0.0300 -0.0102  0.4766
 8965SOL    HW130487   0.095   2.737   7.521  1.3031 -1.3943 -0.2779
 8965SOL    HW230488   0.142   2.877   7.551 -0.7482 -0.3690 -1.5743
 8966SOL     OW30489   4.397   1.973  10.759  0.1951 -0.2871  0.4105
 8966SOL    HW130490   4.452   2.000  10.685  1.1199 -1.3642  0.6592
 8966SOL    HW230491   4.384   1.879  10.745 -0.7620 -0.2368  0.9090
 8967SOL     OW30492   8.587   8.942   8.978 -0.6022  0.7936 -0.2235
 8967SOL    HW130493   8.596   9.009   8.910 -2.8333  1.2420 -0.1519
 8967SOL    HW230494   8.676   8.906   8.988  0.1193  1.8624 -2.1612
 8968SOL     OW30495   4.205   7.682   4.833 -0.3122 -0.0479  0.3237
 8968SOL    HW130496   4.240   7.595   4.817 -1.4964 -0.6055  0.6620
 8968SOL    HW230497   4.232   7.702   4.923 -0.2487 -0.1626  0.3303
 8969SOL     OW30498   3.215   0.179   8.547  0.3672 -0.1848  0.0719
 8969SOL    HW130499   3.147   0.112   8.552  0.0601  0.0168 -1.0124
 8969SOL    HW230500   3.169   0.259   8.522  0.8635  0.2088  0.3733
 8970SOL     OW30501   4.428   3.538   0.763  0.3908  0.6250  0.4309
 8970SOL    HW130502   4.435   3.443   0.770  1.4945  0.6329 -0.3131
 8970SOL    HW230503   4.513   3.571   0.793 -0.0923  1.3999  0.9786
 8971SOL     OW30504   0.983   6.761   7.482 -0.1378  0.2295  0.3560
 8971SOL    HW130505   0.928   6.735   7.556 -0.1695 -0.7157  0.0147
 8971SOL    HW230506   1.012   6.678   7.443 -1.5255  0.6706 -1.7668
 8972SOL     OW30507  10.987   5.219   9.397 -0.0259  0.0511 -0.1094
 8972SOL    HW130508  10.975   5.309   9.427  0.6057  0.1530 -0.1441
 8972SOL    HW230509  11.079   5.215   9.371 -0.1107 -0.5393 -0.3319
 8973SOL     OW30510   6.868   2.089   5.161 -0.0504  0.6171 -0.4455
 8973SOL    HW130511   6.919   2.052   5.233  1.0959  0.0581 -1.4939
 8973SOL    HW230512   6.793   2.030   5.152 -0.2921  0.7849  0.3756
 8974SOL     OW30513  11.062   1.598   8.842  0.5005 -0.2386  0.3956
 8974SOL    HW130514  11.030   1.617   8.754 -1.5631  0.4385  1.2256
 8974SOL    HW230515  10.991   1.548   8.883  0.3708  1.4530  2.3960
 8975SOL     OW30516   9.895   6.742   6.598 -0.3778  0.4522 -0.5358
 8975SOL    HW130517   9.930   6.653   6.596 -1.0702  0.0990  1.2602
 8975SOL    HW230518   9.800   6.730   6.586 -0.6452  0.7876  1.0157
 8976SOL     OW30519  10.189   5.306   7.508  0.1791 -0.1664 -0.1449
 8976SOL    HW130520  10.226   5.225   7.542  2.2156  0.5788 -0.4455
 8976SOL    HW230521  10.157   5.352   7.585 -1.3235 -1.3756 -0.0090
 8977SOL     OW30522   3.546  10.673   4.665  0.6163  0.5495 -0.1378
 8977SOL    HW130523   3.474  10.612   4.653  0.4250  0.1121  2.5455
 8977SOL    HW230524   3.624  10.622   4.645  0.3406  0.0513  0.0392
 8978SOL     OW30525   9.691   9.587   4.267  0.0024 -0.1172 -0.0108
 8978SOL    HW130526   9.703   9.673   4.308  0.3254 -0.3153  0.3140
 8978SOL    HW230527   9.700   9.604   4.173 -1.3005  0.4314 -0.0480
 8979SOL     OW30528   9.513   5.775   9.967  0.1555 -0.0630  0.6064
 8979SOL    HW130529   9.523   5.858  10.013  2.3438 -0.0667  0.2389
 8979SOL    HW230530   9.563   5.786   9.886 -2.4769 -0.5119 -1.2299
 8980SOL     OW30531   1.683  10.505   2.569  0.8383  0.1725  0.2556
 8980SOL    HW130532   1.686  10.451   2.648 -0.8302 -2.8952 -1.5561
 8980SOL    HW230533   1.610  10.469   2.518  2.3074  1.4067 -3.0393
 8981SOL     OW30534   6.564   0.576   8.597 -0.1275  0.0733 -0.2162
 8981SOL    HW130535   6.505   0.543   8.665 -2.2831  1.1118 -1.4638
 8981SOL    HW230536   6.585   0.498   8.544 -0.9450 -0.2233 -0.1306
 8982SOL     OW30537   1.571   5.916   6.198  0.3632 -0.1403  0.2846
 8982SOL    HW130538   1.525   5.838   6.167 -2.6842  1.7132 -0.2352
 8982SOL    HW230539   1.611   5.890   6.280  1.2697 -2.7827 -0.8863
 8983SOL     OW30540   3.482   6.414   5.805 -0.0206  0.4223 -0.4515
 8983SOL    HW130541   3.440   6.395   5.888  0.5215 -0.7890 -0.4322
 8983SOL    HW230542   3.559   6.466   5.828  0.1373  0.0768 -0.1822
 8984SOL     OW30543   0.643   4.040   6.351 -0.0888  0.1392 -0.2891
 8984SOL    HW130544   0.670   3.953   6.381  0.6828  0.4071 -0.1772
 8984SOL    HW230545   0.589   4.073   6.423  1.6204  0.7092  0.8073
 8985SOL     OW30546   8.511   1.483  10.220  0.0071 -0.3737  0.0454
 8985SOL    HW130547   8.490   1.389  10.216  1.6324 -0.8165  0.9839
 8985SOL    HW230548   8.604   1.486  10.242 -0.3105  1.4498  1.4270
 8986SOL     OW30549   9.028   1.657   4.974 -0.3637  0.5158  0.7927
 8986SOL    HW130550   8.945   1.700   4.956 -0.6287 -0.6038 -0.9965
 8986SOL    HW230551   9.006   1.564   4.979  0.9116  0.0285 -1.2444
 8987SOL     OW30552   5.946   5.032   6.130  0.2216  0.6478 -0.2089
 8987SOL    HW130553   5.912   5.036   6.040  0.0754 -0.2685 -0.2007
 8987SOL    HW230554   6.011   4.961   6.128 -2.5594 -2.1715  1.2903
 8988SOL     OW30555   8.660  10.928   9.078  0.1814  0.4527 -0.3489
 8988SOL    HW130556   8.670  10.863   9.146  1.9477  0.4545 -0.5654
 8988SOL    HW230557   8.749  10.953   9.054 -0.4174  2.0118 -1.1676
 8989SOL     OW30558   8.059   5.066   7.818 -0.1763  0.2320 -0.1456
 8989SOL    HW130559   8.131   5.126   7.839  0.3334 -0.2020 -0.5972
 8989SOL    HW230560   8.085   5.026   7.735  0.2231 -1.7027  0.8361
 8990SOL     OW30561  10.793   3.462   8.622 -0.3308 -0.9439 -0.1339
 8990SOL    HW130562  10.804   3.385   8.678  0.4214 -0.0790  0.9476
 8990SOL    HW230563  10.717   3.508   8.657  0.1856 -0.3616  0.2538
 8991SOL     OW30564   6.973   6.635   1.054  0.7195  0.5586  0.4007
 8991SOL    HW130565   6.889   6.591   1.068 -0.3665  2.2760 -0.4642
 8991SOL    HW230566   7.038   6.567   1.072 -0.8552 -1.2193 -0.2595
 8992SOL     OW30567   3.073   1.714   6.252 -0.1785  0.5741 -0.0152
 8992SOL    HW130568   3.103   1.774   6.184  0.0298 -0.1959 -0.6136
 8992SOL    HW230569   3.133   1.639   6.246 -0.6794  0.1265  0.4612
 8993SOL     OW30570   3.510   9.417   7.105  0.3594 -0.0995 -0.4765
 8993SOL    HW130571   3.447   9.453   7.043  1.3856  1.8885 -0.4578
 8993SOL    HW230572   3.496   9.466   7.185  0.3426 -1.3075  0.2819
 8994SOL     OW30573   9.892   4.874  11.016  0.3013 -0.0591  0.1995
 8994SOL    HW130574   9.942   4.859  11.096  0.1082 -0.8655  0.1714
 8994SOL    HW230575   9.895   4.969  11.004  0.7001  0.0278  0.9220
 8995SOL     OW30576   8.015   0.946  10.238  0.4172  0.3442 -0.2080
 8995SOL    HW130577   8.013   1.041  10.231  1.0233  0.2728 -1.6178
 8995SOL    HW230578   7.937   0.916  10.192 -0.3392  0.1702  1.1249
 8996SOL     OW30579   6.729   2.761  10.074  0.0098  0.1623 -0.7172
 8996SOL    HW130580   6.669   2.804  10.134  0.8903  2.0576 -1.1172
 8996SOL    HW230581   6.732   2.670  10.104 -0.1768  0.8567  1.6245
 8997SOL     OW30582   0.085   7.680   0.373 -0.2301 -0.1576 -0.2740
 8997SOL    HW130583   0.134   7.663   0.292  0.2058  0.2717 -0.1085
 8997SOL    HW230584   0.005   7.723   0.344  0.1469  0.4404 -0.4499
 8998SOL     OW30585   6.173   3.235   3.460  0.2665  0.1956  0.2616
 8998SOL    HW130586   6.264   3.218   3.485  0.4519 -0.5716 -0.8762
 8998SOL    HW230587   6.178   3.254   3.366 -0.7640  0.0751  0.1778
 8999SOL     OW30588   6.202  10.755   9.551 -0.1572  0.0757  0.5418
 8999SOL    HW130589   6.255  10.820   9.598 -0.0822 -1.0313  2.0635
 8999SOL    HW230590   6.117  10.758   9.596 -0.7017  0.2893 -0.4701
 9000SOL     OW30591   5.396   9.490   6.804 -0.0291 -0.1185  0.4472
 9000SOL    HW130592   5.473   9.439   6.828  0.4539  0.0704 -0.6408
 9000SOL    HW230593   5.342   9.491   6.883  0.0967 -2.0409  0.6022
 9001SOL     OW30594   7.691   7.355   0.671  0.1528  0.1032 -0.3974
 9001SOL    HW130595   7.630   7.287   0.699  0.6015  0.5215  1.8132
 9001SOL    HW230596   7.769   7.308   0.644  0.5465 -0.3139  1.3387
 9002SOL     OW30597   1.180   3.542   8.882 -0.2035 -1.5491  0.2713
 9002SOL    HW130598   1.241   3.605   8.845 -2.3297  0.3997 -0.1406
 9002SOL    HW230599   1.095   3.587   8.882 -1.0352 -2.6182  4.3553
 9003SOL     OW30600   7.512   3.449   1.452 -0.1265 -0.8061  0.0301
 9003SOL    HW130601   7.534   3.538   1.426 -0.8564 -0.8944 -0.9597
 9003SOL    HW230602   7.595   3.410   1.478  0.1838  0.1905  0.5539
 9004SOL     OW30603   5.655   6.245   1.701 -0.6088 -0.2251  0.4660
 9004SOL    HW130604   5.748   6.260   1.686 -0.3181 -1.2030  1.2063
 9004SOL    HW230605   5.640   6.269   1.792 -1.0254 -0.3254  0.4307
 9005SOL     OW30606   3.946   2.015  10.706 -0.1373  0.3426 -0.2365
 9005SOL    HW130607   4.002   1.957  10.653 -0.1549  1.5282 -1.6142
 9005SOL    HW230608   3.870   2.032  10.651 -0.7918  0.5810  0.7144
 9006SOL     OW30609   8.191   1.486   3.390 -0.8135  0.4514 -0.0716
 9006SOL    HW130610   8.153   1.463   3.474 -0.7333 -1.7310 -0.5767
 9006SOL    HW230611   8.229   1.573   3.404 -2.1760  0.8248  1.6581
 9007SOL     OW30612   7.378   4.906   1.248 -0.5753  0.3289  0.4422
 9007SOL    HW130613   7.429   4.857   1.313 -1.9599 -1.2356  0.4184
 9007SOL    HW230614   7.317   4.841   1.212 -1.8222  1.8706 -0.3180
 9008SOL     OW30615   1.522   5.327   6.789 -0.2834 -0.2707  0.6960
 9008SOL    HW130616   1.505   5.407   6.740  0.3722 -0.9551 -0.7042
 9008SOL    HW230617   1.616   5.313   6.779 -0.0513 -0.2065  2.5397
 9009SOL     OW30618   8.910   6.157   0.921  0.0337  0.7064  0.2128
 9009SOL    HW130619   8.974   6.122   0.859 -0.6253  2.1979 -1.3942
 9009SOL    HW230620   8.853   6.213   0.868 -2.3251 -0.1758  1.6510
 9010SOL     OW30621   0.015   6.378   1.882  0.2434 -0.2666  0.1528
 9010SOL    HW130622   0.050   6.465   1.899 -0.2185  0.1330 -0.8003
 9010SOL    HW230623  -0.019   6.384   1.792 -1.0754 -0.9970  0.5772
 9011SOL     OW30624   5.543   6.293   0.045 -0.4706  0.3226  0.1872
 9011SOL    HW130625   5.603   6.330  -0.020  1.8254 -1.1413  1.3359
 9011SOL    HW230626   5.536   6.200   0.021 -0.7412  0.0762  1.1785
 9012SOL     OW30627  10.348   6.379   1.506  0.4787 -0.4255 -0.0714
 9012SOL    HW130628  10.296   6.300   1.496  0.4545 -0.6473  1.6122
 9012SOL    HW230629  10.316   6.437   1.436 -0.5210 -1.3383 -0.4010
 9013SOL     OW30630   8.264   1.644   9.508  0.4186 -0.1434 -0.3806
 9013SOL    HW130631   8.184   1.593   9.509  0.0481  0.4220 -0.6349
 9013SOL    HW230632   8.259   1.699   9.586  0.4742  0.0190 -0.4903
 9014SOL     OW30633   4.718   7.218   1.299  0.1389  0.3194 -0.3650
 9014SOL    HW130634   4.726   7.181   1.211  0.4960  0.4144 -0.3718
 9014SOL    HW230635   4.692   7.309   1.284 -1.6259 -0.1432 -0.3329
 9015SOL     OW30636   2.399   1.339   7.290 -0.2617  0.1440 -0.3915
 9015SOL    HW130637   2.350   1.344   7.208  1.0933  0.6898 -1.2092
 9015SOL    HW230638   2.404   1.429   7.320 -1.6560 -0.1743  0.8780
 9016SOL     OW30639   0.829   3.417   4.082 -0.4144  0.1117  0.5396
 9016SOL    HW130640   0.829   3.364   4.162 -0.8376  0.1821  0.5893
 9016SOL    HW230641   0.913   3.398   4.040 -1.2660 -1.9689 -0.3456
 9017SOL     OW30642   0.005  10.643   4.140  1.0555 -0.4221 -0.1711
 9017SOL    HW130643  -0.079  10.599   4.147  0.8289 -0.2008 -1.3146
 9017SOL    HW230644   0.020  10.681   4.226  0.6943 -1.7074  0.4916
 9018SOL     OW30645   8.254   2.006   3.073 -0.5058  0.0942  0.5857
 9018SOL    HW130646   8.233   1.934   3.133  0.3982  0.1624  1.0012
 9018SOL    HW230647   8.174   2.018   3.021 -1.1481 -0.2720  1.4576
 9019SOL     OW30648   5.873   7.770  10.303  0.0078 -0.3501  0.0753
 9019SOL    HW130649   5.794   7.823  10.294 -0.3073 -0.9184 -0.5866
 9019SOL    HW230650   5.940   7.819  10.256  0.1040  0.2199  0.7871
 9020SOL     OW30651   3.001   7.331   5.395  0.5221  0.5180 -0.5914
 9020SOL    HW130652   2.910   7.361   5.409 -0.7908 -2.9839 -0.7166
 9020SOL    HW230653   3.021   7.356   5.305 -1.8332 -1.8247 -1.9096
 9021SOL     OW30654   2.023  11.024   7.934 -0.0292  0.2296 -0.9106
 9021SOL    HW130655   1.957  10.964   7.969  0.1947 -0.1992 -1.2136
 9021SOL    HW230656   2.103  11.004   7.982 -0.8056  2.9439  1.8000
 9022SOL     OW30657   3.786   9.083   2.154 -0.0559 -0.3752  1.3355
 9022SOL    HW130658   3.787   9.034   2.236 -1.8983 -0.9177  1.0772
 9022SOL    HW230659   3.726   9.034   2.098 -0.4481  1.1205  0.3896
 9023SOL     OW30660   2.475   8.327   0.920  0.2090 -0.0234  0.8380
 9023SOL    HW130661   2.471   8.238   0.954 -0.9241 -0.2222  0.2072
 9023SOL    HW230662   2.457   8.318   0.827 -0.9228  0.9616  0.9385
 9024SOL     OW30663   0.760  10.913   6.982 -0.2578  0.3705 -0.1690
 9024SOL    HW130664   0.855  10.912   6.989 -0.3217  0.2480  0.8241
 9024SOL    HW230665   0.731  10.842   7.039 -0.8687 -1.0367 -2.1097
 9025SOL     OW30666   9.977  10.957   6.203 -0.9366  0.2667 -0.2016
 9025SOL    HW130667   9.891  10.920   6.181 -0.3584  0.1024 -2.4772
 9025SOL    HW230668  10.036  10.917   6.140  0.7273  0.8247  0.9535
 9026SOL     OW30669   5.550   5.062   8.854 -0.3255  0.6162 -0.1580
 9026SOL    HW130670   5.494   5.136   8.877 -1.1288 -0.5416  1.8488
 9026SOL    HW230671   5.490   4.996   8.819  0.0326  0.0218  0.3310
 9027SOL     OW30672   0.198   7.958   0.094 -0.0738 -0.1777  0.4481
 9027SOL    HW130673   0.293   7.946   0.082 -0.4196 -1.4625 -1.5298
 9027SOL    HW230674   0.170   7.878   0.137 -0.8060 -1.8929 -2.8909
 9028SOL     OW30675   0.595   0.559   4.982  0.1518  0.2983 -0.5865
 9028SOL    HW130676   0.655   0.630   4.961  1.4890  0.1370  2.2161
 9028SOL    HW230677   0.539   0.596   5.050  0.2788 -1.0467  0.2637
 9029SOL     OW30678   6.769   1.233   5.642  0.0455  0.2766 -0.4115
 9029SOL    HW130679   6.839   1.186   5.688 -0.0356  0.4319 -0.1256
 9029SOL    HW230680   6.705   1.253   5.710 -1.3962 -1.8610 -1.0281
 9030SOL     OW30681  10.725   1.322   4.304  0.2478  0.3807  0.1099
 9030SOL    HW130682  10.648   1.369   4.271 -0.3210  0.2605  1.2250
 9030SOL    HW230683  10.714   1.233   4.271  0.1847  0.4858 -0.1595
 9031SOL     OW30684   5.295  11.076   3.182 -0.2909  0.0541 -0.0511
 9031SOL    HW130685   5.214  11.106   3.222  0.3667  1.2334  0.4584
 9031SOL    HW230686   5.364  11.114   3.236  0.6145  0.8217 -1.6772
 9032SOL     OW30687   7.122   5.943   2.618 -0.1384  0.3326  0.0450
 9032SOL    HW130688   7.084   6.026   2.648  0.8030  0.7391  0.1335
 9032SOL    HW230689   7.150   5.961   2.528  0.4450  0.2422  0.2048
 9033SOL     OW30690  10.937   5.335   1.805  0.0644  0.3664 -0.3544
 9033SOL    HW130691  10.846   5.362   1.818  0.7394  1.5685  3.2447
 9033SOL    HW230692  10.939   5.243   1.834 -0.3017 -0.3216 -2.3847
 9034SOL     OW30693   8.013   7.116   6.557  0.1141  0.4151 -0.4323
 9034SOL    HW130694   7.948   7.133   6.489  1.3098 -0.5339 -1.8959
 9034SOL    HW230695   8.019   7.198   6.605 -1.0367  1.0041 -1.2391
 9035SOL     OW30696   7.648   0.589   1.410  0.3803 -0.5063  0.2770
 9035SOL    HW130697   7.683   0.503   1.388  0.0501 -1.1055  1.9257
 9035SOL    HW230698   7.648   0.638   1.327 -1.6746 -2.8615 -1.2736
 9036SOL     OW30699   2.539   0.812   0.191  0.0065  0.4067  0.2204
 9036SOL    HW130700   2.539   0.827   0.285 -1.8856  1.3895  0.1027
 9036SOL    HW230701   2.593   0.883   0.155  0.7756 -0.0022  0.5362
 9037SOL     OW30702   9.151   2.953   4.426 -0.6482 -0.2747 -0.1191
 9037SOL    HW130703   9.147   2.906   4.509  0.8930  0.3647  0.3368
 9037SOL    HW230704   9.137   3.045   4.449 -0.9789 -0.1764 -0.6779
 9038SOL     OW30705   0.945   9.137   7.165  0.0036 -0.6678  0.6359
 9038SOL    HW130706   0.956   9.169   7.255  1.3876  0.7981 -0.0115
 9038SOL    HW230707   0.878   9.194   7.128  1.7681  0.9422 -0.2184
 9039SOL     OW30708   8.583   7.654  10.426 -0.0832 -0.0659  0.1160
 9039SOL    HW130709   8.519   7.692  10.366 -0.3711 -2.0714 -0.9604
 9039SOL    HW230710   8.568   7.559  10.420  1.5889 -0.4734  1.4484
 9040SOL     OW30711   7.388   3.307   2.368  0.2633 -0.8098  0.4773
 9040SOL    HW130712   7.415   3.241   2.305  1.3438  0.4825 -0.4865
 9040SOL    HW230713   7.293   3.305   2.367  0.2815 -1.8762 -0.0306
 9041SOL     OW30714   3.004   0.910   5.996 -0.0917 -0.9161  0.3143
 9041SOL    HW130715   2.926   0.856   5.983 -0.7872  0.0629  0.3831
 9041SOL    HW230716   3.004   0.931   6.089  1.0747 -2.1090  0.6278
 9042SOL     OW30717   9.453   9.028   8.302  0.7055 -0.0658  0.3568
 9042SOL    HW130718   9.389   9.012   8.372 -0.6422  1.2415 -0.5180
 9042SOL    HW230719   9.497   9.109   8.328  1.5328 -0.5803  0.5975
 9043SOL     OW30720   8.566   9.708   1.463  0.1202 -0.5507  0.1838
 9043SOL    HW130721   8.506   9.744   1.398  0.3602  0.4378  0.4886
 9043SOL    HW230722   8.619   9.783   1.490 -1.2988 -0.4167  2.9979
 9044SOL     OW30723   4.015   4.190   9.844  0.3921  0.5006 -0.0645
 9044SOL    HW130724   4.041   4.103   9.876  1.0745  0.7358  0.0236
 9044SOL    HW230725   3.938   4.212   9.897  1.0341  0.5359  0.8879
 9045SOL     OW30726   4.217   9.438   0.175  0.0864 -0.0232  0.1249
 9045SOL    HW130727   4.295   9.422   0.123  0.5625  1.0230  0.4905
 9045SOL    HW230728   4.167   9.357   0.169  2.1283 -1.4700  1.4990
 9046SOL     OW30729   8.030   2.874   3.162 -0.0122  0.4455  0.0390
 9046SOL    HW130730   8.020   2.940   3.094  2.0909  0.0145 -0.7512
 9046SOL    HW230731   8.015   2.921   3.244 -1.5801  1.1788 -0.6163
 9047SOL     OW30732   3.643   0.812   2.445  0.0181  0.3092 -0.4256
 9047SOL    HW130733   3.685   0.781   2.525  1.5350  2.1021 -0.4864
 9047SOL    HW230734   3.575   0.746   2.428  1.7861 -1.9041  0.4984
 9048SOL     OW30735   1.492   6.369   8.443 -0.2224  0.0307  0.9051
 9048SOL    HW130736   1.538   6.450   8.418 -1.1288  1.1849  2.7370
 9048SOL    HW230737   1.404   6.399   8.467 -0.2858 -1.3477  2.5344
 9049SOL     OW30738   6.423   1.724   3.284 -0.5785  0.2217  0.3763
 9049SOL    HW130739   6.393   1.699   3.371 -0.6356  1.1110  0.6202
 9049SOL    HW230740   6.424   1.820   3.285 -0.3843  0.2410 -0.5330
 9050SOL     OW30741  10.912   9.230   7.357  0.4609  0.2314 -0.1724
 9050SOL    HW130742  10.838   9.247   7.298 -0.3810  0.3991  0.9013
 9050SOL    HW230743  10.902   9.139   7.383  1.1354  0.0031 -0.6850
 9051SOL     OW30744   8.663   3.550   7.369  0.3179 -0.4972 -0.2262
 9051SOL    HW130745   8.615   3.567   7.288  1.5399 -1.4180 -1.1968
 9051SOL    HW230746   8.599   3.509   7.427 -0.6224  0.3383 -0.6424
 9052SOL     OW30747  10.626   6.336   9.353 -0.5989  0.2980 -0.2126
 9052SOL    HW130748  10.637   6.431   9.357 -0.2915  0.3149 -1.1035
 9052SOL    HW230749  10.554   6.317   9.413  0.3938  0.9056  1.2259
 9053SOL     OW30750   5.624   8.000  10.653 -0.4016  0.1748  0.0632
 9053SOL    HW130751   5.697   8.058  10.671  0.5114 -0.9552  0.1568
 9053SOL    HW230752   5.570   8.047  10.591  0.2179  1.1826  0.2701
 9054SOL     OW30753   6.773   4.945   1.102 -0.0880  0.2907  0.0500
 9054SOL    HW130754   6.708   4.888   1.142  0.4663 -0.3046  0.1258
 9054SOL    HW230755   6.732   4.978   1.022 -0.4091 -0.2306 -0.0031
 9055SOL     OW30756  10.671   5.924   9.174  0.5942 -0.2671 -0.1921
 9055SOL    HW130757  10.655   5.897   9.265 -1.5391  0.7405 -0.2127
 9055SOL    HW230758  10.619   5.863   9.122  1.0298 -0.2254 -0.6836
 9056SOL     OW30759   9.578   8.659   2.537 -0.4190  0.5762  0.8685
 9056SOL    HW130760   9.594   8.749   2.509 -0.7876  0.1032 -1.0135
 9056SOL    HW230761   9.498   8.664   2.588 -1.8091  1.0445 -1.2140
 9057SOL     OW30762   5.946   7.696   4.842 -0.1398  0.8419  0.3823
 9057SOL    HW130763   5.958   7.772   4.899 -1.8202  1.0385  0.5337
 9057SOL    HW230764   5.990   7.720   4.760  0.9285  1.2030  1.0340
 9058SOL     OW30765   3.322   5.217   2.586 -0.2030  0.4956 -0.0391
 9058SOL    HW130766   3.317   5.144   2.648 -1.3140 -0.2131 -0.9310
 9058SOL    HW230767   3.362   5.179   2.508 -2.2532  0.3764 -1.0954
 9059SOL     OW30768   4.977   0.729   8.600 -0.0629 -0.1558  0.4811
 9059SOL    HW130769   4.997   0.820   8.621 -0.0563  0.2787 -1.2763
 9059SOL    HW230770   5.035   0.708   8.527 -0.7443 -1.2570  0.2386
 9060SOL     OW30771  10.544   3.924   9.135 -0.1840  0.6419 -0.2713
 9060SOL    HW130772  10.475   3.987   9.115 -0.4351 -0.5071 -3.5677
 9060SOL    HW230773  10.621   3.957   9.089  0.5997  0.2263  0.7061
 9061SOL     OW30774   9.634   7.481   0.003 -0.1147 -0.1553  0.0461
 9061SOL    HW130775   9.598   7.548   0.061 -1.6426 -0.3713 -0.5860
 9061SOL    HW230776   9.722   7.513  -0.019 -0.2322  0.8679  0.9550
 9062SOL     OW30777   0.536   2.273  10.782  0.7494 -0.3120  0.3229
 9062SOL    HW130778   0.625   2.305  10.797  1.2724 -1.3545 -0.4357
 9062SOL    HW230779   0.544   2.215  10.707 -0.9199  1.0876 -1.0277
 9063SOL     OW30780   5.939   7.622  10.913  0.3695  0.8021  0.0367
 9063SOL    HW130781   5.869   7.564  10.942 -0.6916  2.7749  1.7601
 9063SOL    HW230782   6.020   7.574  10.931 -0.4818 -0.4320  0.6919
 9064SOL     OW30783   7.601  11.067   1.167  0.0320  0.6834  0.3301
 9064SOL    HW130784   7.645  11.116   1.098  1.4624 -0.4700  0.3858
 9064SOL    HW230785   7.624  11.114   1.248 -0.2662  1.0711  0.1912
 9065SOL     OW30786  11.013   9.983   2.457  0.0947  0.2666  0.4944
 9065SOL    HW130787  11.042   9.906   2.506  1.2209  0.6494  0.4451
 9065SOL    HW230788  11.045  10.058   2.508  1.4300  0.6754 -0.8731
 9066SOL     OW30789   5.967   2.952   5.562  0.1638  0.2078  0.4664
 9066SOL    HW130790   5.976   2.858   5.545 -1.2264 -0.0041  0.7558
 9066SOL    HW230791   5.928   2.958   5.649  0.3480  1.0599  0.5045
 9067SOL     OW30792   7.971   9.078   9.365 -0.3176  0.1613  0.4967
 9067SOL    HW130793   7.959   8.989   9.332  0.8546  0.0256  0.4059
 9067SOL    HW230794   7.965   9.133   9.287  1.1438 -0.0461  0.2124
 9068SOL     OW30795  10.180  10.634   8.876  0.0615 -0.8127  0.1211
 9068SOL    HW130796  10.253  10.670   8.827 -0.2543 -0.8814 -0.4078
 9068SOL    HW230797  10.127  10.589   8.810 -0.0342 -1.4451  0.6241
 9069SOL     OW30798   5.572  10.092   7.797 -0.0726 -0.3764  0.2344
 9069SOL    HW130799   5.489  10.046   7.781 -0.2336  0.3011 -1.0126
 9069SOL    HW230800   5.617  10.088   7.712  0.9319 -0.2558  0.7580
 9070SOL     OW30801   2.822  10.296   5.109 -0.0706 -0.3502  0.9893
 9070SOL    HW130802   2.833  10.278   5.202 -1.0140 -2.8174  0.6892
 9070SOL    HW230803   2.882  10.235   5.066  1.0436  1.3826 -0.0510
 9071SOL     OW30804   3.623   3.141   7.073  0.3494 -0.8321 -0.3520
 9071SOL    HW130805   3.534   3.173   7.065  1.0667  0.8192 -2.8250
 9071SOL    HW230806   3.626   3.099   7.159 -2.4625  0.0522  0.2695
 9072SOL     OW30807   5.754   9.716   8.205 -0.2434 -0.5745 -0.2785
 9072SOL    HW130808   5.748   9.784   8.138  1.5554 -1.2654 -1.2280
 9072SOL    HW230809   5.848   9.714   8.227 -0.0530 -3.3652 -0.9985
 9073SOL     OW30810   0.543   9.910   8.288 -0.1821  0.2941  0.2132
 9073SOL    HW130811   0.604   9.846   8.252 -0.9394 -0.1051 -0.3785
 9073SOL    HW230812   0.567   9.916   8.381  0.1416 -0.5613  0.1924
 9074SOL     OW30813   6.452   6.271   7.305 -0.2151 -0.5774  0.1608
 9074SOL    HW130814   6.510   6.210   7.259 -0.6771 -1.0919  0.2568
 9074SOL    HW230815   6.501   6.354   7.306  0.3088 -0.8760 -0.1909
 9075SOL     OW30816   9.611   6.078   6.239 -0.0662  0.3453  0.7018
 9075SOL    HW130817   9.701   6.111   6.245 -0.6982  2.1426  0.9786
 9075SOL    HW230818   9.596   6.064   6.146  0.1682  1.0659  0.5502
 9076SOL     OW30819   3.886   8.929   1.036  0.1634 -0.1710  0.0988
 9076SOL    HW130820   3.928   8.922   1.122 -3.0265  0.0132  1.8160
 9076SOL    HW230821   3.855   8.841   1.017  0.4049 -0.1021 -0.6478
 9077SOL     OW30822   1.906  10.755   7.328  0.3348 -0.4007 -0.7730
 9077SOL    HW130823   1.859  10.673   7.343  0.5764 -0.3179  0.5527
 9077SOL    HW230824   1.878  10.783   7.240 -1.6218 -0.6573 -0.2829
 9078SOL     OW30825   8.628   0.387   9.375 -0.5749 -0.0510 -0.3712
 9078SOL    HW130826   8.687   0.331   9.324  1.1307 -0.2857  1.7091
 9078SOL    HW230827   8.687   0.438   9.431 -2.3576 -0.1656  1.7039
 9079SOL     OW30828   6.882   9.985   0.237  0.4917 -0.5239  0.0606
 9079SOL    HW130829   6.824  10.057   0.212  0.2940 -0.6973  0.0144
 9079SOL    HW230830   6.929   9.962   0.157  1.5983  0.4903  0.3929
 9080SOL     OW30831   9.371   6.012   1.647 -0.0075  0.2192  0.1388
 9080SOL    HW130832   9.332   6.040   1.564 -0.0489  1.0086  0.4133
 9080SOL    HW230833   9.385   6.094   1.695  1.3494 -0.0992  0.3347
 9081SOL     OW30834   7.090   8.644   6.761  0.1197  0.2475 -0.1020
 9081SOL    HW130835   7.021   8.609   6.705  0.5154  0.5261 -0.7735
 9081SOL    HW230836   7.059   8.732   6.785  0.2629  0.3985 -0.4569
 9082SOL     OW30837   6.073   6.577   0.313 -0.1214 -0.5486 -0.5498
 9082SOL    HW130838   6.004   6.511   0.321 -1.2111  0.5363 -0.6887
 9082SOL    HW230839   6.057   6.619   0.228  0.9597 -0.5519 -0.7664
 9083SOL     OW30840   8.648  10.084   7.203  0.9228 -0.8063 -0.7152
 9083SOL    HW130841   8.624  10.057   7.114  0.7662  0.8174 -1.1882
 9083SOL    HW230842   8.565  10.082   7.251  0.5120  0.7975 -1.2927
 9084SOL     OW30843   8.265   5.121   5.730 -0.3614 -0.3424 -0.5889
 9084SOL    HW130844   8.175   5.092   5.744 -1.3183  2.5836 -0.0194
 9084SOL    HW230845   8.307   5.114   5.816 -0.5301 -0.1799 -0.4946
 9085SOL     OW30846   8.363   5.144   4.923 -0.0248 -0.0651  0.1448
 9085SOL    HW130847   8.328   5.097   4.847  0.4289 -1.5994  0.8573
 9085SOL    HW230848   8.344   5.236   4.904 -0.1064 -0.4179 -1.7335
 9086SOL     OW30849   8.902   7.676   5.084 -0.1394 -0.1106 -0.1421
 9086SOL    HW130850   8.874   7.696   4.995 -0.2688  1.0677  0.1451
 9086SOL    HW230851   8.944   7.591   5.078  0.5146  0.2869 -1.4644
 9087SOL     OW30852   7.310  10.306   6.126  0.3071  0.0650  0.1852
 9087SOL    HW130853   7.286  10.396   6.102  1.9679  0.8181  1.1907
 9087SOL    HW230854   7.227  10.258   6.122 -0.4195  1.3399 -1.5632
 9088SOL     OW30855   4.095   4.594   2.494 -0.0587  0.2881  0.1607
 9088SOL    HW130856   4.168   4.614   2.551 -1.0879 -1.1080  2.0651
 9088SOL    HW230857   4.125   4.521   2.440 -0.4053 -1.1020  1.7882
 9089SOL     OW30858   0.316   2.412   8.975  0.1122  0.5214 -0.3328
 9089SOL    HW130859   0.338   2.435   9.066  0.9993  1.0924 -0.6770
 9089SOL    HW230860   0.369   2.472   8.922 -0.5975  0.3718 -1.2280
 9090SOL     OW30861   5.474   3.470   9.972  0.1594 -0.5248  0.1372
 9090SOL    HW130862   5.492   3.509   9.886  0.5500 -1.1993 -0.0904
 9090SOL    HW230863   5.408   3.403   9.955 -0.1660 -0.2955  0.4598
 9091SOL     OW30864   3.935  10.443   2.228 -0.1784 -0.1003  0.2909
 9091SOL    HW130865   3.872  10.383   2.267  0.3648 -0.7290  0.2139
 9091SOL    HW230866   3.883  10.520   2.203 -0.8998 -0.5946  0.2538
 9092SOL     OW30867   0.545   2.739   7.859 -0.9349 -0.7596 -0.3699
 9092SOL    HW130868   0.569   2.831   7.853  0.3088 -1.0646 -0.3383
 9092SOL    HW230869   0.449   2.738   7.854 -1.0091  0.5957  0.5105
 9093SOL     OW30870   2.007   0.208   5.411 -0.4714 -0.0969 -0.5228
 9093SOL    HW130871   2.063   0.277   5.447 -0.6479 -0.1977 -0.0566
 9093SOL    HW230872   1.922   0.221   5.453 -1.1491  0.7490 -2.0472
 9094SOL     OW30873   9.142   5.096   2.522 -0.4259  0.2305 -0.0241
 9094SOL    HW130874   9.135   5.012   2.567 -0.1526  0.1171 -0.1904
 9094SOL    HW230875   9.130   5.074   2.429  0.1992  0.2934 -0.1263
 9095SOL     OW30876   5.367   0.839  10.668 -1.0274  0.1427  0.1389
 9095SOL    HW130877   5.281   0.802  10.689 -0.4440 -0.3713  1.7913
 9095SOL    HW230878   5.415   0.766  10.630 -1.4294  0.5351 -1.1552
 9096SOL     OW30879   3.216  10.573   9.899 -0.1001  0.5875 -0.2887
 9096SOL    HW130880   3.133  10.616   9.921  0.2345  1.2427 -0.2801
 9096SOL    HW230881   3.237  10.605   9.811 -0.6659 -0.8349 -0.9705
 9097SOL     OW30882  10.591   8.405   6.988  0.2034 -0.6999 -0.0936
 9097SOL    HW130883  10.596   8.368   7.077  0.1649 -0.7984 -0.1310
 9097SOL    HW230884  10.511   8.458   6.989  0.5169 -0.2241  0.1049
 9098SOL     OW30885   4.520   7.542   8.618 -0.0269 -0.2089 -0.2183
 9098SOL    HW130886   4.490   7.453   8.635 -0.2139 -0.0153  0.5351
 9098SOL    HW230887   4.439   7.593   8.613  0.1120  0.1678  0.9359
 9099SOL     OW30888   4.124   6.435   2.582  1.0398 -0.2678 -0.3424
 9099SOL    HW130889   4.132   6.405   2.491 -0.8537  0.3764 -0.7749
 9099SOL    HW230890   4.103   6.528   2.575  2.6149  0.2214  0.8494
 9100SOL     OW30891   2.832   7.662   9.943  0.3339 -0.1886  0.6308
 9100SOL    HW130892   2.829   7.609  10.023  1.1245  0.1475  0.8905
 9100SOL    HW230893   2.900   7.621   9.889 -0.1894 -0.4106  0.1217
 9101SOL     OW30894   8.051   3.269   2.221  0.3294 -0.0650  0.0547
 9101SOL    HW130895   8.097   3.210   2.281 -0.3744 -1.2818 -0.5568
 9101SOL    HW230896   8.018   3.339   2.277 -1.0292 -1.6021  1.2799
 9102SOL     OW30897   3.587   6.182   0.825  0.6802  0.0735  0.4635
 9102SOL    HW130898   3.604   6.225   0.741  1.1162 -1.6764 -0.3954
 9102SOL    HW230899   3.670   6.186   0.872  0.7596  0.0713  0.3245
 9103SOL     OW30900   6.678   6.833   0.591  0.5581 -0.6384 -0.5752
 9103SOL    HW130901   6.655   6.744   0.563 -0.6068  0.3061 -2.8673
 9103SOL    HW230902   6.598   6.867   0.630  1.0890 -0.6765  0.5654
 9104SOL     OW30903   3.092   2.384   6.702 -0.1651  0.6302 -0.4845
 9104SOL    HW130904   3.159   2.393   6.770 -0.6093  1.4986 -0.1360
 9104SOL    HW230905   3.129   2.322   6.639 -0.2065 -1.0714  1.0954
 9105SOL     OW30906  10.807  10.101   5.963  0.4754 -0.0458  0.6904
 9105SOL    HW130907  10.855  10.068   6.038  0.9887 -1.1793 -0.1131
 9105SOL    HW230908  10.725  10.051   5.964  0.5305 -0.1417  0.4436
 9106SOL     OW30909   9.440   2.308   3.452  0.0119  0.4128  0.8929
 9106SOL    HW130910   9.469   2.218   3.440  1.5890  1.0404 -0.4829
 9106SOL    HW230911   9.364   2.302   3.509 -1.0356 -1.9450 -0.6240
 9107SOL     OW30912   8.303   2.313  10.330 -0.8195 -0.0109 -0.2805
 9107SOL    HW130913   8.231   2.285  10.274  1.1821 -4.7249 -0.9216
 9107SOL    HW230914   8.380   2.308  10.274  0.5823  0.7537  1.4756
 9108SOL     OW30915   7.467   4.942   0.876 -0.1986  0.2896  0.5428
 9108SOL    HW130916   7.428   5.020   0.916  1.0236  0.5432  1.3377
 9108SOL    HW230917   7.433   4.940   0.787 -2.0438  0.4300  1.2045
 9109SOL     OW30918   7.315  10.449   7.951  0.3002 -0.1586 -0.1551
 9109SOL    HW130919   7.261  10.511   8.001  1.7132 -0.0045  1.2988
 9109SOL    HW230920   7.401  10.491   7.947  0.6581 -0.9536 -1.2981
 9110SOL     OW30921   7.252  10.600   9.485  0.2523 -0.2644 -0.4566
 9110SOL    HW130922   7.234  10.555   9.403  0.7692  0.7923 -1.1686
 9110SOL    HW230923   7.347  10.610   9.487  0.2269 -0.0926  0.1729
 9111SOL     OW30924   5.612   6.184   3.571 -0.7381 -0.1798 -0.6483
 9111SOL    HW130925   5.612   6.122   3.498  0.8805  0.0450 -0.8636
 9111SOL    HW230926   5.704   6.206   3.585 -0.8571 -1.0615  2.1883
 9112SOL     OW30927   8.242   2.391   6.078  0.1720  0.2268 -0.0839
 9112SOL    HW130928   8.192   2.311   6.066 -0.5669  0.7783 -0.8692
 9112SOL    HW230929   8.284   2.406   5.993 -0.3354  1.0698 -0.2002
 9113SOL     OW30930   3.864   5.206   1.068  0.3048 -0.0200  0.1860
 9113SOL    HW130931   3.857   5.169   1.156  1.7687 -1.3720 -0.2248
 9113SOL    HW230932   3.894   5.133   1.014  1.6328  1.3410 -0.9888
 9114SOL     OW30933   6.679   3.603   9.271  0.1336 -0.1341 -0.5356
 9114SOL    HW130934   6.693   3.698   9.277  2.6733 -0.4711  0.0167
 9114SOL    HW230935   6.655   3.577   9.360  0.7923 -0.1646 -0.3588
 9115SOL     OW30936   0.012   5.268   7.730  0.2199 -0.0624  0.0924
 9115SOL    HW130937  -0.074   5.242   7.697  0.7900  0.1855 -1.7224
 9115SOL    HW230938  -0.007   5.326   7.804 -1.2081  0.6947 -0.8140
 9116SOL     OW30939   8.373   8.883   0.181 -0.1827 -0.5663 -0.2832
 9116SOL    HW130940   8.353   8.794   0.209  0.5653 -0.9014 -0.7530
 9116SOL    HW230941   8.400   8.929   0.260  0.2322 -1.0006 -0.1705
 9117SOL     OW30942   3.980   6.317   6.182 -0.0446  0.3192  0.5733
 9117SOL    HW130943   4.065   6.313   6.225 -0.3189  0.3577  1.1254
 9117SOL    HW230944   3.999   6.299   6.090  0.8522  2.3462  0.2983
 9118SOL     OW30945   8.142   7.077  10.687 -0.3521  0.0850 -0.0733
 9118SOL    HW130946   8.139   7.027  10.769  0.7279  1.2966  0.7505
 9118SOL    HW230947   8.085   7.152  10.702 -0.3411  0.1877 -0.5279
 9119SOL     OW30948   7.395   6.330   7.670 -0.4135 -0.0919  0.0726
 9119SOL    HW130949   7.309   6.301   7.636  0.5059 -1.3917 -1.3097
 9119SOL    HW230950   7.456   6.265   7.635  0.8994 -0.3802  2.7371
 9120SOL     OW30951   3.499   7.122   1.597  0.1152  0.2149  0.0448
 9120SOL    HW130952   3.555   7.152   1.669  1.2121  1.1655 -1.1375
 9120SOL    HW230953   3.544   7.152   1.518 -0.9329 -0.9874 -1.0598
 9121SOL     OW30954   3.791   4.596   7.218  0.2532  0.2049 -0.7131
 9121SOL    HW130955   3.740   4.677   7.211 -1.1048 -0.4362  0.9671
 9121SOL    HW230956   3.763   4.543   7.144 -1.1989  0.0807 -0.1171
 9122SOL     OW30957   0.574   0.593   4.618 -0.2804  0.4879  0.3038
 9122SOL    HW130958   0.510   0.578   4.548 -0.3091 -0.6006  0.5365
 9122SOL    HW230959   0.631   0.516   4.614 -0.1664  0.5068  1.3417
 9123SOL     OW30960   3.145   5.071   9.879 -0.0723 -0.8586  0.4568
 9123SOL    HW130961   3.102   5.037   9.801 -2.0091  1.4653  0.3871
 9123SOL    HW230962   3.213   5.130   9.846 -0.9689  0.2144  0.5016
 9124SOL     OW30963   6.328   0.640  10.326 -0.2680 -0.7247  0.0361
 9124SOL    HW130964   6.237   0.668  10.340  0.2594  0.7311  0.7538
 9124SOL    HW230965   6.359   0.695  10.254  0.5404 -0.0090  0.9070
 9125SOL     OW30966   2.966   2.678   6.833  0.3707 -0.0521 -0.0380
 9125SOL    HW130967   3.037   2.618   6.856 -1.1980 -1.5198  1.2806
 9125SOL    HW230968   2.920   2.693   6.916 -0.0483  2.0089 -0.5747
 9126SOL     OW30969   2.986   7.052   7.239  0.8686  0.2564  0.5293
 9126SOL    HW130970   2.916   7.067   7.174  1.7234 -0.3886 -0.5799
 9126SOL    HW230971   2.942   7.007   7.311  0.0228  0.3682  0.1046
 9127SOL     OW30972   3.612   0.523   2.519  0.0181 -0.2631  0.6475
 9127SOL    HW130973   3.555   0.543   2.444 -0.4373  0.7059  1.2249
 9127SOL    HW230974   3.551   0.510   2.592  0.5071  1.3382  1.3961
 9128SOL     OW30975   0.097   8.217   5.854  0.1477  0.2527 -0.1036
 9128SOL    HW130976   0.133   8.265   5.780 -0.7267 -0.9876 -1.3749
 9128SOL    HW230977   0.133   8.129   5.845  1.6357  0.5408  2.1219
 9129SOL     OW30978   1.618   7.989  10.641 -0.1364  0.4643  0.1832
 9129SOL    HW130979   1.564   7.981  10.562 -1.0591  2.3641  0.5500
 9129SOL    HW230980   1.707   8.002  10.608 -0.1473 -0.9324 -0.4705
 9130SOL     OW30981   2.716   7.479   5.566  0.0291 -0.1049  0.3383
 9130SOL    HW130982   2.721   7.474   5.661  0.4137 -2.1609  0.2452
 9130SOL    HW230983   2.632   7.441   5.543 -0.1602  0.5787 -0.1557
 9131SOL     OW30984  10.374   7.796   1.431 -0.0272 -0.2269 -0.0779
 9131SOL    HW130985  10.407   7.724   1.484 -2.9511 -1.7161 -0.0395
 9131SOL    HW230986  10.446   7.818   1.372  0.8718 -3.5211 -0.4029
 9132SOL     OW30987  11.032   6.238   8.214 -0.1211 -0.5862  0.2737
 9132SOL    HW130988  11.054   6.147   8.194  2.6080  0.1157 -0.3588
 9132SOL    HW230989  10.998   6.236   8.303  2.7502 -1.9346  1.4544
 9133SOL     OW30990   4.720   5.801   7.162 -0.4632  0.0340  0.2505
 9133SOL    HW130991   4.636   5.841   7.183  0.3268  1.3899  0.9874
 9133SOL    HW230992   4.764   5.789   7.246 -0.2848 -1.5654 -0.0371
 9134SOL     OW30993   6.699   3.689   6.040  0.1995 -0.7778  0.1457
 9134SOL    HW130994   6.643   3.630   6.090  1.3679 -2.8067 -0.8379
 9134SOL    HW230995   6.735   3.749   6.105 -1.0128 -1.1161  1.1708
 9135SOL     OW30996   6.783   4.601   7.177 -0.1922 -0.1330 -0.2324
 9135SOL    HW130997   6.835   4.617   7.256  0.0087 -1.1181 -0.1495
 9135SOL    HW230998   6.812   4.669   7.116  1.2746 -0.7048 -0.2164
 9136SOL     OW30999  10.554   8.528   3.849 -0.6960 -0.2812  0.2306
 9136SOL    HW131000  10.518   8.442   3.871  2.1896 -1.3971  1.1483
 9136SOL    HW231001  10.627   8.509   3.791 -1.6034  1.8485 -1.7579
 9137SOL     OW31002   9.661   4.066   3.584 -0.4182 -0.1669  0.4967
 9137SOL    HW131003   9.604   4.107   3.519  0.7267  0.3053 -0.2580
 9137SOL    HW231004   9.743   4.116   3.578  0.1795 -1.0099  1.3224
 9138SOL     OW31005   9.955   3.544  10.098  0.0786 -0.2248  0.5881
 9138SOL    HW131006   9.986   3.454  10.105  1.6791  0.3438  1.3415
 9138SOL    HW231007   9.983   3.586  10.179  1.0518  1.4100 -0.5264
 9139SOL     OW31008   0.808   0.535   2.983  0.2298 -0.2090  0.1881
 9139SOL    HW131009   0.747   0.473   2.944  0.1900 -0.1197  0.1061
 9139SOL    HW231010   0.895   0.501   2.961  0.2073  0.0303 -0.2878
 9140SOL     OW31011   2.621   1.266   4.665 -0.0505  0.6525  0.1205
 9140SOL    HW131012   2.541   1.214   4.661  0.2546  0.1127  0.7773
 9140SOL    HW231013   2.663   1.240   4.747  2.0630 -0.9802 -1.3584
 9141SOL     OW31014   6.877   5.587   3.658  0.5948  0.3157 -0.2521
 9141SOL    HW131015   6.970   5.608   3.650  0.7267 -0.1849 -0.0574
 9141SOL    HW231016   6.873   5.518   3.724 -0.0121  0.9652  0.4153
 9142SOL     OW31017   9.045   6.228  10.939 -0.1627 -0.1157  0.1006
 9142SOL    HW131018   8.963   6.181  10.957  0.0565 -1.4977 -2.1233
 9142SOL    HW231019   9.021   6.299  10.880 -0.1218  1.2121  1.6121
 9143SOL     OW31020   3.382   1.289   2.758  0.4542  0.3134 -0.2762
 9143SOL    HW131021   3.321   1.275   2.831  1.0174 -0.5649  0.0489
 9143SOL    HW231022   3.418   1.202   2.741  0.2833  0.4925 -1.6552
 9144SOL     OW31023   7.868   3.170   5.123 -0.3700  0.2689  0.1198
 9144SOL    HW131024   7.849   3.261   5.099 -0.2623  0.2669  0.0255
 9144SOL    HW231025   7.902   3.176   5.213  1.3211  0.5223 -0.4995
 9145SOL     OW31026   7.966   1.891   7.210 -0.4780 -0.0502  0.0525
 9145SOL    HW131027   8.054   1.853   7.215 -0.2930  0.5012  1.5700
 9145SOL    HW231028   7.981   1.984   7.190 -0.7834 -0.2050 -0.9123
 9146SOL     OW31029  10.280   6.748   5.695 -0.3089  0.6365  0.0003
 9146SOL    HW131030  10.242   6.797   5.622 -0.3959  2.7336  1.3607
 9146SOL    HW231031  10.314   6.816   5.754  0.2307 -0.9986  1.6498
 9147SOL     OW31032   6.424   0.945   7.522  0.4089  0.5889  0.7002
 9147SOL    HW131033   6.375   1.005   7.579  1.4187  1.2749  0.8642
 9147SOL    HW231034   6.467   0.885   7.583  0.3025  0.3928  0.5840
 9148SOL     OW31035   7.828   6.134   7.693 -0.5846  0.4443  0.2502
 9148SOL    HW131036   7.806   6.098   7.779 -0.8651 -0.6099 -0.2429
 9148SOL    HW231037   7.824   6.059   7.634 -1.5397  1.3413 -0.8952
 9149SOL     OW31038   3.301   2.572   5.791  0.0297 -0.2731 -0.0180
 9149SOL    HW131039   3.289   2.546   5.700 -1.1688 -0.7240  0.2429
 9149SOL    HW231040   3.214   2.563   5.830  0.3115  0.8368  0.9391
 9150SOL     OW31041   7.473   6.081   8.362  0.6555  0.5607  0.3993
 9150SOL    HW131042   7.540   6.142   8.393  1.1251  0.0346  0.4193
 9150SOL    HW231043   7.414   6.136   8.310  0.4627  1.2446  1.3047
 9151SOL     OW31044   7.440   5.989   3.006  0.5984  0.6600 -0.5234
 9151SOL    HW131045   7.448   6.084   3.015 -1.7630  0.7529  1.7278
 9151SOL    HW231046   7.450   5.973   2.912  0.9582  3.1315 -0.9792
 9152SOL     OW31047   7.615   2.088   0.665  0.2282  0.1226 -0.6803
 9152SOL    HW131048   7.589   2.005   0.703 -1.4247  0.4585 -1.0362
 9152SOL    HW231049   7.709   2.079   0.650  0.2299 -1.3437  0.0809
 9153SOL     OW31050  10.540   9.569   3.516  0.3502 -0.3425 -1.1535
 9153SOL    HW131051  10.626   9.610   3.525  0.3477  0.2837 -3.4446
 9153SOL    HW231052  10.558   9.483   3.479  0.0892 -1.0079  0.2042
 9154SOL     OW31053   1.037   6.136   0.754  0.1362  0.1725  0.1531
 9154SOL    HW131054   0.977   6.190   0.806  2.1590  1.7764  0.9933
 9154SOL    HW231055   1.097   6.098   0.819  1.3805  0.4313 -0.8075
 9155SOL     OW31056   9.774   2.546   8.947  0.8381 -0.5786  0.2271
 9155SOL    HW131057   9.842   2.598   8.904 -0.0404  1.0602  0.7135
 9155SOL    HW231058   9.697   2.555   8.890  0.2548 -0.0862  1.0589
 9156SOL     OW31059   4.516   7.452   2.637  0.1510 -0.2985 -0.4274
 9156SOL    HW131060   4.521   7.508   2.559  0.2209  0.8956  0.4061
 9156SOL    HW231061   4.446   7.390   2.617 -1.2942  1.3237 -0.6182
 9157SOL     OW31062   5.100   1.850  10.491 -0.0057 -0.1789  0.6577
 9157SOL    HW131063   5.106   1.784  10.560 -1.1668 -1.1365 -0.1209
 9157SOL    HW231064   5.008   1.879  10.493  0.8460  2.8205  2.2057
 9158SOL     OW31065   3.222   1.342  11.082  0.3685  0.1041  0.3977
 9158SOL    HW131066   3.246   1.311  11.169  1.9630  2.4028  0.8605
 9158SOL    HW231067   3.235   1.436  11.086 -1.8575  0.5876 -1.6373
 9159SOL     OW31068   1.245   8.531   9.069 -0.2559  0.2368  0.6846
 9159SOL    HW131069   1.235   8.437   9.086  2.9404 -0.1935  0.7875
 9159SOL    HW231070   1.272   8.568   9.153  1.3449  0.6953  0.0082
 9160SOL     OW31071   1.614  10.293   8.209 -0.0622 -0.0454  0.0757
 9160SOL    HW131072   1.674  10.346   8.157  0.1108 -0.3404 -0.0255
 9160SOL    HW231073   1.670  10.233   8.258 -0.2695 -0.2718  0.0391
 9161SOL     OW31074   9.143  10.334   2.167  0.0897 -0.3780  0.3270
 9161SOL    HW131075   9.197  10.387   2.225  0.1128 -0.0198 -0.0175
 9161SOL    HW231076   9.060  10.323   2.214 -0.0559  0.2875  0.2423
 9162SOL     OW31077   5.551   8.986   7.772 -0.1240 -0.2505  0.0627
 9162SOL    HW131078   5.458   8.966   7.775  0.3034 -2.4022  0.3133
 9162SOL    HW231079   5.594   8.901   7.776  1.9352  0.7589  2.6998
 9163SOL     OW31080   2.297   1.399   4.544 -0.1647 -0.0085 -0.1270
 9163SOL    HW131081   2.317   1.449   4.623 -1.8225  0.3261  0.1241
 9163SOL    HW231082   2.232   1.452   4.497  1.1495  0.0447 -1.9949
 9164SOL     OW31083   3.625   5.452   0.080 -0.4218  0.0570  0.0621
 9164SOL    HW131084   3.640   5.362   0.106  2.1053 -0.2376 -1.9621
 9164SOL    HW231085   3.704   5.498   0.108 -0.9124  1.2647 -0.4649
 9165SOL     OW31086   0.380   7.428   6.708  0.4270  0.2569  0.1623
 9165SOL    HW131087   0.431   7.465   6.780  2.3510 -0.1008 -0.9714
 9165SOL    HW231088   0.328   7.359   6.749 -0.0164  1.3564  1.5367
 9166SOL     OW31089   6.896  10.795   2.206  0.2341  0.1971 -0.2566
 9166SOL    HW131090   6.825  10.854   2.179  0.5281  0.4465 -0.4850
 9166SOL    HW231091   6.976  10.846   2.194  0.4384  0.0095  0.2492
 9167SOL     OW31092   8.537   5.979   5.271  0.5437 -0.1896 -0.6635
 9167SOL    HW131093   8.453   5.983   5.317 -0.0174 -0.5337 -1.6391
 9167SOL    HW231094   8.584   5.907   5.313  1.1311  1.1475  1.1196
 9168SOL     OW31095   1.128   7.327   0.680  0.5673  0.0012  0.5653
 9168SOL    HW131096   1.095   7.416   0.688 -1.3027 -0.6271  0.3854
 9168SOL    HW231097   1.131   7.310   0.586 -2.1797 -1.1254  0.5847
 9169SOL     OW31098   9.493  11.092   4.182  0.3023 -0.0570  0.0695
 9169SOL    HW131099   9.486  11.106   4.276  2.8138 -0.3199  0.3869
 9169SOL    HW231100   9.549  11.163   4.151 -0.1867 -0.1824 -1.1696
 9170SOL     OW31101   1.975   9.577   7.105  0.0713  0.3527  0.3932
 9170SOL    HW131102   1.904   9.636   7.078  0.6571  0.2938 -1.4009
 9170SOL    HW231103   2.044   9.635   7.136  1.1232  0.7786 -2.5048
 9171SOL     OW31104   7.281   3.544   9.644  0.2705  0.2754  0.2745
 9171SOL    HW131105   7.204   3.495   9.675  1.6368 -1.8750  0.5190
 9171SOL    HW231106   7.271   3.631   9.682 -0.8337 -0.6613  2.2806
 9172SOL     OW31107   1.096   4.441   4.983 -0.3870 -0.0953  0.4235
 9172SOL    HW131108   1.107   4.352   4.948  0.2083  0.7786 -1.7883
 9172SOL    HW231109   1.019   4.475   4.938 -0.5770  0.5468  1.2121
 9173SOL     OW31110   5.123   4.738   7.522 -0.2737  0.1826  0.1938
 9173SOL    HW131111   5.192   4.760   7.460 -0.4147 -2.9525 -1.2301
 9173SOL    HW231112   5.165   4.744   7.608  0.7692  1.6040 -0.3795
 9174SOL     OW31113   0.632   1.469   7.841 -0.7067  0.0601 -0.0013
 9174SOL    HW131114   0.720   1.498   7.816 -0.0152 -1.3680  0.6778
 9174SOL    HW231115   0.616   1.393   7.785 -1.0556 -0.3402  0.6408
 9175SOL     OW31116   7.452   3.789   6.843 -0.5959 -0.2810  0.0215
 9175SOL    HW131117   7.463   3.882   6.863 -1.7065 -0.1306 -0.0439
 9175SOL    HW231118   7.517   3.745   6.897  0.4802  0.5827 -0.5159
 9176SOL     OW31119  10.294   9.438   6.696 -0.0527  0.3585  0.0428
 9176SOL    HW131120  10.377   9.443   6.744  0.5231  1.5121 -1.0310
 9176SOL    HW231121  10.232   9.485   6.752  0.1640  0.0533  0.5455
 9177SOL     OW31122   4.465   8.431   6.850 -0.1167 -0.0517 -0.3672
 9177SOL    HW131123   4.371   8.419   6.859 -0.4128  1.9322 -0.3912
 9177SOL    HW231124   4.501   8.399   6.933 -0.8007 -0.7683 -0.3359
 9178SOL     OW31125   4.027   5.904   8.444 -0.2954  0.2039 -0.0743
 9178SOL    HW131126   4.081   5.829   8.419  0.2159  0.1867  1.0188
 9178SOL    HW231127   4.025   5.959   8.366 -1.4988 -1.3894 -1.2353
 9179SOL     OW31128   2.270   5.623   7.787  0.4686  0.0606 -0.0237
 9179SOL    HW131129   2.274   5.716   7.810  0.2553  0.2391 -0.6967
 9179SOL    HW231130   2.191   5.591   7.831 -0.6572  0.6948 -1.4987
 9180SOL     OW31131   8.212   6.413   7.803  0.5445 -0.3353 -0.0840
 9180SOL    HW131132   8.192   6.358   7.878 -1.1362  1.4250  0.8389
 9180SOL    HW231133   8.134   6.408   7.748 -0.0692  1.7683  0.4917
 9181SOL     OW31134   4.818   7.476   9.041 -0.3165 -0.5029 -0.0429
 9181SOL    HW131135   4.735   7.523   9.033 -2.2786 -3.6642  0.3943
 9181SOL    HW231136   4.825   7.425   8.961  1.3850 -0.1520 -0.1709
 9182SOL     OW31137   1.164  10.764   9.388  0.0231  0.2511  0.2141
 9182SOL    HW131138   1.130  10.683   9.349  0.4600  0.2991 -0.2861
 9182SOL    HW231139   1.086  10.815   9.408 -0.3106 -0.6659  1.3735
 9183SOL     OW31140   5.766   7.416  11.029  0.4691  0.4604  0.0182
 9183SOL    HW131141   5.809   7.360  11.094 -0.5618  1.1313  1.3286
 9183SOL    HW231142   5.758   7.361  10.951  2.7208 -0.0227  0.0597
 9184SOL     OW31143   6.779   4.459   8.212  0.4697  0.0310 -0.0020
 9184SOL    HW131144   6.787   4.489   8.303 -2.3181 -1.0750  0.7172
 9184SOL    HW231145   6.709   4.514   8.175  1.1938  0.0901 -1.3196
 9185SOL     OW31146   2.597   9.587   7.580  0.8618 -0.3793 -0.3646
 9185SOL    HW131147   2.544   9.596   7.660  0.9812 -1.5433 -0.1394
 9185SOL    HW231148   2.621   9.677   7.558 -0.1242  0.0652  0.2612
 9186SOL     OW31149  10.535   4.162   0.375 -0.8716 -0.0436 -0.0790
 9186SOL    HW131150  10.441   4.170   0.363 -1.1577 -1.7897  0.7535
 9186SOL    HW231151  10.548   4.159   0.470 -0.0541 -0.4492 -0.1865
 9187SOL     OW31152   4.716   4.816   5.566  0.4126  0.2251 -0.2012
 9187SOL    HW131153   4.704   4.787   5.475 -0.6145  0.0511 -0.0242
 9187SOL    HW231154   4.792   4.874   5.563  0.9662 -0.5022 -1.0079
 9188SOL     OW31155   9.271   0.084   1.863 -0.5856 -0.0900  0.0259
 9188SOL    HW131156   9.215   0.146   1.818  1.3967  1.6549 -0.2173
 9188SOL    HW231157   9.263   0.106   1.955 -1.8080 -1.1979  0.2057
 9189SOL     OW31158   3.181   6.424  11.099 -0.3600  0.1860 -0.7808
 9189SOL    HW131159   3.260   6.371  11.097 -1.2390 -1.2341  0.1830
 9189SOL    HW231160   3.170   6.448  11.191 -2.0143 -1.2317 -0.5545
 9190SOL     OW31161  10.837   1.133   3.196 -0.0901  0.9324  0.3693
 9190SOL    HW131162  10.765   1.152   3.137  1.5154  0.6241 -1.8071
 9190SOL    HW231163  10.822   1.043   3.224  0.1860  0.3746 -1.2163
 9191SOL     OW31164   8.726   8.857  10.073 -0.3357  0.0314  0.1256
 9191SOL    HW131165   8.703   8.817   9.989  1.8398 -2.0369  0.3887
 9191SOL    HW231166   8.693   8.795  10.139 -0.5263  0.7679  0.7366
 9192SOL     OW31167   7.881   6.132   3.426  0.7273  0.5964  0.0787
 9192SOL    HW131168   7.892   6.192   3.500 -0.5592  0.4747  0.3968
 9192SOL    HW231169   7.845   6.052   3.464 -0.3107  0.6589 -0.7062
 9193SOL     OW31170   9.108   4.365   7.418  0.2136 -0.3657  0.0907
 9193SOL    HW131171   9.143   4.396   7.501 -0.1900  0.3682 -0.0114
 9193SOL    HW231172   9.013   4.368   7.428  0.1492  0.3866 -0.6236
 9194SOL     OW31173   8.058   5.656   2.064 -0.3296  0.4054 -0.5127
 9194SOL    HW131174   8.131   5.717   2.073 -1.8763  2.3752 -0.7000
 9194SOL    HW231175   8.092   5.588   2.006  2.1700 -0.1890  1.4191
 9195SOL     OW31176   8.241  10.202   3.567 -0.1177 -0.0344  0.3310
 9195SOL    HW131177   8.259  10.253   3.489  2.8483 -0.3356  0.7229
 9195SOL    HW231178   8.166  10.146   3.543  0.6452 -0.0411 -2.2414
 9196SOL     OW31179   4.040   1.716   1.117 -0.4386  0.2231 -0.1073
 9196SOL    HW131180   3.959   1.706   1.067 -0.0933  0.7229 -0.7992
 9196SOL    HW231181   4.025   1.668   1.198 -1.5533  0.5913 -0.0762
 9197SOL     OW31182   3.555   8.287   6.087 -0.6534 -0.2305  0.5577
 9197SOL    HW131183   3.585   8.255   6.002 -1.1701 -0.6447  0.5236
 9197SOL    HW231184   3.553   8.208   6.142  0.7723  0.2122  1.2916
 9198SOL     OW31185   5.370   0.136   1.043 -0.0127 -0.0743  0.1513
 9198SOL    HW131186   5.429   0.196   0.998 -0.7203  1.0438  0.6963
 9198SOL    HW231187   5.410   0.122   1.129  0.3578 -0.7213 -0.1159
 9199SOL     OW31188   3.812   9.709   1.589  0.8375 -0.2492 -0.7145
 9199SOL    HW131189   3.899   9.746   1.605  0.8332 -0.5064 -0.0638
 9199SOL    HW231190   3.758   9.742   1.661  0.1513  0.6711 -1.6291
 9200SOL     OW31191   4.062   1.516   3.468 -0.2410  0.1295 -0.6627
 9200SOL    HW131192   4.039   1.566   3.547 -0.4099 -0.2881 -0.4455
 9200SOL    HW231193   4.156   1.529   3.458 -0.1700 -0.0413 -0.2314
 9201SOL     OW31194   8.416   3.940   4.822 -0.1836  0.5257  0.1230
 9201SOL    HW131195   8.323   3.920   4.833 -0.1400 -0.1805 -0.6588
 9201SOL    HW231196   8.459   3.855   4.830  0.4180  0.8800  0.6996
 9202SOL     OW31197   0.098   9.460   2.457  0.2785 -0.3967 -0.3029
 9202SOL    HW131198   0.017   9.410   2.460 -0.1130  0.2641  1.2925
 9202SOL    HW231199   0.150   9.427   2.530  0.5683  0.5821 -0.0435
 9203SOL     OW31200   5.705   1.284   6.230 -0.2710 -0.0527  0.4601
 9203SOL    HW131201   5.682   1.356   6.289  0.3704  0.1366  0.4835
 9203SOL    HW231202   5.759   1.324   6.163 -1.5002 -0.1471 -0.6283
 9204SOL     OW31203   0.174   7.129   4.282 -0.4718 -0.1638  0.2950
 9204SOL    HW131204   0.245   7.150   4.223  0.0508 -2.5011 -0.0229
 9204SOL    HW231205   0.174   7.200   4.346  1.1667  0.6487 -0.5430
 9205SOL     OW31206   9.282   7.554   8.659  0.2239  0.5714 -0.5557
 9205SOL    HW131207   9.274   7.483   8.595 -1.5995 -1.0843  1.3185
 9205SOL    HW231208   9.357   7.530   8.712  1.5328  1.7716 -1.7894
 9206SOL     OW31209   7.704   5.223  10.880  0.0184 -0.1936 -0.3414
 9206SOL    HW131210   7.709   5.129  10.866  1.0855  0.0821 -2.1795
 9206SOL    HW231211   7.759   5.261  10.811 -2.4586  1.8800 -1.3611
 9207SOL     OW31212   3.989   0.611   0.781 -0.2384  0.0367 -0.3724
 9207SOL    HW131213   3.955   0.597   0.869 -0.0077 -0.5611 -0.3768
 9207SOL    HW231214   4.021   0.526   0.753 -0.5942  0.1539 -1.1622
 9208SOL     OW31215   8.726   7.871   8.573  0.2635  0.3980 -0.3402
 9208SOL    HW131216   8.669   7.919   8.513 -0.3678 -0.4394 -0.4167
 9208SOL    HW231217   8.671   7.801   8.608  0.7199  0.6760  0.9648
 9209SOL     OW31218   1.973   3.993  11.075 -0.3423  0.2743 -0.1931
 9209SOL    HW131219   1.966   3.939  11.154  1.4526 -0.5856 -0.5631
 9209SOL    HW231220   1.912   4.065  11.089 -1.5839 -0.9615  1.0578
 9210SOL     OW31221   5.104  10.333   6.531 -0.7609 -0.3334 -0.3383
 9210SOL    HW131222   5.181  10.301   6.578 -1.4173 -1.2775  0.1319
 9210SOL    HW231223   5.055  10.383   6.596 -0.2296  0.8400 -0.8133
 9211SOL     OW31224   6.510  10.515   0.785 -1.1530 -0.1875  0.4263
 9211SOL    HW131225   6.497  10.424   0.758 -0.2170 -0.4578  0.8617
 9211SOL    HW231226   6.531  10.561   0.704  1.6835 -1.0062  0.5773
 9212SOL     OW31227   2.480   2.980   9.851  0.6230  0.1829  0.1762
 9212SOL    HW131228   2.453   2.975   9.759 -0.8536  1.2615  0.5226
 9212SOL    HW231229   2.530   2.899   9.865  0.3820 -0.2869 -1.4036
 9213SOL     OW31230   3.388   5.225   3.521  0.5011  0.3184  0.3561
 9213SOL    HW131231   3.454   5.252   3.586 -0.7430  0.9407  1.4256
 9213SOL    HW231232   3.399   5.287   3.449  2.7634 -1.1738 -0.6797
 9214SOL     OW31233   4.434   3.561   3.189 -0.4718  0.1182 -0.0388
 9214SOL    HW131234   4.409   3.616   3.114 -0.7039  0.0320 -0.0274
 9214SOL    HW231235   4.351   3.524   3.219 -0.1712 -1.2381 -0.8316
 9215SOL     OW31236  10.970   3.497   0.437  0.1247  0.1131  0.1788
 9215SOL    HW131237  10.921   3.577   0.419  0.2204  0.2221  0.4004
 9215SOL    HW231238  11.024   3.519   0.513  0.2190 -0.1324  0.1814
 9216SOL     OW31239   7.301   2.390   3.606  0.5066 -0.8356 -0.4719
 9216SOL    HW131240   7.213   2.427   3.606  0.3896 -1.0722 -2.0248
 9216SOL    HW231241   7.357   2.462   3.633 -0.1533 -0.6960  0.5853
 9217SOL     OW31242   0.239   6.533   2.100  0.2249  0.1169 -0.7902
 9217SOL    HW131243   0.168   6.577   2.052 -0.0581 -0.6709 -1.1205
 9217SOL    HW231244   0.197   6.500   2.179  0.4629  0.5359 -0.4861
 9218SOL     OW31245   0.573   9.436   7.715  0.6393  0.1416  0.5541
 9218SOL    HW131246   0.631   9.506   7.684  0.8801 -0.6980 -1.0060
 9218SOL    HW231247   0.593   9.428   7.808  1.8287  1.0015  0.4023
 9219SOL     OW31248   1.342   5.303   3.291 -0.0643  0.3585  0.1873
 9219SOL    HW131249   1.392   5.246   3.233  0.1802  0.2269  0.5241
 9219SOL    HW231250   1.367   5.275   3.379  0.0277  0.9600  0.3543
 9220SOL     OW31251   1.593  10.609   5.516  0.2626 -0.1567  0.0341
 9220SOL    HW131252   1.581  10.539   5.452 -0.5565  0.0602 -0.0551
 9220SOL    HW231253   1.530  10.676   5.490  1.9397  1.2241 -0.7019
 9221SOL     OW31254   1.802   8.390   1.382  0.3507 -0.8749  0.0401
 9221SOL    HW131255   1.739   8.383   1.310 -0.3400 -1.3183  0.6659
 9221SOL    HW231256   1.858   8.464   1.358  0.3741 -1.2622 -1.1269
 9222SOL     OW31257   3.852   4.128   4.579  0.2871 -0.6266  0.1093
 9222SOL    HW131258   3.934   4.126   4.628 -0.4746 -0.5128  1.4232
 9222SOL    HW231259   3.844   4.219   4.549  0.7190 -0.6816 -0.1774
 9223SOL     OW31260   4.170   1.220   8.274  0.1304  0.3229 -0.7578
 9223SOL    HW131261   4.091   1.196   8.227 -0.3852  2.2887 -0.9726
 9223SOL    HW231262   4.173   1.160   8.349 -1.1929 -0.1992 -1.1000
 9224SOL     OW31263   5.915   1.064   7.431  0.1763 -0.5507 -0.6917
 9224SOL    HW131264   5.960   0.988   7.393 -0.0504 -0.9769 -0.1270
 9224SOL    HW231265   5.937   1.060   7.524  1.1438  0.7736 -0.8377
 9225SOL     OW31266   0.538  10.745  10.493  0.4213  0.9618 -0.3089
 9225SOL    HW131267   0.629  10.753  10.464  1.3048  0.0734  1.9564
 9225SOL    HW231268   0.520  10.828  10.538  0.4226  0.7891  0.0116
 9226SOL     OW31269   5.600   2.376   8.000 -0.0653 -0.1018 -0.0782
 9226SOL    HW131270   5.511   2.355   7.973  0.4628 -0.2895 -1.7808
 9226SOL    HW231271   5.635   2.294   8.033 -0.4715 -0.0606  0.4664
 9227SOL     OW31272   4.161  10.316   6.346  0.2266 -0.4345  0.3591
 9227SOL    HW131273   4.214  10.248   6.387 -2.6652 -1.8712  2.0608
 9227SOL    HW231274   4.120  10.274   6.271 -1.0499 -0.4479  1.0237
 9228SOL     OW31275   8.553   8.784   7.955 -0.1646  0.6136 -0.6077
 9228SOL    HW131276   8.478   8.732   7.924 -1.3416  0.8141  1.6746
 9228SOL    HW231277   8.591   8.731   8.025  1.5086  0.7990 -1.3221
 9229SOL     OW31278  10.217   2.439   4.590 -0.9431 -0.1458 -0.3801
 9229SOL    HW131279  10.291   2.492   4.558 -1.0555  0.8199  0.8679
 9229SOL    HW231280  10.140   2.495   4.576 -1.0842 -0.0180  0.8140
 9230SOL     OW31281   0.560   1.503   4.477  0.2105 -0.3239 -0.3103
 9230SOL    HW131282   0.610   1.421   4.481  0.1945 -0.3105  2.7789
 9230SOL    HW231283   0.469   1.475   4.464  0.1619 -0.8642  1.0345
 9231SOL     OW31284   6.763   0.799   3.405  0.4296  0.4612 -0.6752
 9231SOL    HW131285   6.696   0.834   3.346 -0.3660  0.6159  0.2736
 9231SOL    HW231286   6.833   0.864   3.404  0.5215  0.3542 -1.6009
 9232SOL     OW31287   4.541   3.249   7.858 -0.1361  0.0324  0.2985
 9232SOL    HW131288   4.486   3.294   7.922 -0.3042  2.2094 -1.2377
 9232SOL    HW231289   4.480   3.221   7.789  0.1939 -1.1176  0.4619
 9233SOL     OW31290   9.497   3.988   8.011  0.0377 -0.0082 -0.4653
 9233SOL    HW131291   9.544   3.993   8.094  0.1633 -1.0727 -0.4668
 9233SOL    HW231292   9.409   3.959   8.035 -0.1016  0.2676 -0.6431
 9234SOL     OW31293   2.961   8.421   8.502  0.5533 -0.1531 -0.3196
 9234SOL    HW131294   2.898   8.371   8.451  1.1831  0.8663 -2.1608
 9234SOL    HW231295   2.924   8.422   8.591 -2.2669  0.8252 -1.4172
 9235SOL     OW31296  10.368   5.351   4.739 -0.4675  0.6742 -0.0715
 9235SOL    HW131297  10.383   5.374   4.648  1.9407 -1.8995 -0.4656
 9235SOL    HW231298  10.445   5.383   4.785 -0.3024 -0.5343  0.5274
 9236SOL     OW31299   1.392   2.584   7.595 -0.0849  0.0497  0.6957
 9236SOL    HW131300   1.320   2.613   7.537  0.4830 -0.6004 -0.3634
 9236SOL    HW231301   1.463   2.562   7.535  0.3403 -1.1771  1.6289
 9237SOL     OW31302   4.447   4.231  10.161 -0.3203  0.3056  0.0602
 9237SOL    HW131303   4.479   4.271  10.079 -0.3028  0.8722  0.3399
 9237SOL    HW231304   4.413   4.146  10.134  3.0958 -1.2226 -0.0400
 9238SOL     OW31305   7.809   9.901   2.848 -0.7055 -0.4331  0.4786
 9238SOL    HW131306   7.765   9.852   2.917  0.5998 -0.1461  1.5602
 9238SOL    HW231307   7.772   9.990   2.855 -1.2504 -0.6359  0.1879
 9239SOL     OW31308   6.895   5.277   3.083 -0.1098  0.8218  0.1721
 9239SOL    HW131309   6.964   5.325   3.129 -0.1613  0.8631  0.2082
 9239SOL    HW231310   6.862   5.215   3.149 -0.5382  1.2396  0.3621
 9240SOL     OW31311   0.694   0.244  10.570  0.3921  0.1972 -0.0072
 9240SOL    HW131312   0.738   0.229  10.486  1.2541 -1.5310  0.7030
 9240SOL    HW231313   0.644   0.165  10.586  1.3609 -0.1271  1.7387
 9241SOL     OW31314   5.671   6.113   5.585  0.0814 -0.1657  0.6946
 9241SOL    HW131315   5.625   6.060   5.651  0.8221  0.0001  1.3648
 9241SOL    HW231316   5.760   6.122   5.620  0.1374  0.9928  0.2836
 9242SOL     OW31317   8.129   8.795   5.060 -0.0305  0.2792 -0.1372
 9242SOL    HW131318   8.139   8.888   5.041  1.6976 -0.0273 -0.8952
 9242SOL    HW231319   8.216   8.768   5.091 -1.1391 -0.5678  2.4672
 9243SOL     OW31320  10.019   9.509   0.710 -0.2902  0.0686  0.0138
 9243SOL    HW131321  10.019   9.414   0.720 -0.1450  0.0854  0.1843
 9243SOL    HW231322  10.007   9.524   0.617  1.0865 -0.1416 -0.2124
 9244SOL     OW31323   1.085   3.323   1.491 -0.4093  0.0246 -0.2096
 9244SOL    HW131324   1.068   3.254   1.555 -2.0861  0.1441 -0.4946
 9244SOL    HW231325   1.046   3.401   1.529  1.7090  0.9215  0.2324
 9245SOL     OW31326   4.086   7.172   3.225  0.2344  0.0879 -0.2093
 9245SOL    HW131327   3.997   7.193   3.197 -0.4024 -1.1533  0.7957
 9245SOL    HW231328   4.133   7.153   3.144 -0.3976  0.7747 -0.7516
 9246SOL     OW31329   0.663   5.223   1.891 -0.3737 -0.0699 -0.0932
 9246SOL    HW131330   0.668   5.155   1.823 -2.8050 -3.0710  2.3983
 9246SOL    HW231331   0.713   5.186   1.964 -0.0604  1.8359  0.7025
 9247SOL     OW31332   6.562   6.932   2.030 -0.1423 -0.5685 -0.5446
 9247SOL    HW131333   6.532   6.891   2.111  0.4217 -0.3580 -0.2289
 9247SOL    HW231334   6.594   7.018   2.056  1.0680 -0.9184 -0.8098
 9248SOL     OW31335   6.000   3.254   6.963 -0.0520  0.1391 -0.1852
 9248SOL    HW131336   6.032   3.235   7.051 -0.3722 -0.2309 -0.1470
 9248SOL    HW231337   5.910   3.222   6.963 -0.6421  1.7024 -0.0979
 9249SOL     OW31338   7.735   9.574   2.165 -0.0988  0.0409 -0.2549
 9249SOL    HW131339   7.763   9.660   2.132  0.6880  0.8517  2.2874
 9249SOL    HW231340   7.640   9.574   2.153 -0.3132  1.9281  0.9421
 9250SOL     OW31341   2.285   3.395   0.429 -0.1443 -0.1944  0.2368
 9250SOL    HW131342   2.375   3.362   0.428  0.5356  1.6104 -0.6114
 9250SOL    HW231343   2.285   3.461   0.498 -0.1245  1.5349 -1.3371
 9251SOL     OW31344   9.406   3.582   9.605  0.5135  0.7201 -0.2837
 9251SOL    HW131345   9.408   3.590   9.701  0.4945  2.0858 -0.3773
 9251SOL    HW231346   9.316   3.555   9.586  1.0702 -1.7112  0.1819
 9252SOL     OW31347   9.854   4.071   7.643 -0.6026 -0.1420 -0.2732
 9252SOL    HW131348   9.846   4.031   7.729  2.6872 -0.6044 -0.0339
 9252SOL    HW231349   9.806   4.154   7.649 -0.3704 -0.1280  2.0337
 9253SOL     OW31350   0.697   2.645   9.798  0.1629  0.4837  0.3198
 9253SOL    HW131351   0.677   2.560   9.760  0.4537  0.4867  0.1519
 9253SOL    HW231352   0.676   2.708   9.729 -0.3398  0.5729  0.5500
 9254SOL     OW31353   6.431  11.017   0.286 -0.0226 -0.3075  0.2408
 9254SOL    HW131354   6.500  11.070   0.244 -0.2940  1.7578  2.1970
 9254SOL    HW231355   6.351  11.068   0.273 -0.4265 -0.5751  1.5440
 9255SOL     OW31356   0.163   3.038   6.289  0.0365 -0.4874 -0.3119
 9255SOL    HW131357   0.067   3.040   6.298 -0.1498 -0.3164 -1.9715
 9255SOL    HW231358   0.195   3.095   6.359 -1.1715  0.7150 -0.6905
 9256SOL     OW31359   8.630   8.428   1.400  0.1900 -0.2052  0.3717
 9256SOL    HW131360   8.545   8.426   1.443  0.0800  0.0048  0.1570
 9256SOL    HW231361   8.670   8.344   1.424  0.2580  0.0417  1.1510
 9257SOL     OW31362   3.118  10.359   8.580  0.0522  0.2605 -0.7124
 9257SOL    HW131363   3.032  10.340   8.618  0.2593 -0.0807 -0.4076
 9257SOL    HW231364   3.167  10.401   8.650  1.1070 -2.1474  0.0976
 9258SOL     OW31365   2.798   8.918   0.019 -0.0478 -0.3024 -0.6123
 9258SOL    HW131366   2.857   8.994   0.023 -1.0571  0.4861  2.1195
 9258SOL    HW231367   2.849   8.847   0.057 -0.2060 -0.0832  0.0338
 9259SOL     OW31368   8.667   4.078   4.808  0.0146 -0.3249 -0.7043
 9259SOL    HW131369   8.722   4.018   4.857 -0.6877 -1.4065 -1.1990
 9259SOL    HW231370   8.577   4.056   4.834 -0.2458  0.7871 -0.5977
 9260SOL     OW31371   6.772   5.704   2.628  0.1351 -0.2432  0.4169
 9260SOL    HW131372   6.683   5.719   2.661  0.8775  2.0744  1.6028
 9260SOL    HW231373   6.828   5.709   2.706  1.4630  0.2250 -0.5248
 9261SOL     OW31374   3.644   1.740   4.499  0.0537  0.4537 -1.2947
 9261SOL    HW131375   3.668   1.823   4.458  0.5243 -0.3809 -2.7608
 9261SOL    HW231376   3.714   1.679   4.474  0.8780  0.0793  1.5028
 9262SOL     OW31377   4.869   6.056   2.468 -0.5906 -0.0784  0.0462
 9262SOL    HW131378   4.822   6.062   2.384 -1.4170  0.3917  0.5308
 9262SOL    HW231379   4.812   6.101   2.530  0.5365  0.5594  0.6396
 9263SOL     OW31380  10.342   2.126   3.300 -0.1645 -0.7328  0.2247
 9263SOL    HW131381  10.293   2.166   3.229  1.6657  3.4472  1.0247
 9263SOL    HW231382  10.303   2.160   3.380  2.4155  0.8922  0.9243
 9264SOL     OW31383   8.821   7.754  10.463 -0.3706  0.4125 -0.5785
 9264SOL    HW131384   8.829   7.813  10.388 -1.0127  2.2312  0.6889
 9264SOL    HW231385   8.741   7.705  10.446  0.4438 -0.5007 -1.9022
 9265SOL     OW31386   2.708   0.756   2.273  0.1682  0.1079 -0.7315
 9265SOL    HW131387   2.731   0.741   2.182 -0.1053 -1.4997 -0.5638
 9265SOL    HW231388   2.703   0.669   2.312 -0.0686  0.7376  0.7392
 9266SOL     OW31389   5.306   3.929   5.986  0.1195  0.1403 -0.1658
 9266SOL    HW131390   5.329   4.022   5.998 -0.2573  0.1696  0.3688
 9266SOL    HW231391   5.258   3.927   5.903  2.4847 -0.0121 -1.6286
 9267SOL     OW31392   1.244   7.679   4.380  0.2508  0.0394  0.3227
 9267SOL    HW131393   1.245   7.723   4.465  1.9209 -1.7524  1.2996
 9267SOL    HW231394   1.200   7.596   4.396 -0.8581  0.3346 -0.9856
 9268SOL     OW31395   7.484   6.742   4.399  0.1094 -0.3305  0.0077
 9268SOL    HW131396   7.502   6.767   4.308 -1.9703  0.7908 -0.1486
 9268SOL    HW231397   7.410   6.682   4.394  0.7886 -1.2788  0.9052
 9269SOL     OW31398   8.129  11.084   6.794 -0.0388  0.2132 -0.1251
 9269SOL    HW131399   8.141  11.137   6.715  1.6311  0.4178  0.2242
 9269SOL    HW231400   8.170  11.135   6.864  0.3654 -0.8917  0.4771
 9270SOL     OW31401   4.191   2.550   5.102 -0.4589 -0.0952 -0.0170
 9270SOL    HW131402   4.122   2.600   5.146 -1.0714 -0.1848 -0.8611
 9270SOL    HW231403   4.159   2.539   5.012 -0.8800 -2.9231  0.3779
 9271SOL     OW31404   7.503   3.597   3.990  0.2759 -0.3696  0.2029
 9271SOL    HW131405   7.574   3.535   3.974  0.7757 -0.0685  1.1703
 9271SOL    HW231406   7.539   3.682   3.963 -0.3941 -0.4727 -1.0842
 9272SOL     OW31407   1.897  10.758   5.025 -0.6374 -0.5676  0.4784
 9272SOL    HW131408   1.923  10.685   4.970 -2.1949  0.3063 -1.5289
 9272SOL    HW231409   1.969  10.821   5.018 -0.7829 -0.5050 -0.5124
 9273SOL     OW31410   1.477  11.005   9.858 -0.0889 -0.5290 -0.0469
 9273SOL    HW131411   1.540  10.945   9.819  1.2357  1.1755 -0.6358
 9273SOL    HW231412   1.514  11.027   9.943  1.4771  2.3815 -1.3720
 9274SOL     OW31413  10.045   8.239   7.988 -0.6192 -0.2539 -0.4477
 9274SOL    HW131414  10.127   8.198   8.016 -0.7886 -0.9094 -0.8741
 9274SOL    HW231415   9.984   8.220   8.060 -0.6744 -0.6835 -0.6066
 9275SOL     OW31416   7.106   4.999   1.545 -0.1565 -0.0002 -0.2915
 9275SOL    HW131417   7.041   4.932   1.525 -0.9530  0.7433 -0.2503
 9275SOL    HW231418   7.173   4.954   1.596  0.8852 -1.4895 -2.7607
 9276SOL     OW31419   9.548   7.390   5.621 -0.3641  0.2170 -0.2804
 9276SOL    HW131420   9.473   7.438   5.586 -0.6877 -0.3777 -0.4142
 9276SOL    HW231421   9.603   7.370   5.545 -0.4815 -0.0564 -0.2951
 9277SOL     OW31422   6.089   6.510   6.788 -0.3241 -0.0584  0.0663
 9277SOL    HW131423   6.044   6.585   6.828 -1.1181 -0.2926 -0.3603
 9277SOL    HW231424   6.019   6.446   6.772 -0.3168  0.5124 -2.8184
 9278SOL     OW31425   0.520  10.510   4.888  0.0335 -0.0452  0.7351
 9278SOL    HW131426   0.606  10.543   4.913 -0.1803  0.6931  0.5098
 9278SOL    HW231427   0.494  10.454   4.961  0.9286 -0.7036  0.5666
 9279SOL     OW31428   9.099   6.483   2.011 -0.1312 -0.2661  0.1628
 9279SOL    HW131429   9.186   6.452   2.038  1.3546  2.5766 -0.9495
 9279SOL    HW231430   9.106   6.578   2.014 -3.5105  0.0816  0.7676
 9280SOL     OW31431   4.084   7.636   9.892 -0.1318  0.1593  0.2162
 9280SOL    HW131432   4.097   7.570   9.960 -1.2673 -0.1120  0.1804
 9280SOL    HW231433   4.109   7.591   9.811 -1.1415 -0.3299  0.1597
 9281SOL     OW31434   4.469   1.217   8.305  0.3093 -0.5565  0.0113
 9281SOL    HW131435   4.512   1.255   8.382  2.1957 -3.2999  0.4879
 9281SOL    HW231436   4.382   1.194   8.335  1.6517 -3.4986  2.2153
 9282SOL     OW31437   9.497   5.656  11.036 -0.7792 -0.0900  0.2396
 9282SOL    HW131438   9.492   5.652  11.131  0.9273 -1.2623  0.3282
 9282SOL    HW231439   9.569   5.716  11.018 -1.6516  0.8040 -0.3452
 9283SOL     OW31440   7.861   3.105   4.479 -0.0454  0.4272  0.3853
 9283SOL    HW131441   7.853   3.137   4.389 -0.9010 -0.5546  0.0841
 9283SOL    HW231442   7.940   3.052   4.479 -0.4052 -0.1244  0.0160
 9284SOL     OW31443   4.777   7.688   2.676 -0.5315 -0.2039 -0.3227
 9284SOL    HW131444   4.709   7.739   2.633 -1.8524 -1.9808 -0.4533
 9284SOL    HW231445   4.784   7.608   2.624  3.0612  0.6448 -1.4494
 9285SOL     OW31446   6.267   7.136   2.384  0.4212  0.5034  0.0176
 9285SOL    HW131447   6.213   7.107   2.458 -0.1816  0.1941 -0.5425
 9285SOL    HW231448   6.217   7.112   2.306  2.0292 -1.1635 -0.5597
 9286SOL     OW31449   5.437   8.426   1.905 -0.5811 -0.0557 -0.2791
 9286SOL    HW131450   5.525   8.400   1.932 -0.0682  0.1083 -1.7238
 9286SOL    HW231451   5.382   8.349   1.922  0.0845 -0.5935 -0.5612
 9287SOL     OW31452   9.386   9.638   5.186 -0.1491 -0.6049  0.3101
 9287SOL    HW131453   9.354   9.556   5.222 -0.4350 -0.7337 -0.2304
 9287SOL    HW231454   9.310   9.696   5.185  0.4534  0.3160  2.4672
 9288SOL     OW31455   2.316   7.506   0.712 -0.7096  0.2246 -0.9754
 9288SOL    HW131456   2.330   7.530   0.620  0.3298  2.4680 -0.2898
 9288SOL    HW231457   2.227   7.535   0.731 -1.2385 -0.9916 -1.4417
 9289SOL     OW31458   0.490   2.035   0.189 -0.2295 -0.0934  0.2351
 9289SOL    HW131459   0.443   2.078   0.260  0.9575  1.3429  0.2099
 9289SOL    HW231460   0.564   1.992   0.231  0.2522  0.4269 -0.0541
 9290SOL     OW31461   5.377   0.032   9.187 -0.3443  0.2873 -0.8998
 9290SOL    HW131462   5.455   0.054   9.136 -0.0113  2.3479  0.3861
 9290SOL    HW231463   5.409   0.017   9.275 -1.1259 -1.4464 -0.8799
 9291SOL     OW31464   9.773   4.770   1.824 -0.4117  0.1636 -0.0882
 9291SOL    HW131465   9.854   4.819   1.810 -0.5357  0.3711 -0.0909
 9291SOL    HW231466   9.786   4.724   1.907 -1.3660  2.4665  1.4680
 9292SOL     OW31467   7.116   3.169   9.146 -0.1214 -0.1551 -0.1845
 9292SOL    HW131468   7.069   3.112   9.084 -2.3451  4.0790 -2.8861
 9292SOL    HW231469   7.055   3.181   9.218  0.1002 -0.6808  0.0949
 9293SOL     OW31470   4.458  11.086   0.218 -0.0725 -0.3398  0.0665
 9293SOL    HW131471   4.389  11.045   0.167 -1.8705  1.7433  0.6665
 9293SOL    HW231472   4.533  11.092   0.158 -1.3626 -0.0672 -1.5773
 9294SOL     OW31473   4.078   3.723   8.345  0.6609 -0.1771  0.0792
 9294SOL    HW131474   4.092   3.633   8.317  1.5800  0.2583 -0.9524
 9294SOL    HW231475   4.152   3.742   8.402  0.1416 -0.2544  0.7932
 9295SOL     OW31476   6.635   1.988   3.117 -0.0970 -0.4488  0.2721
 9295SOL    HW131477   6.587   2.036   3.186 -0.3463 -0.8621  0.3906
 9295SOL    HW231478   6.707   1.946   3.164 -1.5624 -2.6131  0.7282
 9296SOL     OW31479  10.880  10.312   5.505  0.0048 -0.2062  0.4015
 9296SOL    HW131480  10.907  10.233   5.459  0.5911 -0.9921  2.0211
 9296SOL    HW231481  10.785  10.306   5.512  0.1127 -1.2298  1.2487
 9297SOL     OW31482   8.119   3.809   3.075  0.9833  0.3057  0.1414
 9297SOL    HW131483   8.090   3.819   2.985 -3.5596  0.6333  1.4107
 9297SOL    HW231484   8.129   3.898   3.108  0.0702  0.2526  0.6022
 9298SOL     OW31485   4.966   9.561   1.463 -0.0217 -0.1725  0.2466
 9298SOL    HW131486   4.910   9.561   1.541 -1.2403 -0.1689 -0.6050
 9298SOL    HW231487   4.997   9.471   1.456  0.6496 -0.0250  1.1062
 9299SOL     OW31488   5.384   3.026   6.139 -0.6674 -0.3927 -0.2587
 9299SOL    HW131489   5.377   3.122   6.132 -0.2162 -0.2373  1.0438
 9299SOL    HW231490   5.479   3.010   6.143 -0.7580 -0.8301  0.1816
 9300SOL     OW31491   0.257   7.116   3.530  0.1256  0.1301 -0.0166
 9300SOL    HW131492   0.170   7.077   3.532  0.6002 -0.9741  1.4861
 9300SOL    HW231493   0.269   7.151   3.619  1.7516 -1.0693  0.2800
 9301SOL     OW31494   1.346   3.024   1.886 -0.0908  0.1676 -0.4887
 9301SOL    HW131495   1.324   3.052   1.975  1.5780  0.8522 -0.2481
 9301SOL    HW231496   1.427   3.071   1.865 -0.1913 -0.3403 -2.2015
 9302SOL     OW31497   1.128   5.599   2.195 -0.4200 -0.4467  0.2808
 9302SOL    HW131498   1.210   5.551   2.182 -1.0157 -1.2193 -0.7758
 9302SOL    HW231499   1.098   5.619   2.106 -0.0896  2.1303  0.6639
 9303SOL     OW31500   1.311   0.782   0.486 -0.1033 -0.0173 -0.0319
 9303SOL    HW131501   1.350   0.781   0.574  0.4176  1.1248 -0.2313
 9303SOL    HW231502   1.357   0.713   0.439  0.3047  0.0156  0.3080
 9304SOL     OW31503   4.214  11.073  10.510 -0.0907  0.4984  0.6144
 9304SOL    HW131504   4.210  11.168  10.500 -0.8145  0.4347  0.2674
 9304SOL    HW231505   4.176  11.038  10.430  0.9338 -0.1046  0.3617
 9305SOL     OW31506   2.282   2.318   0.088  0.2369  0.2780 -0.6525
 9305SOL    HW131507   2.363   2.352   0.051  0.0133  1.4528 -0.1089
 9305SOL    HW231508   2.221   2.392   0.085  0.1224  0.3634  1.7446
 9306SOL     OW31509   2.100   1.898   2.552 -0.1732 -0.6914  0.0554
 9306SOL    HW131510   2.146   1.929   2.474 -1.5046 -0.6267 -0.7322
 9306SOL    HW231511   2.147   1.938   2.625  1.3409 -1.0623 -0.6727
 9307SOL     OW31512   3.682  10.187   8.342  0.0534 -0.1509  0.2442
 9307SOL    HW131513   3.735  10.260   8.309 -0.6796  0.3920  0.2220
 9307SOL    HW231514   3.670  10.207   8.435 -2.3598  1.2309 -0.2647
 9308SOL     OW31515   4.060   4.817   5.050 -0.4503 -0.0375  0.1157
 9308SOL    HW131516   3.968   4.802   5.032 -0.4375 -0.2899  0.2606
 9308SOL    HW231517   4.102   4.817   4.964 -0.8205  1.7233 -0.0978
 9309SOL     OW31518   4.832   7.111   3.323  0.4866  0.6669  0.3698
 9309SOL    HW131519   4.809   7.181   3.384  0.8896  1.2930 -0.1704
 9309SOL    HW231520   4.920   7.084   3.349  0.5092  0.6772  0.3060
 9310SOL     OW31521   9.750  10.983   7.641 -0.7727 -0.3087  0.1554
 9310SOL    HW131522   9.685  11.007   7.575 -1.7392  0.1461  1.2344
 9310SOL    HW231523   9.750  11.057   7.702 -0.4388 -1.0392  1.0547
 9311SOL     OW31524   4.845   4.047   7.987 -0.0114  0.2654  0.4494
 9311SOL    HW131525   4.788   4.037   7.911 -0.5718 -0.0137  0.9061
 9311SOL    HW231526   4.836   3.965   8.036  0.2246  0.5008  0.8977
 9312SOL     OW31527   8.820   3.119   4.299  0.0258 -0.0023  0.0873
 9312SOL    HW131528   8.757   3.088   4.234  1.3190  0.1710 -1.3061
 9312SOL    HW231529   8.849   3.039   4.344  1.2562 -0.5224 -1.5584
 9313SOL     OW31530   1.458   7.656   8.562 -0.0272 -0.4814  0.0359
 9313SOL    HW131531   1.378   7.618   8.599  0.8592 -1.4828  1.0135
 9313SOL    HW231532   1.465   7.618   8.474 -0.8879  0.0307 -0.2634
 9314SOL     OW31533   8.613   0.211   8.151 -0.2010  0.7113  0.6843
 9314SOL    HW131534   8.605   0.301   8.119 -0.1061  0.9011  1.1886
 9314SOL    HW231535   8.667   0.218   8.229 -0.0351  0.1870  0.6185
 9315SOL     OW31536   5.239   0.236   4.279  0.5255  0.3718  0.3654
 9315SOL    HW131537   5.334   0.239   4.280  0.5239  0.2473  0.7873
 9315SOL    HW231538   5.212   0.326   4.297  0.5618  1.1300 -2.7318
 9316SOL     OW31539   0.231   2.310   9.326  0.2010 -0.6121  0.5076
 9316SOL    HW131540   0.296   2.370   9.288  0.5102 -0.3082  1.4780
 9316SOL    HW231541   0.279   2.229   9.340  0.3381 -0.4442  1.0560
 9317SOL     OW31542   8.736  10.015  10.121 -0.1282 -0.3065 -0.3230
 9317SOL    HW131543   8.676   9.971  10.181  0.4946  1.5826  1.8199
 9317SOL    HW231544   8.808   9.953  10.109 -0.1319 -0.6353  1.1579
 9318SOL     OW31545   0.376   2.990  10.235 -0.4692  0.2204 -0.0887
 9318SOL    HW131546   0.291   2.995  10.192 -1.1470 -1.6478  0.8895
 9318SOL    HW231547   0.387   2.897  10.255  2.0025  0.3590 -0.5392
 9319SOL     OW31548   0.785   2.743   6.280  0.1704 -0.7561 -0.0356
 9319SOL    HW131549   0.772   2.734   6.185 -0.4226 -1.6573  0.1241
 9319SOL    HW231550   0.754   2.661   6.316  0.5600 -0.4820  0.9365
 9320SOL     OW31551   1.741   5.182   2.529  0.4954 -0.3765 -0.1858
 9320SOL    HW131552   1.680   5.239   2.481  1.9195  1.9242  0.5607
 9320SOL    HW231553   1.691   5.102   2.546 -1.6290  0.6292 -1.3009
 9321SOL     OW31554   6.558  10.054   8.248  0.2267  0.1783  0.2860
 9321SOL    HW131555   6.573  10.136   8.296  2.5195 -0.2052  0.3277
 9321SOL    HW231556   6.469  10.029   8.272 -0.7337  2.8752 -0.0952
 9322SOL     OW31557   8.340   0.978   5.443  0.1382 -0.0419  0.3700
 9322SOL    HW131558   8.355   1.008   5.353  3.7809 -2.9581 -0.2236
 9322SOL    HW231559   8.407   1.021   5.495 -0.7472  0.1684  1.3816
 9323SOL     OW31560  10.325   6.819   7.948 -0.0344  0.1296  0.1334
 9323SOL    HW131561  10.401   6.873   7.971  1.1580 -1.2880 -0.3662
 9323SOL    HW231562  10.260   6.882   7.916  0.7495  1.4140  0.9862
 9324SOL     OW31563   7.166   4.304   0.283  0.4732 -0.2675  0.6322
 9324SOL    HW131564   7.126   4.229   0.328  0.2065 -0.0579  0.7460
 9324SOL    HW231565   7.130   4.380   0.328 -1.4136  0.0403 -1.2582
 9325SOL     OW31566   0.571   0.271   7.976  0.4541 -0.4882  0.3319
 9325SOL    HW131567   0.599   0.207   8.042  1.0532  0.3794  0.9387
 9325SOL    HW231568   0.632   0.344   7.986 -0.3623  0.2905 -0.1835
 9326SOL     OW31569   2.625   5.700   6.877 -0.7092  0.0859 -0.0470
 9326SOL    HW131570   2.657   5.789   6.888 -1.2122  0.3643 -0.8144
 9326SOL    HW231571   2.576   5.701   6.795  1.0149 -1.3725 -1.1804
 9327SOL     OW31572  10.664   0.715   5.455 -0.7186  0.2441  0.1749
 9327SOL    HW131573  10.592   0.658   5.480 -1.1656  0.4932 -0.5091
 9327SOL    HW231574  10.633   0.803   5.477 -0.9803  0.4330 -0.8916
 9328SOL     OW31575   0.585   8.053   9.351  0.4962  0.0295 -0.0119
 9328SOL    HW131576   0.678   8.075   9.346  0.5343 -0.2195 -0.5126
 9328SOL    HW231577   0.540   8.137   9.355  0.7373  0.1525  0.1327
 9329SOL     OW31578   1.943   0.010   0.060 -0.5572 -0.3237  0.4318
 9329SOL    HW131579   1.881   0.071   0.100 -0.8916 -1.1820  1.2522
 9329SOL    HW231580   1.987   0.062  -0.008 -0.7888  0.8421  1.1436
 9330SOL     OW31581   1.843   8.699   3.516  0.3004  0.2964 -0.4628
 9330SOL    HW131582   1.756   8.738   3.523  0.4594  0.4931  0.6073
 9330SOL    HW231583   1.828   8.604   3.524  0.2131  0.3577  0.2340
 9331SOL     OW31584   1.870   3.615   8.451  0.0122 -0.0437 -0.2475
 9331SOL    HW131585   1.937   3.609   8.384 -1.0841  1.1940 -1.5297
 9331SOL    HW231586   1.884   3.701   8.491  0.3562 -0.5720  0.8086
 9332SOL     OW31587   9.018   7.581   5.741 -0.4266  0.9085  0.0257
 9332SOL    HW131588   9.026   7.660   5.687 -1.5194  1.2537  0.3365
 9332SOL    HW231589   8.974   7.517   5.685 -0.0313  0.7006 -0.0476
 9333SOL     OW31590  10.747  10.169   0.315 -0.2019 -0.3078 -0.4865
 9333SOL    HW131591  10.811  10.199   0.251 -1.1689  2.6656 -0.2065
 9333SOL    HW231592  10.682  10.122   0.264 -0.0262  0.4538 -1.4407
 9334SOL     OW31593   8.696   0.666  10.985 -0.1310  0.3230  0.4166
 9334SOL    HW131594   8.630   0.721  11.028  0.1107  1.3461 -0.4789
 9334SOL    HW231595   8.697   0.696  10.895  1.9294  0.6708  0.5172
 9335SOL     OW31596   5.513   3.014   8.939 -0.4298  0.3105  0.2729
 9335SOL    HW131597   5.528   3.041   8.848 -1.5664 -0.2555 -0.0988
 9335SOL    HW231598   5.535   3.091   8.991  2.0487  0.0937 -0.3031
 9336SOL     OW31599  10.170   9.133   0.186  0.1751 -0.3262  0.5184
 9336SOL    HW131600  10.253   9.086   0.187  0.0315 -0.5890  0.2571
 9336SOL    HW231601  10.193   9.222   0.160  0.4387 -0.2660  0.9464
 9337SOL     OW31602   8.028   5.233   6.193 -0.2876 -0.2819 -0.4500
 9337SOL    HW131603   8.103   5.288   6.216  0.8702 -2.1476  0.5326
 9337SOL    HW231604   7.962   5.294   6.161  0.3639  1.8325  1.9186
 9338SOL     OW31605   6.010   0.010   1.189  0.2536 -0.0779 -0.2129
 9338SOL    HW131606   6.069  -0.025   1.123  1.2225  3.1635 -1.2571
 9338SOL    HW231607   5.922  -0.001   1.152  0.5614 -0.9203 -0.6974
 9339SOL     OW31608   1.082   8.562   8.761  0.0410 -0.3381 -0.4463
 9339SOL    HW131609   0.988   8.548   8.762  0.0283 -0.2491 -0.4217
 9339SOL    HW231610   1.117   8.485   8.717 -0.0150 -0.5409 -0.1400
 9340SOL     OW31611   0.858   4.838   6.160  0.4495  0.9043 -0.3056
 9340SOL    HW131612   0.826   4.805   6.244 -0.1265  1.8387 -0.1412
 9340SOL    HW231613   0.811   4.787   6.095  0.9280  0.1448 -0.0665
 9341SOL     OW31614   1.860   0.937   3.910  0.0031  0.6560  0.3219
 9341SOL    HW131615   1.777   0.900   3.881  1.6888 -2.9275 -0.5323
 9341SOL    HW231616   1.906   0.958   3.828  1.4247 -1.3107  0.5380
 9342SOL     OW31617   7.282   9.980   6.067  0.1958 -0.0308 -0.2144
 9342SOL    HW131618   7.322   9.940   5.990 -0.6648 -2.4123  0.4886
 9342SOL    HW231619   7.319   9.932   6.141 -0.4504  0.9076  0.7590
 9343SOL     OW31620   7.981   7.939   1.411 -0.3456  0.3727 -0.2857
 9343SOL    HW131621   7.975   7.983   1.496  0.6707 -1.4166  0.7697
 9343SOL    HW231622   8.050   7.874   1.423 -0.4501 -0.1784 -2.3846
 9344SOL     OW31623   4.139   1.998  10.916  0.2548  0.6422 -0.5502
 9344SOL    HW131624   4.061   2.000  10.860  0.5212 -0.1728 -0.9696
 9344SOL    HW231625   4.170   2.088  10.916 -0.1709  0.7999 -1.1284
 9345SOL     OW31626   6.809   3.585   9.862 -0.0888  0.0012  0.2417
 9345SOL    HW131627   6.805   3.680   9.868  0.0207  0.0910 -0.7956
 9345SOL    HW231628   6.718   3.557   9.854 -0.2548 -0.1424  2.2192
 9346SOL     OW31629   3.058   4.908   3.684 -0.0796  0.6270 -0.7632
 9346SOL    HW131630   3.081   4.990   3.640  0.0748 -0.3139 -2.5389
 9346SOL    HW231631   3.129   4.848   3.661 -0.5867 -0.2364 -0.1479
 9347SOL     OW31632  10.262  10.893   7.933 -0.7992  0.3088  0.0017
 9347SOL    HW131633  10.269  10.832   7.859  0.0808  1.3960 -0.8451
 9347SOL    HW231634  10.174  10.930   7.925 -0.6683  0.5053 -0.5844
 9348SOL     OW31635   9.817   0.509  10.633 -0.2532  0.3692  0.3677
 9348SOL    HW131636   9.814   0.425  10.588  0.9806  1.5864 -2.1497
 9348SOL    HW231637   9.732   0.515  10.677 -1.9186 -0.5977 -2.4309
 9349SOL     OW31638   9.575   6.553   1.851 -0.3441 -0.0366 -0.4261
 9349SOL    HW131639   9.578   6.617   1.923  0.2600  1.4468 -1.7123
 9349SOL    HW231640   9.562   6.606   1.773 -0.3386 -1.5592 -1.4905
 9350SOL     OW31641   7.151   0.745   0.626 -0.1265  0.1130  0.1594
 9350SOL    HW131642   7.247   0.742   0.621 -0.1412 -2.5632  0.0186
 9350SOL    HW231643   7.131   0.718   0.715 -0.7527  0.6141  0.1719
 9351SOL     OW31644   2.737   5.429   8.755  0.1085  0.6333 -0.2351
 9351SOL    HW131645   2.776   5.517   8.753  0.7911  0.3192 -1.0459
 9351SOL    HW231646   2.662   5.434   8.696  0.8328  0.3585 -1.1866
 9352SOL     OW31647   3.686   9.040   2.422 -0.3434 -0.1548 -0.3030
 9352SOL    HW131648   3.767   9.032   2.473 -1.9140  1.0872  2.6135
 9352SOL    HW231649   3.635   8.962   2.444 -1.0467  0.3976  0.0856
 9353SOL     OW31650   4.374   7.720   3.125 -0.3525  0.2877 -0.2243
 9353SOL    HW131651   4.362   7.772   3.204  0.7658  0.8643 -0.4135
 9353SOL    HW231652   4.347   7.779   3.054  1.9447  1.0541 -0.5279
 9354SOL     OW31653  10.940   6.397   7.612  0.3336  0.0803  0.1781
 9354SOL    HW131654  10.889   6.463   7.658  0.9938  1.0108 -0.4065
 9354SOL    HW231655  10.912   6.402   7.521  0.8075 -0.0304  0.0207
 9355SOL     OW31656   9.124  10.600   5.371  0.0463  0.3212 -0.1471
 9355SOL    HW131657   9.130  10.695   5.384 -0.5331  0.1495  1.5197
 9355SOL    HW231658   9.179  10.563   5.440  2.4243 -0.5536 -2.3373
 9356SOL     OW31659   2.307   2.905  11.021 -0.0495  0.3798 -0.4715
 9356SOL    HW131660   2.235   2.938  11.074  1.0149  0.4976  0.9386
 9356SOL    HW231661   2.309   2.811  11.040  0.4823  0.4623 -0.1152
 9357SOL     OW31662   5.680  10.930   6.270  0.1512 -0.0102  0.1911
 9357SOL    HW131663   5.686  10.865   6.200  0.6748 -0.0771  0.2870
 9357SOL    HW231664   5.769  10.934   6.305  0.3907  1.5751 -0.5502
 9358SOL     OW31665   4.573   2.562   5.482  0.4037 -0.0850  0.7709
 9358SOL    HW131666   4.490   2.525   5.512 -0.2793  0.9527  0.2305
 9358SOL    HW231667   4.550   2.615   5.406  1.3206  1.4023  1.4623
 9359SOL     OW31668   5.870   9.293   3.689 -0.3748 -0.0625 -0.3715
 9359SOL    HW131669   5.921   9.218   3.717 -0.2404  0.3545  0.5233
 9359SOL    HW231670   5.860   9.281   3.594 -1.9161 -2.1509 -0.0149
 9360SOL     OW31671   0.091   7.796  10.450 -0.4001  0.0423 -0.1697
 9360SOL    HW131672   0.170   7.771  10.496 -0.2541  1.2949  0.2918
 9360SOL    HW231673   0.091   7.741  10.371  0.3521 -0.7296  0.3516
 9361SOL     OW31674   6.003   8.489   1.955 -0.5391  0.1959 -0.1308
 9361SOL    HW131675   5.973   8.577   1.978 -0.9191 -0.0172  0.1901
 9361SOL    HW231676   5.944   8.430   2.002  0.5577 -0.2282  0.7806
 9362SOL     OW31677   7.698   7.058   4.235 -0.0602  0.0561  0.1435
 9362SOL    HW131678   7.613   7.094   4.261 -1.2019  0.0122 -3.0073
 9362SOL    HW231679   7.737   7.126   4.181  0.7554 -0.8561 -0.4597
 9363SOL     OW31680   1.428   5.249   7.829 -0.3641  0.0260  0.1129
 9363SOL    HW131681   1.422   5.301   7.908 -0.8422 -1.1682  0.8947
 9363SOL    HW231682   1.366   5.290   7.768 -0.9583  0.1990  0.8179
 9364SOL     OW31683   5.854   4.339   5.354  0.5401 -0.0906 -0.2102
 9364SOL    HW131684   5.870   4.401   5.283 -1.2885 -0.3997 -0.9381
 9364SOL    HW231685   5.759   4.335   5.362  0.6388  0.9751  3.2252
 9365SOL     OW31686   9.476   2.622   6.105  0.1565 -0.4348  0.2018
 9365SOL    HW131687   9.556   2.588   6.146  0.7107  0.5334 -0.0363
 9365SOL    HW231688   9.408   2.611   6.172  0.1703 -2.4769 -0.0581
 9366SOL     OW31689   7.479   6.723  10.554  0.7629 -0.3956  0.3180
 9366SOL    HW131690   7.422   6.774  10.611 -0.3972  0.1018 -1.2298
 9366SOL    HW231691   7.541   6.787  10.519  1.6691 -0.7549  1.2052
 9367SOL     OW31692   5.730   6.530   2.922  0.0141  0.2919 -0.3494
 9367SOL    HW131693   5.797   6.559   2.983  1.5121 -1.0105 -1.2853
 9367SOL    HW231694   5.744   6.583   2.844  0.4376 -0.4376 -0.7881
 9368SOL     OW31695   4.561   8.053  10.306 -0.0666  0.0224 -0.3623
 9368SOL    HW131696   4.517   7.982  10.354 -2.0681  1.7180  0.4298
 9368SOL    HW231697   4.583   8.117  10.373 -0.2293  1.1216 -1.3335
 9369SOL     OW31698   4.401   3.553  11.089 -0.5147  0.2750  0.5995
 9369SOL    HW131699   4.445   3.617  11.145 -1.4516  2.4280 -1.0252
 9369SOL    HW231700   4.459   3.476  11.092  2.8126  2.5070 -0.4590
 9370SOL     OW31701   4.862   6.561   8.172  0.1790  0.5506 -0.6058
 9370SOL    HW131702   4.839   6.471   8.152 -1.0326  0.7845 -0.3174
 9370SOL    HW231703   4.943   6.577   8.122 -0.1068 -0.3886 -1.3909
 9371SOL     OW31704   5.807   4.481   0.215  0.7764 -0.0891 -0.3532
 9371SOL    HW131705   5.734   4.543   0.224  0.9211  0.0619 -0.2165
 9371SOL    HW231706   5.841   4.471   0.303  2.2328  1.4534 -0.6822
 9372SOL     OW31707   1.080   4.855   9.381 -0.2453  1.1871  0.2439
 9372SOL    HW131708   1.018   4.829   9.449  1.8510  0.5247  2.0051
 9372SOL    HW231709   1.119   4.773   9.352  0.9541  1.7100  0.3414
 9373SOL     OW31710   8.855   9.574   8.553 -0.4611 -0.1242 -0.8203
 9373SOL    HW131711   8.828   9.659   8.521  1.2949  0.3672 -1.1330
 9373SOL    HW231712   8.894   9.531   8.476  2.1348  0.3523  0.1070
 9374SOL     OW31713   9.523  10.436   5.627 -0.3785 -0.8335  0.2732
 9374SOL    HW131714   9.555  10.486   5.702  0.2898 -1.6264  0.5396
 9374SOL    HW231715   9.597  10.433   5.566 -0.5758 -1.0585  0.0377
 9375SOL     OW31716  10.917   7.308   0.496  0.2579  0.1374 -0.4018
 9375SOL    HW131717  10.876   7.381   0.450  1.1118  0.0206 -1.3871
 9375SOL    HW231718  10.869   7.231   0.467 -0.0631  0.2093 -0.0614
 9376SOL     OW31719   8.524   5.484   1.722 -0.1828 -0.2601  0.0081
 9376SOL    HW131720   8.476   5.566   1.709 -1.2520 -0.8673 -0.0891
 9376SOL    HW231721   8.513   5.437   1.639 -0.0613 -0.7344  0.2544
 9377SOL     OW31722  10.049   1.576   0.262 -0.4999  0.8883 -0.3283
 9377SOL    HW131723   9.975   1.604   0.316  1.3458  2.5344  1.5212
 9377SOL    HW231724  10.019   1.589   0.172 -2.1336  2.4170  0.3727
 9378SOL     OW31725   6.572   7.306   7.091  0.3535 -0.4983 -0.1413
 9378SOL    HW131726   6.615   7.378   7.045  1.6073  0.3981  2.2538
 9378SOL    HW231727   6.510   7.348   7.150  0.5995 -1.3953  0.7921
 9379SOL     OW31728  10.516   0.679   5.088  0.7671  0.2597 -0.4360
 9379SOL    HW131729  10.606   0.709   5.095  1.8197 -2.5994 -0.3282
 9379SOL    HW231730  10.515   0.624   5.010 -0.0710 -2.1268  1.1478
 9380SOL     OW31731   5.347   0.617   6.277  0.4815  0.4582 -0.0770
 9380SOL    HW131732   5.383   0.706   6.282 -2.1098  1.6896 -1.1452
 9380SOL    HW231733   5.314   0.599   6.365  2.0800  0.0090  0.4603
 9381SOL     OW31734   5.469   4.098   4.644  0.0084 -0.4713  0.1809
 9381SOL    HW131735   5.555   4.125   4.612  0.3646 -0.4377  1.1401
 9381SOL    HW231736   5.483   4.014   4.687 -0.8378 -1.5098 -1.4948
 9382SOL     OW31737   4.786   4.517   8.369 -0.1077 -0.3336 -0.2763
 9382SOL    HW131738   4.879   4.498   8.352 -0.8033 -3.1837 -1.2871
 9382SOL    HW231739   4.789   4.587   8.434  2.8024 -2.3705  2.0513
 9383SOL     OW31740   5.938   8.740   7.746  1.2246  0.2121  0.0954
 9383SOL    HW131741   5.997   8.781   7.809 -0.5165  1.6505  0.8599
 9383SOL    HW231742   5.974   8.653   7.733  3.7575  1.1657  0.1849
 9384SOL     OW31743   4.982   0.865   9.563  0.5226  0.4883 -0.1941
 9384SOL    HW131744   5.046   0.933   9.543 -0.1439  1.6418  1.3896
 9384SOL    HW231745   5.006   0.833   9.650  0.8653 -1.4072 -0.9357
 9385SOL     OW31746   2.077   9.341   1.921  0.3594  0.0926 -0.1387
 9385SOL    HW131747   2.099   9.278   1.852  1.5342  0.5301 -0.1926
 9385SOL    HW231748   2.134   9.416   1.903 -2.6995  2.2586 -1.5647
 9386SOL     OW31749   9.166   8.825  10.412 -0.0749  0.0788  0.6352
 9386SOL    HW131750   9.211   8.908  10.394  1.2320 -1.0325 -1.8906
 9386SOL    HW231751   9.075   8.843  10.390  0.4570  0.5123 -1.5881
 9387SOL     OW31752   1.839   0.242   0.204 -0.4584  0.1570 -0.0153
 9387SOL    HW131753   1.924   0.213   0.236 -1.4472 -1.2799  1.5046
 9387SOL    HW231754   1.815   0.314   0.262 -0.0474  0.9180 -0.7874
 9388SOL     OW31755   3.983   2.142   0.268  0.1590  0.4482 -0.4865
 9388SOL    HW131756   3.900   2.118   0.227 -0.4684 -0.0145  0.9631
 9388SOL    HW231757   3.975   2.236   0.284 -0.0843  0.4150 -0.3978
 9389SOL     OW31758   3.539   7.088   8.672  0.2457  0.0938 -0.5406
 9389SOL    HW131759   3.544   6.995   8.653  3.5032  0.3873 -1.8844
 9389SOL    HW231760   3.564   7.131   8.590  0.0424  2.0816  0.3713
 9390SOL     OW31761   1.818   4.137   8.548  0.0973 -0.0121 -0.1430
 9390SOL    HW131762   1.744   4.197   8.540 -0.1245 -0.5133 -2.7064
 9390SOL    HW231763   1.895   4.194   8.552 -0.2425  0.5019 -0.6802
 9391SOL     OW31764   1.785  10.748   1.946 -0.3983 -0.0530 -0.3968
 9391SOL    HW131765   1.750  10.678   1.892 -0.1505 -0.9925  0.6057
 9391SOL    HW231766   1.879  10.749   1.926 -0.5026  0.3937 -0.8518
 9392SOL     OW31767  10.178   2.738   7.723  0.2508 -0.6802  0.6809
 9392SOL    HW131768  10.199   2.813   7.777  1.0943 -0.4539  0.0613
 9392SOL    HW231769  10.115   2.688   7.774 -2.0549  1.5483  0.2281
 9393SOL     OW31770   6.211   8.753   8.075 -0.4614 -0.7621 -0.2425
 9393SOL    HW131771   6.272   8.681   8.088  0.6161  0.2825  0.6536
 9393SOL    HW231772   6.227   8.782   7.985  0.0541 -0.7849 -0.1604
 9394SOL     OW31773   7.305  10.894   4.248 -0.3977  0.0084 -0.1343
 9394SOL    HW131774   7.346  10.980   4.253  0.6453 -0.5174  0.9093
 9394SOL    HW231775   7.258  10.885   4.332  2.3023 -1.7430  1.3339
 9395SOL     OW31776   1.818   9.214   8.644 -0.0586  0.1924  0.2598
 9395SOL    HW131777   1.894   9.265   8.672 -0.5346  1.2710 -0.3661
 9395SOL    HW231778   1.744   9.273   8.655 -0.6810 -0.5001 -0.1119
 9396SOL     OW31779   6.714   2.649   8.813 -0.1473 -0.2186  0.4323
 9396SOL    HW131780   6.765   2.703   8.873  0.2605 -1.6445  1.4328
 9396SOL    HW231781   6.732   2.686   8.727  1.6820  0.0421  0.8790
 9397SOL     OW31782   9.514   0.892   0.857 -0.0774 -0.6466  0.0740
 9397SOL    HW131783   9.575   0.921   0.925  0.8901  0.2846 -1.1376
 9397SOL    HW231784   9.562   0.904   0.775 -1.5413 -0.8478 -0.8454
 9398SOL     OW31785   4.842   5.169   2.251 -0.2254 -0.4745  0.1996
 9398SOL    HW131786   4.781   5.176   2.325 -1.0788 -2.7964 -0.2029
 9398SOL    HW231787   4.928   5.185   2.290 -0.9402  2.7066  0.8085
 9399SOL     OW31788   8.582   2.646   9.764 -0.1489  0.0066 -0.1177
 9399SOL    HW131789   8.654   2.615   9.710  1.2017  2.4909  0.1107
 9399SOL    HW231790   8.519   2.683   9.702  0.5611  1.2059 -0.1622
 9400SOL     OW31791  10.403   0.741  11.021 -0.2865 -0.9343 -0.3630
 9400SOL    HW131792  10.408   0.680  10.948  0.2628 -0.1274 -1.0276
 9400SOL    HW231793  10.324   0.792  11.005  1.7711  1.9059 -2.6516
 9401SOL     OW31794   3.872   0.235  10.312 -0.4181  0.7025  0.6422
 9401SOL    HW131795   3.905   0.152  10.275  2.2110  2.4992 -1.4238
 9401SOL    HW231796   3.778   0.233  10.294 -0.6971 -2.3197  1.8208
 9402SOL     OW31797   1.282   6.241   3.765  0.3237 -0.0064  0.3099
 9402SOL    HW131798   1.292   6.321   3.715 -1.0087 -0.4952 -0.7756
 9402SOL    HW231799   1.261   6.270   3.854  2.3992  0.8570  0.5957
 9403SOL     OW31800   0.017   2.122   2.368 -0.5548 -0.0003  0.1950
 9403SOL    HW131801  -0.007   2.103   2.277 -2.1264 -0.2797  0.6368
 9403SOL    HW231802   0.112   2.111   2.370 -0.5110 -0.2129 -1.3563
 9404SOL     OW31803   3.193   2.066   5.847 -0.6901 -0.3851  0.3647
 9404SOL    HW131804   3.207   2.009   5.922 -0.3231  0.3392  0.8585
 9404SOL    HW231805   3.266   2.046   5.787 -0.4350 -0.2714  0.6369
 9405SOL     OW31806   1.584   0.881   3.061 -0.3978 -0.6045 -0.3233
 9405SOL    HW131807   1.653   0.815   3.056 -2.0896 -2.6126  1.0759
 9405SOL    HW231808   1.548   0.886   2.972  0.0442 -1.2519 -0.5388
 9406SOL     OW31809   8.486   3.878   3.796  0.3286  0.6174  0.6911
 9406SOL    HW131810   8.516   3.828   3.872  1.2864  1.9470  1.2216
 9406SOL    HW231811   8.464   3.811   3.730  1.7100 -0.4951  1.3104
 9407SOL     OW31812   7.813   0.783   0.106 -0.3983 -0.1420 -0.6763
 9407SOL    HW131813   7.838   0.825   0.024  0.6757 -0.5072 -0.5431
 9407SOL    HW231814   7.879   0.811   0.169 -1.0734 -0.0601  0.0140
 9408SOL     OW31815   7.076   3.579   6.610  0.3630  0.0599  0.3351
 9408SOL    HW131816   7.093   3.674   6.611 -0.2350  0.2106 -1.1777
 9408SOL    HW231817   7.158   3.540   6.641  0.8251  1.0479  0.4177
 9409SOL     OW31818   2.811   9.100  10.634 -0.4246  0.1886 -0.2721
 9409SOL    HW131819   2.769   9.091  10.549 -1.0037 -0.5140  0.0754
 9409SOL    HW231820   2.738   9.105  10.696 -0.0050 -0.1373  0.2572
 9410SOL     OW31821   9.907   8.753   2.645  0.0698 -0.3447 -0.5563
 9410SOL    HW131822   9.912   8.665   2.608  1.1337 -0.1031 -1.0431
 9410SOL    HW231823   9.982   8.757   2.705  0.7883  0.6332 -1.4842
 9411SOL     OW31824  10.760  10.300   8.057 -0.2064 -0.0466 -0.1493
 9411SOL    HW131825  10.807  10.309   8.140  0.5393 -0.0349 -0.5588
 9411SOL    HW231826  10.684  10.357   8.065 -0.9983 -1.2227  1.1117
 9412SOL     OW31827   7.280   1.384  10.189 -0.3047 -0.1865  0.2096
 9412SOL    HW131828   7.320   1.461  10.230  0.7060 -0.3760 -0.3649
 9412SOL    HW231829   7.243   1.417  10.107  0.2476 -0.3136 -0.1021
 9413SOL     OW31830   5.152   6.721   0.717  0.1562 -0.2220  0.0416
 9413SOL    HW131831   5.200   6.650   0.674  0.3377  0.7560 -1.4880
 9413SOL    HW231832   5.075   6.735   0.662 -1.0566 -0.6670  1.5585
 9414SOL     OW31833   7.464   5.563   1.780  0.4964 -0.4496  0.1558
 9414SOL    HW131834   7.532   5.515   1.733  1.1464 -1.3189  1.9226
 9414SOL    HW231835   7.383   5.518   1.756  0.9131 -1.4105  0.4901
 9415SOL     OW31836   3.273   8.307   0.887  0.3018  0.0043  0.0344
 9415SOL    HW131837   3.262   8.212   0.891  3.3700 -0.4668 -0.3711
 9415SOL    HW231838   3.237   8.331   0.802  0.4323 -0.9781 -0.3150
 9416SOL     OW31839   4.251  10.604   2.309 -0.1958  0.1905  0.0795
 9416SOL    HW131840   4.240  10.525   2.257 -1.3068  1.1068 -1.1266
 9416SOL    HW231841   4.170  10.612   2.359 -0.6927  1.2812 -0.8490
 9417SOL     OW31842   0.746   2.550   7.876  0.0044 -0.3134  0.3143
 9417SOL    HW131843   0.688   2.621   7.849 -0.2425 -1.0139 -1.1049
 9417SOL    HW231844   0.819   2.554   7.814 -1.0522 -2.5886 -1.2137
 9418SOL     OW31845   7.561   1.358   7.532  0.2179 -0.1105 -0.1164
 9418SOL    HW131846   7.575   1.393   7.444 -0.1648 -0.3245 -0.2627
 9418SOL    HW231847   7.482   1.402   7.563 -0.3114 -0.8967 -0.3304
 9419SOL     OW31848   3.877   6.627  10.742  0.1173  0.5779  0.0723
 9419SOL    HW131849   3.798   6.680  10.739 -0.6323 -0.5527 -1.5417
 9419SOL    HW231850   3.846   6.537  10.751  1.1850  0.0901 -0.7975
 9420SOL     OW31851  10.682   7.722  10.544 -0.6676  0.7445  0.0265
 9420SOL    HW131852  10.768   7.697  10.511  0.2605  0.8987  2.1740
 9420SOL    HW231853  10.622   7.657  10.507  0.0919  1.3973 -2.5813
 9421SOL     OW31854   6.081   9.567   6.749 -0.0592 -1.0962  0.0447
 9421SOL    HW131855   6.036   9.504   6.693 -0.5725 -0.0394 -0.7710
 9421SOL    HW231856   6.070   9.533   6.837 -0.8829 -1.8094 -0.3154
 9422SOL     OW31857   3.362   6.979  10.467 -0.1212 -0.1284  0.4305
 9422SOL    HW131858   3.397   6.964  10.555  0.3026  0.2764  0.3350
 9422SOL    HW231859   3.434   7.019  10.419 -0.6241  0.4620  0.1536
 9423SOL     OW31860   6.658   6.544   8.322  0.0085  0.1808 -0.4250
 9423SOL    HW131861   6.743   6.511   8.352 -0.4701 -1.0297 -0.3673
 9423SOL    HW231862   6.598   6.470   8.331 -1.3698  1.3851  0.7343
 9424SOL     OW31863   8.707  10.779   2.043 -0.0627 -0.6124  0.2031
 9424SOL    HW131864   8.672  10.867   2.059 -2.2261 -1.5900  1.2170
 9424SOL    HW231865   8.801  10.788   2.060 -0.2300  1.4630  0.3747
 9425SOL     OW31866   0.226   5.361  10.325  0.0022 -0.2111 -0.5744
 9425SOL    HW131867   0.151   5.334  10.272  1.3101 -1.3620 -1.9083
 9425SOL    HW231868   0.228   5.457  10.318 -0.4674 -0.2783 -1.7335
 9426SOL     OW31869   9.322   4.639   8.509  0.1636 -0.2972  0.0919
 9426SOL    HW131870   9.235   4.602   8.495 -0.4343  1.0126  0.2157
 9426SOL    HW231871   9.313   4.731   8.485  1.9086 -0.4621 -1.3701
 9427SOL     OW31872   9.385   6.274   1.795  0.2970 -0.2913 -0.1449
 9427SOL    HW131873   9.300   6.270   1.838  0.3204  0.8648  0.0624
 9427SOL    HW231874   9.443   6.310   1.863  1.0815 -1.5829 -0.1028
 9428SOL     OW31875   8.439  10.279   0.555 -0.2217  0.1843 -0.6641
 9428SOL    HW131876   8.413  10.366   0.523 -1.8779 -0.2455 -0.5852
 9428SOL    HW231877   8.394  10.218   0.497 -0.5743 -0.6128  0.4174
 9429SOL     OW31878   8.962   8.789   2.336 -0.1395  0.0512 -0.6779
 9429SOL    HW131879   8.957   8.713   2.394  0.1283 -0.7990 -1.7410
 9429SOL    HW231880   9.043   8.778   2.287  0.0109  1.1355 -0.7061
 9430SOL     OW31881  10.099   7.464   6.532  0.1798 -0.5368  0.4895
 9430SOL    HW131882  10.163   7.510   6.586 -0.3334 -1.5577  2.0103
 9430SOL    HW231883  10.024   7.523   6.527 -0.0246 -0.6986  1.4697
 9431SOL     OW31884   4.561   3.409   1.905  0.2227  0.0243  0.4982
 9431SOL    HW131885   4.525   3.363   1.981 -0.9976 -0.8138 -0.5365
 9431SOL    HW231886   4.499   3.480   1.889  0.8753  0.6499  0.7180
 9432SOL     OW31887   2.425   2.511   4.564  0.3614 -0.5652  0.0173
 9432SOL    HW131888   2.380   2.546   4.487 -0.7021 -0.3509  0.7178
 9432SOL    HW231889   2.356   2.496   4.628  0.9996 -2.3471  0.3546
 9433SOL     OW31890   0.097   4.221   4.141  0.4725 -0.2145  0.4126
 9433SOL    HW131891   0.029   4.155   4.157  0.5827 -0.4990 -0.2853
 9433SOL    HW231892   0.078   4.290   4.205 -1.1544  0.2212 -0.4991
 9434SOL     OW31893   5.488   5.628   2.586  0.6705  0.6938 -0.1280
 9434SOL    HW131894   5.534   5.686   2.525 -1.6945  0.4085 -2.3496
 9434SOL    HW231895   5.447   5.687   2.648 -2.2189  1.6936 -2.7148
 9435SOL     OW31896   8.206   6.338   8.578 -0.1370  0.1978 -0.2896
 9435SOL    HW131897   8.283   6.336   8.521 -0.3940  1.9387 -0.7515
 9435SOL    HW231898   8.217   6.417   8.630  0.4025 -1.6536  2.6448
 9436SOL     OW31899   0.956   2.629   9.828 -0.2442 -0.6094 -0.4071
 9436SOL    HW131900   0.861   2.636   9.822 -0.2930 -1.2608 -0.5125
 9436SOL    HW231901   0.986   2.638   9.737 -0.2057 -0.3611 -0.3682
 9437SOL     OW31902   7.403   1.693   2.336  0.1751 -0.4226 -0.3523
 9437SOL    HW131903   7.405   1.680   2.431  1.2665  0.8984 -0.1549
 9437SOL    HW231904   7.494   1.707   2.312 -0.1584 -0.1176 -1.4981
 9438SOL     OW31905   3.708   7.736   5.734  0.0927 -0.7554 -0.1800
 9438SOL    HW131906   3.737   7.821   5.766  0.8145 -0.9374 -0.3298
 9438SOL    HW231907   3.669   7.693   5.810 -0.5787 -0.1654 -0.1852
 9439SOL     OW31908   3.764   0.126   5.066  0.7547  0.5819 -0.5197
 9439SOL    HW131909   3.725   0.182   5.000 -0.5384  0.9857  0.5387
 9439SOL    HW231910   3.739   0.037   5.041  2.0276  0.5293 -1.6908
 9440SOL     OW31911   8.723   5.193  10.223  0.0064 -0.1195 -0.3913
 9440SOL    HW131912   8.749   5.132  10.291 -1.0704 -0.9215 -0.6702
 9440SOL    HW231913   8.791   5.184  10.156 -0.8488 -2.1020 -1.0710
 9441SOL     OW31914   4.170   7.607   6.568 -0.2608 -0.4664 -0.2061
 9441SOL    HW131915   4.162   7.702   6.573  1.8029 -0.3155  1.4193
 9441SOL    HW231916   4.259   7.592   6.535  0.0297 -1.8056  1.0842
 9442SOL     OW31917   4.988   7.264   1.072  0.0689  0.6835 -0.1440
 9442SOL    HW131918   5.000   7.306   0.987  1.0046 -0.6198 -0.6822
 9442SOL    HW231919   4.923   7.196   1.057  0.2409  0.4421  0.1869
 9443SOL     OW31920   0.372   0.630   4.424 -0.7833 -0.6715 -0.0204
 9443SOL    HW131921   0.368   0.716   4.465  1.3264 -0.8031  0.5551
 9443SOL    HW231922   0.326   0.640   4.340 -0.7161  0.9389  0.1223
 9444SOL     OW31923  10.115   6.885   8.299 -0.2897  0.3488  0.1019
 9444SOL    HW131924  10.079   6.860   8.214 -3.5917 -0.8035  1.7084
 9444SOL    HW231925  10.048   6.940   8.339  1.0414  0.6326  2.1154
 9445SOL     OW31926   7.062   9.442   3.098 -0.1902 -0.1436  0.1080
 9445SOL    HW131927   7.092   9.469   3.012  1.9967  1.8428  1.3898
 9445SOL    HW231928   7.123   9.374   3.126  3.0899  3.3489  2.3870
 9446SOL     OW31929   2.327   7.337   3.857  0.0932  0.5139  0.0527
 9446SOL    HW131930   2.327   7.387   3.776  1.0445  0.3158 -0.0773
 9446SOL    HW231931   2.265   7.266   3.842  0.0149  0.6733 -0.3731
 9447SOL     OW31932  10.640   2.408   9.242  0.0823  0.1237  0.0909
 9447SOL    HW131933  10.719   2.395   9.293  0.3133  1.5580  0.1440
 9447SOL    HW231934  10.571   2.365   9.292  0.8623 -1.4204 -0.1176
 9448SOL     OW31935   8.853  10.113   0.863 -0.1075 -0.5181 -0.1463
 9448SOL    HW131936   8.932  10.060   0.849 -0.6826 -1.4128 -0.0890
 9448SOL    HW231937   8.786  10.071   0.810 -0.5403  0.2721 -0.2419
 9449SOL     OW31938   8.291   7.368   6.460  0.0997  0.1337 -0.3374
 9449SOL    HW131939   8.268   7.291   6.407  0.0772 -0.6654  0.7997
 9449SOL    HW231940   8.246   7.440   6.418 -0.7178 -0.6490 -0.8362
 9450SOL     OW31941  10.219  11.048   4.719  0.2840  0.3847  0.3056
 9450SOL    HW131942  10.138  11.069   4.673 -0.3810 -0.7314  0.9169
 9450SOL    HW231943  10.281  11.025   4.650  0.0201  1.0404 -0.1542
 9451SOL     OW31944  11.003   6.626   8.626  0.3135 -0.2458 -0.0273
 9451SOL    HW131945  10.916   6.624   8.666  0.8158  0.4235  1.1576
 9451SOL    HW231946  11.025   6.534   8.612 -0.9157 -0.3953 -1.1349
 9452SOL     OW31947   9.474   0.388   3.493 -0.1796 -0.0442 -0.2397
 9452SOL    HW131948   9.547   0.326   3.492 -1.4792 -1.6448  0.0856
 9452SOL    HW231949   9.408   0.347   3.437 -0.6978  1.5613 -0.8409
 9453SOL     OW31950   3.214  10.536   0.293  0.3437  0.5231  0.4204
 9453SOL    HW131951   3.284  10.475   0.317  1.4765  1.2426 -0.8994
 9453SOL    HW231952   3.182  10.504   0.209 -0.6717  0.4332  0.8254
 9454SOL     OW31953   5.301   8.808   1.072  0.6530 -0.0364 -0.0614
 9454SOL    HW131954   5.382   8.855   1.094  0.6554 -0.2971  0.5096
 9454SOL    HW231955   5.258   8.794   1.156 -0.0328  0.1705 -0.3722
 9455SOL     OW31956   7.001   0.665   5.719  0.4794  0.0987 -0.2330
 9455SOL    HW131957   7.021   0.740   5.663  0.9273 -0.5560 -0.9725
 9455SOL    HW231958   7.075   0.605   5.708 -0.0826 -0.6648 -0.0172
 9456SOL     OW31959   6.306   3.405   8.272 -0.0219 -0.6614  0.3875
 9456SOL    HW131960   6.358   3.413   8.192 -0.1228  0.5570  0.4334
 9456SOL    HW231961   6.368   3.376   8.338  0.7194  1.1551  0.5350
 9457SOL     OW31962  10.712  10.487   2.378 -0.6455 -0.2965 -0.5301
 9457SOL    HW131963  10.719  10.480   2.473 -0.5698  0.8196 -0.4417
 9457SOL    HW231964  10.786  10.435   2.345 -1.5074 -1.9080 -0.0421
 9458SOL     OW31965   3.051   9.923   3.891 -0.0227  0.0450  0.8148
 9458SOL    HW131966   3.100   9.850   3.853 -2.6116 -2.0669  1.2202
 9458SOL    HW231967   3.032   9.980   3.816  0.0653 -0.9444  0.0168
 9459SOL     OW31968   9.553  10.368   6.588 -0.6283  0.5893  0.1637
 9459SOL    HW131969   9.606  10.441   6.554  1.2238 -0.0503  1.5029
 9459SOL    HW231970   9.602  10.290   6.566 -1.4961 -0.1124  0.6408
 9460SOL     OW31971   6.173   4.499   0.545 -0.8706  0.3818 -0.4548
 9460SOL    HW131972   6.207   4.411   0.526 -1.8198 -0.3244  0.9715
 9460SOL    HW231973   6.243   4.542   0.594 -0.2456  0.5888 -1.4948
 9461SOL     OW31974   3.679   5.468   3.360 -0.2306 -0.1101 -0.2749
 9461SOL    HW131975   3.711   5.558   3.362  0.4739 -0.3668  0.8924
 9461SOL    HW231976   3.757   5.414   3.346 -0.4206 -0.6178  0.5160
 9462SOL     OW31977   9.828   3.455  10.437 -0.2905  0.2118  0.0188
 9462SOL    HW131978   9.920   3.436  10.420 -0.2302  0.2232  0.3289
 9462SOL    HW231979   9.791   3.372  10.467 -0.6533 -0.0898 -1.1789
 9463SOL     OW31980   5.632   6.457   8.321  0.3595 -0.4515  0.0175
 9463SOL    HW131981   5.671   6.375   8.350 -1.7499 -1.2305  0.8683
 9463SOL    HW231982   5.637   6.514   8.397  4.0193  1.2093 -1.2506
 9464SOL     OW31983   1.530   6.144   1.619  0.6394  0.3183 -0.9474
 9464SOL    HW131984   1.564   6.055   1.611  0.7228  0.3226 -0.6441
 9464SOL    HW231985   1.524   6.160   1.713 -0.7511  0.1132 -0.9791
 9465SOL     OW31986   0.811   9.165   9.029  0.3483 -0.0225 -0.5051
 9465SOL    HW131987   0.719   9.160   9.000  0.7813 -1.0946 -1.8044
 9465SOL    HW231988   0.859   9.115   8.963  1.5687 -1.5062  1.4065
 9466SOL     OW31989   6.498   9.433   7.293  0.1051  0.3093 -0.3840
 9466SOL    HW131990   6.515   9.510   7.347 -0.5360  0.9292 -1.0383
 9466SOL    HW231991   6.529   9.457   7.205 -1.3364  0.3613 -0.9110
 9467SOL     OW31992   0.887  11.020   6.331  0.5350 -0.0593  0.1315
 9467SOL    HW131993   0.874  10.976   6.247 -2.6727  0.1306  0.4087
 9467SOL    HW231994   0.921  11.107   6.308 -3.7297  1.4426 -1.4804
 9468SOL     OW31995   9.946  10.172   1.022 -0.0593  0.3281  0.1632
 9468SOL    HW131996   9.985  10.103   1.077  0.7790  0.0626 -0.7276
 9468SOL    HW231997   9.907  10.233   1.084  1.8211  0.6284  1.1443
 9469SOL     OW31998   4.700   9.973   7.890 -0.2338 -0.2129  0.4697
 9469SOL    HW131999   4.676   9.880   7.882  1.0180 -0.5541  0.4628
 9469SOL    HW232000   4.701  10.005   7.800 -1.3463 -0.0041  0.5240
 9470SOL     OW32001   7.836   5.135   4.944 -0.1644  0.1466 -0.1167
 9470SOL    HW132002   7.853   5.100   4.857 -0.1930 -0.0553 -0.0403
 9470SOL    HW232003   7.794   5.064   4.992  0.3231  0.0776  0.2224
 9471SOL     OW32004   1.491   8.453   1.715 -0.1311  0.4290 -0.0292
 9471SOL    HW132005   1.476   8.502   1.634 -2.6676 -1.4834 -0.8721
 9471SOL    HW232006   1.559   8.390   1.692  0.7781  1.3546  0.0591
 9472SOL     OW32007   2.807   1.018   2.864 -0.1933  0.3867 -0.1269
 9472SOL    HW132008   2.716   0.988   2.866  0.6366 -2.4998 -0.3036
 9472SOL    HW232009   2.830   1.022   2.771  0.6721 -1.9987 -0.0886
 9473SOL     OW32010   8.169   2.706   0.089  0.2040  0.2044 -0.1267
 9473SOL    HW132011   8.190   2.648   0.016  0.1302 -0.1690  0.1521
 9473SOL    HW232012   8.101   2.660   0.138 -0.2379  0.7584 -0.2035
 9474SOL     OW32013   7.836   8.683   8.782 -0.3571  0.0950 -0.2236
 9474SOL    HW132014   7.854   8.597   8.744  2.8972 -0.4599  2.1654
 9474SOL    HW232015   7.849   8.745   8.710 -0.8480 -1.2419 -1.5175
 9475SOL     OW32016   9.218   8.595   3.182  0.7465  0.1991 -0.0801
 9475SOL    HW132017   9.147   8.612   3.121  0.2685  0.1199  0.4407
 9475SOL    HW232018   9.298   8.601   3.130  0.5763  3.0112 -0.1399
 9476SOL     OW32019   1.258   0.523   0.758  0.0757  0.2711 -0.2584
 9476SOL    HW132020   1.171   0.557   0.738  0.6145 -0.1774 -4.0493
 9476SOL    HW232021   1.315   0.599   0.753  0.1366  0.2846  0.5345
 9477SOL     OW32022  10.681   5.588   8.408  1.0116 -0.2193 -0.3588
 9477SOL    HW132023  10.632   5.526   8.462  1.0677 -0.4549 -0.5772
 9477SOL    HW232024  10.648   5.574   8.319  2.4364 -1.3596 -0.7451
 9478SOL     OW32025   4.304   1.226   1.907 -0.2030 -0.3279 -0.9852
 9478SOL    HW132026   4.308   1.230   2.002  0.4515  1.5003 -1.0548
 9478SOL    HW232027   4.392   1.201   1.880 -0.3516 -0.7036 -1.1408
 9479SOL     OW32028   5.632   0.743  11.037 -0.6302  0.1132  0.1999
 9479SOL    HW132029   5.713   0.705  11.004 -0.2575  0.7697  0.3430
 9479SOL    HW232030   5.637   0.732  11.132 -1.3358 -1.0551  0.1238
 9480SOL     OW32031   4.691   2.895   8.088 -0.3754 -0.6021 -0.8442
 9480SOL    HW132032   4.783   2.918   8.103  0.3807 -1.9882 -2.9077
 9480SOL    HW232033   4.671   2.935   8.003 -2.4601  1.6538  0.5930
 9481SOL     OW32034   8.566   7.695   5.213 -0.3328  0.0921 -0.2945
 9481SOL    HW132035   8.591   7.743   5.134 -3.7616  2.6313 -0.0817
 9481SOL    HW232036   8.501   7.632   5.183  0.1183 -0.6255  0.2111
 9482SOL     OW32037   7.037   0.013   8.702 -0.4112  0.4997 -0.2036
 9482SOL    HW132038   7.009   0.091   8.751  0.1951  0.1716  0.6824
 9482SOL    HW232039   7.096   0.048   8.634 -1.3991  0.9763 -0.8423
 9483SOL     OW32040   1.981   9.850   5.606  0.7080 -0.1703 -0.1061
 9483SOL    HW132041   1.993   9.923   5.666 -2.2636  0.3872 -0.0302
 9483SOL    HW232042   2.011   9.773   5.655  2.1349  0.7428  0.5002
 9484SOL     OW32043   4.737  10.009   4.611 -0.4677  0.1959  0.4151
 9484SOL    HW132044   4.756   9.921   4.643  0.3477  1.0173  2.3614
 9484SOL    HW232045   4.750  10.065   4.688 -1.7279  1.9236 -0.5730
 9485SOL     OW32046   6.878   5.518   1.388 -0.0180  0.3149  0.4019
 9485SOL    HW132047   6.958   5.467   1.401  0.8356  1.4012 -0.4378
 9485SOL    HW232048   6.847   5.537   1.477  0.8969  0.2412  0.7443
 9486SOL     OW32049   7.822   1.879   1.168  0.1841  0.3250  0.4802
 9486SOL    HW132050   7.851   1.829   1.092  0.2508 -1.0747  1.3766
 9486SOL    HW232051   7.805   1.967   1.135 -0.8778 -0.5266 -1.3720
 9487SOL     OW32052   5.545   6.021   3.819  0.2538 -0.0940  0.0893
 9487SOL    HW132053   5.501   5.950   3.773 -0.9906 -1.2701  2.8816
 9487SOL    HW232054   5.483   6.095   3.814 -0.0860 -0.3636  0.2650
 9488SOL     OW32055   0.380   2.209   3.160  0.1193 -0.0617 -0.5424
 9488SOL    HW132056   0.301   2.185   3.111 -0.5672  0.9095  0.0283
 9488SOL    HW232057   0.451   2.203   3.097 -0.4385 -0.7521 -1.1303
 9489SOL     OW32058   4.513   4.924  10.972  0.0164 -0.3918  0.2206
 9489SOL    HW132059   4.603   4.916  11.003  0.2876 -1.1287 -0.7121
 9489SOL    HW232060   4.519   4.917  10.877 -1.0783 -1.0648  0.1758
 9490SOL     OW32061   6.377   2.608   3.295  0.1938  0.6632 -0.4184
 9490SOL    HW132062   6.409   2.562   3.217 -0.5758  0.2778 -0.5160
 9490SOL    HW232063   6.286   2.578   3.304  0.5343  0.0223  1.1373
 9491SOL     OW32064   1.403   9.707   4.665 -0.0944 -0.2597 -0.1200
 9491SOL    HW132065   1.313   9.690   4.691 -1.4272  2.9233 -2.0083
 9491SOL    HW232066   1.397   9.732   4.572  2.3186  2.4033  0.3066
 9492SOL     OW32067   9.527   5.312   5.021  0.3007 -0.1014 -0.3906
 9492SOL    HW132068   9.519   5.362   5.102 -1.3682 -1.3719  0.3061
 9492SOL    HW232069   9.591   5.244   5.041  2.3886  1.5268 -1.2609
 9493SOL     OW32070   0.252   6.714   0.340  0.3822 -0.2188 -0.0240
 9493SOL    HW132071   0.173   6.666   0.312  1.0030 -1.4953  0.3432
 9493SOL    HW232072   0.324   6.667   0.298  1.1637 -0.8583  1.9398
 9494SOL     OW32073   4.849   3.987   7.402  0.5506  0.7026 -0.2352
 9494SOL    HW132074   4.887   3.968   7.488  0.0741  1.7528  0.2206
 9494SOL    HW232075   4.760   4.017   7.421 -0.7420 -2.1361 -1.2988
 9495SOL     OW32076  10.095   9.960   1.196 -0.4228  0.0104 -0.2942
 9495SOL    HW132077  10.173   9.957   1.139  0.1981 -1.7642  0.5732
 9495SOL    HW232078  10.037   9.894   1.159 -0.5039 -0.3421  0.4656
 9496SOL     OW32079   1.796   8.922   2.390  0.0278 -0.4819 -0.5330
 9496SOL    HW132080   1.848   8.948   2.314 -1.1868  0.1640 -1.1766
 9496SOL    HW232081   1.759   8.838   2.366 -0.5602 -0.1617 -0.7837
 9497SOL     OW32082   1.306   3.654   1.816  0.2724  0.4024 -0.0485
 9497SOL    HW132083   1.282   3.633   1.725 -0.9294 -1.7400  0.6780
 9497SOL    HW232084   1.315   3.749   1.817  2.0824  0.3846 -2.7859
 9498SOL     OW32085   9.809   4.126   7.981 -0.6563 -0.1593 -0.6051
 9498SOL    HW132086   9.761   4.068   8.041  1.8229  0.2310  1.9240
 9498SOL    HW232087   9.835   4.200   8.034  3.1757 -0.5880 -1.5972
 9499SOL     OW32088   1.922   7.914   1.504 -0.1877 -0.0672 -0.2841
 9499SOL    HW132089   1.860   7.949   1.441  0.0926  0.4950 -0.2487
 9499SOL    HW232090   2.008   7.938   1.469  0.0729 -1.7277 -0.8833
 9500SOL     OW32091   0.551   3.641   8.468  0.3926 -0.1838  0.0730
 9500SOL    HW132092   0.477   3.581   8.471 -0.7919  1.2215  0.4552
 9500SOL    HW232093   0.588   3.630   8.380  0.3680 -1.6349  0.2347
 9501SOL     OW32094   4.499   1.003   6.669 -0.3666  0.5821 -0.1122
 9501SOL    HW132095   4.544   0.919   6.680 -0.9537  0.3572  0.6778
 9501SOL    HW232096   4.454   1.017   6.753 -1.2957  1.0828 -0.6808
 9502SOL     OW32097   3.953   6.633   7.976  0.1900 -0.1197 -0.4046
 9502SOL    HW132098   3.896   6.710   7.979 -0.4795 -0.5836 -0.8728
 9502SOL    HW232099   3.960   6.605   8.067 -1.8359 -1.1208 -0.5131
 9503SOL     OW32100   3.260   7.763   3.470 -0.7750  0.6845 -0.3407
 9503SOL    HW132101   3.345   7.807   3.467 -0.5892  0.6490  2.3308
 9503SOL    HW232102   3.203   7.818   3.416  0.8268  0.8678 -1.9402
 9504SOL     OW32103  10.353   6.763  10.576  0.0997  0.6836  0.8713
 9504SOL    HW132104  10.421   6.819  10.537 -0.8534  0.5924 -1.0634
 9504SOL    HW232105  10.377   6.674  10.551 -0.9343  0.6884 -0.2457
 9505SOL     OW32106   8.644   3.492   5.312  0.5496  0.4073  0.0424
 9505SOL    HW132107   8.683   3.535   5.236 -0.7368 -0.9675 -1.4648
 9505SOL    HW232108   8.715   3.440   5.350  1.3726  1.6267  0.2103
 9506SOL     OW32109   6.621   8.464   8.678 -0.0237 -0.4764 -0.8017
 9506SOL    HW132110   6.600   8.424   8.763  0.8532 -1.1608 -0.8931
 9506SOL    HW232111   6.588   8.553   8.685  1.0680 -0.1567  0.7032
 9507SOL     OW32112   4.248   8.511   7.874 -0.1430 -0.0901 -0.0675
 9507SOL    HW132113   4.235   8.603   7.851 -0.3209  0.1329  0.8813
 9507SOL    HW232114   4.268   8.512   7.967  1.4267 -0.8943 -0.3626
 9508SOL     OW32115   6.212   9.871   3.805  0.2021 -0.0470 -0.4702
 9508SOL    HW132116   6.306   9.870   3.825 -0.0419 -1.4368  0.7687
 9508SOL    HW232117   6.183   9.959   3.832  1.3220  0.8301 -1.9535
 9509SOL     OW32118  10.600   2.678   3.163  0.0319 -0.1097  0.1717
 9509SOL    HW132119  10.530   2.645   3.107 -1.8555 -0.7313  2.7181
 9509SOL    HW232120  10.646   2.599   3.194  0.3828  0.1450  0.3122
 9510SOL     OW32121  10.071  10.259   8.357 -0.1193 -0.8353 -0.3118
 9510SOL    HW132122  10.067  10.185   8.297 -2.2776 -0.7969 -0.2940
 9510SOL    HW232123   9.994  10.249   8.413 -0.6060  1.5245 -0.4611
 9511SOL     OW32124   2.338   7.355   1.313  0.3042  0.0618  0.0972
 9511SOL    HW132125   2.304   7.335   1.226  1.2761  1.4822 -0.6435
 9511SOL    HW232126   2.260   7.371   1.366 -0.3038 -1.0020 -0.4455
 9512SOL     OW32127   2.429   8.713   6.985 -0.5454  0.0140  0.4145
 9512SOL    HW132128   2.431   8.622   6.957  1.8935 -0.7396  2.6283
 9512SOL    HW232129   2.362   8.716   7.053 -0.2792 -0.2598  0.6911
 9513SOL     OW32130   2.677   5.123   8.021 -0.0629  0.3685  0.5354
 9513SOL    HW132131   2.609   5.095   8.083 -1.4036  0.5898 -0.7631
 9513SOL    HW232132   2.733   5.182   8.071 -2.0066  1.7727  1.1832
 9514SOL     OW32133   5.779   8.764  10.234 -0.8342  0.1138 -0.3647
 9514SOL    HW132134   5.752   8.798  10.148  2.5015 -0.3495 -1.7286
 9514SOL    HW232135   5.697   8.740  10.276 -2.6219 -0.2667 -3.6703
 9515SOL     OW32136   8.793  10.910   9.467 -0.3719 -0.2805  0.4371
 9515SOL    HW132137   8.846  10.907   9.547 -1.0754 -0.4459  0.9060
 9515SOL    HW232138   8.745  10.992   9.473  0.4310  0.2854 -0.3992
 9516SOL     OW32139   7.121   8.785   6.418 -0.2987  0.2551 -0.6873
 9516SOL    HW132140   7.105   8.696   6.449 -2.4010  0.7138 -0.3195
 9516SOL    HW232141   7.181   8.823   6.482 -0.2665 -0.5459 -0.2351
 9517SOL     OW32142   4.868   1.421   6.393 -0.0703 -0.0146 -0.2198
 9517SOL    HW132143   4.877   1.489   6.460 -0.6640  0.3465 -0.5050
 9517SOL    HW232144   4.953   1.376   6.394  0.2164  0.5183  0.1966
 9518SOL     OW32145   5.571   1.037   5.721 -0.3072  0.0018  0.9497
 9518SOL    HW132146   5.645   0.991   5.681 -0.8680 -1.7103  1.7930
 9518SOL    HW232147   5.575   1.012   5.814 -2.5318 -0.9822  0.8282
 9519SOL     OW32148   5.399   1.787   2.937 -0.3841  0.3056  0.5571
 9519SOL    HW132149   5.375   1.801   2.846 -1.9136 -0.4754  0.8132
 9519SOL    HW232150   5.469   1.850   2.953 -0.0366  0.4001 -1.1671
 9520SOL     OW32151   0.067   6.426   6.498  0.5160  0.6235  0.1716
 9520SOL    HW132152   0.070   6.501   6.439 -1.6416 -0.0007 -0.8306
 9520SOL    HW232153   0.108   6.354   6.449 -1.9380 -0.0901 -0.9963
 9521SOL     OW32154   2.692   6.768   1.539  0.0701  0.2296 -0.1791
 9521SOL    HW132155   2.752   6.705   1.578  0.8594  1.2416  0.2726
 9521SOL    HW232156   2.725   6.853   1.567 -1.7637  0.8037  0.3660
 9522SOL     OW32157   9.869   1.134   4.949 -0.0506 -0.8660  0.1136
 9522SOL    HW132158   9.919   1.058   4.920 -2.0575 -2.0228 -0.4882
 9522SOL    HW232159   9.913   1.209   4.909 -0.1518 -2.0298 -2.3465
 9523SOL     OW32160   4.074   6.381   1.028 -0.0750  0.5783  0.0054
 9523SOL    HW132161   4.151   6.364   0.973 -0.2403 -0.6527  0.1231
 9523SOL    HW232162   4.099   6.455   1.083  0.7815  0.6139 -0.4217
 9524SOL     OW32163   6.981   3.996   1.794  0.0735  0.1557  0.0135
 9524SOL    HW132164   6.941   4.082   1.802 -0.6034 -0.0586 -0.9548
 9524SOL    HW232165   6.999   3.986   1.701  0.2968 -0.6876  0.1385
 9525SOL     OW32166   4.733   6.149   9.024 -0.5964 -0.2206  0.2207
 9525SOL    HW132167   4.683   6.091   8.966 -0.2243 -0.2716 -0.0450
 9525SOL    HW232168   4.805   6.095   9.055 -0.7405 -0.1644  0.6600
 9526SOL     OW32169   3.150   9.391   0.199  0.0023  0.4833  0.1326
 9526SOL    HW132170   3.205   9.444   0.140  1.4141 -0.2534  0.7289
 9526SOL    HW232171   3.110   9.325   0.143  3.4773 -1.9760  0.2131
 9527SOL     OW32172   6.637   9.604  10.627 -0.3226  0.1654  0.2424
 9527SOL    HW132173   6.545   9.632  10.621 -0.3615 -0.3324 -3.3089
 9527SOL    HW232174   6.687   9.679  10.596  0.2660 -0.4561 -0.3277
 9528SOL     OW32175   0.873  10.510   0.373  1.2119 -0.3787 -0.2018
 9528SOL    HW132176   0.949  10.563   0.395  1.4570 -0.9693  0.4086
 9528SOL    HW232177   0.814  10.519   0.447  1.1912 -0.8294 -0.1561
 9529SOL     OW32178   1.590   3.574   6.194 -0.2671  0.5736 -0.1784
 9529SOL    HW132179   1.569   3.532   6.110 -0.3310 -1.9505  1.0019
 9529SOL    HW232180   1.527   3.646   6.201 -2.3133 -1.0346 -0.9817
 9530SOL     OW32181   6.152   5.324   8.242  0.0266 -0.1442 -0.3494
 9530SOL    HW132182   6.180   5.254   8.301  3.4089 -1.0787 -2.7408
 9530SOL    HW232183   6.110   5.388   8.298  1.9718 -1.4781  2.9052
 9531SOL     OW32184   8.033   4.232   9.596 -0.2313 -0.5298  0.3271
 9531SOL    HW132185   8.022   4.152   9.647  0.5852 -0.8842 -0.0381
 9531SOL    HW232186   7.985   4.215   9.514 -0.4474 -0.4621  0.4390
 9532SOL     OW32187   1.967   5.832   5.011  1.1358 -0.3563 -0.2083
 9532SOL    HW132188   1.875   5.826   5.039  0.2087  0.5088 -2.7628
 9532SOL    HW232189   1.979   5.756   4.953  1.8576 -0.1384 -0.3453
 9533SOL     OW32190   9.140  10.192   3.889  0.1167  0.5718  0.1002
 9533SOL    HW132191   9.094  10.276   3.893 -2.2476 -0.6344  0.2355
 9533SOL    HW232192   9.161  10.172   3.981 -2.2849 -0.4264  0.5109
 9534SOL     OW32193   5.739   3.150   6.902 -0.4464 -0.3659  0.1059
 9534SOL    HW132194   5.694   3.216   6.850 -2.5903 -2.1035 -0.3952
 9534SOL    HW232195   5.671   3.114   6.959  0.5893 -2.2729  0.2159
 9535SOL     OW32196   5.090   5.929   8.282 -0.3367 -0.3390 -0.2776
 9535SOL    HW132197   5.169   5.935   8.336 -0.0022  0.8557 -0.8785
 9535SOL    HW232198   5.121   5.894   8.198 -0.5129 -0.2304 -0.3879
 9536SOL     OW32199   7.179  10.761   6.698  0.5705  0.2712 -0.3046
 9536SOL    HW132200   7.170  10.841   6.646 -2.2289 -0.3066 -0.8551
 9536SOL    HW232201   7.229  10.701   6.641  2.1106  1.3325 -0.1459
 9537SOL     OW32202   0.224   0.296   4.964  0.0747 -0.2197 -0.1514
 9537SOL    HW132203   0.200   0.209   4.995 -0.3360 -0.5951 -1.4447
 9537SOL    HW232204   0.209   0.354   5.039  0.7455 -1.2997  0.8571
 9538SOL     OW32205   7.410   0.016   0.436 -0.0110  0.0575 -0.3654
 9538SOL    HW132206   7.441  -0.074   0.444 -0.8296 -0.3504 -1.3906
 9538SOL    HW232207   7.323   0.015   0.476  0.9915  1.0700  2.0600
 9539SOL     OW32208   0.585   7.752   9.359  0.2907 -0.9177 -0.2992
 9539SOL    HW132209   0.587   7.848   9.363  0.2035 -0.9121 -0.3968
 9539SOL    HW232210   0.678   7.727   9.355  0.2954 -0.7886 -1.4190
 9540SOL     OW32211   3.324   3.980   7.066 -0.1444  0.2201  0.2487
 9540SOL    HW132212   3.261   3.909   7.058  1.7248 -1.4213 -0.7947
 9540SOL    HW232213   3.362   3.969   7.153  0.0211  0.0264  0.1541
 9541SOL     OW32214   4.437   5.124   3.011  0.0497  0.5924 -0.2035
 9541SOL    HW132215   4.385   5.204   3.008 -1.6522 -0.4650 -0.1926
 9541SOL    HW232216   4.408   5.073   2.935  0.8101 -0.1870  0.0070
 9542SOL     OW32217   3.102  10.643   4.185 -0.2048  0.2393 -0.6528
 9542SOL    HW132218   3.152  10.630   4.266  1.4549 -1.5541 -1.8587
 9542SOL    HW232219   3.095  10.737   4.175 -1.6454  0.5349  2.2332
 9543SOL     OW32220   4.317   7.662   1.071  0.5123  0.2718  0.7245
 9543SOL    HW132221   4.310   7.755   1.093 -1.1606  0.3485  0.0522
 9543SOL    HW232222   4.282   7.617   1.149 -1.6238  0.3820 -0.0927
 9544SOL     OW32223   6.782   4.412   3.038 -0.0304 -0.1478 -0.1861
 9544SOL    HW132224   6.806   4.465   2.962 -1.1185  0.1552 -0.3363
 9544SOL    HW232225   6.739   4.335   3.000 -1.1181  0.2890  0.1186
 9545SOL     OW32226   4.088   2.826  10.106 -0.3744  0.0473  0.5911
 9545SOL    HW132227   4.182   2.821  10.124 -0.3079  0.2798  0.3212
 9545SOL    HW232228   4.082   2.882  10.028 -0.6812 -0.5631  0.1693
 9546SOL     OW32229  11.002   0.862  10.463  0.3814  0.0558  0.2141
 9546SOL    HW132230  11.052   0.896  10.538 -0.0969  1.7481 -0.1991
 9546SOL    HW232231  11.026   0.770  10.459  0.6919 -0.0139  2.2467
 9547SOL     OW32232   9.173   5.456   0.994 -0.5473  0.0264  0.0984
 9547SOL    HW132233   9.177   5.395   1.068 -1.8285 -1.7366 -1.1909
 9547SOL    HW232234   9.088   5.498   1.003 -0.2487  0.6139  0.2067
 9548SOL     OW32235   6.386   9.969   1.154  0.3344  0.8659  0.0110
 9548SOL    HW132236   6.477   9.980   1.128  0.5225  0.8891  0.6698
 9548SOL    HW232237   6.346   9.919   1.083  1.2088 -0.4324  0.4079
 9549SOL     OW32238   8.656   6.032   6.686  0.4961 -0.1543 -0.6055
 9549SOL    HW132239   8.574   5.990   6.712  1.3280 -1.7601 -0.4596
 9549SOL    HW232240   8.679   6.089   6.759 -0.5783  0.4694 -0.7366
 9550SOL     OW32241   9.845   7.363   7.079 -0.2374  0.1303 -0.2421
 9550SOL    HW132242   9.790   7.440   7.081  0.2519  0.5522 -1.7235
 9550SOL    HW232243   9.929   7.392   7.114 -0.3309  0.0060  0.0965
 9551SOL     OW32244   0.155  10.599   9.260 -0.2109  0.0358  0.1119
 9551SOL    HW132245   0.082  10.634   9.312 -0.4620 -0.0572 -0.1786
 9551SOL    HW232246   0.186  10.674   9.210  0.5643  0.3290  0.9987
 9552SOL     OW32247   8.723   2.175   5.181  0.9390 -0.9042  0.1517
 9552SOL    HW132248   8.715   2.080   5.172 -0.1127 -0.8800  0.6205
 9552SOL    HW232249   8.673   2.210   5.108  0.0556 -0.7314  0.8129
 9553SOL     OW32250   0.098   4.748   6.017  0.2836  1.0360 -0.3363
 9553SOL    HW132251   0.089   4.653   6.014  1.2153  0.9594 -1.0842
 9553SOL    HW232252   0.149   4.766   6.096  1.1327  0.8170 -0.8260
 9554SOL     OW32253   4.000   8.778   8.111  0.2815 -0.3390  0.5087
 9554SOL    HW132254   3.977   8.811   8.025 -0.5840 -0.6534  0.6112
 9554SOL    HW232255   4.002   8.682   8.101  2.1747 -0.3164  0.3565
 9555SOL     OW32256   7.325   2.989   0.115  0.4106 -0.4446  0.3557
 9555SOL    HW132257   7.322   3.083   0.131 -2.2657  0.0504 -2.1251
 9555SOL    HW232258   7.315   2.950   0.201  0.0692  1.5945  1.2967
 9556SOL     OW32259   9.071   0.335   0.852 -0.2501  0.5208 -0.0808
 9556SOL    HW132260   9.082   0.242   0.836  1.3808  0.5764  0.5308
 9556SOL    HW232261   9.119   0.378   0.782 -0.4868  0.8910 -0.0219
 9557SOL     OW32262   3.424   4.981   1.294  0.2124  0.6146  0.0765
 9557SOL    HW132263   3.417   4.902   1.241  0.0778  0.4572  0.3255
 9557SOL    HW232264   3.510   4.975   1.335  0.1650  0.5487  0.1681
 9558SOL     OW32265   4.726   4.905   6.150 -0.2522  0.5129  0.2253
 9558SOL    HW132266   4.689   4.963   6.084 -1.5524  0.9980  1.3371
 9558SOL    HW232267   4.692   4.938   6.233 -0.0326 -1.0954  0.9955
 9559SOL     OW32268   0.307   5.094   6.554 -0.0899 -0.8160  0.4934
 9559SOL    HW132269   0.292   5.025   6.489  1.2459  0.4010 -1.1878
 9559SOL    HW232270   0.222   5.107   6.595 -1.0611 -1.4668 -1.1987
 9560SOL     OW32271   0.737   5.058   6.430  0.4319 -0.1996 -0.1714
 9560SOL    HW132272   0.682   5.037   6.506 -0.0448 -0.0012 -0.4541
 9560SOL    HW232273   0.744   4.976   6.381  0.5202 -0.2629 -0.0527
 9561SOL     OW32274   9.553   3.897   2.727  0.0880  0.3271  0.2762
 9561SOL    HW132275   9.573   3.804   2.732 -1.7711 -0.1067  0.6556
 9561SOL    HW232276   9.613   3.938   2.789  0.9496 -0.6041  0.0801
 9562SOL     OW32277   1.966   4.449  10.019 -0.5149  0.2253  0.7487
 9562SOL    HW132278   1.939   4.380  10.079  0.9191  0.0032  1.1687
 9562SOL    HW232279   2.060   4.434  10.005 -0.6257  0.7790 -0.8718
 9563SOL     OW32280   7.047   3.302   2.541 -0.5971 -0.0169 -0.1578
 9563SOL    HW132281   7.075   3.387   2.507 -2.2752  0.8422  0.5225
 9563SOL    HW232282   7.101   3.290   2.620 -0.3794  0.4357 -0.2324
 9564SOL     OW32283   8.231   6.200  10.980 -0.3525 -0.0574 -0.2100
 9564SOL    HW132284   8.320   6.222  11.005 -0.0272  1.5271 -2.5056
 9564SOL    HW232285   8.183   6.283  10.984 -1.6463 -0.8025  0.5854
 9565SOL     OW32286   5.972   8.596   9.322  0.1211  0.2606 -0.6171
 9565SOL    HW132287   5.922   8.628   9.247  1.4871 -2.7013 -3.0152
 9565SOL    HW232288   6.060   8.630   9.309  0.4562 -0.5768 -0.5962
 9566SOL     OW32289   9.191   5.229  10.411 -0.6205  0.2898 -0.6170
 9566SOL    HW132290   9.162   5.145  10.446 -0.6420 -0.6074 -2.6560
 9566SOL    HW232291   9.188   5.288  10.486 -0.7025 -1.4863  0.8610
 9567SOL     OW32292   5.360   8.594   5.623  0.3653 -0.1288 -0.1292
 9567SOL    HW132293   5.386   8.677   5.583  0.7775 -0.2391 -0.0985
 9567SOL    HW232294   5.296   8.556   5.563  1.3575 -0.5357 -0.9552
 9568SOL     OW32295   9.067   8.654   3.454 -0.3185  0.1190 -0.1647
 9568SOL    HW132296   9.156   8.652   3.418 -0.4421 -0.4656 -0.4487
 9568SOL    HW232297   9.014   8.607   3.390 -0.3366 -1.9884  1.3210
 9569SOL     OW32298   6.837   3.432   8.505 -0.0111  0.6413  0.6841
 9569SOL    HW132299   6.788   3.353   8.484  1.8002 -0.8129  1.7421
 9569SOL    HW232300   6.780   3.481   8.564 -2.0669  1.2810 -1.6344
 9570SOL     OW32301   6.854   3.345   5.701 -0.2265  0.0848 -0.1012
 9570SOL    HW132302   6.777   3.301   5.737 -2.0011  3.0980  0.0640
 9570SOL    HW232303   6.914   3.353   5.776 -0.2964 -1.0653  0.0987
 9571SOL     OW32304   4.814  10.377   5.136  0.4678  0.4923 -0.4185
 9571SOL    HW132305   4.886  10.421   5.180  0.0935  1.5438 -0.8182
 9571SOL    HW232306   4.855  10.327   5.066  0.9498 -0.2370  0.3686
 9572SOL     OW32307   3.371   9.797   2.602 -0.5244  0.5611 -0.5323
 9572SOL    HW132308   3.396   9.739   2.674 -0.5399  1.4058  0.1715
 9572SOL    HW232309   3.279   9.817   2.619  0.0360  2.5157  0.4929
 9573SOL     OW32310  10.685   7.003   8.611 -0.0619 -0.8229 -0.5146
 9573SOL    HW132311  10.607   6.979   8.562 -0.1575 -1.9881  0.1931
 9573SOL    HW232312  10.663   7.088   8.649 -0.7414 -0.8469 -0.8290
 9574SOL     OW32313   8.242   5.725   0.638 -0.4951  0.0969  0.7391
 9574SOL    HW132314   8.177   5.725   0.568  0.3555 -0.3888 -0.0728
 9574SOL    HW232315   8.265   5.633   0.649  0.6347  0.3375  0.4625
 9575SOL     OW32316   0.813  10.812   9.724 -0.0272 -0.2222 -0.1434
 9575SOL    HW132317   0.885  10.753   9.746 -0.0723 -0.0726  0.4326
 9575SOL    HW232318   0.735  10.757   9.732  0.0583 -0.5089 -1.2423
 9576SOL     OW32319   6.849   5.863   5.199 -0.1877 -0.5277  0.0131
 9576SOL    HW132320   6.904   5.909   5.135  1.3681  0.0143  1.6528
 9576SOL    HW232321   6.759   5.877   5.168  0.5176 -0.9979 -2.4670
 9577SOL     OW32322   8.485   2.186   8.547 -0.6745  0.1708  0.5252
 9577SOL    HW132323   8.499   2.228   8.462 -0.1759 -0.8670  0.0692
 9577SOL    HW232324   8.571   2.190   8.589 -0.5063 -0.7283  0.2980
 9578SOL     OW32325   1.684   4.993   3.436 -0.2983  0.4977  0.0281
 9578SOL    HW132326   1.603   4.996   3.487  0.2778  0.1587  1.0081
 9578SOL    HW232327   1.705   5.084   3.419 -0.6390  0.6078  0.1799
 9579SOL     OW32328   6.342   2.504  10.807  0.3296 -0.6654  0.1569
 9579SOL    HW132329   6.423   2.519  10.759  1.1976 -2.7341  0.8760
 9579SOL    HW232330   6.305   2.591  10.819  2.3681  0.3231 -0.3171
 9580SOL     OW32331   4.828  10.156   5.455 -0.3577 -0.5006 -0.8575
 9580SOL    HW132332   4.738  10.152   5.423 -1.0273  0.5967  0.7320
 9580SOL    HW232333   4.832  10.089   5.524  0.3719 -1.2583 -1.6119
 9581SOL     OW32334   9.882   0.463   0.746  0.6525  0.1702 -0.1385
 9581SOL    HW132335   9.943   0.532   0.719  1.3213 -0.6660 -0.8153
 9581SOL    HW232336   9.905   0.388   0.692 -0.1044 -0.5773  0.5449
 9582SOL     OW32337   1.108   0.510   3.971  0.0333 -0.0479 -0.2542
 9582SOL    HW132338   1.086   0.603   3.959 -0.4546 -0.2233 -0.7518
 9582SOL    HW232339   1.029   0.472   4.010 -0.2153 -0.4880 -1.1601
 9583SOL     OW32340   0.488   0.884   8.698 -0.7714 -0.2736 -0.2076
 9583SOL    HW132341   0.504   0.792   8.717 -2.2946 -0.6375 -0.5973
 9583SOL    HW232342   0.501   0.928   8.782 -2.6984 -1.2319  0.6564
 9584SOL     OW32343   5.512  10.174   4.010  0.3400 -0.1717  0.3580
 9584SOL    HW132344   5.441  10.159   4.073 -0.2156 -0.6173 -0.3505
 9584SOL    HW232345   5.471  10.158   3.924  0.8177  1.3774 -0.1902
 9585SOL     OW32346  10.219  10.757   0.511 -0.3782  0.0063 -0.4855
 9585SOL    HW132347  10.135  10.727   0.478 -0.1495  1.4551 -2.5946
 9585SOL    HW232348  10.281  10.690   0.482 -0.3824  0.5733 -1.9044
 9586SOL     OW32349   5.435   2.650  10.287  0.4399 -0.0090 -0.0048
 9586SOL    HW132350   5.462   2.601  10.365 -0.8502  0.1266  0.5533
 9586SOL    HW232351   5.515   2.662  10.237  0.9755 -1.8017  0.3408
 9587SOL     OW32352   2.114   3.644   4.372  0.2499 -0.1340  0.0272
 9587SOL    HW132353   2.163   3.568   4.340  0.1304  1.3691 -4.3430
 9587SOL    HW232354   2.024   3.614   4.379  0.5104 -0.8872  0.2316
 9588SOL     OW32355  11.030   8.636   1.611 -0.0154 -0.6150  0.4394
 9588SOL    HW132356  11.039   8.595   1.697  0.0666 -1.4702  0.0318
 9588SOL    HW232357  11.112   8.684   1.599 -0.6117  0.7448  1.4495
 9589SOL     OW32358   4.970   5.009   3.376 -0.2812  0.7492 -0.2347
 9589SOL    HW132359   4.992   5.056   3.295 -0.7241  0.5172 -0.4932
 9589SOL    HW232360   5.033   5.042   3.440  0.2477  0.7490 -0.7361
 9590SOL     OW32361   0.370   1.152   8.609 -0.1073  0.5751  0.5339
 9590SOL    HW132362   0.405   1.066   8.586  0.5607  0.8244  0.6199
 9590SOL    HW232363   0.357   1.147   8.704  1.5905  1.1545  0.8293
 9591SOL     OW32364   7.136   3.706   2.665  0.4333 -0.2171 -0.2974
 9591SOL    HW132365   7.048   3.684   2.694  0.3407  0.5220  0.0138
 9591SOL    HW232366   7.162   3.779   2.721  1.0279 -0.0714 -0.7517
 9592SOL     OW32367   0.362   0.559   0.998 -0.5678  0.2379 -0.1824
 9592SOL    HW132368   0.336   0.590   0.911  0.5556  0.0849 -0.5982
 9592SOL    HW232369   0.381   0.466   0.985 -0.6225  0.1588  0.2884
 9593SOL     OW32370   7.155   0.772   0.334  0.3638 -0.0412 -0.0194
 9593SOL    HW132371   7.186   0.682   0.333  0.8146  0.1072 -1.7822
 9593SOL    HW232372   7.235   0.824   0.343  0.4541  0.2522 -2.0336
 9594SOL     OW32373  10.565   1.841   0.396  0.1763 -0.2024  0.1428
 9594SOL    HW132374  10.580   1.753   0.360  3.0647  0.0972  0.3606
 9594SOL    HW232375  10.538   1.825   0.486 -1.9612 -0.8657 -0.5718
 9595SOL     OW32376   9.740   8.512  10.893 -0.0852 -0.0492 -0.0803
 9595SOL    HW132377   9.783   8.459  10.825 -2.5185 -0.5650 -1.3133
 9595SOL    HW232378   9.654   8.471  10.904  0.0599  0.2603  3.0838
 9596SOL     OW32379   6.512   4.093   8.969 -0.5702  0.1239  0.0216
 9596SOL    HW132380   6.470   4.163   8.920 -1.8183 -0.5371  0.1008
 9596SOL    HW232381   6.448   4.069   9.036  1.3854  1.6000  2.6163
 9597SOL     OW32382   4.367   4.022   1.829 -0.2009 -0.2527 -0.3094
 9597SOL    HW132383   4.367   4.048   1.737  1.0608  0.1932 -0.2088
 9597SOL    HW232384   4.372   3.926   1.827 -2.1922 -0.3752 -0.6855
 9598SOL     OW32385   0.768   0.341  10.067  0.2941  0.2191  0.4152
 9598SOL    HW132386   0.791   0.249  10.056 -1.0107 -0.0092 -0.7893
 9598SOL    HW232387   0.742   0.370   9.979 -0.4513  1.3950  0.9878
 9599SOL     OW32388   3.409   6.342  10.722  0.1599 -0.4413 -0.0363
 9599SOL    HW132389   3.352   6.419  10.729  1.3417  0.4767 -0.3266
 9599SOL    HW232390   3.487   6.365  10.772  0.3535 -1.6446  0.2574
 9600SOL     OW32391   5.772   9.665   5.827 -0.0060 -0.1312 -0.5249
 9600SOL    HW132392   5.828   9.731   5.866 -1.2558  1.4642 -1.2982
 9600SOL    HW232393   5.700   9.654   5.890  0.4757 -1.2225 -0.1304
 9601SOL     OW32394   4.438   5.989   7.156  0.0491  0.0648 -0.1666
 9601SOL    HW132395   4.499   6.023   7.090 -0.0131  1.5007  0.4793
 9601SOL    HW232396   4.351   6.008   7.119 -0.0477 -1.5305 -0.8566
 9602SOL     OW32397   0.277   4.988   3.264 -0.2202 -0.0030  0.3540
 9602SOL    HW132398   0.371   4.971   3.255 -0.1459  0.3142  0.5243
 9602SOL    HW232399   0.242   4.909   3.306 -0.0809 -0.2440  0.0254
 9603SOL     OW32400   4.281   5.984   5.293 -0.0812  0.1545 -0.1873
 9603SOL    HW132401   4.253   6.071   5.264 -1.6695 -0.0187  0.7607
 9603SOL    HW232402   4.351   5.960   5.231  0.0428  1.8782 -0.7626
 9604SOL     OW32403   2.546   2.770  10.716 -0.0951 -0.0474 -0.0610
 9604SOL    HW132404   2.462   2.813  10.702 -0.0112 -0.0379 -0.5445
 9604SOL    HW232405   2.607   2.817  10.659 -0.1193 -1.1775 -1.0761
 9605SOL     OW32406   2.156   3.622   4.933 -0.9748  0.0647  0.4441
 9605SOL    HW132407   2.127   3.710   4.909 -0.3886  0.3213  0.6626
 9605SOL    HW232408   2.113   3.606   5.018 -1.1936  0.0814  0.3373
 9606SOL     OW32409   6.847   8.540   2.930 -0.3813  0.4496  0.8244
 9606SOL    HW132410   6.832   8.493   3.013  2.4415 -2.2972 -0.0640
 9606SOL    HW232411   6.868   8.630   2.957  0.2158 -0.3056  3.0890
 9607SOL     OW32412   0.831   0.944   8.401  0.0145  0.0547 -0.5273
 9607SOL    HW132413   0.782   0.863   8.383  0.0031  0.2246 -1.3154
 9607SOL    HW232414   0.782   0.987   8.471  0.0742 -0.6644 -0.0293
 9608SOL     OW32415   3.509   4.388   8.074 -0.5735  0.0338 -0.2322
 9608SOL    HW132416   3.485   4.335   8.150 -0.8937  0.2787 -0.1591
 9608SOL    HW232417   3.517   4.477   8.109  1.4746 -0.1795 -0.0382
 9609SOL     OW32418   2.688   0.659   3.356  0.1527  0.4227  0.2776
 9609SOL    HW132419   2.643   0.588   3.310  0.9397 -0.6068  1.0272
 9609SOL    HW232420   2.718   0.718   3.286  1.2891 -1.0815 -0.5814
 9610SOL     OW32421   8.453   4.485  11.084  0.6069 -0.5265  0.1228
 9610SOL    HW132422   8.441   4.391  11.097  1.7455 -0.6018  0.7722
 9610SOL    HW232423   8.489   4.491  10.995 -1.3871 -0.5052 -0.7446
 9611SOL     OW32424   6.209   4.124   2.370 -0.5057  0.3170 -0.1455
 9611SOL    HW132425   6.196   4.030   2.358 -0.8052  0.3090  0.2234
 9611SOL    HW232426   6.205   4.138   2.465 -0.5588  0.7137 -0.2018
 9612SOL     OW32427   7.703   3.656   4.530 -0.2062  0.6187  0.0495
 9612SOL    HW132428   7.645   3.676   4.457 -0.3778  0.8691  0.2532
 9612SOL    HW232429   7.661   3.581   4.574  0.3839 -0.1491 -0.6529
 9613SOL     OW32430   4.823   9.486   8.697  0.7871 -0.1795 -0.0156
 9613SOL    HW132431   4.781   9.426   8.636  1.1154  0.7246 -1.1663
 9613SOL    HW232432   4.780   9.469   8.781 -0.5292 -0.6044 -0.7450
 9614SOL     OW32433   1.434   6.631   8.784 -0.4594  0.6665 -0.3690
 9614SOL    HW132434   1.428   6.722   8.754  0.0777  0.6732 -0.4533
 9614SOL    HW232435   1.526   6.608   8.775 -0.5715  0.1491 -0.2325
 9615SOL     OW32436   8.447   7.578   9.021  0.2473  0.0678 -0.2130
 9615SOL    HW132437   8.486   7.660   8.993  1.6231 -0.7963 -0.9387
 9615SOL    HW232438   8.457   7.578   9.116  1.2336  0.2690 -0.3077
 9616SOL     OW32439   4.701   2.239   4.559 -0.0701  0.0436  0.1527
 9616SOL    HW132440   4.745   2.295   4.623  0.3432  0.9700 -0.9267
 9616SOL    HW232441   4.742   2.153   4.571  1.3807  0.6679 -0.1900
 9617SOL     OW32442   6.453   2.874   4.783 -0.6669  0.7901  0.2497
 9617SOL    HW132443   6.498   2.800   4.824  1.8950  2.1926  0.1388
 9617SOL    HW232444   6.411   2.836   4.706  0.6845 -0.5619  0.1204
 9618SOL     OW32445   3.675  10.019   2.687 -0.2225 -0.2596 -0.2998
 9618SOL    HW132446   3.706   9.946   2.741 -0.1396 -0.6711 -0.8980
 9618SOL    HW232447   3.688   9.990   2.597  0.8162  0.8970 -0.5692
 9619SOL     OW32448   0.666  10.583   9.072 -0.0199 -0.4476 -0.0335
 9619SOL    HW132449   0.606  10.653   9.097 -0.7340 -1.0621  0.0174
 9619SOL    HW232450   0.645  10.512   9.132  1.0849 -0.5099  0.2843
 9620SOL     OW32451   3.020   9.906   5.960 -0.0039  0.4594  0.2074
 9620SOL    HW132452   3.019   9.831   5.900 -0.5525  0.2949  0.4196
 9620SOL    HW232453   2.983   9.978   5.908 -3.2814 -0.3589  1.1881
 9621SOL     OW32454   0.415   6.747   4.315  0.6370  0.3699  0.0425
 9621SOL    HW132455   0.369   6.755   4.232 -0.2887  1.6740  0.6421
 9621SOL    HW232456   0.480   6.817   4.314 -0.7077  1.6987  1.1875
 9622SOL     OW32457   9.807   0.955   8.027 -0.6950  0.1656  0.3178
 9622SOL    HW132458   9.727   0.922   7.986 -1.3206  0.4270  1.2807
 9622SOL    HW232459   9.853   1.002   7.958 -0.0563 -2.1764 -0.9566
 9623SOL     OW32460   3.788   5.262   0.722 -0.0014 -0.3406 -0.2882
 9623SOL    HW132461   3.781   5.200   0.650 -0.4662 -1.5603  0.7918
 9623SOL    HW232462   3.700   5.269   0.758  0.0803  0.7928 -0.2418
 9624SOL     OW32463   0.450   5.824   0.592  0.2273  0.5221 -0.1816
 9624SOL    HW132464   0.445   5.861   0.680 -0.8840  2.3457 -0.9526
 9624SOL    HW232465   0.361   5.795   0.573  0.4643  0.1205 -0.7034
 9625SOL     OW32466   4.392   0.248   6.426 -0.4518 -0.0685 -0.1038
 9625SOL    HW132467   4.355   0.182   6.368 -0.2003 -0.2187 -0.0935
 9625SOL    HW232468   4.326   0.318   6.428 -0.1490  0.2536 -1.1155
 9626SOL     OW32469   5.024   5.673   8.710 -0.8121 -0.1524  0.6261
 9626SOL    HW132470   5.051   5.616   8.638  1.0666  2.1993 -0.6586
 9626SOL    HW232471   5.081   5.649   8.782  0.1437  0.2101  0.0152
 9627SOL     OW32472  11.047   5.684   0.820 -0.1878 -0.1547 -0.0989
 9627SOL    HW132473  11.075   5.740   0.748  0.9424  0.7207  0.9712
 9627SOL    HW232474  11.006   5.745   0.883  0.7053 -0.5633  0.9036
 9628SOL     OW32475   2.316   9.129  10.696  0.1296  0.3628 -0.0967
 9628SOL    HW132476   2.263   9.094  10.768  0.4212  0.3679  0.1258
 9628SOL    HW232477   2.254   9.140  10.624  0.3706 -2.5932 -0.9002
 9629SOL     OW32478   8.242   8.562   6.310  0.5537  0.1100 -0.6951
 9629SOL    HW132479   8.184   8.491   6.282 -0.7454  1.5688 -1.8974
 9629SOL    HW232480   8.223   8.572   6.403  1.3439 -1.5866 -0.3027
 9630SOL     OW32481   5.019  10.382   1.479  0.1088 -0.4570  0.4456
 9630SOL    HW132482   5.025  10.398   1.385  0.2563  1.7057  0.7770
 9630SOL    HW232483   5.088  10.436   1.517 -0.3515 -0.8155  1.8428
 9631SOL     OW32484   0.447  10.575   6.879 -0.1254  0.3738  0.0505
 9631SOL    HW132485   0.364  10.529   6.891  0.2704 -0.0863  1.1495
 9631SOL    HW232486   0.468  10.609   6.966  0.5916  0.9318 -0.3256
 9632SOL     OW32487   3.463   2.627   2.984 -0.0523 -0.0311  0.0974
 9632SOL    HW132488   3.540   2.590   2.942 -1.9722 -2.3686 -1.6559
 9632SOL    HW232489   3.474   2.606   3.077  0.9353 -1.3151 -0.2736
 9633SOL     OW32490   0.883   3.280   0.325 -0.6406 -1.2223  0.6367
 9633SOL    HW132491   0.891   3.186   0.311  0.4150 -0.9026 -1.3366
 9633SOL    HW232492   0.823   3.309   0.257  0.7922 -0.2137 -0.2696
 9634SOL     OW32493   7.006   5.013   5.305 -0.2595  0.2372  0.3463
 9634SOL    HW132494   7.049   4.944   5.255 -0.4738  0.4544 -0.1462
 9634SOL    HW232495   7.009   4.983   5.396 -0.4624 -0.4711  0.1187
 9635SOL     OW32496   8.996   0.626   6.127 -0.5566  0.4309 -0.4699
 9635SOL    HW132497   9.040   0.580   6.055 -1.3315  0.6406 -1.0889
 9635SOL    HW232498   8.974   0.556   6.190  0.6637  0.3276 -0.1293
 9636SOL     OW32499   5.149   5.389  10.309 -0.6614  0.7813 -0.4872
 9636SOL    HW132500   5.112   5.469  10.347  0.6315  2.1262 -1.9417
 9636SOL    HW232501   5.236   5.382  10.348 -0.7451  0.0947 -0.4073
 9637SOL     OW32502   9.024   8.801   7.850 -0.3584 -0.2946  0.1225
 9637SOL    HW132503   9.117   8.802   7.830 -0.2506 -0.6549  0.5655
 9637SOL    HW232504   9.019   8.761   7.937 -0.7973  1.2906  0.8532
 9638SOL     OW32505   0.084   0.451   5.526  0.0523 -0.1544 -0.2566
 9638SOL    HW132506   0.145   0.520   5.502  0.1136 -0.4562 -0.9729
 9638SOL    HW232507   0.122   0.370   5.491 -0.1662 -0.5173  0.3173
 9639SOL     OW32508   4.475   3.814   0.427  0.0231  0.8433  0.2999
 9639SOL    HW132509   4.556   3.860   0.449  1.2201 -0.7539 -0.5466
 9639SOL    HW232510   4.410   3.883   0.413  1.0028  2.1287  1.8248
 9640SOL     OW32511   4.259  10.652   7.692  0.2730  0.2661 -0.3544
 9640SOL    HW132512   4.208  10.686   7.619  2.0673  0.8460 -1.3967
 9640SOL    HW232513   4.344  10.631   7.654 -0.3358 -4.6776  0.3449
 9641SOL     OW32514   6.729   4.919   5.085 -0.0023  0.0774 -0.0785
 9641SOL    HW132515   6.667   4.955   5.022  1.0197  0.9790 -0.5929
 9641SOL    HW232516   6.771   4.996   5.124  1.8455 -0.5066 -0.8101
 9642SOL     OW32517   2.672   2.979   7.018  0.0490  0.1183 -0.3767
 9642SOL    HW132518   2.742   3.040   6.994 -0.9511  1.2458 -0.5291
 9642SOL    HW232519   2.650   2.934   6.936  0.6451 -0.3073 -0.3087
 9643SOL     OW32520   6.107   2.718  10.679  0.5185  0.0875 -0.0993
 9643SOL    HW132521   6.097   2.664  10.601 -0.9575  0.1902 -0.0054
 9643SOL    HW232522   6.057   2.798  10.660  0.8909  0.4982  0.5999
 9644SOL     OW32523   8.267   3.297   7.089  0.3121 -0.0182 -0.0693
 9644SOL    HW132524   8.292   3.308   7.180 -1.0825  0.5763  0.2630
 9644SOL    HW232525   8.230   3.381   7.064 -1.5634 -0.9083 -0.4413
 9645SOL     OW32526   0.524   7.013   3.491 -0.1564 -0.2152 -0.7755
 9645SOL    HW132527   0.559   7.062   3.565  0.4816 -1.1783 -0.4218
 9645SOL    HW232528   0.435   7.046   3.480  0.2602  1.0221 -0.5599
 9646SOL     OW32529  10.287  10.279   1.966 -0.4097  0.6099 -0.1257
 9646SOL    HW132530  10.269  10.205   2.025 -0.2759  1.0189  0.4417
 9646SOL    HW232531  10.275  10.356   2.021 -1.6757  1.0635 -1.0201
 9647SOL     OW32532   6.007  10.761  11.045  0.1810 -0.0296 -0.0340
 9647SOL    HW132533   6.083  10.819  11.052 -0.2892  0.7958 -1.4721
 9647SOL    HW232534   5.972  10.756  11.134  1.1096  0.6762  0.3817
 9648SOL     OW32535   4.007   3.510  10.742 -0.4334 -0.3789  0.2582
 9648SOL    HW132536   3.936   3.519  10.678  0.9677 -0.6981 -1.4215
 9648SOL    HW232537   4.046   3.424  10.722 -0.5688 -0.9527  2.2354
 9649SOL     OW32538   7.478   1.831   8.629  0.4873  0.3678 -0.2972
 9649SOL    HW132539   7.472   1.901   8.694  1.3799  0.1446  0.0279
 9649SOL    HW232540   7.415   1.857   8.562 -1.8408 -0.3217  1.4883
 9650SOL     OW32541  10.961   3.034  10.094 -0.7929 -0.0358  0.2434
 9650SOL    HW132542  10.932   3.087  10.168  1.4287 -0.1386  1.2696
 9650SOL    HW232543  10.910   2.954  10.100 -0.5918 -0.0745  1.7154
 9651SOL     OW32544   5.503   1.637   9.125 -0.1801 -0.3385  0.3937
 9651SOL    HW132545   5.438   1.704   9.105  2.0755  1.3792 -1.7962
 9651SOL    HW232546   5.492   1.572   9.055  0.2852 -0.1586  0.1493
 9652SOL     OW32547   2.434  10.904   1.392 -1.2264 -0.8065  0.6010
 9652SOL    HW132548   2.448  10.900   1.297 -1.5053 -0.5771  0.5486
 9652SOL    HW232549   2.370  10.975   1.404  0.8315  1.0620  1.1908
 9653SOL     OW32550   5.935   1.370   1.086  0.4634 -0.8447 -0.3473
 9653SOL    HW132551   5.991   1.299   1.118 -0.6603 -1.5709  0.0620
 9653SOL    HW232552   5.924   1.428   1.161 -1.0957 -1.8599  0.2615
 9654SOL     OW32553  10.225   0.684   5.416 -0.3124 -0.5066 -0.7454
 9654SOL    HW132554  10.166   0.714   5.485 -0.1753  0.5344 -1.0672
 9654SOL    HW232555  10.180   0.609   5.377 -0.9249 -0.3846 -0.2903
 9655SOL     OW32556   8.378   1.741   2.592 -0.2625 -0.1945  0.1376
 9655SOL    HW132557   8.350   1.698   2.673  0.4184 -0.5254  0.2008
 9655SOL    HW232558   8.345   1.684   2.523 -0.3684 -0.1969  0.1879
 9656SOL     OW32559   7.328   2.674   2.118 -0.1197  0.2357  0.3085
 9656SOL    HW132560   7.300   2.631   2.037  0.3787  1.1951 -0.4010
 9656SOL    HW232561   7.270   2.750   2.126 -0.7673 -0.3402  1.3621
 9657SOL     OW32562  11.003   6.207   4.009  0.0419 -0.6040  0.2751
 9657SOL    HW132563  10.926   6.238   3.960  0.5312  0.2409  0.0312
 9657SOL    HW232564  11.077   6.253   3.969  1.4487 -4.9185 -2.8718
 9658SOL     OW32565  10.852   5.623   6.986 -0.4072  0.0731  0.0929
 9658SOL    HW132566  10.919   5.556   7.000 -1.2374 -0.9796 -0.7674
 9658SOL    HW232567  10.839   5.623   6.891 -2.5352 -0.7056  0.3237
 9659SOL     OW32568   9.960   3.548   2.873 -0.6348  0.3990  0.0898
 9659SOL    HW132569   9.903   3.560   2.798  0.0630 -2.4653 -1.0476
 9659SOL    HW232570   9.959   3.453   2.889  4.4039 -0.0563 -0.6329
 9660SOL     OW32571   6.041   4.016   9.260 -0.1531 -0.2171  0.2381
 9660SOL    HW132572   5.984   4.093   9.271 -0.5962 -0.5801  0.4754
 9660SOL    HW232573   6.011   3.976   9.178  0.6164  0.3088 -0.3319
 9661SOL     OW32574   3.755   6.580   3.047 -0.1720  0.2845  0.1312
 9661SOL    HW132575   3.725   6.492   3.069  0.4168  0.0210 -0.1211
 9661SOL    HW232576   3.814   6.568   2.972 -0.6548  0.9644 -0.3804
 9662SOL     OW32577   5.629   8.950   2.321 -0.0162  0.0833 -0.1287
 9662SOL    HW132578   5.571   8.876   2.302 -2.4173  1.2341  2.0508
 9662SOL    HW232579   5.574   9.027   2.308  1.7924  1.4186 -0.2777
 9663SOL     OW32580  10.660  10.676   6.549 -0.0647  0.0627  0.1228
 9663SOL    HW132581  10.680  10.632   6.632 -0.7278  0.0970  0.3020
 9663SOL    HW232582  10.659  10.769   6.571 -1.3622  0.0144  0.3269
 9664SOL     OW32583   5.823   8.654   4.467 -0.0531 -0.0065  0.6966
 9664SOL    HW132584   5.822   8.648   4.372 -1.3174 -2.9061  0.7747
 9664SOL    HW232585   5.911   8.682   4.489  0.1997  0.9286 -1.3204
 9665SOL     OW32586  10.888   3.906   3.220 -0.2029 -0.4766 -0.2756
 9665SOL    HW132587  10.890   3.999   3.200 -0.0045  0.2439  2.6481
 9665SOL    HW232588  10.978   3.876   3.204  0.4375  0.4992  1.2023
 9666SOL     OW32589   0.320   9.383   0.369 -0.6224 -0.2352 -0.2018
 9666SOL    HW132590   0.342   9.392   0.462 -0.3043  2.7082 -0.4736
 9666SOL    HW232591   0.385   9.321   0.335  0.4188  0.0396  1.1828
 9667SOL     OW32592   2.303   2.947   7.591 -0.1849 -0.1902 -0.3329
 9667SOL    HW132593   2.385   2.936   7.638 -0.0321 -1.8147 -0.8995
 9667SOL    HW232594   2.329   2.975   7.503 -0.1652 -1.3822 -0.7234
 9668SOL     OW32595   4.508   3.691   3.896  0.2262 -0.1338 -0.1214
 9668SOL    HW132596   4.532   3.724   3.809  0.6657  0.8528  0.3518
 9668SOL    HW232597   4.592   3.682   3.942  0.0156 -0.8800  0.1211
 9669SOL     OW32598  11.087   7.149   9.229 -0.4474 -0.1357  0.0474
 9669SOL    HW132599  10.992   7.148   9.217 -0.3188  0.0398 -1.0483
 9669SOL    HW232600  11.119   7.077   9.175  0.2044  1.0512 -1.2168
 9670SOL     OW32601   9.258   0.635   8.525 -0.5125  0.7326  0.0507
 9670SOL    HW132602   9.297   0.719   8.550  1.3081  0.1457 -0.6477
 9670SOL    HW232603   9.194   0.658   8.457 -0.2001  1.5774  0.0325
 9671SOL     OW32604   8.916   6.448   7.754  0.0919  0.3995 -0.6765
 9671SOL    HW132605   8.898   6.498   7.834 -1.5739 -1.9587  0.5609
 9671SOL    HW232606   8.990   6.493   7.713 -1.1947  3.7222  0.3498
 9672SOL     OW32607   4.837   2.021   0.728  0.1979 -0.8932 -0.1685
 9672SOL    HW132608   4.873   1.933   0.736 -1.5917 -1.8233 -1.5660
 9672SOL    HW232609   4.745   2.007   0.704 -0.5698  1.3481  1.1533
 9673SOL     OW32610   3.056  10.547   7.698 -0.1042 -0.0311 -0.0711
 9673SOL    HW132611   2.996  10.596   7.642  0.8221  1.5443  0.2751
 9673SOL    HW232612   3.129  10.525   7.640  1.6953  3.1112  0.7961
 9674SOL     OW32613  10.568   5.475   4.897  0.3571 -0.9701 -0.0852
 9674SOL    HW132614  10.599   5.526   4.822 -1.0158 -0.0407 -0.0492
 9674SOL    HW232615  10.648   5.447   4.941  1.1774 -0.8648 -1.4470
 9675SOL     OW32616   1.885   2.387   1.729  0.2959 -0.5503 -0.5610
 9675SOL    HW132617   1.820   2.324   1.697 -0.0521 -0.6570  0.3294
 9675SOL    HW232618   1.940   2.337   1.789 -0.3161  0.1007  0.5757
 9676SOL     OW32619   7.666   0.688   1.170 -0.1812  0.3217 -0.4591
 9676SOL    HW132620   7.652   0.781   1.153 -1.1556 -0.0613 -1.9450
 9676SOL    HW232621   7.760   0.676   1.157 -0.2607  0.8536 -1.6535
 9677SOL     OW32622   8.425   6.726   0.565  0.0535 -0.3789 -0.1216
 9677SOL    HW132623   8.424   6.817   0.595  0.8225  0.2832 -1.9351
 9677SOL    HW232624   8.493   6.724   0.498  0.3978 -2.4331  0.2243
 9678SOL     OW32625   3.231   6.675   7.746  0.4992  0.3927  0.4490
 9678SOL    HW132626   3.143   6.710   7.759 -0.6545 -2.0873 -0.2062
 9678SOL    HW232627   3.246   6.683   7.652  1.2435  1.3071  0.6273
 9679SOL     OW32628   6.209   2.712   1.251 -0.0420  0.2233  1.1618
 9679SOL    HW132629   6.271   2.774   1.289  2.1802 -0.5156 -1.0259
 9679SOL    HW232630   6.137   2.766   1.219  0.9185  1.4670  1.0346
 9680SOL     OW32631   2.707   6.773   0.840 -0.2658  0.0049  0.3102
 9680SOL    HW132632   2.630   6.814   0.800 -0.6596 -0.7778  0.2392
 9680SOL    HW232633   2.722   6.694   0.788  1.3162  0.7331 -0.4171
 9681SOL     OW32634   9.677  10.076   7.306 -0.2622 -0.9877 -0.3074
 9681SOL    HW132635   9.659  10.142   7.239  0.0508 -0.2887  0.2859
 9681SOL    HW232636   9.607  10.012   7.296 -1.6349  0.3636  0.2807
 9682SOL     OW32637   4.880   6.143  10.536 -0.2467  0.4444  0.6892
 9682SOL    HW132638   4.957   6.102  10.576  0.8020  2.6344  1.0430
 9682SOL    HW232639   4.859   6.216  10.594 -0.9492  1.4660 -0.7948
 9683SOL     OW32640   4.566   1.998   6.521 -0.6545 -0.7291  0.0187
 9683SOL    HW132641   4.660   2.002   6.541 -0.5021 -1.8254 -0.4261
 9683SOL    HW232642   4.557   1.925   6.461 -1.7253 -0.2540 -0.4294
 9684SOL     OW32643   4.256   0.599   5.157 -0.0966  0.2137  0.0717
 9684SOL    HW132644   4.332   0.622   5.104 -1.4183  0.5537 -1.7526
 9684SOL    HW232645   4.201   0.678   5.156 -1.1626 -0.5082  0.1218
 9685SOL     OW32646   9.236  10.340   8.504  0.4807 -0.1077  0.0894
 9685SOL    HW132647   9.319  10.294   8.491  1.4292  1.2810  0.9133
 9685SOL    HW232648   9.257  10.432   8.488 -1.1440  0.1754 -0.6171
 9686SOL     OW32649   3.305   0.408   3.965  0.1603  0.1729 -0.0959
 9686SOL    HW132650   3.246   0.408   3.890 -0.1372  2.2267  0.0802
 9686SOL    HW232651   3.375   0.347   3.941  0.5216  1.4114 -2.4214
 9687SOL     OW32652   3.415   2.733   4.501 -0.2489  0.0793  0.0429
 9687SOL    HW132653   3.459   2.650   4.521  0.2222 -0.1713 -1.8157
 9687SOL    HW232654   3.326   2.707   4.477 -1.4307  0.5497  3.3997
 9688SOL     OW32655   3.587   9.124   1.611 -0.2808 -0.1006 -0.1197
 9688SOL    HW132656   3.567   9.089   1.524  0.9081  1.7557 -1.2137
 9688SOL    HW232657   3.612   9.215   1.595  0.8777  0.0324  2.0723
 9689SOL     OW32658   2.109   0.967   2.248 -0.1530  0.0493 -0.8735
 9689SOL    HW132659   2.020   0.946   2.275 -0.9318 -0.1824 -3.3425
 9689SOL    HW232660   2.103   1.055   2.212  0.9180  0.5284  0.0460
 9690SOL     OW32661   0.622   8.447  10.069 -0.1138 -0.5105 -0.1129
 9690SOL    HW132662   0.691   8.397  10.026  0.2255  0.4093 -0.6754
 9690SOL    HW232663   0.562   8.470   9.999  0.4565  1.0221 -0.1426
 9691SOL     OW32664   6.311  10.535   8.714 -0.5848  0.4140 -0.2552
 9691SOL    HW132665   6.388  10.494   8.674 -0.4177 -0.8146  1.2261
 9691SOL    HW232666   6.250  10.547   8.642  0.1107 -0.7335 -1.0725
 9692SOL     OW32667   4.592   4.659   4.267 -0.7153 -0.6022  0.9138
 9692SOL    HW132668   4.499   4.653   4.287 -0.4888 -0.7842  1.9861
 9692SOL    HW232669   4.634   4.602   4.332  0.1985  0.1278  0.9812
 9693SOL     OW32670   4.914   8.386   8.936  0.1977 -0.4275 -0.4679
 9693SOL    HW132671   4.880   8.475   8.931  2.4867  0.6284  1.2023
 9693SOL    HW232672   4.955   8.371   8.851 -1.9600 -0.7572 -1.5358
 9694SOL     OW32673   8.834  10.575   3.305  0.0280  0.1553 -0.0370
 9694SOL    HW132674   8.744  10.557   3.276  0.2160 -1.0075  0.0322
 9694SOL    HW232675   8.888  10.514   3.254  0.5211 -0.8443  1.5926
 9695SOL     OW32676  11.037   7.332   6.854  0.5181 -0.1577 -0.1838
 9695SOL    HW132677  11.007   7.323   6.944 -2.3807  1.2029 -0.8984
 9695SOL    HW232678  11.050   7.426   6.842 -0.4174 -0.1770 -1.5205
 9696SOL     OW32679   7.522   8.097   7.623 -0.4260  0.3589 -0.0541
 9696SOL    HW132680   7.604   8.105   7.574 -0.8654  1.8985 -0.6113
 9696SOL    HW232681   7.543   8.042   7.698  1.0873  0.6331 -0.2592
 9697SOL     OW32682   6.148   7.625   3.813  0.0816  0.1635  0.5737
 9697SOL    HW132683   6.204   7.697   3.839  1.7312 -1.5230  2.0331
 9697SOL    HW232684   6.095   7.606   3.891 -1.7491  0.9744 -0.4065
 9698SOL     OW32685   2.377   8.399   2.462 -0.3158 -0.1428 -0.1619
 9698SOL    HW132686   2.382   8.448   2.544  1.1478 -1.2180  0.4281
 9698SOL    HW232687   2.430   8.450   2.401  1.5839 -1.1373  0.5757
 9699SOL     OW32688   7.021   3.870   2.387  0.1582 -0.1842  0.1492
 9699SOL    HW132689   7.112   3.862   2.416 -0.3411 -0.6045  1.7026
 9699SOL    HW232690   6.971   3.821   2.452 -1.5255  2.7980  1.3258
 9700SOL     OW32691   3.324   0.036   3.930 -0.0720 -0.3057  0.4084
 9700SOL    HW132692   3.295  -0.014   3.853  0.6895  0.4087 -0.3560
 9700SOL    HW232693   3.246   0.041   3.986 -0.4152 -1.5400  0.0736
 9701SOL     OW32694   6.079   3.842   3.207 -0.4896  0.5994 -0.2437
 9701SOL    HW132695   6.009   3.857   3.143 -0.4254 -0.2802 -0.5361
 9701SOL    HW232696   6.094   3.928   3.247 -0.6744  1.1239 -1.2653
 9702SOL     OW32697  11.109   9.678   4.809 -0.4496  0.3477  0.6534
 9702SOL    HW132698  11.121   9.656   4.717  0.3014  0.6839  0.6581
 9702SOL    HW232699  11.033   9.736   4.811 -0.0463  0.9073  0.1511
 9703SOL     OW32700   3.745   2.172   9.050 -0.5728 -0.1899  0.1929
 9703SOL    HW132701   3.706   2.163   8.963  0.7805  1.0918 -0.6077
 9703SOL    HW232702   3.708   2.253   9.085  2.5256  2.1244 -1.3668
 9704SOL     OW32703   6.852   7.407  10.989  0.0805 -0.6640  0.2533
 9704SOL    HW132704   6.760   7.410  10.962  0.0347 -0.1590  0.4413
 9704SOL    HW232705   6.899   7.452  10.919  0.2143 -1.1384  0.0386
 9705SOL     OW32706   0.538   6.361   1.996 -0.1332  0.6378 -0.1180
 9705SOL    HW132707   0.599   6.380   1.925  1.3426  0.3028  1.0347
 9705SOL    HW232708   0.452   6.385   1.960  0.3095 -1.1480 -2.6403
 9706SOL     OW32709   8.102   1.630   8.657  0.4934  0.7561 -0.1627
 9706SOL    HW132710   8.059   1.588   8.583 -0.6958  0.4253  0.6745
 9706SOL    HW232711   8.149   1.704   8.619  0.2600  0.3391 -1.2928
 9707SOL     OW32712  10.247   6.029   2.505  0.3453  0.0034  0.3863
 9707SOL    HW132713  10.271   6.024   2.597 -1.1560 -2.5998  0.7385
 9707SOL    HW232714  10.152   6.015   2.503  0.1482  1.1695 -1.5027
 9708SOL     OW32715   5.707   8.890  10.002  0.0159  0.5197  0.1669
 9708SOL    HW132716   5.766   8.906   9.929  0.9563 -0.3141  0.7159
 9708SOL    HW232717   5.646   8.964  10.001  1.6335  1.8994  0.1480
 9709SOL     OW32718   4.135   9.340   5.042  0.0033 -0.1013 -0.2122
 9709SOL    HW132719   4.052   9.359   5.086  0.6511  0.7086  0.6813
 9709SOL    HW232720   4.175   9.425   5.027  1.9539 -0.5430  1.9056
 9710SOL     OW32721   3.880   0.340   1.382  0.1468  0.0268 -0.0445
 9710SOL    HW132722   3.791   0.315   1.408 -0.3251  0.9790 -0.7125
 9710SOL    HW232723   3.922   0.258   1.359 -1.0998 -0.2708 -1.3706
 9711SOL     OW32724   7.920   4.859  10.201  0.7638 -0.1744 -0.1226
 9711SOL    HW132725   7.894   4.889  10.114  1.5508  1.1595  0.0739
 9711SOL    HW232726   7.842   4.867  10.254 -0.9327 -4.6994 -1.4810
 9712SOL     OW32727   4.629   2.777  11.027  0.2778 -0.1525  0.3644
 9712SOL    HW132728   4.557   2.753  10.969  0.0045  3.2261 -0.8505
 9712SOL    HW232729   4.601   2.746  11.113 -1.2492 -1.4939 -0.5622
 9713SOL     OW32730   6.945   8.560  10.655  0.1882  0.1612 -0.2308
 9713SOL    HW132731   7.028   8.554  10.703  0.4917 -0.6836 -0.8388
 9713SOL    HW232732   6.952   8.642  10.605  1.8282 -1.1910 -2.3636
 9714SOL     OW32733   6.027   4.813   5.412  0.3378  0.0451 -0.0197
 9714SOL    HW132734   5.941   4.791   5.377  0.6893 -0.9842 -0.2700
 9714SOL    HW232735   6.020   4.906   5.435 -0.7667  0.0322 -0.2260
 9715SOL     OW32736   3.438   5.081   8.128 -0.0136 -0.4991 -0.1883
 9715SOL    HW132737   3.511   5.020   8.137  1.5085  1.4643  1.5583
 9715SOL    HW232738   3.362   5.033   8.160  0.9841 -1.7477  0.3756
 9716SOL     OW32739   1.532   7.308   8.417  0.2359 -0.4051 -0.1483
 9716SOL    HW132740   1.597   7.239   8.429 -0.4688 -1.0431  0.0533
 9716SOL    HW232741   1.450   7.270   8.448 -0.2784  0.3162 -0.5845
 9717SOL     OW32742   1.741  10.649   6.300 -0.0859 -0.0145  0.5625
 9717SOL    HW132743   1.748  10.736   6.341 -0.2924 -0.3560  1.3338
 9717SOL    HW232744   1.654  10.648   6.261  1.1409  1.4375 -2.5643
 9718SOL     OW32745   4.772   6.426   9.511  0.4077 -0.4539 -0.9495
 9718SOL    HW132746   4.684   6.390   9.498  0.5617 -1.1679 -0.1091
 9718SOL    HW232747   4.810   6.430   9.423 -1.0645  1.5323 -1.5879
 9719SOL     OW32748   3.781   6.673   7.128  0.4407 -0.0387  0.6471
 9719SOL    HW132749   3.763   6.601   7.188 -2.1550  0.8185  1.0486
 9719SOL    HW232750   3.696   6.692   7.088  1.4146  1.6357 -0.7673
 9720SOL     OW32751   9.948   8.054   6.974  0.1942 -0.5617 -0.3385
 9720SOL    HW132752  10.042   8.056   6.956  0.5890  1.4311  1.6184
 9720SOL    HW232753   9.910   8.116   6.911  0.3266 -0.5444 -0.4011
 9721SOL     OW32754   5.047   3.428   7.044  0.3337  0.1597  0.0247
 9721SOL    HW132755   4.985   3.369   7.002  0.6711 -0.9406  1.0224
 9721SOL    HW232756   5.099   3.464   6.972 -0.7651  0.2981 -0.7184
 9722SOL     OW32757   6.582  10.742   1.988 -0.0065 -0.0743  0.2054
 9722SOL    HW132758   6.624  10.810   2.040 -0.2494  0.1529  0.1101
 9722SOL    HW232759   6.578  10.778   1.899 -1.1462  0.2649  0.3700
 9723SOL     OW32760   6.652   2.152   2.895 -0.2490  0.0179 -0.1388
 9723SOL    HW132761   6.611   2.076   2.937  0.4831 -0.9961 -1.1676
 9723SOL    HW232762   6.746   2.139   2.910 -0.0543  0.2130 -1.1034
 9724SOL     OW32763   6.867   3.156   2.644  0.1133  0.1166  0.2279
 9724SOL    HW132764   6.795   3.136   2.584 -0.2743 -1.1578  1.0820
 9724SOL    HW232765   6.929   3.206   2.591 -0.5845 -0.2788 -1.0037
 9725SOL     OW32766  10.737   3.127   7.557 -0.0317  0.0624  0.3775
 9725SOL    HW132767  10.679   3.061   7.595  0.2532 -0.1894  0.3758
 9725SOL    HW232768  10.776   3.170   7.633 -2.0073  1.8677  0.4624
 9726SOL     OW32769   8.010   4.022   5.097 -0.1307 -0.0948  0.0975
 9726SOL    HW132770   8.014   4.105   5.050 -0.1433  0.6515  1.3862
 9726SOL    HW232771   8.009   4.046   5.189  1.1993 -1.5848  0.5339
 9727SOL     OW32772  10.685   1.275   6.566  0.4684 -0.1023  0.8150
 9727SOL    HW132773  10.655   1.363   6.590  0.6230  0.0615  0.4090
 9727SOL    HW232774  10.778   1.274   6.591  0.5904  0.0169  0.3666
 9728SOL     OW32775  10.231  10.646   7.331  0.1254  0.4615  0.0629
 9728SOL    HW132776  10.241  10.567   7.278 -0.0131  0.7914 -0.4562
 9728SOL    HW232777  10.313  10.693   7.318 -0.8224  1.7096 -1.8004
 9729SOL     OW32778   8.067  11.032   2.892  0.2042  0.3747  0.4141
 9729SOL    HW132779   8.102  11.113   2.856 -2.1102  1.1568 -0.2396
 9729SOL    HW232780   8.023  11.058   2.973  0.2076 -0.3775  0.6698
 9730SOL     OW32781   0.593   1.500   9.225  0.3507 -0.1251  0.0022
 9730SOL    HW132782   0.547   1.519   9.143  0.3757 -0.3901 -0.0737
 9730SOL    HW232783   0.523   1.483   9.288  0.3426 -0.4178 -0.0862
 9731SOL     OW32784  10.737   9.287   0.985 -0.1089  0.2890 -0.7106
 9731SOL    HW132785  10.819   9.287   0.935 -0.9832 -2.0715 -2.2532
 9731SOL    HW232786  10.670   9.260   0.923 -2.0149  1.5091  0.6995
 9732SOL     OW32787   8.373   0.986   6.006 -0.5111 -0.4280 -0.2722
 9732SOL    HW132788   8.323   1.018   5.931 -1.2183 -0.4323  0.1851
 9732SOL    HW232789   8.361   0.891   6.005 -0.7666 -0.4003  0.0132
 9733SOL     OW32790   6.956   5.593   9.033 -0.1855  0.3642 -0.6148
 9733SOL    HW132791   6.961   5.663   8.967 -0.8206  0.1130 -0.9345
 9733SOL    HW232792   7.008   5.522   8.996  2.8458  1.5891  0.9290
 9734SOL     OW32793   5.164   2.934   9.976 -0.9050  0.0333 -0.3776
 9734SOL    HW132794   5.128   3.023   9.976  1.6947  1.1889 -0.9132
 9734SOL    HW232795   5.257   2.946   9.996  0.0370 -2.3223 -2.7582
 9735SOL     OW32796   2.143   0.820   5.684 -0.3369  0.2884 -0.1792
 9735SOL    HW132797   2.146   0.752   5.751 -1.3777 -0.3829 -0.7827
 9735SOL    HW232798   2.204   0.790   5.617 -1.2412 -0.3808 -0.7237
 9736SOL     OW32799   5.405   9.360   2.990 -0.7049  0.3260  0.1155
 9736SOL    HW132800   5.406   9.364   2.894  4.4702  0.6710 -0.0743
 9736SOL    HW232801   5.453   9.280   3.011  1.6086  2.1429  2.2851
 9737SOL     OW32802   2.787   8.077  11.024 -0.1851  0.0190 -0.0079
 9737SOL    HW132803   2.850   8.085  10.952  0.0554  0.1624  0.2168
 9737SOL    HW232804   2.702   8.067  10.980  0.1891 -2.1085 -0.3402
 9738SOL     OW32805   3.899   2.102   1.251 -0.3409 -0.2788  0.1447
 9738SOL    HW132806   3.906   2.194   1.278 -0.6255 -0.5832  1.3524
 9738SOL    HW232807   3.980   2.062   1.283 -0.4652 -0.5543  0.1119
 9739SOL     OW32808   3.117  10.713   6.450  0.7775  0.1855 -0.1652
 9739SOL    HW132809   3.172  10.760   6.513  0.2439 -1.8986  2.0496
 9739SOL    HW232810   3.173  10.699   6.374  2.1864  0.9945  0.6915
 9740SOL     OW32811   8.180   0.474   9.396  1.0978  0.0322  0.1316
 9740SOL    HW132812   8.252   0.463   9.334  2.1786  2.2564  0.8706
 9740SOL    HW232813   8.221   0.463   9.482  0.4824  0.9835  0.5573
 9741SOL     OW32814   2.503   2.901  10.202 -0.3162  0.1578  0.3645
 9741SOL    HW132815   2.529   2.985  10.165 -0.4389  0.1735  0.3140
 9741SOL    HW232816   2.545   2.836  10.147  2.0567  0.1765  1.9861
 9742SOL     OW32817   7.114   4.727   2.793  0.7237 -0.1956  0.1317
 9742SOL    HW132818   7.111   4.800   2.731 -0.1023 -0.3858 -0.0591
 9742SOL    HW232819   7.207   4.719   2.816  0.9948  0.1040 -0.8169
 9743SOL     OW32820   7.421   2.064   4.495  0.1762 -0.6779  0.3458
 9743SOL    HW132821   7.445   2.156   4.505  0.1001 -0.6615  0.3801
 9743SOL    HW232822   7.498   2.024   4.454  0.8088 -0.9197  1.7178
 9744SOL     OW32823  10.432   5.811   4.266 -0.4466 -0.7449  0.5223
 9744SOL    HW132824  10.418   5.840   4.175  1.6544 -0.2614  0.2920
 9744SOL    HW232825  10.524   5.831   4.283 -0.6186 -1.4721  2.5515
 9745SOL     OW32826   4.161   5.276   7.927  0.3725 -0.4673  0.6867
 9745SOL    HW132827   4.222   5.316   7.866 -0.0934 -1.5139 -0.5093
 9745SOL    HW232828   4.130   5.348   7.981 -0.4815  0.8266 -1.4113
 9746SOL     OW32829   2.020   6.454   5.558  0.4514 -0.1436  0.0339
 9746SOL    HW132830   2.055   6.495   5.479  1.6786  0.6417  0.9405
 9746SOL    HW232831   2.054   6.364   5.556  1.7137  0.2982  0.3595
 9747SOL     OW32832   2.067   7.605   7.749  0.6130 -0.1567  0.1526
 9747SOL    HW132833   2.087   7.611   7.655  2.0712  0.7788  0.4829
 9747SOL    HW232834   2.021   7.686   7.769 -2.7617 -1.8006 -0.3628
 9748SOL     OW32835   9.046   4.329   9.998 -0.1610  0.0763 -0.3139
 9748SOL    HW132836   8.997   4.308  10.078 -0.2199  0.8701 -0.1335
 9748SOL    HW232837   9.104   4.254   9.985 -1.3258 -0.8246 -0.4528
 9749SOL     OW32838   1.848   6.974   2.043  0.2606 -0.4367 -0.0650
 9749SOL    HW132839   1.881   6.989   1.955 -4.0990  2.3805 -1.5705
 9749SOL    HW232840   1.880   7.049   2.093  1.1652 -1.0262  0.2599
 9750SOL     OW32841   3.702   0.283   7.565  0.3598 -0.2972  0.4124
 9750SOL    HW132842   3.766   0.223   7.526 -0.9734 -0.6581 -1.3476
 9750SOL    HW232843   3.753   0.359   7.591  1.4650 -0.3539 -1.4045
 9751SOL     OW32844   8.885   0.833   9.855 -0.2677  0.2756 -0.7113
 9751SOL    HW132845   8.938   0.913   9.851  0.3174 -0.0855 -0.3904
 9751SOL    HW232846   8.856   0.818   9.765 -1.0152  1.2621 -0.6497
 9752SOL     OW32847   5.502  10.124   4.649 -0.4212  0.3043 -0.4121
 9752SOL    HW132848   5.569  10.055   4.640 -1.5503 -0.6266 -2.8493
 9752SOL    HW232849   5.433  10.083   4.701 -0.7867 -0.2329 -1.2772
 9753SOL     OW32850   5.243   9.706   7.993 -0.1522  0.4356  0.2845
 9753SOL    HW132851   5.310   9.664   8.047  0.9497  1.7147 -0.0412
 9753SOL    HW232852   5.222   9.641   7.925  0.9092  0.1109  0.2581
 9754SOL     OW32853  10.292   2.102   0.962 -0.0772 -1.0225 -0.1960
 9754SOL    HW132854  10.299   2.008   0.973 -1.7644 -1.0446  1.0854
 9754SOL    HW232855  10.200   2.117   0.940  0.3021  0.2882 -1.0183
 9755SOL     OW32856   2.855   6.245   8.507  0.0767 -0.6455  0.2689
 9755SOL    HW132857   2.874   6.192   8.585  0.6760  0.1804  0.6963
 9755SOL    HW232858   2.812   6.323   8.541  0.3261 -0.2858 -0.2267
 9756SOL     OW32859   4.483   1.871   9.143 -0.2687 -0.4045  0.1484
 9756SOL    HW132860   4.519   1.846   9.228  1.9792  0.8644 -0.3394
 9756SOL    HW232861   4.437   1.793   9.112  1.8893 -2.1164  0.9738
 9757SOL     OW32862  10.146   7.470   2.347  0.0221 -0.0011  0.5031
 9757SOL    HW132863  10.227   7.421   2.362  0.7640  0.8086 -0.6973
 9757SOL    HW232864  10.127   7.458   2.254 -0.5404  0.8551  0.4904
 9758SOL     OW32865  10.244   4.540   1.516  0.1630  0.0632 -0.3799
 9758SOL    HW132866  10.243   4.628   1.554  1.2347 -0.8495  1.9439
 9758SOL    HW232867  10.330   4.533   1.474  0.6717 -0.3279  0.6891
 9759SOL     OW32868   5.447   3.958   9.561 -0.3555  0.0085  0.0843
 9759SOL    HW132869   5.502   3.883   9.584  0.8274  0.8546  0.0960
 9759SOL    HW232870   5.413   3.989   9.646 -2.0448 -1.3477 -0.0300
 9760SOL     OW32871   7.580   0.409   7.636  0.6465  0.0322  0.1810
 9760SOL    HW132872   7.572   0.493   7.591 -0.1603  0.6151  1.3626
 9760SOL    HW232873   7.490   0.383   7.655  0.8138 -1.5868 -0.9750
 9761SOL     OW32874   3.486   0.358   7.051 -0.1632 -0.6376 -0.1809
 9761SOL    HW132875   3.413   0.388   7.104  0.2588 -2.2112  1.3696
 9761SOL    HW232876   3.449   0.347   6.963 -1.5979 -0.7447  0.4143
 9762SOL     OW32877   8.807   4.792   1.443  0.3486  0.4419 -0.2557
 9762SOL    HW132878   8.788   4.738   1.520  1.2659  0.3906 -0.0544
 9762SOL    HW232879   8.723   4.803   1.400  0.4259 -3.6363 -1.9314
 9763SOL     OW32880   7.325   0.690   2.352 -0.2950  0.1161  0.2332
 9763SOL    HW132881   7.317   0.612   2.296 -0.0651 -0.0987  0.4977
 9763SOL    HW232882   7.347   0.655   2.438 -2.1397  0.3194  0.8422
 9764SOL     OW32883   9.371   8.509   8.814  0.1707  0.3284  0.3266
 9764SOL    HW132884   9.334   8.575   8.755 -0.0643 -1.0293 -1.1030
 9764SOL    HW232885   9.318   8.431   8.800  1.9354 -0.9053  0.1516
 9765SOL     OW32886  10.886   1.326   1.588 -0.1899  0.0644 -0.3462
 9765SOL    HW132887  10.901   1.359   1.500  1.6160  2.5069  0.7297
 9765SOL    HW232888  10.972   1.331   1.630 -0.7967 -1.9262  1.3029
 9766SOL     OW32889   5.928  10.323   2.022 -0.5429 -0.1232 -0.1320
 9766SOL    HW132890   6.009  10.323   2.074  0.5574  1.8995 -1.6793
 9766SOL    HW232891   5.858  10.329   2.087  0.7107  1.3386  1.1853
 9767SOL     OW32892   1.962   6.658   9.415 -0.2527  0.2574 -0.2273
 9767SOL    HW132893   2.051   6.694   9.411 -1.1541  2.7419  0.0275
 9767SOL    HW232894   1.920   6.706   9.486 -1.5590 -1.5459  0.2820
 9768SOL     OW32895   0.952   2.306   4.695 -0.4855 -0.1714 -0.8049
 9768SOL    HW132896   1.034   2.338   4.657  0.1145  0.7569  1.1104
 9768SOL    HW232897   0.919   2.380   4.747 -1.1568 -1.3691  0.5651
 9769SOL     OW32898   1.540   3.184   8.989 -0.1796 -0.7325 -0.5077
 9769SOL    HW132899   1.507   3.128   9.060 -1.2348  0.4594 -0.0339
 9769SOL    HW232900   1.541   3.272   9.025  1.6306 -0.4190 -1.1948
 9770SOL     OW32901   2.085   7.695   8.097  0.0381 -0.3471  0.4485
 9770SOL    HW132902   1.995   7.717   8.072  0.5572  0.1684 -1.0536
 9770SOL    HW232903   2.086   7.704   8.192 -1.0509  1.3742  0.3414
 9771SOL     OW32904   2.967   8.890   1.265 -0.2344  0.6545  0.8473
 9771SOL    HW132905   2.901   8.824   1.247 -0.1215  0.8281 -0.2807
 9771SOL    HW232906   2.943   8.965   1.210  0.0020  1.3234  1.6203
 9772SOL     OW32907   4.917  10.210   6.186 -0.2268  0.2492  0.1115
 9772SOL    HW132908   4.869  10.232   6.266 -1.5765  0.5731 -0.7391
 9772SOL    HW232909   4.927  10.293   6.140 -0.8449 -0.1265 -0.7534
 9773SOL     OW32910   8.473  10.407   2.666  0.6659  0.8616 -0.2998
 9773SOL    HW132911   8.537  10.366   2.608  0.9012  0.3483  0.3119
 9773SOL    HW232912   8.401  10.345   2.669  0.6535  0.8892 -0.0485
 9774SOL     OW32913   5.465   0.359   9.915 -0.2470  0.0550 -0.2035
 9774SOL    HW132914   5.493   0.387  10.002 -0.2677  0.9011 -0.4624
 9774SOL    HW232915   5.410   0.430   9.883 -0.9063 -0.6156 -0.5873
 9775SOL     OW32916   2.441   2.697   4.032  0.3794  0.7137 -0.7854
 9775SOL    HW132917   2.487   2.648   4.101  0.8881  1.0833 -0.8607
 9775SOL    HW232918   2.473   2.787   4.040 -1.1361  1.2453 -0.1237
 9776SOL     OW32919   3.141   9.318   1.355 -0.5213  0.5127  0.3102
 9776SOL    HW132920   3.049   9.293   1.354 -0.1800 -0.9180  1.2606
 9776SOL    HW232921   3.187   9.242   1.318  0.3436  0.8454  0.6610
 9777SOL     OW32922   5.123   5.257   2.090  0.3553 -0.0697 -0.2724
 9777SOL    HW132923   5.051   5.311   2.123  0.6314 -0.0757  0.3687
 9777SOL    HW232924   5.202   5.308   2.110  0.7010 -1.1506  1.3026
 9778SOL     OW32925   1.335   5.091   8.431 -0.4673 -0.0087 -0.5268
 9778SOL    HW132926   1.259   5.118   8.379 -0.8308  0.6856  0.3466
 9778SOL    HW232927   1.298   5.039   8.502 -0.3974  2.0662  1.1188
 9779SOL     OW32928  10.445  10.305   4.004  0.3648 -0.2480 -0.0684
 9779SOL    HW132929  10.460  10.252   3.926 -0.0303  1.6745 -1.5098
 9779SOL    HW232930  10.532  10.317   4.043  0.6033 -0.9501 -0.3692
 9780SOL     OW32931   3.943  11.101   6.365  0.2256  0.1012 -0.3461
 9780SOL    HW132932   3.973  11.043   6.295  2.6987 -0.7898  1.3286
 9780SOL    HW232933   3.983  11.185   6.345 -0.5948  0.3580 -0.9604
 9781SOL     OW32934   0.843   9.987   6.921  0.2183  0.1690  0.0548
 9781SOL    HW132935   0.785  10.010   6.994  0.7091  1.2720  0.1167
 9781SOL    HW232936   0.911  10.053   6.923  0.7948 -0.3788 -0.8004
 9782SOL     OW32937   5.059   2.300   6.378  0.1457  0.0409 -0.2340
 9782SOL    HW132938   4.971   2.305   6.416  0.6184  3.2166  0.7127
 9782SOL    HW232939   5.093   2.215   6.406 -2.3056 -0.9385 -0.0017
 9783SOL     OW32940  10.850   4.797   2.764 -0.1362 -0.0511  0.1422
 9783SOL    HW132941  10.807   4.880   2.785 -1.2731 -0.4731 -0.4032
 9783SOL    HW232942  10.930   4.822   2.717 -0.6326  0.7337 -0.2986
 9784SOL     OW32943   4.867   0.846   3.421  0.1796  0.7874  0.6065
 9784SOL    HW132944   4.868   0.877   3.330  3.3686 -0.4552  0.0615
 9784SOL    HW232945   4.915   0.913   3.469 -1.6292  1.5132  1.4733
 9785SOL     OW32946   4.406   5.971   3.216 -0.7182 -0.5274  0.2336
 9785SOL    HW132947   4.394   5.877   3.227 -1.4171 -0.6516 -1.3403
 9785SOL    HW232948   4.438   5.982   3.126  0.8856  0.6474  0.8811
 9786SOL     OW32949   3.102   4.729   9.204  0.5670  1.2214 -0.2577
 9786SOL    HW132950   3.066   4.666   9.142 -0.5439  2.9522 -1.4930
 9786SOL    HW232951   3.196   4.708   9.207  0.1294 -0.8886 -0.0469
 9787SOL     OW32952   7.569   8.147  10.293 -0.4877 -0.6462  0.6047
 9787SOL    HW132953   7.632   8.171  10.224 -0.6690 -1.2840  0.2049
 9787SOL    HW232954   7.600   8.063  10.325 -0.7367 -0.6251  0.9024
 9788SOL     OW32955   9.514   7.088   7.341  0.3290  0.2796 -0.4619
 9788SOL    HW132956   9.533   7.115   7.251  0.7847  0.9662 -0.1615
 9788SOL    HW232957   9.420   7.101   7.351  0.4408  1.1965 -0.5140
 9789SOL     OW32958   3.187   0.440   0.117 -0.4872 -0.2004  0.2753
 9789SOL    HW132959   3.189   0.532   0.089 -2.2955  0.0603  0.8819
 9789SOL    HW232960   3.161   0.392   0.038  1.4854 -0.3662 -0.3302
 9790SOL     OW32961   7.979   0.771   6.173 -0.6966  0.2422 -0.1169
 9790SOL    HW132962   7.918   0.811   6.234 -1.3802  1.6165 -1.6102
 9790SOL    HW232963   7.924   0.736   6.103  0.1359  0.2129 -0.7767
 9791SOL     OW32964  10.762   4.782   9.533 -0.4453 -0.1764  0.3388
 9791SOL    HW132965  10.752   4.794   9.628  0.3658 -1.4508  0.6155
 9791SOL    HW232966  10.765   4.871   9.498 -0.1789  0.3323  1.5832
 9792SOL     OW32967  10.582   9.558   8.414  0.1819  0.0673 -0.2850
 9792SOL    HW132968  10.578   9.477   8.364  0.3508  0.3232 -0.7204
 9792SOL    HW232969  10.659   9.604   8.379  0.8114 -0.1215  0.7887
 9793SOL     OW32970  10.158   1.179   7.098  0.1263 -0.7322 -0.0291
 9793SOL    HW132971  10.117   1.263   7.078 -0.5838 -1.0457  0.0480
 9793SOL    HW232972  10.252   1.197   7.098  0.0645 -0.2498 -1.4479
 9794SOL     OW32973   9.739   3.045   9.850 -0.4116 -0.0069 -0.0354
 9794SOL    HW132974   9.709   3.044   9.941  1.2127 -0.2409  0.5231
 9794SOL    HW232975   9.658   3.045   9.799 -1.3613  0.2137  1.3988
 9795SOL     OW32976   8.220  10.668   9.475 -0.0391 -0.6831  0.2452
 9795SOL    HW132977   8.151  10.735   9.474 -2.3446 -2.8447  1.7477
 9795SOL    HW232978   8.281  10.695   9.407 -0.3303  3.3894  1.3362
 9796SOL     OW32979   7.148   9.544   8.822  0.5341  0.5700 -0.3187
 9796SOL    HW132980   7.084   9.603   8.781  0.2025  0.0231 -0.6148
 9796SOL    HW232981   7.207   9.521   8.750  0.5676  0.4289 -0.2455
 9797SOL     OW32982   6.911   7.442   6.795 -0.3818  0.2183 -0.5375
 9797SOL    HW132983   6.897   7.370   6.734  0.7237  0.0313 -0.5881
 9797SOL    HW232984   6.983   7.492   6.758  1.9463 -1.2201  1.7366
 9798SOL     OW32985   3.530   6.707   7.008 -0.0506  0.5920  0.1387
 9798SOL    HW132986   3.502   6.623   7.044  0.6456  1.6503  3.5092
 9798SOL    HW232987   3.467   6.726   6.939 -1.3953 -1.7537  0.6076
 9799SOL     OW32988   5.707   6.689   8.801 -0.0102 -0.1731  0.0432
 9799SOL    HW132989   5.727   6.779   8.826 -0.4592 -0.0018 -0.2091
 9799SOL    HW232990   5.671   6.649   8.879 -2.7882  0.7699 -0.6549
 9800SOL     OW32991   6.946   9.458   5.247  0.4551 -0.1575 -0.0790
 9800SOL    HW132992   6.974   9.373   5.283  1.0074 -0.1406 -0.4638
 9800SOL    HW232993   6.976   9.521   5.312  0.7921 -0.1879 -0.2037
 9801SOL     OW32994   2.618   4.629   5.816 -0.0407 -0.1010  0.5624
 9801SOL    HW132995   2.575   4.712   5.798 -1.3394 -0.9577 -0.4211
 9801SOL    HW232996   2.670   4.611   5.738 -2.0571 -1.5792 -0.5308
 9802SOL     OW32997   7.874   9.245   3.643  0.2049  0.1659 -0.2264
 9802SOL    HW132998   7.926   9.196   3.579  1.1571 -0.9860  1.3407
 9802SOL    HW232999   7.784   9.216   3.628  0.4657 -0.3465 -0.8293
 9803SOL     OW33000   7.014   1.434   8.981  0.0075  0.2097 -0.2909
 9803SOL    HW133001   6.939   1.447   8.922 -1.0021 -1.6188  0.4938
 9803SOL    HW233002   7.028   1.339   8.980  2.6227  0.5145 -0.7228
 9804SOL     OW33003   8.868   5.678   7.277  0.4296  0.1652  0.1166
 9804SOL    HW133004   8.873   5.772   7.257 -0.3328  0.4201  1.0635
 9804SOL    HW233005   8.929   5.637   7.215 -0.8012  1.0510 -1.7899
 9805SOL     OW33006   5.443   7.281  10.686  0.5627 -0.0600  0.4166
 9805SOL    HW133007   5.413   7.191  10.702  0.2227  0.3144  2.0105
 9805SOL    HW233008   5.362   7.331  10.675  0.7133  0.2768  0.8389
 9806SOL     OW33009   3.806   3.955   3.028 -0.1540  0.3452  0.0531
 9806SOL    HW133010   3.750   3.913   3.093  1.9853  0.5447  2.1363
 9806SOL    HW233011   3.875   3.890   3.011 -0.5658  0.3664 -1.9487
 9807SOL     OW33012   8.136  10.741   3.914 -0.0131 -0.2537 -0.0647
 9807SOL    HW133013   8.066  10.797   3.880 -0.3349 -0.3578  0.4097
 9807SOL    HW233014   8.183  10.711   3.836 -0.0642  0.3758 -0.3455
 9808SOL     OW33015   6.320   3.229   3.205  0.8367 -0.0775  0.2847
 9808SOL    HW133016   6.357   3.297   3.261 -0.4508  1.0789 -0.2084
 9808SOL    HW233017   6.326   3.264   3.116  0.1217 -0.5758  0.0230
 9809SOL     OW33018   9.974   1.931   4.580  0.4479 -0.1674 -0.2836
 9809SOL    HW133019  10.033   1.999   4.613  1.4318 -1.0993 -0.0617
 9809SOL    HW233020   9.910   1.918   4.650  0.3935  0.3553 -0.2345
 9810SOL     OW33021   5.858   6.878   9.022 -0.1578  0.2632 -0.0346
 9810SOL    HW133022   5.880   6.874   8.929 -1.3022 -1.3158 -0.2575
 9810SOL    HW233023   5.938   6.850   9.067  0.4566  1.2040 -0.5086
 9811SOL     OW33024   5.622   2.165   7.157 -0.0068  0.0264 -0.1044
 9811SOL    HW133025   5.704   2.120   7.175 -1.4758 -2.5163  0.6969
 9811SOL    HW233026   5.617   2.169   7.062  0.5421 -0.7808 -0.1719
 9812SOL     OW33027   5.708   6.196   9.779  0.2440 -0.4156 -0.3722
 9812SOL    HW133028   5.674   6.169   9.694 -1.5594  1.0917 -0.2014
 9812SOL    HW233029   5.755   6.278   9.762 -1.5469  0.8168  0.2290
 9813SOL     OW33030   5.929   3.810   8.450 -0.6997  0.3694  0.1632
 9813SOL    HW133031   5.927   3.884   8.511 -2.1331  2.2681 -2.0132
 9813SOL    HW233032   5.956   3.849   8.367 -1.5126 -1.5513 -1.0602
 9814SOL     OW33033  11.112   8.781   3.707 -0.4884 -0.5690 -0.0704
 9814SOL    HW133034  11.084   8.695   3.739  1.1501 -0.2745  2.4972
 9814SOL    HW233035  11.200   8.792   3.743 -0.8625  2.4140  0.2040
 9815SOL     OW33036   6.771   9.682   4.107  0.3440  0.2172 -0.0215
 9815SOL    HW133037   6.692   9.637   4.077  0.9289 -0.4256 -0.6367
 9815SOL    HW233038   6.791   9.642   4.192 -0.0212  0.4277  0.1661
 9816SOL     OW33039   1.247   7.615   7.024 -0.3508 -0.1315 -0.2969
 9816SOL    HW133040   1.218   7.549   6.961  1.2890 -0.1574 -1.0711
 9816SOL    HW233041   1.274   7.689   6.970  1.0783 -0.1431  0.3610
 9817SOL     OW33042   1.169   1.832   6.299 -0.6719 -0.4667 -0.3081
 9817SOL    HW133043   1.231   1.875   6.240 -2.2562  0.0750 -1.6495
 9817SOL    HW233044   1.175   1.739   6.277  0.3241 -0.5487  0.2441
 9818SOL     OW33045   4.626   2.505   9.456 -0.2456 -0.3060  0.4098
 9818SOL    HW133046   4.715   2.473   9.469 -0.4754 -1.1832 -0.1248
 9818SOL    HW233047   4.571   2.428   9.470 -1.0024  0.4212  1.6882
 9819SOL     OW33048   7.982   0.450   1.352 -1.1065  0.3728 -0.1443
 9819SOL    HW133049   8.006   0.537   1.385 -2.0104  0.0586  1.4403
 9819SOL    HW233050   8.054   0.426   1.294 -0.3765  1.7749  0.1389
 9820SOL     OW33051   6.069   5.605   0.963 -0.3584 -0.2910 -0.4733
 9820SOL    HW133052   6.024   5.547   1.025 -2.3408 -0.4253 -1.9263
 9820SOL    HW233053   6.044   5.572   0.877  0.3340  1.3490 -1.3443
 9821SOL     OW33054   1.739  10.738   9.265  0.2578  0.5424 -0.3255
 9821SOL    HW133055   1.749  10.784   9.181 -0.7010  1.2338 -0.0783
 9821SOL    HW233056   1.651  10.701   9.262  0.7241 -0.6391 -0.1830
 9822SOL     OW33057   3.351   5.375   6.612  0.5098  0.1084  0.0855
 9822SOL    HW133058   3.279   5.416   6.658  0.1048  0.6324 -0.9872
 9822SOL    HW233059   3.430   5.406   6.656  0.1434  0.8800  0.1997
 9823SOL     OW33060  10.333   3.641   6.325 -0.0367  0.2597 -0.3577
 9823SOL    HW133061  10.428   3.636   6.321 -0.0569  0.5950 -1.2962
 9823SOL    HW233062  10.303   3.553   6.302  0.0157  0.4885 -1.3107
 9824SOL     OW33063   8.425   3.853   4.418  0.3323 -0.7409 -1.1415
 9824SOL    HW133064   8.354   3.884   4.474  0.9497  0.6210 -1.0721
 9824SOL    HW233065   8.429   3.759   4.434 -0.2733 -0.5630  0.2104
 9825SOL     OW33066   2.120   6.778   1.802 -0.2743 -0.3992 -0.1539
 9825SOL    HW133067   2.119   6.766   1.897 -3.0933 -1.1088 -0.1842
 9825SOL    HW233068   2.087   6.695   1.768  0.4763 -0.0634 -1.7718
 9826SOL     OW33069   8.336   7.624   7.511 -0.0590  0.1854  0.4481
 9826SOL    HW133070   8.359   7.539   7.472 -0.4708  0.8447 -1.3168
 9826SOL    HW233071   8.241   7.629   7.501 -0.1247  0.5314  1.2357
 9827SOL     OW33072   6.700   3.036   6.017 -0.0329 -0.6075  0.1930
 9827SOL    HW133073   6.697   3.081   5.933 -0.9621 -1.5063 -0.2668
 9827SOL    HW233074   6.786   3.060   6.053 -1.0719  2.8425  0.7293
 9828SOL     OW33075  10.260   0.382  10.964 -0.3588  0.1995 -0.0761
 9828SOL    HW133076  10.185   0.414  10.913  0.2014  1.2320 -0.2802
 9828SOL    HW233077  10.336   0.423  10.923  0.0902  1.2836  1.7464
 9829SOL     OW33078   0.350   8.857   7.007 -0.6034 -0.4544  0.2033
 9829SOL    HW133079   0.337   8.818   7.093  0.6734 -0.9464  0.1973
 9829SOL    HW233080   0.445   8.861   6.996 -0.7382 -0.1428 -1.0683
 9830SOL     OW33081   2.482   0.556   2.125  0.2146 -0.5548  0.0579
 9830SOL    HW133082   2.440   0.603   2.197 -1.3577 -0.7387 -0.7047
 9830SOL    HW233083   2.438   0.471   2.123  0.7482 -0.8262 -0.6722
 9831SOL     OW33084   5.243   7.030  10.234 -0.1103 -0.4914  0.1741
 9831SOL    HW133085   5.251   6.953  10.178  1.6981 -0.3644  0.1954
 9831SOL    HW233086   5.204   7.097  10.177  1.9339 -0.2913 -1.0733
 9832SOL     OW33087   9.908   8.735  10.543 -0.2680 -0.0676 -0.0803
 9832SOL    HW133088   9.990   8.754  10.589 -0.3136  2.2220 -0.7932
 9832SOL    HW233089   9.840   8.761  10.604 -0.4771 -1.5143  0.3282
 9833SOL     OW33090   1.441   1.342   2.514  0.3569  0.1755  0.3966
 9833SOL    HW133091   1.532   1.364   2.492  0.8476 -0.8249  1.2842
 9833SOL    HW233092   1.427   1.383   2.599 -0.7118  1.9797 -0.5924
 9834SOL     OW33093   2.061   7.810  10.429 -0.4157  0.2090  0.0820
 9834SOL    HW133094   2.035   7.868  10.358 -0.7922 -0.0215  0.0306
 9834SOL    HW233095   2.106   7.737  10.386  0.9373  0.9277  0.2177
 9835SOL     OW33096   1.464  10.326   6.850  0.4000  0.1692  0.0292
 9835SOL    HW133097   1.543  10.322   6.796  1.3447 -1.2226  1.4271
 9835SOL    HW233098   1.433  10.416   6.839  1.7993  0.5699 -1.0699
 9836SOL     OW33099   6.350   4.237   1.835  0.2166 -0.0631 -0.4256
 9836SOL    HW133100   6.330   4.198   1.920 -0.5698 -0.2101 -0.6742
 9836SOL    HW233101   6.444   4.255   1.839 -0.0439  1.2278  1.0161
 9837SOL     OW33102   2.527   9.813   8.771  0.2629 -0.7195 -0.1306
 9837SOL    HW133103   2.450   9.757   8.757  0.4593 -1.7596  2.4127
 9837SOL    HW233104   2.492   9.893   8.811  0.5505 -2.2628  3.6466
 9838SOL     OW33105   0.728   2.555   3.985  0.0674 -0.2201  0.8614
 9838SOL    HW133106   0.779   2.475   3.997  0.0578 -0.1881  1.1139
 9838SOL    HW233107   0.778   2.623   4.030 -0.4778 -0.2962  1.5919
 9839SOL     OW33108   4.675   5.368   2.141  0.0103  0.2392 -0.3489
 9839SOL    HW133109   4.730   5.296   2.172 -1.7944 -0.7870  0.6459
 9839SOL    HW233110   4.699   5.442   2.196 -0.9407 -0.7272  1.4621
 9840SOL     OW33111   1.124   5.124   1.553 -0.1939  0.6864  0.1138
 9840SOL    HW133112   1.218   5.143   1.547  0.4129 -1.6887  1.1417
 9840SOL    HW233113   1.090   5.190   1.613  0.6290  2.0633 -0.8778
 9841SOL     OW33114   3.213   1.926   5.158 -0.4713 -0.3049  0.4941
 9841SOL    HW133115   3.306   1.932   5.136 -0.8846 -3.0295 -2.8388
 9841SOL    HW233116   3.174   2.004   5.118  0.1826  0.1715  0.7642
 9842SOL     OW33117   2.293   4.432   4.777 -1.0527 -0.2571  0.5226
 9842SOL    HW133118   2.312   4.372   4.849 -0.3160 -0.6194  0.0427
 9842SOL    HW233119   2.293   4.519   4.817  2.6600 -0.0699  0.4815
 9843SOL     OW33120   0.756   6.484  10.798  0.1600 -0.1734  0.1373
 9843SOL    HW133121   0.733   6.481  10.891  1.0712 -0.9030  0.3570
 9843SOL    HW233122   0.676   6.455  10.753 -1.1690  2.6562  0.4764
 9844SOL     OW33123  10.063   3.423   0.744  0.2458 -0.3748 -0.2264
 9844SOL    HW133124  10.124   3.370   0.795 -0.5004  0.2414  1.3890
 9844SOL    HW233125   9.978   3.409   0.786  0.0920  2.4000  0.5798
 9845SOL     OW33126   1.742   0.972   8.563  0.6203  0.2282  0.3839
 9845SOL    HW133127   1.799   1.017   8.502  0.6556 -0.1013  0.1691
 9845SOL    HW233128   1.798   0.904   8.602  0.1089 -0.7926 -0.6076
 9846SOL     OW33129   2.727  10.831   6.456  0.2021  0.0623 -0.4467
 9846SOL    HW133130   2.786  10.885   6.403  1.2405  0.1010  0.6956
 9846SOL    HW233131   2.739  10.742   6.423  0.5630  0.1351 -0.5120
 9847SOL     OW33132   0.404   4.761   3.107 -0.4389 -0.2537  0.0456
 9847SOL    HW133133   0.395   4.781   3.200 -2.5046 -1.1592  0.1032
 9847SOL    HW233134   0.373   4.840   3.063 -0.4857 -0.2155  0.1472
 9848SOL     OW33135  10.343  10.810   1.987  0.2943 -0.3036  0.4858
 9848SOL    HW133136  10.271  10.747   1.995  0.8274 -0.8741  0.9724
 9848SOL    HW233137  10.344  10.856   2.070 -1.4462  1.9018 -0.6181
 9849SOL     OW33138   2.146   6.931   9.652 -0.0691 -0.2709  0.6190
 9849SOL    HW133139   2.104   6.874   9.716 -2.0080  0.2480 -0.1329
 9849SOL    HW233140   2.186   6.871   9.588  0.6813 -0.7696  1.5240
 9850SOL     OW33141   0.154   6.592   8.852 -0.1652  0.6585 -0.3147
 9850SOL    HW133142   0.156   6.510   8.804  0.2221  0.8402 -0.6125
 9850SOL    HW233143   0.078   6.584   8.910 -0.5687  0.3903 -0.8749
 9851SOL     OW33144   0.689   8.540   4.615  0.5243 -0.1618  0.3164
 9851SOL    HW133145   0.658   8.489   4.539 -0.0613  0.6685 -0.0236
 9851SOL    HW233146   0.611   8.550   4.669  0.7204  0.0809  0.5505
 9852SOL     OW33147   0.510   5.733   6.558 -0.1792  0.6051 -0.0907
 9852SOL    HW133148   0.531   5.817   6.598 -0.3982  0.5531  0.1355
 9852SOL    HW233149   0.503   5.672   6.631 -0.2537  0.4406 -0.2329
 9853SOL     OW33150  10.010   9.828  10.159 -0.4960 -0.3441 -0.0625
 9853SOL    HW133151   9.939   9.807  10.099 -0.2590  0.7593 -0.7662
 9853SOL    HW233152   9.995   9.919  10.184 -0.3230 -0.6341  1.2105
 9854SOL     OW33153   3.079   6.525   6.617  0.2294  0.1913  0.0591
 9854SOL    HW133154   3.044   6.439   6.641  0.4573 -0.4570 -1.7594
 9854SOL    HW233155   3.115   6.560   6.699 -0.7024 -1.0249  1.0293
 9855SOL     OW33156   7.867   5.817   4.537  0.1526  0.6253  0.4260
 9855SOL    HW133157   7.889   5.816   4.444 -0.3872  1.8621  0.2559
 9855SOL    HW233158   7.788   5.872   4.542  0.3880  0.8854  1.6583
 9856SOL     OW33159   3.071   8.241   9.263 -0.1900 -0.4876 -1.0141
 9856SOL    HW133160   3.009   8.287   9.206  0.0236 -2.0865 -2.6350
 9856SOL    HW233161   3.068   8.289   9.346 -0.5986  1.8741 -2.3133
 9857SOL     OW33162   9.756   5.347   7.118  0.7120 -0.7946 -0.4223
 9857SOL    HW133163   9.693   5.340   7.190 -0.1359  1.4512 -0.8645
 9857SOL    HW233164   9.839   5.369   7.161 -0.4211  3.8447 -0.0988
 9858SOL     OW33165   4.625   0.989   9.029 -0.8252 -0.1227 -0.4621
 9858SOL    HW133166   4.543   0.950   9.059 -1.4355 -1.0337 -3.0944
 9858SOL    HW233167   4.693   0.926   9.055 -0.7381  0.9902  2.4126
 9859SOL     OW33168   5.210   2.943   6.343 -0.0776  0.5085  0.2321
 9859SOL    HW133169   5.241   2.988   6.264 -1.3917  1.4316  0.2069
 9859SOL    HW233170   5.127   2.903   6.317 -0.8124  1.2996  1.2764
 9860SOL     OW33171   0.442  10.784  10.943  0.0953  0.0712 -0.2770
 9860SOL    HW133172   0.349  10.801  10.933 -0.6685 -3.3468  0.0760
 9860SOL    HW233173   0.462  10.714  10.881  2.3037  0.2908  0.0870
 9861SOL     OW33174   6.116   8.357   8.115 -0.2124  0.1051  0.2455
 9861SOL    HW133175   6.105   8.324   8.204 -0.3385  1.2798  0.6838
 9861SOL    HW233176   6.203   8.397   8.115  0.7854 -1.9055 -0.8506
 9862SOL     OW33177   2.797   4.511   7.285 -0.2526  0.0769  0.1564
 9862SOL    HW133178   2.843   4.538   7.364  0.6248 -1.2810  0.1400
 9862SOL    HW233179   2.715   4.472   7.317  0.9183 -2.1742  0.5772
 9863SOL     OW33180   8.421   2.413   1.029 -0.1540 -0.1780 -0.3511
 9863SOL    HW133181   8.338   2.382   0.992  0.2302  0.7711 -2.1332
 9863SOL    HW233182   8.423   2.378   1.118 -1.5768 -1.8205 -0.9178
 9864SOL     OW33183   8.127   4.496   4.149 -0.1022 -0.2650  0.1767
 9864SOL    HW133184   8.104   4.574   4.200 -0.1881  0.7240 -1.3340
 9864SOL    HW233185   8.052   4.438   4.160  0.0743 -0.2751  1.5268
 9865SOL     OW33186   0.794   0.871   4.445 -0.2095  0.0885  0.1467
 9865SOL    HW133187   0.864   0.806   4.447 -0.4220 -0.1655  2.5338
 9865SOL    HW233188   0.769   0.882   4.537 -3.6613 -0.2288 -0.6250
 9866SOL     OW33189   6.809   8.501   7.247 -0.1157  0.3970  0.6057
 9866SOL    HW133190   6.732   8.558   7.244  0.4680  1.1602 -1.4536
 9866SOL    HW233191   6.862   8.529   7.173  2.2675  0.0167  2.0796
 9867SOL     OW33192   1.910   8.028   9.951  0.6956 -0.1266  0.2631
 9867SOL    HW133193   1.816   8.031   9.936  0.2730 -0.5784  2.4247
 9867SOL    HW233194   1.935   8.119   9.968  0.3406 -0.1816  1.1397
 9868SOL     OW33195   3.232   0.430   8.346 -0.2800  0.0195  0.4664
 9868SOL    HW133196   3.295   0.381   8.398  0.4204  0.3488 -0.0400
 9868SOL    HW233197   3.217   0.376   8.268  0.6876  0.6842 -0.2129
 9869SOL     OW33198   6.293   1.230   0.799 -0.1473  0.4822 -0.3288
 9869SOL    HW133199   6.278   1.168   0.728 -0.1062 -2.7305  2.2203
 9869SOL    HW233200   6.389   1.232   0.809 -0.0807  1.8748 -1.0853
 9870SOL     OW33201  10.004   5.789   2.145  0.4420  0.3334  0.4853
 9870SOL    HW133202  10.015   5.836   2.062 -0.2071 -1.3252 -0.6060
 9870SOL    HW233203  10.092   5.785   2.182  1.3574 -1.3760 -1.6098
 9871SOL     OW33204   2.189   4.632   8.848 -0.2467  0.4728  0.0349
 9871SOL    HW133205   2.203   4.722   8.817 -1.1756  1.4939  2.2975
 9871SOL    HW233206   2.101   4.609   8.816 -0.1009  0.4553 -0.3563
 9872SOL     OW33207   9.348   8.296   1.327 -0.5189  0.2525  0.1136
 9872SOL    HW133208   9.407   8.305   1.402  0.2209  0.5546 -0.4832
 9872SOL    HW233209   9.353   8.381   1.283  1.0169 -0.6910 -1.6604
 9873SOL     OW33210   6.796   5.379   0.300 -0.2881  0.0197 -0.2910
 9873SOL    HW133211   6.727   5.406   0.361 -0.9156  0.7199 -1.2827
 9873SOL    HW233212   6.867   5.441   0.317 -0.4703  0.2293 -0.2822
 9874SOL     OW33213   0.558   3.743   6.043  0.0347 -0.0237 -0.0367
 9874SOL    HW133214   0.520   3.681   6.106 -0.3766  0.9318  0.6738
 9874SOL    HW233215   0.601   3.687   5.978  0.2358 -1.0446  0.9366
 9875SOL     OW33216   6.995   2.192   9.670  0.1330 -0.0107  0.0695
 9875SOL    HW133217   7.055   2.264   9.649  2.0703 -1.4012  0.5627
 9875SOL    HW233218   6.982   2.200   9.765 -1.2118  0.8041 -0.1638
 9876SOL     OW33219   2.051   2.149   5.828 -0.3700  0.2427 -0.3052
 9876SOL    HW133220   1.991   2.075   5.829  0.0978 -0.1333  0.9516
 9876SOL    HW233221   2.135   2.111   5.803  0.4907 -0.1984  2.8807
 9877SOL     OW33222   1.848   1.104   2.009  0.0242 -0.2082  0.2767
 9877SOL    HW133223   1.838   1.143   1.923  1.2666  0.5774  0.4603
 9877SOL    HW233224   1.768   1.053   2.022 -1.5085  1.9515 -0.1346
 9878SOL     OW33225   2.099   9.925   1.006  0.0302 -0.0331 -0.2756
 9878SOL    HW133226   2.167   9.865   0.975  2.6986  2.5853  0.1287
 9878SOL    HW233227   2.130   9.955   1.091 -1.2510  1.8093 -0.3969
 9879SOL     OW33228   0.147   4.012   0.481 -0.0586 -0.5170 -0.0838
 9879SOL    HW133229   0.142   4.007   0.385 -0.8962 -1.0090 -0.0228
 9879SOL    HW233230   0.215   4.078   0.497  2.0129 -2.3154 -0.9915
 9880SOL     OW33231   1.084   7.732   3.177  0.1061  0.4284 -0.4784
 9880SOL    HW133232   0.990   7.722   3.189 -0.2538  1.8444 -1.8233
 9880SOL    HW233233   1.112   7.649   3.138 -0.5908  0.0232 -0.1259
 9881SOL     OW33234   0.390   1.064   0.006  0.2905 -0.7441 -0.0578
 9881SOL    HW133235   0.307   1.067   0.055  0.4289 -0.4515  0.1647
 9881SOL    HW233236   0.414   1.156  -0.007  0.9776 -0.8219  0.5721
 9882SOL     OW33237   2.584   4.945  10.695 -0.0682 -0.5600 -0.6125
 9882SOL    HW133238   2.638   4.912  10.767  0.1962  0.6830 -0.2116
 9882SOL    HW233239   2.647   4.973  10.629 -0.3128 -1.8288 -1.4205
 9883SOL     OW33240   6.888   8.297   6.874 -0.1523 -0.1369  0.3343
 9883SOL    HW133241   6.966   8.352   6.882  0.2769 -0.5987 -0.5158
 9883SOL    HW233242   6.880   8.255   6.959  0.3327  0.1631  0.5362
 9884SOL     OW33243   0.612   8.392   4.368  0.2405  0.2612  0.5806
 9884SOL    HW133244   0.606   8.449   4.291 -0.3528 -0.7780 -0.1720
 9884SOL    HW233245   0.621   8.304   4.332 -0.9262 -0.3402  1.6784
 9885SOL     OW33246   7.108   1.185   0.617 -0.2384  0.2957 -0.3593
 9885SOL    HW133247   7.139   1.144   0.697  1.4236 -2.5992 -2.3094
 9885SOL    HW233248   7.147   1.273   0.619  1.4146 -0.4008  1.0801
 9886SOL     OW33249   3.957   1.584   1.421  0.1728 -0.4007 -0.4623
 9886SOL    HW133250   4.012   1.563   1.496  0.7580  0.4399 -0.6475
 9886SOL    HW233251   3.925   1.499   1.391  1.3614 -0.9103 -0.3424
 9887SOL     OW33252   3.888   2.721   1.988 -0.5908 -0.0263  0.0544
 9887SOL    HW133253   3.799   2.740   2.018 -1.5897 -1.7450 -1.5915
 9887SOL    HW233254   3.909   2.791   1.926 -1.6404 -0.6804 -1.0794
 9888SOL     OW33255   5.319  10.400   0.818  0.3064 -0.2036 -0.7642
 9888SOL    HW133256   5.345  10.344   0.892  0.0168 -0.5678 -0.9364
 9888SOL    HW233257   5.265  10.343   0.763 -0.2663  0.3382 -0.7725
 9889SOL     OW33258   9.294   3.425   1.404 -0.4087 -0.1929  0.2157
 9889SOL    HW133259   9.339   3.345   1.432  0.1407 -0.8466 -2.2662
 9889SOL    HW233260   9.319   3.435   1.312 -2.4350  1.4884 -0.2247
 9890SOL     OW33261   5.772  10.981   0.169  0.6070 -0.3564 -0.0547
 9890SOL    HW133262   5.754  11.043   0.099  2.9725 -0.9928 -1.3498
 9890SOL    HW233263   5.711  10.908   0.153 -1.3514  1.0185  0.7733
 9891SOL     OW33264   1.258   0.014   1.103 -0.8651  0.7629 -0.0728
 9891SOL    HW133265   1.228  -0.030   1.024 -0.9739  0.2379  0.2515
 9891SOL    HW233266   1.180   0.018   1.159 -0.3743 -0.4963  0.7282
 9892SOL     OW33267   8.140   1.645   6.324 -0.3946 -0.0025  0.3841
 9892SOL    HW133268   8.046   1.627   6.316 -0.4384  0.8366 -1.5676
 9892SOL    HW233269   8.182   1.572   6.278 -0.3364  1.5987 -2.3424
 9893SOL     OW33270   3.256   9.266   9.297  0.1029 -0.4525 -0.0658
 9893SOL    HW133271   3.323   9.197   9.301  0.3338 -0.1663  1.4043
 9893SOL    HW233272   3.192   9.241   9.364 -0.3443  0.2258 -0.2367
 9894SOL     OW33273   1.994   8.581   2.526 -0.1883 -0.0098 -0.0283
 9894SOL    HW133274   1.909   8.565   2.485 -0.3556  0.2078  0.2309
 9894SOL    HW233275   2.055   8.522   2.480 -0.8201 -1.5529  1.0201
 9895SOL     OW33276   2.311   8.297   0.030  0.2199 -0.2848  0.0165
 9895SOL    HW133277   2.241   8.362   0.021  0.4749 -0.2139 -1.7344
 9895SOL    HW233278   2.320   8.285   0.125 -1.4522  0.4615  0.3085
 9896SOL     OW33279   6.684   7.162   2.433 -0.5918 -0.2691 -0.3898
 9896SOL    HW133280   6.609   7.147   2.491 -0.4653 -1.2378 -0.4539
 9896SOL    HW233281   6.753   7.195   2.491 -0.4759 -1.2014  0.0315
 9897SOL     OW33282   1.867   7.952   5.527  0.4632  0.0729 -0.2582
 9897SOL    HW133283   1.801   8.014   5.495  0.4313  0.0026 -0.3315
 9897SOL    HW233284   1.879   7.975   5.619  0.9063  0.5836 -0.4399
 9898SOL     OW33285   0.609   4.662   1.816 -0.5474  0.1318 -0.0757
 9898SOL    HW133286   0.632   4.623   1.900  0.5337  0.0720 -0.3831
 9898SOL    HW233287   0.612   4.589   1.754  3.3969  0.8629 -1.0245
 9899SOL     OW33288   0.127   0.511   6.804  0.1858 -0.7156 -0.2920
 9899SOL    HW133289   0.186   0.442   6.834 -0.8817 -1.5150  0.0146
 9899SOL    HW233290   0.046   0.497   6.853 -0.2501  0.4045 -0.6554
 9900SOL     OW33291   7.227  10.923   9.637 -0.0914  0.1442  0.4607
 9900SOL    HW133292   7.218  10.840   9.684 -1.8201 -0.2079 -0.4053
 9900SOL    HW233293   7.254  10.899   9.549  1.6528  0.7000  0.8036
 9901SOL     OW33294   5.568   7.836  10.315  0.1900 -0.1283 -0.2956
 9901SOL    HW133295   5.475   7.851  10.331  0.3991 -1.2527  2.5852
 9901SOL    HW233296   5.606   7.923  10.312 -0.6421  0.2931  0.8702
 9902SOL     OW33297   0.423   7.111  10.339  0.4025  0.0351 -0.1323
 9902SOL    HW133298   0.450   7.078  10.424  0.8689 -5.1416 -1.9251
 9902SOL    HW233299   0.327   7.109  10.341  0.4033  0.5715  0.4647
 9903SOL     OW33300   7.591   3.878  10.764  0.7851  0.5756 -0.2179
 9903SOL    HW133301   7.500   3.850  10.762  0.9838 -0.1368  0.1735
 9903SOL    HW233302   7.593   3.950  10.827  0.1601  1.9331 -1.6823
 9904SOL     OW33303   1.270   2.794  10.660  0.0309  0.3595 -0.3338
 9904SOL    HW133304   1.325   2.719  10.637  2.1576  1.1083  1.9436
 9904SOL    HW233305   1.312   2.868  10.615  0.0838  0.7206  0.3041
 9905SOL     OW33306   7.632   3.872   4.019  0.6771  0.2216 -0.5037
 9905SOL    HW133307   7.552   3.923   4.006  1.0677  1.0253  0.1581
 9905SOL    HW233308   7.702   3.935   4.002  1.1644 -0.0533  0.4757
 9906SOL     OW33309   2.266   5.551   2.408 -0.5106  0.2181  0.0438
 9906SOL    HW133310   2.286   5.503   2.489 -0.7648 -0.4103 -0.2679
 9906SOL    HW233311   2.197   5.612   2.434 -2.2815 -1.5973 -0.2242
 9907SOL     OW33312   8.726   3.457   1.045  0.1938 -0.0971 -0.1333
 9907SOL    HW133313   8.816   3.477   1.069 -0.1278  1.3229 -0.0641
 9907SOL    HW233314   8.732   3.428   0.954  0.7035  0.1227 -0.1749
 9908SOL     OW33315   0.928   4.367   9.555  0.1420  0.6687 -0.2160
 9908SOL    HW133316   0.996   4.376   9.488  0.0263  1.1026 -0.2764
 9908SOL    HW233317   0.846   4.368   9.506  0.0923  0.0818 -0.1481
 9909SOL     OW33318   2.882   1.430   5.443  0.2705 -0.2419  0.1176
 9909SOL    HW133319   2.846   1.373   5.376  0.4085 -1.3555  0.9730
 9909SOL    HW233320   2.808   1.483   5.472  0.2959  0.5599 -1.1777
 9910SOL     OW33321   9.988   9.715   1.086  0.4277  0.0031  0.6709
 9910SOL    HW133322   9.969   9.627   1.117  1.9620  0.0723  1.9736
 9910SOL    HW233323  10.042   9.703   1.008 -0.1916 -0.2000  0.2726
 9911SOL     OW33324   2.947   7.797   8.958 -0.0570 -0.1756  0.3749
 9911SOL    HW133325   2.952   7.827   8.867  0.4598 -1.1512  0.0777
 9911SOL    HW233326   3.019   7.842   9.002  0.8581 -1.1114 -0.1218
 9912SOL     OW33327   3.147   4.507   0.141  0.4810 -0.0755 -0.2922
 9912SOL    HW133328   3.157   4.415   0.166 -1.4943  0.0694  1.2064
 9912SOL    HW233329   3.235   4.543   0.150  0.8469 -1.2807  1.4466
 9913SOL     OW33330  10.037   9.879   5.740  0.1899 -0.3939 -0.3198
 9913SOL    HW133331  10.112   9.857   5.685  0.0153  0.8056 -1.0790
 9913SOL    HW233332  10.067   9.951   5.795 -0.6990  0.8357 -1.3926
 9914SOL     OW33333   5.136   3.009   3.421  0.9719 -0.0434  0.5216
 9914SOL    HW133334   5.225   2.978   3.400  1.3823 -0.0232  2.1010
 9914SOL    HW233335   5.145   3.050   3.507 -0.7169 -0.7311  1.0654
 9915SOL     OW33336   8.530   3.799   4.163  0.1299  0.0316  0.4301
 9915SOL    HW133337   8.618   3.760   4.161 -0.7115 -1.9756  0.4699
 9915SOL    HW233338   8.509   3.806   4.257  0.1132  0.2445  0.4128
 9916SOL     OW33339   1.996   1.075   5.140  0.3701  0.2678 -0.2909
 9916SOL    HW133340   2.005   1.064   5.046  1.2557  0.0524 -0.1873
 9916SOL    HW233341   1.916   1.027   5.162  0.8755 -0.8184 -0.7476
 9917SOL     OW33342   0.751   8.388   5.843 -0.2493 -0.6810  0.2467
 9917SOL    HW133343   0.735   8.323   5.912 -0.7643 -1.1140 -0.2705
 9917SOL    HW233344   0.844   8.379   5.823 -0.1840 -0.8274  0.6059
 9918SOL     OW33345   8.460  10.260   3.914  0.0692  0.2413  0.0701
 9918SOL    HW133346   8.543  10.228   3.949 -0.9907 -0.7407  1.8769
 9918SOL    HW233347   8.442  10.340   3.962  0.6127  1.2477 -1.3387
 9919SOL     OW33348   6.623  10.791   6.425  0.0033 -0.0217 -0.0053
 9919SOL    HW133349   6.602  10.829   6.511  0.3290 -0.2788  0.1888
 9919SOL    HW233350   6.568  10.713   6.420 -0.5909  0.4093 -0.3619
 9920SOL     OW33351   9.343   0.213   4.011  0.0857  0.1481  0.3247
 9920SOL    HW133352   9.282   0.139   4.011 -0.0153  0.2287  0.5764
 9920SOL    HW233353   9.322   0.261   4.092 -0.6451  1.1036 -0.4045
 9921SOL     OW33354   8.147   9.359   1.345  0.4122  0.4788 -0.2806
 9921SOL    HW133355   8.217   9.344   1.409  1.0051 -1.4613 -1.2689
 9921SOL    HW233356   8.096   9.278   1.348 -0.1338  0.7660 -1.5320
 9922SOL     OW33357   1.692   2.881   4.985 -0.4069 -0.0034 -0.0730
 9922SOL    HW133358   1.667   2.869   4.893 -0.3106  0.1032 -0.1141
 9922SOL    HW233359   1.718   2.973   4.991 -2.6549  0.6500  0.6083
 9923SOL     OW33360   7.105   1.301   5.711  0.5092 -0.6778 -0.4339
 9923SOL    HW133361   7.145   1.324   5.794  0.9245  1.1534 -1.0973
 9923SOL    HW233362   7.019   1.342   5.713  0.5376 -0.5817 -0.9260
 9924SOL     OW33363   4.532  10.850   6.878 -0.1050 -0.0454 -0.6030
 9924SOL    HW133364   4.617  10.807   6.885 -0.7733 -1.7362 -2.2167
 9924SOL    HW233365   4.479  10.810   6.947 -0.3016 -0.8349 -1.1937
 9925SOL     OW33366   1.883  10.029   0.068 -0.1908  0.0109  0.1632
 9925SOL    HW133367   1.912  10.118   0.047 -0.3966 -0.0870 -0.5712
 9925SOL    HW233368   1.958   9.974   0.044 -0.3611 -0.0864 -0.1491
 9926SOL     OW33369  10.033  10.413   2.658 -0.3975 -0.0129  0.0763
 9926SOL    HW133370   9.946  10.413   2.699  0.7011 -0.0969  2.5975
 9926SOL    HW233371  10.075  10.333   2.690  0.5003 -0.1970 -1.4449
 9927SOL     OW33372   4.619   4.070  10.301  0.5462 -0.5530 -0.4935
 9927SOL    HW133373   4.608   4.002  10.235  0.2482 -0.1465 -0.8609
 9927SOL    HW233374   4.547   4.131  10.286  1.5666  0.5665 -1.0369
 9928SOL     OW33375   4.426   3.918  10.601  0.5674 -0.2017  0.3161
 9928SOL    HW133376   4.369   3.921  10.524  0.7421  0.1691  0.1978
 9928SOL    HW233377   4.370   3.883  10.671 -0.3480  1.7686  0.6538
 9929SOL     OW33378   9.197   8.512   2.514  0.1984 -0.2761 -0.0646
 9929SOL    HW133379   9.238   8.580   2.567 -1.1761  0.6782 -0.1819
 9929SOL    HW233380   9.237   8.522   2.428  1.3713 -0.8755  0.3889
 9930SOL     OW33381   8.944   5.855   8.393 -0.1446 -0.3321  0.1960
 9930SOL    HW133382   8.898   5.884   8.472 -0.0032  0.4656  0.0013
 9930SOL    HW233383   8.883   5.796   8.349 -0.8502  0.4404  0.1216
 9931SOL     OW33384  10.746   3.475   6.458  0.0121 -0.5708  0.0409
 9931SOL    HW133385  10.698   3.482   6.541  1.2076  0.4597  0.6758
 9931SOL    HW233386  10.704   3.401   6.413 -1.5713 -0.2766  0.9406
 9932SOL     OW33387   0.444   4.487   4.846 -0.0993 -0.0982  0.0701
 9932SOL    HW133388   0.383   4.535   4.903 -0.9817 -1.3750  0.2625
 9932SOL    HW233389   0.398   4.405   4.827  1.2303 -0.7430 -0.4654
 9933SOL     OW33390   6.067   7.760  10.562 -0.1194 -0.2408 -0.3592
 9933SOL    HW133391   6.112   7.693  10.511 -0.6144 -0.9179  0.0738
 9933SOL    HW233392   5.974   7.742  10.548 -0.2537  0.2519 -0.1093
 9934SOL     OW33393   5.243   2.596   8.592 -0.8528 -0.4910  0.2633
 9934SOL    HW133394   5.159   2.600   8.546  0.2868 -1.9159 -2.1503
 9934SOL    HW233395   5.297   2.664   8.551 -0.2870 -0.7501  0.5567
 9935SOL     OW33396   9.074   4.974   7.441 -0.4472  0.4563  0.2626
 9935SOL    HW133397   9.058   5.008   7.353  1.9696  1.1380 -0.0000
 9935SOL    HW233398   9.094   5.052   7.493  0.0553 -0.0932  0.9153
 9936SOL     OW33399  10.990   3.552   0.758 -0.1309 -0.2129 -0.0753
 9936SOL    HW133400  10.977   3.484   0.824  1.3444  0.4196  0.8972
 9936SOL    HW233401  10.993   3.634   0.807 -0.3617  0.4065 -1.0723
 9937SOL     OW33402   5.485   6.293   4.034 -0.2461  0.0137  0.0761
 9937SOL    HW133403   5.489   6.341   3.951  0.9343 -2.4508 -1.4374
 9937SOL    HW233404   5.536   6.214   4.017 -3.0994 -2.4119  1.9604
 9938SOL     OW33405   5.787   1.293   7.006  0.0907  0.7255  0.2760
 9938SOL    HW133406   5.785   1.211   7.055 -0.5737 -0.0036 -0.9163
 9938SOL    HW233407   5.722   1.281   6.937 -1.6457  3.1050  1.3538
 9939SOL     OW33408   7.086   2.401  10.692  0.3388  0.1602 -0.1172
 9939SOL    HW133409   7.110   2.365  10.606 -0.4428  1.8148 -1.0680
 9939SOL    HW233410   7.094   2.326  10.752  2.2982 -0.7040 -1.3532
 9940SOL     OW33411   3.581   0.266  11.071  0.0106  0.1212  0.4234
 9940SOL    HW133412   3.542   0.179  11.059 -0.3713 -0.0884  2.7700
 9940SOL    HW233413   3.673   0.254  11.048 -0.4214 -0.3725 -1.2116
 9941SOL     OW33414   3.281   0.202   2.497  0.1056 -0.4440  0.1843
 9941SOL    HW133415   3.376   0.215   2.491  0.3102 -0.3541  2.7038
 9941SOL    HW233416   3.259   0.230   2.586 -2.2723 -0.6398 -0.2943
 9942SOL     OW33417   6.683   7.281   7.873 -0.3503 -0.0309 -0.3604
 9942SOL    HW133418   6.703   7.257   7.963  1.8416 -0.1851 -0.8339
 9942SOL    HW233419   6.627   7.210   7.841 -0.4558 -0.4001  0.6318
 9943SOL     OW33420  10.165   3.731   0.185  0.2787  0.6009  0.1463
 9943SOL    HW133421  10.258   3.753   0.182  0.0473  1.5821 -0.0928
 9943SOL    HW233422  10.152   3.696   0.273  0.6357  1.6663  0.6458
 9944SOL     OW33423   9.383   5.617   4.405  0.0950 -0.3003  0.3989
 9944SOL    HW133424   9.344   5.543   4.451  0.0501 -0.7201 -0.3048
 9944SOL    HW233425   9.474   5.618   4.434 -0.3630  0.5875  1.9296
 9945SOL     OW33426   4.809   8.014   8.610  0.3401 -0.3836  0.4637
 9945SOL    HW133427   4.776   7.965   8.685  1.2892  0.2847  1.3462
 9945SOL    HW233428   4.904   8.010   8.618  0.4495  0.1555 -0.4003
 9946SOL     OW33429   8.276   4.115   8.038  0.1412 -0.4157 -0.2370
 9946SOL    HW133430   8.195   4.065   8.026 -0.2766  0.4578 -1.1938
 9946SOL    HW233431   8.343   4.049   8.054 -0.3331 -1.3299 -1.8355
 9947SOL     OW33432   4.708   9.903  10.934 -0.2761  0.0317  0.2237
 9947SOL    HW133433   4.635   9.965  10.930 -0.5789  0.0740  3.6438
 9947SOL    HW233434   4.666   9.817  10.937  0.0819 -0.3177 -2.3539
 9948SOL     OW33435  11.096   1.723  10.893  0.4327  0.1106 -0.4950
 9948SOL    HW133436  11.013   1.691  10.928 -0.7546  1.1322 -2.1883
 9948SOL    HW233437  11.071   1.795  10.835  2.5172  0.4843 -1.0113
 9949SOL     OW33438   4.272   2.330   6.410 -0.7410  0.3594  0.0938
 9949SOL    HW133439   4.249   2.374   6.329  2.0022 -3.2451 -2.9822
 9949SOL    HW233440   4.366   2.344   6.419 -0.6053 -1.0950  1.4443
 9950SOL     OW33441   0.481   4.359   8.393  0.5520  0.1915 -0.5980
 9950SOL    HW133442   0.394   4.399   8.394  0.8069  0.7526 -0.2179
 9950SOL    HW233443   0.464   4.266   8.383 -0.1157  0.2261  0.1124
 9951SOL     OW33444   7.483   6.377   6.368  0.9473  0.1849  0.0832
 9951SOL    HW133445   7.542   6.302   6.375 -0.7114 -1.1677  0.3328
 9951SOL    HW233446   7.423   6.354   6.297  1.4284  2.0855 -1.0324
 9952SOL     OW33447  10.408   5.991   5.583  0.1905  0.1031 -0.5680
 9952SOL    HW133448  10.390   6.016   5.674 -1.2826 -0.0676 -0.7832
 9952SOL    HW233449  10.444   6.069   5.543  0.5287  0.2823  0.0729
 9953SOL     OW33450   1.447   0.581   3.130  0.0365 -0.2979 -0.3285
 9953SOL    HW133451   1.501   0.603   3.054  0.1197 -1.4357 -0.6163
 9953SOL    HW233452   1.400   0.501   3.104 -1.8154  0.6490 -0.1016
 9954SOL     OW33453  10.482   0.905   3.731  0.4340 -0.2680  0.1108
 9954SOL    HW133454  10.543   0.892   3.659  1.3868  1.6290  0.5179
 9954SOL    HW233455  10.517   0.852   3.802  0.6601 -0.5037 -0.1768
 9955SOL     OW33456   9.580   7.768   1.375  0.1189 -0.7458  0.2400
 9955SOL    HW133457   9.675   7.774   1.364  0.0817  0.3125  0.3824
 9955SOL    HW233458   9.567   7.699   1.440  0.7859 -0.9394  0.1715
 9956SOL     OW33459   2.416  10.489   8.829  0.0777 -0.0063 -0.3120
 9956SOL    HW133460   2.451  10.530   8.908  1.2500 -0.9742 -0.3019
 9956SOL    HW233461   2.345  10.432   8.861 -0.8192  1.1353 -0.2093
 9957SOL     OW33462   7.530   3.835   7.191 -0.2700  0.6745  0.9096
 9957SOL    HW133463   7.582   3.778   7.134 -0.4735 -0.0766  1.4596
 9957SOL    HW233464   7.553   3.924   7.163 -1.6203  0.3640 -1.5030
 9958SOL     OW33465   9.141  10.314   1.509  0.3402 -0.1874 -0.3532
 9958SOL    HW133466   9.102  10.369   1.441  0.9530  0.6836 -0.0166
 9958SOL    HW233467   9.235  10.315   1.490  0.7838  1.5897  1.5265
 9959SOL     OW33468  10.057   6.330   3.682  0.0613  0.4423 -0.2579
 9959SOL    HW133469   9.975   6.377   3.691  0.0211  0.3772 -0.2819
 9959SOL    HW233470  10.093   6.360   3.599  1.0633  2.0219  0.6933
 9960SOL     OW33471   9.344   8.515   1.182  0.4369 -0.7209 -0.1511
 9960SOL    HW133472   9.289   8.588   1.158  0.4250 -0.9340 -0.7734
 9960SOL    HW233473   9.413   8.513   1.116  1.3069 -0.3432  0.7133
 9961SOL     OW33474   4.363   1.224   5.401  0.4325  0.4126 -0.4023
 9961SOL    HW133475   4.270   1.205   5.389  0.6874 -1.3460  0.0837
 9961SOL    HW233476   4.398   1.224   5.312 -0.1589  1.9524 -0.6570
 9962SOL     OW33477   2.337   3.137   9.141 -0.4432  0.9746 -0.1804
 9962SOL    HW133478   2.308   3.221   9.176 -2.4033  1.0243 -1.7385
 9962SOL    HW233479   2.408   3.110   9.198 -1.5702  2.3991  2.0165
 9963SOL     OW33480   3.441   3.812   2.481  0.2847 -0.0215 -0.6269
 9963SOL    HW133481   3.466   3.871   2.409  1.8286  1.0761  0.7158
 9963SOL    HW233482   3.522   3.765   2.501 -0.4261 -1.1327 -0.3324
 9964SOL     OW33483   6.168   5.870   1.122 -0.3347  0.0718  0.5222
 9964SOL    HW133484   6.254   5.857   1.163  0.9559  1.1824 -1.6272
 9964SOL    HW233485   6.154   5.789   1.072 -0.8325 -0.3396  1.3079
 9965SOL     OW33486   8.481   8.631   0.300 -0.2305 -0.3155  0.0395
 9965SOL    HW133487   8.528   8.711   0.277 -0.2811 -0.6017 -1.1143
 9965SOL    HW233488   8.486   8.577   0.221  0.1680 -1.6347  0.9337
 9966SOL     OW33489   9.558   3.714   5.992  0.1848  0.1235  0.2397
 9966SOL    HW133490   9.551   3.653   6.066 -0.4322 -0.9011 -0.6430
 9966SOL    HW233491   9.528   3.664   5.916  0.8462  1.1493 -0.7237
 9967SOL     OW33492   2.457   8.870   4.619  0.4097  0.1621  0.0529
 9967SOL    HW133493   2.523   8.831   4.562  0.5343  0.1241  0.2238
 9967SOL    HW233494   2.386   8.805   4.620  0.9842 -0.4687  1.0408
 9968SOL     OW33495   6.071   8.092   3.710 -0.6836  0.7464  0.5007
 9968SOL    HW133496   6.069   8.056   3.621  1.2649  3.3302 -0.7232
 9968SOL    HW233497   6.092   8.017   3.766 -1.1751 -0.8076 -1.2955
 9969SOL     OW33498   5.323   3.559   2.917  0.2997 -0.1338 -0.5467
 9969SOL    HW133499   5.325   3.614   2.995  2.0622 -1.0216  0.0869
 9969SOL    HW233500   5.364   3.613   2.849  1.8802 -0.5529  0.0312
 9970SOL     OW33501   7.225   7.136   3.933  0.1959  0.3609  0.1142
 9970SOL    HW133502   7.313   7.105   3.910  0.4750  0.7461  0.6233
 9970SOL    HW233503   7.206   7.093   4.016 -1.7404 -2.8198 -1.7607
 9971SOL     OW33504   8.435   1.408   7.442  0.8199  0.1356 -0.4213
 9971SOL    HW133505   8.491   1.470   7.488  2.1612 -1.8111  0.7273
 9971SOL    HW233506   8.470   1.322   7.465 -1.5001 -1.1209 -1.1848
 9972SOL     OW33507   7.232   3.459   4.038  0.0248 -0.1186 -0.5425
 9972SOL    HW133508   7.297   3.461   3.968  1.3498 -0.2818  0.6347
 9972SOL    HW233509   7.281   3.481   4.117 -1.6043  0.9437  0.2261
 9973SOL     OW33510   1.243   2.827   7.100  0.1982  0.3040 -0.3254
 9973SOL    HW133511   1.301   2.896   7.067 -0.4665  1.6848  1.2396
 9973SOL    HW233512   1.280   2.746   7.066  2.5671  1.2005 -0.0979
 9974SOL     OW33513   5.047   6.024  10.235  0.8563 -0.2307  0.0725
 9974SOL    HW133514   5.097   6.014  10.154 -0.9307 -2.5906 -0.8752
 9974SOL    HW233515   5.016   5.935  10.254 -0.3865  0.6123  2.2799
 9975SOL     OW33516  11.028   2.533  10.733 -0.0179 -0.3091 -0.1549
 9975SOL    HW133517  10.969   2.457  10.736 -0.1659 -0.1938 -0.1171
 9975SOL    HW233518  11.055   2.547  10.824 -0.0761 -0.2505 -0.1459
 9976SOL     OW33519   2.600   7.704   6.735 -0.1286 -0.0341 -0.1013
 9976SOL    HW133520   2.674   7.764   6.725  0.3279 -0.4196  0.8332
 9976SOL    HW233521   2.567   7.721   6.824 -1.6788  0.6939 -0.7820
 9977SOL     OW33522   1.916   8.964   6.941  0.2072 -0.0916 -0.4526
 9977SOL    HW133523   1.877   8.933   6.859 -3.0806 -0.4393  1.0872
 9977SOL    HW233524   1.889   9.056   6.948  1.1680  0.1820 -0.1152
 9978SOL     OW33525   8.891   4.603   0.861  0.4632 -0.7334 -0.1964
 9978SOL    HW133526   8.821   4.602   0.926 -1.1787  2.2723 -1.7111
 9978SOL    HW233527   8.957   4.544   0.896 -1.6953 -1.7257  2.5811
 9979SOL     OW33528   0.790   9.475   8.658  0.2916  0.1077 -0.4475
 9979SOL    HW133529   0.834   9.506   8.737  2.7348 -1.9202 -0.8945
 9979SOL    HW233530   0.807   9.544   8.593 -0.6784  1.2004  0.4073
 9980SOL     OW33531  10.493   5.651   6.984  0.4219 -0.1415 -0.0023
 9980SOL    HW133532  10.482   5.584   6.916  0.7395  0.3837 -0.5840
 9980SOL    HW233533  10.404   5.680   7.004  0.1223 -1.9862  1.5612
 9981SOL     OW33534   6.776   3.027   4.758 -0.7421  0.8023 -0.6117
 9981SOL    HW133535   6.827   2.963   4.707 -0.6869  0.8826 -0.6583
 9981SOL    HW233536   6.842   3.087   4.794 -0.7363  0.4692 -0.0512
 9982SOL     OW33537   4.560   1.923   8.121 -0.2848  0.0410 -0.0568
 9982SOL    HW133538   4.634   1.977   8.094  0.6459 -1.2741 -0.1710
 9982SOL    HW233539   4.573   1.839   8.078 -0.6468 -0.9581  1.6743
 9983SOL     OW33540   9.566   3.738   8.353  0.2416 -0.2987  0.5440
 9983SOL    HW133541   9.498   3.719   8.288 -1.0052  0.7588  1.4857
 9983SOL    HW233542   9.615   3.811   8.314 -0.8937  0.7550  1.0031
 9984SOL     OW33543   8.349   2.434  10.746 -0.4625  0.4873 -0.7413
 9984SOL    HW133544   8.412   2.394  10.806 -0.6529  0.9653 -0.2051
 9984SOL    HW233545   8.313   2.361  10.696 -1.3341 -0.1217  0.7245
 9985SOL     OW33546   4.667   5.568  10.750 -0.0923  0.2909  0.0129
 9985SOL    HW133547   4.721   5.647  10.757  0.0690  0.4648 -2.3339
 9985SOL    HW233548   4.716   5.501  10.798  0.3525  1.3219  1.0454
 9986SOL     OW33549   2.375  10.944   5.202 -0.1094 -0.2744  0.2736
 9986SOL    HW133550   2.450  11.002   5.190 -1.8109  1.8565 -0.8778
 9986SOL    HW233551   2.311  10.997   5.249 -2.3714 -0.5815 -2.2565
 9987SOL     OW33552   7.088  10.274   5.738 -0.0032 -0.3647  0.2082
 9987SOL    HW133553   7.172  10.229   5.735 -0.5707 -1.3911 -2.0760
 9987SOL    HW233554   7.110  10.367   5.730  0.9563 -0.4970  1.0799
 9988SOL     OW33555   1.732   8.976   4.173  0.4486  0.1796  0.1143
 9988SOL    HW133556   1.746   9.039   4.243  1.1087 -0.8385  0.9393
 9988SOL    HW233557   1.810   8.920   4.175  0.4381  0.0738 -1.3874
 9989SOL     OW33558  10.568   9.616   2.259 -0.2040 -0.6993 -1.0040
 9989SOL    HW133559  10.519   9.587   2.336 -0.0455 -1.9698 -1.3518
 9989SOL    HW233560  10.575   9.711   2.269 -0.2161 -0.8297  0.5314
 9990SOL     OW33561   0.652   1.295  10.530  0.2695 -0.7582  0.1563
 9990SOL    HW133562   0.607   1.293  10.446  0.2861 -1.1048  0.1564
 9990SOL    HW233563   0.582   1.314  10.593  0.3425  0.0435  0.0124
 9991SOL     OW33564   7.246   8.332   6.136  0.0493 -0.0555 -0.3751
 9991SOL    HW133565   7.152   8.316   6.124  0.2425 -0.7603 -1.0394
 9991SOL    HW233566   7.287   8.249   6.113  0.9577  0.7765 -1.9115
 9992SOL     OW33567   1.042   5.795   6.228  0.0297  0.1869 -0.1048
 9992SOL    HW133568   1.024   5.774   6.136 -1.6471 -0.9039  0.4339
 9992SOL    HW233569   0.989   5.873   6.245 -0.4138 -0.1865  0.2062
 9993SOL     OW33570   0.828   2.191   8.466  0.3408 -0.0690 -0.5698
 9993SOL    HW133571   0.917   2.182   8.499  0.7160  0.0476 -1.5032
 9993SOL    HW233572   0.836   2.176   8.372 -0.5673  0.3046 -0.7193
 9994SOL     OW33573   4.630   5.638   5.868 -0.8970  0.0405  0.1539
 9994SOL    HW133574   4.691   5.645   5.794  0.4704 -0.7279  1.1679
 9994SOL    HW233575   4.544   5.649   5.828 -0.2423 -0.8298 -1.6291
 9995SOL     OW33576  11.020   6.740   2.612 -0.0889 -0.0803 -0.6811
 9995SOL    HW133577  10.934   6.780   2.617 -1.1746 -2.4046  1.2369
 9995SOL    HW233578  11.004   6.649   2.587  1.9512 -0.2440 -1.6520
 9996SOL     OW33579   9.772   6.019   7.534  0.3919 -0.0545  0.1489
 9996SOL    HW133580   9.843   6.045   7.591  0.9416  0.1772 -0.6256
 9996SOL    HW233581   9.737   6.101   7.500  1.0578 -0.2253 -1.0110
 9997SOL     OW33582   9.587  10.502   4.786  0.5835  0.2039  0.2951
 9997SOL    HW133583   9.579  10.475   4.695 -1.3834  1.0159  0.1824
 9997SOL    HW233584   9.667  10.460   4.817 -0.2374 -2.4790 -0.9679
 9998SOL     OW33585   1.619   7.956   7.429  0.4808 -0.2098 -0.2233
 9998SOL    HW133586   1.584   7.892   7.491  0.2577  0.0446 -0.0836
 9998SOL    HW233587   1.704   7.979   7.465  0.8149 -0.8531 -0.5794
 9999SOL     OW33588   2.889   8.477  10.059 -0.0037  0.2678  0.5834
 9999SOL    HW133589   2.871   8.491  10.152  0.4677  0.2652  0.6774
 9999SOL    HW233590   2.846   8.551  10.015 -0.3892  0.1682  0.7831
10000SOL     OW33591   6.960   2.953   8.472  0.1825 -0.8403  0.1961
10000SOL    HW133592   6.942   3.036   8.428 -3.4464 -1.0896  0.8972
10000SOL    HW233593   7.000   2.898   8.405 -1.9683 -0.0748 -1.8701
10001SOL     OW33594   9.975   7.015   7.163  0.3589 -0.2974  0.1279
10001SOL    HW133595   9.972   6.951   7.092  3.0182  0.4278 -0.7403
10001SOL    HW233596  10.021   6.971   7.235  1.2038  0.2368 -0.0695
10002SOL     OW33597   8.206   6.053   1.984 -0.3788 -0.2283 -0.0790
10002SOL    HW133598   8.164   6.139   1.986 -0.7623 -0.4285  0.6644
10002SOL    HW233599   8.147   5.999   1.930  0.1395  0.1036 -1.0057
10003SOL     OW33600   6.829   5.533   5.650 -0.8196  0.6021  0.2547
10003SOL    HW133601   6.850   5.491   5.566  0.7700  1.6311  0.1009
10003SOL    HW233602   6.764   5.599   5.628 -0.0982  1.1581 -0.2770
10004SOL     OW33603   4.673   4.054   6.402  0.0356  0.2890 -0.0952
10004SOL    HW133604   4.640   4.087   6.486  3.2032  0.9516  1.0513
10004SOL    HW233605   4.687   4.133   6.349  0.1476  0.0603 -0.4060
10005SOL     OW33606   5.648   5.757   4.203 -0.2135 -0.3755 -0.2623
10005SOL    HW133607   5.595   5.835   4.221  1.7796  0.8682  0.6317
10005SOL    HW233608   5.729   5.792   4.164  0.1058 -2.1527 -1.2951
10006SOL     OW33609   1.284   3.272  10.201  0.1911  0.1671  0.4192
10006SOL    HW133610   1.326   3.245  10.283 -1.8538  1.0151  1.8112
10006SOL    HW233611   1.194   3.241  10.208 -0.8619  2.8228 -0.1379
10007SOL     OW33612   5.437   2.160   1.969 -0.0803  0.0546  0.0499
10007SOL    HW133613   5.400   2.181   1.882 -1.0641 -1.3862  0.0741
10007SOL    HW233614   5.478   2.241   1.998 -1.0160  1.0004 -1.1388
10008SOL     OW33615   9.677   3.839   3.733 -0.1698 -0.2665  0.0449
10008SOL    HW133616   9.685   3.899   3.658  0.9420  0.8613  1.0187
10008SOL    HW233617   9.624   3.767   3.700  1.3458 -0.4361 -2.2439
10009SOL     OW33618   5.736   2.054   4.960 -0.2084 -0.3641  0.4199
10009SOL    HW133619   5.792   2.003   4.902 -0.9026 -0.5023 -0.1445
10009SOL    HW233620   5.651   2.012   4.954 -1.5348  2.2911 -2.1202
10010SOL     OW33621   2.351   1.678   8.453  0.2032 -0.4301 -0.0395
10010SOL    HW133622   2.387   1.745   8.396 -0.6015  0.0897  0.0453
10010SOL    HW233623   2.356   1.715   8.541 -0.0838 -0.5422  0.0290
10011SOL     OW33624   9.034   4.489   1.245  0.0780  0.2534 -0.6198
10011SOL    HW133625   9.002   4.576   1.221  0.4881  0.3267 -0.9077
10011SOL    HW233626   9.053   4.446   1.161  1.0632  0.3371 -0.4531
10012SOL     OW33627   9.044   3.209   6.029 -0.2783  0.2930 -0.1306
10012SOL    HW133628   9.007   3.290   6.066 -1.5851 -0.0778 -0.5831
10012SOL    HW233629   9.113   3.185   6.091  0.1602  1.7670 -0.0033
10013SOL     OW33630   2.688   1.818   0.619 -0.0071  0.1612 -0.1095
10013SOL    HW133631   2.777   1.808   0.654 -0.3387  0.6328  0.9034
10013SOL    HW233632   2.701   1.845   0.528  0.8853  0.2176  0.0270
10014SOL     OW33633   1.574  10.232   5.574 -0.7280 -0.3734  0.1313
10014SOL    HW133634   1.550  10.143   5.549 -2.8936  0.4730 -1.0973
10014SOL    HW233635   1.595  10.275   5.491  1.4842 -0.0037  0.8140
10015SOL     OW33636  10.256   7.767   4.903 -0.2756  0.9630 -0.1011
10015SOL    HW133637  10.311   7.831   4.948 -0.5731  0.3393  1.2068
10015SOL    HW233638  10.280   7.683   4.942 -2.4252  0.7076  0.8428
10016SOL     OW33639   8.645   1.599   7.482 -0.4224 -0.2732 -0.1273
10016SOL    HW133640   8.711   1.533   7.501 -0.3217 -0.5404 -1.3166
10016SOL    HW233641   8.651   1.660   7.555  2.7037  0.9538 -1.2402
10017SOL     OW33642   9.250   7.387   1.681  0.2995  0.1481 -0.1401
10017SOL    HW133643   9.218   7.432   1.603 -0.9684  0.2189  0.4100
10017SOL    HW233644   9.174   7.343   1.717  0.6346  0.9136  1.6067
10018SOL     OW33645   4.556   1.509   5.187  0.4193  0.0925 -0.0354
10018SOL    HW133646   4.645   1.518   5.154  0.9687 -0.8558  1.0883
10018SOL    HW233647   4.565   1.510   5.282 -0.6584 -0.8462  0.1079
10019SOL     OW33648   8.631   5.638   2.799  0.6098 -0.1156 -0.9221
10019SOL    HW133649   8.693   5.571   2.828  0.8121 -0.4829 -2.1162
10019SOL    HW233650   8.608   5.686   2.878  2.0226 -0.3014 -0.3710
10020SOL     OW33651   4.184   2.200   3.227 -0.1155 -0.1353 -0.3059
10020SOL    HW133652   4.117   2.134   3.213  0.0026 -0.1097 -1.0510
10020SOL    HW233653   4.232   2.170   3.305 -0.3327 -0.6936 -0.3828
10021SOL     OW33654   7.319   0.553   0.248  0.6640 -0.0359  0.5057
10021SOL    HW133655   7.385   0.519   0.187 -0.4448 -1.1968 -0.0852
10021SOL    HW233656   7.305   0.481   0.310 -0.9476 -0.2904 -0.1212
10022SOL     OW33657   9.471   9.812  10.467 -0.8472 -0.1672 -0.2630
10022SOL    HW133658   9.423   9.844  10.390 -1.1842 -1.3009 -0.5327
10022SOL    HW233659   9.446   9.872  10.537 -1.1077  0.4414 -0.8613
10023SOL     OW33660   5.465  10.822   3.346  0.0134 -0.8089  0.0015
10023SOL    HW133661   5.551  10.844   3.310  0.2726 -2.5271 -0.4883
10023SOL    HW233662   5.483  10.757   3.413 -0.7454  0.2888  1.3107
10024SOL     OW33663   9.905   9.331   6.038  0.7357 -0.3547  0.1525
10024SOL    HW133664   9.904   9.302   6.129  1.1910  3.0853  1.3922
10024SOL    HW233665   9.818   9.310   6.005 -0.1662  0.1676  2.0803
10025SOL     OW33666   9.063   7.984   1.241 -1.1061 -0.0628  0.1183
10025SOL    HW133667   8.986   7.930   1.260 -0.3021 -0.5869  2.0954
10025SOL    HW233668   9.032   8.074   1.255 -1.7531 -0.1517 -0.6447
10026SOL     OW33669   5.771   9.262   8.384 -0.8663  0.7403  0.2665
10026SOL    HW133670   5.694   9.277   8.329  0.4540  1.6861 -1.4258
10026SOL    HW233671   5.786   9.346   8.427  0.8970  1.5582 -1.7444
10027SOL     OW33672   2.987   5.322  11.036 -0.0542  0.2724 -0.1436
10027SOL    HW133673   3.019   5.389  10.975  0.1156 -0.9483 -1.4449
10027SOL    HW233674   3.021   5.240  11.002 -0.2335 -0.4935  1.4446
10028SOL     OW33675   6.777   7.858   8.984 -0.1269 -0.5635  0.2213
10028SOL    HW133676   6.870   7.855   9.005 -0.3357  1.9078  2.0569
10028SOL    HW233677   6.743   7.772   9.009  1.4357 -1.0749  0.6752
10029SOL     OW33678   7.484   8.734   9.367 -0.0216 -0.3834  0.8219
10029SOL    HW133679   7.505   8.816   9.411 -0.6937 -0.0346  0.5104
10029SOL    HW233680   7.569   8.691   9.354  0.4161  0.6426  0.2336
10030SOL     OW33681   6.723  10.491   2.050  0.3514 -0.4218 -0.3719
10030SOL    HW133682   6.787  10.505   1.980  1.3797 -1.0898  0.4117
10030SOL    HW233683   6.677  10.575   2.058  2.4523  0.7287  0.3403
10031SOL     OW33684   4.433   4.859   6.174  0.7117  0.2108  0.2476
10031SOL    HW133685   4.492   4.849   6.099  0.0518  0.8988 -0.3904
10031SOL    HW233686   4.394   4.772   6.186  1.3428 -0.0737  0.2362
10032SOL     OW33687   3.067   6.935  10.547 -0.3861 -0.0150  1.1864
10032SOL    HW133688   3.036   6.892  10.467  0.0126 -1.4192  1.7586
10032SOL    HW233689   3.013   7.014  10.553  0.0599  0.5221 -0.8460
10033SOL     OW33690   4.571   8.293   0.156  0.0095  0.3792  0.1788
10033SOL    HW133691   4.630   8.357   0.115  1.2082 -0.6914  0.1404
10033SOL    HW233692   4.485   8.333   0.152  0.7593  2.1198  0.4362
10034SOL     OW33693   8.231   5.278   3.590  0.0338  0.4649 -0.1881
10034SOL    HW133694   8.227   5.306   3.498  0.1870 -0.8089 -0.6118
10034SOL    HW233695   8.160   5.214   3.598  0.8246 -0.3893  0.2129
10035SOL     OW33696   0.536   0.662   1.617 -0.1028 -0.5787 -0.1434
10035SOL    HW133697   0.590   0.596   1.659 -0.9836 -1.7736 -0.8407
10035SOL    HW233698   0.454   0.663   1.668 -0.4454 -0.6891 -0.6826
10036SOL     OW33699   0.235   8.003   5.866 -0.0640  0.1051  0.5266
10036SOL    HW133700   0.297   7.962   5.927 -0.1160 -1.0936 -0.1860
10036SOL    HW233701   0.241   7.950   5.787 -1.6987  0.1936  0.3014
10037SOL     OW33702   4.855   6.777   1.076  0.4763 -0.8361  0.2314
10037SOL    HW133703   4.806   6.720   1.018 -0.5321 -1.2380  1.4319
10037SOL    HW233704   4.936   6.729   1.094 -1.1811 -2.9623  2.8136
10038SOL     OW33705   6.221   3.078   6.464 -0.3332 -0.0233  0.0244
10038SOL    HW133706   6.256   3.160   6.497  1.4333 -1.2103  1.2685
10038SOL    HW233707   6.127   3.084   6.478 -0.0828  1.2514  1.3526
10039SOL     OW33708   2.224   5.443   8.257  0.3011  0.1452  0.2348
10039SOL    HW133709   2.243   5.523   8.306 -1.1440  1.1424 -0.7570
10039SOL    HW233710   2.129   5.445   8.245  0.1962 -1.8981  0.4430
10040SOL     OW33711   1.472   8.024   8.237  0.3306 -0.4291  0.3471
10040SOL    HW133712   1.462   8.058   8.326  0.1131  2.7168 -0.7749
10040SOL    HW233713   1.383   8.019   8.203  0.5401  0.5130 -0.3811
10041SOL     OW33714   2.555   2.268   6.191  0.2378  0.0693 -0.3973
10041SOL    HW133715   2.463   2.243   6.202  0.1135  0.5912 -0.1902
10041SOL    HW233716   2.604   2.204   6.243  0.0608 -0.6812 -1.1288
10042SOL     OW33717   7.852   9.248   2.416 -0.0650 -0.0301 -0.0389
10042SOL    HW133718   7.829   9.309   2.487 -0.6956 -1.0571  0.6757
10042SOL    HW233719   7.936   9.211   2.443 -0.2500 -0.3379  0.1160
10043SOL     OW33720   9.488   3.583   3.537 -0.5182  0.7702  0.3136
10043SOL    HW133721   9.397   3.588   3.567 -0.6178 -1.1503  0.4075
10043SOL    HW233722   9.486   3.525   3.461  0.3369  2.4429 -1.0841
10044SOL     OW33723   2.074   1.950   3.582 -0.5682  0.1185  0.8866
10044SOL    HW133724   2.091   1.858   3.605 -1.9799 -0.2863  0.4077
10044SOL    HW233725   2.094   1.955   3.489 -1.0258  0.1558  0.7895
10045SOL     OW33726   5.107   6.691   2.475  0.2814  0.1857 -0.0151
10045SOL    HW133727   5.066   6.767   2.434  0.1310  0.7126  1.0815
10045SOL    HW233728   5.114   6.714   2.568  2.4133 -0.1648 -0.0415
10046SOL     OW33729   1.593   4.246   0.667 -0.1271  0.0365 -0.2627
10046SOL    HW133730   1.534   4.309   0.709  0.6784  1.5785 -1.3514
10046SOL    HW233731   1.535   4.193   0.611 -0.7269  0.2386  0.1571
10047SOL     OW33732   1.529   1.312   3.524  0.0380 -0.1659 -0.5382
10047SOL    HW133733   1.581   1.258   3.465  0.2811 -1.5752  0.8952
10047SOL    HW233734   1.459   1.254   3.556 -0.6563  0.8306 -0.1733
10048SOL     OW33735   9.913   1.767   4.105  0.2362  0.0982  0.1452
10048SOL    HW133736   9.997   1.735   4.073 -0.1684 -1.0893  0.2049
10048SOL    HW233737   9.920   1.765   4.200 -0.0131 -0.4778  0.1583
10049SOL     OW33738   1.052   3.958   1.236 -0.4439  0.3950  0.4568
10049SOL    HW133739   1.082   4.011   1.310  0.9652  0.8425 -0.3965
10049SOL    HW233740   1.112   3.884   1.233  0.7525  1.3704 -1.3733
10050SOL     OW33741   8.777   0.365   9.710 -0.1453 -0.3048  0.2492
10050SOL    HW133742   8.797   0.454   9.682  2.9890 -0.7143  0.8430
10050SOL    HW233743   8.800   0.310   9.635 -0.8660 -0.7243  0.3233
10051SOL     OW33744   4.960   0.777  10.513  0.3576 -0.0356  0.0954
10051SOL    HW133745   5.030   0.840  10.497 -0.1191  1.3137  2.8516
10051SOL    HW233746   4.880   0.822  10.487  0.2742 -0.9810 -1.4860
10052SOL     OW33747   8.705  10.811   6.896  0.3280  0.0368 -0.2143
10052SOL    HW133748   8.695  10.763   6.813 -0.8574 -1.9173  0.9619
10052SOL    HW233749   8.798  10.833   6.900  0.4014  0.2522 -2.0797
10053SOL     OW33750   9.255   2.803   8.805 -0.4027  0.2718  0.6900
10053SOL    HW133751   9.310   2.809   8.883  1.1098 -0.1512 -0.3024
10053SOL    HW233752   9.271   2.714   8.771 -1.3175  0.3185  0.0970
10054SOL     OW33753   8.691   8.550   8.088  0.2433 -0.7839  0.4813
10054SOL    HW133754   8.679   8.538   7.994 -1.5207 -1.2719  0.7485
10054SOL    HW233755   8.604   8.537   8.125  0.9590 -0.7919  2.2084
10055SOL     OW33756   4.333   4.947   0.032 -0.4156  0.2713  0.2785
10055SOL    HW133757   4.334   5.042   0.017 -1.0834  0.1124 -0.8797
10055SOL    HW233758   4.398   4.912  -0.028  0.0828  0.0054  0.9532
10056SOL     OW33759   7.288  10.720   1.373 -0.5765 -0.0860 -0.1649
10056SOL    HW133760   7.309  10.812   1.355  1.2684 -0.4524 -0.1004
10056SOL    HW233761   7.213  10.701   1.316 -1.2061  1.5359  0.0723
10057SOL     OW33762   6.286   6.207   5.142 -0.2309 -0.4454 -0.0201
10057SOL    HW133763   6.282   6.140   5.075  0.1402  1.1463 -1.7125
10057SOL    HW233764   6.195   6.232   5.157 -0.4914 -2.1675  1.5777
10058SOL     OW33765   1.642   0.220   8.228 -0.2907  0.5733 -0.2657
10058SOL    HW133766   1.576   0.151   8.223  2.5181 -2.6839  2.3756
10058SOL    HW233767   1.679   0.212   8.317  3.2661  2.4974 -1.3463
10059SOL     OW33768   4.498   2.262   9.721 -0.7867 -0.3709  0.3255
10059SOL    HW133769   4.419   2.316   9.726  0.9765  2.4256 -0.0549
10059SOL    HW233770   4.497   2.228   9.631 -0.6504  1.2231 -0.3174
10060SOL     OW33771   7.179   0.547   9.969 -0.0976 -0.2073 -0.2904
10060SOL    HW133772   7.138   0.464   9.945 -1.2965  0.1100  0.5566
10060SOL    HW233773   7.147   0.564  10.058  1.0096  0.6196 -0.0322
10061SOL     OW33774   2.794   1.867  10.328  0.4509  0.3934 -0.3688
10061SOL    HW133775   2.859   1.810  10.287  0.1096  0.9532 -1.7230
10061SOL    HW233776   2.721   1.808  10.349  1.5309 -0.3478  1.6556
10062SOL     OW33777  10.694   0.122   5.356  0.2087 -0.1994  0.1602
10062SOL    HW133778  10.677   0.207   5.314  2.8471  0.9858  1.2375
10062SOL    HW233779  10.627   0.064   5.321 -1.0498  2.0607 -1.4498
10063SOL     OW33780   8.811   5.952   0.616 -0.2116 -0.3940 -0.1730
10063SOL    HW133781   8.878   5.959   0.684  0.7146  0.5530 -1.1367
10063SOL    HW233782   8.740   6.009   0.646 -0.0652 -0.4479  0.2832
10064SOL     OW33783   1.325   2.128   5.928  0.4867 -0.7468  0.4890
10064SOL    HW133784   1.234   2.156   5.927  0.2571 -1.5088 -0.3956
10064SOL    HW233785   1.374   2.209   5.912  0.0304 -0.2002  1.6883
10065SOL     OW33786   9.111   0.666   3.469  0.3427 -0.2746 -0.3187
10065SOL    HW133787   9.108   0.657   3.374 -0.1498  0.6809 -0.4158
10065SOL    HW233788   9.201   0.691   3.489  0.6862 -1.4085 -0.4316
10066SOL     OW33789   2.743   6.419   4.165  0.3005  1.1506 -0.3336
10066SOL    HW133790   2.697   6.335   4.156  1.6194  0.1914  1.2619
10066SOL    HW233791   2.751   6.452   4.076  2.1754 -1.8288 -1.4230
10067SOL     OW33792   8.768   7.783   9.948  0.4804  0.4102  0.2499
10067SOL    HW133793   8.691   7.837   9.966  1.8429  2.2072  0.9793
10067SOL    HW233794   8.734   7.707   9.900 -1.6290  1.4916 -0.0547
10068SOL     OW33795   6.170  10.032   9.051  0.4840 -0.1448 -1.2881
10068SOL    HW133796   6.265  10.042   9.047  0.7272 -2.0765 -1.1617
10068SOL    HW233797   6.154   9.942   9.024 -1.0904 -0.6907  1.1505
10069SOL     OW33798  10.251   6.446   5.304 -0.0681  0.0171 -0.0918
10069SOL    HW133799  10.227   6.525   5.256  0.5304  0.9128  1.0149
10069SOL    HW233800  10.202   6.453   5.386  1.1992  0.0575  0.6780
10070SOL     OW33801   8.285   5.112   1.932  0.7346 -0.2203 -0.3579
10070SOL    HW133802   8.358   5.170   1.911  0.0186  0.5382 -0.7889
10070SOL    HW233803   8.237   5.102   1.850 -0.5334  0.5608  0.2617
10071SOL     OW33804   9.078   2.886   8.590 -0.3297 -0.3459  0.6557
10071SOL    HW133805   9.106   2.855   8.504 -1.5039 -1.8330  0.7674
10071SOL    HW233806   9.144   2.852   8.651  0.8866  1.2848  0.3241
10072SOL     OW33807   7.245   3.623   6.351 -0.7349 -0.0348 -0.2022
10072SOL    HW133808   7.255   3.527   6.348 -1.8189 -0.1986  0.5794
10072SOL    HW233809   7.168   3.640   6.297  0.3283  0.5757 -1.5728
10073SOL     OW33810   9.759   5.189   9.621  0.0935 -0.2932  0.8691
10073SOL    HW133811   9.674   5.192   9.577  0.3339 -0.2949  0.3935
10073SOL    HW233812   9.774   5.279   9.649 -0.2459 -0.3713  1.3136
10074SOL     OW33813   0.227   7.766   7.307  0.6352  0.3646  0.0296
10074SOL    HW133814   0.184   7.680   7.310  1.0993  0.1117 -0.2920
10074SOL    HW233815   0.299   7.759   7.370  1.0993  0.2697 -0.5001
10075SOL     OW33816  10.833   1.769   0.735 -0.3233 -0.9239  0.4042
10075SOL    HW133817  10.861   1.826   0.664  1.7962 -0.2456  1.6801
10075SOL    HW233818  10.804   1.689   0.693 -0.0711 -0.1766 -1.2513
10076SOL     OW33819   3.964   7.279  10.225  0.5774 -0.3995 -0.1440
10076SOL    HW133820   4.025   7.334  10.177  0.0385  0.1830 -0.1668
10076SOL    HW233821   3.878   7.307  10.197  0.2488 -0.1800  1.0138
10077SOL     OW33822   8.313  10.256   6.936  0.4538  0.2033 -0.2298
10077SOL    HW133823   8.359  10.339   6.925  0.9948 -0.2161 -1.1915
10077SOL    HW233824   8.222  10.282   6.951  0.3609  0.9570 -1.8474
10078SOL     OW33825   5.244   7.899   5.086  0.3426  0.4256 -0.1850
10078SOL    HW133826   5.326   7.862   5.055  0.6972 -0.1428  1.3388
10078SOL    HW233827   5.270   7.970   5.145 -0.2769  0.7781 -0.3281
10079SOL     OW33828  10.360   3.251  10.647  0.1813 -0.2882 -0.1874
10079SOL    HW133829  10.449   3.214  10.649 -0.3648 -1.6429 -0.0884
10079SOL    HW233830  10.348   3.278  10.556  0.5379 -0.5132 -0.3065
10080SOL     OW33831  10.249   5.088   3.503 -0.0803  0.1618  0.0593
10080SOL    HW133832  10.304   5.049   3.436 -1.5681  0.7982 -1.5998
10080SOL    HW233833  10.298   5.165   3.532  1.6779 -1.4242  1.5122
10081SOL     OW33834   1.751   1.105   4.140 -0.2049 -0.1641 -0.2737
10081SOL    HW133835   1.781   1.053   4.066  1.7841  0.1754  0.2379
10081SOL    HW233836   1.742   1.194   4.105  0.6796 -0.0156 -0.1549
10082SOL     OW33837   3.816   6.567   9.547 -0.2098 -0.3471 -0.2049
10082SOL    HW133838   3.722   6.550   9.539 -0.3470  0.5894 -0.7948
10082SOL    HW233839   3.827   6.602   9.635 -0.4878 -0.0627 -0.2799
10083SOL     OW33840   3.159  10.222   5.748 -0.1331 -0.1464 -0.0990
10083SOL    HW133841   3.206  10.141   5.729 -0.7078 -0.5811  0.2917
10083SOL    HW233842   3.075  10.193   5.782  0.3599  0.5791  1.8847
10084SOL     OW33843   8.500   5.590   1.097 -0.2470  0.1684  0.3413
10084SOL    HW133844   8.562   5.532   1.054 -1.4600 -1.5146  0.7435
10084SOL    HW233845   8.431   5.605   1.032 -1.5908 -1.5915  1.2554
10085SOL     OW33846   6.572   1.677   9.972 -0.2799  0.3734  0.0706
10085SOL    HW133847   6.614   1.717   9.896  2.0809 -0.8144  0.6678
10085SOL    HW233848   6.564   1.585   9.950 -1.4272  0.3459  0.5137
10086SOL     OW33849   4.497   3.332   6.858  0.0280 -0.4861 -0.0805
10086SOL    HW133850   4.541   3.366   6.937  0.1732  0.5498 -0.5831
10086SOL    HW233851   4.503   3.237   6.866  1.3278 -0.3869  0.4476
10087SOL     OW33852   4.613   6.795  10.319  0.5654  0.8226 -0.3386
10087SOL    HW133853   4.537   6.846  10.292 -0.9158 -0.7789  0.5345
10087SOL    HW233854   4.641   6.750  10.239 -0.9787 -0.4265 -0.2417
10088SOL     OW33855   2.991   4.626   5.847  0.0407  0.1554 -0.0702
10088SOL    HW133856   3.024   4.620   5.936  0.1535  0.9441 -0.0480
10088SOL    HW233857   3.005   4.718   5.822 -2.1966  0.5872 -0.0255
10089SOL     OW33858   0.096   5.413   6.485  0.3815  0.1925 -1.2138
10089SOL    HW133859   0.141   5.497   6.493  0.2733  0.2908 -1.6208
10089SOL    HW233860   0.166   5.348   6.491  0.3572  0.2653  0.0810
10090SOL     OW33861   5.560   4.339   5.398  0.0454 -0.4142  0.1682
10090SOL    HW133862   5.493   4.288   5.444 -1.8838  1.7037 -0.0913
10090SOL    HW233863   5.542   4.430   5.422  0.5393  0.5633 -2.7271
10091SOL     OW33864   7.475   0.765   6.404  0.3544  0.5355 -0.1331
10091SOL    HW133865   7.458   0.858   6.392 -0.6648  0.3564 -0.1332
10091SOL    HW233866   7.485   0.754   6.498  0.5395  0.6562 -0.1387
10092SOL     OW33867  10.350   8.542   1.669 -0.0360 -0.0997 -0.0764
10092SOL    HW133868  10.316   8.606   1.732 -1.8935 -1.4085  0.3058
10092SOL    HW233869  10.425   8.503   1.714 -0.4237  0.0413  0.7194
10093SOL     OW33870  10.212   5.452   1.773 -0.2015  0.0332 -0.7670
10093SOL    HW133871  10.124   5.433   1.807  0.8017 -0.3887  1.8446
10093SOL    HW233872  10.230   5.541   1.802  0.1833  0.1838 -1.4477
10094SOL     OW33873  10.676   5.007   3.396 -0.2453  0.3535  0.5466
10094SOL    HW133874  10.708   4.922   3.366 -1.6559  0.5695 -1.8214
10094SOL    HW233875  10.589   5.015   3.357 -1.9054  1.2008  3.9881
10095SOL     OW33876   5.131   9.587   0.646  0.1952  0.0218  0.3067
10095SOL    HW133877   5.132   9.530   0.569 -0.7947  1.4305 -0.8068
10095SOL    HW233878   5.180   9.538   0.713 -1.6788 -2.6975 -0.1373
10096SOL     OW33879   9.463   8.179   5.546 -0.3144  0.0176 -0.3384
10096SOL    HW133880   9.522   8.234   5.494  1.1304 -1.6910 -0.6292
10096SOL    HW233881   9.517   8.150   5.620 -2.0047  1.4879  1.5752
10097SOL     OW33882   4.621   2.587   6.210  0.5068  0.5393  0.1521
10097SOL    HW133883   4.575   2.613   6.130 -1.6612 -0.8317  0.8555
10097SOL    HW233884   4.710   2.565   6.181  0.3712  1.9755 -1.5164
10098SOL     OW33885   3.724  10.386   5.039 -0.0110 -0.3575 -0.4239
10098SOL    HW133886   3.670  10.463   5.057 -0.2322 -0.9250  1.5682
10098SOL    HW233887   3.786  10.415   4.972 -0.1719  1.5159  0.1845
10099SOL     OW33888   9.045   1.179   1.829 -0.1123  0.2659  0.1366
10099SOL    HW133889   9.098   1.102   1.846  0.1063  0.6413  1.2219
10099SOL    HW233890   8.958   1.145   1.808 -0.0253 -0.2659  0.6427
10100SOL     OW33891   0.944   9.474   9.523  0.7122 -0.2773 -0.1764
10100SOL    HW133892   1.015   9.479   9.587 -0.6390  1.6971  1.2997
10100SOL    HW233893   0.872   9.431   9.570 -0.0556  0.5104 -0.6060
10101SOL     OW33894   1.331   2.014   8.194 -0.4123  0.5317 -0.0575
10101SOL    HW133895   1.305   2.051   8.109  1.5938  0.1116 -0.9121
10101SOL    HW233896   1.295   1.925   8.193 -0.2411  0.4652 -0.5492
10102SOL     OW33897   1.168   8.962   8.515  0.0120 -0.2146 -0.1406
10102SOL    HW133898   1.182   8.898   8.585  2.3778 -0.1043 -0.4429
10102SOL    HW233899   1.163   9.046   8.560 -1.4979 -0.4127  0.1151
10103SOL     OW33900   7.079   1.027   2.492  0.2616  0.0804  0.1354
10103SOL    HW133901   7.098   1.114   2.456 -1.2175  0.3169 -0.1341
10103SOL    HW233902   7.083   0.969   2.416 -0.0510  0.1274  0.0817
10104SOL     OW33903   2.186   6.557   0.670 -0.0982  0.1931 -0.0816
10104SOL    HW133904   2.095   6.548   0.642 -0.0558  0.8765 -0.4572
10104SOL    HW233905   2.237   6.520   0.598 -0.0413  0.7618 -0.3379
10105SOL     OW33906   0.178   8.691   4.659 -0.2615  0.3062 -0.1019
10105SOL    HW133907   0.139   8.617   4.705  2.4544 -1.3265 -0.2418
10105SOL    HW233908   0.191   8.757   4.727  0.6113 -0.7772  0.8235
10106SOL     OW33909   6.954   1.614  10.845  0.2748  0.1314 -0.2601
10106SOL    HW133910   6.921   1.565  10.920 -0.3019  0.8828 -0.0038
10106SOL    HW233911   6.888   1.683  10.831  1.2093  1.0222 -0.3991
10107SOL     OW33912   7.412   4.425   2.701 -0.4082 -0.2063  0.3796
10107SOL    HW133913   7.407   4.491   2.632 -0.4638 -0.8633 -0.2629
10107SOL    HW233914   7.375   4.346   2.661 -1.8084 -0.2257  1.6370
10108SOL     OW33915   3.954   3.175   4.441  0.2544  0.2521 -0.9148
10108SOL    HW133916   4.012   3.155   4.514 -0.9880  0.9251  0.2976
10108SOL    HW233917   3.998   3.137   4.364  2.2121  0.6492 -0.0412
10109SOL     OW33918   2.837   0.869   9.146 -0.1871 -0.1397 -0.3436
10109SOL    HW133919   2.907   0.922   9.184  0.8840 -1.4537 -0.4233
10109SOL    HW233920   2.871   0.839   9.062  0.5970 -3.5142  1.0167
10110SOL     OW33921   5.181   8.250   3.136 -0.2493 -0.4423  0.0179
10110SOL    HW133922   5.165   8.344   3.147 -1.0073 -0.3859 -1.3991
10110SOL    HW233923   5.156   8.231   3.046  0.9406 -1.8046 -0.0671
10111SOL     OW33924   5.696   7.497   6.823  0.3253  0.6140  0.0340
10111SOL    HW133925   5.766   7.433   6.839  0.7880  1.4340  1.5053
10111SOL    HW233926   5.634   7.450   6.768  0.6045 -1.1567  1.1353
10112SOL     OW33927   7.212   4.777   0.091  0.3364  0.1959 -0.4504
10112SOL    HW133928   7.251   4.863   0.074  0.8310 -0.0468 -0.5573
10112SOL    HW233929   7.285   4.723   0.122 -0.5177  0.6452  2.7332
10113SOL     OW33930   8.733   3.058   4.787 -0.2066  0.6870  0.4030
10113SOL    HW133931   8.795   3.093   4.723 -0.9353 -2.4355 -2.2304
10113SOL    HW233932   8.785   2.999   4.841 -0.6844 -2.2092 -2.0312
10114SOL     OW33933   0.376   4.202  10.243 -0.5855 -0.3636 -0.2805
10114SOL    HW133934   0.360   4.197  10.338  1.6887  0.4654  0.2137
10114SOL    HW233935   0.471   4.189  10.235 -0.8155 -0.9311 -2.5086
10115SOL     OW33936   0.834   2.085   0.979 -0.1321  0.2334  0.1626
10115SOL    HW133937   0.870   2.162   0.934  0.5568 -0.1703  0.0216
10115SOL    HW233938   0.889   2.073   1.055  1.4844 -1.7084 -1.2143
10116SOL     OW33939   5.923   7.579   3.658 -0.1429 -0.2609  0.0119
10116SOL    HW133940   5.880   7.664   3.668 -0.1748  0.1253 -2.7752
10116SOL    HW233941   6.010   7.592   3.695 -0.0930  1.0529 -0.5213
10117SOL     OW33942   0.408   0.787   3.503 -0.6424 -0.0970  0.0785
10117SOL    HW133943   0.489   0.837   3.488  0.2207 -1.4888 -0.0802
10117SOL    HW233944   0.343   0.831   3.448 -0.3762  1.8749  1.2363
10118SOL     OW33945   3.878   1.929   2.424 -0.1470 -0.3480  0.2770
10118SOL    HW133946   3.800   1.898   2.470 -0.7825  0.4978 -0.2053
10118SOL    HW233947   3.847   1.999   2.367  0.7818 -0.7421 -0.7661
10119SOL     OW33948   4.581   2.247  10.421 -0.8014  0.1500 -0.0231
10119SOL    HW133949   4.512   2.203  10.370 -0.3524 -1.2913  0.5471
10119SOL    HW233950   4.602   2.185  10.491 -0.6917  1.6607  1.3394
10120SOL     OW33951   6.229   8.151   5.710 -0.5991  0.8636  0.0652
10120SOL    HW133952   6.309   8.166   5.661 -0.2989  1.8379  0.8360
10120SOL    HW233953   6.170   8.108   5.647 -0.1351  1.8273 -1.0497
10121SOL     OW33954   2.513   7.667   9.100 -0.2896  0.4432 -0.1809
10121SOL    HW133955   2.556   7.717   9.169 -0.4678  1.0411 -0.5003
10121SOL    HW233956   2.571   7.592   9.086 -1.0413 -0.5408  1.6899
10122SOL     OW33957   6.983   4.984  10.798  0.0616 -0.7902 -0.3452
10122SOL    HW133958   7.013   4.913  10.741  0.2875 -1.5525  0.6890
10122SOL    HW233959   7.021   5.063  10.760 -1.1804 -1.0219 -2.2309
10123SOL     OW33960   2.345   4.651   7.176 -0.0418 -0.0556 -0.2386
10123SOL    HW133961   2.290   4.718   7.136  0.9158 -0.3149 -2.1110
10123SOL    HW233962   2.419   4.699   7.212  1.1865 -0.1293 -2.5257
10124SOL     OW33963   7.923   1.650   6.630  0.0002 -0.0733  1.1864
10124SOL    HW133964   7.870   1.720   6.667 -0.6398  1.0238 -1.5452
10124SOL    HW233965   8.013   1.679   6.642 -0.2005  0.3830  1.6208
10125SOL     OW33966   0.428   4.173   9.913 -0.9944 -0.3474 -0.4624
10125SOL    HW133967   0.518   4.169   9.879 -1.0636 -0.8038 -0.5949
10125SOL    HW233968   0.438   4.212  10.000 -0.7321  0.1132 -0.6962
10126SOL     OW33969   7.870   8.576   2.397  0.0516  0.4230  0.4940
10126SOL    HW133970   7.812   8.505   2.424  3.1348 -1.6417  2.2779
10126SOL    HW233971   7.892   8.555   2.306  0.6286 -0.7712  0.8811
10127SOL     OW33972   0.426   4.970   6.333 -0.5472 -0.3825 -0.3514
10127SOL    HW133973   0.350   4.980   6.276  1.0953 -0.6057 -2.7874
10127SOL    HW233974   0.497   5.014   6.286  0.7004  0.4624  2.1640
10128SOL     OW33975   2.135   0.116   6.133 -0.6728 -0.1622 -0.1151
10128SOL    HW133976   2.096   0.196   6.099  0.0102  0.1365 -0.2077
10128SOL    HW233977   2.192   0.085   6.062  0.4306  0.2337  0.5697
10129SOL     OW33978   7.262   9.532   0.818  0.3369 -0.0354 -0.0022
10129SOL    HW133979   7.277   9.504   0.908  3.4775  0.7614 -0.1579
10129SOL    HW233980   7.324   9.603   0.804  0.8048 -0.8900 -3.1099
10130SOL     OW33981   9.583   2.720   4.712 -0.0839 -0.2338 -0.8237
10130SOL    HW133982   9.495   2.686   4.694 -0.5366 -0.5711  1.7279
10130SOL    HW233983   9.585   2.734   4.806  2.2801  0.7742 -0.9534
10131SOL     OW33984  10.155  10.668   5.756 -0.8266 -0.1093  0.4778
10131SOL    HW133985  10.172  10.577   5.732 -0.9376 -0.2224  0.8322
10131SOL    HW233986  10.234  10.715   5.730 -0.9273 -0.2411 -0.0687
10132SOL     OW33987   2.082   1.467   9.061  0.0681 -0.1906  0.1816
10132SOL    HW133988   2.041   1.411   8.995  1.5207 -1.7545  0.5275
10132SOL    HW233989   2.069   1.421   9.143  2.5224 -0.8706  0.2930
10133SOL     OW33990   5.454   8.764   8.706  0.4821 -0.3736  0.2427
10133SOL    HW133991   5.388   8.813   8.754 -0.2681 -0.7800 -0.3583
10133SOL    HW233992   5.513   8.830   8.671  2.2130 -0.0970  3.2889
10134SOL     OW33993   3.885   3.478   9.568 -0.4036 -0.2313 -0.5742
10134SOL    HW133994   3.938   3.556   9.582  0.3161 -0.6548 -0.8710
10134SOL    HW233995   3.853   3.486   9.478 -1.2191  0.2397 -0.2504
10135SOL     OW33996   5.947   3.553   1.355 -0.1395  0.5218 -0.0082
10135SOL    HW133997   5.932   3.474   1.407 -0.7244 -0.6178 -1.7910
10135SOL    HW233998   5.953   3.624   1.419 -0.6769 -0.8122  1.5908
10136SOL     OW33999   4.952   0.266   9.625  0.1662 -0.5542  1.0550
10136SOL    HW134000   4.995   0.328   9.566  0.7216 -0.6327  1.3729
10136SOL    HW234001   4.901   0.209   9.568 -1.7642  1.2395  0.8439
10137SOL     OW34002   9.069   9.829   6.530 -0.6355 -0.3178 -0.0868
10137SOL    HW134003   9.032   9.844   6.443  1.0047 -0.3301 -0.8215
10137SOL    HW234004   9.050   9.738   6.550 -1.5188 -0.1548 -0.1804
10138SOL     OW34005   0.742   9.876   8.533 -0.0591  0.6947  0.0895
10138SOL    HW134006   0.721   9.951   8.588 -1.1196  0.9381 -0.6273
10138SOL    HW234007   0.696   9.803   8.574  0.3808  0.5682  0.3708
10139SOL     OW34008   1.042   8.101   4.979  0.7178  0.1029 -0.3540
10139SOL    HW134009   0.977   8.144   4.922 -0.0971 -0.0521  0.4241
10139SOL    HW234010   1.126   8.125   4.942  0.2226  0.7269 -1.1099
10140SOL     OW34011   7.129   6.241   0.329 -0.1776  0.4580  0.0409
10140SOL    HW134012   7.196   6.253   0.262 -1.1634  1.2620 -0.8413
10140SOL    HW234013   7.170   6.271   0.410  0.7713  0.2126 -0.3323
10141SOL     OW34014   7.847   5.427   4.271  0.3901  0.0703  0.0877
10141SOL    HW134015   7.904   5.375   4.213 -0.0552  0.0281 -0.3220
10141SOL    HW234016   7.767   5.375   4.279  0.0536  0.5550 -0.0882
10142SOL     OW34017   4.857   1.216   5.850  0.0362  0.8794  0.2491
10142SOL    HW134018   4.945   1.206   5.814 -0.2211 -1.0473  0.0759
10142SOL    HW234019   4.804   1.247   5.777  0.5149  1.9190  0.3219
10143SOL     OW34020   9.189   8.406   5.354  0.1353  0.3561 -0.7490
10143SOL    HW134021   9.256   8.455   5.307  0.7800  0.6084  0.3934
10143SOL    HW234022   9.218   8.315   5.349  1.1572  0.5751  0.6276
10144SOL     OW34023   1.841   3.074   0.230 -0.1719 -0.7108 -0.3598
10144SOL    HW134024   1.834   2.979   0.242  0.4310 -0.7563 -0.3343
10144SOL    HW234025   1.833   3.110   0.319 -0.0584 -0.7585 -0.3307
10145SOL     OW34026   6.386   1.477   6.237  0.1300 -0.4508 -0.2928
10145SOL    HW134027   6.345   1.393   6.216  1.3694 -0.7377 -1.7413
10145SOL    HW234028   6.397   1.519   6.152  0.3222  0.8081  0.3404
10146SOL     OW34029   9.826   1.501   1.975  0.8456  0.0927  0.1528
10146SOL    HW134030   9.842   1.498   2.069 -0.5523  1.0370  0.4605
10146SOL    HW234031   9.846   1.591   1.950  1.1164 -0.1280 -0.4467
10147SOL     OW34032   3.218   3.878   0.706  0.0842 -0.2756 -0.0924
10147SOL    HW134033   3.186   3.941   0.642 -1.2827  1.1722  1.8943
10147SOL    HW234034   3.154   3.807   0.705 -0.7157  0.4157  0.6121
10148SOL     OW34035   0.136   1.127   6.316 -0.1075 -0.2870  0.2905
10148SOL    HW134036   0.115   1.084   6.233  0.0832 -0.8355  0.5181
10148SOL    HW234037   0.143   1.055   6.379  0.5872  0.0414  0.6093
10149SOL     OW34038   6.193   8.248   2.599  0.9016 -0.1528 -0.1883
10149SOL    HW134039   6.134   8.191   2.649  3.0533 -3.2946 -0.9535
10149SOL    HW234040   6.280   8.224   2.630  2.0224  4.9428  1.5768
10150SOL     OW34041  11.043   0.471   5.141 -0.3278 -0.2687  0.0520
10150SOL    HW134042  11.021   0.380   5.118 -2.6017 -0.3477  2.0857
10150SOL    HW234043  10.991   0.524   5.082 -0.4033 -0.3439  0.0489
10151SOL     OW34044   3.057  10.494   4.718  0.1034  0.1133  0.3723
10151SOL    HW134045   3.020  10.497   4.806  0.3418  0.1876  0.4709
10151SOL    HW234046   3.030  10.408   4.684  0.7282 -0.2711  0.8353
10152SOL     OW34047   0.418   9.203   3.573  0.0567 -0.1761  0.0447
10152SOL    HW134048   0.483   9.150   3.621 -2.0934 -1.0695  2.1685
10152SOL    HW234049   0.470   9.256   3.513  2.7711 -0.7082  1.7508
10153SOL     OW34050   5.813   5.057   8.853 -0.3201 -0.4005 -0.4714
10153SOL    HW134051   5.727   5.093   8.832 -0.8382 -1.1629  0.2791
10153SOL    HW234052   5.834   4.999   8.780  0.4783  1.2739 -1.6455
10154SOL     OW34053   6.341   4.345   8.979 -0.1998 -0.1427 -0.1771
10154SOL    HW134054   6.357   4.431   8.939 -0.7742  0.0537 -0.0010
10154SOL    HW234055   6.271   4.307   8.926 -0.4623 -0.1862  0.1961
10155SOL     OW34056   0.511   7.310   3.122  0.1061  0.1582 -0.3701
10155SOL    HW134057   0.597   7.327   3.162  0.4005  0.0085 -0.9261
10155SOL    HW234058   0.486   7.224   3.155  0.5063 -0.1166 -0.7757
10156SOL     OW34059   2.446  10.275   7.843  0.3812  0.2989 -0.3418
10156SOL    HW134060   2.422  10.325   7.765  0.4280 -0.8032 -1.0908
10156SOL    HW234061   2.371  10.218   7.859  0.5673  0.1828  0.1407
10157SOL     OW34062   5.740   3.586  10.727  0.5851 -0.2923 -0.1393
10157SOL    HW134063   5.660   3.536  10.710 -0.3956  1.2066 -0.0380
10157SOL    HW234064   5.774   3.549  10.809 -1.2113  0.4990  1.0145
10158SOL     OW34065   6.937   0.125   3.209  0.6625 -0.1894 -0.0845
10158SOL    HW134066   6.844   0.133   3.188  0.7825  1.9442  0.0149
10158SOL    HW234067   6.938   0.073   3.290 -0.7639  2.4199  1.7963
10159SOL     OW34068   5.987   2.896   8.434 -0.1615  0.8515  0.3364
10159SOL    HW134069   6.052   2.965   8.424  0.0919  0.6578  0.6481
10159SOL    HW234070   5.982   2.880   8.528  1.2200 -0.9256  0.1671
10160SOL     OW34071  10.876  10.546   4.598 -0.0331 -0.1651  0.2212
10160SOL    HW134072  10.792  10.506   4.620  0.2650  0.5685  3.0894
10160SOL    HW234073  10.938  10.473   4.597 -0.2186 -0.3442  1.0874
10161SOL     OW34074   9.819   1.988   9.769  0.1802  0.4143 -0.2274
10161SOL    HW134075   9.828   2.075   9.729  0.6255  1.7517  2.4880
10161SOL    HW234076   9.729   1.986   9.802 -0.0774 -0.5049 -0.9682
10162SOL     OW34077   1.061   5.506   5.523 -0.3282 -0.2718 -0.0376
10162SOL    HW134078   0.984   5.563   5.524 -0.3733 -0.1803 -2.6332
10162SOL    HW234079   1.041   5.439   5.458  1.1793 -1.1753  0.3590
10163SOL     OW34080   9.285   5.494   3.143 -0.2379  0.0603  0.2937
10163SOL    HW134081   9.211   5.552   3.126 -1.6382 -2.0250 -1.2552
10163SOL    HW234082   9.360   5.553   3.155 -1.9573  2.2067  1.0131
10164SOL     OW34083   0.273   9.412   3.674  0.2960  0.6895  0.6188
10164SOL    HW134084   0.307   9.492   3.633  0.7419  0.1429 -0.0982
10164SOL    HW234085   0.327   9.342   3.639 -0.1179  0.0560  1.2119
10165SOL     OW34086   3.558   0.735   6.344 -0.6023 -0.1631 -0.5694
10165SOL    HW134087   3.562   0.809   6.284 -1.8654  0.8193  0.4845
10165SOL    HW234088   3.567   0.775   6.431  4.0935 -1.7665 -0.0168
10166SOL     OW34089  11.010   9.445   0.162  1.0366  0.2714  0.3830
10166SOL    HW134090  11.058   9.494   0.096  3.0960 -0.4133  1.2951
10166SOL    HW234091  11.073   9.381   0.195 -0.8511 -1.4370  0.8796
10167SOL     OW34092   4.518   8.020   1.173 -0.0891 -0.5796 -0.4544
10167SOL    HW134093   4.613   8.015   1.187 -0.1415  0.4833  0.4270
10167SOL    HW234094   4.509   8.049   1.082  0.4774  0.6891 -0.1219
10168SOL     OW34095   2.927   9.995   7.391  0.3045  0.0005 -0.0444
10168SOL    HW134096   3.017   9.984   7.362 -0.1242 -2.4435 -0.6316
10168SOL    HW234097   2.934  10.028   7.481  1.8903 -2.6524  0.9167
10169SOL     OW34098  11.090   8.173   0.594 -0.0391 -0.2359 -0.1594
10169SOL    HW134099  11.131   8.257   0.617 -2.0716  1.4572 -2.1531
10169SOL    HW234100  11.047   8.144   0.674  0.2964  0.8750  0.4435
10170SOL     OW34101   1.089  10.523   9.305 -0.5075 -0.4737  0.1646
10170SOL    HW134102   1.029  10.507   9.233  2.1743 -1.4949 -2.0368
10170SOL    HW234103   1.062  10.461   9.373 -1.4632 -1.4436 -1.0593
10171SOL     OW34104   3.283   8.277   8.503  0.0870  0.1172  0.2820
10171SOL    HW134105   3.194   8.252   8.476 -0.9480  1.9138  1.8272
10171SOL    HW234106   3.334   8.269   8.422 -1.6935  0.0118 -0.9178
10172SOL     OW34107   5.394   2.839   2.365 -0.1293 -0.3557 -0.2108
10172SOL    HW134108   5.368   2.921   2.322  0.3030  0.6798  1.4049
10172SOL    HW234109   5.390   2.773   2.295  0.4511  1.2109 -1.8128
10173SOL     OW34110  10.868   9.123   6.623 -0.4181 -0.2644 -0.2941
10173SOL    HW134111  10.881   9.042   6.573  0.7475  0.0915 -0.5936
10173SOL    HW234112  10.955   9.161   6.630 -0.9544  0.9757 -0.1560
10174SOL     OW34113   8.873   0.479   3.374 -0.6594  0.0450  0.6713
10174SOL    HW134114   8.838   0.473   3.285 -1.1297 -0.0355  0.8576
10174SOL    HW234115   8.839   0.562   3.407  0.9622  0.9665  0.1743
10175SOL     OW34116   6.530   5.805   2.805 -0.3044 -0.3866  0.2635
10175SOL    HW134117   6.441   5.786   2.776  0.2471 -1.2296 -0.9430
10175SOL    HW234118   6.548   5.892   2.770 -0.2216 -0.7303 -0.5705
10176SOL     OW34119   3.145   5.184   3.628 -0.3852  0.9033 -0.4170
10176SOL    HW134120   3.219   5.166   3.569  0.6636  0.4309  0.9920
10176SOL    HW234121   3.177   5.253   3.686 -0.7126  0.0885  0.7727
10177SOL     OW34122   7.322   9.256   4.330  1.0402 -0.0839 -0.7374
10177SOL    HW134123   7.242   9.216   4.365  0.5057  1.1752 -0.4355
10177SOL    HW234124   7.391   9.226   4.388  0.5923 -0.2358 -0.2726
10178SOL     OW34125   8.472   3.561   7.171  0.0518 -0.3122  0.3109
10178SOL    HW134126   8.437   3.606   7.094  1.7057  0.4662 -0.0416
10178SOL    HW234127   8.487   3.471   7.141 -0.0138 -0.2021 -0.0607
10179SOL     OW34128   0.391   5.618  10.397 -0.9750 -0.5641  0.0219
10179SOL    HW134129   0.473   5.614  10.446  0.7344  2.8429 -2.1800
10179SOL    HW234130   0.327   5.655  10.458 -0.0155 -0.2368  0.8430
10180SOL     OW34131   1.864  10.299   4.517  0.2028  0.3867 -0.1880
10180SOL    HW134132   1.902  10.219   4.481 -1.8652 -1.1814  0.9354
10180SOL    HW234133   1.940  10.349   4.548  1.4847 -2.0797  0.9877
10181SOL     OW34134   1.496  10.005   3.420 -0.2446  0.1912 -0.5858
10181SOL    HW134135   1.523   9.977   3.333 -0.3179 -0.7072 -0.3330
10181SOL    HW234136   1.495  10.101   3.416  0.3801  0.1707 -1.3728
10182SOL     OW34137   3.955   8.313   5.193 -0.1625 -0.3255  0.4942
10182SOL    HW134138   3.955   8.389   5.250 -0.4490 -1.3452  1.8889
10182SOL    HW234139   3.877   8.264   5.218 -0.4460 -0.6723 -0.9674
10183SOL     OW34140   2.658  10.634   5.454 -0.1061  0.1819 -0.7248
10183SOL    HW134141   2.680  10.657   5.363 -0.9052  0.6228 -0.8175
10183SOL    HW234142   2.564  10.651   5.460  0.1251  1.0789  0.4696
10184SOL     OW34143   7.689   5.181   6.273 -0.0375  0.7188  0.0213
10184SOL    HW134144   7.643   5.264   6.280 -0.1032  0.5970  1.4141
10184SOL    HW234145   7.619   5.115   6.272  0.0041  0.6729 -1.3270
10185SOL     OW34146   3.324   2.331   9.925 -0.3480 -0.3448  0.2738
10185SOL    HW134147   3.289   2.406   9.972  1.6806  2.5436 -2.3884
10185SOL    HW234148   3.408   2.313   9.966 -0.8479 -1.2856  0.9355
10186SOL     OW34149   8.823   6.276   5.082  0.0318  0.4451  1.0763
10186SOL    HW134150   8.793   6.238   4.999  2.0907  2.1951 -0.6058
10186SOL    HW234151   8.787   6.218   5.149 -2.9918 -0.2121 -0.9097
10187SOL     OW34152   7.889   9.770   8.569  0.2678  0.2433  0.1807
10187SOL    HW134153   7.927   9.810   8.490  1.4376 -0.2507  0.4807
10187SOL    HW234154   7.944   9.694   8.586  0.4077  0.6689  1.8084
10188SOL     OW34155   3.063   3.255   7.978 -0.0031  0.0978  0.4377
10188SOL    HW134156   3.156   3.278   7.988  0.5066 -1.7413  0.3255
10188SOL    HW234157   3.018   3.339   7.970  1.9288  1.0197 -1.9479
10189SOL     OW34158   5.018   7.979   4.072 -0.1688  0.4379 -0.5037
10189SOL    HW134159   4.930   8.015   4.069  0.2987  1.6899  0.2665
10189SOL    HW234160   5.008   7.895   4.117 -1.2523 -0.4339 -2.2547
10190SOL     OW34161   5.937   2.649   3.257  0.6295  0.6880  0.0139
10190SOL    HW134162   5.848   2.629   3.230  1.2559 -1.5451 -0.5705
10190SOL    HW234163   5.963   2.723   3.202 -0.9918  1.7191  0.5602
10191SOL     OW34164   5.386   1.977   4.049  0.3054 -0.0025  0.1697
10191SOL    HW134165   5.335   2.001   4.126 -1.3313  0.9347 -1.1478
10191SOL    HW234166   5.429   1.895   4.073  0.1723  0.4638  2.1994
10192SOL     OW34167   9.137  10.123  10.841 -0.0602 -0.3377  0.2635
10192SOL    HW134168   9.138  10.217  10.856  1.5925 -0.1894 -0.6030
10192SOL    HW234169   9.066  10.109  10.779  0.7367  0.5757 -0.8938
10193SOL     OW34170   7.727   4.903   1.832 -0.3314  0.2690 -0.3523
10193SOL    HW134171   7.805   4.909   1.887 -0.5238  1.2449 -0.1725
10193SOL    HW234172   7.691   4.992   1.831 -0.8096  0.0800 -1.3575
10194SOL     OW34173  10.929   4.077   5.102  0.3809  0.0808  0.0285
10194SOL    HW134174  10.965   4.140   5.164  0.9396  1.1242 -1.3030
10194SOL    HW234175  11.001   4.016   5.084  0.0405 -0.5726  0.8229
10195SOL     OW34176   2.130   5.520  10.970  0.3007  0.0674 -0.3789
10195SOL    HW134177   2.204   5.571  10.940  0.3919 -0.2951 -0.7802
10195SOL    HW234178   2.057   5.582  10.976  0.3803  0.2182 -0.9724
10196SOL     OW34179   2.245   6.556  10.174  0.1725 -0.3964 -0.5654
10196SOL    HW134180   2.284   6.547  10.088 -0.1972 -0.8385 -0.6909
10196SOL    HW234181   2.209   6.470  10.194  1.8098 -0.8259  0.8060
10197SOL     OW34182   5.656   6.258   8.727  0.2794 -0.5119  0.1425
10197SOL    HW134183   5.751   6.255   8.741  0.0716  0.4250  2.2191
10197SOL    HW234184   5.619   6.248   8.815 -1.4703  1.2915 -0.3253
10198SOL     OW34185   8.399   4.343   8.999 -0.0694 -0.4934 -0.0887
10198SOL    HW134186   8.352   4.424   8.979  1.0954  0.8352  2.1598
10198SOL    HW234187   8.469   4.339   8.934  0.3179  0.7580  0.2220
10199SOL     OW34188   9.714   6.101   2.703  0.0840 -0.6240  0.4172
10199SOL    HW134189   9.774   6.130   2.634  0.1409  0.4594  0.8950
10199SOL    HW234190   9.771   6.075   2.775  0.0051 -0.0598  0.6924
10200SOL     OW34191  10.226   5.165   8.181  0.3059 -0.0875  0.1757
10200SOL    HW134192  10.136   5.158   8.212  0.6131 -0.8426  0.9313
10200SOL    HW234193  10.242   5.082   8.135  0.0015  0.8251 -1.6795
10201SOL     OW34194   5.001   1.994   4.332 -0.3593  0.3197  0.0815
10201SOL    HW134195   5.030   1.959   4.416  0.3396  2.0516  0.6148
10201SOL    HW234196   5.018   1.924   4.269  1.2374 -0.1949  1.0224
10202SOL     OW34197   0.056   0.685   2.082 -0.7205 -0.0158 -0.6807
10202SOL    HW134198  -0.002   0.630   2.030  0.1099 -2.3540  0.6975
10202SOL    HW234199   0.140   0.639   2.080 -0.4938  0.1364  2.1220
10203SOL     OW34200   6.759   3.755  10.142  0.4288 -0.2014  0.5071
10203SOL    HW134201   6.825   3.819  10.169 -1.1691  0.8704  2.2413
10203SOL    HW234202   6.785   3.674  10.184  0.9571  0.0551  0.6824
10204SOL     OW34203   0.433  11.109   7.397  0.3694  0.2553  0.3481
10204SOL    HW134204   0.341  11.098   7.418  0.4690  0.4677  0.9045
10204SOL    HW234205   0.454  11.034   7.341 -0.0446 -0.0001  0.5345
10205SOL     OW34206   1.723   0.488   3.221  0.5902 -0.7188  0.3027
10205SOL    HW134207   1.632   0.492   3.193  1.2203  2.0132 -1.8506
10205SOL    HW234208   1.728   0.410   3.276 -2.3778 -2.5960 -1.7762
10206SOL     OW34209   9.404  10.784   9.910  0.1530 -0.0637  0.0702
10206SOL    HW134210   9.345  10.714   9.938 -0.5394  1.0524  1.5403
10206SOL    HW234211   9.460  10.801   9.986 -1.1855  2.4377  0.6291
10207SOL     OW34212   2.088   5.435   1.130  0.2441 -0.3046 -0.1893
10207SOL    HW134213   2.032   5.512   1.114  0.2044 -0.3359 -0.2003
10207SOL    HW234214   2.128   5.452   1.215  0.8160  0.0818 -0.5236
10208SOL     OW34215   5.083   3.694  10.688  0.0305  0.0317 -0.0632
10208SOL    HW134216   5.091   3.677  10.595 -0.7614  1.3359 -0.3946
10208SOL    HW234217   4.990   3.712  10.702  0.2838  0.7862  0.8025
10209SOL     OW34218   1.041   7.345   9.946  0.6189 -0.1711 -0.2539
10209SOL    HW134219   0.975   7.279   9.924  0.8215 -0.9518  1.2881
10209SOL    HW234220   1.088   7.360   9.864  0.6146 -2.0356 -0.6440
10210SOL     OW34221   8.910   6.521   4.936 -0.6514  0.4103  0.1981
10210SOL    HW134222   8.876   6.609   4.918  0.1916  0.7628  0.2668
10210SOL    HW234223   8.932   6.486   4.849  1.7491  1.4222  0.3252
10211SOL     OW34224   7.054   9.311  10.776 -0.1631 -0.2554 -0.2305
10211SOL    HW134225   6.986   9.367  10.738 -0.3385  0.3655  0.9387
10211SOL    HW234226   7.136   9.353  10.751 -0.3019  0.8635  1.0587
10212SOL     OW34227   2.077  10.406   4.027  0.3683 -0.2732  0.3658
10212SOL    HW134228   2.166  10.388   3.996 -0.0921  0.8539 -1.8132
10212SOL    HW234229   2.055  10.331   4.082  1.1123 -2.8367 -2.5464
10213SOL     OW34230   9.897   3.830   1.507  0.6944 -0.0424  0.1315
10213SOL    HW134231   9.883   3.750   1.557  0.5807 -0.2549 -0.2301
10213SOL    HW234232   9.918   3.799   1.418  3.1075  0.2555  0.5250
10214SOL     OW34233   8.542   7.244   9.301 -0.4209  0.2615  0.6938
10214SOL    HW134234   8.486   7.226   9.377 -0.7623 -0.1271  0.3558
10214SOL    HW234235   8.605   7.172   9.301  0.8510  1.3001  1.7525
10215SOL     OW34236   4.253   4.852   2.369 -0.0661  0.3799  0.3874
10215SOL    HW134237   4.267   4.806   2.287 -0.4342  0.6165  0.1848
10215SOL    HW234238   4.163   4.830   2.393 -0.1125  0.6752  0.4909
10216SOL     OW34239   9.775   4.811   2.704 -0.6507  0.3988  0.0745
10216SOL    HW134240   9.791   4.723   2.671  1.0143  0.2441  1.1919
10216SOL    HW234241   9.856   4.858   2.687 -1.7580  1.9827 -1.1820
10217SOL     OW34242   2.842   2.946   9.887 -0.4460  0.1443 -0.0643
10217SOL    HW134243   2.874   2.867   9.931  0.6329  1.3628  1.4366
10217SOL    HW234244   2.863   2.932   9.795  1.8671 -0.3653  0.4677
10218SOL     OW34245   2.778   2.223   6.729 -0.0042  0.1643 -0.0426
10218SOL    HW134246   2.848   2.159   6.741 -0.9701 -0.6114  1.9533
10218SOL    HW234247   2.709   2.175   6.683 -0.9372 -0.4845  1.9093
10219SOL     OW34248   2.360   5.742   1.504 -0.2870  0.5450  0.3594
10219SOL    HW134249   2.405   5.682   1.563 -1.1423  0.3362  0.8135
10219SOL    HW234250   2.411   5.823   1.509  0.9826 -0.1815 -0.4042
10220SOL     OW34251   7.286   9.052   8.047  0.2678 -0.1408 -0.4694
10220SOL    HW134252   7.317   9.134   8.086  0.2885 -0.2340 -0.2874
10220SOL    HW234253   7.199   9.040   8.083  0.4880 -0.4939 -0.0435
10221SOL     OW34254  10.754   6.239  10.543  0.0373 -0.1804 -0.0376
10221SOL    HW134255  10.677   6.269  10.592  0.3136  0.7078 -0.1268
10221SOL    HW234256  10.826   6.293  10.576  0.5734 -0.8153 -0.1481
10222SOL     OW34257   6.008   5.374   4.331 -0.3233  0.3352 -0.2604
10222SOL    HW134258   5.982   5.445   4.391 -0.2135  1.0654 -1.0536
10222SOL    HW234259   5.926   5.328   4.311 -0.6815  1.2714 -1.0294
10223SOL     OW34260   7.418   8.012   5.425  0.6002  0.1410 -0.4563
10223SOL    HW134261   7.464   8.064   5.358  1.1113 -1.6205 -1.5281
10223SOL    HW234262   7.465   8.032   5.506  0.4197  1.7623 -0.7060
10224SOL     OW34263   6.463   0.041   3.194 -0.8062  0.0730 -0.7917
10224SOL    HW134264   6.373   0.069   3.181 -1.5584 -2.1619 -0.7345
10224SOL    HW234265   6.463  -0.001   3.280  0.2422 -0.2109 -0.9091
10225SOL     OW34266  10.493  10.006   4.719 -0.1145 -0.0371  0.0584
10225SOL    HW134267  10.417   9.952   4.742 -0.9705  0.8535 -0.5616
10225SOL    HW234268  10.456  10.075   4.664  1.1883  0.3216 -0.3834
10226SOL     OW34269   8.126   8.980   3.552  0.1366  0.5755  0.0588
10226SOL    HW134270   8.164   9.032   3.622 -1.6390  2.1395 -0.0557
10226SOL    HW234271   8.088   9.044   3.492 -0.4306 -0.8011 -1.1190
10227SOL     OW34272   4.118   2.573   7.424 -0.5221  0.1630  0.4382
10227SOL    HW134273   4.213   2.568   7.432 -0.4770  2.3713  2.4044
10227SOL    HW234274   4.086   2.568   7.515 -2.1679  0.5897 -0.0801
10228SOL     OW34275   6.368   2.285  10.134  0.4444 -0.1401  0.2781
10228SOL    HW134276   6.409   2.271  10.048 -1.7329 -0.6312 -0.7594
10228SOL    HW234277   6.364   2.198  10.173 -0.9967 -0.3831 -0.3416
10229SOL     OW34278   2.006   0.581   1.703  0.6567  0.5937 -0.2309
10229SOL    HW134279   2.069   0.652   1.691 -0.1844  1.5338  0.7026
10229SOL    HW234280   2.038   0.511   1.647  3.1333  0.6345  1.0006
10230SOL     OW34281   5.051   0.600   4.989  0.6011 -0.0373 -0.4746
10230SOL    HW134282   5.071   0.547   5.066 -1.8533  1.5397  1.4056
10230SOL    HW234283   5.037   0.537   4.919  3.0775 -1.5142  0.2436
10231SOL     OW34284   7.401   1.268   7.127 -0.3056 -0.0886 -0.0484
10231SOL    HW134285   7.382   1.360   7.112 -0.8023 -0.1869 -0.0402
10231SOL    HW234286   7.316   1.224   7.121 -0.3132 -0.3440  1.5404
10232SOL     OW34287   0.624   8.841   7.062  0.3366 -0.0101 -0.2171
10232SOL    HW134288   0.645   8.890   7.141  0.5876  1.3297 -1.0901
10232SOL    HW234289   0.695   8.861   7.001 -0.8733  0.6319 -1.4903
10233SOL     OW34290   8.383   8.982  10.201 -0.1322  0.2875  0.1194
10233SOL    HW134291   8.333   8.998  10.280  1.3346  0.4873  1.0588
10233SOL    HW234292   8.388   8.886  10.195 -0.8990  0.2648 -0.1708
10234SOL     OW34293   7.656   4.346   8.405 -0.1040  0.0487 -0.2377
10234SOL    HW134294   7.566   4.321   8.426 -0.6383  1.7143 -0.4747
10234SOL    HW234295   7.648   4.422   8.348  1.4624  1.6012  1.4815
10235SOL     OW34296   3.341   9.913   4.072  0.0310 -0.1596  0.2027
10235SOL    HW134297   3.297   9.854   4.011  0.4410 -0.7884  0.5108
10235SOL    HW234298   3.432   9.884   4.073 -0.1497 -0.7241  1.7845
10236SOL     OW34299   4.216   7.980   2.208  0.1089 -0.4479 -0.3691
10236SOL    HW134300   4.311   7.973   2.200  0.2858  1.0126  0.1505
10236SOL    HW234301   4.182   7.906   2.158  1.5471 -1.9097  0.7257
10237SOL     OW34302  10.936   2.197   2.516 -0.0583 -0.3406  0.1716
10237SOL    HW134303  11.006   2.157   2.465 -0.3751 -0.6776  0.0006
10237SOL    HW234304  10.921   2.283   2.475 -0.0540 -0.4546 -0.0672
10238SOL     OW34305  10.898   0.571   5.651  0.4037 -0.0445 -0.1653
10238SOL    HW134306  10.975   0.550   5.704  1.1117  0.1159 -1.1127
10238SOL    HW234307  10.881   0.492   5.601  0.7177  0.3437 -0.8878
10239SOL     OW34308   1.786   0.476   5.443 -0.0179 -0.0524  0.5969
10239SOL    HW134309   1.806   0.519   5.526  0.6688 -0.4814  0.6685
10239SOL    HW234310   1.857   0.504   5.385 -0.3342  0.0098  0.2402
10240SOL     OW34311   2.615   8.573   3.766 -0.2263  0.4199 -0.4662
10240SOL    HW134312   2.608   8.576   3.670 -0.7075 -1.0087 -0.4996
10240SOL    HW234313   2.539   8.623   3.797 -0.8437 -0.2725 -0.8362
10241SOL     OW34314   1.628   0.845  10.360  0.2139 -0.2314  0.9747
10241SOL    HW134315   1.625   0.822  10.267 -1.5322 -0.3924  1.0339
10241SOL    HW234316   1.567   0.783  10.401  0.4024  0.3225  2.1110
10242SOL     OW34317   6.318   3.826   1.802 -0.8067 -0.3149 -0.8628
10242SOL    HW134318   6.345   3.734   1.812  0.0726 -0.2648 -2.4433
10242SOL    HW234319   6.401   3.875   1.798 -1.2679  0.5920  0.0478
10243SOL     OW34320   4.723   6.003   1.243 -0.4133  0.0068  0.1380
10243SOL    HW134321   4.692   6.065   1.177 -0.6632 -0.2751 -0.0109
10243SOL    HW234322   4.708   5.917   1.204  1.3849 -0.1327 -0.3132
10244SOL     OW34323   4.317   7.766   7.541 -0.2754  0.0834  0.1281
10244SOL    HW134324   4.234   7.794   7.502  0.5699  1.9039 -0.4943
10244SOL    HW234325   4.325   7.674   7.516 -0.8749  0.5712 -2.1034
10245SOL     OW34326   1.839   7.617   5.647 -0.2769 -0.3449  0.4234
10245SOL    HW134327   1.803   7.530   5.629 -0.4679 -0.3235  0.6992
10245SOL    HW234328   1.862   7.651   5.561  0.3559 -0.9060  0.3648
10246SOL     OW34329   2.188   6.337   2.464  0.0085  0.3708  0.4013
10246SOL    HW134330   2.248   6.294   2.524 -0.4666  1.9051  2.0865
10246SOL    HW234331   2.219   6.313   2.376  0.4901 -2.2679  1.2169
10247SOL     OW34332   6.722   8.118   2.530  0.2867  0.0245  0.4496
10247SOL    HW134333   6.652   8.078   2.479  0.3836 -0.1904  0.4849
10247SOL    HW234334   6.718   8.211   2.507  1.4844 -0.3192 -1.3503
10248SOL     OW34335   9.374   7.689   3.993 -0.3288  0.2332  0.2102
10248SOL    HW134336   9.334   7.711   3.909 -1.0226  1.2593  0.7871
10248SOL    HW234337   9.468   7.698   3.978 -0.4302  0.1118 -0.5343
10249SOL     OW34338   8.612   3.650   3.393 -0.6737  0.0288  0.0223
10249SOL    HW134339   8.601   3.590   3.319 -0.5915 -0.6399  0.5409
10249SOL    HW234340   8.599   3.595   3.471  0.1390  0.5272  0.5255
10250SOL     OW34341   7.652   4.570   8.206 -0.2750  0.1768  0.4575
10250SOL    HW134342   7.589   4.556   8.136  1.4071  0.0099 -1.1209
10250SOL    HW234343   7.606   4.622   8.271 -2.4047 -1.0049 -0.0036
10251SOL     OW34344   1.677   2.049   1.939 -0.0615 -0.0316  0.6060
10251SOL    HW134345   1.698   1.974   1.995  0.3243  1.0339  1.9349
10251SOL    HW234346   1.654   2.119   2.000 -3.3779  0.1360 -0.6541
10252SOL     OW34347  10.055   1.857   1.278 -0.2129 -0.3168  0.2776
10252SOL    HW134348  10.003   1.922   1.326  0.7498  0.0525  0.8667
10252SOL    HW234349  10.146   1.887   1.289  0.0586 -0.3137 -1.6672
10253SOL     OW34350   2.008   1.153   6.890  0.2254  0.5193 -0.0938
10253SOL    HW134351   1.975   1.239   6.867  1.2878  0.5283 -1.8118
10253SOL    HW234352   2.039   1.116   6.807  0.8862 -1.0317  0.7891
10254SOL     OW34353   7.295   6.328   6.135  0.6598  0.8181 -0.1368
10254SOL    HW134354   7.247   6.406   6.106  2.1261  1.7035 -0.2359
10254SOL    HW234355   7.346   6.302   6.059 -0.4599 -0.7959 -0.3866
10255SOL     OW34356   2.630   2.742   7.371 -0.0516  0.1067  0.0031
10255SOL    HW134357   2.725   2.736   7.361  0.0892 -1.2160  1.6485
10255SOL    HW234358   2.615   2.829   7.409  0.4081  0.6267 -0.9718
10256SOL     OW34359  10.304   7.905   5.823  0.4596 -0.2293 -0.5063
10256SOL    HW134360  10.313   7.820   5.866  1.6189 -1.4620 -2.9527
10256SOL    HW234361  10.243   7.889   5.751 -1.0578  1.6171  0.2913
10257SOL     OW34362   8.600   3.604   3.703 -0.0840 -0.2164 -0.1392
10257SOL    HW134363   8.560   3.585   3.788  0.4305  0.6165  0.2977
10257SOL    HW234364   8.688   3.635   3.724  0.6093 -1.4748 -1.0599
10258SOL     OW34365   5.640  10.598   8.530 -0.4409 -0.3991  0.2897
10258SOL    HW134366   5.584  10.562   8.462 -1.2179 -1.4467  1.4336
10258SOL    HW234367   5.724  10.555   8.518 -0.8562 -1.3147  0.5577
10259SOL     OW34368   2.108   0.243   5.808  0.4761  0.0880  0.9719
10259SOL    HW134369   2.095   0.301   5.734  0.2817 -0.1172  0.8433
10259SOL    HW234370   2.074   0.292   5.883  1.0049  0.4380  0.9825
10260SOL     OW34371   7.648   6.482   0.029  0.7708 -0.3246  0.0314
10260SOL    HW134372   7.592   6.496  -0.047  0.2645 -0.8460  0.2987
10260SOL    HW234373   7.595   6.428   0.088  0.1828  2.0536  1.8432
10261SOL     OW34374   9.255   5.767   1.748 -0.1866  0.2049  0.3068
10261SOL    HW134375   9.289   5.684   1.714 -0.4922 -0.6903  2.0370
10261SOL    HW234376   9.308   5.834   1.706  0.0122 -0.8574 -1.2075
10262SOL     OW34377   1.123   9.093   0.939 -1.0880  0.0625  0.1996
10262SOL    HW134378   1.190   9.025   0.936 -1.9571 -0.7778 -0.9349
10262SOL    HW234379   1.044   9.048   0.969 -1.5871  0.6412 -0.2228
10263SOL     OW34380   4.007   8.911   8.338 -0.6023  0.2084  0.1792
10263SOL    HW134381   3.970   8.831   8.374 -0.0097  0.3549  1.1775
10263SOL    HW234382   4.007   8.899   8.243 -0.4879 -0.9835  0.3243
10264SOL     OW34383   6.201   8.936   2.790 -0.1809  0.9319  0.2395
10264SOL    HW134384   6.275   8.874   2.786 -0.6579  0.4040 -0.4864
10264SOL    HW234385   6.242   9.022   2.784  0.4761  0.6966  1.0714
10265SOL     OW34386   1.683   1.406   1.160 -0.3771 -0.1521 -0.4400
10265SOL    HW134387   1.617   1.370   1.219 -2.5896  2.5926 -1.0149
10265SOL    HW234388   1.751   1.440   1.218 -0.1722 -1.6637  0.2488
10266SOL     OW34389   0.904   8.761   0.474 -0.5582 -0.6838 -0.1024
10266SOL    HW134390   0.934   8.778   0.385  1.1963  0.4835  0.6618
10266SOL    HW234391   0.810   8.774   0.470 -0.1493  3.2527 -1.0204
10267SOL     OW34392   8.031   1.526   0.169  0.7235  0.1637  0.1569
10267SOL    HW134393   7.959   1.493   0.115  0.0029 -0.0821  1.2388
10267SOL    HW234394   8.065   1.601   0.120  1.4037 -1.2049 -1.6131
10268SOL     OW34395   2.998   1.043   6.862  0.2236 -0.3901  0.2677
10268SOL    HW134396   3.038   1.016   6.780  2.5739  2.0143  0.4876
10268SOL    HW234397   2.923   1.097   6.836  0.4349 -0.3541 -0.2667
10269SOL     OW34398   1.111   2.391   4.309  0.2110  0.1501 -0.0458
10269SOL    HW134399   1.048   2.338   4.358  0.9602 -1.0877 -0.3782
10269SOL    HW234400   1.127   2.467   4.365 -0.3158 -0.3473  0.7983
10270SOL     OW34401   6.942  10.023   7.512  0.2332 -0.2525 -0.2849
10270SOL    HW134402   6.930   9.932   7.537  1.5298 -0.5365 -0.6278
10270SOL    HW234403   7.020  10.051   7.560 -1.3908  1.3863  1.6059
10271SOL     OW34404   9.792   1.222   7.921  0.2726 -0.4670 -0.1461
10271SOL    HW134405   9.730   1.253   7.855  1.0533 -0.3021 -0.8293
10271SOL    HW234406   9.850   1.162   7.874  0.6498 -0.5927  0.4590
10272SOL     OW34407   0.667  10.185   8.954 -0.1724  0.2322  0.0940
10272SOL    HW134408   0.652  10.148   9.041  0.0777 -1.5696 -0.5922
10272SOL    HW234409   0.589  10.238   8.937  0.0785  1.1671  1.6656
10273SOL     OW34410   2.608   6.679   8.263  0.0285 -0.1476 -1.0077
10273SOL    HW134411   2.539   6.713   8.205 -1.0083  0.5900  0.5830
10273SOL    HW234412   2.607   6.738   8.338  0.8818 -1.4496  0.0701
10274SOL     OW34413   3.477   8.997   1.049  0.3392 -0.3964  0.5423
10274SOL    HW134414   3.482   8.928   1.116  2.0169  0.4069  1.3101
10274SOL    HW234415   3.436   8.954   0.974  0.5622 -1.9987  1.2787
10275SOL     OW34416   7.058   4.828   8.797 -0.1216  0.3585 -0.6213
10275SOL    HW134417   7.062   4.885   8.720  1.9208  1.2085  0.0298
10275SOL    HW234418   7.141   4.844   8.842 -0.6906 -1.1200  1.0517
10276SOL     OW34419   0.984   0.323   5.768 -0.3496  0.4890 -0.1186
10276SOL    HW134420   0.991   0.370   5.686 -1.9750  1.1424  0.0725
10276SOL    HW234421   1.051   0.361   5.824  1.7235 -0.9050 -1.5141
10277SOL     OW34422   8.269   8.248   3.665 -0.2483 -0.2673  0.2731
10277SOL    HW134423   8.276   8.340   3.638  2.3871 -0.8553 -1.4004
10277SOL    HW234424   8.351   8.231   3.711 -0.2499 -2.0041 -0.3065
10278SOL     OW34425   0.530  10.864   9.395 -0.0512  0.0973 -0.2172
10278SOL    HW134426   0.474  10.801   9.440 -1.6960  0.9591 -0.9560
10278SOL    HW234427   0.582  10.903   9.465 -1.8300  0.6943  0.8553
10279SOL     OW34428   2.054   5.976   7.034  0.4479  0.2304 -0.1092
10279SOL    HW134429   2.103   5.994   6.955 -0.6174  0.5152 -0.7275
10279SOL    HW234430   2.026   5.885   7.025 -0.9790  0.6977 -0.8350
10280SOL     OW34431   8.732   7.994  10.638  0.2419 -0.0769  0.0532
10280SOL    HW134432   8.737   7.899  10.648 -1.8354 -0.1799  0.7016
10280SOL    HW234433   8.734   8.008  10.543  3.0101 -0.5177 -0.0274
10281SOL     OW34434   5.160   3.988   0.121  0.0642  0.6616 -0.0185
10281SOL    HW134435   5.199   3.914   0.075 -1.0965  0.2501 -0.3861
10281SOL    HW234436   5.198   3.985   0.208 -1.7385 -1.8742  0.7781
10282SOL     OW34437   9.991   0.153   2.178 -0.0353 -0.1595  0.2894
10282SOL    HW134438  10.040   0.199   2.246  0.4430  1.1988 -0.9335
10282SOL    HW234439   9.910   0.202   2.169 -0.1288 -0.3756 -0.0748
10283SOL     OW34440   0.565   4.698   7.542 -0.2623  0.1058  0.1109
10283SOL    HW134441   0.507   4.728   7.612  0.0719  0.4020  0.2652
10283SOL    HW234442   0.520   4.622   7.505  0.0760 -0.7342  1.3552
10284SOL     OW34443   6.808   7.037   0.426  0.3576 -0.2070 -0.1365
10284SOL    HW134444   6.808   6.942   0.422  1.7757 -0.2180 -0.1860
10284SOL    HW234445   6.724   7.059   0.467 -0.7342 -1.3779 -1.6112
10285SOL     OW34446   5.989   1.928   6.166  0.0316  0.4552  0.3361
10285SOL    HW134447   6.013   1.960   6.253  2.5708 -0.0138 -0.1126
10285SOL    HW234448   5.998   2.004   6.109 -0.4425  0.4804  0.2940
10286SOL     OW34449   0.370   2.169  11.087 -0.0313  0.0026 -0.0715
10286SOL    HW134450   0.423   2.249  11.092  0.4906 -0.3385 -0.0754
10286SOL    HW234451   0.424   2.102  11.128 -1.6518  0.2325  2.6447
10287SOL     OW34452   4.073   2.063   8.993 -0.2163  0.1770  0.8153
10287SOL    HW134453   4.053   2.121   9.066  1.8681  0.0834  1.5156
10287SOL    HW234454   4.168   2.054   8.995 -0.1174 -0.0029 -1.7936
10288SOL     OW34455   2.887   8.738   6.630  0.4710  0.0586  0.1786
10288SOL    HW134456   2.930   8.664   6.673 -1.5105 -0.5634  1.2365
10288SOL    HW234457   2.796   8.710   6.621  0.2307  1.3227 -1.9218
10289SOL     OW34458   9.288   5.079   6.992  0.0632 -0.3788 -0.3752
10289SOL    HW134459   9.351   5.061   7.061  0.1297 -0.3525 -0.4292
10289SOL    HW234460   9.341   5.102   6.916  0.0029 -0.7482 -0.5341
10290SOL     OW34461   0.354  10.257   0.034 -0.4016  0.3741  0.3927
10290SOL    HW134462   0.341  10.162   0.025  1.7781  0.0975 -0.6312
10290SOL    HW234463   0.386  10.268   0.123 -0.2254  0.0606  0.3717
10291SOL     OW34464   3.231   9.708   3.901  0.2671 -0.5165  0.5849
10291SOL    HW134465   3.177   9.678   3.974  2.6894 -0.7989  2.3657
10291SOL    HW234466   3.276   9.629   3.870  0.9354 -0.0099  0.2470
10292SOL     OW34467   8.630   3.084   5.586 -0.1264 -0.1980  0.0093
10292SOL    HW134468   8.716   3.122   5.604 -0.0688 -0.5047  0.3775
10292SOL    HW234469   8.586   3.151   5.533 -0.0872  0.4595  0.7930
10293SOL     OW34470   7.015   8.457   0.182 -0.3230  0.1688  0.0505
10293SOL    HW134471   7.099   8.418   0.162 -1.6080 -2.5022 -0.6121
10293SOL    HW234472   7.012   8.461   0.278 -0.0766 -1.2857  0.1271
10294SOL     OW34473   9.915   6.061   5.476 -0.4269 -0.4076  0.4777
10294SOL    HW134474   9.857   6.047   5.551  0.7951 -2.1705  1.1833
10294SOL    HW234475   9.991   6.106   5.512 -1.0743  1.4360 -0.3422
10295SOL     OW34476   4.096   2.826  10.883  0.5885  0.0137  0.5419
10295SOL    HW134477   4.075   2.918  10.895 -2.7984 -0.7608  1.6253
10295SOL    HW234478   4.073   2.808  10.792  0.2417  0.0393  0.6218
10296SOL     OW34479   1.511   0.718   7.496 -0.2953  0.6214  0.6501
10296SOL    HW134480   1.534   0.667   7.574  2.4912  0.5295 -0.1175
10296SOL    HW234481   1.476   0.653   7.435 -0.5473  0.3409  1.0860
10297SOL     OW34482   2.707   7.276   0.439  0.3624 -0.4207  0.1223
10297SOL    HW134483   2.684   7.219   0.366 -2.6772  1.6478 -0.7452
10297SOL    HW234484   2.734   7.216   0.509  1.8438 -2.5524 -2.1191
10298SOL     OW34485   4.416   9.471   3.125 -0.4769  0.2464 -0.2982
10298SOL    HW134486   4.358   9.411   3.173 -0.1371 -0.6845 -1.0069
10298SOL    HW234487   4.420   9.434   3.037 -0.4011  1.4365 -0.8076
10299SOL     OW34488   1.190   5.651   8.176 -0.2048 -0.2925 -0.4735
10299SOL    HW134489   1.256   5.660   8.244 -1.2777  1.8893  0.3965
10299SOL    HW234490   1.162   5.741   8.157 -2.0769 -1.0403 -1.6212
10300SOL     OW34491   2.568   4.180   8.641 -0.7910 -0.0416 -0.2891
10300SOL    HW134492   2.596   4.089   8.631  1.0357  0.3958  0.4418
10300SOL    HW234493   2.537   4.205   8.554  0.1812 -0.9043 -0.9127
10301SOL     OW34494   1.818   8.253   4.813  0.1037  0.7096 -0.4375
10301SOL    HW134495   1.906   8.216   4.814 -0.4194 -0.6604  1.0859
10301SOL    HW234496   1.826   8.337   4.857  0.5750  0.3116  0.2614
10302SOL     OW34497   1.418   9.408   9.577 -0.7810 -0.6059 -0.2621
10302SOL    HW134498   1.407   9.497   9.544  1.2152  0.0291  0.6200
10302SOL    HW234499   1.357   9.355   9.525 -2.1971  1.2928 -0.6285
10303SOL     OW34500   4.496  10.440   0.352 -1.2767 -0.3304 -0.5714
10303SOL    HW134501   4.413  10.413   0.314 -1.9380 -1.2094  1.3516
10303SOL    HW234502   4.522  10.366   0.408  1.3427 -0.5293 -1.8979
10304SOL     OW34503   9.239   6.507   4.318 -0.3048  0.3239  0.2380
10304SOL    HW134504   9.251   6.558   4.397  0.1153  1.3349 -0.4564
10304SOL    HW234505   9.290   6.427   4.333 -1.4442 -0.1987  1.5684
10305SOL     OW34506   5.506   7.392   1.357 -0.1791  0.5391 -0.3660
10305SOL    HW134507   5.482   7.478   1.392  0.5706  0.4446  0.4365
10305SOL    HW234508   5.602   7.390   1.363 -0.1248 -0.0179 -1.2031
10306SOL     OW34509   8.777   5.732   1.249  0.1925  0.0952  0.4121
10306SOL    HW134510   8.804   5.812   1.205  1.5322 -0.3694  0.3391
10306SOL    HW234511   8.683   5.741   1.261 -0.1143  0.5322 -1.9306
10307SOL     OW34512   5.078   1.122   0.651 -0.7528  0.3673  0.1895
10307SOL    HW134513   5.115   1.194   0.702  0.3787  0.8027 -1.1946
10307SOL    HW234514   4.989   1.151   0.629 -1.0855  0.3700  1.4901
10308SOL     OW34515   1.028   7.480   3.084 -0.2570  0.1357 -0.3155
10308SOL    HW134516   0.952   7.424   3.064 -0.0170 -0.2403 -0.1779
10308SOL    HW234517   1.062   7.505   2.998 -0.8268  0.7071 -0.3819
10309SOL     OW34518   1.611   7.754   7.693  0.0026 -0.0460  0.0012
10309SOL    HW134519   1.593   7.696   7.768 -1.0895  0.5395  0.2184
10309SOL    HW234520   1.529   7.801   7.680 -0.3908 -1.2766 -2.5999
10310SOL     OW34521   2.744   6.160   7.833  0.7432 -0.1577  0.5282
10310SOL    HW134522   2.740   6.067   7.854  3.0424 -0.2101  0.9356
10310SOL    HW234523   2.744   6.204   7.918  0.0156  0.2088  0.3438
10311SOL     OW34524  10.534   7.745   6.505  0.6511 -0.3917  0.4214
10311SOL    HW134525  10.542   7.795   6.424 -0.2962 -0.1703  0.4484
10311SOL    HW234526  10.469   7.678   6.486  0.0668 -0.0429  1.1244
10312SOL     OW34527   5.969   8.426   5.361 -0.3562  0.1173  0.3095
10312SOL    HW134528   5.922   8.391   5.436 -0.1610 -0.6070  0.0999
10312SOL    HW234529   6.061   8.411   5.382 -0.3018 -0.0964 -0.0748
10313SOL     OW34530   1.097   9.248   3.027  0.3186  0.0813  0.3095
10313SOL    HW134531   1.074   9.231   3.118  0.4658  1.7465  0.7015
10313SOL    HW234532   1.072   9.169   2.980 -1.4851 -0.1126  1.5041
10314SOL     OW34533   1.535   5.279   2.368 -0.7940 -0.6399  0.2007
10314SOL    HW134534   1.468   5.250   2.430 -1.9996  0.9552 -0.3026
10314SOL    HW234535   1.515   5.231   2.287 -0.9328 -0.6507  0.2416
10315SOL     OW34536   6.584  10.072   9.424  0.3053  0.2434 -0.0092
10315SOL    HW134537   6.612  10.008   9.490  2.9412 -0.5314 -1.7209
10315SOL    HW234538   6.541  10.141   9.475 -0.1686 -1.5352  2.2058
10316SOL     OW34539   8.433   1.675   1.688  0.0207  0.0051  0.3197
10316SOL    HW134540   8.374   1.650   1.617 -1.4783 -0.2818  1.6180
10316SOL    HW234541   8.414   1.766   1.705 -0.3605 -0.2093  1.0416
10317SOL     OW34542   3.035   0.575   2.330 -0.0912 -0.3195 -0.1438
10317SOL    HW134543   3.025   0.527   2.248  2.2438  0.1258 -0.7709
10317SOL    HW234544   3.012   0.512   2.398  1.6911 -2.0010 -1.0059
10318SOL     OW34545   8.912   1.352   1.204  0.2956  0.3213 -0.0503
10318SOL    HW134546   8.898   1.322   1.294 -0.1908 -0.9620 -0.5315
10318SOL    HW234547   8.836   1.407   1.185 -0.2565 -0.4527 -0.1044
10319SOL     OW34548   0.203   7.640  10.213  0.1956  0.1380  0.4662
10319SOL    HW134549   0.221   7.566  10.155  0.4457 -0.7174  1.5844
10319SOL    HW234550   0.216   7.717  10.159 -1.3473 -0.6228 -1.1184
10320SOL     OW34551   9.413   6.355  10.189  0.4626 -0.6303 -0.0267
10320SOL    HW134552   9.506   6.335  10.186  0.3447 -1.2873  0.4649
10320SOL    HW234553   9.377   6.293  10.252 -0.1345  0.3448  0.6104
10321SOL     OW34554   8.864   3.485   4.097  0.4016 -0.2067  0.0221
10321SOL    HW134555   8.928   3.450   4.035 -0.9080 -0.5527 -1.1785
10321SOL    HW234556   8.841   3.571   4.063 -1.3650 -0.9593 -0.8177
10322SOL     OW34557  10.411   2.839   8.927 -0.4579  0.2750  0.2637
10322SOL    HW134558  10.503   2.844   8.901 -0.1767  1.9800  1.4320
10322SOL    HW234559  10.412   2.800   9.014 -0.6758  1.5806  0.8829
10323SOL     OW34560   4.633   3.048   5.369 -0.0378 -0.7116 -0.3461
10323SOL    HW134561   4.670   3.095   5.295 -0.4692 -0.3230 -0.3155
10323SOL    HW234562   4.688   3.074   5.443 -1.2304  1.0303 -0.0126
10324SOL     OW34563   1.878   2.811   5.174 -0.3447  0.2741  0.4591
10324SOL    HW134564   1.909   2.902   5.174 -0.2025  0.4005 -3.4585
10324SOL    HW234565   1.809   2.809   5.107  1.2233 -2.8892 -1.2951
10325SOL     OW34566   8.187   4.324   3.300 -0.1140  0.1557  0.2448
10325SOL    HW134567   8.154   4.307   3.388  1.3747 -0.1246  0.7744
10325SOL    HW234568   8.123   4.384   3.262  0.1984  1.8323  2.2079
10326SOL     OW34569   0.024   6.935   3.553 -0.2564 -0.3312  0.0178
10326SOL    HW134570   0.061   6.896   3.632  1.5294  1.5064  0.1826
10326SOL    HW234571  -0.047   6.991   3.585 -1.3091 -1.6105  0.0030
10327SOL     OW34572   1.406   6.425   8.111  0.0147  0.1584 -0.5880
10327SOL    HW134573   1.338   6.361   8.134 -1.0418  1.3274 -0.3183
10327SOL    HW234574   1.369   6.474   8.038  0.5423  0.8521 -0.4013
10328SOL     OW34575   8.828   8.774   6.496  0.4907  0.3225 -0.1379
10328SOL    HW134576   8.795   8.755   6.409 -0.5481  0.9895  0.0853
10328SOL    HW234577   8.750   8.796   6.547  0.8412 -1.8157  1.4614
10329SOL     OW34578   6.548   4.946   4.871 -0.0708  0.0206 -0.0873
10329SOL    HW134579   6.554   4.853   4.850 -1.3112 -0.2124  0.5142
10329SOL    HW234580   6.458   4.970   4.848  0.3856  1.1961 -0.7095
10330SOL     OW34581   8.592  10.852   1.163  0.4712  0.3824 -0.1725
10330SOL    HW134582   8.631  10.853   1.251  1.1318  0.8096 -0.4632
10330SOL    HW234583   8.593  10.943   1.135 -1.2802  0.4924  0.0315
10331SOL     OW34584   4.807   8.330   1.745  0.1506 -0.1812 -0.2769
10331SOL    HW134585   4.784   8.412   1.700  0.9657 -0.5838 -1.4874
10331SOL    HW234586   4.724   8.285   1.754 -0.7928  1.8631  2.8439
10332SOL     OW34587   7.761   9.851   3.199  0.5194  0.1452 -0.2262
10332SOL    HW134588   7.765   9.935   3.154 -0.3063  0.8626  0.9810
10332SOL    HW234589   7.711   9.869   3.278 -1.3746 -1.9014 -0.8640
10333SOL     OW34590  10.231   6.359   0.577 -0.0420  0.0416 -0.3829
10333SOL    HW134591  10.222   6.452   0.559 -0.4373  0.0848  0.0107
10333SOL    HW234592  10.263   6.321   0.495 -2.0046  0.1871 -1.2549
10334SOL     OW34593   2.634   0.304   7.346 -0.4673 -0.4146  0.2685
10334SOL    HW134594   2.658   0.284   7.436  0.5562 -0.1557  0.0759
10334SOL    HW234595   2.703   0.264   7.293 -0.1715  0.7710 -0.2940
10335SOL     OW34596  10.110   2.913   0.687 -0.4316  0.3825  0.4800
10335SOL    HW134597  10.097   2.993   0.636  0.6209  0.4957  0.3790
10335SOL    HW234598  10.095   2.842   0.624 -0.5314  0.5052  0.3634
10336SOL     OW34599   9.194   3.447   2.289  0.0629  0.0634 -0.0002
10336SOL    HW134600   9.277   3.408   2.317  0.3744  0.5754 -0.2090
10336SOL    HW234601   9.143   3.373   2.256 -0.2240 -0.5370  1.6749
10337SOL     OW34602  11.079  10.452   3.624  0.0271  0.1687 -0.2662
10337SOL    HW134603  11.125  10.467   3.541 -0.3585  0.6014 -0.4099
10337SOL    HW234604  11.144  10.411   3.681  0.3602  0.0694 -0.7114
10338SOL     OW34605   2.868   1.701   4.007 -0.2329  0.3635  0.1327
10338SOL    HW134606   2.802   1.646   3.964 -0.7665  0.9068  0.2415
10338SOL    HW234607   2.923   1.732   3.935 -0.7705  0.7933 -0.1067
10339SOL     OW34608   9.124  10.126   9.975 -0.4959 -0.3370 -0.0400
10339SOL    HW134609   9.197  10.161  10.027 -1.0499  0.4808  0.2054
10339SOL    HW234610   9.136  10.031   9.978  0.1155 -0.2502  0.6519
10340SOL     OW34611   6.795   7.965   7.410  0.1804 -0.4841 -0.4486
10340SOL    HW134612   6.777   7.912   7.488  2.2941 -0.4842  0.1103
10340SOL    HW234613   6.867   7.920   7.366  0.3606  0.5920 -1.3213
10341SOL     OW34614  10.655   7.830   0.173 -0.5773 -0.1147 -0.6659
10341SOL    HW134615  10.632   7.789   0.256  0.0708 -0.2242 -0.5324
10341SOL    HW234616  10.684   7.919   0.198  0.3441 -0.3981 -0.6767
10342SOL     OW34617   5.168   4.617   9.278  0.2852  0.0436 -0.5054
10342SOL    HW134618   5.227   4.595   9.206 -0.3477 -1.6828 -0.5552
10342SOL    HW234619   5.217   4.680   9.331  1.7264 -0.4884 -1.1420
10343SOL     OW34620   6.440   9.213   9.162  0.1926  0.7200  0.1285
10343SOL    HW134621   6.493   9.255   9.230 -2.9001  3.9859  0.8352
10343SOL    HW234622   6.465   9.257   9.081  0.0440  0.7769  0.1128
10344SOL     OW34623   0.498   3.950   7.101 -0.5982 -0.1911  0.7917
10344SOL    HW134624   0.576   3.983   7.057  0.6464 -2.9932  0.6966
10344SOL    HW234625   0.472   4.021   7.160 -0.3804  2.3754 -1.9940
10345SOL     OW34626   8.713   9.145  10.928  0.5217 -0.6443 -0.0726
10345SOL    HW134627   8.742   9.172  10.841 -0.0170  0.8970  0.1876
10345SOL    HW234628   8.752   9.209  10.988  0.2291 -1.1975  0.7301
10346SOL     OW34629   4.480   5.900   5.116 -0.1779 -0.3054  0.1785
10346SOL    HW134630   4.524   5.877   5.034 -1.3378 -0.8656 -0.3035
10346SOL    HW234631   4.545   5.881   5.184 -0.1397 -2.5031 -0.4107
10347SOL     OW34632   7.717   2.396   5.145  0.0326 -0.1242  0.6697
10347SOL    HW134633   7.729   2.486   5.174  0.2470 -0.3746  1.4086
10347SOL    HW234634   7.627   2.393   5.113  0.0593  0.3785  0.5434
10348SOL     OW34635   4.444   7.628   5.128 -0.3104 -0.0112 -0.1481
10348SOL    HW134636   4.420   7.557   5.188  0.7196  0.2328  0.5850
10348SOL    HW234637   4.489   7.691   5.184  0.1501  0.4994 -1.0827
10349SOL     OW34638  10.932  11.062   9.687  0.4257  0.5019  0.4600
10349SOL    HW134639  10.889  11.027   9.609  1.2707 -1.8942  0.9984
10349SOL    HW234640  11.015  11.097   9.655  0.3560  0.3913  0.1533
10350SOL     OW34641  10.035   0.117   9.048 -0.6208 -0.2007 -0.0946
10350SOL    HW134642  10.069   0.184   9.107 -0.1710 -0.4522 -0.0568
10350SOL    HW234643  10.006   0.046   9.106 -0.5955 -0.2604 -0.1539
10351SOL     OW34644   6.951   2.809   9.476  0.7870 -0.7210  0.3863
10351SOL    HW134645   6.936   2.773   9.388  2.1179 -0.1627 -0.0874
10351SOL    HW234646   6.874   2.864   9.492  0.2167 -1.3441 -0.1443
10352SOL     OW34647  10.261   1.477   7.180  0.9037 -0.1645 -0.5806
10352SOL    HW134648  10.308   1.395   7.188  0.0324 -0.5787  0.6689
10352SOL    HW234649  10.328   1.545   7.187  1.2916 -0.7062  2.2491
10353SOL     OW34650   1.587   0.518   9.790 -0.2600 -0.3077 -0.3124
10353SOL    HW134651   1.618   0.461   9.720  0.2087 -0.6662  0.1700
10353SOL    HW234652   1.622   0.478   9.870 -0.1022  0.5399  0.0557
10354SOL     OW34653   2.724   9.945   9.659  0.1604  0.1502 -0.4273
10354SOL    HW134654   2.658   9.945   9.590 -0.1312  1.3925 -0.1713
10354SOL    HW234655   2.718   9.858   9.699 -2.8324  0.9355  1.0294
10355SOL     OW34656   3.038  10.474  10.146  0.2778  0.3955 -0.2444
10355SOL    HW134657   2.983  10.533  10.197  0.8449  0.1633  0.6564
10355SOL    HW234658   3.108  10.448  10.206  0.8825  0.0011 -1.0983
10356SOL     OW34659   1.417  10.486   3.811  1.2755  0.3047  0.8385
10356SOL    HW134660   1.506  10.454   3.820  1.1400 -0.2874  0.2246
10356SOL    HW234661   1.365  10.431   3.870  1.1054 -0.3587  0.0936
10357SOL     OW34662   0.958   0.420   9.460  0.5491  0.2953  0.0705
10357SOL    HW134663   0.870   0.412   9.424 -0.0879  1.1469  1.3672
10357SOL    HW234664   0.980   0.513   9.448  1.4942 -0.0140 -0.7155
10358SOL     OW34665   7.499   1.470   8.111  0.1381  0.0969  0.1233
10358SOL    HW134666   7.513   1.388   8.065 -1.1025  0.4319 -0.9065
10358SOL    HW234667   7.487   1.445   8.202  1.0108 -0.7321  0.0231
10359SOL     OW34668   5.383   2.246  11.020  0.1128 -0.5269 -0.0035
10359SOL    HW134669   5.344   2.284  10.941 -1.0814 -1.1242  0.2667
10359SOL    HW234670   5.320   2.179  11.048  1.7248 -2.1011  0.0263
10360SOL     OW34671   2.211   4.393   9.131  0.0489 -0.1426 -0.0979
10360SOL    HW134672   2.263   4.317   9.158 -0.2571  0.2961  1.9210
10360SOL    HW234673   2.152   4.408   9.205  0.6462  2.5502 -0.0892
10361SOL     OW34674   2.691   6.211   3.177 -0.0724 -0.7495  0.0360
10361SOL    HW134675   2.606   6.195   3.136 -0.7193  1.3331  0.4240
10361SOL    HW234676   2.675   6.205   3.271  0.8580 -3.0170  0.1135
10362SOL     OW34677   7.459   8.967   6.348  0.1201 -0.3209  0.3304
10362SOL    HW134678   7.412   8.991   6.268  0.5711 -0.7318 -0.0685
10362SOL    HW234679   7.545   8.938   6.317 -0.6668 -3.3596  0.6574
10363SOL     OW34680   1.021  10.186   0.415 -0.0211  0.0865 -0.2291
10363SOL    HW134681   0.941  10.146   0.450 -0.3071  1.3666  0.6498
10363SOL    HW234682   0.994  10.222   0.331 -0.0496 -0.5220 -0.4899
10364SOL     OW34683   5.825  10.938   0.516  0.4873  0.0959 -0.1411
10364SOL    HW134684   5.878  11.017   0.507  0.3889  0.2029  0.2000
10364SOL    HW234685   5.887  10.872   0.548  0.4713  0.1560  0.0171
10365SOL     OW34686   1.547   2.178  10.592  0.0464  0.1543 -0.1102
10365SOL    HW134687   1.596   2.231  10.655  0.9243  0.7240 -1.2225
10365SOL    HW234688   1.469   2.149  10.640  0.1830  1.3982  0.9200
10366SOL     OW34689   8.559   6.251   7.600 -0.4001 -0.0237 -0.2986
10366SOL    HW134690   8.516   6.212   7.677 -0.8224  1.7074  0.3967
10366SOL    HW234691   8.487   6.273   7.541 -0.0184 -2.2175 -1.6929
10367SOL     OW34692   6.140  11.083   0.552 -0.0275 -0.5889 -0.2447
10367SOL    HW134693   6.065  11.124   0.596  0.5727 -0.4993  0.7200
10367SOL    HW234694   6.214  11.141   0.571  0.3994 -0.9585 -0.7423
10368SOL     OW34695   9.088   6.738   1.955  0.1651  0.0628 -0.0647
10368SOL    HW134696   9.141   6.802   1.906 -0.0317  0.2881  0.0169
10368SOL    HW234697   9.032   6.791   2.011  1.2527 -0.2142  1.3337
10369SOL     OW34698   1.892   0.948   7.529  0.0036 -0.1972  0.1853
10369SOL    HW134699   1.910   0.916   7.617 -2.9370 -2.9100 -0.0563
10369SOL    HW234700   1.965   0.914   7.476  0.8599 -0.0331  1.2178
10370SOL     OW34701   6.038   5.346   0.490 -0.2544 -0.0480 -0.4754
10370SOL    HW134702   6.126   5.382   0.499  0.2281 -0.7559 -2.0515
10370SOL    HW234703   5.984   5.420   0.460  0.1460  0.0222 -1.0314
10371SOL     OW34704   7.929   3.657   4.700  0.1477 -0.3775  0.5306
10371SOL    HW134705   7.876   3.602   4.642 -0.3159  1.4617 -0.9052
10371SOL    HW234706   7.865   3.712   4.746  0.6899  0.8877 -0.1689
10372SOL     OW34707   1.153   3.102   7.561 -0.0380  0.5967  0.3649
10372SOL    HW134708   1.201   3.184   7.569  0.9942 -0.0522  0.8957
10372SOL    HW234709   1.217   3.039   7.528 -0.7745 -0.0540  0.1398
10373SOL     OW34710   3.181   0.991  10.539  0.1367 -0.0346  0.6994
10373SOL    HW134711   3.097   1.009  10.582 -0.0532  1.5166 -0.2610
10373SOL    HW234712   3.161   0.921  10.477 -1.3285  2.4984 -1.9142
10374SOL     OW34713   7.810   7.576   9.533  0.3667  0.1815 -0.0838
10374SOL    HW134714   7.827   7.489   9.570 -0.1109  0.2194  0.2420
10374SOL    HW234715   7.820   7.635   9.608  1.7023  0.5319 -0.5143
10375SOL     OW34716   1.210   4.805   5.130  0.5128  0.1263 -0.1216
10375SOL    HW134717   1.138   4.773   5.185  3.1281 -0.7675  3.0861
10375SOL    HW234718   1.205   4.752   5.050 -1.8085 -0.4980  0.3649
10376SOL     OW34719   7.778   3.687  10.630  0.4537  0.3029 -0.0347
10376SOL    HW134720   7.702   3.731  10.669  0.0454 -1.6399  1.5449
10376SOL    HW234721   7.853   3.732  10.669  0.1279  1.2604 -0.4613
10377SOL     OW34722   7.592   6.015   0.706  0.0415  0.5343  0.1728
10377SOL    HW134723   7.503   6.017   0.742 -1.3801  0.1814 -2.8942
10377SOL    HW234724   7.615   5.922   0.706 -0.3559  0.4230 -0.5718
10378SOL     OW34725  10.811   4.367   6.679 -0.2787  0.0191 -0.0262
10378SOL    HW134726  10.775   4.282   6.654 -1.9911  0.4449  0.8507
10378SOL    HW234727  10.887   4.345   6.734  0.0306 -0.9139 -0.7930
10379SOL     OW34728   7.100   4.599   9.869  0.4011 -0.1385 -0.1233
10379SOL    HW134729   7.113   4.581   9.776  0.4023 -2.6356  0.2901
10379SOL    HW234730   7.018   4.647   9.873  0.1449 -0.4385 -1.3828
10380SOL     OW34731   8.415   2.292   3.199 -0.1161 -0.1549 -0.0066
10380SOL    HW134732   8.364   2.368   3.224  1.5351  0.8403  0.4962
10380SOL    HW234733   8.406   2.287   3.104 -1.1284 -0.0145  0.0715
10381SOL     OW34734   5.960   3.190   1.276 -0.0706  0.1135  0.2993
10381SOL    HW134735   5.930   3.259   1.335 -0.0133 -0.7292  1.3599
10381SOL    HW234736   5.891   3.124   1.279  0.1010 -0.0972 -0.3079
10382SOL     OW34737   4.459   0.683   2.063 -0.8134 -0.1448 -0.0252
10382SOL    HW134738   4.478   0.729   1.981 -0.3449  0.0343  0.1820
10382SOL    HW234739   4.399   0.613   2.038 -0.4021 -0.3038 -0.5794
10383SOL     OW34740   8.484   8.408   8.524 -0.2257  0.3124  0.4144
10383SOL    HW134741   8.494   8.501   8.503 -0.6758  1.0286  2.9517
10383SOL    HW234742   8.559   8.388   8.580 -0.3077 -0.7561  0.1601
10384SOL     OW34743   7.594   7.626   0.661  0.5569 -0.3131 -0.6190
10384SOL    HW134744   7.590   7.659   0.571 -0.5718 -1.6908 -1.1221
10384SOL    HW234745   7.613   7.533   0.651  0.5358 -0.4588  0.5717
10385SOL     OW34746   1.394   4.408   7.838  0.4544 -0.1253 -0.1415
10385SOL    HW134747   1.330   4.399   7.909  3.0590  1.8788  2.7302
10385SOL    HW234748   1.447   4.329   7.844  0.5264 -0.0670 -0.0063
10386SOL     OW34749   0.665  10.229   4.805 -0.3469 -0.2609 -0.3214
10386SOL    HW134750   0.718  10.154   4.779 -0.5780  0.0970 -1.9870
10386SOL    HW234751   0.728  10.291   4.842  0.0700 -0.7023 -0.2783
10387SOL     OW34752   0.292   3.297  10.899  0.1307  0.7341 -0.5299
10387SOL    HW134753   0.288   3.272  10.992  1.8065  0.5797 -0.4588
10387SOL    HW234754   0.265   3.218  10.852  0.7641  0.3072 -0.1930
10388SOL     OW34755   9.654   7.692   2.159 -0.0765 -0.1826  0.2349
10388SOL    HW134756   9.687   7.604   2.139 -0.2746 -0.1456 -0.2877
10388SOL    HW234757   9.730   7.749   2.150 -0.5638  0.1766 -2.8418
10389SOL     OW34758   6.163   8.220   7.227 -0.1932  0.0925  0.1458
10389SOL    HW134759   6.244   8.170   7.243 -0.4639 -0.2521  0.4678
10389SOL    HW234760   6.150   8.270   7.307 -1.3346 -1.3294  0.9053
10390SOL     OW34761   2.957   5.116  10.203  0.1182 -0.2271 -0.0968
10390SOL    HW134762   3.038   5.068  10.187  0.7480  0.6684  0.3437
10390SOL    HW234763   2.919   5.073  10.280 -0.4523 -1.4147 -1.0106
10391SOL     OW34764   7.539   6.489   1.431 -0.3766 -0.8368 -0.2495
10391SOL    HW134765   7.607   6.447   1.485  0.6960 -1.3663 -1.9504
10391SOL    HW234766   7.533   6.578   1.466  0.1246 -1.2145  0.8704
10392SOL     OW34767   3.757  10.560   4.534  0.2520  0.4696  0.3716
10392SOL    HW134768   3.805  10.600   4.461  0.3476  1.8949  1.1639
10392SOL    HW234769   3.824  10.511   4.582  0.9880  2.3755  1.4225
10393SOL     OW34770   4.027   4.314   9.129  0.9420 -0.4500  0.0820
10393SOL    HW134771   4.086   4.345   9.197 -0.4894 -0.9118  1.5828
10393SOL    HW234772   4.031   4.381   9.061  2.0621  0.2468  0.8073
10394SOL     OW34773   8.411   5.260   9.388 -0.2735  0.4738  0.3207
10394SOL    HW134774   8.487   5.242   9.444  0.7444 -0.0947 -1.1634
10394SOL    HW234775   8.342   5.288   9.449  1.5869  2.6630  1.6186
10395SOL     OW34776   6.138   1.199   1.113 -0.7699 -0.4022  0.0847
10395SOL    HW134777   6.194   1.260   1.066 -0.2604 -1.2639 -0.4479
10395SOL    HW234778   6.179   1.191   1.199  0.0229 -1.1490 -0.3542
10396SOL     OW34779   2.486   5.148   2.896 -0.5577 -0.1010  0.1117
10396SOL    HW134780   2.544   5.213   2.936  3.0914 -2.4129 -0.8873
10396SOL    HW234781   2.438   5.196   2.829  0.8076  1.8495  0.4544
10397SOL     OW34782   8.405   7.398   4.898  0.0843 -0.3015  0.1927
10397SOL    HW134783   8.494   7.398   4.934  0.6800 -0.3888 -1.2221
10397SOL    HW234784   8.349   7.380   4.973  1.3719 -1.6230  0.8846
10398SOL     OW34785   4.652   9.625   4.014  0.5859  0.3968  0.2391
10398SOL    HW134786   4.577   9.681   3.997  2.0397  2.5289  0.4700
10398SOL    HW234787   4.617   9.554   4.068 -1.2616  1.2832  0.2769
10399SOL     OW34788   8.865   2.436   0.348  0.0862 -0.6631 -0.0529
10399SOL    HW134789   8.826   2.394   0.271  0.1660  0.3954 -0.6966
10399SOL    HW234790   8.834   2.526   0.343 -0.0904 -0.6395  1.3007
10400SOL     OW34791   9.946   2.675   6.702 -0.3361  0.2729  0.1618
10400SOL    HW134792   9.861   2.719   6.695 -1.2358 -1.5073 -0.9421
10400SOL    HW234793   9.926   2.593   6.748  0.8268 -0.0958  0.0388
10401SOL     OW34794   8.585   7.867   3.500 -0.4268 -0.0611 -0.4805
10401SOL    HW134795   8.662   7.924   3.496 -1.1081  0.8619 -0.6246
10401SOL    HW234796   8.528   7.898   3.430 -0.4767 -1.4373 -1.0845
10402SOL     OW34797   8.025   6.788   7.719 -0.7130  0.4041 -0.5657
10402SOL    HW134798   8.020   6.867   7.664 -0.0578 -0.0110 -1.2493
10402SOL    HW234799   8.066   6.818   7.800  1.0359  0.4875 -1.4381
10403SOL     OW34800   5.315   5.123   4.825  0.3552 -0.0970 -0.0221
10403SOL    HW134801   5.311   5.046   4.882 -0.4480 -1.2380 -1.5425
10403SOL    HW234802   5.400   5.116   4.781  0.5248  0.2058  0.2534
10404SOL     OW34803   8.408   2.593   5.321  0.1027 -0.2430  0.4513
10404SOL    HW134804   8.480   2.530   5.328 -0.8733 -1.6611 -1.4041
10404SOL    HW234805   8.448   2.678   5.342  2.1683 -1.0707  0.0543
10405SOL     OW34806   4.041   9.064   8.588 -0.0564  0.0338 -0.1144
10405SOL    HW134807   4.136   9.069   8.598  0.0471 -2.7511  1.6077
10405SOL    HW234808   4.028   9.009   8.511 -0.1759 -1.1411  0.7196
10406SOL     OW34809   1.145   2.629  10.023 -0.1178  0.2767  0.2507
10406SOL    HW134810   1.090   2.618   9.946  0.0554  1.3598 -0.0393
10406SOL    HW234811   1.130   2.550  10.075  0.1785 -0.7341 -1.1492
10407SOL     OW34812   2.418   1.299   3.284 -0.2385 -0.2311  0.2814
10407SOL    HW134813   2.449   1.214   3.253  2.9103  0.1242  1.9664
10407SOL    HW234814   2.372   1.280   3.365  0.0782 -0.3709  0.4291
10408SOL     OW34815   5.919   9.808   6.808 -0.3527 -0.5134  0.4346
10408SOL    HW134816   5.987   9.746   6.778  0.1437 -1.3453  3.0179
10408SOL    HW234817   5.957   9.894   6.793  0.7062 -0.9420  0.5659
10409SOL     OW34818   0.110   3.411   0.301 -0.5245 -0.0716 -0.5884
10409SOL    HW134819   0.034   3.426   0.357 -0.3621  0.0920 -0.4127
10409SOL    HW234820   0.081   3.343   0.240 -0.4390 -0.8339  0.2054
10410SOL     OW34821   3.414   3.983   6.775 -0.0275  0.4747  0.3043
10410SOL    HW134822   3.328   3.961   6.739 -0.2739  2.8878 -0.7650
10410SOL    HW234823   3.396   4.007   6.866 -0.4667  0.7602  0.1461
10411SOL     OW34824  10.810  10.269   8.339 -0.2692  0.1318  0.7912
10411SOL    HW134825  10.872  10.232   8.403 -0.2554  0.9672  1.2839
10411SOL    HW234826  10.849  10.353   8.316 -0.0628 -0.3449 -0.6568
10412SOL     OW34827   6.828   8.039   0.370 -0.1219 -0.0106 -0.3080
10412SOL    HW134828   6.874   8.074   0.294  0.1754  0.7127  0.2008
10412SOL    HW234829   6.832   7.944   0.357  2.2467 -0.0370  0.1179
10413SOL     OW34830   1.456   3.158   7.897  0.4603  0.1893  0.2884
10413SOL    HW134831   1.515   3.111   7.838 -2.1543 -0.1561 -2.2947
10413SOL    HW234832   1.380   3.101   7.905 -0.9319  1.9947  0.7153
10414SOL     OW34833   9.200   5.857   7.117 -0.3845 -0.4165 -1.1387
10414SOL    HW134834   9.118   5.895   7.087 -0.2731 -0.9846 -2.2132
10414SOL    HW234835   9.188   5.762   7.106 -0.3933 -0.6861  0.8098
10415SOL     OW34836   7.049   6.961   4.578 -0.0433  0.0652  0.0356
10415SOL    HW134837   7.054   7.052   4.605 -0.5155  0.0873  0.0598
10415SOL    HW234838   7.140   6.933   4.571  0.1035  0.5876 -0.1547
10416SOL     OW34839   2.358   4.875   3.878  0.2282 -0.5090  0.3211
10416SOL    HW134840   2.444   4.898   3.911  0.5369 -0.5096 -0.4773
10416SOL    HW234841   2.363   4.888   3.784 -0.1295 -2.0699  0.0474
10417SOL     OW34842   8.198   6.204   2.318 -0.1446 -0.2587  0.2110
10417SOL    HW134843   8.221   6.248   2.400 -0.4827  0.8498 -0.2723
10417SOL    HW234844   8.110   6.170   2.333 -1.4371  2.4706 -0.6272
10418SOL     OW34845   3.688   4.484   3.090  0.4143 -0.7480 -0.0134
10418SOL    HW134846   3.721   4.484   3.001  2.6363 -2.3072  0.7460
10418SOL    HW234847   3.743   4.548   3.136  1.0977 -1.9009  0.8161
10419SOL     OW34848   3.315   7.429   8.244  0.3495  0.3369 -0.1889
10419SOL    HW134849   3.262   7.395   8.316  1.3058 -1.5594 -0.3210
10419SOL    HW234850   3.396   7.457   8.286  0.8699 -0.6828 -0.4986
10420SOL     OW34851   9.776   9.699   8.781 -0.2020 -0.2453  0.2461
10420SOL    HW134852   9.823   9.624   8.746 -1.7920 -1.9199  1.5095
10420SOL    HW234853   9.787   9.693   8.876 -1.0675  0.6241  0.4301
10421SOL     OW34854   7.607   3.200   3.178 -0.0862 -0.0670  0.7087
10421SOL    HW134855   7.609   3.287   3.139 -0.7439  0.4692  1.8293
10421SOL    HW234856   7.541   3.206   3.248 -0.7571 -1.7026  0.2545
10422SOL     OW34857   0.582   8.148   8.879  0.0703  0.2425 -0.0155
10422SOL    HW134858   0.626   8.194   8.950 -0.5813  4.7870 -2.1750
10422SOL    HW234859   0.518   8.211   8.846 -1.5753 -2.6348 -2.8870
10423SOL     OW34860   8.951   0.287   3.151 -0.0836 -0.2779 -0.1397
10423SOL    HW134861   8.933   0.378   3.130  1.8764 -0.0035 -0.9073
10423SOL    HW234862   8.995   0.290   3.235 -1.3581 -0.6868  0.5624
10424SOL     OW34863   8.397   8.533   3.007  0.2703 -0.3025  0.5937
10424SOL    HW134864   8.459   8.599   2.979  1.8080 -1.2876  1.5409
10424SOL    HW234865   8.378   8.482   2.928 -0.2428  0.6941  0.0583
10425SOL     OW34866   1.829   7.516   0.653 -0.0630  0.2644  0.1971
10425SOL    HW134867   1.913   7.560   0.666 -0.2563  0.7910 -0.3200
10425SOL    HW234868   1.763   7.581   0.676 -0.3409 -0.0373  0.2662
10426SOL     OW34869   4.548   1.733   2.767  0.1830 -0.3966  0.0301
10426SOL    HW134870   4.588   1.656   2.726 -0.6067 -2.2195  2.4163
10426SOL    HW234871   4.471   1.751   2.714  0.5537 -1.0380 -0.7520
10427SOL     OW34872   7.156   7.992   3.614 -0.0434 -0.5930 -0.2975
10427SOL    HW134873   7.129   7.901   3.618  0.4080 -0.7364 -0.3950
10427SOL    HW234874   7.100   8.037   3.677  0.2741 -1.0815  0.3395
10428SOL     OW34875   3.177   5.168   9.276  0.0024  0.0171  0.7600
10428SOL    HW134876   3.260   5.125   9.297 -0.5344 -0.4533  2.0700
10428SOL    HW234877   3.136   5.113   9.209  0.8124  0.3487 -0.0188
10429SOL     OW34878  10.619   4.321   9.212  0.1468  0.1517 -0.3848
10429SOL    HW134879  10.690   4.259   9.200 -1.0104 -1.4572  0.7234
10429SOL    HW234880  10.635   4.360   9.298 -0.7526 -0.8559  0.2561
10430SOL     OW34881   6.607  10.337  11.041 -0.0263  0.0863 -0.1197
10430SOL    HW134882   6.578  10.429  11.041 -1.6093 -0.3832 -0.5326
10430SOL    HW234883   6.593  10.308  10.951  1.2389 -0.3554 -0.1945
10431SOL     OW34884   8.282   8.310   0.429 -0.3985  0.0705 -0.0221
10431SOL    HW134885   8.270   8.382   0.491 -0.9179 -0.1013  0.0773
10431SOL    HW234886   8.377   8.303   0.420 -0.3413  0.8823 -0.1675
10432SOL     OW34887   1.361   6.728   1.024 -0.6218  0.1461  0.1184
10432SOL    HW134888   1.330   6.640   1.045 -0.6632  0.5689  1.9983
10432SOL    HW234889   1.400   6.720   0.937  1.6791 -2.3330  1.2449
10433SOL     OW34890   2.187   7.487   5.257  0.6285 -0.3249  0.1077
10433SOL    HW134891   2.142   7.570   5.271 -0.2671 -0.6737 -0.6191
10433SOL    HW234892   2.230   7.497   5.172 -0.5561 -1.0476 -0.6008
10434SOL     OW34893   5.050   6.007   5.621  0.0702 -0.4623  0.2070
10434SOL    HW134894   5.041   5.941   5.552 -0.1976  0.1909 -0.3975
10434SOL    HW234895   5.139   5.995   5.654  0.8822  0.4370 -1.5479
10435SOL     OW34896   3.523   4.406  10.235  0.5046 -0.4835 -0.1900
10435SOL    HW134897   3.508   4.442  10.148 -0.6620 -0.3694  0.0431
10435SOL    HW234898   3.524   4.482  10.293  1.1648 -0.5682 -0.0811
10436SOL     OW34899  10.047   1.690  10.492 -0.1343  0.4956 -0.2839
10436SOL    HW134900  10.033   1.743  10.570  1.4263  1.3823 -0.5625
10436SOL    HW234901  10.021   1.601  10.518 -1.9301  1.1964  0.4656
10437SOL     OW34902   0.618  10.586   0.530  0.2066  0.1300  0.0358
10437SOL    HW134903   0.583  10.654   0.587 -0.9858 -0.5212  0.1340
10437SOL    HW234904   0.591  10.613   0.442 -0.2993 -0.2128  0.0787
10438SOL     OW34905  10.982   3.264   6.964 -0.3259  0.2688 -0.9682
10438SOL    HW134906  10.924   3.191   6.987 -0.1354 -0.1531 -1.7956
10438SOL    HW234907  11.061   3.248   7.016 -0.3592 -0.0103 -1.0015
10439SOL     OW34908   7.276   0.376   4.362  0.4969  0.1631  0.0486
10439SOL    HW134909   7.271   0.465   4.328  0.3617  0.1833  0.1225
10439SOL    HW234910   7.241   0.382   4.451 -2.0784 -0.4635 -0.8430
10440SOL     OW34911   3.953   7.127   5.316 -0.4948 -0.3571 -0.0454
10440SOL    HW134912   3.925   7.192   5.251 -0.3812 -0.5029 -0.2414
10440SOL    HW234913   4.038   7.159   5.346 -1.7738  1.2565  2.1355
10441SOL     OW34914   9.542   8.388   1.488 -0.2035 -0.1455  0.0656
10441SOL    HW134915   9.602   8.338   1.543 -0.5201  0.2006  0.7338
10441SOL    HW234916   9.588   8.398   1.405 -0.0081 -1.2816  0.0177
10442SOL     OW34917   8.038  10.653   2.257  0.5309 -1.1208  0.0460
10442SOL    HW134918   8.033  10.636   2.163 -1.2297  1.0399 -0.3331
10442SOL    HW234919   7.952  10.628   2.291 -0.3580  1.7951  0.2825
10443SOL     OW34920   5.585   3.529  10.222  0.0174 -0.2117  0.5309
10443SOL    HW134921   5.587   3.435  10.240 -2.7647 -0.0375  2.4417
10443SOL    HW234922   5.551   3.535  10.133  0.3093 -1.0119  0.3514
10444SOL     OW34923   3.051   4.394   7.739 -0.1174  0.5314  0.1407
10444SOL    HW134924   3.094   4.351   7.814  1.0349  0.5499 -0.4806
10444SOL    HW234925   3.124   4.428   7.687 -0.9098  0.6747 -0.8955
10445SOL     OW34926   5.035   8.051   9.765  0.1428  0.3502 -0.6083
10445SOL    HW134927   5.018   8.143   9.745 -1.1721  0.0951 -0.7273
10445SOL    HW234928   4.955   8.006   9.739 -0.8357 -0.3250  3.0923
10446SOL     OW34929   6.510   3.586   9.869 -0.5796  0.1935  0.2960
10446SOL    HW134930   6.493   3.591   9.963 -1.0509  0.5059  0.2020
10446SOL    HW234931   6.490   3.674   9.837 -2.0690 -0.3310 -0.3458
10447SOL     OW34932   0.211  10.220   4.631 -0.0543 -0.2448 -0.3347
10447SOL    HW134933   0.215  10.134   4.590 -0.1035 -0.5912  0.3839
10447SOL    HW234934   0.294  10.262   4.608  0.5408 -0.9911  0.4335
10448SOL     OW34935   8.928  10.324   9.924  0.2587 -0.2318  0.1257
10448SOL    HW134936   8.874  10.339  10.002  1.2126 -1.8684  1.1676
10448SOL    HW234937   8.994  10.261   9.953  1.3357 -0.0179 -1.7254
10449SOL     OW34938   4.622   3.801   1.696  0.2384 -0.2737  0.0833
10449SOL    HW134939   4.553   3.771   1.755  0.3369 -0.7519 -0.0446
10449SOL    HW234940   4.681   3.851   1.753 -0.0143 -0.1717  0.2623
10450SOL     OW34941   2.608   0.387   8.924  0.0000 -0.1285  0.0269
10450SOL    HW134942   2.614   0.474   8.964  1.4060 -0.1069 -0.1679
10450SOL    HW234943   2.517   0.361   8.937  0.0552  0.4571  2.0065
10451SOL     OW34944   2.006   3.789   8.940 -0.3333 -0.4443 -0.1539
10451SOL    HW134945   1.967   3.728   8.877  1.4077 -0.8198 -0.9250
10451SOL    HW234946   2.061   3.846   8.887  0.6905 -0.3701  0.9564
10452SOL     OW34947   0.165   5.583   7.741 -0.3680 -0.3914  0.6245
10452SOL    HW134948   0.251   5.553   7.713  0.2127  1.0849  0.7284
10452SOL    HW234949   0.106   5.553   7.672 -0.0284 -2.5527  1.1865
10453SOL     OW34950   7.094   0.745   1.931 -0.4437  0.6427  0.1554
10453SOL    HW134951   7.111   0.710   1.844  0.0078 -0.2496  0.5966
10453SOL    HW234952   6.999   0.756   1.935 -0.3546  2.1908 -1.0045
10454SOL     OW34953   0.091   0.126  10.417  0.0003 -0.4213  0.0072
10454SOL    HW134954   0.034   0.121  10.493 -2.0727  0.3180 -1.4011
10454SOL    HW234955   0.063   0.052  10.362  0.4198 -0.0777 -0.6871
10455SOL     OW34956   1.860   8.026   2.697  1.2739  0.3934  0.0924
10455SOL    HW134957   1.860   8.014   2.792 -0.9443  1.4070  0.2605
10455SOL    HW234958   1.885   8.117   2.684  0.2158  0.6464 -0.2160
10456SOL     OW34959   5.251   5.147   9.460  0.1731 -0.3927  0.3063
10456SOL    HW134960   5.276   5.239   9.462  0.1498  0.1308 -5.3325
10456SOL    HW234961   5.329   5.099   9.487  0.3255  1.1497  2.9051
10457SOL     OW34962   4.198   7.088   0.228  0.2581 -0.6893  0.2799
10457SOL    HW134963   4.257   7.154   0.193  1.2183 -0.6182  1.9131
10457SOL    HW234964   4.147   7.136   0.294 -0.2878 -1.1882  0.2232
10458SOL     OW34965  10.605  10.839  10.947  0.5620  0.4056 -0.5766
10458SOL    HW134966  10.571  10.754  10.919  0.8068  0.3058 -0.5745
10458SOL    HW234967  10.588  10.841  11.041  2.9766 -0.8054 -0.0451
10459SOL     OW34968   0.298   0.271   5.975  0.0683  0.1811 -0.3646
10459SOL    HW134969   0.342   0.346   5.935 -0.2965  0.4408 -0.2750
10459SOL    HW234970   0.361   0.199   5.966  0.3752  0.4714 -0.5422
10460SOL     OW34971   7.141   6.208   7.999 -0.2938 -0.2401  0.1250
10460SOL    HW134972   7.222   6.195   8.048  0.9519 -0.4726 -1.8891
10460SOL    HW234973   7.152   6.293   7.955 -0.1833 -1.1993 -1.8223
10461SOL     OW34974   6.258   8.875   7.814 -0.9811 -0.3997  0.1273
10461SOL    HW134975   6.226   8.962   7.788 -0.9800  0.0468  1.5124
10461SOL    HW234976   6.331   8.858   7.756 -0.4857  0.8954  0.3293
10462SOL     OW34977   9.357   3.767  10.478 -0.7049  0.0382 -0.1293
10462SOL    HW134978   9.401   3.682  10.465 -0.8370 -0.1818  0.7711
10462SOL    HW234979   9.427   3.826  10.505 -0.9441 -0.3745  1.5632
10463SOL     OW34980   9.005   4.839   0.812 -0.1201 -0.2082 -0.4277
10463SOL    HW134981   8.985   4.876   0.726  0.5285 -0.8652 -0.8782
10463SOL    HW234982   8.953   4.759   0.816  0.5862 -0.6830 -0.6180
10464SOL     OW34983   4.517   5.889   6.451  0.3406  0.4280  0.5733
10464SOL    HW134984   4.470   5.918   6.530 -0.5277 -0.3690  0.3746
10464SOL    HW234985   4.462   5.819   6.415  1.6084 -0.4323  0.2307
10465SOL     OW34986   7.722   9.209   6.871 -0.4747 -0.4891 -0.4905
10465SOL    HW134987   7.637   9.254   6.868 -0.7037 -0.9060 -0.3656
10465SOL    HW234988   7.716   9.144   6.801 -1.6079 -2.8580  1.6371
10466SOL     OW34989   3.198   0.160  11.091 -0.1334  0.6534 -0.1787
10466SOL    HW134990   3.142   0.083  11.085  1.1395 -0.3121 -0.1565
10466SOL    HW234991   3.211   0.188  11.001 -2.1874  2.0675 -0.0794
10467SOL     OW34992   3.616   3.128   2.836  0.7005  0.7645  0.1938
10467SOL    HW134993   3.551   3.058   2.825 -0.0703  1.1450  1.9479
10467SOL    HW234994   3.674   3.119   2.761 -1.3670  0.4127 -1.4552
10468SOL     OW34995   5.164   6.281  10.952  0.4553 -0.1794 -0.0250
10468SOL    HW134996   5.186   6.199  10.998  1.4330  1.0039  1.7404
10468SOL    HW234997   5.181   6.349  11.017 -1.0195  1.3971 -1.2287
10469SOL     OW34998   1.852   4.154   9.049  0.5213 -0.2479  0.6495
10469SOL    HW134999   1.799   4.210   9.106  0.6151  1.2965 -0.7102
10469SOL    HW235000   1.888   4.088   9.108 -0.8901  0.1629  2.0363
10470SOL     OW35001   4.556   5.008   8.904 -0.2884 -0.2610  0.3088
10470SOL    HW135002   4.554   5.084   8.962  0.3242 -1.2766  1.7234
10470SOL    HW235003   4.594   5.041   8.822  1.0303  0.7195  1.2814
10471SOL     OW35004   0.351   8.358   4.028 -0.6553  0.0180  0.2162
10471SOL    HW135005   0.320   8.413   4.100 -0.1629  0.5124  0.0527
10471SOL    HW235006   0.346   8.414   3.951  1.9145  0.5907  0.3778
10472SOL     OW35007   2.576   2.068  10.088  0.2255  0.2698 -0.3310
10472SOL    HW135008   2.548   2.121  10.162  0.2864 -0.7065  0.4149
10472SOL    HW235009   2.526   1.986  10.096  0.4095  0.0538 -1.2277
10473SOL     OW35010   6.910   9.056   7.471  0.2966 -0.3074 -0.1592
10473SOL    HW135011   6.991   9.106   7.464  0.2021 -0.3846 -2.5511
10473SOL    HW235012   6.849   9.115   7.516  0.7414  1.0435 -1.2479
10474SOL     OW35013   2.389   2.047  10.504 -0.8750 -0.4098  0.2213
10474SOL    HW135014   2.345   2.059  10.588  0.1107 -0.3824  0.7454
10474SOL    HW235015   2.420   1.956  10.506  0.0977 -0.0871  0.3588
10475SOL     OW35016   1.996   0.061   7.284 -0.6791  0.5025  0.5837
10475SOL    HW135017   2.092   0.058   7.279 -0.7359  1.0871 -1.0562
10475SOL    HW235018   1.969  -0.029   7.265 -0.5006  0.6031 -0.1522
10476SOL     OW35019   4.844   0.373   0.811 -0.3741  0.2608  0.0366
10476SOL    HW135020   4.912   0.305   0.810 -0.1493  0.4813  0.1972
10476SOL    HW235021   4.881   0.443   0.865 -0.6293  0.4866 -0.0791
10477SOL     OW35022   6.978   3.047   9.751  0.0429  0.4093 -0.1156
10477SOL    HW135023   7.067   3.017   9.769  0.8888  2.5039 -0.5953
10477SOL    HW235024   6.927   3.018   9.826  1.4433  0.4732  0.8841
10478SOL     OW35025   3.521   5.216   5.611  0.4057  0.0464 -0.0688
10478SOL    HW135026   3.467   5.137   5.610  0.4001  0.0200  0.9188
10478SOL    HW235027   3.459   5.288   5.598  0.4748 -0.1212 -1.4933
10479SOL     OW35028   9.385   6.327   2.848 -0.4218 -0.6729  0.4038
10479SOL    HW135029   9.453   6.272   2.887 -0.8951  0.5795  3.3144
10479SOL    HW235030   9.432   6.401   2.810 -0.0420 -0.8542  0.5183
10480SOL     OW35031   4.476   3.563   8.674  0.4263  0.3003 -0.1800
10480SOL    HW135032   4.473   3.511   8.754 -0.9681  0.1401 -0.3029
10480SOL    HW235033   4.528   3.639   8.697 -0.7487  0.7433  1.2045
10481SOL     OW35034   7.366   3.404   3.813  0.4089 -0.4342  0.1156
10481SOL    HW135035   7.344   3.357   3.732  0.4912 -0.6510  0.2207
10481SOL    HW235036   7.407   3.485   3.783 -0.5106 -0.0245 -0.0922
10482SOL     OW35037   6.483   6.944  10.153 -0.2242 -0.3114 -0.7553
10482SOL    HW135038   6.505   7.027  10.111 -2.1915  0.7549  0.1689
10482SOL    HW235039   6.397   6.959  10.192  0.0089 -2.3319  0.7063
10483SOL     OW35040   0.803   1.249   9.041  0.0607 -0.0230  0.6668
10483SOL    HW135041   0.835   1.164   9.010  0.1269 -0.7773  2.7137
10483SOL    HW235042   0.851   1.312   8.987  0.5305 -1.2397 -0.4165
10484SOL     OW35043   3.502   7.242   9.163 -0.2326 -0.0632  0.2945
10484SOL    HW135044   3.564   7.222   9.092  0.4033  1.9513  0.1900
10484SOL    HW235045   3.436   7.298   9.122 -2.5661 -2.6411  0.2690
10485SOL     OW35046   6.758   9.583   2.438 -0.0628 -0.0762  0.0547
10485SOL    HW135047   6.788   9.670   2.412 -0.3870 -0.0712 -0.3087
10485SOL    HW235048   6.768   9.582   2.533  2.3952 -0.5752 -0.1511
10486SOL     OW35049   6.985   9.948   4.354 -0.4927 -0.1246 -0.3825
10486SOL    HW135050   6.942  10.015   4.408  1.2587  1.7917 -1.2323
10486SOL    HW235051   6.958   9.967   4.265 -0.3888 -0.9054 -0.5898
10487SOL     OW35052   5.717   9.260  10.654 -0.3336 -0.2977  0.1193
10487SOL    HW135053   5.812   9.266  10.645 -0.3561  1.8901  0.9167
10487SOL    HW235054   5.704   9.229  10.744 -0.3871 -0.6329 -0.0023
10488SOL     OW35055   7.808   9.718   0.641  0.1288 -0.4748  0.2613
10488SOL    HW135056   7.754   9.733   0.563 -0.6747  1.1589  1.0705
10488SOL    HW235057   7.811   9.623   0.650 -0.6130 -0.6660 -1.1756
10489SOL     OW35058  10.451   3.441   7.265 -0.0633 -0.6464 -0.6089
10489SOL    HW135059  10.433   3.497   7.341  0.7344 -0.0365 -0.8459
10489SOL    HW235060  10.527   3.389   7.291  0.2202 -0.4256 -0.9922
10490SOL     OW35061   8.621   1.192   9.655 -0.4059 -0.0865 -0.0760
10490SOL    HW135062   8.674   1.241   9.718 -0.5837  1.3070 -0.9650
10490SOL    HW235063   8.684   1.155   9.594 -0.3580  0.2223 -0.2134
10491SOL     OW35064   2.078   8.571   6.771 -0.1942  0.4255  0.0537
10491SOL    HW135065   2.111   8.646   6.821  1.7535 -0.7145  0.5762
10491SOL    HW235066   1.990   8.597   6.745  0.5721  3.0780 -0.1755
10492SOL     OW35067   1.954  10.419   0.691 -0.5554  0.4392 -0.2787
10492SOL    HW135068   2.006  10.392   0.767 -1.5515 -0.2418  0.1869
10492SOL    HW235069   1.864  10.395   0.714 -0.6799 -1.4495 -2.3748
10493SOL     OW35070   7.878   6.924   2.033  0.2528  0.0307  0.2922
10493SOL    HW135071   7.956   6.884   1.995  0.7078  0.3865  0.8336
10493SOL    HW235072   7.819   6.850   2.050  0.8454 -0.3435  0.7400
10494SOL     OW35073   6.383   3.804   6.709  0.1126  0.1519  0.2741
10494SOL    HW135074   6.437   3.788   6.787 -1.4999  2.6691  2.0510
10494SOL    HW235075   6.434   3.866   6.657  1.4275 -1.9236 -1.0672
10495SOL     OW35076   3.888   8.633   5.781 -0.4937 -0.1345 -0.3465
10495SOL    HW135077   3.859   8.613   5.870  0.6399 -1.1303 -0.1701
10495SOL    HW235078   3.815   8.608   5.726 -1.6122  1.4405  0.3433
10496SOL     OW35079   1.351   4.082   1.658  0.4557  0.1827 -0.6667
10496SOL    HW135080   1.312   4.024   1.724 -1.5656 -0.2648 -2.1423
10496SOL    HW235081   1.439   4.048   1.645  0.1374 -1.0670  0.2232
10497SOL     OW35082   0.240   1.669   2.354 -0.3604 -0.5902  0.0444
10497SOL    HW135083   0.302   1.596   2.350 -0.8085 -1.1072  1.8162
10497SOL    HW235084   0.161   1.632   2.395 -0.6725  0.8296  0.7914
10498SOL     OW35085   0.764   1.118   4.881  0.0840 -0.0209  0.4850
10498SOL    HW135086   0.836   1.171   4.915 -0.1642  0.2374  0.6060
10498SOL    HW235087   0.780   1.030   4.916  0.2753  0.0617  0.6045
10499SOL     OW35088  10.819   5.386   1.462 -0.2775  0.2249  0.2870
10499SOL    HW135089  10.813   5.291   1.464  0.1130  0.1380 -1.2236
10499SOL    HW235090  10.733   5.415   1.432  0.0174  0.2456 -0.5760
10500SOL     OW35091   9.097   8.450  11.018 -0.7900 -0.2052  0.5299
10500SOL    HW135092   9.113   8.449  10.923  0.5933  0.2486  0.7338
10500SOL    HW235093   9.007   8.481  11.027 -0.6947  0.4730 -0.6227
10501SOL     OW35094   8.665   5.847   7.853 -0.1210 -0.0485 -0.4566
10501SOL    HW135095   8.596   5.800   7.900 -0.2317 -0.3226 -0.8823
10501SOL    HW235096   8.746   5.802   7.878 -0.3523 -1.3436 -1.8705
10502SOL     OW35097   8.388  10.386  11.074  0.3884  0.0952 -0.5289
10502SOL    HW135098   8.456  10.327  11.039  0.9546 -1.8415  3.3414
10502SOL    HW235099   8.319  10.327  11.105  0.2856  1.5188  2.1350
10503SOL     OW35100   2.276  10.572   2.287  0.2241 -0.5122 -0.4578
10503SOL    HW135101   2.346  10.539   2.230 -1.2333  0.2320 -2.8379
10503SOL    HW235102   2.213  10.501   2.291 -0.5035  0.0637 -1.2946
10504SOL     OW35103   8.187   8.310   9.565 -0.2684 -0.0437 -0.2858
10504SOL    HW135104   8.276   8.321   9.532  0.2015  0.8449  1.1508
10504SOL    HW235105   8.174   8.215   9.567  0.9212 -0.2130  0.1321
10505SOL     OW35106   9.749   5.011   1.366 -0.1475 -0.3272  0.4347
10505SOL    HW135107   9.711   4.978   1.447 -0.5299  0.0942  0.4322
10505SOL    HW235108   9.676   5.050   1.319  0.2870  0.5386  0.4521
10506SOL     OW35109   1.450   8.385   1.961  0.5334  0.5372  0.1516
10506SOL    HW135110   1.414   8.458   2.011  0.1249  0.1534  0.4137
10506SOL    HW235111   1.454   8.418   1.871  1.4671  1.3034  0.4510
10507SOL     OW35112   5.279   8.695   9.669 -0.6318 -0.4331 -0.1645
10507SOL    HW135113   5.263   8.740   9.586 -1.6499 -2.2247 -1.0027
10507SOL    HW235114   5.328   8.616   9.645  0.0933 -0.3963  1.0982
10508SOL     OW35115  10.213   5.894   8.159 -0.3807 -0.2825 -0.2916
10508SOL    HW135116  10.152   5.820   8.162 -1.4472  0.6029  0.7441
10508SOL    HW235117  10.161   5.969   8.186  1.7907  0.0715  3.5795
10509SOL     OW35118   2.028   8.569   7.440  0.7051  0.2936 -0.0632
10509SOL    HW135119   1.977   8.644   7.472 -1.3433 -0.4710 -1.3726
10509SOL    HW235120   2.014   8.568   7.346  2.0507 -0.7881 -0.2891
10510SOL     OW35121  11.008   0.570  10.465 -0.8343 -0.8166 -0.1696
10510SOL    HW135122  11.003   0.477  10.444 -0.1124 -0.8508 -0.2095
10510SOL    HW235123  10.950   0.612  10.401  1.7410 -0.8367 -2.6870
10511SOL     OW35124   0.059   3.645   9.872  0.0119 -0.2845  0.3112
10511SOL    HW135125  -0.037   3.647   9.875 -0.0732 -0.0081 -1.4429
10511SOL    HW235126   0.086   3.682   9.956 -1.4432  1.9607 -0.1063
10512SOL     OW35127   5.398  10.236   3.067 -0.3274 -0.4521  0.3138
10512SOL    HW135128   5.312  10.279   3.068 -0.0960  0.0265  1.7609
10512SOL    HW235129   5.435  10.254   3.153  1.5126 -0.1097 -0.5018
10513SOL     OW35130   9.041   3.746   6.358 -0.3114 -0.1356 -0.1287
10513SOL    HW135131   8.984   3.819   6.382  1.4067  0.8125  1.2819
10513SOL    HW235132   9.066   3.764   6.267 -2.2393 -0.6115 -0.8094
10514SOL     OW35133   3.654   6.570   0.785 -0.1344 -0.2448 -0.2953
10514SOL    HW135134   3.681   6.645   0.838  2.4974 -1.9115  0.9156
10514SOL    HW235135   3.583   6.604   0.730  0.3736  2.8753  0.7714
10515SOL     OW35136   1.397   2.099   3.049  0.1879  0.1627 -0.5951
10515SOL    HW135137   1.380   2.189   3.077  0.0360 -0.0268 -0.0487
10515SOL    HW235138   1.336   2.084   2.977 -0.9386 -0.0099  0.3598
10516SOL     OW35139   7.068  10.351   4.508  0.5228  0.2794  0.2208
10516SOL    HW135140   7.105  10.313   4.429  0.6050 -0.2837  0.5273
10516SOL    HW235141   7.136  10.411   4.540  1.0777 -0.5474  0.6298
10517SOL     OW35142   5.604   2.107  10.168 -0.2596 -0.4665 -0.1876
10517SOL    HW135143   5.587   2.040  10.234 -0.5579  1.3474  1.6856
10517SOL    HW235144   5.679   2.156  10.202 -1.8399  1.9544  0.0688
10518SOL     OW35145   8.734   7.525   7.312 -0.1317 -0.0811 -0.4437
10518SOL    HW135146   8.785   7.606   7.303 -2.1215  1.1937 -0.6538
10518SOL    HW235147   8.696   7.531   7.399  2.4151 -2.5148  1.0192
10519SOL     OW35148   7.910   4.781   3.262 -0.4238  0.5530  0.3749
10519SOL    HW135149   7.831   4.796   3.314  0.7966  1.7506  2.0055
10519SOL    HW235150   7.879   4.738   3.183 -2.7611  1.4475  0.7218
10520SOL     OW35151   6.419   3.809  10.782  0.3680  0.3034 -0.0420
10520SOL    HW135152   6.403   3.741  10.716 -0.7122  1.8683 -1.4753
10520SOL    HW235153   6.419   3.762  10.865 -2.5265 -1.1978 -0.7619
10521SOL     OW35154   8.062   0.352   7.733  0.5045 -0.3886  0.0075
10521SOL    HW135155   7.976   0.394   7.731  0.5882 -0.2190 -0.1129
10521SOL    HW235156   8.099   0.370   7.646  1.3211  0.9386  0.5844
10522SOL     OW35157   1.114   3.698   6.428  0.7543  0.3451  0.5124
10522SOL    HW135158   1.042   3.672   6.370  0.7005 -1.1449  1.2120
10522SOL    HW235159   1.131   3.789   6.405 -0.8066  0.4829 -0.2471
10523SOL     OW35160  10.421   9.508   3.747 -0.0510 -0.3955 -0.0475
10523SOL    HW135161  10.490   9.504   3.814 -1.1416  1.3315  1.2594
10523SOL    HW235162  10.468   9.530   3.666  1.0770 -0.6038  0.5299
10524SOL     OW35163   4.929  10.510   4.053 -0.7968 -0.1468  0.1043
10524SOL    HW135164   4.914  10.564   4.130 -1.1629 -1.2759  0.8447
10524SOL    HW235165   4.881  10.553   3.982  0.6666  1.6701  0.1438
10525SOL     OW35166   2.182   5.494   1.465 -0.5082 -0.1168 -0.1756
10525SOL    HW135167   2.254   5.544   1.501 -0.6158  0.6155 -0.9527
10525SOL    HW235168   2.108   5.555   1.461 -0.9441 -0.6241 -0.1576
10526SOL     OW35169   4.037   3.106   0.474  0.2237  0.0049  0.0198
10526SOL    HW135170   4.024   3.056   0.554  1.9870  2.8255  2.2800
10526SOL    HW235171   3.991   3.188   0.489  0.8882  0.7563 -1.7215
10527SOL     OW35172   6.920   9.871   9.333 -0.2600  0.7656  0.3477
10527SOL    HW135173   6.956   9.852   9.247 -1.9047  0.8312 -0.4020
10527SOL    HW235174   6.863   9.947   9.319 -1.1442  0.3132  1.3130
10528SOL     OW35175   0.536   8.835   5.172  0.0146  0.0994  0.4639
10528SOL    HW135176   0.593   8.871   5.240  1.6511 -1.8723  0.2643
10528SOL    HW235177   0.449   8.832   5.211  0.1913  2.3087  1.1438
10529SOL     OW35178   9.603   6.054   8.872  0.2388 -0.0223  0.8477
10529SOL    HW135179   9.680   6.063   8.816  0.0269  2.8712  0.8571
10529SOL    HW235180   9.608   5.965   8.907  1.4428 -1.2523 -2.1657
10530SOL     OW35181   5.494   6.482   4.930 -0.3205 -0.1985  0.2351
10530SOL    HW135182   5.567   6.470   4.992 -0.5428 -0.0280  0.5364
10530SOL    HW235183   5.486   6.577   4.922 -0.1772 -0.2222 -0.1969
10531SOL     OW35184   3.287   8.475   9.614 -0.2054  0.0249 -0.3144
10531SOL    HW135185   3.322   8.386   9.614  0.7783  0.3243  1.8910
10531SOL    HW235186   3.301   8.507   9.525  1.3346 -1.3363 -0.6157
10532SOL     OW35187   2.432   8.886   7.587  0.0831  0.7039  0.0983
10532SOL    HW135188   2.381   8.809   7.612  0.2519  1.0343  1.5134
10532SOL    HW235189   2.516   8.874   7.629 -0.1585  2.0437  1.0183
10533SOL     OW35190   7.672   2.852   3.380  0.4299  0.3578  0.3724
10533SOL    HW135191   7.666   2.894   3.295 -1.5658 -0.1176  0.2440
10533SOL    HW235192   7.705   2.764   3.362 -0.0046  0.2533  0.0892
10534SOL     OW35193   0.795   1.723   5.149  0.3941 -0.2199 -0.1738
10534SOL    HW135194   0.785   1.686   5.062 -2.5213 -1.0214  0.3783
10534SOL    HW235195   0.742   1.803   5.148  1.7512  0.7451  0.4165
10535SOL     OW35196   0.315   6.379   4.072  0.0608 -0.1747 -0.1942
10535SOL    HW135197   0.405   6.369   4.040  0.4082  1.5993  0.1178
10535SOL    HW235198   0.325   6.402   4.164 -0.7816 -0.9750  0.1232
10536SOL     OW35199   1.495   7.931   8.648  0.3034  0.0982 -0.3613
10536SOL    HW135200   1.493   7.835   8.645  0.1596  0.1204 -3.1461
10536SOL    HW235201   1.543   7.957   8.569  0.6806  2.3335  0.5228
10537SOL     OW35202   4.797   2.186   1.422  0.2215  0.5268  0.2717
10537SOL    HW135203   4.819   2.100   1.387  0.7009 -0.1597  2.1104
10537SOL    HW235204   4.853   2.247   1.374 -0.0228 -0.1794 -0.9577
10538SOL     OW35205   7.071   9.562   7.421 -0.5483  0.3598 -0.3944
10538SOL    HW135206   7.028   9.610   7.350 -2.3589 -0.5724  0.0402
10538SOL    HW235207   7.164   9.583   7.410 -0.8100  0.5639 -2.8023
10539SOL     OW35208   8.099   3.161   1.766  0.7744  0.0411  0.1533
10539SOL    HW135209   8.148   3.082   1.741  0.7606 -0.3927  1.4022
10539SOL    HW235210   8.016   3.128   1.801  0.5409  0.6394  0.1808
10540SOL     OW35211   9.900   4.733   1.459 -0.0415  0.0349  0.3378
10540SOL    HW135212   9.935   4.740   1.548 -0.0881 -1.5381  0.5056
10540SOL    HW235213   9.805   4.736   1.471 -0.0392  0.3212  0.2874
10541SOL     OW35214   1.682   3.807   9.939  0.2116 -0.4735  0.3376
10541SOL    HW135215   1.613   3.748   9.910  0.2826 -0.1759 -0.4617
10541SOL    HW235216   1.679   3.881   9.877  1.5528 -0.6845 -0.0253
10542SOL     OW35217   9.373   7.532   0.393  0.4374  0.6269 -0.5108
10542SOL    HW135218   9.329   7.509   0.311  0.0120 -0.6171  0.0424
10542SOL    HW235219   9.416   7.451   0.421 -0.9254  0.4985  1.4028
10543SOL     OW35220   7.028  10.644  10.698 -0.0049  0.1500 -0.1646
10543SOL    HW135221   6.966  10.571  10.696 -1.2252  1.1440 -0.4428
10543SOL    HW235222   6.980  10.717  10.657  1.9438  0.5239 -1.9878
10544SOL     OW35223   2.387   0.356   9.735 -0.0838 -0.0095 -0.5058
10544SOL    HW135224   2.479   0.335   9.749 -0.4037 -0.9160  0.3071
10544SOL    HW235225   2.344   0.271   9.726 -0.9977  0.3767  0.1112
10545SOL     OW35226   6.655   0.168  10.735 -0.3269 -0.4782  0.6735
10545SOL    HW135227   6.726   0.156  10.673 -2.3351 -0.1103 -1.8884
10545SOL    HW235228   6.576   0.175  10.680 -2.1561  0.6919  3.2332
10546SOL     OW35229   5.775   3.962   5.271 -0.1527  0.5263 -0.1207
10546SOL    HW135230   5.799   3.983   5.361  0.1335 -0.7631  0.1272
10546SOL    HW235231   5.857   3.968   5.222 -0.0135 -0.2504  0.0069
10547SOL     OW35232   9.065   0.176   3.665 -0.4074 -0.0352 -0.2182
10547SOL    HW135233   9.152   0.215   3.676  0.7007 -1.2544 -3.5083
10547SOL    HW235234   9.032   0.165   3.754  2.5260  1.0563  1.1195
10548SOL     OW35235   8.788  10.527   7.234  0.1927 -0.7288 -0.1788
10548SOL    HW135236   8.758  10.601   7.287 -1.0760 -1.4535  0.1609
10548SOL    HW235237   8.728  10.456   7.256  0.6836 -1.5391 -1.3460
10549SOL     OW35238   8.872   4.014   6.895  0.0602  0.0046 -0.4399
10549SOL    HW135239   8.916   4.080   6.841  2.1504 -1.4701 -0.6635
10549SOL    HW235240   8.901   4.032   6.984 -0.5549  0.2669 -0.2855
10550SOL     OW35241   8.854   1.413   7.039  0.3922 -0.5609 -0.0081
10550SOL    HW135242   8.800   1.404   7.117  0.7978  2.3605  0.7147
10550SOL    HW235243   8.792   1.436   6.969  0.1848 -1.9508 -0.3114
10551SOL     OW35244  10.013   1.140   2.164 -0.0903  0.1944 -0.0188
10551SOL    HW135245   9.998   1.050   2.138 -0.1332  0.9844 -3.1780
10551SOL    HW235246  10.057   1.180   2.088  0.7392  2.6118  1.5939
10552SOL     OW35247   8.978   8.130   2.575 -0.4611  0.2274 -0.1933
10552SOL    HW135248   9.036   8.098   2.506  1.7731  0.8439  1.2974
10552SOL    HW235249   8.956   8.053   2.627  0.1863  0.2039  0.0469
10553SOL     OW35250   6.340   1.085   4.192 -0.6351  0.0578  0.2556
10553SOL    HW135251   6.369   1.053   4.277 -0.6543 -0.1247  0.1944
10553SOL    HW235252   6.337   1.180   4.202  2.5486  0.3376 -0.5257
10554SOL     OW35253  10.274   2.322   5.235  0.1398 -0.0791 -0.6234
10554SOL    HW135254  10.355   2.348   5.279 -0.5635  0.9236  0.1239
10554SOL    HW235255  10.217   2.291   5.305  0.3452 -2.1277 -1.3064
10555SOL     OW35256   0.691   8.201   1.944 -0.1065 -0.5098  0.9051
10555SOL    HW135257   0.708   8.109   1.922  1.3852 -0.5984  2.2755
10555SOL    HW235258   0.644   8.198   2.027  1.1364 -0.0384  1.6565
10556SOL     OW35259  10.671   8.754   1.672 -0.1834  0.5033 -0.3374
10556SOL    HW135260  10.729   8.799   1.733 -0.8921 -0.0349  0.7524
10556SOL    HW235261  10.719   8.675   1.647  0.0119  0.6118 -0.3104
10557SOL     OW35262   6.387   1.271   8.276  0.0579 -0.3606 -0.3984
10557SOL    HW135263   6.451   1.323   8.227 -0.4422  0.7021  0.0475
10557SOL    HW235264   6.401   1.296   8.367 -1.2175  0.1449 -0.3272
10558SOL     OW35265   9.654   9.592   1.555  0.2023  0.0691 -0.2058
10558SOL    HW135266   9.733   9.550   1.521  0.9858  1.3103  0.0354
10558SOL    HW235267   9.665   9.685   1.534 -0.5798  0.4546  1.0091
10559SOL     OW35268   0.764   4.311   5.194 -0.0919 -0.3265  0.1017
10559SOL    HW135269   0.675   4.329   5.167 -0.9408 -0.3313  2.6138
10559SOL    HW235270   0.805   4.397   5.202 -1.1561  0.0257  2.7312
10560SOL     OW35271   5.184   6.447   2.725  0.4014 -0.5128  0.0989
10560SOL    HW135272   5.258   6.437   2.665 -0.4612 -2.3837 -0.7195
10560SOL    HW235273   5.137   6.364   2.721 -2.1792  0.8326  0.0621
10561SOL     OW35274   5.629  10.750   8.757  0.7874  0.3062  0.9132
10561SOL    HW135275   5.554  10.809   8.753 -0.1908 -0.9304  0.3559
10561SOL    HW235276   5.615  10.688   8.685  1.7983 -0.5823  1.4520
10562SOL     OW35277   4.260  10.087   5.416  0.0167  0.2885 -0.3456
10562SOL    HW135278   4.326  10.082   5.485 -0.7881  0.4293  0.4504
10562SOL    HW235279   4.306  10.061   5.336  0.3115 -2.8113  0.6876
10563SOL     OW35280   3.210  10.276   6.533 -0.1113 -0.3001  0.2513
10563SOL    HW135281   3.203  10.242   6.444 -0.6424  0.2533  0.0723
10563SOL    HW235282   3.291  10.238   6.567  0.1895 -0.3788 -0.5328
10564SOL     OW35283   4.715   2.807   7.046 -0.0414  0.2945  0.1800
10564SOL    HW135284   4.635   2.856   7.067  1.4231  2.1509  1.8241
10564SOL    HW235285   4.723   2.743   7.116  1.2571  1.9215  1.5985
10565SOL     OW35286   7.960   1.497   0.443 -0.4188  0.2014 -0.5204
10565SOL    HW135287   7.892   1.560   0.464  0.5994  1.2288 -0.1781
10565SOL    HW235288   8.012   1.539   0.375 -1.3764 -1.4830 -2.4183
10566SOL     OW35289   5.553   9.512   2.596  0.2607  0.2073 -0.1784
10566SOL    HW135290   5.602   9.549   2.522  0.1939  0.9224  0.1254
10566SOL    HW235291   5.591   9.554   2.673 -0.5608  0.4575  0.0954
10567SOL     OW35292   2.205   3.767   0.400 -0.3655 -0.4899 -0.6610
10567SOL    HW135293   2.201   3.683   0.356  0.7499 -0.0254 -1.7165
10567SOL    HW235294   2.121   3.809   0.381 -0.3391 -0.7602 -1.4119
10568SOL     OW35295   0.970   7.521  10.645 -0.3437 -0.3632 -0.5646
10568SOL    HW135296   1.063   7.517  10.668 -0.0936  1.0088 -1.2294
10568SOL    HW235297   0.939   7.432  10.655  1.1834 -0.9563 -0.8570
10569SOL     OW35298   3.371   1.443  10.108 -0.1173  0.0547  0.3691
10569SOL    HW135299   3.341   1.385  10.038  1.5477 -0.3821 -0.0104
10569SOL    HW235300   3.350   1.531  10.077  0.0131 -0.1740 -0.3790
10570SOL     OW35301  10.300   8.708   4.076 -0.0045  0.8473 -0.0506
10570SOL    HW135302  10.315   8.679   4.167 -0.9323 -2.5994 -0.8605
10570SOL    HW235303  10.236   8.778   4.084  0.5897  1.2400  2.0155
10571SOL     OW35304   1.693   8.528  10.953  0.2629  0.1864 -0.2702
10571SOL    HW135305   1.723   8.506  11.041 -0.2308 -2.6654 -0.7242
10571SOL    HW235306   1.600   8.546  10.964  0.2836  0.2151 -0.1408
10572SOL     OW35307   5.006   1.458   5.404  0.7218  0.3248 -0.3161
10572SOL    HW135308   5.067   1.439   5.333  1.2482  0.4210  0.1000
10572SOL    HW235309   5.060   1.501   5.471  0.0838  0.9395 -0.1794
10573SOL     OW35310  10.822   9.373   1.661  0.2611 -0.0636 -0.0290
10573SOL    HW135311  10.896   9.326   1.623 -0.2629 -1.2057  0.2985
10573SOL    HW235312  10.837   9.465   1.640  1.1195 -0.4260 -1.0514
10574SOL     OW35313   3.314   8.347   1.822 -0.2794  0.1296 -0.3548
10574SOL    HW135314   3.338   8.410   1.754  0.7520 -1.4588 -1.5331
10574SOL    HW235315   3.395   8.330   1.870 -0.4750 -0.4967 -0.2311
10575SOL     OW35316   3.253   0.515   5.310 -0.1959 -0.4144 -0.5839
10575SOL    HW135317   3.269   0.486   5.400  0.2018 -0.4031 -0.6473
10575SOL    HW235318   3.216   0.438   5.266  0.8420 -0.8364 -0.7476
10576SOL     OW35319   8.561   8.782   1.643  0.2515  0.6569  0.4036
10576SOL    HW135320   8.575   8.823   1.729 -0.0092 -0.2128  0.8661
10576SOL    HW235321   8.503   8.708   1.660 -0.4222  0.9105 -0.6432
10577SOL     OW35322   4.528   5.961   8.942  0.5205  0.0791  0.3375
10577SOL    HW135323   4.503   5.903   9.014 -0.5887  0.6081  0.4077
10577SOL    HW235324   4.505   5.913   8.863  1.2579 -0.2924  0.3469
10578SOL     OW35325   2.055   1.889   7.201  0.1928  0.1866  0.1932
10578SOL    HW135326   2.011   1.916   7.121 -1.3147 -1.7324  0.2819
10578SOL    HW235327   2.141   1.857   7.172 -0.0627  0.1769 -0.5684
10579SOL     OW35328   8.853   0.780   8.404 -0.1011  0.1579 -0.2628
10579SOL    HW135329   8.798   0.855   8.379 -1.1523 -0.8020 -0.9287
10579SOL    HW235330   8.907   0.814   8.475 -1.6212  1.1432  0.4936
10580SOL     OW35331   1.883   4.055   3.275  0.1309 -0.3056  0.1102
10580SOL    HW135332   1.941   4.108   3.221  0.1534 -0.1702  0.2663
10580SOL    HW235333   1.936   3.980   3.302 -0.0526 -0.6761 -0.5339
10581SOL     OW35334   8.689   1.488   9.510 -0.0080 -0.1486 -0.3881
10581SOL    HW135335   8.748   1.508   9.583  0.4611  2.0545 -1.2756
10581SOL    HW235336   8.737   1.425   9.457  0.6301 -0.0188  0.0240
10582SOL     OW35337   8.382   6.689   5.538  0.0125  1.0598 -0.3267
10582SOL    HW135338   8.380   6.662   5.630 -0.1942  2.4978  0.1164
10582SOL    HW235339   8.443   6.629   5.496 -0.1980  0.1319  0.6685
10583SOL     OW35340   7.765   8.553   8.121 -0.3329 -0.2113  0.1242
10583SOL    HW135341   7.757   8.600   8.038  1.7562 -0.4463 -0.2765
10583SOL    HW235342   7.716   8.606   8.184  2.0737  2.7096 -0.2356
10584SOL     OW35343  10.389   1.597   1.884 -0.6442 -0.2269  0.1400
10584SOL    HW135344  10.424   1.543   1.955 -0.8523  1.3987  1.5448
10584SOL    HW235345  10.340   1.535   1.829  0.6284 -1.7502  0.6442
10585SOL     OW35346   2.058  10.874   5.515  0.0235 -0.4715  0.0066
10585SOL    HW135347   2.001  10.877   5.592  1.4468  0.6299  1.0655
10585SOL    HW235348   1.997  10.878   5.441 -1.3377 -0.6962  1.0613
10586SOL     OW35349   2.711   1.335   1.345  0.1891  0.4798  0.7666
10586SOL    HW135350   2.740   1.374   1.262 -1.7296  1.1182  0.3482
10586SOL    HW235351   2.792   1.302   1.385  0.9351 -2.0585 -2.4273
10587SOL     OW35352   3.906   1.596   5.867  0.1547 -0.0366 -0.1907
10587SOL    HW135353   3.865   1.514   5.841 -2.7545  1.5338 -1.0585
10587SOL    HW235354   3.971   1.613   5.799 -1.8366  0.1243 -2.1887
10588SOL     OW35355   1.716   5.072   5.960  0.1182 -0.4863 -0.2962
10588SOL    HW135356   1.808   5.062   5.984  0.2867  0.0074 -0.7242
10588SOL    HW235357   1.714   5.054   5.866 -0.1849 -0.2454 -0.3362
10589SOL     OW35358   2.612   9.248   2.115  1.2236  0.1062 -0.1441
10589SOL    HW135359   2.580   9.338   2.122 -2.2583 -1.0527  0.6235
10589SOL    HW235360   2.622   9.233   2.021 -2.1236  0.1716 -0.6183
10590SOL     OW35361   2.868  10.397   0.740 -1.1055  0.4582 -0.1496
10590SOL    HW135362   2.794  10.452   0.716 -0.8672  0.4752 -0.8776
10590SOL    HW235363   2.931  10.409   0.669 -0.3907  0.4671  0.4745
10591SOL     OW35364   3.284   2.845   1.722  0.0795  0.6899 -0.4462
10591SOL    HW135365   3.308   2.800   1.803 -1.4204  0.2538 -0.2048
10591SOL    HW235366   3.347   2.813   1.657  0.9620  0.6394  0.4208
10592SOL     OW35367   5.525  10.922  11.021 -0.3135  0.3691  0.2973
10592SOL    HW135368   5.512  10.857  10.952 -1.5386 -0.6184  1.3873
10592SOL    HW235369   5.591  10.982  10.987  0.9687 -1.5385 -0.6928
10593SOL     OW35370   2.242   7.459   0.109  0.7066  0.1989  0.1632
10593SOL    HW135371   2.334   7.460   0.081  0.2815  1.5044 -1.3149
10593SOL    HW235372   2.202   7.532   0.062 -0.8985  0.2305  1.4975
10594SOL     OW35373   1.074   2.023   7.735 -0.0524  0.1214  0.1294
10594SOL    HW135374   1.040   2.079   7.665 -0.7560  0.4447  0.7097
10594SOL    HW235375   1.012   2.036   7.807  0.3210 -0.6688  0.6021
10595SOL     OW35376   7.309   8.050   0.650  0.2583 -0.5323 -0.0356
10595SOL    HW135377   7.365   7.979   0.683  0.4305 -0.4380 -0.1244
10595SOL    HW235378   7.253   8.072   0.724  0.0459 -0.9179 -0.0781
10596SOL     OW35379   8.321   2.200  10.597  0.5647  0.3076 -0.0464
10596SOL    HW135380   8.401   2.148  10.587 -1.0529 -2.3548 -0.1343
10596SOL    HW235381   8.311   2.245  10.513  1.3665 -0.2808 -0.4730
10597SOL     OW35382   1.156   2.212   9.005  0.2411  0.2688 -0.0043
10597SOL    HW135383   1.113   2.156   8.940  0.1771  1.8287 -1.3650
10597SOL    HW235384   1.250   2.196   8.992  0.1982 -1.1152  1.1238
10598SOL     OW35385   8.798   7.450  10.924 -0.0721  0.1857  0.2571
10598SOL    HW135386   8.843   7.465  10.841  1.3465 -0.3877  0.8883
10598SOL    HW235387   8.866   7.458  10.990 -0.8587 -0.8780  1.2473
10599SOL     OW35388   5.095   9.866   9.655 -0.0747  0.0674  0.4751
10599SOL    HW135389   5.061   9.905   9.736 -0.4783  0.5557  0.0756
10599SOL    HW235390   5.095   9.772   9.672 -0.9030  0.1110  0.7652
10600SOL     OW35391   2.546   4.826   9.726 -0.4112  0.1364  0.3467
10600SOL    HW135392   2.500   4.906   9.751  0.6577  0.8363  0.1224
10600SOL    HW235393   2.551   4.829   9.631  1.1281  0.6790  0.4196
10601SOL     OW35394   9.750   4.893   7.616  0.5586  0.2429  0.3647
10601SOL    HW135395   9.669   4.932   7.647  0.5323  0.2314  0.3105
10601SOL    HW235396   9.738   4.799   7.628  0.9880  0.3083  1.3696
10602SOL     OW35397   5.950   2.007   1.093  0.5468  0.8097  0.7790
10602SOL    HW135398   5.933   2.086   1.041 -0.7199 -0.6272 -1.1435
10602SOL    HW235399   5.924   2.030   1.182 -1.7872  1.9795 -0.1185
10603SOL     OW35400   9.765   4.632   3.435  0.3643 -0.1351  0.4300
10603SOL    HW135401   9.782   4.724   3.451 -0.3009 -0.1699  1.3595
10603SOL    HW235402   9.713   4.631   3.355 -0.9540  0.4144  1.2521
10604SOL     OW35403   2.606   7.648   8.807  0.4118  0.0803  0.2847
10604SOL    HW135404   2.623   7.717   8.743 -1.6379  0.3705  0.0120
10604SOL    HW235405   2.538   7.683   8.863  1.3015 -0.6619  1.9042
10605SOL     OW35406   0.068   1.330   5.038 -0.3137  0.1356  0.3036
10605SOL    HW135407   0.007   1.362   4.971  1.2762  0.0458 -1.2867
10605SOL    HW235408   0.125   1.405   5.056 -1.8530  0.7589  3.0561
10606SOL     OW35409   6.034   0.889   6.377  0.4703  0.3483  0.3294
10606SOL    HW135410   5.960   0.860   6.430  1.0098  0.1592  0.9888
10606SOL    HW235411   6.064   0.810   6.332  0.8601  0.2254  0.7964
10607SOL     OW35412   8.615   5.783  10.384 -0.2901  0.2067 -0.2853
10607SOL    HW135413   8.661   5.795  10.301  0.4751  0.4445  0.1640
10607SOL    HW235414   8.684   5.782  10.450 -0.6603 -2.3528  0.1641
10608SOL     OW35415  10.529   3.594   4.404 -0.3191 -0.8755  0.2882
10608SOL    HW135416  10.445   3.605   4.448  0.1414  0.7411  0.8311
10608SOL    HW235417  10.526   3.654   4.330 -0.0441 -1.6100 -0.3373
10609SOL     OW35418   8.521   1.357   1.209 -0.2860  0.6063 -0.1379
10609SOL    HW135419   8.482   1.418   1.146  0.6415  2.2549  0.8103
10609SOL    HW235420   8.608   1.393   1.228  0.5012 -1.2804  0.1396
10610SOL     OW35421  10.992   1.969   0.005 -0.1165 -0.6837  0.3394
10610SOL    HW135422  10.964   1.890   0.050  0.1363 -0.5226  0.7886
10610SOL    HW235423  10.987   1.947  -0.088  1.9098 -1.9292  0.4671
10611SOL     OW35424  10.205  10.997   7.513  0.4209 -0.3916 -0.3544
10611SOL    HW135425  10.144  11.056   7.557  0.3076 -0.1925 -0.7656
10611SOL    HW235426  10.290  11.016   7.552 -0.0558 -2.0343  1.6116
10612SOL     OW35427   4.586   5.097   9.397 -0.3617  0.2129 -0.3448
10612SOL    HW135428   4.601   5.012   9.355  0.5594  0.6549 -0.9591
10612SOL    HW235429   4.533   5.145   9.333 -2.3436 -0.4466  0.7161
10613SOL     OW35430   0.619   8.717   1.639 -0.3584  0.4319 -0.3968
10613SOL    HW135431   0.563   8.760   1.705 -1.1380 -1.1241  0.0027
10613SOL    HW235432   0.589   8.753   1.555 -1.9901 -0.3492 -0.1855
10614SOL     OW35433   7.865   5.346   2.161 -0.2740 -0.3726 -0.0063
10614SOL    HW135434   7.803   5.308   2.224 -0.7919  0.2960 -0.1009
10614SOL    HW235435   7.850   5.441   2.168  0.1970 -0.2552 -0.5942
10615SOL     OW35436   9.258   0.179   4.935  0.0255  0.2677 -0.5829
10615SOL    HW135437   9.317   0.213   4.869  0.3056  1.4729  0.2540
10615SOL    HW235438   9.311   0.118   4.986 -0.3731 -1.1863 -1.8470
10616SOL     OW35439   7.689   2.861   8.372  0.2556 -0.7407  0.3035
10616SOL    HW135440   7.740   2.824   8.444  0.1812  1.2680  1.4527
10616SOL    HW235441   7.611   2.897   8.415 -1.7103 -2.7912 -1.2684
10617SOL     OW35442   1.878   8.384   4.227  0.2185  0.2119 -0.1720
10617SOL    HW135443   1.791   8.394   4.264  0.6360  0.1284  0.8752
10617SOL    HW235444   1.890   8.289   4.218  0.4971  0.1867  0.4329
10618SOL     OW35445   9.293  10.559   7.343  0.0302 -0.6769 -0.9315
10618SOL    HW135446   9.294  10.517   7.257 -2.1485  1.1192 -1.9532
10618SOL    HW235447   9.209  10.533   7.382  0.4861 -0.5513  0.1767
10619SOL     OW35448   3.581   9.898   8.025 -0.1157 -0.5787  0.5140
10619SOL    HW135449   3.647   9.842   8.066  1.0322 -1.1832 -1.9990
10619SOL    HW235450   3.537   9.841   7.962 -0.5595  0.7236 -0.3959
10620SOL     OW35451   7.735   3.886   3.475 -0.7879 -0.5385  0.2808
10620SOL    HW135452   7.758   3.891   3.568  0.4105 -0.1222 -0.0135
10620SOL    HW235453   7.663   3.948   3.465 -0.8848 -0.5416  0.9207
10621SOL     OW35454   7.518   3.624   1.996  0.3399 -0.7886 -0.0994
10621SOL    HW135455   7.540   3.697   2.053  0.3312 -0.7592 -0.1334
10621SOL    HW235456   7.534   3.546   2.049 -3.4168 -0.7628  1.4183
10622SOL     OW35457   2.817  10.698   6.167 -0.7769  0.0328 -0.2193
10622SOL    HW135458   2.757  10.707   6.093  1.2116  0.1394 -1.9196
10622SOL    HW235459   2.849  10.787   6.183 -1.0056 -0.0317  0.6241
10623SOL     OW35460   5.780   3.298   0.559 -0.1927 -0.3786  0.2637
10623SOL    HW135461   5.796   3.251   0.641 -0.0302 -1.5665 -0.4182
10623SOL    HW235462   5.790   3.231   0.491 -1.3592  0.3572 -0.6622
10624SOL     OW35463   3.926   0.435   4.887 -0.5068 -0.0511 -0.0096
10624SOL    HW135464   3.833   0.420   4.868 -0.7311  1.6896 -0.4659
10624SOL    HW235465   3.972   0.384   4.821 -1.1450 -0.4619 -0.1510
10625SOL     OW35466   2.373   9.078   3.059 -0.2419  0.3933 -0.1766
10625SOL    HW135467   2.285   9.042   3.061  0.6445 -1.9143  1.1312
10625SOL    HW235468   2.405   9.066   3.149  2.6106 -2.1755 -1.3751
10626SOL     OW35469   3.147   2.075   9.893  0.3382  0.5016  0.0407
10626SOL    HW135470   3.217   2.137   9.910  0.9280  0.1789 -1.0934
10626SOL    HW235471   3.072   2.130   9.868  0.5899  0.7983 -0.0736
10627SOL     OW35472  10.313   8.346   0.707 -0.3356  0.1132  0.4638
10627SOL    HW135473  10.241   8.371   0.649 -1.6241 -1.0166  1.5331
10627SOL    HW235474  10.359   8.277   0.659 -0.3843  0.3353  0.0897
10628SOL     OW35475   8.326   6.559   8.414 -0.5022 -0.7280  0.2747
10628SOL    HW135476   8.277   6.629   8.457 -0.6710 -1.1085  0.7050
10628SOL    HW235477   8.268   6.527   8.345 -1.2524 -1.8183  1.3911
10629SOL     OW35478  10.249   5.939   8.854  0.1594  0.3999 -0.0732
10629SOL    HW135479  10.273   5.958   8.945  0.3640 -1.1490  0.2223
10629SOL    HW235480  10.229   6.025   8.816 -3.3069  0.8726  2.3683
10630SOL     OW35481   1.220   6.769   8.574 -0.8743  0.1645  0.0999
10630SOL    HW135482   1.165   6.774   8.496 -0.5934  0.9168 -0.0598
10630SOL    HW235483   1.238   6.861   8.596 -1.5543 -0.0035  1.4777
10631SOL     OW35484   6.033   0.500  11.053 -0.7828  0.2045 -0.0958
10631SOL    HW135485   5.957   0.460  11.095  0.8133 -0.1983  2.6433
10631SOL    HW235486   6.036   0.589  11.089 -0.6565  0.6554 -1.1810
10632SOL     OW35487   0.654   0.684   3.782 -0.0431 -0.6317 -0.0646
10632SOL    HW135488   0.588   0.721   3.840 -1.0327  0.8436 -1.9968
10632SOL    HW235489   0.735   0.686   3.833 -0.3924  2.6509  0.6157
10633SOL     OW35490   2.284   0.917   2.786  0.4693  0.1241  0.1158
10633SOL    HW135491   2.242   0.915   2.700  1.2052  1.3442 -0.2902
10633SOL    HW235492   2.212   0.935   2.847  0.5536  4.6307 -0.7974
10634SOL     OW35493   7.764   0.716   1.816  0.4696 -0.1563  0.7976
10634SOL    HW135494   7.669   0.722   1.813  0.5473  0.9667 -1.3283
10634SOL    HW235495   7.783   0.625   1.797 -0.1759  0.1264 -1.4724
10635SOL     OW35496   5.478   2.451   1.542  0.1594 -0.5249 -0.3065
10635SOL    HW135497   5.479   2.409   1.456  0.0884  0.3341 -0.7434
10635SOL    HW235498   5.430   2.533   1.528 -0.1698 -0.5387  0.6370
10636SOL     OW35499   6.562   5.173  11.037 -0.3421  0.1475 -0.2590
10636SOL    HW135500   6.468   5.190  11.028 -0.6521 -0.1300  1.9989
10636SOL    HW235501   6.576   5.161  11.131  2.1545  1.3036 -0.3894
10637SOL     OW35502   9.715   8.234   9.258 -0.2166 -0.7240 -0.6918
10637SOL    HW135503   9.776   8.253   9.330 -0.3953  0.2626 -0.7812
10637SOL    HW235504   9.640   8.194   9.301 -1.3821  2.0328  0.0866
10638SOL     OW35505   2.892   2.419   1.892 -0.4817 -0.2406  0.4290
10638SOL    HW135506   2.836   2.466   1.831  2.8003  0.3680 -2.4253
10638SOL    HW235507   2.876   2.327   1.875 -2.3118 -0.1663  1.4834
10639SOL     OW35508   4.740   9.806  10.609 -0.0800 -0.2603 -0.6019
10639SOL    HW135509   4.800   9.734  10.588 -0.4069 -0.7178  0.0356
10639SOL    HW235510   4.797   9.875  10.644  0.1394 -0.5031 -0.4796
10640SOL     OW35511   1.824   3.122   5.022 -0.4693 -0.1552  0.2716
10640SOL    HW135512   1.821   3.117   5.118  1.2612  3.6544  0.6921
10640SOL    HW235513   1.767   3.195   5.000 -0.9969 -1.0997 -1.6798
10641SOL     OW35514   8.140   8.609   4.843 -0.1825  0.1032 -0.9146
10641SOL    HW135515   8.158   8.651   4.927  0.0835  1.2660 -1.5307
10641SOL    HW235516   8.085   8.672   4.796  0.4843 -0.0951 -1.9866
10642SOL     OW35517   8.099   4.017  10.011 -0.7335 -0.6344  0.5398
10642SOL    HW135518   8.032   4.086  10.013 -2.0403 -1.8693  0.7578
10642SOL    HW235519   8.151   4.033  10.089 -0.9648  0.1624  0.5447
10643SOL     OW35520   2.387   2.056   9.319  0.3792 -0.2520 -0.1598
10643SOL    HW135521   2.379   2.139   9.367  1.8442  0.3279 -0.8834
10643SOL    HW235522   2.332   1.995   9.369  1.9149  0.2806  2.3885
10644SOL     OW35523   5.472   5.011   6.255 -0.3718 -0.5101  0.2057
10644SOL    HW135524   5.518   5.060   6.187 -0.1249 -0.1563  0.6253
10644SOL    HW235525   5.379   5.028   6.238 -0.3199 -0.5972 -0.1716
10645SOL     OW35526   5.383   8.867   2.372  0.4038 -0.0374 -0.2584
10645SOL    HW135527   5.296   8.847   2.338  0.6194 -0.4949 -0.5615
10645SOL    HW235528   5.425   8.781   2.382  0.8247  0.1771 -0.1261
10646SOL     OW35529   1.503   0.412  10.544  0.5346  0.0060 -0.1375
10646SOL    HW135530   1.582   0.359  10.534  0.4740 -0.1862  0.4013
10646SOL    HW235531   1.525   0.495  10.501  1.2181  0.1459  0.4748
10647SOL     OW35532   9.811  10.766  10.830 -0.2046  0.0175  0.0076
10647SOL    HW135533   9.840  10.767  10.739  0.3887  0.8276  0.1971
10647SOL    HW235534   9.778  10.855  10.846 -0.4925 -0.1748  0.5281
10648SOL     OW35535   3.425  10.816   9.044 -0.1114  0.0725 -0.0655
10648SOL    HW135536   3.385  10.755   9.106  0.2400 -0.1639 -0.0672
10648SOL    HW235537   3.483  10.870   9.099 -0.0567  0.0849 -0.1345
10649SOL     OW35538   9.635   3.582   0.245 -0.4418  0.4014  0.1163
10649SOL    HW135539   9.700   3.629   0.297 -0.5735  1.1909 -0.4191
10649SOL    HW235540   9.570   3.553   0.308 -0.8249  1.7253  0.3455
10650SOL     OW35541  10.027   1.443   4.993  0.1447 -0.0941 -1.0708
10650SOL    HW135542   9.995   1.394   4.918 -0.4544  0.8090 -1.4258
10650SOL    HW235543   9.958   1.508   5.011 -0.8267 -1.7065  1.6775
10651SOL     OW35544   1.714  10.103   1.188  0.3030 -0.4855  0.2942
10651SOL    HW135545   1.670  10.106   1.274 -0.6094 -1.5384 -0.1091
10651SOL    HW235546   1.671  10.171   1.137  0.2592 -0.4247  0.4120
10652SOL     OW35547   4.167  10.296   4.153  0.4830 -0.5131  0.1116
10652SOL    HW135548   4.248  10.313   4.201  0.0571  0.4768  0.5042
10652SOL    HW235549   4.108  10.261   4.219  0.1614  0.0651  0.1374
10653SOL     OW35550  10.156   0.606   2.973  0.4170 -0.1736  0.0774
10653SOL    HW135551  10.217   0.556   2.920 -0.9204 -0.4292 -1.2718
10653SOL    HW235552  10.078   0.615   2.919 -0.9279 -0.2366  1.9083
10654SOL     OW35553   2.341   5.371  10.257  0.2892  0.6145 -0.0954
10654SOL    HW135554   2.267   5.410  10.304  0.5523  0.0438  0.8249
10654SOL    HW235555   2.333   5.277  10.272  2.8568  0.6580  2.6938
10655SOL     OW35556   4.732   6.047   3.971  0.5310 -0.7539  0.2232
10655SOL    HW135557   4.788   6.116   4.008 -0.7907  0.2869  0.3729
10655SOL    HW235558   4.765   6.034   3.883 -0.3177  1.4475 -0.4904
10656SOL     OW35559   5.453   6.580   1.471 -0.1733  0.3477  0.5080
10656SOL    HW135560   5.364   6.615   1.460 -0.7104 -1.5168 -2.0012
10656SOL    HW235561   5.444   6.511   1.536 -0.5196  0.3328  0.4470
10657SOL     OW35562   5.334   8.297   8.553  0.1251 -0.3988 -0.4662
10657SOL    HW135563   5.365   8.388   8.545 -0.2843 -0.1957  0.2212
10657SOL    HW235564   5.244   8.300   8.522  0.3959 -0.7585 -1.3202
10658SOL     OW35565   9.934  10.064   7.230 -0.1538 -0.5650  0.1569
10658SOL    HW135566   9.925  10.105   7.144 -0.5597  1.2972  1.0196
10658SOL    HW235567   9.848  10.076   7.270  0.4016 -0.2254  1.2906
10659SOL     OW35568   1.410   5.189   1.866 -0.5567  0.4477  0.6665
10659SOL    HW135569   1.390   5.278   1.837 -0.0285  0.3524 -0.0460
10659SOL    HW235570   1.470   5.156   1.799 -0.3025 -0.2457  1.2263
10660SOL     OW35571   3.217   5.625   5.296 -0.3462 -0.1661 -0.4412
10660SOL    HW135572   3.261   5.541   5.288 -0.4466 -0.3524  0.8184
10660SOL    HW235573   3.246   5.674   5.219  1.8942 -0.3699  0.1941
10661SOL     OW35574  10.767   1.362   3.334 -0.2369  0.1623  0.1894
10661SOL    HW135575  10.812   1.306   3.272 -0.1601 -0.1116  0.4896
10661SOL    HW235576  10.674   1.342   3.322 -0.2795  0.6737 -0.3777
10662SOL     OW35577   4.054  10.899   1.617  0.1636 -0.3234  0.1970
10662SOL    HW135578   4.030  10.915   1.526 -0.8746  0.4419  0.5849
10662SOL    HW235579   4.114  10.825   1.614 -0.0425 -0.4514 -1.0835
10663SOL     OW35580   9.209   2.857   6.972  0.0032 -1.1355  0.1456
10663SOL    HW135581   9.151   2.781   6.966 -1.8887  0.2439 -0.0936
10663SOL    HW235582   9.181   2.902   7.051 -0.8160  0.7356 -1.1365
10664SOL     OW35583   8.227   7.908   1.191  0.1543  0.9043  0.3818
10664SOL    HW135584   8.163   7.930   1.123  0.1245 -1.7225 -0.5436
10664SOL    HW235585   8.177   7.856   1.255  0.4577  2.3645  1.8752
10665SOL     OW35586   5.428   0.412   1.185  0.2815 -0.1732 -0.5042
10665SOL    HW135587   5.341   0.378   1.206  1.1886 -1.3976  1.7317
10665SOL    HW235588   5.415   0.505   1.172 -1.5720 -0.5586 -1.7746
10666SOL     OW35589   4.125   9.093   4.884  0.2806  0.0137  0.6387
10666SOL    HW135590   4.035   9.119   4.867  0.5063  1.0593  0.9617
10666SOL    HW235591   4.161   9.165   4.936  1.8309  0.4757 -0.9878
10667SOL     OW35592   3.899  10.895  10.222 -0.2753 -0.1654 -0.1254
10667SOL    HW135593   3.832  10.899  10.154 -0.7058 -0.7121  0.2602
10667SOL    HW235594   3.874  10.964  10.284  0.1476  0.3693 -0.5381
10668SOL     OW35595  10.065   8.243   7.485 -0.1065  0.2171 -0.3477
10668SOL    HW135596  10.053   8.163   7.433  0.4765 -1.4885  1.9439
10668SOL    HW235597  10.034   8.219   7.572  0.0261  2.5618  0.3985
10669SOL     OW35598   4.633   7.357   9.812 -0.1448  0.3577 -0.5340
10669SOL    HW135599   4.682   7.303   9.749  2.2610 -1.5625  2.6914
10669SOL    HW235600   4.541   7.332   9.798  0.7401 -4.1043  0.1342
10670SOL     OW35601   6.586   2.284   3.966 -0.0205 -0.1685  0.5814
10670SOL    HW135602   6.590   2.270   3.871 -0.4000 -0.1404  0.5580
10670SOL    HW235603   6.619   2.373   3.978  0.9398 -0.5129  0.5763
10671SOL     OW35604   6.033   4.259   3.148 -0.8554  0.1084 -0.2979
10671SOL    HW135605   6.093   4.189   3.174 -1.3580 -0.0568  0.4802
10671SOL    HW235606   5.946   4.221   3.159 -1.2134  1.3028  1.6981
10672SOL     OW35607   2.590  10.729   2.370 -0.1582 -0.2323  0.4409
10672SOL    HW135608   2.601  10.650   2.319  0.0324 -1.5583  2.4187
10672SOL    HW235609   2.495  10.739   2.379 -0.1727 -0.5763  0.6721
10673SOL     OW35610   9.573   7.719   3.663  0.0497  0.1784 -0.3631
10673SOL    HW135611   9.614   7.659   3.601  0.9286 -0.0837  0.4534
10673SOL    HW235612   9.485   7.733   3.628 -0.0437 -1.2753 -0.7625
10674SOL     OW35613   8.486  10.593   8.974  0.2384  0.2792 -0.0309
10674SOL    HW135614   8.557  10.528   8.968  2.1863  2.0466  1.9511
10674SOL    HW235615   8.461  10.592   9.066 -1.9072  0.1834 -0.5792
10675SOL     OW35616   7.275   6.318   2.779  0.1123  0.2468 -0.4539
10675SOL    HW135617   7.297   6.278   2.695  0.3499 -0.9780  0.1756
10675SOL    HW235618   7.273   6.412   2.761  1.6491  0.1098 -1.4919
10676SOL     OW35619   1.325   1.411   4.688  0.5195 -0.5842  0.7231
10676SOL    HW135620   1.306   1.320   4.664 -1.2478 -0.3423  1.0248
10676SOL    HW235621   1.417   1.424   4.665  0.1460 -1.6953 -1.7404
10677SOL     OW35622   9.715   1.720   4.666  0.7410  0.0225  0.5331
10677SOL    HW135623   9.680   1.634   4.644 -0.2406 -0.0822  2.3612
10677SOL    HW235624   9.640   1.778   4.665  1.1720  0.5898  0.6477
10678SOL     OW35625   6.534   7.847   3.077  0.1730 -0.0643 -0.2843
10678SOL    HW135626   6.594   7.774   3.096 -0.4206 -0.9459 -1.6358
10678SOL    HW235627   6.583   7.925   3.101  0.8563 -0.8868  1.1531
10679SOL     OW35628   4.773   6.818   7.156  0.0604 -0.8820 -0.4200
10679SOL    HW135629   4.799   6.776   7.074 -2.4796 -0.7128 -1.4145
10679SOL    HW235630   4.682   6.791   7.169 -0.0972  0.3613  1.5435
10680SOL     OW35631   1.189   6.519   0.716  0.2665 -0.5068  0.1017
10680SOL    HW135632   1.118   6.535   0.653 -0.5083 -0.1493  1.0354
10680SOL    HW235633   1.161   6.564   0.796  2.8052  1.9953 -0.2552
10681SOL     OW35634   8.131   4.422   0.225  0.1327  0.1910  0.3039
10681SOL    HW135635   8.123   4.512   0.192 -1.1629  0.3575  0.9831
10681SOL    HW235636   8.049   4.380   0.199  0.6235 -0.7242  0.2173
10682SOL     OW35637   0.224   8.040   4.455 -0.1188 -0.2378  0.4221
10682SOL    HW135638   0.243   8.018   4.546 -2.5481 -2.0236  0.6139
10682SOL    HW235639   0.276   7.979   4.403  0.0981 -0.2539  0.6582
10683SOL     OW35640   9.018  11.050   7.995 -0.4303  0.2825  0.2367
10683SOL    HW135641   9.069  11.056   8.075  2.3608 -0.2699 -1.3469
10683SOL    HW235642   9.018  11.139   7.959  0.1496  0.1378 -0.1427
10684SOL     OW35643   0.469  10.972   6.154  0.1505 -0.5283  0.1850
10684SOL    HW135644   0.545  10.926   6.189 -0.8128 -1.1801  1.5147
10684SOL    HW235645   0.419  10.904   6.109 -1.7794 -1.1323  2.9896
10685SOL     OW35646   9.421   6.487  10.480 -0.0687 -0.1892 -0.3027
10685SOL    HW135647   9.356   6.550  10.449  0.6317  1.6143  1.6731
10685SOL    HW235648   9.505   6.523  10.452  0.5154  1.0456  2.6695
10686SOL     OW35649   6.848   3.127   8.726  0.0031 -0.5812  0.1785
10686SOL    HW135650   6.920   3.182   8.697  0.1863 -0.4227  0.9081
10686SOL    HW235651   6.791   3.119   8.649  0.0166  0.5610  0.0305
10687SOL     OW35652   3.440   3.410   3.217 -0.7261 -0.3966  0.1254
10687SOL    HW135653   3.524   3.454   3.226 -1.4056  0.9191  0.2905
10687SOL    HW235654   3.436   3.384   3.125 -0.4752  0.2608 -0.0750
10688SOL     OW35655   4.766   2.087   8.295  0.1082 -0.4379 -0.7015
10688SOL    HW135656   4.672   2.075   8.304  0.2365 -1.9870 -1.1219
10688SOL    HW235657   4.798   2.092   8.386 -0.2431 -1.1403 -0.5351
10689SOL     OW35658   5.131   0.511   7.573  0.4438  0.2722 -0.2067
10689SOL    HW135659   5.092   0.439   7.524 -2.2041 -0.1910  2.3094
10689SOL    HW235660   5.129   0.482   7.664  2.4272  2.2414  0.5638
10690SOL     OW35661   9.431   2.335   6.214  0.0810  0.5024  0.2251
10690SOL    HW135662   9.475   2.420   6.204 -0.2348  0.7811  1.1304
10690SOL    HW235663   9.340   2.352   6.193 -0.1304  0.5681  1.1453
10691SOL     OW35664   5.231   9.843   3.035 -0.0260  0.1554 -0.2125
10691SOL    HW135665   5.170   9.819   3.105 -0.3581 -2.4967 -1.2851
10691SOL    HW235666   5.295   9.772   3.034  0.6010  0.6970 -1.8881
10692SOL     OW35667   8.179   4.189  10.260  0.0486 -0.1979  0.1845
10692SOL    HW135668   8.112   4.227  10.316 -0.9807  0.1383 -1.2288
10692SOL    HW235669   8.248   4.161  10.321 -0.6459  0.8948  1.5333
10693SOL     OW35670  10.334   4.345   3.624 -0.0604 -0.2019 -0.1623
10693SOL    HW135671  10.284   4.265   3.639  1.1010 -1.1953 -1.3982
10693SOL    HW235672  10.328   4.393   3.707 -0.9422 -1.4573  0.5286
10694SOL     OW35673   0.824   1.111   3.935  0.1622  0.5323 -0.3476
10694SOL    HW135674   0.818   1.042   4.002 -0.5497  1.1190  0.2185
10694SOL    HW235675   0.906   1.093   3.889  1.0643  0.5699  1.1887
10695SOL     OW35676   9.205   7.947   9.425  0.1154 -0.3543 -0.0528
10695SOL    HW135677   9.203   7.977   9.334 -0.1663 -1.1035 -0.2986
10695SOL    HW235678   9.143   8.005   9.469  1.3912  1.0465  0.0119
10696SOL     OW35679   6.697  10.945   8.513 -0.5272 -0.6313 -0.2650
10696SOL    HW135680   6.780  10.912   8.548  0.5348  1.2020 -0.9578
10696SOL    HW235681   6.663  10.873   8.460  1.3191 -0.9317 -1.1040
10697SOL     OW35682   7.868   3.323   9.730 -0.7469 -0.4246 -0.0393
10697SOL    HW135683   7.959   3.353   9.720 -0.6318 -0.5843  0.4856
10697SOL    HW235684   7.816   3.390   9.686 -0.3825 -0.2765 -0.2531
10698SOL     OW35685   5.870   8.989   4.194 -0.5455 -0.0923  0.1001
10698SOL    HW135686   5.881   9.004   4.288  0.6457 -0.1424 -0.0187
10698SOL    HW235687   5.866   8.894   4.184 -0.0297 -0.1071  0.0348
10699SOL     OW35688   0.435  10.468   9.605  0.6439 -0.5335 -0.3672
10699SOL    HW135689   0.465  10.383   9.637  0.3203 -0.2785  0.6582
10699SOL    HW235690   0.397  10.450   9.519 -0.1988 -1.5766  0.2053
10700SOL     OW35691   6.482   2.093   7.523  0.0824  0.0671 -0.1401
10700SOL    HW135692   6.456   2.026   7.585 -0.7280  1.0328  0.6016
10700SOL    HW235693   6.538   2.152   7.574 -1.7463  1.6681  0.1276
10701SOL     OW35694   7.909   3.371   4.540 -0.1016 -0.0301  0.4092
10701SOL    HW135695   7.946   3.389   4.627 -0.7508  0.2682  0.6294
10701SOL    HW235696   7.888   3.278   4.543 -3.6639  0.6609  2.0043
10702SOL     OW35697   2.285   3.264  10.855 -0.5298  0.2332 -0.1414
10702SOL    HW135698   2.351   3.257  10.924 -1.6169  0.8657  1.0013
10702SOL    HW235699   2.207   3.225  10.894 -0.4769 -2.0296 -2.0462
10703SOL     OW35700   5.503   2.334   3.510 -0.2150 -0.2478 -0.1082
10703SOL    HW135701   5.480   2.287   3.430  0.6237 -1.9815  0.6137
10703SOL    HW235702   5.503   2.266   3.578  1.7297  0.6501  0.8579
10704SOL     OW35703   3.891   9.886   0.982 -0.8292 -0.1097 -0.4922
10704SOL    HW135704   3.855   9.952   0.923  1.3345  0.3055 -1.4390
10704SOL    HW235705   3.922   9.817   0.924  0.2034 -0.2766  0.2428
10705SOL     OW35706   0.074   3.093   8.241 -0.1689  0.3319  0.0765
10705SOL    HW135707   0.067   3.047   8.324 -1.8425 -2.6612 -1.5248
10705SOL    HW235708   0.032   3.177   8.255 -2.1095 -0.8434  1.8271
10706SOL     OW35709   3.827   8.375   4.983  0.2049 -0.7905 -0.4327
10706SOL    HW135710   3.852   8.435   4.913 -0.4609  0.4502  0.3699
10706SOL    HW235711   3.902   8.376   5.043 -1.3917  2.6962  1.8162
10707SOL     OW35712   7.711  10.617   9.879 -0.0082  0.1632  0.0336
10707SOL    HW135713   7.758  10.553   9.934 -0.1055  1.3157  1.5190
10707SOL    HW235714   7.627  10.629   9.923 -1.0041 -0.5230 -1.6132
10708SOL     OW35715   1.272   2.967   7.908 -0.5182 -0.1811  0.1023
10708SOL    HW135716   1.181   2.996   7.910 -0.3934  0.5013 -2.0123
10708SOL    HW235717   1.268   2.872   7.900 -1.0868 -0.0499 -1.3538
10709SOL     OW35718   8.564   2.329   0.155  0.0734  0.1575 -0.1375
10709SOL    HW135719   8.552   2.289   0.242 -1.4808 -3.5983 -1.8617
10709SOL    HW235720   8.501   2.401   0.153 -1.8080 -1.3451  1.0413
10710SOL     OW35721   8.759   0.340   6.027 -0.3501  0.1022  0.0305
10710SOL    HW135722   8.839   0.325   5.977  0.1485 -0.5657  1.0044
10710SOL    HW235723   8.702   0.387   5.966  0.8176  0.7131 -0.6412
10711SOL     OW35724   7.774   2.628   1.165  0.0762 -0.1021 -0.6490
10711SOL    HW135725   7.848   2.575   1.194  1.4349  0.1491 -3.3009
10711SOL    HW235726   7.813   2.709   1.134 -1.6046  1.0270  0.0335
10712SOL     OW35727   1.736   1.345  10.723 -0.2037 -0.5544 -0.1746
10712SOL    HW135728   1.646   1.377  10.724  0.2013  0.6407 -0.2036
10712SOL    HW235729   1.735   1.269  10.782 -0.9048  0.3978  1.0974
10713SOL     OW35730   8.573  10.381   9.414 -0.3602 -0.5796 -0.2268
10713SOL    HW135731   8.666  10.395   9.433 -1.1293  3.4260  1.5331
10713SOL    HW235732   8.573  10.317   9.343  3.6250 -1.9191  0.6891
10714SOL     OW35733  10.025   4.657   4.507  0.1058  0.2006  0.5572
10714SOL    HW135734   9.975   4.694   4.581  0.7031 -0.2640  1.2034
10714SOL    HW235735  10.115   4.654   4.538  0.3482 -0.1168 -0.1588
10715SOL     OW35736   7.540   0.299   4.917  0.4045 -0.0313 -0.4465
10715SOL    HW135737   7.468   0.352   4.953  0.0238 -0.2145 -0.9408
10715SOL    HW235738   7.529   0.304   4.822 -0.2588 -1.8469 -0.4985
10716SOL     OW35739   6.413   8.982   1.517  0.6370 -0.6365 -0.2258
10716SOL    HW135740   6.402   8.907   1.575  1.0273  0.0683  0.7989
10716SOL    HW235741   6.327   9.023   1.513  0.1669 -1.7005 -1.6221
10717SOL     OW35742   7.248   7.344   0.932 -0.2790 -0.1814  0.1281
10717SOL    HW135743   7.155   7.342   0.956 -0.7048 -1.8322 -1.4062
10717SOL    HW235744   7.251   7.396   0.852  0.2148  0.3596  0.4939
10718SOL     OW35745   6.064   8.944   0.578  0.1501 -0.1789  0.1970
10718SOL    HW135746   5.987   8.889   0.596  0.2644 -1.3869 -2.5114
10718SOL    HW235747   6.138   8.885   0.587  0.3338 -0.3571 -2.0219
10719SOL     OW35748   5.088   3.787   7.577 -0.0716 -0.0014  0.2097
10719SOL    HW135749   5.154   3.728   7.540 -0.2345 -0.6613  0.9643
10719SOL    HW235750   5.136   3.841   7.639 -0.3302 -0.8673  1.1845
10720SOL     OW35751  10.625   9.984   4.122  0.0096  0.2131 -0.3326
10720SOL    HW135752  10.677   9.908   4.149 -0.1065 -0.8009 -2.6952
10720SOL    HW235753  10.675  10.022   4.050 -0.3928  1.8594  0.2322
10721SOL     OW35754   8.552  10.127   6.931 -0.2915 -0.1780  0.0941
10721SOL    HW135755   8.508  10.054   6.887  0.6968 -1.5633  1.3226
10721SOL    HW235756   8.480  10.181   6.965 -1.0492  0.1975 -1.9658
10722SOL     OW35757   2.090   3.233   5.546 -0.3561 -0.4313 -0.0738
10722SOL    HW135758   2.114   3.300   5.610 -2.5225 -0.2644  0.6206
10722SOL    HW235759   2.172   3.186   5.528  0.7416  0.9724  1.0892
10723SOL     OW35760   4.650   3.843   3.666  0.0500 -0.1298  0.5775
10723SOL    HW135761   4.694   3.758   3.664 -0.2132 -0.2589 -1.8601
10723SOL    HW235762   4.704   3.900   3.612 -1.4744  0.3632 -0.4851
10724SOL     OW35763   8.444  10.541   7.790  0.0978 -0.0833 -0.3473
10724SOL    HW135764   8.375  10.590   7.744 -0.0243  1.5477  1.4704
10724SOL    HW235765   8.508  10.607   7.816  1.1615 -1.2444  0.1094
10725SOL     OW35766   1.843   3.427   8.650  0.9997 -0.2685 -0.1364
10725SOL    HW135767   1.844   3.333   8.630  0.3526 -0.2810 -0.1397
10725SOL    HW235768   1.833   3.470   8.565 -2.8390 -0.3576  0.1009
10726SOL     OW35769   6.886  11.049   2.529 -0.0830 -0.3984  0.3687
10726SOL    HW135770   6.894  11.108   2.604 -0.9571 -1.4670  1.3375
10726SOL    HW235771   6.844  10.970   2.564  2.5967 -2.3724 -0.4448
10727SOL     OW35772   6.950   8.860   2.403  0.2912 -0.0558 -0.4146
10727SOL    HW135773   6.944   8.942   2.355 -0.6103  0.5270  0.6536
10727SOL    HW235774   6.887   8.802   2.359 -0.6959  0.5475  0.1798
10728SOL     OW35775   6.001   6.598   0.681  0.3030 -0.4581 -0.4392
10728SOL    HW135776   6.082   6.548   0.676  1.4576  1.2871 -0.2807
10728SOL    HW235777   5.962   6.575   0.765  1.1662 -0.5517 -0.0636
10729SOL     OW35778   2.598   2.092   1.061 -0.0714  0.3291  0.3728
10729SOL    HW135779   2.626   2.143   1.137 -1.7467 -0.2730  1.4728
10729SOL    HW235780   2.518   2.047   1.091 -0.8139  0.1038 -1.7749
10730SOL     OW35781   7.198   1.953   6.547 -0.5582  0.5652 -0.2645
10730SOL    HW135782   7.222   2.034   6.592  1.0046 -0.6511  1.2298
10730SOL    HW235783   7.229   1.964   6.457  2.1523  0.6442  0.5961
10731SOL     OW35784   1.432   7.127  10.323  0.1605  0.3223 -0.1418
10731SOL    HW135785   1.453   7.170  10.240  2.0805 -0.7512 -0.2671
10731SOL    HW235786   1.443   7.196  10.389  1.1119  0.5545 -0.5332
10732SOL     OW35787   6.357   1.620   6.484  1.0627 -0.4340 -0.1661
10732SOL    HW135788   6.341   1.544   6.428  0.8025  0.1104 -0.8404
10732SOL    HW235789   6.332   1.590   6.572 -2.2014 -0.1565 -0.8722
10733SOL     OW35790   6.800   5.293   7.851  0.2526 -0.5055  0.1971
10733SOL    HW135791   6.748   5.233   7.797  0.1710 -0.0541 -0.2405
10733SOL    HW235792   6.874   5.317   7.796  1.2781 -1.6174  1.0417
10734SOL     OW35793   1.018   2.020   3.053 -0.2760  0.2459  0.0524
10734SOL    HW135794   1.030   2.029   3.147 -0.6231  3.2916 -0.0911
10734SOL    HW235795   0.924   2.026   3.039 -0.2636 -0.6089 -0.4757
10735SOL     OW35796   4.225   7.161   2.992  0.4620 -0.0321 -0.0265
10735SOL    HW135797   4.287   7.226   2.958  0.0917 -0.8365 -2.4198
10735SOL    HW235798   4.169   7.139   2.917 -0.5857 -1.7928  1.1851
10736SOL     OW35799   6.320   7.946   6.643 -0.3621  0.1255  0.3304
10736SOL    HW135800   6.347   7.877   6.703  0.3598  0.3698  0.2921
10736SOL    HW235801   6.250   7.992   6.690  0.6293  0.7232  1.2677
10737SOL     OW35802   6.224   3.409  10.192  0.8338 -0.0527 -0.2543
10737SOL    HW135803   6.152   3.394  10.131  0.3649 -0.7094  0.4335
10737SOL    HW235804   6.274   3.327  10.190  0.1609 -0.5354  1.0583
10738SOL     OW35805   1.739   2.477  10.552  0.1397 -0.2520  0.2414
10738SOL    HW135806   1.697   2.426  10.621 -1.7776  0.5507 -0.2721
10738SOL    HW235807   1.723   2.427  10.472  0.8663 -0.3254  0.1372
10739SOL     OW35808   7.999   2.165   5.795  0.5416 -0.3248  0.3945
10739SOL    HW135809   7.971   2.214   5.717  0.4179 -0.5413  0.3005
10739SOL    HW235810   8.094   2.166   5.791  0.5366 -0.3831  0.2052
10740SOL     OW35811   3.891   0.497   6.587  0.3336 -0.6671  0.2064
10740SOL    HW135812   3.894   0.576   6.642 -0.1431 -0.3453 -0.2211
10740SOL    HW235813   3.831   0.438   6.633 -0.8700 -0.0008 -0.4685
10741SOL     OW35814   6.252   9.050   8.084 -0.1525 -0.1057  0.8861
10741SOL    HW135815   6.215   9.098   8.158 -0.6164  0.1557  0.4894
10741SOL    HW235816   6.261   8.960   8.115 -2.7937 -0.6044  0.4575
10742SOL     OW35817   0.737   1.641   5.857  0.0948  0.1950 -0.9321
10742SOL    HW135818   0.677   1.574   5.825 -0.0642 -0.0044 -0.2301
10742SOL    HW235819   0.706   1.661   5.946  1.1170  0.0192 -0.5167
10743SOL     OW35820   7.374  10.584   6.540  0.7321  0.3607 -0.3443
10743SOL    HW135821   7.447  10.626   6.586  3.3549 -2.6788 -1.3915
10743SOL    HW235822   7.405  10.574   6.450 -1.0087 -0.9782 -0.8397
10744SOL     OW35823   3.541   3.167   8.248  0.0865 -0.4727  0.5756
10744SOL    HW135824   3.453   3.198   8.228 -0.1409  0.0993  2.2530
10744SOL    HW235825   3.583   3.242   8.290  0.4776 -1.5429  2.1724
10745SOL     OW35826   3.913  10.744   3.890 -0.0040 -0.4187  0.0553
10745SOL    HW135827   3.871  10.830   3.896 -0.9865 -0.7168 -1.8086
10745SOL    HW235828   3.841  10.682   3.896  0.5265 -1.0626 -0.1192
10746SOL     OW35829   7.616  10.548   2.686 -0.1199  0.0973 -0.0971
10746SOL    HW135830   7.668  10.624   2.661  0.7496 -0.2748  0.5329
10746SOL    HW235831   7.572  10.575   2.767  0.6985 -0.2768  0.4858
10747SOL     OW35832   9.749   5.683   6.827  0.5492 -0.2326  0.1350
10747SOL    HW135833   9.665   5.639   6.816  0.1095  0.7604 -0.7136
10747SOL    HW235834   9.805   5.619   6.869 -0.6795 -0.8754  0.8466
10748SOL     OW35835   2.220   5.839   1.020 -0.2868  0.1287  0.0284
10748SOL    HW135836   2.242   5.788   0.941 -0.7715  2.0232 -1.3969
10748SOL    HW235837   2.127   5.862   1.008 -1.2766 -1.9768  2.6268
10749SOL     OW35838   0.674   3.832   1.741  0.0942  0.2679 -0.8323
10749SOL    HW135839   0.673   3.879   1.657  3.3537  3.0928  0.4759
10749SOL    HW235840   0.761   3.850   1.777 -0.4294 -2.5561  2.2812
10750SOL     OW35841  10.460   7.758   4.435 -0.1250 -0.0392 -0.2100
10750SOL    HW135842  10.385   7.766   4.494 -1.6045  1.8142 -2.1948
10750SOL    HW235843  10.482   7.665   4.438 -0.6822 -0.1608  2.5278
10751SOL     OW35844   6.879   7.191   3.475  0.4188 -0.0367 -0.6567
10751SOL    HW135845   6.922   7.195   3.560 -4.1196 -0.7638  2.0371
10751SOL    HW235846   6.900   7.104   3.441 -1.1568 -1.6656  2.0914
10752SOL     OW35847   5.805   4.387   8.344 -0.3068 -0.3528  0.2204
10752SOL    HW135848   5.713   4.362   8.352 -0.4354  0.4524  1.3922
10752SOL    HW235849   5.839   4.384   8.433  0.0738  2.0569  0.2232
10753SOL     OW35850   2.144   1.388   3.302  0.2019  0.0613 -0.4469
10753SOL    HW135851   2.163   1.324   3.371  0.1850 -0.8450 -1.2719
10753SOL    HW235852   2.223   1.391   3.249 -0.2852 -0.2904 -1.2054
10754SOL     OW35853   2.838   6.155   1.540 -0.1179  0.2877 -0.3153
10754SOL    HW135854   2.805   6.069   1.565 -0.2939  0.2567 -0.6498
10754SOL    HW235855   2.767   6.194   1.489  1.2238 -0.7653 -3.2105
10755SOL     OW35856   0.872  10.458   3.986  0.1556 -0.1759  0.1090
10755SOL    HW135857   0.899  10.517   4.056 -2.3856  0.9688  0.2397
10755SOL    HW235858   0.815  10.395   4.030  0.9867 -1.3497 -0.4458
10756SOL     OW35859   1.156   9.842   0.853 -0.1361  0.0401  0.1992
10756SOL    HW135860   1.225   9.905   0.829  0.2901 -0.5485 -0.1533
10756SOL    HW235861   1.190   9.798   0.930 -0.6372  0.5474  0.7211
10757SOL     OW35862   8.414   7.712  10.793  0.1346 -0.1141  1.2133
10757SOL    HW135863   8.430   7.666  10.710 -0.4862  0.2433  0.8855
10757SOL    HW235864   8.403   7.803  10.767 -1.8010 -0.2403  1.4602
10758SOL     OW35865   8.774  10.543   8.274  0.5046 -0.1650  0.2478
10758SOL    HW135866   8.772  10.609   8.344  1.8728 -1.5809  1.7008
10758SOL    HW235867   8.844  10.483   8.301  1.2435 -0.6342 -2.4794
10759SOL     OW35868   3.593   2.737   6.962  0.0076 -0.3685 -0.8651
10759SOL    HW135869   3.621   2.821   6.925  0.8016 -1.3333 -2.5664
10759SOL    HW235870   3.534   2.761   7.033  0.8025  1.6426 -0.8189
10760SOL     OW35871   4.140   2.297   7.142 -0.0755  0.1822  0.1717
10760SOL    HW135872   4.088   2.376   7.158 -1.8418 -1.1659  1.5606
10760SOL    HW235873   4.164   2.303   7.050 -1.4678  1.6093 -0.1484
10761SOL     OW35874   4.400   9.209   4.850  0.6397  0.0082 -0.0612
10761SOL    HW135875   4.375   9.140   4.789  0.5002 -0.2202  0.2497
10761SOL    HW235876   4.340   9.281   4.832 -0.5074 -0.6567  0.9088
10762SOL     OW35877   6.552   1.707   0.811  0.3046 -0.7721 -0.0107
10762SOL    HW135878   6.580   1.652   0.738 -0.4549  0.0016 -0.9082
10762SOL    HW235879   6.470   1.667   0.841  1.2644 -1.8619  1.3180
10763SOL     OW35880   3.156   1.608   6.916  0.0520  0.5620 -0.1167
10763SOL    HW135881   3.245   1.579   6.896  0.9012  0.8828  2.7417
10763SOL    HW235882   3.122   1.541   6.976 -0.2657  2.1599  1.5814
10764SOL     OW35883   6.224   8.931   6.597  0.3113  0.3054  0.1282
10764SOL    HW135884   6.176   8.881   6.663  0.1355  1.3809  0.8471
10764SOL    HW235885   6.308   8.885   6.588  1.3418  1.4083  2.8801
10765SOL     OW35886   9.905   2.253   3.615 -0.2384  0.0548 -0.0675
10765SOL    HW135887   9.856   2.244   3.533 -0.6176  1.2074  0.0164
10765SOL    HW235888   9.843   2.292   3.676  0.1956 -0.3275  0.6356
10766SOL     OW35889   1.501  10.862   1.003 -0.3139  0.2224 -0.4016
10766SOL    HW135890   1.478  10.932   1.064 -0.9578 -1.1440  0.9830
10766SOL    HW235891   1.418  10.816   0.987 -0.1650  0.5275 -2.3268
10767SOL     OW35892   4.733   7.627   9.731 -0.1720 -0.2694 -0.1405
10767SOL    HW135893   4.641   7.618   9.753  0.2000  0.5285  1.9776
10767SOL    HW235894   4.780   7.586   9.804  1.2046 -2.2010 -1.9430
10768SOL     OW35895   6.664   3.900   9.110 -0.2421 -0.2621 -0.4957
10768SOL    HW135896   6.743   3.882   9.059  1.7224 -0.6400  2.4352
10768SOL    HW235897   6.635   3.985   9.078  2.6077  0.8989 -0.3735
10769SOL     OW35898   4.089   4.466   8.904  0.4697 -0.1802 -0.1919
10769SOL    HW135899   4.127   4.424   8.827  0.8846  0.1351 -0.1642
10769SOL    HW235900   4.159   4.522   8.938 -0.0742  0.5629 -0.2520
10770SOL     OW35901   0.356   8.341   8.632  0.0359  0.2997  0.0952
10770SOL    HW135902   0.353   8.246   8.643  0.3190  0.2733 -0.0255
10770SOL    HW235903   0.343   8.355   8.538  0.0856  0.3730  0.0986
10771SOL     OW35904  10.347   4.565   2.893  0.2038 -0.5357 -0.1583
10771SOL    HW135905  10.255   4.586   2.880  0.0589 -0.1665  1.3063
10771SOL    HW235906  10.360   4.569   2.988  1.7392 -0.5192 -0.3352
10772SOL     OW35907   5.125   8.781   2.327  0.3290 -0.4281  0.3314
10772SOL    HW135908   5.078   8.768   2.245 -2.6179  0.9860  1.6685
10772SOL    HW235909   5.074   8.735   2.393 -0.0448  2.2353  2.0717
10773SOL     OW35910   5.829  10.485   3.055 -0.0833  0.4216 -0.1474
10773SOL    HW135911   5.755  10.426   3.041  0.0080  0.2075  0.2556
10773SOL    HW235912   5.902  10.428   3.077  0.4708  0.5496 -1.5435
10774SOL     OW35913   6.438   8.750   1.686 -0.2902 -0.6781 -0.2632
10774SOL    HW135914   6.384   8.707   1.753 -0.8939 -1.0231 -0.9528
10774SOL    HW235915   6.528   8.742   1.719 -0.6000 -0.6265  0.6161
10775SOL     OW35916   2.196   8.109   4.322  0.8137  0.4693  0.8774
10775SOL    HW135917   2.159   8.092   4.236  0.0350 -1.2256  1.5048
10775SOL    HW235918   2.282   8.147   4.305  0.9046 -0.3742 -0.6456
10776SOL     OW35919   2.490   3.539   2.292 -0.0580  0.1767 -0.5184
10776SOL    HW135920   2.572   3.583   2.268  0.3539  0.0056  0.5285
10776SOL    HW235921   2.513   3.445   2.289 -0.0581  0.1457  0.2997
10777SOL     OW35922  10.854   3.804   3.878  0.2242  0.2286 -0.0256
10777SOL    HW135923  10.947   3.802   3.853  0.3481  0.3318  0.4260
10777SOL    HW235924  10.831   3.897   3.878 -0.4909  0.1041 -2.3529
10778SOL     OW35925   9.959   6.726  10.093  0.4235 -0.0695 -0.0670
10778SOL    HW135926   9.913   6.807  10.067  0.3657  0.3198  1.1852
10778SOL    HW235927   9.997   6.747  10.178  1.6344 -0.9082 -0.3885
10779SOL     OW35928   7.697   7.549   4.062 -0.5761 -0.1046  0.1570
10779SOL    HW135929   7.761   7.611   4.098 -0.5390  0.6345 -1.1121
10779SOL    HW235930   7.615   7.571   4.105 -0.3506  0.1653  0.4499
10780SOL     OW35931   6.734   0.844   6.138 -0.5354 -0.6493  0.1018
10780SOL    HW135932   6.693   0.772   6.185  0.7271 -1.6561 -0.3062
10780SOL    HW235933   6.796   0.803   6.078  0.8780  0.7887  0.4886
10781SOL     OW35934   3.512   7.618  10.516 -0.1275 -0.1523 -0.1630
10781SOL    HW135935   3.480   7.555  10.581 -2.0047 -0.1189 -0.9905
10781SOL    HW235936   3.497   7.704  10.556 -1.4609 -0.1256 -0.6896
10782SOL     OW35937   7.712   9.405   4.080 -0.3818  0.3552  0.5691
10782SOL    HW135938   7.806   9.390   4.075 -0.7403 -2.4254  0.2845
10782SOL    HW235939   7.692   9.402   4.174 -0.2415  0.4829  0.6024
10783SOL     OW35940   1.315   1.153   4.583  0.6772 -0.2347  0.2815
10783SOL    HW135941   1.389   1.093   4.572  0.7825 -0.0522 -0.0242
10783SOL    HW235942   1.238   1.100   4.565  0.8459  0.0977 -1.6723
10784SOL     OW35943   2.213   1.440   2.506 -0.7958 -0.0550 -0.2316
10784SOL    HW135944   2.284   1.435   2.571 -0.8423  0.3424 -0.1438
10784SOL    HW235945   2.162   1.361   2.520 -2.1800  1.0972  1.8280
10785SOL     OW35946   7.361   2.884  10.764 -0.2288  0.6440 -0.3248
10785SOL    HW135947   7.317   2.837  10.835  0.2731 -0.4281 -0.6894
10785SOL    HW235948   7.400   2.814  10.710  0.5253  1.4886 -0.9065
10786SOL     OW35949   0.941   5.064   1.877  0.5081 -0.4876  0.2631
10786SOL    HW135950   0.954   5.025   1.963  0.0755  0.3769  0.7314
10786SOL    HW235951   0.867   5.017   1.840 -1.5538  1.3584  1.7760
10787SOL     OW35952  10.455  10.063  10.994  0.2363  0.7474 -0.1935
10787SOL    HW135953  10.376  10.055  10.940  0.1856  0.4390 -0.0771
10787SOL    HW235954  10.489   9.974  11.000  0.5552  0.8670 -0.1826
10788SOL     OW35955   8.725  10.933   5.641  0.0502  0.7682  0.0229
10788SOL    HW135956   8.735  10.867   5.709  1.2793  1.6205  0.7250
10788SOL    HW235957   8.660  10.897   5.581 -0.5807 -0.2957  1.2972
10789SOL     OW35958   7.550   5.554   3.392  0.1758 -0.0402 -0.5964
10789SOL    HW135959   7.624   5.614   3.406  1.4793 -1.5795 -0.5539
10789SOL    HW235960   7.474   5.603   3.421  1.4007  0.9783  1.0698
10790SOL     OW35961   3.998   7.248   2.559  0.4094  0.2748  0.2612
10790SOL    HW135962   3.967   7.214   2.475 -1.5252 -2.0129  1.7772
10790SOL    HW235963   3.919   7.284   2.600  1.1579  0.5651  1.4733
10791SOL     OW35964   2.810   8.080   3.979  0.4750  0.3867 -0.5859
10791SOL    HW135965   2.774   8.092   4.067 -1.5503  0.6948 -1.4019
10791SOL    HW235966   2.784   8.159   3.932  0.7731 -0.1722 -1.7000
10792SOL     OW35967   2.218   4.568   9.783 -0.4001 -0.1814  0.4137
10792SOL    HW135968   2.125   4.554   9.764 -0.6679  2.0774 -0.2443
10792SOL    HW235969   2.230   4.662   9.777  2.2333 -0.5019 -0.8649
10793SOL     OW35970   4.089   7.636   5.809 -0.3546  0.2008  0.5292
10793SOL    HW135971   4.134   7.620   5.725  0.1426 -1.3732  1.0618
10793SOL    HW235972   4.118   7.723   5.835  0.3243  0.2790 -0.4152
10794SOL     OW35973   2.471   5.804   4.061 -0.2279 -0.3054 -0.2418
10794SOL    HW135974   2.382   5.771   4.047 -0.0053 -0.1913 -2.1251
10794SOL    HW235975   2.515   5.792   3.977  1.1112  0.9727  0.2336
10795SOL     OW35976   0.358   1.496   6.681  0.5606 -0.2845  0.3782
10795SOL    HW135977   0.419   1.422   6.675  0.4229 -0.2947 -1.5045
10795SOL    HW235978   0.402   1.567   6.634  0.0713  0.4078  0.9414
10796SOL     OW35979  10.949   0.199   2.233 -0.3423  0.2275 -0.3401
10796SOL    HW135980  11.020   0.252   2.197 -0.3385  0.6517  0.2889
10796SOL    HW235981  10.990   0.115   2.252 -0.1465  0.2809 -0.5129
10797SOL     OW35982  10.426   2.499   5.057 -0.5907  0.0833  0.4260
10797SOL    HW135983  10.354   2.473   4.999 -2.6269 -1.6548  3.4638
10797SOL    HW235984  10.467   2.417   5.083  1.4088  0.9485  0.1594
10798SOL     OW35985   2.495   2.567   1.234  0.2073 -0.0168 -0.4465
10798SOL    HW135986   2.462   2.634   1.174 -2.1906  0.6303  1.4393
10798SOL    HW235987   2.424   2.503   1.239  0.8065 -0.6138  0.8843
10799SOL     OW35988   6.342   4.854   1.034 -0.1615 -0.3649 -0.4512
10799SOL    HW135989   6.286   4.855   1.112 -0.0124  1.8310 -0.3076
10799SOL    HW235990   6.404   4.783   1.049 -0.6908 -0.5465  1.0187
10800SOL     OW35991   6.717   1.738   7.627  0.1549 -0.1425 -0.6191
10800SOL    HW135992   6.741   1.805   7.564  0.9222 -0.4404 -0.6491
10800SOL    HW235993   6.621   1.734   7.623 -0.0079  1.7534  0.2274
10801SOL     OW35994   8.354   2.488   8.592 -0.1656  0.0898  0.5309
10801SOL    HW135995   8.384   2.456   8.507 -2.0976  1.1460 -0.6132
10801SOL    HW235996   8.342   2.582   8.578  0.3739  0.4446  2.2737
10802SOL     OW35997   0.048   6.242   4.606 -0.4306  0.0204 -0.0506
10802SOL    HW135998   0.063   6.309   4.673  0.6881 -0.3505  0.0926
10802SOL    HW235999  -0.028   6.274   4.557 -0.4651  0.9471  0.5791
10803SOL     OW36000   3.556   0.286   3.905  0.8532 -0.0192  0.2659
10803SOL    HW136001   3.641   0.290   3.860  1.1812 -0.9407  0.7741
10803SOL    HW236002   3.551   0.196   3.938 -0.2278  0.0982  0.4348
10804SOL     OW36003   2.554   3.140   3.276  0.0321 -0.5229 -0.2753
10804SOL    HW136004   2.551   3.130   3.371  2.2890  2.2654  0.2478
10804SOL    HW236005   2.622   3.079   3.247  0.1570 -0.5451  0.0672
10805SOL     OW36006   2.198   2.187   2.528 -0.4885  0.0489 -0.5896
10805SOL    HW136007   2.253   2.116   2.562  1.3276  1.2722 -0.8293
10805SOL    HW236008   2.131   2.199   2.595  0.2975 -0.6624  0.3630
10806SOL     OW36009   3.706  10.295   5.987 -0.7989  0.0795 -0.3675
10806SOL    HW136010   3.675  10.300   5.897  1.6920  2.6266 -1.2101
10806SOL    HW236011   3.797  10.267   5.980 -0.6145  0.0754  1.4044
10807SOL     OW36012   4.232   8.470   6.347  0.3755  0.1020  0.2506
10807SOL    HW136013   4.184   8.450   6.427 -0.9660 -0.0538 -0.5628
10807SOL    HW236014   4.180   8.538   6.304  2.2109  1.8008  0.5269
10808SOL     OW36015   5.375   3.729   5.749 -0.6024 -0.2870 -0.2644
10808SOL    HW136016   5.300   3.784   5.728 -0.5568 -0.4204 -0.7883
10808SOL    HW236017   5.447   3.766   5.699 -0.2649 -0.0249  0.4116
10809SOL     OW36018   5.607  10.758   0.122 -0.2675 -0.3108  0.2827
10809SOL    HW136019   5.526  10.733   0.166 -1.1919  1.6810 -0.1903
10809SOL    HW236020   5.578  10.796   0.039  1.2051 -0.2667 -0.2391
10810SOL     OW36021  10.098   6.149   8.164 -0.1514  0.1800  0.3273
10810SOL    HW136022  10.004   6.148   8.182 -0.0386  0.1002  0.9377
10810SOL    HW236023  10.131   6.225   8.213 -0.2853  1.8293 -1.9734
10811SOL     OW36024   1.256   5.462  10.784  0.4231 -0.1419  0.3781
10811SOL    HW136025   1.230   5.388  10.730  0.0682  1.3805 -1.6923
10811SOL    HW236026   1.310   5.516  10.725 -0.9978  2.2200  1.0859
10812SOL     OW36027   3.420   0.459   3.419  0.4207 -0.6646  0.4399
10812SOL    HW136028   3.506   0.465   3.377  1.0394 -0.6910  1.6630
10812SOL    HW236029   3.430   0.389   3.483 -1.4769 -2.9664 -1.5656
10813SOL     OW36030   6.975   4.906   9.271  0.1289 -0.1827 -0.5557
10813SOL    HW136031   7.057   4.910   9.222  0.9352  1.0437  0.7882
10813SOL    HW236032   6.909   4.883   9.207  1.4374 -0.5891 -1.8008
10814SOL     OW36033   0.166   3.915   2.756 -0.5177 -0.4474  1.1163
10814SOL    HW136034   0.146   3.948   2.668  0.6685 -0.3817  0.8516
10814SOL    HW236035   0.089   3.865   2.781 -1.3243  0.4338  0.4841
10815SOL     OW36036   4.831   5.828   4.287 -0.5762 -0.1659 -0.2841
10815SOL    HW136037   4.765   5.814   4.354 -0.4737 -1.4335 -0.4342
10815SOL    HW236038   4.899   5.879   4.331  0.2128 -2.2496  1.0648
10816SOL     OW36039   3.144   9.073   2.593  0.0899 -0.3298 -0.0187
10816SOL    HW136040   3.212   9.094   2.657  0.1823 -0.8932  0.0745
10816SOL    HW236041   3.167   8.986   2.561 -0.2696 -0.2859 -0.4062
10817SOL     OW36042   0.555   9.795   0.608  0.1402  0.5283 -0.5478
10817SOL    HW136043   0.605   9.874   0.627 -1.2220  1.3815 -0.3938
10817SOL    HW236044   0.504   9.779   0.687 -1.2917  0.8221 -1.3743
10818SOL     OW36045   0.604   3.318   0.687 -0.7616 -0.6230 -0.0010
10818SOL    HW136046   0.590   3.379   0.615  0.6842 -0.6549 -0.3451
10818SOL    HW236047   0.647   3.243   0.646 -2.2808 -1.7961  0.4596
10819SOL     OW36048   9.845   3.563   3.671  0.5716 -0.5048  0.5783
10819SOL    HW136049   9.850   3.656   3.650  2.7413  0.1639  3.4971
10819SOL    HW236050   9.762   3.553   3.717 -1.9401 -1.0978 -3.5779
10820SOL     OW36051   6.347   9.518   2.441  0.3957  0.0410 -0.2928
10820SOL    HW136052   6.342   9.554   2.352 -0.8370  0.1420 -0.1881
10820SOL    HW236053   6.374   9.592   2.495 -3.4170  1.2850  0.1390
10821SOL     OW36054   8.191   7.177   2.218 -0.2878  0.0872 -0.1631
10821SOL    HW136055   8.097   7.187   2.204 -0.6212 -1.4728  0.7454
10821SOL    HW236056   8.204   7.196   2.311  0.6447  2.2968 -0.6811
10822SOL     OW36057   5.550   1.259   8.723 -0.2576 -0.0487 -0.2561
10822SOL    HW136058   5.572   1.293   8.810 -0.3213  1.8662 -0.9579
10822SOL    HW236059   5.505   1.176   8.741 -0.6956  0.5379  1.5584
10823SOL     OW36060   5.972   2.711   2.252 -0.0073  0.2613 -0.0148
10823SOL    HW136061   6.009   2.765   2.182 -1.2654 -0.0634 -0.9685
10823SOL    HW236062   5.878   2.726   2.247 -0.2510 -0.8965  0.6636
10824SOL     OW36063   9.938   3.874   8.193 -0.6495  0.1734  0.1053
10824SOL    HW136064   9.992   3.922   8.130 -0.6130 -1.3791 -1.1004
10824SOL    HW236065  10.001   3.823   8.245 -0.8584 -1.0571 -0.8039
10825SOL     OW36066   4.487   5.972   7.429 -0.6166  0.5461 -0.1536
10825SOL    HW136067   4.549   6.033   7.470  0.1198 -0.7248  0.7108
10825SOL    HW236068   4.485   5.998   7.337  0.4826  1.2200 -0.0103
10826SOL     OW36069   5.263   9.676   4.352 -0.3565 -0.4561 -0.0396
10826SOL    HW136070   5.217   9.705   4.272  0.7711 -2.1322 -1.3613
10826SOL    HW236071   5.312   9.753   4.380  1.5246 -0.5281 -2.6894
10827SOL     OW36072   2.702   7.055  10.300  0.1035 -0.1627 -0.1493
10827SOL    HW136073   2.643   7.123  10.331  0.1920 -0.2315  0.1730
10827SOL    HW236074   2.646   6.995  10.251  0.0189  0.1188 -0.3936
10828SOL     OW36075   0.954   4.177   3.063 -0.0334  0.7913  0.1644
10828SOL    HW136076   0.895   4.170   3.138 -0.4685  1.9566 -0.0626
10828SOL    HW236077   0.956   4.270   3.042  3.5415  1.1602  1.4791
10829SOL     OW36078   1.382   0.098   5.119 -0.2456 -0.1544  0.1945
10829SOL    HW136079   1.330   0.027   5.082  2.0933 -2.4959  1.1558
10829SOL    HW236080   1.353   0.104   5.210  0.2333 -0.5466  0.3734
10830SOL     OW36081  10.205  10.635  10.908 -0.1291 -0.2960 -0.4725
10830SOL    HW136082  10.116  10.603  10.897  0.2411 -1.4966 -0.0993
10830SOL    HW236083  10.197  10.730  10.901 -1.2893 -0.4380 -1.3833
10831SOL     OW36084   1.937   1.946   2.192 -0.1809  0.3715 -0.0698
10831SOL    HW136085   1.933   1.901   2.276 -0.6129 -0.6656 -0.6242
10831SOL    HW236086   1.852   1.930   2.152  0.1960  0.4153 -0.9104
10832SOL     OW36087   0.376   9.910   9.452  0.8419  0.1343  0.5630
10832SOL    HW136088   0.389   9.965   9.375  0.2951 -0.0141  0.3588
10832SOL    HW236089   0.463   9.903   9.492  1.2180 -0.1474 -0.2835
10833SOL     OW36090   6.169  10.827   7.003 -0.0686 -0.4071  0.3576
10833SOL    HW136091   6.130  10.797   6.921 -0.9279  0.7197  0.3272
10833SOL    HW236092   6.133  10.768   7.070 -1.2747  0.1568  0.2275
10834SOL     OW36093   2.663   3.137  10.891 -0.1478 -0.1336  0.7499
10834SOL    HW136094   2.624   3.177  10.969 -0.1627  0.1094  0.6167
10834SOL    HW236095   2.611   3.170  10.818  0.4537  0.3840  0.5484
10835SOL     OW36096   5.195   3.979   5.723 -0.2237 -0.6429 -0.5329
10835SOL    HW136097   5.251   4.055   5.740 -0.6839 -0.6164  1.0089
10835SOL    HW236098   5.216   3.954   5.633 -0.0629  1.2984 -1.0834
10836SOL     OW36099   1.251   8.697   0.528 -0.7238 -0.2531  0.4342
10836SOL    HW136100   1.254   8.761   0.457 -0.1448 -0.5653  0.1734
10836SOL    HW236101   1.186   8.632   0.500  0.5189 -1.1392 -0.4731
10837SOL     OW36102   7.644   2.657   0.275  0.3324 -0.5108 -0.1065
10837SOL    HW136103   7.593   2.734   0.299  0.6576 -0.1325 -0.6115
10837SOL    HW236104   7.591   2.613   0.208  0.7735  0.0266 -0.8280
10838SOL     OW36105   3.404   0.738   5.055 -0.1241  0.2827 -0.8422
10838SOL    HW136106   3.344   0.667   5.033 -0.5694  0.7764 -1.2570
10838SOL    HW236107   3.446   0.760   4.972  0.3548  0.1942 -0.6249
10839SOL     OW36108   5.122   9.641   6.731 -0.4661  0.3214 -0.0508
10839SOL    HW136109   5.150   9.588   6.806  0.8040  2.1916  0.8941
10839SOL    HW236110   5.198   9.697   6.713 -1.4632  1.2420 -1.4965
10840SOL     OW36111  11.057   4.929   0.712  0.1265 -0.1695 -0.1338
10840SOL    HW136112  11.055   4.993   0.642  0.5569 -0.1751 -0.1556
10840SOL    HW236113  11.075   4.980   0.791  0.3927 -0.2485 -0.1400
10841SOL     OW36114   1.482   2.859   6.106 -0.1893 -0.5703 -0.0474
10841SOL    HW136115   1.461   2.772   6.140  1.6952 -1.3131 -0.6547
10841SOL    HW236116   1.556   2.888   6.159  0.1514  0.0220 -0.8357
10842SOL     OW36117   2.080   7.484  10.565 -0.5706 -0.1821 -0.0621
10842SOL    HW136118   2.108   7.418  10.502 -1.8112 -1.9285  1.1150
10842SOL    HW236119   1.984   7.481  10.562 -0.6440  0.6516  0.9446
10843SOL     OW36120   0.771   4.915   3.498  0.5080  0.1983 -0.2906
10843SOL    HW136121   0.741   4.931   3.409  0.2207 -0.7999 -0.3779
10843SOL    HW236122   0.844   4.854   3.489  1.6679  1.4955  0.0321
10844SOL     OW36123   9.208   8.392  10.312 -0.3382  0.3355  0.1506
10844SOL    HW136124   9.287   8.389  10.258 -0.5389 -0.2457 -0.1111
10844SOL    HW236125   9.184   8.300  10.325  0.0104  0.4366  1.6695
10845SOL     OW36126  10.623   3.349   0.861  0.3856 -0.5539 -0.1376
10845SOL    HW136127  10.617   3.254   0.852 -2.0028 -0.4653 -0.0893
10845SOL    HW236128  10.637   3.381   0.772 -0.5927 -0.8894 -0.4278
10846SOL     OW36129   1.767   2.997  10.775 -0.2075  0.3258 -0.1288
10846SOL    HW136130   1.786   3.079  10.729  1.2463 -0.7308 -1.5363
10846SOL    HW236131   1.794   3.013  10.865 -0.6651  1.6175 -0.1977
10847SOL     OW36132   4.999   4.652   0.099  0.2270 -0.0084 -0.4265
10847SOL    HW136133   5.068   4.709   0.135  0.2647 -0.4927  0.2766
10847SOL    HW236134   4.926   4.662   0.159  0.1703 -0.5623 -0.3995
10848SOL     OW36135   2.525   3.438   0.198 -0.2002  0.1180 -0.5275
10848SOL    HW136136   2.469   3.515   0.202 -1.2439 -0.6593  0.4736
10848SOL    HW236137   2.532   3.409   0.289  2.0894  0.3449 -0.5717
10849SOL     OW36138   7.787   3.589  10.379 -0.4396  0.3483 -0.3944
10849SOL    HW136139   7.774   3.636  10.461  2.4820 -0.8750  0.9208
10849SOL    HW236140   7.717   3.523  10.379  1.0631 -1.4755  2.6483
10850SOL     OW36141   0.905   6.333   3.323 -0.1787  0.3078 -0.5415
10850SOL    HW136142   0.930   6.426   3.326 -0.9063  0.5016  0.0991
10850SOL    HW236143   0.810   6.335   3.318 -0.3597 -0.3800  1.5445
10851SOL     OW36144   3.982   0.934   4.263 -0.2099 -0.2063  0.1948
10851SOL    HW136145   3.956   0.923   4.172  2.6472  0.5320 -0.8081
10851SOL    HW236146   3.961   0.850   4.304 -2.1354 -0.3360 -0.9251
10852SOL     OW36147   4.649   9.528   5.461 -0.3120  0.2576 -0.1740
10852SOL    HW136148   4.633   9.441   5.498 -0.4017  0.6702  0.8044
10852SOL    HW236149   4.608   9.525   5.375  0.3412 -0.9101 -0.4648
10853SOL     OW36150   5.548   6.115  10.727 -0.3227  0.2735  0.1289
10853SOL    HW136151   5.474   6.057  10.744  0.8725 -2.7075 -3.4526
10853SOL    HW236152   5.612   6.094  10.795 -0.6925 -1.2229  0.0388
10854SOL     OW36153   2.263   8.244   6.967  0.4287  0.0937 -0.6212
10854SOL    HW136154   2.323   8.305   6.923  0.6647 -1.0275 -1.9004
10854SOL    HW236155   2.180   8.256   6.921 -0.0080  0.6873  0.2865
10855SOL     OW36156  10.685   7.592   8.028 -0.4368  0.0862 -0.0332
10855SOL    HW136157  10.638   7.531   8.085 -2.9756  2.7157  0.9271
10855SOL    HW236158  10.617   7.628   7.971  1.1231  1.3358 -1.1846
10856SOL     OW36159   7.120  11.072   8.423 -0.1501 -0.1615 -0.4061
10856SOL    HW136160   7.042  11.125   8.435 -0.2709 -0.4703  0.2204
10856SOL    HW236161   7.179  11.127   8.372 -0.2085  0.6422  0.3658
10857SOL     OW36162   4.247   2.587   9.288 -0.0068  0.3021 -0.1918
10857SOL    HW136163   4.232   2.498   9.320  1.3959 -0.3742 -1.3340
10857SOL    HW236164   4.206   2.588   9.201 -0.7812  1.0601  0.1693
10858SOL     OW36165   1.585   0.434   4.550 -0.5695  0.4598  0.1857
10858SOL    HW136166   1.513   0.497   4.546 -0.9512 -0.0128 -0.5893
10858SOL    HW236167   1.568   0.374   4.477  1.3101  1.1086 -0.8476
10859SOL     OW36168   2.747  11.086   2.997 -0.2527 -0.2116  0.2935
10859SOL    HW136169   2.753  11.176   2.968  0.7743 -0.6875 -1.0826
10859SOL    HW236170   2.835  11.066   3.029 -0.1704 -1.0278 -0.4055
10860SOL     OW36171   0.171   0.575   3.508 -0.3259 -0.1533  0.6556
10860SOL    HW136172   0.226   0.514   3.558  0.6547  0.8466  0.8392
10860SOL    HW236173   0.222   0.656   3.505 -0.1918 -0.2469 -2.2351
10861SOL     OW36174   4.137  11.093   7.134  0.5336 -0.0423 -0.1947
10861SOL    HW136175   4.091  11.067   7.214 -0.4654  0.3382 -0.6329
10861SOL    HW236176   4.224  11.052   7.142  0.5309  0.1765  1.1784
10862SOL     OW36177   4.747   0.624   2.087 -0.7974  0.1949  0.3650
10862SOL    HW136178   4.775   0.650   1.999 -0.6313  0.4929  0.5034
10862SOL    HW236179   4.657   0.656   2.094  0.0221  2.4781  1.2252
10863SOL     OW36180   6.484   2.121   1.611  0.3173 -0.4290 -0.1141
10863SOL    HW136181   6.441   2.074   1.681 -1.2029  0.1214 -0.6466
10863SOL    HW236182   6.559   2.066   1.587  1.7028  0.0268  2.8274
10864SOL     OW36183   5.105  10.329   3.378 -0.0255 -0.9061 -0.5145
10864SOL    HW136184   5.167  10.347   3.449 -1.7723 -1.3019  1.1974
10864SOL    HW236185   5.152  10.354   3.298  2.6373 -1.9929  0.5915
10865SOL     OW36186   6.860   9.895   1.229  0.4259 -0.4006 -0.0072
10865SOL    HW136187   6.955   9.890   1.242  0.1608 -0.3295  2.6306
10865SOL    HW236188   6.826   9.816   1.270 -0.8426  1.4786  2.9971
10866SOL     OW36189   8.146  10.925   3.294  0.1167  0.6213 -0.1000
10866SOL    HW136190   8.134  10.918   3.199 -1.9218  0.4316  0.1356
10866SOL    HW236191   8.162  11.018   3.310  1.4515  0.5140 -0.7028
10867SOL     OW36192   3.386   4.549   7.009 -0.2922 -0.0029 -0.5297
10867SOL    HW136193   3.375   4.610   6.935  0.8137  2.0356  0.8682
10867SOL    HW236194   3.299   4.513   7.024 -1.3411  2.2898 -0.6130
10868SOL     OW36195   6.504  10.268   7.342  0.0135 -0.3881 -0.0677
10868SOL    HW136196   6.476  10.355   7.312 -0.0001 -1.0772 -2.2549
10868SOL    HW236197   6.565  10.239   7.275  2.7272 -0.7172  2.3786
10869SOL     OW36198   4.976   5.122   8.807 -0.2614 -0.3420  0.1653
10869SOL    HW136199   4.981   5.084   8.719  3.0135 -1.1324  0.5625
10869SOL    HW236200   4.995   5.215   8.794 -1.3354 -0.1463 -0.0858
10870SOL     OW36201   7.315   6.923   4.545 -0.4124 -0.2391  0.3913
10870SOL    HW136202   7.371   6.853   4.512  0.5873  0.7370 -0.0178
10870SOL    HW236203   7.354   6.948   4.629  0.3884  1.1473 -0.3777
10871SOL     OW36204   2.483   7.905   3.444  0.1198 -0.0376 -0.1377
10871SOL    HW136205   2.458   7.968   3.377 -3.0183 -0.6387  0.3230
10871SOL    HW236206   2.474   7.951   3.526  0.0995 -0.4414  0.0906
10872SOL     OW36207   4.090   0.119  10.854 -0.1016 -0.3030  0.6890
10872SOL    HW136208   4.156   0.188  10.847 -0.5090 -0.0216 -0.8079
10872SOL    HW236209   4.138   0.044  10.890  1.3392 -0.4156 -1.2706
10873SOL     OW36210   1.193   9.431   3.629  0.8768  0.7356 -0.0253
10873SOL    HW136211   1.216   9.485   3.705 -0.5863 -0.0720  1.0391
10873SOL    HW236212   1.232   9.346   3.648  2.9253  1.2445 -1.5650
10874SOL     OW36213   1.074   2.441   1.234  0.6144  0.0574  0.2394
10874SOL    HW136214   1.048   2.494   1.310  0.6931 -1.6020  1.4876
10874SOL    HW236215   1.168   2.458   1.224  0.7991 -0.3757  1.1056
10875SOL     OW36216   0.407   1.225   7.737  0.2186 -0.3951  0.0679
10875SOL    HW136217   0.385   1.132   7.731  0.2539 -0.4490  0.7549
10875SOL    HW236218   0.486   1.234   7.684  0.7296 -0.9260  0.7312
10876SOL     OW36219   4.454   9.948   9.666  0.3461  0.4561  0.5523
10876SOL    HW136220   4.514   9.880   9.696 -0.0613 -0.2835 -0.2588
10876SOL    HW236221   4.457   9.941   9.570 -0.2920  1.0618  0.4862
10877SOL     OW36222  10.953   3.843   7.148 -0.3384 -0.2339  0.1279
10877SOL    HW136223  10.927   3.886   7.229  0.4022 -2.1901  1.5012
10877SOL    HW236224  10.994   3.761   7.177  0.8091 -0.5722 -2.1911
10878SOL     OW36225   1.268   0.397   4.155 -0.2572  1.0935 -0.3025
10878SOL    HW136226   1.218   0.429   4.080  0.4397  1.9365 -0.4195
10878SOL    HW236227   1.214   0.327   4.192 -0.5344  0.5414 -1.7003
10879SOL     OW36228   7.637   4.530   6.415  0.6784  0.3108 -0.1572
10879SOL    HW136229   7.724   4.500   6.386  0.6648  1.4928 -1.5326
10879SOL    HW236230   7.599   4.572   6.338 -0.3133  1.5797  0.9629
10880SOL     OW36231   5.190   5.683   2.297 -0.4845 -0.3968  0.7712
10880SOL    HW136232   5.201   5.693   2.392 -1.2641 -0.6996  0.9068
10880SOL    HW236233   5.277   5.698   2.261 -0.0060 -1.0828  1.6026
10881SOL     OW36234   4.804   9.907   8.153 -0.3418  0.4135 -0.2704
10881SOL    HW136235   4.895   9.879   8.164 -0.9851 -0.7868  3.5383
10881SOL    HW236236   4.753   9.829   8.174 -2.2823  1.3595 -1.2835
10882SOL     OW36237   6.521   1.190   9.539  0.6516  0.2129  0.4450
10882SOL    HW136238   6.538   1.211   9.631  0.7422 -1.4090  0.8326
10882SOL    HW236239   6.438   1.233   9.520 -2.1288 -3.4373  2.8865
10883SOL     OW36240  10.328   1.952   9.326  0.1314  0.7517  0.3105
10883SOL    HW136241  10.271   1.883   9.292  1.4639  0.3434 -1.2442
10883SOL    HW236242  10.273   2.002   9.386 -1.5479 -0.2286 -0.3490
10884SOL     OW36243   4.834   4.760   5.309  0.1334 -0.0427  0.3588
10884SOL    HW136244   4.923   4.784   5.338  0.3599  0.1570 -0.4715
10884SOL    HW236245   4.818   4.816   5.233 -0.7284 -0.0511  0.5296
10885SOL     OW36246   2.742   3.170   5.167 -0.1294  0.4386  0.4542
10885SOL    HW136247   2.647   3.169   5.180 -0.2996  1.6027 -0.5388
10885SOL    HW236248   2.774   3.094   5.216 -1.8010 -1.2299 -0.9102
10886SOL     OW36249   9.389   5.622   4.076  0.8729 -0.0472  0.3397
10886SOL    HW136250   9.384   5.717   4.069  1.1874 -0.0351  0.2705
10886SOL    HW236251   9.304   5.596   4.111  0.4090  0.1724 -0.5876
10887SOL     OW36252   3.488  10.448   3.110  0.0573 -0.1788 -0.2478
10887SOL    HW136253   3.510  10.355   3.105 -1.3472 -0.4751 -1.6826
10887SOL    HW236254   3.479  10.466   3.204  1.6197 -1.1508  0.1164
10888SOL     OW36255   6.303   7.798   7.925  0.0967 -0.3752  0.2330
10888SOL    HW136256   6.394   7.796   7.955  0.3136  0.8402 -0.2507
10888SOL    HW236257   6.261   7.864   7.981  0.1883  0.9680 -1.2136
10889SOL     OW36258   6.001   9.374   8.945 -0.1633  0.5348  0.9059
10889SOL    HW136259   5.911   9.371   8.977 -0.5950 -0.1749 -0.2863
10889SOL    HW236260   6.054   9.354   9.022 -1.0090  1.0884  1.6570
10890SOL     OW36261   1.521   9.206   8.540  0.1773  0.5377 -0.0165
10890SOL    HW136262   1.526   9.271   8.611 -0.0160 -0.2410  0.7183
10890SOL    HW236263   1.447   9.151   8.563 -2.1249  2.2834 -2.5923
10891SOL     OW36264   7.947   7.619   8.329  0.2432 -0.2123  0.3550
10891SOL    HW136265   7.991   7.619   8.414  0.6005 -0.1385  0.1697
10891SOL    HW236266   7.996   7.556   8.277 -0.9990 -1.5390  0.7212
10892SOL     OW36267   4.757   1.387   7.682 -0.2099  0.2445 -0.0378
10892SOL    HW136268   4.738   1.408   7.590 -0.9118  0.8410  0.2390
10892SOL    HW236269   4.851   1.369   7.683 -0.1998  0.1900 -0.8823
10893SOL     OW36270   5.829   0.597   6.224  0.1804  0.0530 -1.4509
10893SOL    HW136271   5.909   0.639   6.192  0.4927  2.7031  2.1799
10893SOL    HW236272   5.763   0.667   6.223 -0.1389 -0.0135  1.9452
10894SOL     OW36273   2.932   9.798   4.643  0.3950  0.0836 -0.3526
10894SOL    HW136274   3.021   9.818   4.613 -0.1790  5.1526  0.4738
10894SOL    HW236275   2.883   9.780   4.563  1.7620 -1.2301 -0.9483
10895SOL     OW36276   8.495   3.386   5.966 -0.0664 -0.8170 -0.2530
10895SOL    HW136277   8.590   3.375   5.965  0.1157  0.4210  0.6262
10895SOL    HW236278   8.466   3.350   5.883  1.4006  0.5980 -1.4520
10896SOL     OW36279   2.420   2.312   3.269  0.1431  0.2837  0.1203
10896SOL    HW136280   2.428   2.307   3.364 -3.0329  1.0593  0.5652
10896SOL    HW236281   2.426   2.406   3.250 -2.1233  0.4838  0.0417
10897SOL     OW36282   1.368   0.688   9.096 -0.3923  0.3180  0.2799
10897SOL    HW136283   1.326   0.767   9.130  0.6707  1.1706 -0.3188
10897SOL    HW236284   1.460   0.713   9.085  0.3259 -1.4935  1.6238
10898SOL     OW36285   7.794   0.281   3.919  0.2492  0.2882 -0.1312
10898SOL    HW136286   7.812   0.237   4.001  2.4383 -0.8587 -1.1348
10898SOL    HW236287   7.870   0.338   3.905 -0.0976  0.4888 -1.3366
10899SOL     OW36288   6.080   5.434   9.828 -0.1474  0.3856  0.0984
10899SOL    HW136289   6.012   5.471   9.884 -0.6902  0.5760 -0.6722
10899SOL    HW236290   6.154   5.493   9.837 -0.5238  0.8835 -0.0365
10900SOL     OW36291   2.570   0.199   9.914 -0.4303 -0.3781  0.0836
10900SOL    HW136292   2.589   0.289   9.938  0.3465  0.1282 -2.2024
10900SOL    HW236293   2.484   0.181   9.953 -1.0896  1.7103 -0.3174
10901SOL     OW36294   4.906   6.748   3.587 -0.1407 -0.0214  0.0272
10901SOL    HW136295   4.987   6.796   3.565 -0.6512  0.9416  0.1865
10901SOL    HW236296   4.934   6.681   3.648  0.5759  0.1803 -0.0684
10902SOL     OW36297  10.491   1.357  10.879 -0.5073  0.7525  0.0226
10902SOL    HW136298  10.479   1.296  10.806 -2.5889  1.0135  0.0896
10902SOL    HW236299  10.576   1.398  10.861  0.8530 -1.9196 -0.1450
10903SOL     OW36300   3.952   7.395   0.226  0.1767  0.3135  0.6168
10903SOL    HW136301   3.965   7.380   0.132 -1.2505 -1.9662  0.6978
10903SOL    HW236302   3.871   7.446   0.231 -0.4489 -0.6496  0.6075
10904SOL     OW36303   8.956   4.609  10.784  0.2683 -0.0034 -0.3359
10904SOL    HW136304   9.045   4.641  10.799 -0.1467  0.3907  1.5000
10904SOL    HW236305   8.901   4.665  10.839 -0.9531 -1.2184 -0.2647
10905SOL     OW36306   9.640   3.488   5.364  1.0696 -0.1520 -0.1200
10905SOL    HW136307   9.593   3.568   5.388  0.6038 -0.4041 -0.1830
10905SOL    HW236308   9.732   3.510   5.378  0.8360 -0.3589  2.1447
10906SOL     OW36309   2.259   2.831   4.574  0.1499  0.3083 -0.2944
10906SOL    HW136310   2.304   2.856   4.655 -2.0195  1.0296  0.7498
10906SOL    HW236311   2.199   2.762   4.600 -1.8100  1.7075 -0.8770
10907SOL     OW36312   0.102   7.868   3.713  0.5841  0.0874  0.5831
10907SOL    HW136313   0.188   7.877   3.754  0.2348 -1.6560  1.8273
10907SOL    HW236314   0.053   7.810   3.772 -1.2742  0.5950 -0.3617
10908SOL     OW36315   3.908   0.683   6.787 -0.0861  0.3528 -0.7631
10908SOL    HW136316   4.000   0.695   6.810 -0.1433 -1.1175  0.3758
10908SOL    HW236317   3.872   0.631   6.859 -1.1453 -1.4208 -2.4726
10909SOL     OW36318   2.216   9.401   3.037  0.1314 -0.8835  0.5786
10909SOL    HW136319   2.274   9.387   2.962 -0.5079 -0.7433  0.0491
10909SOL    HW236320   2.256   9.473   3.086 -1.0992  1.2678 -1.3825
10910SOL     OW36321   4.144  10.166   6.086  0.4236 -0.9103 -0.3296
10910SOL    HW136322   4.057  10.129   6.068  0.6435 -1.0915 -1.0826
10910SOL    HW236323   4.179  10.187   5.999  1.2685 -1.1450 -0.0559
10911SOL     OW36324   7.538   4.970   5.987 -0.0417 -0.0664  0.3138
10911SOL    HW136325   7.518   4.965   6.080 -1.7537 -0.3735 -0.0367
10911SOL    HW236326   7.465   5.018   5.949  0.9598  0.6431 -0.7964
10912SOL     OW36327   1.691   0.022   2.898 -0.2047 -0.1049  0.7221
10912SOL    HW136328   1.637   0.100   2.894 -3.0010 -1.9272 -0.2213
10912SOL    HW236329   1.642  -0.038   2.954  3.7438 -0.0068  4.8459
10913SOL     OW36330   0.550   1.130   4.656 -0.0092  0.0821 -0.0653
10913SOL    HW136331   0.609   1.088   4.718 -0.9437 -0.2760  0.6137
10913SOL    HW236332   0.603   1.198   4.614  0.3445  1.2226  2.0588
10914SOL     OW36333   1.521   4.965   8.235  0.1315 -0.4173 -0.0620
10914SOL    HW136334   1.456   5.030   8.263  0.9641 -0.1725  1.4087
10914SOL    HW236335   1.475   4.881   8.239 -1.3822  0.0731 -3.2803
10915SOL     OW36336   3.266   6.280   1.541 -0.7257  0.2838 -0.4650
10915SOL    HW136337   3.310   6.277   1.626  1.0711 -0.2582 -1.3578
10915SOL    HW236338   3.181   6.319   1.559 -0.3651  0.2356  1.5656
10916SOL     OW36339  10.156   7.865   3.078 -0.1103 -0.0480  0.0430
10916SOL    HW136340  10.229   7.883   3.136 -0.5736 -0.2669  0.7011
10916SOL    HW236341  10.107   7.947   3.074  0.3332  0.1950 -0.6502
10917SOL     OW36342   9.780   4.483   7.466  0.5371  0.4845  0.2808
10917SOL    HW136343   9.724   4.410   7.491  0.2199  0.6904  0.1719
10917SOL    HW236344   9.750   4.508   7.379 -1.1022  2.4193  1.3217
10918SOL     OW36345   0.130   6.066   7.882 -0.2888  0.5322  0.0919
10918SOL    HW136346   0.074   6.141   7.865 -0.2395  0.3902 -0.7400
10918SOL    HW236347   0.173   6.086   7.965 -0.8853  1.0504  0.2784
10919SOL     OW36348   1.366   2.832   6.795 -0.0399 -0.1134  0.1670
10919SOL    HW136349   1.371   2.895   6.867 -2.1952 -0.6331  0.8437
10919SOL    HW236350   1.308   2.873   6.731 -1.7743 -1.4659  0.7823
10920SOL     OW36351   4.731   7.874   1.279 -0.5760  0.1557 -0.1480
10920SOL    HW136352   4.774   7.940   1.334  0.2785 -0.0212 -0.5920
10920SOL    HW236353   4.670   7.830   1.339 -2.4397  2.4436 -0.2184
10921SOL     OW36354   4.325   5.698   3.245  0.0681  0.6421 -0.5408
10921SOL    HW136355   4.309   5.611   3.210 -1.1606  0.9077 -0.7000
10921SOL    HW236356   4.390   5.685   3.313 -1.4954 -0.7260  0.7867
10922SOL     OW36357   9.189   4.257   1.637 -0.2903 -0.0435 -0.0394
10922SOL    HW136358   9.136   4.249   1.716 -2.0943  0.9612 -1.0762
10922SOL    HW236359   9.184   4.350   1.613  2.2369  0.1618 -0.0377
10923SOL     OW36360   0.622   3.016   8.537 -0.0871  0.0473 -0.0875
10923SOL    HW136361   0.623   3.070   8.458  0.4426  0.8059  0.4290
10923SOL    HW236362   0.683   2.945   8.518  2.8583  2.0971  0.8623
10924SOL     OW36363  10.308   1.891   5.694 -0.0602 -0.0856 -0.3635
10924SOL    HW136364  10.218   1.920   5.703 -0.0211 -0.0762 -0.0186
10924SOL    HW236365  10.329   1.907   5.602  0.3383  2.1251  0.0637
10925SOL     OW36366   6.958   8.862   0.367  0.2955 -0.0963 -0.2381
10925SOL    HW136367   7.030   8.867   0.304  1.5316 -2.9785  0.7922
10925SOL    HW236368   6.883   8.831   0.315  0.7872 -0.6143 -0.6496
10926SOL     OW36369   8.290   1.223   0.371 -0.2216  0.0136  0.1473
10926SOL    HW136370   8.223   1.178   0.423 -1.1048  1.5514  0.3788
10926SOL    HW236371   8.368   1.220   0.426  0.0429 -2.0558 -0.2455
10927SOL     OW36372   1.955   3.021   6.736  0.0222 -0.1831 -0.1469
10927SOL    HW136373   1.964   3.048   6.645  3.5765 -0.4878 -0.0444
10927SOL    HW236374   1.868   2.981   6.741 -0.1776 -0.4567 -3.4799
10928SOL     OW36375   0.550   9.706   8.630  0.6387  0.4418 -0.1556
10928SOL    HW136376   0.470   9.719   8.680 -0.1876  0.9093 -1.5601
10928SOL    HW236377   0.554   9.612   8.614 -0.1483  0.5359 -0.9168
10929SOL     OW36378   1.095   3.991   5.345  0.3715  0.2251 -0.8701
10929SOL    HW136379   1.034   3.986   5.419  1.3819  0.3806 -0.0052
10929SOL    HW236380   1.048   4.043   5.279 -0.0730  1.1645  0.1524
10930SOL     OW36381   4.956   5.769   2.143 -0.1936  0.4114 -0.0132
10930SOL    HW136382   4.989   5.841   2.089  0.9276 -0.2207 -0.1844
10930SOL    HW236383   5.033   5.734   2.188 -0.6546 -0.8946 -0.1813
10931SOL     OW36384   9.845  10.385   1.519 -0.3990 -0.2942  0.1876
10931SOL    HW136385   9.750  10.381   1.511 -0.3245  0.2900 -1.3134
10931SOL    HW236386   9.861  10.397   1.613 -1.8726  1.2403  0.2834
10932SOL     OW36387   1.619  10.156   9.448  0.3016 -0.1248  0.6011
10932SOL    HW136388   1.584  10.207   9.375 -0.8533 -0.8496  0.6222
10932SOL    HW236389   1.705  10.127   9.418  0.2516  0.4052 -0.0823
10933SOL     OW36390   6.495   0.475  11.076 -0.3581  0.3903 -0.1358
10933SOL    HW136391   6.463   0.481  10.986  0.3405 -1.7956 -0.5769
10933SOL    HW236392   6.416   0.463  11.128 -0.7815  1.8096 -0.3826
10934SOL     OW36393   5.559   6.365  10.169 -0.0217 -0.4242 -0.0932
10934SOL    HW136394   5.567   6.441  10.112  2.1418  0.8650  1.7516
10934SOL    HW236395   5.493   6.390  10.234 -1.0231 -1.1019 -0.8196
10935SOL     OW36396   3.470   8.960   6.167  0.1379 -0.1709  0.7584
10935SOL    HW136397   3.385   8.919   6.155  0.4572 -0.6153 -0.0189
10935SOL    HW236398   3.533   8.888   6.158  0.7578  0.5845 -1.4174
10936SOL     OW36399   2.928   4.668   4.117  0.0821 -0.0340  0.5460
10936SOL    HW136400   2.836   4.671   4.091 -0.1008 -0.7481  1.0834
10936SOL    HW236401   2.965   4.750   4.083 -0.7500  0.2704  0.3433
10937SOL     OW36402   1.369   5.823   7.008  0.2975 -0.1345  0.0513
10937SOL    HW136403   1.293   5.853   6.957  0.5468  2.5899  1.1287
10937SOL    HW236404   1.333   5.801   7.093  0.5773  0.2602  0.2737
10938SOL     OW36405   7.526   0.403   5.643  0.0705  0.5146 -0.5236
10938SOL    HW136406   7.585   0.341   5.601 -0.1256 -0.6685  0.8786
10938SOL    HW236407   7.580   0.481   5.660  0.5992  0.3326 -1.3188
10939SOL     OW36408   4.084   4.209   8.527  0.4485 -0.0880 -0.0464
10939SOL    HW136409   4.060   4.131   8.476 -0.8328 -0.2164  0.7094
10939SOL    HW236410   4.019   4.275   8.503 -0.1829 -0.1479  1.3776
10940SOL     OW36411   1.849  11.093   9.965  0.1838 -0.5085 -0.1399
10940SOL    HW136412   1.842  11.169  10.023 -0.3623  0.0669 -0.9231
10940SOL    HW236413   1.816  11.020  10.016  0.6607 -0.2101  0.6133
10941SOL     OW36414   0.623   3.186  10.255  0.1771 -0.0587 -0.7447
10941SOL    HW136415   0.575   3.267  10.273  0.9606  0.0088  1.3966
10941SOL    HW236416   0.555   3.120  10.244 -0.4516  0.6664 -1.3985
10942SOL     OW36417   3.335   8.010   3.053  0.5408  0.0412  0.2482
10942SOL    HW136418   3.386   8.045   2.980  1.3069  1.7860  1.5347
10942SOL    HW236419   3.377   8.047   3.131 -1.0994 -0.6221  1.5045
10943SOL     OW36420   4.418   9.421   9.065  0.0615  0.4111 -0.4783
10943SOL    HW136421   4.345   9.378   9.020 -0.5544 -0.1230  0.9737
10943SOL    HW236422   4.382   9.444   9.151  1.2764  1.1737 -0.1558
10944SOL     OW36423   7.716   8.604   9.247 -0.2740 -0.1949 -0.2550
10944SOL    HW136424   7.751   8.517   9.267 -0.8882 -0.2642  0.5716
10944SOL    HW236425   7.793   8.657   9.227  0.0801 -1.0252 -1.2045
10945SOL     OW36426   5.899   4.038   6.497 -0.6525  0.2143 -0.3063
10945SOL    HW136427   5.916   4.065   6.587 -1.2248  0.6191 -0.3178
10945SOL    HW236428   5.816   4.080   6.474 -0.8434 -0.4092 -0.7998
10946SOL     OW36429   7.272   9.497  10.626  0.0902  0.7290 -0.0134
10946SOL    HW136430   7.354   9.521  10.668  0.1469  1.1203 -0.3417
10946SOL    HW236431   7.228   9.581  10.609  0.2442  0.6048 -1.0713
10947SOL     OW36432   4.897   7.607   1.464  0.3458  0.1979 -0.0503
10947SOL    HW136433   4.948   7.541   1.415  0.3665 -0.4685  0.8461
10947SOL    HW236434   4.946   7.688   1.452  1.1128 -0.2441  0.0207
10948SOL     OW36435  10.507   9.820   2.538 -0.2937 -0.4736  0.2039
10948SOL    HW136436  10.518   9.863   2.454  0.1875  0.3064  0.6588
10948SOL    HW236437  10.596   9.811   2.573 -0.4115 -1.5762  0.2476
10949SOL     OW36438   9.892   4.905   7.870 -0.1520 -0.1311  0.2901
10949SOL    HW136439   9.823   4.901   7.804  0.4492 -2.7549 -0.3216
10949SOL    HW236440   9.948   4.830   7.850  1.7029  0.6881  2.0446
10950SOL     OW36441   4.353   7.134   3.811 -0.5393 -0.1621 -0.5732
10950SOL    HW136442   4.355   7.087   3.727  1.7250 -1.5073  0.1378
10950SOL    HW236443   4.439   7.118   3.849 -1.6873 -0.0604  2.2907
10951SOL     OW36444   2.572   3.175   8.948  0.0805 -0.5445 -0.1072
10951SOL    HW136445   2.528   3.136   8.873  1.2781 -1.2322 -0.4767
10951SOL    HW236446   2.542   3.124   9.024  1.2469 -1.9073 -0.5227
10952SOL     OW36447   3.396   1.100   9.784 -0.4099 -0.3882 -0.1881
10952SOL    HW136448   3.455   1.136   9.718  0.4055 -0.7500  0.3369
10952SOL    HW236449   3.322   1.161   9.786  0.6646  0.9327  0.2711
10953SOL     OW36450   8.234   1.742   4.602  0.1125 -0.4490 -0.0668
10953SOL    HW136451   8.214   1.834   4.614 -1.9845 -0.5296 -2.2401
10953SOL    HW236452   8.163   1.696   4.647  0.7598 -1.0153  0.4018
10954SOL     OW36453  10.033   8.168   4.246 -0.3895 -0.2250 -0.1100
10954SOL    HW136454  10.070   8.107   4.310 -1.2216 -0.8712 -0.2251
10954SOL    HW236455  10.100   8.236   4.235 -0.6820  0.5471  2.3261
10955SOL     OW36456   8.691  10.327   9.747  0.1121  0.8488 -0.0427
10955SOL    HW136457   8.727  10.335   9.835  0.2425  0.8573 -0.0968
10955SOL    HW236458   8.714  10.409   9.703 -1.5731  1.6612  0.4970
10956SOL     OW36459   6.215  10.252   4.630  0.2180 -0.3574 -0.1369
10956SOL    HW136460   6.234  10.225   4.540 -0.6313 -1.4219 -0.0158
10956SOL    HW236461   6.275  10.324   4.647  0.4811 -0.2356 -1.5134
10957SOL     OW36462   4.580   1.780   3.817 -0.0364 -0.0790 -0.1428
10957SOL    HW136463   4.561   1.874   3.815  2.0106  0.4210  0.8698
10957SOL    HW236464   4.550   1.752   3.904 -2.0038 -0.7219 -0.9965
10958SOL     OW36465   7.091   5.935   5.417  0.0097 -0.4330 -0.3920
10958SOL    HW136466   7.129   5.921   5.330 -0.8576 -2.0656 -0.5541
10958SOL    HW236467   7.000   5.905   5.409  0.7840 -4.1536  1.8841
10959SOL     OW36468   0.995  10.348  10.997 -0.4639  0.6719  0.2508
10959SOL    HW136469   1.053  10.395  11.058  0.3242 -1.8523  1.6204
10959SOL    HW236470   0.918  10.327  11.050 -0.1159 -0.8667  0.1876
10960SOL     OW36471   6.618   9.192   4.732 -0.1357 -0.0116  0.1346
10960SOL    HW136472   6.559   9.246   4.679 -3.3235 -1.7459  1.6933
10960SOL    HW236473   6.688   9.253   4.758 -1.9958  2.5945 -0.5418
10961SOL     OW36474   7.517   5.886   4.200 -0.3056  0.5712  0.1733
10961SOL    HW136475   7.429   5.879   4.163  0.3999  0.9505 -1.7074
10961SOL    HW236476   7.508   5.859   4.291 -2.4581  1.1233  0.1663
10962SOL     OW36477   5.570   4.962   7.036 -0.6246  0.6947  0.3041
10962SOL    HW136478   5.509   4.890   7.017 -0.3775  0.6703 -0.4251
10962SOL    HW236479   5.625   4.929   7.107 -0.5629  0.1915  0.0279
10963SOL     OW36480   5.602  10.963   3.707 -0.7523 -0.6854  0.0507
10963SOL    HW136481   5.546  10.912   3.649  0.3839 -0.1479 -1.5914
10963SOL    HW236482   5.674  10.903   3.729 -1.6224 -1.1970  1.7226
10964SOL     OW36483   0.407   0.023   3.789  0.2679 -0.3218  0.3620
10964SOL    HW136484   0.483   0.037   3.845  1.8319  0.1892 -1.7417
10964SOL    HW236485   0.332   0.053   3.841  1.7062  0.7907  1.8713
10965SOL     OW36486   6.213   6.357   1.254  0.2443  0.0180  0.6543
10965SOL    HW136487   6.250   6.273   1.280 -0.7522 -0.1242  1.6566
10965SOL    HW236488   6.133   6.335   1.206 -0.0714  0.3879  1.0021
10966SOL     OW36489   1.347   2.274   2.077 -0.3935  0.5947 -0.2240
10966SOL    HW136490   1.290   2.276   2.000 -0.2778 -0.0152 -0.3244
10966SOL    HW236491   1.354   2.182   2.100  1.1872  0.5809 -0.6704
10967SOL     OW36492   0.862   0.122   2.139  0.1927 -0.1600  0.1682
10967SOL    HW136493   0.899   0.107   2.226  1.8321  1.8838 -0.0899
10967SOL    HW236494   0.794   0.056   2.130 -0.5506  0.0251  3.2876
10968SOL     OW36495   9.291   7.280   5.073 -0.0850  0.2189  0.3805
10968SOL    HW136496   9.225   7.253   5.137  0.7013 -0.0993  1.0912
10968SOL    HW236497   9.374   7.273   5.121  0.4680  0.5417 -0.5074
10969SOL     OW36498   7.086  10.610   1.209 -0.6585 -0.1702  0.8665
10969SOL    HW136499   7.073  10.556   1.131  1.8804  1.8032 -1.1181
10969SOL    HW236500   7.006  10.663   1.217 -1.1206 -0.7069 -0.1303
10970SOL     OW36501   8.761   9.337   6.107  0.4655  0.0895  0.4356
10970SOL    HW136502   8.763   9.249   6.070  1.7479  0.9089 -1.6127
10970SOL    HW236503   8.675   9.371   6.082  0.1572 -0.3985  0.8151
10971SOL     OW36504  10.859   3.238   4.915  0.0532  0.1810 -0.4666
10971SOL    HW136505  10.872   3.202   5.003 -0.0823  0.7823 -0.1912
10971SOL    HW236506  10.945   3.233   4.874 -0.0644 -0.8970 -0.6144
10972SOL     OW36507   7.313   7.249  11.065 -0.5091 -0.0272 -0.1768
10972SOL    HW136508   7.341   7.319  11.123 -1.0399  0.8176 -0.9139
10972SOL    HW236509   7.306   7.290  10.979 -1.9209 -0.7013 -0.4189
10973SOL     OW36510   1.559   3.413   7.637 -0.0193 -0.2851  0.1176
10973SOL    HW136511   1.512   3.474   7.694 -0.6626 -1.2115  0.6061
10973SOL    HW236512   1.626   3.374   7.694 -0.3546 -0.8678  0.1120
10974SOL     OW36513  10.742   5.747   5.507 -0.5653  0.2650 -0.3519
10974SOL    HW136514  10.806   5.714   5.570 -1.6453 -0.3600  0.4575
10974SOL    HW236515  10.775   5.833   5.482  0.5625 -0.0255  0.0695
10975SOL     OW36516   9.163   7.411   6.609  0.1666  0.0173 -0.3474
10975SOL    HW136517   9.070   7.419   6.590 -0.1906 -0.0102  1.2875
10975SOL    HW236518   9.178   7.317   6.614 -0.2532  0.0206  1.7127
10976SOL     OW36519   9.275   7.626  10.944  0.1693 -0.0143 -0.0311
10976SOL    HW136520   9.319   7.646  10.861 -1.4284 -0.8315 -1.1233
10976SOL    HW236521   9.238   7.539  10.932  0.6664 -0.5379  1.9024
10977SOL     OW36522  10.109   0.934  10.056  0.7316 -0.0685 -0.3654
10977SOL    HW136523  10.119   0.877  10.132 -0.6681  0.8750  0.5872
10977SOL    HW236524  10.094   0.874   9.983 -1.4455 -0.9865  0.7144
10978SOL     OW36525   7.374   9.694   2.763  0.3203  0.7908 -0.2935
10978SOL    HW136526   7.381   9.753   2.838  0.8103 -0.9289  1.0999
10978SOL    HW236527   7.444   9.722   2.704  0.4008  1.7212  0.2245
10979SOL     OW36528   6.274   0.840   6.787 -0.1582 -0.3794 -0.2748
10979SOL    HW136529   6.328   0.822   6.710  0.1972 -0.0039 -0.1206
10979SOL    HW236530   6.336   0.875   6.851 -0.7114  0.7748 -0.3530
10980SOL     OW36531   0.359   1.158   5.668  0.4581 -0.1701  0.8133
10980SOL    HW136532   0.436   1.214   5.681  1.6780 -1.8995  1.4702
10980SOL    HW236533   0.304   1.174   5.744  0.8868 -0.0004  1.0938
10981SOL     OW36534   4.771   9.226   6.408  0.1581  0.0219 -0.5970
10981SOL    HW136535   4.715   9.173   6.464 -0.2141  0.6109 -0.4082
10981SOL    HW236536   4.782   9.173   6.329 -1.3439  0.2458 -0.9824
10982SOL     OW36537   3.582  10.710   0.144 -0.0777 -0.1446 -0.3533
10982SOL    HW136538   3.528  10.708   0.066 -0.1291  0.7812 -0.3501
10982SOL    HW236539   3.591  10.803   0.165 -0.6548 -0.4028  1.1470
10983SOL     OW36540   8.478   9.670   9.971  0.0396  0.5232 -0.2940
10983SOL    HW136541   8.422   9.608   9.925  0.5984 -0.6934  0.6334
10983SOL    HW236542   8.417   9.729  10.016 -0.4993  1.1019 -1.7067
10984SOL     OW36543   1.047   9.826   4.699 -0.2374  0.1699  1.0726
10984SOL    HW136544   1.086   9.739   4.700  0.4476  0.4614  0.7236
10984SOL    HW236545   1.104   9.878   4.756  0.5644  0.8673 -0.2957
10985SOL     OW36546   0.112   2.648   5.364  0.6079 -0.1392  0.3703
10985SOL    HW136547   0.024   2.613   5.377  0.4461  0.6957  1.6068
10985SOL    HW236548   0.105   2.701   5.284 -0.5849  1.6812  1.6211
10986SOL     OW36549   9.039   9.510   7.621  0.6580 -0.0519 -0.4767
10986SOL    HW136550   9.108   9.518   7.555 -0.8655  0.6436 -2.0936
10986SOL    HW236551   9.030   9.598   7.657 -0.7322  0.3687 -1.7700
10987SOL     OW36552  10.144   1.318   6.502  0.1404 -0.2863  0.6226
10987SOL    HW136553  10.172   1.288   6.415 -0.5126 -0.6729  0.5383
10987SOL    HW236554  10.220   1.363   6.538 -0.0536  1.3001 -0.8065
10988SOL     OW36555   0.788   7.772   9.989  0.0249  0.0846  0.1292
10988SOL    HW136556   0.802   7.791   9.896 -0.8612 -0.6206 -0.1618
10988SOL    HW236557   0.808   7.679   9.998 -1.5632 -0.2666  0.2725
10989SOL     OW36558   1.361   2.711   0.409 -0.5292  0.0057 -1.0676
10989SOL    HW136559   1.326   2.798   0.388  0.1350  0.3910 -0.6093
10989SOL    HW236560   1.437   2.701   0.351  0.6177  0.5939  0.2850
10990SOL     OW36561   2.450  10.524   8.293  0.2586 -0.0907 -0.2405
10990SOL    HW136562   2.437  10.595   8.230  1.3251  0.6461  0.3346
10990SOL    HW236563   2.389  10.543   8.364 -0.3743 -0.4772 -0.6727
10991SOL     OW36564   2.199   9.048   5.371 -0.8347 -0.1535  0.1607
10991SOL    HW136565   2.131   9.089   5.424 -1.0424 -1.8792  1.3293
10991SOL    HW236566   2.249   9.120   5.335 -3.0252  1.1803 -0.4100
10992SOL     OW36567   2.138   6.662   0.965 -0.1973 -0.1130 -0.4550
10992SOL    HW136568   2.147   6.733   0.901  0.1162 -0.2379 -0.5513
10992SOL    HW236569   2.228   6.632   0.980  0.0271  1.4291  1.7977
10993SOL     OW36570   7.934   9.149   5.742 -0.2119 -0.0351 -0.0881
10993SOL    HW136571   7.941   9.101   5.825  2.0531 -0.7486 -0.6185
10993SOL    HW236572   7.914   9.081   5.677 -0.1029  0.2203 -0.3928
10994SOL     OW36573   7.832   5.981   8.309 -0.0889 -0.3868  0.3764
10994SOL    HW136574   7.854   6.038   8.383  1.2906  0.6955 -0.8191
10994SOL    HW236575   7.915   5.966   8.265 -0.4609 -3.0947  0.4422
10995SOL     OW36576   4.627   2.528   0.066  0.1305  0.1264 -0.1968
10995SOL    HW136577   4.722   2.523   0.059  0.0615 -3.8248 -0.2694
10995SOL    HW236578   4.597   2.546  -0.023  0.7698  0.7689 -0.2889
10996SOL     OW36579   1.475   0.957   4.455  0.1301 -0.0158  0.2807
10996SOL    HW136580   1.505   0.976   4.367 -0.3231 -0.2626  0.0693
10996SOL    HW236581   1.402   0.895   4.443 -0.1905  0.2514  0.7997
10997SOL     OW36582   8.315   4.779  10.447  0.0661 -0.0232  0.4012
10997SOL    HW136583   8.244   4.824  10.491 -0.2199 -1.1896  1.1782
10997SOL    HW236584   8.394   4.826  10.474 -0.4307  1.7976 -1.1277
10998SOL     OW36585   9.988   8.496   4.118 -0.1788 -0.3158  0.4009
10998SOL    HW136586   9.982   8.432   4.048 -0.3997  0.3271 -0.1799
10998SOL    HW236587  10.075   8.482   4.156 -1.2835 -2.9539  2.2725
10999SOL     OW36588   0.525   0.483   4.156  0.0764  0.0585  0.4717
10999SOL    HW136589   0.556   0.418   4.219  1.2922  1.4474  1.3895
10999SOL    HW236590   0.581   0.559   4.171 -1.6587  1.5381 -0.1472
11000SOL     OW36591  10.571   0.899   0.876  0.1794 -0.3760 -0.3250
11000SOL    HW136592  10.606   0.973   0.827  0.1840  0.8410  1.4088
11000SOL    HW236593  10.632   0.889   0.950 -1.6124  0.0973  1.3044
11001SOL     OW36594   5.722   0.997   3.683  0.1820 -0.6113 -0.3801
11001SOL    HW136595   5.663   0.924   3.667  1.6127 -1.6411 -1.1157
11001SOL    HW236596   5.732   1.040   3.598 -2.0768  1.6664  0.3441
11002SOL     OW36597   1.236   8.264   4.110  0.5727  0.5412 -0.4630
11002SOL    HW136598   1.241   8.170   4.096  1.3017 -0.1158  3.1420
11002SOL    HW236599   1.150   8.278   4.152 -0.6454  1.9607 -3.1644
11003SOL     OW36600   3.220   6.454   8.837 -0.0193 -0.5603  0.2679
11003SOL    HW136601   3.127   6.473   8.849  0.0162 -0.4529  0.3859
11003SOL    HW236602   3.227   6.416   8.750  0.0033  0.6410 -0.2629
11004SOL     OW36603   3.372   0.494   8.062  0.3181  0.5478 -0.3944
11004SOL    HW136604   3.309   0.423   8.048 -0.4298  1.0360  0.4196
11004SOL    HW236605   3.427   0.464   8.135 -0.9608  1.4046  0.9762
11005SOL     OW36606   0.332   8.600   1.606 -0.1491  0.1328  0.4116
11005SOL    HW136607   0.414   8.553   1.616 -0.4989 -0.6027 -0.0720
11005SOL    HW236608   0.297   8.570   1.522 -0.7902  0.6267  0.4911
11006SOL     OW36609   3.886   3.671   0.595 -0.3075  0.6235  0.4003
11006SOL    HW136610   3.813   3.609   0.593 -2.1145  2.6078  0.2624
11006SOL    HW236611   3.958   3.625   0.553 -1.5973 -1.2948  0.1627
11007SOL     OW36612   4.167   0.743   6.867 -0.0004 -0.2027  0.2927
11007SOL    HW136613   4.222   0.683   6.917  1.4052  1.8237  1.3266
11007SOL    HW236614   4.225   0.815   6.843 -1.5208  0.6090 -1.2191
11008SOL     OW36615   3.810   0.829   7.062 -0.8320 -0.8977 -0.1579
11008SOL    HW136616   3.722   0.812   7.028 -0.3768  0.2685 -2.0274
11008SOL    HW236617   3.821   0.764   7.132 -2.8544 -1.5913 -0.4107
11009SOL     OW36618   5.545   2.540   9.710  0.1392  0.1811 -0.3228
11009SOL    HW136619   5.502   2.520   9.793 -0.6091  0.0996 -0.7160
11009SOL    HW236620   5.516   2.629   9.688  1.0753  0.5688 -0.0491
11010SOL     OW36621   5.372   4.499   7.779 -0.0147  0.1095  0.3871
11010SOL    HW136622   5.418   4.576   7.811 -0.7915  0.4996  0.5754
11010SOL    HW236623   5.388   4.500   7.684  1.0965 -0.2632  0.5471
11011SOL     OW36624  10.336   4.363   7.682 -0.0449  0.7508 -0.2571
11011SOL    HW136625  10.271   4.410   7.631 -0.7682  0.3717  0.3033
11011SOL    HW236626  10.295   4.348   7.767  0.1725 -0.8508 -0.3971
11012SOL     OW36627   8.581   9.405  11.052  0.0591 -0.1644  0.3353
11012SOL    HW136628   8.577   9.413  11.147 -1.0280 -0.7787  0.3550
11012SOL    HW236629   8.661   9.356  11.035  0.1332 -0.2552  0.9515
11013SOL     OW36630   4.329   5.842   9.144  0.3692  0.3075 -0.0484
11013SOL    HW136631   4.372   5.866   9.226  0.2345 -1.4362  0.5807
11013SOL    HW236632   4.363   5.755   9.124 -3.1371 -1.4817  0.7897
11014SOL     OW36633   6.113   2.150   2.592 -0.1773  0.6704 -0.0402
11014SOL    HW136634   6.090   2.117   2.506  2.6649  0.9195 -0.9955
11014SOL    HW236635   6.128   2.244   2.579  1.2033  0.5498  0.4616
11015SOL     OW36636   2.968   9.117   3.580  0.0604  0.6126 -0.2658
11015SOL    HW136637   2.900   9.183   3.572 -0.8860 -0.1911  0.7715
11015SOL    HW236638   2.922   9.033   3.573  0.9670  0.0527  0.1591
11016SOL     OW36639   7.542   5.067   4.443 -0.5476  0.0349  0.0671
11016SOL    HW136640   7.579   4.983   4.471  0.4298  0.2337 -0.5771
11016SOL    HW236641   7.467   5.043   4.389 -0.3730 -0.4195  0.0227
11017SOL     OW36642   5.261   0.314   4.550  0.9569  0.3516 -0.3233
11017SOL    HW136643   5.212   0.275   4.623  0.5426  0.4668 -0.5362
11017SOL    HW236644   5.338   0.258   4.541  0.6194 -0.1291 -0.3010
11018SOL     OW36645   7.017   0.201   3.722 -0.2046  0.6451 -0.7509
11018SOL    HW136646   6.957   0.217   3.795 -0.5218  1.6360 -1.2094
11018SOL    HW236647   7.004   0.276   3.664 -1.3075 -0.9882 -2.7311
11019SOL     OW36648   3.104   5.582   6.438 -0.4010  0.1443  0.1449
11019SOL    HW136649   3.161   5.536   6.376  0.8894  0.0144  1.3896
11019SOL    HW236650   3.045   5.514   6.471 -0.2112 -0.0694  0.0454
11020SOL     OW36651   8.410   9.341   2.344 -0.1354  0.1399 -0.5069
11020SOL    HW136652   8.371   9.280   2.282  0.3059 -0.2826 -0.3759
11020SOL    HW236653   8.336   9.374   2.395 -0.2544 -1.2050  0.2316
11021SOL     OW36654   4.969  10.978   2.151 -0.2289 -0.0290 -0.5456
11021SOL    HW136655   5.056  10.955   2.117 -0.7218 -0.1731 -1.7763
11021SOL    HW236656   4.940  11.051   2.096 -1.4467 -0.8906 -1.1084
11022SOL     OW36657   7.905   0.475   1.807  0.3860 -0.1804 -0.3421
11022SOL    HW136658   7.850   0.469   1.885  0.6654  0.8642 -0.0437
11022SOL    HW236659   7.994   0.487   1.841  0.3972  1.2253 -0.7991
11023SOL     OW36660  10.164   7.402   9.422  0.9650  0.4150 -0.2126
11023SOL    HW136661  10.101   7.470   9.447  1.2758  0.5674  0.1725
11023SOL    HW236662  10.159   7.399   9.326  0.6489  0.6918 -0.2081
11024SOL     OW36663   1.386   8.518  10.939  0.9076 -0.4999  0.0937
11024SOL    HW136664   1.310   8.563  10.976  0.9788 -0.3448  0.0538
11024SOL    HW236665   1.377   8.427  10.968  0.4328 -0.5921 -0.3326
11025SOL     OW36666   6.990   5.927   6.213 -0.0315  0.1663 -0.2187
11025SOL    HW136667   6.928   5.880   6.268  0.7255  0.7715  1.2040
11025SOL    HW236668   6.986   5.882   6.128 -0.2384 -1.6711  0.7138
11026SOL     OW36669   7.407   7.023   6.130  0.4572  0.5286  0.8153
11026SOL    HW136670   7.352   7.099   6.112  0.3296  0.3317  0.3731
11026SOL    HW236671   7.496   7.058   6.130  0.5496  0.3847 -1.1601
11027SOL     OW36672   9.829   2.932   2.509 -0.8509  0.1556 -0.1783
11027SOL    HW136673   9.812   3.025   2.499 -1.6132 -0.0901 -1.3874
11027SOL    HW236674   9.904   2.915   2.452  1.3955  0.5799  2.4740
11028SOL     OW36675   2.203  10.368   8.926  0.4293 -0.4859  0.1813
11028SOL    HW136676   2.162  10.282   8.930 -0.0024 -0.2370  2.2231
11028SOL    HW236677   2.142  10.427   8.971  1.3296  0.6217  0.0182
11029SOL     OW36678   8.588   6.631   6.609  0.2996 -0.0462 -0.1292
11029SOL    HW136679   8.561   6.581   6.686  1.9260 -1.4217 -0.3987
11029SOL    HW236680   8.556   6.719   6.625 -1.6900 -0.9085  0.8835
11030SOL     OW36681   0.066   8.755   1.009  0.1998  0.2703  0.5801
11030SOL    HW136682  -0.029   8.743   1.008  0.0335  1.4779  0.4580
11030SOL    HW236683   0.078   8.850   0.999  1.4460 -0.0113 -0.9256
11031SOL     OW36684   8.540   8.772   0.566 -0.0931  0.1676  0.6046
11031SOL    HW136685   8.526   8.790   0.473 -0.4135  0.1930  0.6574
11031SOL    HW236686   8.554   8.859   0.604 -1.7534  0.3390  0.8787
11032SOL     OW36687   0.792   8.080   9.654  0.0184 -0.6808 -0.4673
11032SOL    HW136688   0.726   8.149   9.664  0.3282 -0.2547 -1.2501
11032SOL    HW236689   0.740   7.999   9.645 -0.3726 -0.4524 -0.2711
11033SOL     OW36690  10.781   3.386   1.662 -0.2169  0.0399 -0.3794
11033SOL    HW136691  10.735   3.380   1.579 -0.2691 -1.2282 -0.2671
11033SOL    HW236692  10.799   3.296   1.687  0.7533  0.4412  0.4616
11034SOL     OW36693   9.721  10.977   4.463  0.0057 -0.0334  0.2462
11034SOL    HW136694   9.719  11.005   4.555  2.6666  0.4020  0.2515
11034SOL    HW236695   9.776  11.043   4.420  1.0385 -1.6853 -1.0821
11035SOL     OW36696   8.252   6.530   8.126  0.0331  0.4469  0.2109
11035SOL    HW136697   8.347   6.532   8.115  0.0193  0.5991  0.1213
11035SOL    HW236698   8.227   6.440   8.104 -0.0058  0.7709 -1.1304
11036SOL     OW36699   7.064   2.018   5.358  0.5274  0.0202  0.3954
11036SOL    HW136700   6.983   1.997   5.404 -0.1093  0.3117 -0.5757
11036SOL    HW236701   7.073   2.113   5.369 -0.9852  0.5526 -2.1504
11037SOL     OW36702   6.759   6.944   1.789  0.0989  0.1397  0.1001
11037SOL    HW136703   6.821   6.970   1.721  0.0326  0.3351  0.1145
11037SOL    HW236704   6.746   7.023   1.842 -0.1858  0.1090  0.0777
11038SOL     OW36705   6.150   8.451   6.125  0.3796 -0.0727 -0.5692
11038SOL    HW136706   6.074   8.404   6.090 -0.5905  1.2619 -0.3163
11038SOL    HW236707   6.183   8.394   6.194 -2.5598  0.8200  1.7776
11039SOL     OW36708   9.345   1.274  11.036  0.1602 -0.3366  0.5561
11039SOL    HW136709   9.302   1.355  11.066 -2.3135 -1.1594 -0.5275
11039SOL    HW236710   9.398   1.247  11.111 -1.5939  0.5246  2.2077
11040SOL     OW36711   3.056   4.300   9.534  0.6410 -0.1140 -0.3859
11040SOL    HW136712   3.072   4.390   9.563 -0.0730  0.3613 -1.4147
11040SOL    HW236713   3.056   4.305   9.439  0.0479 -1.1074 -0.4475
11041SOL     OW36714   8.512   0.797   2.747 -0.1960 -0.5734  0.3507
11041SOL    HW136715   8.491   0.712   2.786  1.0461 -0.4519  1.3673
11041SOL    HW236716   8.580   0.777   2.683  0.6632 -0.2772  1.1436
11042SOL     OW36717   3.146   2.134   3.799  0.0216  0.1574 -0.6025
11042SOL    HW136718   3.136   2.055   3.746 -0.5284  1.1176 -1.9911
11042SOL    HW236719   3.239   2.155   3.795  0.3816 -1.0429  0.7491
11043SOL     OW36720   3.908   6.991  10.753 -0.4030 -0.1026 -0.0532
11043SOL    HW136721   3.902   7.032  10.667  1.3420  1.5639  0.5462
11043SOL    HW236722   3.945   6.904  10.736  0.4673  0.4238 -0.9629
11044SOL     OW36723   5.927   7.283  10.377  0.2458 -0.1204 -0.5846
11044SOL    HW136724   5.832   7.295  10.375  0.1575  1.3690  3.6110
11044SOL    HW236725   5.940   7.193  10.406  0.2323 -0.5982 -1.9552
11045SOL     OW36726   0.077   6.140   3.244 -0.0328 -0.1540  0.0254
11045SOL    HW136727   0.151   6.163   3.301  1.3580 -1.7716 -1.0308
11045SOL    HW236728   0.075   6.045   3.244 -1.9236 -0.1425 -0.2695
11046SOL     OW36729   6.034   5.653   5.496  0.1106 -0.4181 -0.8183
11046SOL    HW136730   6.063   5.744   5.486 -0.0354 -0.0104  1.8141
11046SOL    HW236731   6.070   5.608   5.420  1.0749  1.6320 -1.6422
11047SOL     OW36732  10.053   1.566   6.674 -0.3690 -0.4250  0.2538
11047SOL    HW136733   9.957   1.568   6.674 -0.5467 -2.3198  3.2377
11047SOL    HW236734  10.075   1.473   6.677  1.6986 -0.0956 -1.7172
11048SOL     OW36735   5.314   7.395   1.000  0.2590  0.3203  0.1024
11048SOL    HW136736   5.236   7.361   1.044 -0.3686  1.1725 -0.3301
11048SOL    HW236737   5.284   7.473   0.954  1.7508  1.7143  1.3858
11049SOL     OW36738   2.718   4.769  10.881 -0.2699  0.4035 -0.5994
11049SOL    HW136739   2.670   4.709  10.824  0.4278  1.8561 -2.8471
11049SOL    HW236740   2.785   4.714  10.923 -0.6302 -0.6630 -1.3722
11050SOL     OW36741   5.861   8.104   4.163 -0.6705 -0.2523 -0.2167
11050SOL    HW136742   5.880   8.034   4.225  0.8271 -2.2485 -2.7175
11050SOL    HW236743   5.782   8.146   4.197 -1.3180 -2.7951  1.6916
11051SOL     OW36744   9.695   0.255   6.506 -0.0584  0.9878  0.5439
11051SOL    HW136745   9.724   0.170   6.540 -2.4731 -0.4749 -0.7183
11051SOL    HW236746   9.607   0.266   6.542 -0.1449  2.5110 -0.0686
11052SOL     OW36747   4.005   0.595  10.925  0.5345  0.0189 -0.0525
11052SOL    HW136748   3.935   0.618  10.865 -0.2429 -0.1128  0.7936
11052SOL    HW236749   3.961   0.574  11.007  1.3179 -2.7209 -0.2370
11053SOL     OW36750   4.071   4.320   2.422  0.0273 -0.3360  0.5368
11053SOL    HW136751   4.159   4.325   2.459 -0.2622  1.2811  1.0814
11053SOL    HW236752   4.084   4.333   2.328  0.3215  0.5807  0.6955
11054SOL     OW36753   6.977   1.753   5.665 -0.1978  0.5063 -0.6259
11054SOL    HW136754   7.006   1.752   5.756  0.6772  1.8433 -0.8555
11054SOL    HW236755   7.016   1.675   5.626 -2.2217 -1.2123  0.5684
11055SOL     OW36756   2.749   9.869  10.035 -0.0252  0.2080  0.6957
11055SOL    HW136757   2.706   9.932   9.977  0.8248 -1.0133 -1.3880
11055SOL    HW236758   2.698   9.789  10.025  0.2815 -0.0911  1.4741
11056SOL     OW36759   7.531   1.027   9.943  0.4128  0.3092 -0.6779
11056SOL    HW136760   7.447   1.007   9.902  2.1194  0.6884 -4.8088
11056SOL    HW236761   7.528   1.122   9.956 -0.7404  0.0123  1.8891
11057SOL     OW36762   5.303   3.715   4.857 -0.1568  0.0180  0.4161
11057SOL    HW136763   5.238   3.765   4.907 -0.4110  0.7470 -0.6013
11057SOL    HW236764   5.256   3.684   4.780  0.5835  0.1856 -0.1181
11058SOL     OW36765   4.927   9.421   0.469  0.5813 -0.6170  0.2112
11058SOL    HW136766   4.873   9.439   0.547  2.1840  2.4804  0.7280
11058SOL    HW236767   4.925   9.325   0.461 -1.9694 -0.8648  2.3232
11059SOL     OW36768   9.105   6.842   8.460 -0.4228 -0.2334  0.0871
11059SOL    HW136769   9.029   6.798   8.422 -0.6506 -0.2735  0.5874
11059SOL    HW236770   9.117   6.920   8.406 -1.7707  0.5998  0.9341
11060SOL     OW36771   7.211   0.744   9.494  0.7921 -0.7273  0.0974
11060SOL    HW136772   7.141   0.696   9.538  1.3929 -0.8295  0.9828
11060SOL    HW236773   7.272   0.676   9.465  0.9444 -0.5935  0.1006
11061SOL     OW36774   3.760   6.746   5.630  0.4918 -0.0564 -0.4863
11061SOL    HW136775   3.816   6.721   5.556  1.3649 -2.0750  0.7743
11061SOL    HW236776   3.812   6.810   5.678  1.1949 -0.9242 -0.0544
11062SOL     OW36777   1.054   0.781  10.640 -0.4227  0.2539  0.3851
11062SOL    HW136778   1.060   0.822  10.553 -0.1717 -0.9880 -0.2097
11062SOL    HW236779   0.965   0.745  10.642 -0.6230  0.7595  0.8843
11063SOL     OW36780   3.128   2.109  11.011  0.2064 -0.5374  0.3103
11063SOL    HW136781   3.076   2.149  10.942 -0.1743 -0.2397  0.7706
11063SOL    HW236782   3.158   2.182  11.065 -0.8989 -0.8767  1.4359
11064SOL     OW36783   8.984   0.238   5.263  0.2556 -0.0158  0.4369
11064SOL    HW136784   8.891   0.245   5.283  0.3458  1.3346  0.4328
11064SOL    HW236785   9.028   0.271   5.341  0.8276 -2.4645  1.2628
11065SOL     OW36786   0.740   9.189   0.803 -0.5047  0.5503 -0.5133
11065SOL    HW136787   0.825   9.205   0.762 -0.7870 -0.6833 -1.6342
11065SOL    HW236788   0.679   9.243   0.752 -0.3704  1.6941  0.4996
11066SOL     OW36789   1.045   7.270   3.544 -0.3575  0.2931  0.2194
11066SOL    HW136790   1.125   7.225   3.572  0.0061  0.8284  0.0648
11066SOL    HW236791   1.075   7.358   3.519 -0.9139  0.3291 -0.3371
11067SOL     OW36792   4.466   5.929   1.521  0.0512  0.1997  0.5509
11067SOL    HW136793   4.405   5.916   1.594  0.2269  0.5244  0.7586
11067SOL    HW236794   4.516   6.007   1.546  0.7319 -0.2201  0.4995
11068SOL     OW36795   5.059   5.495   4.792 -0.2654  0.2774  0.1519
11068SOL    HW136796   5.146   5.532   4.780 -0.1928 -0.2009 -0.9615
11068SOL    HW236797   5.055   5.471   4.884  0.7185  0.4789  0.2535
11069SOL     OW36798  10.194   3.326   3.777  0.1182 -0.0243  0.3271
11069SOL    HW136799  10.130   3.347   3.709 -0.3810 -0.3296  0.6938
11069SOL    HW236800  10.203   3.407   3.828  0.1316  0.0586  0.1947
11070SOL     OW36801   1.873   3.568   6.333  0.0458 -0.4294  0.0019
11070SOL    HW136802   1.886   3.474   6.346 -0.4558 -0.1994  2.8755
11070SOL    HW236803   1.788   3.574   6.290  1.2312 -1.3062 -2.6494
11071SOL     OW36804   9.630   0.604   7.503  0.5188  0.1326 -0.5956
11071SOL    HW136805   9.597   0.518   7.477 -0.6139  0.2075  0.4715
11071SOL    HW236806   9.647   0.650   7.421  0.8906 -1.0141 -1.1759
11072SOL     OW36807   1.518   8.322   4.011 -0.1771 -0.0548 -0.0599
11072SOL    HW136808   1.559   8.376   4.079 -0.5482 -0.0731  0.1798
11072SOL    HW236809   1.425   8.342   4.018 -0.0197  2.0289 -2.3222
11073SOL     OW36810  10.895   7.822   9.349  0.3914  0.0660  0.2886
11073SOL    HW136811  10.823   7.770   9.314  0.5679 -0.4581  0.6880
11073SOL    HW236812  10.954   7.757   9.388  1.2658  0.4481 -0.3529
11074SOL     OW36813  10.861   2.854   7.611  0.3578  0.2826  0.1248
11074SOL    HW136814  10.786   2.799   7.633  1.5019 -1.9708 -1.1975
11074SOL    HW236815  10.932   2.820   7.666  1.4910 -0.7573 -1.8629
11075SOL     OW36816   3.996   4.187   0.458  0.0808  0.2391 -0.1296
11075SOL    HW136817   3.944   4.123   0.410  0.2944  1.3399 -1.9182
11075SOL    HW236818   4.043   4.236   0.390  1.5773  0.8803  1.2956
11076SOL     OW36819   8.428   9.287   3.454  0.5894  0.1731  0.2461
11076SOL    HW136820   8.505   9.230   3.446  0.3706  0.0436 -1.1825
11076SOL    HW236821   8.381   9.254   3.531  0.6595 -1.3441 -0.3449
11077SOL     OW36822   8.579   2.551   9.294  0.1985  0.3917 -0.5573
11077SOL    HW136823   8.573   2.645   9.277 -0.2996  0.4011 -0.3314
11077SOL    HW236824   8.488   2.521   9.298  0.3570 -0.1028 -0.6513
11078SOL     OW36825  10.108   6.836  10.579 -0.3076 -0.2940  0.0664
11078SOL    HW136826  10.115   6.923  10.539 -0.8829 -0.2536  0.0405
11078SOL    HW236827  10.197   6.803  10.581 -0.2868 -0.3546 -1.3613
11079SOL     OW36828   0.006   1.163   4.397  0.4748  0.4800 -0.0270
11079SOL    HW136829  -0.026   1.233   4.341 -1.2223  0.7622  1.2306
11079SOL    HW236830   0.047   1.208   4.471  3.9386  0.1357 -1.5523
11080SOL     OW36831   0.616   6.465  10.235 -0.2166  0.1645 -0.3580
11080SOL    HW136832   0.624   6.373  10.261 -1.4166 -0.2486 -1.3307
11080SOL    HW236833   0.559   6.504  10.301  0.9268  0.4266  0.4989
11081SOL     OW36834  10.703  11.065   2.015 -0.3204  0.3443  0.2310
11081SOL    HW136835  10.685  10.986   2.066  0.7051 -0.3467 -0.4476
11081SOL    HW236836  10.662  11.049   1.930  0.7067  0.1260 -0.2298
11082SOL     OW36837   6.592   9.779   4.963 -0.2821  0.7523 -0.1478
11082SOL    HW136838   6.684   9.764   4.984 -0.3156  0.9010  0.1095
11082SOL    HW236839   6.549   9.696   4.984  0.0585  0.0912 -1.9049
11083SOL     OW36840   0.839   3.456   3.031  0.1038  0.1265  0.4370
11083SOL    HW136841   0.898   3.531   3.027 -1.3210  1.2617 -0.4283
11083SOL    HW236842   0.756   3.492   3.064 -0.5056 -1.1408  0.3695
11084SOL     OW36843   7.979   7.498   5.134 -0.1156  0.0944 -0.2907
11084SOL    HW136844   8.000   7.405   5.134 -1.2716 -0.1801  0.2803
11084SOL    HW236845   8.036   7.535   5.066  0.0382 -1.0941 -0.8362
11085SOL     OW36846   3.864   0.505  10.450 -0.3022  0.5766  0.1236
11085SOL    HW136847   3.918   0.554  10.388  0.9890 -0.7929  0.0886
11085SOL    HW236848   3.869   0.414  10.419  0.5252 -0.1886  2.2781
11086SOL     OW36849   6.049   5.614  10.760 -0.5982  0.7571 -0.4281
11086SOL    HW136850   6.069   5.520  10.759  0.5100  0.7988  3.0263
11086SOL    HW236851   6.095   5.649  10.684  1.2677 -1.1446 -0.2782
11087SOL     OW36852   4.237   1.898   2.237 -0.7940 -0.5252  0.3120
11087SOL    HW136853   4.192   1.826   2.280 -2.1849 -0.8278 -1.5271
11087SOL    HW236854   4.175   1.930   2.171  1.5092 -0.7444 -2.1316
11088SOL     OW36855   1.028   3.903   6.639  0.5597 -0.1570  0.6242
11088SOL    HW136856   1.070   3.963   6.577  2.5222  0.1761  2.1498
11088SOL    HW236857   1.050   3.815   6.607  1.1172  0.0043  0.5567
11089SOL     OW36858   5.605   3.257   9.082 -0.5633  0.3437  0.5156
11089SOL    HW136859   5.621   3.220   9.170 -0.4816  0.6103  0.6131
11089SOL    HW236860   5.595   3.351   9.097  1.3823  0.6698  0.0158
11090SOL     OW36861   4.052   0.311   8.216 -0.8119 -0.6465  0.3501
11090SOL    HW136862   4.086   0.325   8.127 -1.9525 -0.2009 -0.0319
11090SOL    HW236863   4.094   0.231   8.245 -0.1305 -0.6003 -0.4468
11091SOL     OW36864  10.262   5.547   4.024 -0.2708 -0.2741 -0.7672
11091SOL    HW136865  10.270   5.488   4.099 -1.1713  2.0123  1.2338
11091SOL    HW236866  10.352   5.556   3.992  0.2799 -0.6472  0.5738
11092SOL     OW36867   9.508   9.730   7.830 -0.0844  0.3994  0.0768
11092SOL    HW136868   9.449   9.701   7.900  0.4108  2.7654  1.6072
11092SOL    HW236869   9.530   9.820   7.854  2.9281  0.1309 -1.2875
11093SOL     OW36870  10.685   1.230   0.358  0.1647  0.6203  0.3225
11093SOL    HW136871  10.713   1.298   0.420  0.6350 -0.3315  1.1804
11093SOL    HW236872  10.765   1.184   0.334 -0.2998 -0.4759  0.8012
11094SOL     OW36873  10.750   3.878   5.042 -0.1412  0.5596  0.3054
11094SOL    HW136874  10.800   3.959   5.032  1.2665 -0.2067  0.8444
11094SOL    HW236875  10.745   3.865   5.136 -2.5161  1.2698  0.3374
11095SOL     OW36876   4.483   6.368  10.042 -0.1940 -0.5326  0.2526
11095SOL    HW136877   4.509   6.280  10.014 -0.6728 -1.2470  1.9085
11095SOL    HW236878   4.553   6.395  10.102 -0.6383 -0.2900  0.6710
11096SOL     OW36879   8.543   1.858   0.260 -0.0575  1.1427 -0.1246
11096SOL    HW136880   8.614   1.902   0.214 -0.6352 -0.1951 -2.4826
11096SOL    HW236881   8.538   1.772   0.218 -3.0778  1.2148 -0.0936
11097SOL     OW36882   2.283   7.238   8.777  0.2669 -0.0747 -0.1607
11097SOL    HW136883   2.215   7.210   8.838  0.2224  0.8771  0.2399
11097SOL    HW236884   2.236   7.289   8.711  0.7628  1.9722  0.9916
11098SOL     OW36885   7.939   4.042   0.119 -0.1299 -0.3082  0.6217
11098SOL    HW136886   7.919   3.949   0.118  1.0702 -0.5770 -0.1774
11098SOL    HW236887   7.936   4.069   0.027  0.2738  0.2664  0.7688
11099SOL     OW36888   5.631   4.546   9.234  0.6642 -0.9855 -0.0365
11099SOL    HW136889   5.678   4.483   9.289  0.6624 -0.3871  0.6493
11099SOL    HW236890   5.658   4.523   9.145 -0.2701 -2.7594  0.0810
11100SOL     OW36891   6.503   7.036   1.215  1.3806  0.6261  0.5056
11100SOL    HW136892   6.423   6.988   1.193  2.4600 -1.0961  0.1453
11100SOL    HW236893   6.532   6.998   1.298  0.7946  2.6402  1.6968
11101SOL     OW36894   4.868   4.135  10.257 -0.4163 -0.0856 -0.3997
11101SOL    HW136895   4.911   4.053  10.233 -1.2505 -0.0679 -2.1390
11101SOL    HW236896   4.779   4.109  10.282 -0.3942  0.2018 -0.0105
11102SOL     OW36897   9.156   3.253   4.466  0.1745  0.2240 -0.1432
11102SOL    HW136898   9.128   3.300   4.387 -0.0170 -0.2572 -0.3586
11102SOL    HW236899   9.251   3.243   4.455  0.3511  1.2799  0.2871
11103SOL     OW36900   9.516   3.103   9.016  0.5319 -0.4916 -0.2431
11103SOL    HW136901   9.555   3.057   9.090  0.1656  0.6360  0.6853
11103SOL    HW236902   9.550   3.193   9.023 -1.0892  0.1522 -0.2353
11104SOL     OW36903   5.050   4.102  10.484 -0.0516  0.1358 -0.5311
11104SOL    HW136904   5.008   4.111  10.569  0.2128 -0.9337 -0.2779
11104SOL    HW236905   4.982   4.126  10.421 -1.5878 -2.8906 -0.2133
11105SOL     OW36906  10.991   1.439   2.742 -0.4358  0.8259  0.0873
11105SOL    HW136907  10.978   1.344   2.737  0.5744  0.7299 -1.6009
11105SOL    HW236908  10.904   1.476   2.727 -1.0670  0.2039  1.9058
11106SOL     OW36909   2.207   1.057   5.466 -0.2641  0.1258 -0.3898
11106SOL    HW136910   2.246   1.065   5.379  1.4315  0.8336  0.3972
11106SOL    HW236911   2.281   1.040   5.524 -1.2462  0.6255  1.0502
11107SOL     OW36912   6.527   9.714   1.065  0.4191 -0.3677  0.0834
11107SOL    HW136913   6.531   9.730   0.971  0.3799  0.4060  0.2125
11107SOL    HW236914   6.591   9.774   1.103  1.1163 -1.3165  0.4799
11108SOL     OW36915   8.785  11.109   6.251 -0.4322  0.2305 -0.2788
11108SOL    HW136916   8.874  11.098   6.217 -0.7286 -1.7776 -0.5150
11108SOL    HW236917   8.733  11.133   6.175 -0.3290  0.0774 -0.3968
11109SOL     OW36918   0.823   0.466   7.927 -0.1301  0.5330 -0.3368
11109SOL    HW136919   0.845   0.486   7.836 -0.8656  0.4280 -0.5439
11109SOL    HW236920   0.904   0.430   7.964 -0.0651 -0.2337 -1.1894
11110SOL     OW36921   7.483   5.572   4.540 -0.4802  0.0940 -0.2121
11110SOL    HW136922   7.418   5.513   4.502 -1.1678  0.4038  0.4466
11110SOL    HW236923   7.556   5.516   4.564 -1.1620 -0.5128  0.4854
11111SOL     OW36924   5.598   0.898   9.640 -0.0362  0.0248  0.6396
11111SOL    HW136925   5.586   0.935   9.552  0.1265 -1.3642  0.0163
11111SOL    HW236926   5.528   0.833   9.649  0.8769 -0.9420  0.9206
11112SOL     OW36927   6.549   2.251   2.659  0.4149 -0.2798  0.2110
11112SOL    HW136928   6.521   2.342   2.660 -0.3609 -0.4894  2.3550
11112SOL    HW236929   6.596   2.238   2.741 -0.4236 -2.0639  0.4728
11113SOL     OW36930   2.996  10.093   4.434 -0.1124  0.8474  0.2005
11113SOL    HW136931   3.071  10.119   4.381 -0.2850  1.8430  0.4161
11113SOL    HW236932   3.000   9.998   4.437  0.3534  0.8151 -0.9293
11114SOL     OW36933   5.322   9.002   9.232 -0.1579  0.2380 -0.2988
11114SOL    HW136934   5.318   8.932   9.297 -1.1092  0.3711 -0.1991
11114SOL    HW236935   5.261   9.068   9.264  1.0441  1.3244 -0.1636
11115SOL     OW36936  10.263   4.967   7.572  0.1044  0.0373  0.1605
11115SOL    HW136937  10.308   4.997   7.652 -0.9559 -0.8127  1.1030
11115SOL    HW236938  10.172   4.994   7.584 -0.3689 -1.3897 -0.0735
11116SOL     OW36939   3.875   0.721   6.392  0.4040 -0.0898 -0.0330
11116SOL    HW136940   3.921   0.681   6.467  0.3171 -0.4237 -0.1582
11116SOL    HW236941   3.814   0.654   6.363 -0.0471  0.2917  0.0229
11117SOL     OW36942   9.125   0.125   9.258  0.4812 -0.1670 -0.3720
11117SOL    HW136943   9.084   0.072   9.327 -0.8885  1.5370  0.1892
11117SOL    HW236944   9.217   0.132   9.286  0.4160 -1.1793  0.1738
11118SOL     OW36945   0.614  11.070   2.578 -0.1374  0.5128  0.2123
11118SOL    HW136946   0.543  11.010   2.598  0.2951 -0.6786 -1.5835
11118SOL    HW236947   0.670  11.022   2.516  1.5739  1.8531  0.6337
11119SOL     OW36948   4.902   5.995  10.902 -0.3850 -0.1026 -0.2984
11119SOL    HW136949   4.823   6.048  10.910  0.1484  0.9133 -1.4287
11119SOL    HW236950   4.957   6.024  10.975 -0.8434 -0.4494  0.1896
11120SOL     OW36951   2.050   2.595   6.123  0.1611 -0.1457 -0.1500
11120SOL    HW136952   2.052   2.598   6.027  1.1818  0.5007 -0.1304
11120SOL    HW236953   2.021   2.683   6.148  0.3523 -0.1647  0.1371
11121SOL     OW36954   5.506   9.504   5.797 -0.0512 -0.4430 -0.0810
11121SOL    HW136955   5.512   9.513   5.892 -0.2408 -0.1157 -0.0970
11121SOL    HW236956   5.568   9.434   5.775 -0.1781 -0.6755  0.3069
11122SOL     OW36957   6.728   0.427  10.394  0.1978  0.4179  0.7119
11122SOL    HW136958   6.818   0.458  10.396  0.5540 -0.5789  1.0504
11122SOL    HW236959   6.734   0.337  10.361 -0.4628 -0.2499  2.2901
11123SOL     OW36960   8.795   9.699   6.872  0.9039  0.7258  0.1921
11123SOL    HW136961   8.828   9.780   6.912 -2.1643  1.7724  0.8761
11123SOL    HW236962   8.717   9.677   6.923  0.4844 -1.5480 -1.2741
11124SOL     OW36963   7.544   2.122   8.688 -0.7517 -0.1251  0.0071
11124SOL    HW136964   7.618   2.076   8.729  0.7008  0.0933 -2.1916
11124SOL    HW236965   7.506   2.173   8.759 -0.2513 -2.0120  1.7437
11125SOL     OW36966  10.807   2.183   2.878 -0.0784  0.2005  0.2283
11125SOL    HW136967  10.732   2.221   2.833 -0.1837 -1.1736 -0.8238
11125SOL    HW236968  10.882   2.236   2.850 -0.5371  1.1287  0.7213
11126SOL     OW36969   6.256   8.042   8.843  0.5850  0.1056 -0.1045
11126SOL    HW136970   6.341   8.085   8.854  1.5415 -1.2261 -1.7970
11126SOL    HW236971   6.215   8.088   8.769 -0.5992  1.2971  1.2223
11127SOL     OW36972   3.368   5.345  10.383 -0.2895 -0.4252 -0.0835
11127SOL    HW136973   3.328   5.308  10.304  0.6211 -1.8035  0.0665
11127SOL    HW236974   3.461   5.350  10.363 -0.0276 -0.8944  0.9342
11128SOL     OW36975   1.187   7.554   2.844  0.3495 -0.5076  0.6849
11128SOL    HW136976   1.151   7.475   2.802 -0.3764  0.4443 -0.5813
11128SOL    HW236977   1.279   7.534   2.859  0.2969 -1.4146 -0.1022
11129SOL     OW36978   7.034   5.577   8.399 -0.0595 -0.5236 -0.1835
11129SOL    HW136979   7.117   5.568   8.447  0.5420 -1.6181 -1.3519
11129SOL    HW236980   7.061   5.595   8.309 -1.1035 -0.5571 -0.5098
11130SOL     OW36981   1.406   3.031   6.991 -0.3049  0.0744 -0.3747
11130SOL    HW136982   1.474   3.064   6.933  1.7084 -3.0543 -0.0313
11130SOL    HW236983   1.422   3.075   7.075  0.7922 -0.0143 -0.5322
11131SOL     OW36984   1.707   8.531   2.470  0.2261  0.3394  0.3647
11131SOL    HW136985   1.613   8.516   2.456  0.1324  1.8303 -0.8490
11131SOL    HW236986   1.710   8.582   2.551 -0.1953  1.8474 -0.5282
11132SOL     OW36987   5.904  10.593   7.417  0.3249  0.5945  0.0617
11132SOL    HW136988   5.971  10.542   7.462  0.8361  0.4726 -0.7972
11132SOL    HW236989   5.872  10.655   7.482  2.1153  1.4456  0.1919
11133SOL     OW36990   2.588   1.012   1.317  0.2012 -0.1006 -0.4335
11133SOL    HW136991   2.653   1.072   1.351  0.5481  0.3131 -1.7696
11133SOL    HW236992   2.619   0.991   1.228 -1.0912 -0.4652 -0.8172
11134SOL     OW36993   1.320  10.138   5.825  0.0332  0.8053  0.5860
11134SOL    HW136994   1.330  10.224   5.786  2.0130  0.6274  0.5838
11134SOL    HW236995   1.232  10.138   5.863 -1.1593  1.7482 -1.9526
11135SOL     OW36996   9.249  10.709   6.877  0.7502 -0.7177  0.2371
11135SOL    HW136997   9.195  10.725   6.799  2.0181  1.3012 -0.2875
11135SOL    HW236998   9.339  10.716   6.846  1.2954  1.2559  2.0289
11136SOL     OW36999   3.465   6.323  10.208  0.6336 -0.0378  0.2817
11136SOL    HW137000   3.556   6.327  10.177  0.9623  0.0090  1.2387
11136SOL    HW237001   3.471   6.286  10.295 -0.2673  0.0647  0.3929
11137SOL     OW37002   8.803   2.206   6.845 -0.4230 -0.0827  0.0960
11137SOL    HW137003   8.762   2.137   6.792  0.0572 -0.0234 -0.3613
11137SOL    HW237004   8.890   2.217   6.807  0.3032 -0.7231  1.5128
11138SOL     OW37005   7.290   5.194   8.701 -0.3887 -0.3711 -0.0386
11138SOL    HW137006   7.245   5.139   8.765 -1.1327  0.2128 -0.0519
11138SOL    HW237007   7.354   5.135   8.661  0.1597 -0.7278  1.2891
11139SOL     OW37008   9.253   3.057   3.819  0.3033  0.1299 -0.2387
11139SOL    HW137009   9.173   3.108   3.830  0.5684  0.2510  1.3796
11139SOL    HW237010   9.251   2.993   3.890  3.0917  2.1430  1.8896
11140SOL     OW37011   8.472   7.124   1.686 -0.0142 -0.1012  0.0480
11140SOL    HW137012   8.465   7.056   1.619  1.0725  1.1670 -1.4285
11140SOL    HW237013   8.388   7.123   1.732 -0.9964 -0.6510 -1.7103
11141SOL     OW37014   3.024   9.496   1.954  0.0151 -0.3339 -0.0319
11141SOL    HW137015   3.071   9.519   2.034 -1.4862 -3.7315  2.0533
11141SOL    HW237016   2.961   9.567   1.942  1.3310  1.0312  0.8650
11142SOL     OW37017  10.671   0.041   7.032  0.0386 -0.0378  0.0555
11142SOL    HW137018  10.618   0.117   7.008  1.3158  0.8524 -0.1170
11142SOL    HW237019  10.750   0.079   7.072  0.6250 -1.2831  0.1398
11143SOL     OW37020   4.392   7.993   7.053 -0.4233  0.1411 -0.1076
11143SOL    HW137021   4.327   8.026   7.115  2.3131  0.0185  3.1123
11143SOL    HW237022   4.386   7.898   7.061 -0.1314  0.1202 -0.1347
11144SOL     OW37023   7.731   0.015  10.525 -0.3568  0.1017  0.3732
11144SOL    HW137024   7.756  -0.068  10.484  0.4688  0.3124  0.4229
11144SOL    HW237025   7.767   0.010  10.614 -0.1214  0.5941  0.3096
11145SOL     OW37026   7.032   2.240   7.840  0.0367 -0.2540 -0.4851
11145SOL    HW137027   6.953   2.225   7.892  0.0632 -1.3107 -0.7275
11145SOL    HW237028   7.000   2.250   7.750  0.1003  0.2889 -0.4500
11146SOL     OW37029  10.012   9.782   3.292 -0.4874  0.5692  0.1317
11146SOL    HW137030  10.089   9.743   3.334 -2.0978 -2.7002  0.3629
11146SOL    HW237031  10.006   9.737   3.208 -1.0385  2.3055 -0.8166
11147SOL     OW37032   2.573   0.558   4.333  0.6226 -0.0771 -0.0281
11147SOL    HW137033   2.498   0.502   4.351  0.3724 -0.2994 -1.6825
11147SOL    HW237034   2.613   0.572   4.419  0.3208 -2.2537  0.5143
11148SOL     OW37035   0.127   0.549   3.943  0.0498  0.2170  0.4072
11148SOL    HW137036   0.164   0.583   3.862  2.6377 -1.4464  0.7975
11148SOL    HW237037   0.096   0.461   3.920 -1.9033  0.7863  0.6139
11149SOL     OW37038   3.282   7.088   6.676  0.2705  0.2344  0.4367
11149SOL    HW137039   3.281   6.993   6.675 -0.0329  0.2260 -0.9271
11149SOL    HW237040   3.267   7.112   6.767 -2.6537 -0.9902  0.3732
11150SOL     OW37041   1.714   4.961  10.005 -0.2063 -0.1709 -1.1386
11150SOL    HW137042   1.762   4.941  10.086 -0.3177  2.1975 -0.3997
11150SOL    HW237043   1.725   4.883   9.951 -1.0407 -2.3120  1.5384
11151SOL     OW37044   4.862   5.587   1.610 -1.1598 -0.3022  0.3258
11151SOL    HW137045   4.803   5.662   1.601 -0.8729  0.0666  1.4453
11151SOL    HW237046   4.904   5.599   1.695  1.4309  0.0726 -0.9292
11152SOL     OW37047   7.936   9.126   1.855 -0.3615  0.1501 -0.3510
11152SOL    HW137048   7.891   9.062   1.799 -1.9845  0.2820  0.7265
11152SOL    HW237049   7.960   9.077   1.933 -1.1885  0.7139  0.2775
11153SOL     OW37050   9.396   3.307   7.748  0.0718 -0.4667 -0.1621
11153SOL    HW137051   9.407   3.307   7.653 -2.2604  1.2080 -0.5519
11153SOL    HW237052   9.473   3.352   7.782 -0.1806  1.0697 -1.5255
11154SOL     OW37053   0.161   7.861   3.426  0.1932 -0.1186 -0.2876
11154SOL    HW137054   0.195   7.772   3.419  0.0724 -0.1159 -1.0316
11154SOL    HW237055   0.085   7.854   3.484  1.4005 -0.1263  1.3646
11155SOL     OW37056   5.839   5.568  11.023  0.3760  0.7401 -0.0963
11155SOL    HW137057   5.873   5.489  10.981  2.0518  1.3173  0.0805
11155SOL    HW237058   5.916   5.611  11.060 -0.5193  2.3234  0.0573
11156SOL     OW37059   4.437   4.832   9.082 -0.3518  0.4132  0.1433
11156SOL    HW137060   4.491   4.764   9.042 -0.0397 -0.4198  1.8568
11156SOL    HW237061   4.450   4.910   9.028 -1.6622 -1.1448 -2.6264
11157SOL     OW37062   2.248   2.095  10.764 -0.8687  0.4186 -0.0078
11157SOL    HW137063   2.172   2.150  10.781 -1.5733 -0.6216  0.3226
11157SOL    HW237064   2.212   2.013  10.731 -0.1795 -1.1853  2.8243
11158SOL     OW37065   9.367   9.899   0.382  0.1685 -0.0372  0.5195
11158SOL    HW137066   9.291   9.866   0.334  1.1872 -1.7440 -0.0208
11158SOL    HW237067   9.436   9.906   0.316  1.0616 -0.5651  1.3585
11159SOL     OW37068   8.911   3.454   8.938 -0.5610 -0.2735  0.4244
11159SOL    HW137069   8.828   3.454   8.985 -1.1841  0.9367 -0.5924
11159SOL    HW237070   8.918   3.366   8.902 -1.7214 -0.2303  0.0286
11160SOL     OW37071   0.800   0.377   4.924 -0.1939 -0.1113  0.5068
11160SOL    HW137072   0.819   0.377   4.830 -2.4700 -2.6697 -0.0734
11160SOL    HW237073   0.729   0.440   4.935  0.2285  0.3579  0.5610
11161SOL     OW37074   4.789   1.547   1.456 -0.2501 -0.5502  0.7265
11161SOL    HW137075   4.737   1.554   1.376  0.3938 -2.1297  0.1207
11161SOL    HW237076   4.726   1.520   1.524 -0.4590 -1.2495  0.2683
11162SOL     OW37077   4.879   7.488   2.935  0.6685  0.5561 -0.0540
11162SOL    HW137078   4.951   7.530   2.888 -0.2267  1.3393 -0.7748
11162SOL    HW237079   4.900   7.499   3.027  0.9523  1.7088 -0.2445
11163SOL     OW37080   1.023   4.525   5.487 -0.4813 -0.2395  0.0808
11163SOL    HW137081   1.067   4.464   5.428 -0.7748  0.4945 -0.9126
11163SOL    HW237082   1.050   4.612   5.458  2.1250  0.1713  3.1781
11164SOL     OW37083   9.091   5.671   0.516 -0.4263 -0.2421 -0.2442
11164SOL    HW137084   9.053   5.716   0.591 -1.2329 -0.2979 -0.6042
11164SOL    HW237085   9.094   5.579   0.542 -2.7299 -0.6155 -1.0231
11165SOL     OW37086   1.639   9.417   2.336  0.1217 -0.0237  0.1093
11165SOL    HW137087   1.647   9.322   2.327  0.8788 -0.1015  1.3544
11165SOL    HW237088   1.549   9.431   2.367  0.3251 -0.4247  0.9037
11166SOL     OW37089   6.391   5.635   1.842 -0.1372  0.6775  0.3022
11166SOL    HW137090   6.310   5.590   1.863 -0.2165  0.2182 -0.8742
11166SOL    HW237091   6.376   5.671   1.754  1.4739 -0.8238 -0.6568
11167SOL     OW37092   0.350   1.851   0.028  0.1635  0.6570  0.0839
11167SOL    HW137093   0.258   1.857   0.054 -0.2178 -1.6641 -0.4599
11167SOL    HW237094   0.394   1.917   0.081 -1.7826  1.7546  0.4502
11168SOL     OW37095   2.255   5.988   0.588 -0.0690  0.4840 -0.1046
11168SOL    HW137096   2.222   6.046   0.519 -1.5051 -0.4756 -0.2692
11168SOL    HW237097   2.314   5.929   0.542  1.9626  2.1602  0.1783
11169SOL     OW37098  10.264   9.963  10.837  0.2145  0.2008  0.3038
11169SOL    HW137099  10.250   9.869  10.825  0.2860  0.1806  0.3738
11169SOL    HW237100  10.307   9.992  10.757 -1.2611  0.4848 -0.4303
11170SOL     OW37101   6.641   9.840   2.776  0.7597 -0.3800 -0.5599
11170SOL    HW137102   6.659   9.926   2.738 -0.4447 -0.2873 -0.9400
11170SOL    HW237103   6.637   9.856   2.870 -2.6166  0.6387 -0.7681
11171SOL     OW37104   3.569   7.929   9.193  0.1505  0.1381 -0.4268
11171SOL    HW137105   3.570   7.944   9.099 -1.3593 -1.6143 -0.7712
11171SOL    HW237106   3.476   7.918   9.215  0.3280  1.8862  1.5327
11172SOL     OW37107   0.927   8.294   6.190  0.1219 -0.2717  0.5067
11172SOL    HW137108   0.910   8.311   6.282  0.2884  2.7808  0.0727
11172SOL    HW237109   0.841   8.271   6.153 -0.1157 -0.5539  1.2203
11173SOL     OW37110  10.455   0.931   5.577 -0.2510  0.6772  0.0800
11173SOL    HW137111  10.420   0.957   5.662  0.2642  2.2193 -0.1437
11173SOL    HW237112  10.534   0.984   5.566  1.3849 -1.6125 -0.0878
11174SOL     OW37113   3.851   5.065   0.535 -0.0954  0.2309 -0.1592
11174SOL    HW137114   3.866   4.991   0.477  2.0369  0.2078  0.3296
11174SOL    HW237115   3.843   5.140   0.477 -1.3186 -0.2168 -0.6064
11175SOL     OW37116   7.300   3.208   3.104 -0.1620  0.5696  0.3585
11175SOL    HW137117   7.374   3.202   3.044 -0.2054  0.7310  0.2880
11175SOL    HW237118   7.304   3.298   3.138  0.4212  0.1920  1.3191
11176SOL     OW37119   7.503   7.816   6.536  0.1241 -0.9890  0.0649
11176SOL    HW137120   7.516   7.725   6.511  1.1400 -1.0708  0.8602
11176SOL    HW237121   7.579   7.862   6.500  0.9681 -0.9017  1.8597
11177SOL     OW37122   6.355   0.535   0.195  0.4450  0.2419  0.5650
11177SOL    HW137123   6.262   0.522   0.213 -0.2444  1.8766 -1.3125
11177SOL    HW237124   6.360   0.627   0.168  2.5241  0.0238  0.0990
11178SOL     OW37125   2.901   3.526   8.887  0.5905  0.3201  0.7688
11178SOL    HW137126   2.979   3.537   8.942  1.6112 -0.8533 -0.3623
11178SOL    HW237127   2.829   3.560   8.940  1.6470  0.0387  2.4790
11179SOL     OW37128   5.139   2.700   9.579  0.1320  0.1333 -0.1985
11179SOL    HW137129   5.138   2.604   9.588 -0.3911  0.1317 -0.2514
11179SOL    HW237130   5.061   2.729   9.626  0.8202  0.6151  0.6853
11180SOL     OW37131   1.148   9.230  10.411  0.6306 -0.6167  0.1569
11180SOL    HW137132   1.243   9.226  10.425  0.9234  0.2870 -1.2998
11180SOL    HW237133   1.122   9.314  10.448  1.1969  1.1812 -3.1561
11181SOL     OW37134  10.765   5.436   6.028 -0.8552  0.0147 -0.0569
11181SOL    HW137135  10.814   5.445   6.110 -0.3807  0.7703 -0.4126
11181SOL    HW237136  10.681   5.398   6.055 -0.1701 -1.1141  0.5894
11182SOL     OW37137   4.081   7.148   1.412 -0.5534  0.0290 -0.4667
11182SOL    HW137138   4.085   7.195   1.495 -0.8668  0.1098 -0.4995
11182SOL    HW237139   4.033   7.206   1.354  0.9865  0.6725 -1.1653
11183SOL     OW37140   6.160   4.684   1.672 -0.0698  0.5168  0.4758
11183SOL    HW137141   6.117   4.770   1.670  1.2650  1.1971 -1.4789
11183SOL    HW237142   6.219   4.689   1.747  1.3118  2.0434 -0.6368
11184SOL     OW37143   0.395   1.549   2.715  0.5279 -0.6966 -0.5044
11184SOL    HW137144   0.461   1.531   2.648  1.5867  0.5959  0.1571
11184SOL    HW237145   0.374   1.642   2.704 -1.6927 -1.2050 -1.1164
11185SOL     OW37146   7.442  10.257   0.769  0.0448 -0.2945 -0.0464
11185SOL    HW137147   7.447  10.162   0.778  0.8696 -0.2468  0.0257
11185SOL    HW237148   7.348  10.277   0.776 -0.1771 -1.1437 -0.5042
11186SOL     OW37149   9.314   5.767   4.697 -0.2107  0.3877 -0.4944
11186SOL    HW137150   9.247   5.819   4.653 -1.9389 -1.0519  0.3081
11186SOL    HW237151   9.392   5.777   4.643 -1.9158 -0.4379 -3.3323
11187SOL     OW37152   2.351   5.704   2.014 -0.1393  0.4648 -0.3653
11187SOL    HW137153   2.442   5.714   1.986 -0.1915  3.6078  0.3181
11187SOL    HW237154   2.315   5.792   2.015 -2.4483 -0.3540  1.9411
11188SOL     OW37155   4.756  10.857   5.985  0.5198  0.8046  0.3868
11188SOL    HW137156   4.812  10.880   6.059  0.4845  0.7254  0.4391
11188SOL    HW237157   4.668  10.881   6.014  0.6231  1.6814 -0.0096
11189SOL     OW37158   5.218   6.417   3.914  0.3366  0.3480 -0.9763
11189SOL    HW137159   5.177   6.380   3.992  1.8504  1.0284  0.1877
11189SOL    HW237160   5.262   6.343   3.873 -0.1637  0.0565 -0.9938
11190SOL     OW37161   7.261   8.461   1.948 -0.5217  0.1501  0.3149
11190SOL    HW137162   7.287   8.411   2.025 -0.0710 -0.1831 -0.0552
11190SOL    HW237163   7.189   8.411   1.910 -0.0518 -0.2411 -0.0719
11191SOL     OW37164   1.190   2.526   7.166 -0.1262 -0.1587 -0.4644
11191SOL    HW137165   1.134   2.456   7.201  0.9546 -1.8518 -1.9179
11191SOL    HW237166   1.178   2.520   7.071  1.2884  0.4886 -0.7056
11192SOL     OW37167   5.704   1.071   0.544  0.3242  0.0024 -0.7010
11192SOL    HW137168   5.628   1.042   0.494  1.6985 -0.9984 -2.3119
11192SOL    HW237169   5.674   1.074   0.634 -1.1821 -1.9602 -1.0821
11193SOL     OW37170  10.879   5.543   7.687 -0.2381 -0.5421 -0.3187
11193SOL    HW137171  10.927   5.623   7.709 -2.5394  0.3679  1.9114
11193SOL    HW237172  10.939   5.494   7.630  1.8280  2.0804 -0.6085
11194SOL     OW37173   0.295   6.626   7.390  0.0702  0.1689 -0.2788
11194SOL    HW137174   0.303   6.588   7.477 -0.8514  0.6036  0.0074
11194SOL    HW237175   0.335   6.713   7.398  2.9255 -0.9241 -1.1358
11195SOL     OW37176   5.883   4.272   0.058  0.1867 -0.2546  0.1664
11195SOL    HW137177   5.978   4.285   0.060  0.0640  0.7019  0.2017
11195SOL    HW237178   5.847   4.350   0.101 -0.6453 -0.2203 -0.5636
11196SOL     OW37179   6.081  10.649   2.334  0.3613  0.3658  0.2243
11196SOL    HW137180   6.116  10.662   2.422  1.0674 -1.6722  0.3057
11196SOL    HW237181   6.022  10.574   2.342  1.3948 -0.6771 -1.2041
11197SOL     OW37182   0.737   6.651   3.040 -0.0889 -0.1397 -0.4636
11197SOL    HW137183   0.653   6.627   3.001 -0.2314  0.9887 -0.8675
11197SOL    HW237184   0.730   6.624   3.132 -0.1812 -1.7614 -0.9066
11198SOL     OW37185   1.391   3.948   2.636  0.2643  0.1138 -0.4432
11198SOL    HW137186   1.326   4.003   2.680 -0.4671 -0.4946 -0.7463
11198SOL    HW237187   1.430   4.004   2.570  0.7436  0.7712  0.3722
11199SOL     OW37188   3.067   3.697   4.133 -0.2661  0.3287  0.4146
11199SOL    HW137189   3.071   3.650   4.050  1.1970 -1.1792  1.2834
11199SOL    HW237190   3.086   3.788   4.110  2.7767 -0.4470 -0.6808
11200SOL     OW37191   6.078   8.762   2.605  0.2181  0.2189  0.0333
11200SOL    HW137192   6.006   8.711   2.643  0.4691 -0.8643 -0.8800
11200SOL    HW237193   6.114   8.812   2.678 -2.3014  1.8496  0.2950
11201SOL     OW37194   9.955   2.906   4.950  0.0691  0.3559  0.5034
11201SOL    HW137195   9.948   2.944   4.863 -0.8826 -2.1928 -0.6446
11201SOL    HW237196  10.049   2.903   4.968  0.2662  1.1148 -0.3227
11202SOL     OW37197   3.186   1.496   9.142 -0.5407  0.3738  0.1219
11202SOL    HW137198   3.099   1.471   9.112 -0.6990  1.8374 -0.7574
11202SOL    HW237199   3.174   1.583   9.182  0.1115 -0.4459  2.2644
11203SOL     OW37200   1.498   3.870   5.921  0.4703 -0.0537 -0.2558
11203SOL    HW137201   1.563   3.800   5.929 -0.6730 -1.3430 -1.6630
11203SOL    HW237202   1.432   3.834   5.862 -0.0395  2.3364 -1.2232
11204SOL     OW37203   2.074   8.876  10.407 -0.0785  0.4886 -0.2844
11204SOL    HW137204   2.116   8.829  10.335  2.5651  0.5240  1.1008
11204SOL    HW237205   2.031   8.807  10.458 -0.7633  0.2888 -1.1126
11205SOL     OW37206   5.409   8.861   4.183 -0.1375 -0.3294 -0.2279
11205SOL    HW137207   5.443   8.785   4.231  0.8964  0.4104  0.2417
11205SOL    HW237208   5.314   8.850   4.185 -0.0557 -0.9344  0.9515
11206SOL     OW37209   7.811   1.249   7.194  0.2123  0.3876  0.9209
11206SOL    HW137210   7.886   1.305   7.215  1.2835 -0.7989  0.3917
11206SOL    HW237211   7.809   1.184   7.264  0.0876  0.0173  0.5788
11207SOL     OW37212   6.898   9.466  10.629  0.8284  0.5342  0.1431
11207SOL    HW137213   6.852   9.387  10.599  1.9615  0.5685 -1.8387
11207SOL    HW237214   6.843   9.539  10.600  1.4014  0.5351 -0.9920
11208SOL     OW37215  10.408   2.108   2.601 -0.0850  0.0948 -0.1774
11208SOL    HW137216  10.503   2.104   2.613 -0.2745 -2.0385  0.9347
11208SOL    HW237217  10.397   2.137   2.510  1.6089  0.1647 -0.3963
11209SOL     OW37218   0.220   1.654   4.148  0.4604  0.0552 -0.0747
11209SOL    HW137219   0.315   1.671   4.143  0.3375  1.1762  0.8755
11209SOL    HW237220   0.180   1.736   4.120 -0.1858  0.6814  2.4460
11210SOL     OW37221  10.920   9.894   7.605 -0.3292 -0.0932 -0.1082
11210SOL    HW137222  10.927   9.897   7.700  0.1703 -0.7548 -0.1151
11210SOL    HW237223  10.994   9.841   7.577 -1.2597 -1.0898 -0.7680
11211SOL     OW37224   1.640   1.136   0.174 -0.5248 -0.0681 -0.2447
11211SOL    HW137225   1.597   1.112   0.256  0.7595  0.0677  0.4982
11211SOL    HW237226   1.649   1.053   0.126 -0.1790 -0.3585  0.3099
11212SOL     OW37227   1.310   0.425   9.054 -0.2008 -0.2072 -0.4815
11212SOL    HW137228   1.315   0.520   9.068 -0.7663  0.1208 -2.2347
11212SOL    HW237229   1.220   0.402   9.078  0.1047 -0.4168  0.4946
11213SOL     OW37230   4.110   0.556   0.493 -0.1018  0.4641  0.0395
11213SOL    HW137231   4.078   0.635   0.448  1.3225  0.4743 -1.0211
11213SOL    HW237232   4.156   0.507   0.425 -0.6480 -1.1196  0.7811
11214SOL     OW37233   3.454   2.255   5.957  0.1354 -0.1794 -0.1331
11214SOL    HW137234   3.454   2.312   5.880 -0.5525  1.7256  1.2205
11214SOL    HW237235   3.529   2.197   5.943  1.1167  1.3046 -1.3902
11215SOL     OW37236   5.603   6.915   1.766 -0.3179  0.0227  0.0814
11215SOL    HW137237   5.564   6.917   1.678  0.1260 -0.4289 -0.1336
11215SOL    HW237238   5.607   6.822   1.789 -2.2505  0.2246  1.4330
11216SOL     OW37239   0.124   2.959   3.718 -0.1534  0.0045 -0.2615
11216SOL    HW137240   0.056   3.001   3.770 -0.6853  0.9739 -1.6849
11216SOL    HW237241   0.109   2.865   3.731  1.1271  0.1007  3.0568
11217SOL     OW37242   5.037   3.984   4.779  0.0070 -0.1368  0.5309
11217SOL    HW137243   5.080   3.961   4.862  1.6110  1.3371  0.1627
11217SOL    HW237244   5.049   4.079   4.772 -0.3957 -0.1944 -1.2410
11218SOL     OW37245   4.315   3.214   5.472  0.1094  0.6265  0.2570
11218SOL    HW137246   4.367   3.290   5.447  1.5654 -0.2010  0.5915
11218SOL    HW237247   4.227   3.233   5.442  0.4589  2.3989  0.2721
11219SOL     OW37248   4.987   7.722   0.803 -0.3026 -0.3396 -0.4141
11219SOL    HW137249   4.953   7.767   0.880  0.3343 -1.9684  0.8860
11219SOL    HW237250   4.980   7.786   0.733 -1.4340  1.0133  0.8658
11220SOL     OW37251   1.220   9.922   3.515 -0.0794  0.0435 -0.5808
11220SOL    HW137252   1.227   9.959   3.603 -1.2194  2.2837 -1.3609
11220SOL    HW237253   1.303   9.943   3.473 -0.4310  1.0953 -0.7723
11221SOL     OW37254   3.511   7.547  10.983 -0.5016 -0.5116  0.4722
11221SOL    HW137255   3.511   7.452  10.993 -0.1527 -0.7482 -1.4338
11221SOL    HW237256   3.592   7.567  10.936 -1.5078  0.4658 -0.9644
11222SOL     OW37257  10.734   9.637   4.220  0.3900 -0.3388 -0.1063
11222SOL    HW137258  10.745   9.648   4.125 -0.8173 -1.4197 -0.4062
11222SOL    HW237259  10.823   9.637   4.255  1.0075 -2.0192 -1.5135
11223SOL     OW37260   7.691   3.999   6.431 -0.6633  0.0758 -0.1945
11223SOL    HW137261   7.660   4.019   6.342  1.3705  3.8717 -0.2785
11223SOL    HW237262   7.785   3.982   6.420  0.0051  2.3349  1.2679
11224SOL     OW37263   8.775   2.689   0.466 -0.3860 -0.0106 -0.2447
11224SOL    HW137264   8.701   2.646   0.509 -1.0545  1.0288 -0.3035
11224SOL    HW237265   8.750   2.781   0.463  0.2896  0.1534 -1.5479
11225SOL     OW37266   7.745   8.054   8.552  0.0261  0.2084  0.2346
11225SOL    HW137267   7.738   7.959   8.541 -0.6050  0.1507  1.0330
11225SOL    HW237268   7.828   8.067   8.599  0.9093  0.1913 -1.2493
11226SOL     OW37269   2.262   1.653   7.376  0.0791  0.1170  0.5715
11226SOL    HW137270   2.224   1.717   7.436  0.0826 -0.5026  1.2521
11226SOL    HW237271   2.191   1.633   7.314 -0.8818 -1.2793  2.0242
11227SOL     OW37272   8.008   1.661   7.446  0.2124  0.2823  0.1847
11227SOL    HW137273   7.976   1.733   7.498  1.1902  1.0368 -0.2178
11227SOL    HW237274   8.071   1.701   7.385  0.8628 -0.9107  0.0328
11228SOL     OW37275   0.790  10.930   1.169  0.7890 -0.9227 -0.1099
11228SOL    HW137276   0.725  10.953   1.102 -0.7741  0.8703  1.8744
11228SOL    HW237277   0.748  10.862   1.221  0.4137  0.3075  1.2400
11229SOL     OW37278   6.267   7.146   6.047  0.3563 -0.1481 -0.2649
11229SOL    HW137279   6.219   7.227   6.065  1.5874  0.8749 -1.3598
11229SOL    HW237280   6.348   7.155   6.096 -0.8237 -2.2651  2.2993
11230SOL     OW37281  10.373   3.448   4.956  0.3772  0.0855  0.5553
11230SOL    HW137282  10.323   3.385   4.904 -0.9277  1.9701 -0.5787
11230SOL    HW237283  10.448   3.471   4.901 -1.0160  2.0972 -0.5837
11231SOL     OW37284   7.012   0.696   5.132  0.0074 -0.4178 -0.2145
11231SOL    HW137285   7.086   0.658   5.085 -0.3320 -0.6312 -0.5806
11231SOL    HW237286   7.034   0.686   5.225  0.8043  0.2522 -0.3186
11232SOL     OW37287   0.765   6.944   3.294 -0.4653  0.1414 -0.1548
11232SOL    HW137288   0.793   6.988   3.375 -2.3679 -0.3924  0.8481
11232SOL    HW237289   0.776   6.851   3.312 -1.3542 -0.0019 -0.3214
11233SOL     OW37290   1.678   6.450   7.500  0.7158 -0.0863  0.4162
11233SOL    HW137291   1.687   6.546   7.496  0.9123 -0.1332 -0.2759
11233SOL    HW237292   1.586   6.435   7.481  0.8499 -0.0788 -0.2568
11234SOL     OW37293   6.712   8.458   1.708 -0.1878  0.6346  0.0464
11234SOL    HW137294   6.684   8.385   1.763  2.0782  1.1072  1.9674
11234SOL    HW237295   6.786   8.424   1.659  0.0079  1.2520 -0.0970
11235SOL     OW37296  10.304   5.933  10.688  0.3834 -0.1302  0.2042
11235SOL    HW137297  10.215   5.900  10.698 -0.0301  0.7241 -0.5264
11235SOL    HW237298  10.322   5.980  10.769 -0.9848  2.2549 -0.7515
11236SOL     OW37299  10.637   7.712   9.540 -0.0444  0.1167 -0.1237
11236SOL    HW137300  10.676   7.630   9.510 -1.7179 -0.3892 -1.0429
11236SOL    HW237301  10.543   7.695   9.542 -0.3405  1.6544  0.8432
11237SOL     OW37302   8.191   8.355   7.119  0.0120 -0.3311 -0.3770
11237SOL    HW137303   8.261   8.348   7.055 -0.5042 -0.2125 -0.9585
11237SOL    HW237304   8.208   8.284   7.181  1.4966  0.5844  0.3341
11238SOL     OW37305   7.814   7.338   9.656  0.8408 -0.2640  0.7497
11238SOL    HW137306   7.845   7.272   9.594  0.2196 -0.5552  0.7425
11238SOL    HW237307   7.874   7.332   9.730  0.9402 -0.6615  0.6389
11239SOL     OW37308   7.891   7.662   5.682  0.1785  0.1494  0.0486
11239SOL    HW137309   7.911   7.641   5.591  1.8170  1.0698  0.1684
11239SOL    HW237310   7.864   7.578   5.720  2.9983 -1.0512 -0.3771
11240SOL     OW37311  11.025  11.075   1.953 -0.1583  0.1092 -0.2220
11240SOL    HW137312  10.965  11.099   2.022  0.9085  2.0815  0.0774
11240SOL    HW237313  10.969  11.042   1.882 -1.2991 -1.4063  1.2934
11241SOL     OW37314   6.022  10.754   8.825  0.4449 -0.5518  0.4633
11241SOL    HW137315   5.971  10.673   8.833  0.0491 -0.2055  1.7536
11241SOL    HW237316   6.071  10.760   8.907  0.4465  0.5160  0.4014
11242SOL     OW37317   7.182   9.004   9.506 -0.1526  0.1356  0.3399
11242SOL    HW137318   7.156   8.912   9.496 -0.1428  0.1052  0.5828
11242SOL    HW237319   7.234   9.023   9.429  1.6111 -0.6813  1.2649
11243SOL     OW37320   6.340   8.187   3.607  0.2833  0.1893  0.1875
11243SOL    HW137321   6.245   8.185   3.608  0.2409  0.0869 -1.4902
11243SOL    HW237322   6.366   8.144   3.688 -1.0873  2.1281  1.7252
11244SOL     OW37323   9.925   1.949   0.364  0.2169  0.0439  0.0336
11244SOL    HW137324   9.865   1.950   0.438 -2.0438 -0.5944 -1.6651
11244SOL    HW237325   9.895   2.020   0.307  1.9465  0.5742 -0.2930
11245SOL     OW37326   6.402   8.015   7.252 -0.0233  0.1774  0.1715
11245SOL    HW137327   6.498   8.018   7.245 -0.0376  0.4585  0.0895
11245SOL    HW237328   6.372   8.015   7.161 -0.1097  0.3225  0.2014
11246SOL     OW37329   1.187   7.439   3.340 -0.0134 -0.2332 -0.2550
11246SOL    HW137330   1.167   7.498   3.414 -1.0490 -0.4243 -0.3703
11246SOL    HW237331   1.108   7.439   3.288  0.8097  0.1328 -1.5571
11247SOL     OW37332   1.561   3.297   4.258  0.5705 -0.6633  0.1689
11247SOL    HW137333   1.607   3.253   4.330 -1.0820 -1.1247  0.9859
11247SOL    HW237334   1.527   3.378   4.297 -1.1632 -1.3764  0.2170
11248SOL     OW37335   8.337   4.859   3.936  0.7523  0.0143 -0.1372
11248SOL    HW137336   8.292   4.912   3.871  1.8733  1.3867  0.1581
11248SOL    HW237337   8.302   4.770   3.923 -0.7912  0.7078 -0.9785
11249SOL     OW37338   5.427   2.213   0.461  0.2257 -0.1277 -0.5414
11249SOL    HW137339   5.439   2.216   0.556  2.3311  2.1481 -0.7788
11249SOL    HW237340   5.445   2.122   0.438 -1.6464 -1.0633  1.3191
11250SOL     OW37341   7.040  10.868   0.895 -0.6250  0.3152  0.1835
11250SOL    HW137342   6.967  10.912   0.939  1.0833  0.6326  2.9381
11250SOL    HW237343   7.037  10.778   0.929 -0.3626  0.0346 -0.5269
11251SOL     OW37344   9.558  10.256   5.063 -0.0335 -0.2410 -0.5502
11251SOL    HW137345   9.573  10.225   4.974 -0.7015 -0.2756 -0.6577
11251SOL    HW237346   9.629  10.318   5.079 -0.3634  0.3811 -1.4048
11252SOL     OW37347  10.458   5.708   6.384 -0.0073  0.0140 -0.1141
11252SOL    HW137348  10.410   5.751   6.313 -1.1969 -0.2177  0.5324
11252SOL    HW237349  10.493   5.781   6.436  2.4084  0.2269 -1.8737
11253SOL     OW37350   3.897   1.129   8.234 -0.0169 -0.7282  0.3549
11253SOL    HW137351   3.835   1.158   8.167 -0.3481 -2.2924 -0.0575
11253SOL    HW237352   3.864   1.167   8.316 -0.5117 -0.1009 -0.1277
11254SOL     OW37353   1.205   5.115   5.520 -0.1645 -0.4565  0.0503
11254SOL    HW137354   1.276   5.066   5.479  0.0568 -0.2470  0.1782
11254SOL    HW237355   1.162   5.162   5.448 -1.1257 -1.7551 -0.2499
11255SOL     OW37356   3.160   8.684   8.906  0.7390 -0.1568 -0.1825
11255SOL    HW137357   3.148   8.589   8.901 -1.8063  0.1570 -1.2027
11255SOL    HW237358   3.095   8.713   8.970  1.4640  0.9285  0.0847
11256SOL     OW37359   1.480   8.772   4.861 -0.6057 -0.6622 -0.0591
11256SOL    HW137360   1.496   8.866   4.856 -1.6497 -0.4733  0.0708
11256SOL    HW237361   1.431   8.760   4.942 -0.5794 -1.3031 -0.1349
11257SOL     OW37362   1.951   7.423   3.369 -0.1887  0.3240 -0.0951
11257SOL    HW137363   1.999   7.393   3.447 -1.4232  2.2209  1.5094
11257SOL    HW237364   1.973   7.516   3.363 -0.7920  0.3877 -1.5326
11258SOL     OW37365   6.076   8.899   5.518  0.1509  0.1141  0.4792
11258SOL    HW137366   6.145   8.937   5.571  0.2005  1.4506 -0.4872
11258SOL    HW237367   6.053   8.968   5.455 -1.3832 -0.6430  0.1568
11259SOL     OW37368   0.665   2.659   9.218 -0.3626  0.0518 -0.0574
11259SOL    HW137369   0.711   2.688   9.296 -1.7464 -0.2381  0.9002
11259SOL    HW237370   0.708   2.705   9.146 -0.3203  1.8477  1.0694
11260SOL     OW37371   0.136   7.613   1.757  0.4350  0.6654  0.6943
11260SOL    HW137372   0.053   7.605   1.710  1.4116  2.1371 -1.4372
11260SOL    HW237373   0.133   7.701   1.796  0.3115  0.0614  2.1331
11261SOL     OW37374   5.481   3.675   4.655  0.5161 -0.5295  0.2942
11261SOL    HW137375   5.447   3.749   4.706  2.5950  0.6012  0.1811
11261SOL    HW237376   5.483   3.707   4.565 -2.2667 -2.1957 -0.4616
11262SOL     OW37377   3.989   6.830   8.216  0.1326  0.6724 -0.0267
11262SOL    HW137378   4.048   6.882   8.272  1.1768 -1.1791  0.6631
11262SOL    HW237379   3.993   6.874   8.131  1.0117  1.6866  0.5056
11263SOL     OW37380   4.428   9.962   0.330 -0.5134  0.0861 -0.3858
11263SOL    HW137381   4.490   9.896   0.360 -0.0850  0.2365 -0.9444
11263SOL    HW237382   4.344   9.934   0.367  0.1228  0.6868  1.6303
11264SOL     OW37383   4.801   2.690   2.774  0.3700  0.0269 -0.1099
11264SOL    HW137384   4.715   2.660   2.805  0.2306 -1.0154 -1.4184
11264SOL    HW237385   4.861   2.619   2.798  0.7930  0.5306  0.3536
11265SOL     OW37386   5.430   6.220   6.222 -0.1637 -0.6997  0.2966
11265SOL    HW137387   5.479   6.238   6.303 -0.2201 -0.3775  0.2610
11265SOL    HW237388   5.488   6.248   6.152 -0.9161  0.9834  0.2953
11266SOL     OW37389   8.189  10.791   6.819 -0.4163  0.1124 -0.3155
11266SOL    HW137390   8.159  10.881   6.810  0.0842  0.2552 -0.5914
11266SOL    HW237391   8.157  10.747   6.740  0.6000  0.4140 -0.9197
11267SOL     OW37392   7.973  11.058   3.591  0.6459  0.3556 -0.3049
11267SOL    HW137393   7.996  11.150   3.602 -1.2509  0.8811 -0.2416
11267SOL    HW237394   7.904  11.059   3.524 -0.3319 -0.8636  0.6367
11268SOL     OW37395   8.915   7.490   3.747  0.2112 -0.2466  0.2669
11268SOL    HW137396   8.864   7.420   3.788 -0.0351  0.7252  1.7011
11268SOL    HW237397   8.852   7.534   3.690 -0.5153  0.7301  1.7634
11269SOL     OW37398   1.333   1.491   3.810  0.0739  0.5840  0.4653
11269SOL    HW137399   1.266   1.522   3.871 -1.3475  0.1203 -0.8087
11269SOL    HW237400   1.351   1.401   3.837 -0.1680  0.5505  0.5137
11270SOL     OW37401  10.687   5.346   2.925  0.2893  0.0446 -0.1229
11270SOL    HW137402  10.718   5.290   2.996  0.3597 -1.0634 -1.0019
11270SOL    HW237403  10.718   5.303   2.845  1.5186  2.0813 -0.7991
11271SOL     OW37404   9.284   5.459   9.575  0.3141 -0.0174 -0.0951
11271SOL    HW137405   9.324   5.536   9.613  1.3133 -0.6970  0.2540
11271SOL    HW237406   9.357   5.400   9.555 -0.3312 -0.4266 -1.3741
11272SOL     OW37407  10.672   7.253   7.283 -0.2547  0.0975  0.2042
11272SOL    HW137408  10.743   7.317   7.286 -2.4246  2.7081  3.1243
11272SOL    HW237409  10.681   7.203   7.365 -1.9400  0.7831  0.8566
11273SOL     OW37410   1.751   0.311   6.891  0.2008  0.1760  0.2724
11273SOL    HW137411   1.688   0.241   6.910  2.2182 -1.6892  0.3610
11273SOL    HW237412   1.699   0.391   6.898 -2.1189 -1.2521  0.5482
11274SOL     OW37413   4.861   1.533   8.426 -0.4081 -0.3730 -0.2529
11274SOL    HW137414   4.805   1.607   8.405  0.6208  1.2044  2.0823
11274SOL    HW237415   4.908   1.560   8.505  2.4752 -2.1978 -1.1698
11275SOL     OW37416   8.399   0.805   5.088  0.5505 -0.1009  0.6951
11275SOL    HW137417   8.485   0.808   5.046  0.4089  2.6141  0.4512
11275SOL    HW237418   8.366   0.717   5.067  1.5795  0.1510 -2.6747
11276SOL     OW37419   6.359   6.484  10.186  0.4529  0.2806 -0.5474
11276SOL    HW137420   6.272   6.523  10.181 -0.1447 -0.6386  1.4135
11276SOL    HW237421   6.401   6.530  10.259  1.7745  0.9291 -1.6632
11277SOL     OW37422   5.366   1.681   1.786 -0.0409 -0.3975 -0.5700
11277SOL    HW137423   5.416   1.743   1.839 -0.3071  0.0514 -0.8414
11277SOL    HW237424   5.409   1.683   1.700  0.0892 -0.7611 -0.5174
11278SOL     OW37425   1.366  10.110   6.983  0.0355 -0.2471  0.4306
11278SOL    HW137426   1.280  10.126   7.021 -0.9115 -1.6951 -0.9863
11278SOL    HW237427   1.391  10.192   6.941 -1.0193 -0.0508  0.1740
11279SOL     OW37428   2.722   9.669   8.486  0.6036 -0.0260  0.2342
11279SOL    HW137429   2.657   9.730   8.521 -0.4125 -1.5862  1.1809
11279SOL    HW237430   2.752   9.710   8.405  0.3922  1.9947  1.1279
11280SOL     OW37431   5.258   3.027   0.003  0.5034 -0.5582  0.1171
11280SOL    HW137432   5.193   3.014  -0.067  0.3591  0.0591  0.1340
11280SOL    HW237433   5.342   3.018  -0.041  0.4718  2.0462 -0.6332
11281SOL     OW37434   7.134  10.131   2.157  0.3309 -0.1755  0.0985
11281SOL    HW137435   7.049  10.113   2.198  0.5102  0.8226  0.9209
11281SOL    HW237436   7.178  10.191   2.217  0.9735  0.5844 -1.1032
11282SOL     OW37437   0.743   2.872   6.914 -0.0544 -0.4067  0.2823
11282SOL    HW137438   0.835   2.846   6.914  0.4135  1.0812 -0.8726
11282SOL    HW237439   0.741   2.950   6.970 -0.4839 -0.0733 -0.1872
11283SOL     OW37440   8.575   0.750   1.711  0.2579 -0.1773  0.0201
11283SOL    HW137441   8.605   0.818   1.650 -0.0687  0.8757  1.0028
11283SOL    HW237442   8.480   0.765   1.717  0.1955 -0.6837  0.3016
11284SOL     OW37443   2.807  10.944   7.498 -0.0890 -0.8608 -0.0102
11284SOL    HW137444   2.713  10.958   7.506 -0.4303 -1.9373 -1.5538
11284SOL    HW237445   2.828  10.974   7.410  1.0118 -0.6785  0.2999
11285SOL     OW37446   4.849  10.576   9.138  0.9861  0.0354  0.1858
11285SOL    HW137447   4.878  10.581   9.229  3.0051  0.1228 -0.4048
11285SOL    HW237448   4.804  10.659   9.122  1.7140  0.5612  0.7719
11286SOL     OW37449   3.011   0.494  10.997  0.2119 -0.3589 -0.8048
11286SOL    HW137450   3.023   0.588  10.988  0.5244 -0.5004 -2.1453
11286SOL    HW237451   3.016   0.461  10.907  1.5344 -1.8116 -0.2442
11287SOL     OW37452  10.471   0.534   1.472  0.2557 -0.2643 -0.6066
11287SOL    HW137453  10.424   0.525   1.555  0.4988 -0.6442 -0.5092
11287SOL    HW237454  10.418   0.596   1.421 -1.5048 -2.2587 -1.3271
11288SOL     OW37455   2.744   3.840   4.583 -0.1764  0.3407 -0.8147
11288SOL    HW137456   2.752   3.935   4.573  0.8012  0.3752  0.0178
11288SOL    HW237457   2.759   3.805   4.495 -0.1961  0.9486 -1.0644
11289SOL     OW37458   0.122   7.678   6.181  0.3510  0.4877  0.0577
11289SOL    HW137459   0.057   7.744   6.157  1.0013  0.6860 -1.2233
11289SOL    HW237460   0.148   7.638   6.098  1.3205 -0.1059  0.6276
11290SOL     OW37461   7.184   5.552   2.743 -0.1083  0.1004  0.4676
11290SOL    HW137462   7.231   5.631   2.720  0.2757 -0.5418 -1.0797
11290SOL    HW237463   7.106   5.553   2.686 -0.2257 -0.4966  0.6118
11291SOL     OW37464   8.487   7.850   4.062 -0.1203  0.3672 -0.4892
11291SOL    HW137465   8.411   7.804   4.098  0.3796 -0.9892 -1.0912
11291SOL    HW237466   8.496   7.928   4.117 -0.9229 -0.3160  0.6621
11292SOL     OW37467   1.219   8.275   9.155 -0.4861 -0.6156  0.2543
11292SOL    HW137468   1.209   8.207   9.088  0.6770 -0.2813 -0.2870
11292SOL    HW237469   1.194   8.232   9.236 -0.7175 -1.4042 -0.2201
11293SOL     OW37470   6.046  10.782   8.336 -0.0567  0.1313 -0.0518
11293SOL    HW137471   5.990  10.725   8.284  0.6754 -0.7328  0.0994
11293SOL    HW237472   6.036  10.868   8.295  2.0669 -0.8604 -2.9479
11294SOL     OW37473   3.653   5.349   4.704 -0.7873 -0.1243 -0.1151
11294SOL    HW137474   3.601   5.288   4.651 -1.2843  0.1342  0.0715
11294SOL    HW237475   3.731   5.299   4.728 -1.1943 -0.6982  0.0504
11295SOL     OW37476   0.606   9.358  10.162  0.5476 -0.4795 -0.3306
11295SOL    HW137477   0.621   9.396  10.249 -1.4369  0.0361 -0.1716
11295SOL    HW237478   0.565   9.428  10.112 -0.8767 -1.6165 -0.8091
11296SOL     OW37479   8.289   5.982   4.009 -0.2250  0.0366 -0.3804
11296SOL    HW137480   8.317   5.900   4.049 -0.2094 -0.1600 -0.7908
11296SOL    HW237481   8.318   5.976   3.918 -1.6141 -0.1865 -0.8360
11297SOL     OW37482   9.448   2.885   2.029 -0.6743  0.2363  0.2771
11297SOL    HW137483   9.432   2.791   2.015 -1.4239  0.2808  0.7892
11297SOL    HW237484   9.506   2.888   2.105  0.4059  0.1498 -0.5134
11298SOL     OW37485  10.514   1.556   8.147  0.1347  0.1717 -0.3843
11298SOL    HW137486  10.479   1.467   8.154 -0.0989  0.3306  0.7296
11298SOL    HW237487  10.468   1.605   8.215  1.1389  0.8505 -0.1699
11299SOL     OW37488   4.345   9.010   1.456  0.2708 -0.0916 -0.0296
11299SOL    HW137489   4.302   9.033   1.538 -2.9206 -0.2320 -1.4996
11299SOL    HW237490   4.306   8.926   1.432  2.9303 -1.2530 -0.5711
11300SOL     OW37491   6.487   8.942   9.217  0.1185 -0.3116 -0.0996
11300SOL    HW137492   6.493   9.031   9.181 -0.6675  0.4948  1.6761
11300SOL    HW237493   6.576   8.921   9.243  0.3649 -0.1760 -0.8034
11301SOL     OW37494   8.173   8.128  11.037 -0.0160 -0.4352  0.0559
11301SOL    HW137495   8.091   8.080  11.047 -0.3903  0.5618  2.2197
11301SOL    HW237496   8.151   8.219  11.053  1.5388 -0.1729  0.9243
11302SOL     OW37497   9.878   6.417   0.237 -0.7093 -0.3815  0.1459
11302SOL    HW137498   9.823   6.490   0.209  0.6712  0.4502 -0.5070
11302SOL    HW237499   9.911   6.444   0.323 -0.3380 -0.3097 -0.0179
11303SOL     OW37500  10.693   6.972   9.535  0.3292 -0.1010  0.5419
11303SOL    HW137501  10.648   6.902   9.487  1.8569 -0.4775 -0.4136
11303SOL    HW237502  10.704   6.936   9.623  0.1653 -0.6287  0.3531
11304SOL     OW37503   8.158   6.947   9.618  0.5356  0.3826  0.3954
11304SOL    HW137504   8.189   6.858   9.634  0.2780 -0.0007 -1.0847
11304SOL    HW237505   8.063   6.940   9.619  0.5032  0.8080  1.0643
11305SOL     OW37506   0.548   1.572   8.581 -0.1597  0.2170  0.1256
11305SOL    HW137507   0.599   1.614   8.650 -0.5029 -0.1343  0.5922
11305SOL    HW237508   0.584   1.609   8.500  0.3115  0.5536  0.4803
11306SOL     OW37509   9.476   6.645   7.616  0.0748 -0.0534  0.2766
11306SOL    HW137510   9.436   6.560   7.595 -1.3011  0.5464  0.3532
11306SOL    HW237511   9.569   6.633   7.596  0.1653 -1.9791  1.5013
11307SOL     OW37512   6.624   1.105  10.777 -0.1805  0.4322  0.2705
11307SOL    HW137513   6.589   1.017  10.766  4.0971 -1.7277  1.8100
11307SOL    HW237514   6.626   1.119  10.872  0.0487  1.8391  0.0903
11308SOL     OW37515   5.721   9.759   5.328  0.4211  0.4036  0.1716
11308SOL    HW137516   5.638   9.807   5.331 -0.3743 -0.8014 -1.1814
11308SOL    HW237517   5.742   9.755   5.234  1.1971 -0.6557  0.3781
11309SOL     OW37518   8.851   3.669   7.581  0.3878  0.0516  0.1430
11309SOL    HW137519   8.804   3.645   7.501  1.4481  1.1459 -0.8402
11309SOL    HW237520   8.899   3.590   7.605  0.2830 -0.2043 -0.4606
11310SOL     OW37521   5.366  10.340   9.785  0.4084 -0.1241  0.1151
11310SOL    HW137522   5.372  10.435   9.774 -0.4440  0.0105  0.6637
11310SOL    HW237523   5.305  10.311   9.717  0.5733 -0.2583  0.0247
11311SOL     OW37524   2.696   5.800   1.501 -0.1179  0.4781 -0.0789
11311SOL    HW137525   2.734   5.818   1.587 -3.7461  0.0894  1.7970
11311SOL    HW237526   2.628   5.866   1.490 -3.0640 -2.2871 -0.2401
11312SOL     OW37527   3.558   9.525   1.783  0.0090  0.1264  0.7290
11312SOL    HW137528   3.482   9.482   1.822  2.1595 -3.2596  1.6095
11312SOL    HW237529   3.561   9.491   1.694  0.7753 -0.2090  0.8776
11313SOL     OW37530   9.548   1.445   5.817  0.1626 -0.5025 -0.3901
11313SOL    HW137531   9.492   1.385   5.767 -0.9222 -0.6189  0.9212
11313SOL    HW237532   9.573   1.395   5.895 -2.1334  1.1970  1.5774
11314SOL     OW37533   5.964   8.800   9.156  0.0110 -0.2582  0.4316
11314SOL    HW137534   6.044   8.847   9.132 -0.2898 -0.0334 -0.1528
11314SOL    HW237535   5.917   8.861   9.213 -1.7434  1.4411 -2.5606
11315SOL     OW37536   0.174   0.555  10.276  0.7623 -0.1015  0.0755
11315SOL    HW137537   0.187   0.649  10.294 -0.5018  0.2831 -0.8942
11315SOL    HW237538   0.162   0.551  10.181 -1.2721 -0.9632  0.3257
11316SOL     OW37539   8.713   5.109   2.907 -0.3584  0.5632  0.3676
11316SOL    HW137540   8.789   5.065   2.867 -0.1891 -0.9134  2.1739
11316SOL    HW237541   8.637   5.070   2.865 -0.1608  0.0521  0.4819
11317SOL     OW37542   4.335   1.651   7.640 -0.4937 -0.3817  0.2929
11317SOL    HW137543   4.280   1.699   7.578  1.0654  0.5284 -0.4485
11317SOL    HW237544   4.379   1.585   7.586 -1.2636 -1.4998  0.9862
11318SOL     OW37545   2.248   6.984   0.544  0.1450  0.3051  0.0138
11318SOL    HW137546   2.186   6.924   0.503 -0.2940  1.2240 -0.6913
11318SOL    HW237547   2.294   7.024   0.471  0.5336  0.7264  0.4860
11319SOL     OW37548   9.703   0.656   3.618  0.2755 -0.0033 -0.5346
11319SOL    HW137549   9.637   0.629   3.683  0.7595 -1.2963 -0.5464
11319SOL    HW237550   9.655   0.660   3.536  0.3940 -2.1610 -0.7788
11320SOL     OW37551   8.232  10.121   6.670  0.0281  0.0570 -0.1046
11320SOL    HW137552   8.270  10.174   6.741  1.7464  1.3647 -1.9056
11320SOL    HW237553   8.141  10.150   6.665 -0.3561 -0.5716  1.9610
11321SOL     OW37554   1.967   4.559   8.005  0.4708 -0.4821 -0.0565
11321SOL    HW137555   2.006   4.559   8.093  2.5826  0.8910 -0.9069
11321SOL    HW237556   1.911   4.636   8.003  1.9172  0.6110 -0.4508
11322SOL     OW37557   2.821   2.057   9.738 -0.1118  0.4230 -0.4657
11322SOL    HW137558   2.845   2.099   9.656  0.3178 -2.3440 -1.8896
11322SOL    HW237559   2.856   1.968   9.730 -0.9543 -0.2573  2.3073
11323SOL     OW37560   6.586   1.173   5.259 -0.0342  0.4947 -0.1621
11323SOL    HW137561   6.670   1.159   5.304 -0.2868 -1.7396 -0.2824
11323SOL    HW237562   6.562   1.263   5.281  2.1578  1.0407  0.2478
11324SOL     OW37563   1.233   7.645   5.325  0.6634  0.5790 -0.2666
11324SOL    HW137564   1.168   7.635   5.395 -0.9227  0.8080 -1.6375
11324SOL    HW237565   1.247   7.740   5.319  1.7461  0.4899  0.5282
11325SOL     OW37566  11.047   2.292   3.167  0.2294  0.3566 -0.1831
11325SOL    HW137567  11.119   2.237   3.136  0.1448  0.8593 -1.3277
11325SOL    HW237568  11.069   2.311   3.258  2.6925  2.2063 -1.0310
11326SOL     OW37569   7.973   8.473   2.149 -0.2687  0.1674  0.2272
11326SOL    HW137570   8.013   8.401   2.197  0.3346  0.9621  0.9417
11326SOL    HW237571   7.917   8.430   2.084  0.6491 -0.9509  0.1352
11327SOL     OW37572   5.980   7.064  10.890 -0.1557  0.6196 -0.5531
11327SOL    HW137573   5.957   6.975  10.864  0.2706  1.0330 -2.5397
11327SOL    HW237574   5.955   7.118  10.815 -0.8592  2.2594  0.8054
11328SOL     OW37575   6.198   1.511   1.999 -0.3896  0.2791 -0.5327
11328SOL    HW137576   6.205   1.489   2.091 -0.0295  1.5752 -0.2358
11328SOL    HW237577   6.114   1.474   1.972  0.5842 -2.2409 -0.3289
11329SOL     OW37578   4.005   7.118   1.970 -0.2651  0.4574 -0.1177
11329SOL    HW137579   4.063   7.087   2.039 -0.1797 -2.7627 -1.4963
11329SOL    HW237580   3.947   7.044   1.952 -0.8096  1.4647 -2.9400
11330SOL     OW37581   2.752   5.606   2.166  0.0516  0.2523 -0.1207
11330SOL    HW137582   2.824   5.571   2.113 -1.0363 -0.6150 -1.0855
11330SOL    HW237583   2.683   5.624   2.102 -0.0996  2.4572  0.5799
11331SOL     OW37584   3.582  11.054  11.026  0.0388  0.2415 -0.3394
11331SOL    HW137585   3.568  11.104  10.945 -1.0504  0.7377  0.1296
11331SOL    HW237586   3.623  10.972  10.997 -0.7706  0.2089 -1.4597
11332SOL     OW37587   5.736   1.151   1.115  0.2385 -0.1551 -0.0200
11332SOL    HW137588   5.801   1.217   1.092 -0.5084  0.4586 -0.4180
11332SOL    HW237589   5.655   1.200   1.126 -0.0928 -0.8688  0.7949
11333SOL     OW37590  11.104   3.947  10.158 -0.3982  0.2571  0.2056
11333SOL    HW137591  11.144   4.028  10.125 -0.6892  0.3401  0.0480
11333SOL    HW237592  11.015   3.973  10.181 -0.7084 -0.1618 -0.4767
11334SOL     OW37593   4.643  10.919   3.663 -0.8110  0.3975  0.4750
11334SOL    HW137594   4.640  10.868   3.582 -2.7976  0.0844  0.6984
11334SOL    HW237595   4.689  10.862   3.726  0.7019  0.6279 -0.3753
11335SOL     OW37596   3.183   0.263   8.126  0.1452 -0.2778  0.2697
11335SOL    HW137597   3.092   0.255   8.100  0.6084  1.0840 -2.0769
11335SOL    HW237598   3.225   0.183   8.094  0.0389 -0.2278  0.0048
11336SOL     OW37599   4.450   4.206   5.138 -0.1251 -0.2561 -0.1455
11336SOL    HW137600   4.428   4.238   5.051 -2.0255 -0.5661  0.1813
11336SOL    HW237601   4.471   4.285   5.188 -0.6080  0.0803 -0.4611
11337SOL     OW37602   9.630   5.832   9.724 -0.6860 -1.0631 -0.5465
11337SOL    HW137603   9.567   5.896   9.690 -0.8717 -0.8686  0.1348
11337SOL    HW237604   9.657   5.782   9.648  0.0896  0.3688 -1.2523
11338SOL     OW37605   0.576  10.812   7.381  0.0782  0.2760  0.4334
11338SOL    HW137606   0.616  10.881   7.328 -1.7924  1.7787  0.8602
11338SOL    HW237607   0.596  10.731   7.334  1.0637  1.2458 -0.9028
11339SOL     OW37608   3.837   5.066   3.207  0.1207 -0.5057 -0.3871
11339SOL    HW137609   3.828   5.013   3.285 -0.7143  0.2667  0.0517
11339SOL    HW237610   3.877   5.148   3.237 -2.1527  0.6583 -0.3626
11340SOL     OW37611   4.717   9.430   0.672  0.4064 -0.4339  0.6623
11340SOL    HW137612   4.702   9.524   0.679  0.3203 -0.5580  2.7756
11340SOL    HW237613   4.648   9.391   0.725  1.1678 -1.6227  0.8182
11341SOL     OW37614   4.034   7.197   9.434 -0.2005 -0.1763 -0.0314
11341SOL    HW137615   3.970   7.131   9.409 -2.3782  2.1101 -0.9236
11341SOL    HW237616   4.008   7.224   9.522 -1.1990  1.4713 -0.7776
11342SOL     OW37617   7.284   9.242   5.801 -0.3680 -1.0048 -0.1926
11342SOL    HW137618   7.340   9.196   5.739 -0.4759 -0.3140 -0.8172
11342SOL    HW237619   7.274   9.181   5.874  0.3351 -1.5509 -0.5377
11343SOL     OW37620   2.897   6.499   8.113 -0.5070  0.2189  0.5759
11343SOL    HW137621   2.914   6.510   8.207 -1.7511 -0.1484  0.8635
11343SOL    HW237622   2.869   6.408   8.104 -1.0016  0.4261 -0.0474
11344SOL     OW37623  10.278   0.722   8.043  0.2022  0.0089 -0.2067
11344SOL    HW137624  10.308   0.786   7.978  0.4155 -0.0204 -0.1350
11344SOL    HW237625  10.330   0.644   8.026  0.5377  0.1313  0.2608
11345SOL     OW37626   2.730   4.616   2.388 -0.1840 -0.2381  0.1035
11345SOL    HW137627   2.779   4.669   2.451 -2.3143  2.4138 -0.3120
11345SOL    HW237628   2.654   4.585   2.438  0.7486 -2.5983  0.1893
11346SOL     OW37629  10.271   5.319   0.615 -0.9514  0.1896 -0.3847
11346SOL    HW137630  10.285   5.240   0.563  0.8101  1.1586 -1.5050
11346SOL    HW237631  10.276   5.391   0.551 -0.9709  1.2966  0.8114
11347SOL     OW37632   7.526   4.245   3.503  0.7749 -0.5414  0.1562
11347SOL    HW137633   7.460   4.288   3.449 -0.3710 -0.2850  1.6807
11347SOL    HW237634   7.506   4.152   3.495 -0.3952 -0.4272  1.2877
11348SOL     OW37635   2.306   8.314   0.320 -0.4021  1.3777  0.0934
11348SOL    HW137636   2.375   8.355   0.372 -0.2204 -1.2502  2.1438
11348SOL    HW237637   2.263   8.254   0.381 -0.2421 -1.8836 -2.7295
11349SOL     OW37638   2.341   0.022   8.302 -0.5200  0.6411 -0.2558
11349SOL    HW137639   2.283   0.083   8.258 -1.3409  0.4393  0.5216
11349SOL    HW237640   2.407   0.077   8.345 -1.3028  0.9857  0.5127
11350SOL     OW37641   7.550   8.339   3.547 -0.2904 -0.0244  0.0336
11350SOL    HW137642   7.478   8.310   3.602 -0.2263  1.1339  0.7702
11350SOL    HW237643   7.629   8.315   3.595 -0.2284  0.5990  0.2563
11351SOL     OW37644   3.718   4.970   8.182  0.2711 -0.6380 -0.3676
11351SOL    HW137645   3.756   5.046   8.137  1.5993  0.2391  2.0566
11351SOL    HW237646   3.767   4.895   8.147  1.6076  0.0660 -0.0604
11352SOL     OW37647   3.532   7.932   1.801  0.4210  0.4237 -0.2999
11352SOL    HW137648   3.610   7.879   1.818 -0.1397 -0.9633 -1.7661
11352SOL    HW237649   3.561   7.998   1.739  0.2461 -0.7682 -1.7143
11353SOL     OW37650   7.039   3.609   5.097 -0.0954  0.0848 -0.1438
11353SOL    HW137651   7.022   3.688   5.046 -1.6145  0.1206  0.3707
11353SOL    HW237652   6.963   3.553   5.082  0.2970 -0.6844  0.6207
11354SOL     OW37653   5.658   1.878  11.063 -0.2405 -0.3874 -0.5453
11354SOL    HW137654   5.712   1.802  11.085 -0.1115 -0.2464 -0.3622
11354SOL    HW237655   5.719   1.952  11.063 -0.6663  0.0033  1.0973
11355SOL     OW37656   3.503   7.884   3.464 -0.7924 -0.1002 -0.1009
11355SOL    HW137657   3.508   7.947   3.535 -1.6191  0.0309 -0.1564
11355SOL    HW237658   3.562   7.813   3.491 -1.5496 -0.3311  0.9907
11356SOL     OW37659   4.999   2.961   2.813 -0.2103 -0.3147  0.0004
11356SOL    HW137660   4.996   3.056   2.824 -0.5427 -0.1616 -1.1887
11356SOL    HW237661   4.944   2.926   2.883  0.3455  0.3248  0.7720
11357SOL     OW37662   5.962   2.583   2.514 -0.2289  0.1398 -0.2884
11357SOL    HW137663   5.942   2.669   2.551 -0.2008  0.7439 -1.6367
11357SOL    HW237664   5.956   2.595   2.420 -2.2540 -1.8332 -0.4875
11358SOL     OW37665   3.572   8.613   7.068 -0.1442 -0.2205 -0.3563
11358SOL    HW137666   3.662   8.580   7.074  0.7035  1.7904 -1.0194
11358SOL    HW237667   3.545   8.624   7.160  0.3053 -0.7699 -0.1509
11359SOL     OW37668   3.949   1.829   3.876 -0.5231 -0.0842  0.2777
11359SOL    HW137669   3.918   1.832   3.966 -0.4511  2.6776  0.2980
11359SOL    HW237670   3.886   1.883   3.827  0.1994 -0.3983 -1.0600
11360SOL     OW37671   6.573   1.403   6.541  0.1247  0.4308 -0.5312
11360SOL    HW137672   6.499   1.370   6.491 -0.4110  0.6210  0.1115
11360SOL    HW237673   6.643   1.340   6.525  0.2901  1.0115 -2.2921
11361SOL     OW37674  10.119   6.284   6.328 -0.1839 -0.4916 -0.2449
11361SOL    HW137675  10.208   6.272   6.360 -0.7693 -1.1096  1.2225
11361SOL    HW237676  10.121   6.367   6.280  0.7349  0.5078  1.4542
11362SOL     OW37677   9.610   4.699   2.266 -0.5991  0.3596 -0.7450
11362SOL    HW137678   9.600   4.794   2.264 -0.6448  0.3543 -1.7820
11362SOL    HW237679   9.655   4.680   2.347  1.0868  1.4467 -1.3899
11363SOL     OW37680   9.760   1.031  10.605 -0.4068 -0.3551 -0.3386
11363SOL    HW137681   9.680   1.022  10.657 -0.0381 -1.1681  0.1115
11363SOL    HW237682   9.817   0.960  10.636  0.4999  0.2224 -0.6399
11364SOL     OW37683   8.683   5.787   5.394  0.1083 -0.2374 -0.3564
11364SOL    HW137684   8.654   5.730   5.465  1.5962 -1.4692 -0.6799
11364SOL    HW237685   8.761   5.830   5.429 -0.9096  1.5514 -0.1679
11365SOL     OW37686   0.910   3.192   5.938 -0.3093  0.0138  0.1094
11365SOL    HW137687   0.968   3.255   5.981 -1.1188  0.1154  1.0968
11365SOL    HW237688   0.950   3.106   5.956 -0.7678  0.0362  1.3050
11366SOL     OW37689  10.247   6.761   5.230 -0.0433 -0.0510 -0.8064
11366SOL    HW137690  10.195   6.837   5.257  1.4204  0.7024  0.1042
11366SOL    HW237691  10.270   6.779   5.139 -0.9173 -0.1357 -1.0509
11367SOL     OW37692   9.064   1.991  11.100 -0.0694  0.3714 -0.7087
11367SOL    HW137693   9.010   1.933  11.154  0.1097  0.7259 -0.1452
11367SOL    HW237694   9.051   2.078  11.138  0.6600  0.5054 -0.7633
11368SOL     OW37695   2.685   3.409   7.049 -0.1514 -0.0493 -0.2435
11368SOL    HW137696   2.764   3.355   7.046  1.1007  1.7120 -0.5227
11368SOL    HW237697   2.666   3.418   7.142  0.3807  0.0861 -0.1476
11369SOL     OW37698   9.076   0.118   0.563 -0.1021 -0.3081 -0.4533
11369SOL    HW137699   9.109   0.169   0.489  0.7630 -0.4840 -0.2022
11369SOL    HW237700   8.982   0.136   0.565  0.2515  1.7046 -0.0194
11370SOL     OW37701   5.048   7.019   0.817  0.6408 -0.1106 -0.3342
11370SOL    HW137702   5.050   7.038   0.723  0.4704 -2.2881 -0.8183
11370SOL    HW237703   4.968   7.060   0.848  0.2917 -0.0408 -1.2911
11371SOL     OW37704   8.813   0.232   7.333  0.3813 -0.1978  0.2328
11371SOL    HW137705   8.906   0.211   7.339  0.0748 -1.7827 -0.3036
11371SOL    HW237706   8.806   0.287   7.255  0.7200 -0.9457 -0.3313
11372SOL     OW37707   8.680   3.090   2.711 -0.0522  0.2587  0.0270
11372SOL    HW137708   8.660   2.997   2.703  1.8813 -0.1169 -1.1053
11372SOL    HW237709   8.677   3.107   2.805 -2.8966 -0.2944  0.1286
11373SOL     OW37710   9.550   7.566   8.124 -0.2412  0.2233 -0.1677
11373SOL    HW137711   9.543   7.478   8.160  0.9788 -0.4318 -1.4372
11373SOL    HW237712   9.524   7.624   8.196 -0.2719 -1.1293  0.9451
11374SOL     OW37713   6.819   0.766   0.353  0.5509  0.2258 -0.0151
11374SOL    HW137714   6.748   0.788   0.413 -0.8391  0.6817 -1.7495
11374SOL    HW237715   6.785   0.693   0.301  1.8258 -0.3394 -0.1015
11375SOL     OW37716   6.075   8.785  10.286 -0.1630 -0.3288  0.2325
11375SOL    HW137717   6.087   8.767  10.193  0.8108 -0.3081  0.3428
11375SOL    HW237718   5.989   8.827  10.292 -0.1359 -0.1304 -0.6793
11376SOL     OW37719   8.436   0.177   9.080 -0.3353  0.2242 -0.2758
11376SOL    HW137720   8.457   0.122   9.005 -0.0700 -0.2821  0.1692
11376SOL    HW237721   8.471   0.130   9.156 -0.7611  0.6394  0.1898
11377SOL     OW37722   4.615   4.431   2.332 -0.5009 -0.1794  0.2155
11377SOL    HW137723   4.663   4.512   2.314 -0.7396 -0.2694 -0.9063
11377SOL    HW237724   4.676   4.361   2.307 -0.8688 -0.3085 -0.3489
11378SOL     OW37725   3.684   4.519  10.669  0.8161  0.5575 -0.1801
11378SOL    HW137726   3.670   4.598  10.722  0.5660 -0.2330  0.9613
11378SOL    HW237727   3.766   4.535  10.623  0.7764  1.4772  0.0509
11379SOL     OW37728  10.995   1.580   5.653 -0.0765 -0.2428 -0.2205
11379SOL    HW137729  11.051   1.544   5.722  1.0072  2.2683  0.3493
11379SOL    HW237730  10.911   1.596   5.697  0.0224 -0.3913  0.0250
11380SOL     OW37731   8.863   8.624  11.063 -0.2149  0.0615 -0.0753
11380SOL    HW137732   8.851   8.709  11.106  1.3392 -0.0923  0.7576
11380SOL    HW237733   8.868   8.644  10.970 -0.7705  0.7653  0.0366
11381SOL     OW37734   5.097   1.686   7.058 -0.2933 -0.7032 -0.2513
11381SOL    HW137735   5.148   1.720   6.985  2.7008  0.3213  2.1188
11381SOL    HW237736   5.124   1.595   7.066  2.1562  0.1038  1.6332
11382SOL     OW37737   9.544   9.632   6.003 -0.3545 -0.6685 -0.1037
11382SOL    HW137738   9.484   9.652   5.932  0.4711  1.7682 -0.1968
11382SOL    HW237739   9.524   9.695   6.072 -0.1346 -2.0051  1.2583
11383SOL     OW37740   5.485   9.729   7.070 -0.4373 -0.3416  0.1322
11383SOL    HW137741   5.398   9.760   7.045 -0.1045  2.4429  1.9345
11383SOL    HW237742   5.545   9.782   7.019  0.1882 -0.2445  0.9568
11384SOL     OW37743   2.524   9.949   2.971 -0.2105  0.9961  0.1604
11384SOL    HW137744   2.494   9.990   3.052  0.6653 -1.3897  1.7988
11384SOL    HW237745   2.609   9.990   2.954 -0.1405  1.1048  0.7670
11385SOL     OW37746   1.836   7.321   0.914  0.1557 -0.3788  0.1061
11385SOL    HW137747   1.873   7.402   0.951 -0.7212 -0.8075  2.0709
11385SOL    HW237748   1.776   7.350   0.846  3.3490  0.3804 -2.6728
11386SOL     OW37749   5.036   5.384   6.452 -0.2933 -0.1527 -0.2693
11386SOL    HW137750   4.964   5.446   6.451 -0.2616 -0.0691 -2.5359
11386SOL    HW237751   5.005   5.309   6.401  0.8546 -0.5064 -0.4995
11387SOL     OW37752   6.918   4.771   6.298 -0.0299 -0.0603  0.6210
11387SOL    HW137753   6.853   4.705   6.272 -0.5979  0.6335  0.2463
11387SOL    HW237754   6.929   4.758   6.392  0.8216 -1.5159  0.3555
11388SOL     OW37755   9.541   7.438   0.870  0.0118 -0.1451  0.5027
11388SOL    HW137756   9.602   7.404   0.805  0.9767  0.5126  1.0321
11388SOL    HW237757   9.464   7.383   0.862  0.8059 -1.2247  0.0546
11389SOL     OW37758  10.696   0.690   0.658  0.0080 -0.3049 -0.1672
11389SOL    HW137759  10.787   0.714   0.673  0.5742 -2.9484  1.3972
11389SOL    HW237760  10.646   0.739   0.723  0.8836 -1.7723  1.7046
11390SOL     OW37761   2.674   8.819   7.666  0.2161 -0.1322 -0.4171
11390SOL    HW137762   2.711   8.742   7.623  1.3830  0.9070 -1.3677
11390SOL    HW237763   2.748   8.878   7.677 -0.3284  0.2174  1.8179
11391SOL     OW37764   2.157  10.595  10.059 -0.0212 -0.8633 -0.3137
11391SOL    HW137765   2.238  10.547  10.038 -0.6811 -1.8909 -0.5905
11391SOL    HW237766   2.157  10.599  10.155  1.6714  1.5184 -0.3183
11392SOL     OW37767   6.894   7.520   9.467  0.4163  0.0485 -0.5785
11392SOL    HW137768   6.975   7.471   9.476  0.6978  0.6855  0.6199
11392SOL    HW237769   6.905   7.570   9.386  0.9719 -0.3186 -0.7330
11393SOL     OW37770  10.233  10.881  10.622 -0.4671  0.0024  0.2308
11393SOL    HW137771  10.319  10.923  10.624 -1.0414  1.3245 -1.0192
11393SOL    HW237772  10.204  10.880  10.713  0.3265  0.6934  0.5051
11394SOL     OW37773   5.915   3.094   3.455 -0.0764 -0.2518 -0.3361
11394SOL    HW137774   5.997   3.139   3.476 -0.2334  0.0723 -0.4144
11394SOL    HW237775   5.854   3.164   3.434 -0.1501 -0.5225 -1.0704
11395SOL     OW37776   4.875  10.430   0.490 -0.1712  0.1553  0.4047
11395SOL    HW137777   4.884  10.410   0.396 -1.3323 -1.9625  0.6889
11395SOL    HW237778   4.782  10.421   0.508  0.2971 -1.9565  2.2248
11396SOL     OW37779   3.890   6.353   1.831 -0.2355  0.6929  0.0764
11396SOL    HW137780   3.815   6.296   1.849 -0.6625  1.5733  1.1775
11396SOL    HW237781   3.858   6.412   1.762  0.4854 -0.8721 -1.7043
11397SOL     OW37782   4.206   6.828   0.283  0.0706 -0.1461 -0.0492
11397SOL    HW137783   4.197   6.923   0.278  1.7441  0.0792  0.4322
11397SOL    HW237784   4.146   6.802   0.353 -0.3378  0.5574 -0.1237
11398SOL     OW37785   2.028   1.723   6.947 -0.9587 -0.4993  0.5265
11398SOL    HW137786   2.099   1.728   6.883 -0.2913 -0.2897  1.2699
11398SOL    HW237787   1.984   1.808   6.941 -1.2908 -0.7045 -0.0808
11399SOL     OW37788  10.220   5.353   8.013 -0.5044 -0.7652 -0.6696
11399SOL    HW137789  10.223   5.280   8.075  2.9856  0.3511  0.7590
11399SOL    HW237790  10.306   5.352   7.971  0.3688  3.2701  0.5397
11400SOL     OW37791   0.883   9.147   6.639 -0.3774 -0.2982 -0.1407
11400SOL    HW137792   0.868   9.086   6.568  1.0507 -1.6167  0.6079
11400SOL    HW237793   0.951   9.206   6.606  0.1510 -0.7951  0.0277
11401SOL     OW37794   6.957   6.492   6.218 -0.3063  0.1445 -0.5206
11401SOL    HW137795   6.967   6.401   6.248 -0.9368 -0.0081 -0.7558
11401SOL    HW237796   7.025   6.503   6.151 -0.7458 -0.4129 -1.0738
11402SOL     OW37797   1.629   6.414   3.944  0.1022  0.2424  0.3950
11402SOL    HW137798   1.631   6.351   3.871 -1.1790  1.6940 -0.9703
11402SOL    HW237799   1.539   6.414   3.974  0.5155  0.0336  1.6674
11403SOL     OW37800   0.840   7.684   2.563 -0.4321  0.4938  0.1478
11403SOL    HW137801   0.822   7.765   2.517  0.3717  1.4658  1.4852
11403SOL    HW237802   0.854   7.710   2.654 -0.8599 -1.2204  0.7552
11404SOL     OW37803   0.667   9.051   5.610 -0.5844 -0.1971 -0.1026
11404SOL    HW137804   0.618   9.123   5.570  0.2488 -0.5513 -1.8673
11404SOL    HW237805   0.602   8.983   5.624 -0.7811 -0.3547 -1.6403
11405SOL     OW37806   1.484   1.980   1.731 -0.2466  0.4293 -0.1883
11405SOL    HW137807   1.491   2.059   1.679  1.4357 -0.5626 -1.5896
11405SOL    HW237808   1.509   2.007   1.819  0.0280  1.5091 -0.5835
11406SOL     OW37809   2.133  10.905   0.472 -0.1741  0.2359  0.5252
11406SOL    HW137810   2.089  10.899   0.387 -0.2435  1.3653  0.4754
11406SOL    HW237811   2.209  10.960   0.456  0.5741 -0.6503  0.9072
11407SOL     OW37812   8.319   5.958   1.307 -0.2582  0.5564  0.0247
11407SOL    HW137813   8.347   5.989   1.393  2.9623 -0.1147 -0.6511
11407SOL    HW237814   8.331   6.033   1.249 -1.2258  0.6472 -0.0666
11408SOL     OW37815  10.475   8.349   2.686 -0.1278  0.4737 -0.0476
11408SOL    HW137816  10.407   8.324   2.624 -0.8219  0.5794  0.6499
11408SOL    HW237817  10.430   8.355   2.770  0.5280  1.5356  0.2595
11409SOL     OW37818   5.426   0.111  10.991 -0.4500  0.0289  0.1729
11409SOL    HW137819   5.340   0.129  10.953 -0.6994 -0.7150  0.3732
11409SOL    HW237820   5.462   0.041  10.937  0.6508  1.2901 -0.8005
11410SOL     OW37821   3.495   7.822   9.531  0.0099 -0.0084 -0.2143
11410SOL    HW137822   3.493   7.742   9.478  0.3974 -0.6052  0.6306
11410SOL    HW237823   3.588   7.836   9.548 -0.0886  0.3753  0.0108
11411SOL     OW37824   9.882   3.351   4.068  0.0240 -0.1843  0.0910
11411SOL    HW137825   9.946   3.319   4.005 -0.6938 -1.4619 -0.0471
11411SOL    HW237826   9.921   3.333   4.153  0.7470  1.0097  0.0237
11412SOL     OW37827   3.415   5.421   3.329 -0.6392  0.4260  0.3718
11412SOL    HW137828   3.504   5.455   3.318 -0.4631  0.7667  2.3429
11412SOL    HW237829   3.400   5.367   3.252  1.5705 -0.2403  0.3346
11413SOL     OW37830   0.158   1.498   2.893  0.3031  0.0331 -0.0785
11413SOL    HW137831   0.080   1.542   2.860  0.8835  1.1911  0.0214
11413SOL    HW237832   0.230   1.536   2.843  1.0482  0.7985  1.4887
11414SOL     OW37833   9.755   7.135   7.166  0.3922  0.0415  0.0739
11414SOL    HW137834   9.793   7.217   7.133 -1.3953  0.9063  0.0261
11414SOL    HW237835   9.830   7.078   7.180  1.6259  1.3893 -0.7171
11415SOL     OW37836   9.289  10.930   4.195  0.2100  0.2736  0.6918
11415SOL    HW137837   9.220  10.975   4.145  0.7503  0.6641  0.2815
11415SOL    HW237838   9.361  10.993   4.197  2.0381 -1.4947 -2.2341
11416SOL     OW37839   4.374   6.722   0.010  0.2300  0.5041 -0.0655
11416SOL    HW137840   4.327   6.662  -0.047  0.5289  0.7019 -0.5209
11416SOL    HW237841   4.324   6.803   0.007  1.9779  1.5869 -2.6355
11417SOL     OW37842   0.951   8.768   3.420  0.5165 -0.4546 -0.0347
11417SOL    HW137843   1.004   8.824   3.477  0.0888 -0.6930  0.6031
11417SOL    HW237844   0.979   8.791   3.332  1.2878 -0.1770  0.2715
11418SOL     OW37845   3.421   9.534   3.563  0.0013  0.4487 -0.1538
11418SOL    HW137846   3.359   9.489   3.621  0.4691  0.0391  0.0365
11418SOL    HW237847   3.384   9.622   3.551 -0.6150  0.2034 -0.0477
11419SOL     OW37848   8.683   4.873   0.152  0.1710  0.3372  0.7109
11419SOL    HW137849   8.632   4.793   0.166 -1.3608  1.1551  0.0932
11419SOL    HW237850   8.756   4.846   0.097 -0.3906 -0.6262  0.4058
11420SOL     OW37851   1.991   0.194   4.285  0.3690  0.3904 -0.3680
11420SOL    HW137852   1.999   0.263   4.219 -0.4723 -1.5570 -2.6495
11420SOL    HW237853   2.082   0.168   4.304  0.6925  2.0616  0.5253
11421SOL     OW37854   1.902   6.828   4.363  0.1912 -0.4914 -0.2619
11421SOL    HW137855   1.912   6.912   4.319 -0.5149 -1.0202 -1.4741
11421SOL    HW237856   1.929   6.845   4.453  1.4814  0.6630 -0.8324
11422SOL     OW37857   8.053   4.209   3.526 -0.0829 -0.3799 -0.1205
11422SOL    HW137858   7.967   4.251   3.533 -0.7278 -1.7515  0.9362
11422SOL    HW237859   8.034   4.121   3.493  0.9977 -0.4568 -0.5661
11423SOL     OW37860   6.590   5.465   0.475  0.5436  0.1715 -0.1556
11423SOL    HW137861   6.575   5.516   0.554  0.0543 -0.0683 -0.0843
11423SOL    HW237862   6.555   5.519   0.404  1.5603  0.6645 -0.2946
11424SOL     OW37863   7.602   1.742   0.329 -0.4964 -0.3311  0.2724
11424SOL    HW137864   7.684   1.784   0.354  0.8613 -2.3940 -0.4103
11424SOL    HW237865   7.600   1.661   0.380 -2.8274  0.2634  1.2819
11425SOL     OW37866   1.760   2.085  10.205  0.6101 -0.6446  0.3978
11425SOL    HW137867   1.826   2.149  10.181 -0.6729  0.3619 -0.6113
11425SOL    HW237868   1.802   2.030  10.271  2.8924 -0.9162 -1.1717
11426SOL     OW37869   4.711   2.319   4.189  0.2611  0.3542  0.2033
11426SOL    HW137870   4.752   2.318   4.103  0.8716 -0.1460  0.4995
11426SOL    HW237871   4.703   2.227   4.214 -0.8745  0.4393  0.2390
11427SOL     OW37872  10.905   1.720   0.058 -0.0836 -0.0331 -0.1683
11427SOL    HW137873  10.920   1.653   0.124 -1.8996  0.7092  1.0709
11427SOL    HW237874  10.872   1.671  -0.018  0.7255 -0.7489 -0.0788
11428SOL     OW37875   0.383   6.528  10.380 -0.2643 -0.1187  0.3502
11428SOL    HW137876   0.307   6.564  10.426 -0.6451 -1.4386  0.7949
11428SOL    HW237877   0.358   6.438  10.358  0.6588 -0.1355 -0.7173
11429SOL     OW37878   8.219   3.499   3.327  0.6617  0.1793 -0.5447
11429SOL    HW137879   8.172   3.416   3.333  0.6706  0.2371  0.5681
11429SOL    HW237880   8.151   3.565   3.312  0.1410  0.4275  2.2533
11430SOL     OW37881   3.332   6.665   1.671  0.2078 -0.3307 -0.2369
11430SOL    HW137882   3.365   6.755   1.682 -0.2267 -0.3260  1.2930
11430SOL    HW237883   3.253   6.675   1.618  1.4069 -0.0981 -2.0540
11431SOL     OW37884   8.699   3.311   7.817 -0.2885 -0.4790 -0.1749
11431SOL    HW137885   8.775   3.330   7.873 -1.3031 -1.8900  1.7789
11431SOL    HW237886   8.695   3.216   7.814 -1.8863 -0.4284 -0.3803
11432SOL     OW37887  10.816   9.690   3.394 -0.2994 -0.2284  0.1025
11432SOL    HW137888  10.747   9.720   3.333  2.5426 -0.4567 -3.5742
11432SOL    HW237889  10.886   9.755   3.384  1.7025 -2.2567  0.3093
11433SOL     OW37890   3.592  10.251   2.405  0.3447  0.6574 -0.5424
11433SOL    HW137891   3.529  10.303   2.357 -0.5250  1.6856  1.5948
11433SOL    HW237892   3.539  10.186   2.452  0.9231  1.1209  0.7772
11434SOL     OW37893   7.988   3.492   5.641 -0.3075  0.1008  0.0098
11434SOL    HW137894   7.963   3.414   5.591 -0.9051 -0.1653  0.7035
11434SOL    HW237895   8.035   3.546   5.578  0.5529 -1.0364 -0.3643
11435SOL     OW37896   8.710   4.786   8.414 -0.1876  0.1035 -0.1770
11435SOL    HW137897   8.795   4.826   8.429 -0.6433  0.7802  0.6654
11435SOL    HW237898   8.670   4.840   8.346  0.7568 -1.3011 -1.9263
11436SOL     OW37899   6.976   5.357   1.995  0.0307 -0.0640  0.0717
11436SOL    HW137900   7.043   5.394   1.937  1.1528  0.6385  1.7571
11436SOL    HW237901   7.008   5.374   2.083 -3.3960  2.4054  1.0767
11437SOL     OW37902   2.821   8.888   3.578 -0.4904  0.5060 -0.1485
11437SOL    HW137903   2.891   8.840   3.535 -0.4959  0.3809 -0.0176
11437SOL    HW237904   2.839   8.879   3.672 -0.6465  0.5239 -0.1164
11438SOL     OW37905   6.267   2.576   6.343 -0.0834  0.3460  0.7077
11438SOL    HW137906   6.212   2.504   6.377 -0.0335  0.0302  0.1238
11438SOL    HW237907   6.246   2.650   6.400  0.1021 -0.2158  1.5223
11439SOL     OW37908   3.087   1.580   5.457 -0.1087 -0.8043 -0.1769
11439SOL    HW137909   3.050   1.642   5.394  1.4692 -0.7708 -1.1092
11439SOL    HW237910   3.014   1.521   5.477 -1.3052  0.6022 -0.1890
11440SOL     OW37911   2.993   8.625   7.834 -0.0497  0.0557  0.2463
11440SOL    HW137912   2.985   8.624   7.929 -2.0141 -1.7814  0.1317
11440SOL    HW237913   2.962   8.712   7.808 -0.1569  0.3168  1.2261
11441SOL     OW37914   5.879   8.812   0.955  0.4161  0.0338  0.1633
11441SOL    HW137915   5.874   8.755   1.032  0.0044  0.2866  0.3301
11441SOL    HW237916   5.804   8.785   0.901 -0.9644  1.7008  1.1496
11442SOL     OW37917   6.747   9.671   1.326  0.5462 -0.4426  0.4245
11442SOL    HW137918   6.659   9.644   1.352 -0.4589 -0.6617 -2.8410
11442SOL    HW237919   6.786   9.593   1.286  1.1165  0.4212 -0.7728
11443SOL     OW37920   6.284   1.123   7.700  0.1220 -0.7483  0.7531
11443SOL    HW137921   6.224   1.069   7.751  0.8436 -1.8172  0.5229
11443SOL    HW237922   6.316   1.189   7.762 -0.9606 -0.4168  0.9801
11444SOL     OW37923  11.046   4.622   8.022 -0.3351  0.1366 -0.0081
11444SOL    HW137924  11.075   4.709   7.994 -0.5703  0.3350  0.3579
11444SOL    HW237925  11.077   4.613   8.112 -0.2310 -0.1952 -0.0757
11445SOL     OW37926   9.575   1.544   1.366  0.2056  0.4683 -0.1617
11445SOL    HW137927   9.661   1.585   1.366  0.3039  0.2712 -0.7107
11445SOL    HW237928   9.527   1.589   1.435  0.7904  0.4898  0.2334
11446SOL     OW37929   8.226  10.746   4.301  0.2293  0.0332  0.1577
11446SOL    HW137930   8.133  10.744   4.279  0.1711  0.1210  0.3971
11446SOL    HW237931   8.232  10.702   4.385  0.5521 -0.9775 -0.3824
11447SOL     OW37932   2.757   0.294   8.378  0.0228  0.3289  0.3581
11447SOL    HW137933   2.817   0.345   8.432 -0.1782  2.0780 -0.9861
11447SOL    HW237934   2.794   0.298   8.290 -1.1005 -0.1191 -0.1587
11448SOL     OW37935   6.272   0.847   3.389  0.7983  0.4887  0.6641
11448SOL    HW137936   6.315   0.819   3.470  1.2056  2.3290  1.1336
11448SOL    HW237937   6.334   0.907   3.348  0.3331  0.0663 -0.7252
11449SOL     OW37938   7.076   4.819  10.177 -0.5982 -0.3446 -0.0685
11449SOL    HW137939   7.092   4.874  10.100 -2.4454  1.3573  0.6648
11449SOL    HW237940   7.019   4.872  10.233 -0.7948 -2.2408  1.6589
11450SOL     OW37941   0.949   3.119   6.425  0.2005  0.2281 -0.0023
11450SOL    HW137942   0.874   3.097   6.480  1.8234 -0.9805  1.8659
11450SOL    HW237943   0.934   3.210   6.399 -1.7072  0.1289  0.6222
11451SOL     OW37944   5.387   9.469   7.179 -0.0381 -0.2309  0.3797
11451SOL    HW137945   5.360   9.462   7.271 -1.1145 -0.2767  0.0795
11451SOL    HW237946   5.415   9.560   7.170 -2.9318  0.7482  0.0503
11452SOL     OW37947   7.632   1.768   6.534 -0.3519  0.4640 -0.1059
11452SOL    HW137948   7.629   1.736   6.624  1.3918  0.1181 -0.1309
11452SOL    HW237949   7.592   1.699   6.482 -1.2696  0.6183  0.3853
11453SOL     OW37950   5.515   2.572   5.635 -0.6652  0.1068  0.2711
11453SOL    HW137951   5.512   2.503   5.568  0.4541 -0.3176  0.6355
11453SOL    HW237952   5.492   2.652   5.587  2.3232  0.2153 -1.2100
11454SOL     OW37953   8.607   2.105   0.656 -0.0622  0.3991  0.3048
11454SOL    HW137954   8.540   2.042   0.683  1.3177 -0.7966  1.1103
11454SOL    HW237955   8.689   2.066   0.686  1.0288  1.6621 -0.9344
11455SOL     OW37956   0.772   3.712   0.989 -0.3788  0.3061  0.7118
11455SOL    HW137957   0.704   3.745   0.930 -0.7253 -1.9704 -0.2457
11455SOL    HW237958   0.832   3.664   0.932  0.2235 -0.5064  1.9837
11456SOL     OW37959   5.172   0.887   2.442 -0.7004  0.3703  0.2704
11456SOL    HW137960   5.222   0.812   2.411 -0.3878 -0.3105  2.3230
11456SOL    HW237961   5.213   0.962   2.398  0.5573 -0.4121  0.0624
11457SOL     OW37962   7.197   8.346   1.441 -0.3387  0.6987  0.3359
11457SOL    HW137963   7.290   8.335   1.424  0.0914  1.5284  1.8747
11457SOL    HW237964   7.171   8.419   1.385  0.0561  0.7667  0.2378
11458SOL     OW37965   8.650   2.997   2.267 -0.0674  0.0423 -0.3542
11458SOL    HW137966   8.563   2.956   2.274 -0.2769  0.7793  2.6196
11458SOL    HW237967   8.709   2.924   2.247 -0.6988 -1.5703  2.9249
11459SOL     OW37968   9.043   3.815   1.058 -0.5234 -0.4589  0.0988
11459SOL    HW137969   9.051   3.755   0.984 -1.6535 -0.0189 -0.3965
11459SOL    HW237970   8.957   3.855   1.048  0.8043  2.5025 -0.5440
11460SOL     OW37971   4.268   0.993   2.188  0.5122  0.1300 -0.1218
11460SOL    HW137972   4.223   0.935   2.250  1.2412 -0.3200 -0.0029
11460SOL    HW237973   4.265   0.947   2.105 -0.9983  1.0013 -0.6024
11461SOL     OW37974  10.539   5.431   5.820 -0.5232 -0.9213  0.3113
11461SOL    HW137975  10.520   5.524   5.833  2.0703 -0.4060  0.8680
11461SOL    HW237976  10.544   5.395   5.909  0.1858 -1.2125  0.1563
11462SOL     OW37977   2.493   6.634   9.588 -0.1261  0.3316 -0.6339
11462SOL    HW137978   2.588   6.628   9.580 -0.2474 -0.2833 -1.8061
11462SOL    HW237979   2.479   6.705   9.651  1.1032  1.2116 -1.2979
11463SOL     OW37980   4.829   8.778   4.044 -0.4800  0.2801  0.6822
11463SOL    HW137981   4.752   8.732   4.009  0.8515 -0.2116 -1.8926
11463SOL    HW237982   4.903   8.721   4.022  0.6369  0.3643  3.7535
11464SOL     OW37983   9.487   3.368   3.369  0.3254  0.1356 -0.3693
11464SOL    HW137984   9.466   3.354   3.276 -0.5037  0.1895 -0.1979
11464SOL    HW237985   9.582   3.373   3.371  0.3606  0.0188 -1.2059
11465SOL     OW37986   1.560   0.450   8.066  0.1892 -0.7301 -0.4408
11465SOL    HW137987   1.575   0.356   8.077 -0.7943 -0.8532 -0.0649
11465SOL    HW237988   1.569   0.486   8.155  0.7588 -0.4322 -0.6128
11466SOL     OW37989   3.742   2.858   8.861 -0.3069  0.4061 -0.1784
11466SOL    HW137990   3.647   2.865   8.855 -0.3859 -1.1679 -1.9227
11466SOL    HW237991   3.775   2.933   8.811 -0.6478  0.4722 -0.3078
11467SOL     OW37992   4.944   9.085   5.546 -0.1349 -0.3437  0.5623
11467SOL    HW137993   4.999   9.152   5.503 -1.0531 -0.0260 -0.1456
11467SOL    HW237994   4.867   9.133   5.577 -0.2461 -0.8707  1.1218
11468SOL     OW37995   7.795   6.985   4.498 -0.1563  0.5607 -0.1661
11468SOL    HW137996   7.787   7.022   4.410 -0.4010  2.0939  0.4586
11468SOL    HW237997   7.705   6.967   4.525 -0.0580 -0.2262 -0.3445
11469SOL     OW37998   4.274   5.879   8.770  0.3112 -0.6548  0.2866
11469SOL    HW137999   4.357   5.845   8.734  1.5801  0.9243  1.5440
11469SOL    HW238000   4.216   5.885   8.694  2.1675  0.4568 -1.1440
11470SOL     OW38001   9.573   6.536   8.010 -0.0823  0.2341  0.7986
11470SOL    HW138002   9.575   6.443   7.987  0.4119  0.2781  0.6624
11470SOL    HW238003   9.623   6.542   8.091 -0.1220  0.3830  0.8124
11471SOL     OW38004   4.235   7.244  10.979 -0.1991  0.5334 -0.4294
11471SOL    HW138005   4.190   7.265  10.897  0.2228  0.7443 -0.6121
11471SOL    HW238006   4.180   7.179  11.021 -0.9504  1.1809 -0.3978
11472SOL     OW38007   9.562   4.343   8.362  0.3238  0.1286  0.4051
11472SOL    HW138008   9.530   4.361   8.451  1.4897 -0.9388  1.0847
11472SOL    HW238009   9.619   4.418   8.342 -1.0385  1.0800 -0.0445
11473SOL     OW38010   6.471   2.769   4.274 -0.1426 -0.4321  0.1311
11473SOL    HW138011   6.406   2.744   4.340 -0.6913 -0.3429 -0.3639
11473SOL    HW238012   6.419   2.807   4.203  0.4614 -0.2997 -0.2458
11474SOL     OW38013   9.903   7.579   6.830  0.0356  0.0718  0.6067
11474SOL    HW138014   9.980   7.534   6.866 -0.9417  0.6491  3.7029
11474SOL    HW238015   9.890   7.654   6.887 -1.3806  1.4586 -1.3902
11475SOL     OW38016   0.704   5.220   0.355 -0.5232 -0.5995  0.4650
11475SOL    HW138017   0.738   5.133   0.337 -1.5470 -0.7312 -0.9824
11475SOL    HW238018   0.637   5.234   0.288 -0.7011  1.1131  0.9568
11476SOL     OW38019   7.957   6.146   1.405  0.2103  0.1997  0.0550
11476SOL    HW138020   7.916   6.232   1.405 -0.0815  0.0730 -0.8368
11476SOL    HW238021   8.018   6.148   1.478  0.2227  1.1724  0.0244
11477SOL     OW38022   7.588   4.540  11.097 -0.1537  0.5432 -0.5287
11477SOL    HW138023   7.630   4.536  11.011  1.2719  0.6058  0.1375
11477SOL    HW238024   7.546   4.626  11.099 -2.0286 -0.2820 -1.9446
11478SOL     OW38025   1.582   8.797   6.018  0.0974 -0.1271  0.1013
11478SOL    HW138026   1.670   8.814   6.050  0.1792 -0.9516  0.3563
11478SOL    HW238027   1.525   8.848   6.075  0.4693  1.6353 -1.0114
11479SOL     OW38028   8.822   7.299   5.896 -0.4505 -0.1165  0.1062
11479SOL    HW138029   8.751   7.235   5.895  1.1517 -2.0224 -0.7797
11479SOL    HW238030   8.888   7.259   5.954  1.4018 -0.3126 -1.9826
11480SOL     OW38031   5.716   0.748   6.906 -0.3798  0.2065 -0.2230
11480SOL    HW138032   5.736   0.679   6.842 -1.1690 -1.5241  1.2890
11480SOL    HW238033   5.715   0.829   6.855  1.5488 -0.7325 -1.9199
11481SOL     OW38034   3.399   2.632   9.798  0.3372  0.1534  0.1665
11481SOL    HW138035   3.351   2.551   9.814  2.0281 -0.9289 -0.0535
11481SOL    HW238036   3.442   2.651   9.882  1.5001 -0.2651 -0.3194
11482SOL     OW38037   4.840   7.577   3.390  0.4372  0.3439  0.1978
11482SOL    HW138038   4.781   7.622   3.329 -2.2378 -3.7738 -0.6698
11482SOL    HW238039   4.912   7.547   3.334  0.4966  0.6743  0.0920
11483SOL     OW38040   8.024   3.034   3.703  0.4277  0.4012 -0.0820
11483SOL    HW138041   8.032   3.111   3.758 -0.4285 -0.0989  0.7815
11483SOL    HW238042   7.946   3.049   3.651  1.4982  1.0825 -1.5436
11484SOL     OW38043   1.343   7.220   7.341  0.3789  0.8900  0.1704
11484SOL    HW138044   1.406   7.293   7.341  1.6308 -0.1461  0.6607
11484SOL    HW238045   1.344   7.188   7.431  1.7669 -1.2915 -0.5428
11485SOL     OW38046   8.481   6.138   5.067  0.1412  0.0457  0.4265
11485SOL    HW138047   8.491   6.079   5.142 -0.0989  0.3273  0.6859
11485SOL    HW238048   8.456   6.222   5.106  0.1354  0.2278  0.0376
11486SOL     OW38049   9.575   0.431   1.937 -0.2692  0.6690 -0.6675
11486SOL    HW138050   9.500   0.484   1.963  0.9216  2.0867 -0.0149
11486SOL    HW238051   9.589   0.452   1.845 -0.9978 -0.0441 -0.9569
11487SOL     OW38052   7.477   1.045   8.126 -0.1473 -0.3986  0.1961
11487SOL    HW138053   7.419   1.007   8.192  0.4507 -0.5940  0.6133
11487SOL    HW238054   7.524   0.971   8.089 -0.1565 -0.2397 -0.1368
11488SOL     OW38055   2.058   7.087   8.560  0.1104  0.5521 -0.0078
11488SOL    HW138056   2.021   7.034   8.631 -0.9057  0.9212 -0.2477
11488SOL    HW238057   2.098   7.023   8.502 -1.2421 -0.0038 -0.3743
11489SOL     OW38058   8.246  10.260   1.096  0.2827  0.0494  0.0030
11489SOL    HW138059   8.341  10.256   1.084  0.1750 -2.8429 -0.6993
11489SOL    HW238060   8.210  10.258   1.007 -0.5085  2.2666  0.2014
11490SOL     OW38061   2.061   8.544  10.150  0.0555  0.4441 -0.4250
11490SOL    HW138062   2.088   8.474  10.091  0.1768  1.2034 -1.2970
11490SOL    HW238063   2.045   8.500  10.234  2.5694 -0.2756 -0.2390
11491SOL     OW38064   3.537  11.098   1.477 -0.2144 -0.3468  0.3351
11491SOL    HW138065   3.629  11.126   1.484 -0.1857 -0.5873  0.9596
11491SOL    HW238066   3.539  11.004   1.497 -0.5540 -0.4211  0.0291
11492SOL     OW38067   3.155   3.954   6.695  0.3469  0.1364  0.1902
11492SOL    HW138068   3.079   3.957   6.638  0.3765  0.3843  0.1653
11492SOL    HW238069   3.159   4.041   6.735  0.0709 -0.1711  0.8989
11493SOL     OW38070   8.777   6.532   8.511 -0.7710  0.4872  0.1128
11493SOL    HW138071   8.721   6.558   8.584 -1.3934 -1.3152  0.3286
11493SOL    HW238072   8.727   6.463   8.466  0.6369 -0.1258 -0.5689
11494SOL     OW38073   8.792   4.993  10.850  0.6888  0.0218  0.1625
11494SOL    HW138074   8.804   4.968  10.758  1.0185  0.7862 -0.0190
11494SOL    HW238075   8.754   5.081  10.845  1.9663  0.6304  0.7375
11495SOL     OW38076   0.075   0.673   1.002  0.2588  0.3183  0.4390
11495SOL    HW138077   0.098   0.581   0.993 -0.3888  0.1987 -0.0953
11495SOL    HW238078   0.033   0.696   0.919 -2.2769  0.2862  1.6235
11496SOL     OW38079   0.127   5.190   0.785  0.2364  0.5179  0.3214
11496SOL    HW138080   0.088   5.144   0.859 -0.3403  0.6302  0.0976
11496SOL    HW238081   0.124   5.283   0.810 -0.2998  0.5881  0.0063
11497SOL     OW38082   9.911   0.454   8.580  0.2274 -0.0796  0.0940
11497SOL    HW138083   9.913   0.361   8.603  0.9922 -0.1906 -0.3982
11497SOL    HW238084  10.003   0.481   8.579  0.0380  0.5925 -0.1636
11498SOL     OW38085   6.466  10.893   8.002  0.4283  0.2242  0.1370
11498SOL    HW138086   6.391  10.920   7.949  0.1909 -0.8888 -0.1237
11498SOL    HW238087   6.485  10.969   8.057 -0.5341  0.7242 -0.1916
11499SOL     OW38088   1.260  10.088   6.680 -0.0955  0.4629 -0.3018
11499SOL    HW138089   1.256  10.050   6.768  0.6730  0.9510 -0.0429
11499SOL    HW238090   1.329  10.039   6.636  0.3564  1.0087 -0.2232
11500SOL     OW38091  10.323   0.598   1.019 -0.1475  0.1886  0.0923
11500SOL    HW138092  10.237   0.576   1.053  0.0064 -2.0811 -0.8242
11500SOL    HW238093  10.306   0.661   0.949 -1.0826 -0.3864 -0.2092
11501SOL     OW38094   4.410   5.716   3.687 -0.1129  0.1077 -0.3549
11501SOL    HW138095   4.330   5.766   3.675  0.0465  1.0160  1.8974
11501SOL    HW238096   4.382   5.635   3.729  0.1717  0.9554  1.6257
11502SOL     OW38097   3.926   0.872   1.476 -0.0033  0.0899 -0.4388
11502SOL    HW138098   3.886   0.793   1.439  0.9801 -0.8712  0.5023
11502SOL    HW238099   3.879   0.886   1.558  0.4318 -0.0587 -0.1603
11503SOL     OW38100   2.829   1.430   0.520 -0.1713 -0.7740  0.0177
11503SOL    HW138101   2.909   1.482   0.525  0.9135 -2.4555  1.3096
11503SOL    HW238102   2.759   1.491   0.543  1.2040 -0.1913  3.2403
11504SOL     OW38103   8.337   0.433   0.294 -0.3942 -0.1325  0.2088
11504SOL    HW138104   8.356   0.523   0.322  0.5518 -0.4773  0.7014
11504SOL    HW238105   8.264   0.442   0.233 -0.1757  0.9967  0.0974
11505SOL     OW38106   2.714  10.998   1.895 -0.2083  0.0271  0.5535
11505SOL    HW138107   2.728  10.987   1.989 -3.1461  1.0360  1.2192
11505SOL    HW238108   2.624  10.968   1.881  0.6408 -1.5519 -2.2742
11506SOL     OW38109   1.723   3.088   8.086  0.2734 -0.0605 -0.4055
11506SOL    HW138110   1.764   3.008   8.053 -0.4412 -0.9603  0.8015
11506SOL    HW238111   1.636   3.089   8.046  0.2216  0.0236 -0.2932
11507SOL     OW38112   0.642   1.715   0.018  0.0599 -0.6581  0.4243
11507SOL    HW138113   0.552   1.704   0.049 -0.1743 -1.1876 -0.4104
11507SOL    HW238114   0.674   1.626   0.006 -0.2762 -0.5239 -1.9655
11508SOL     OW38115   1.119   4.152  10.141  0.2771  0.4821 -0.4141
11508SOL    HW138116   1.098   4.095  10.215 -0.0073  3.1801  1.7399
11508SOL    HW238117   1.207   4.126  10.115  0.1208 -0.9709  0.4199
11509SOL     OW38118   2.191   2.074   6.909 -0.0945  0.1650  0.2729
11509SOL    HW138119   2.209   2.161   6.945  0.4401 -0.9970  3.1520
11509SOL    HW238120   2.277   2.033   6.903 -0.4685 -0.6363  0.2842
11510SOL     OW38121   6.597   5.009   9.572 -0.1362 -0.1679 -0.2570
11510SOL    HW138122   6.648   4.952   9.630  1.1043  0.9800 -0.1899
11510SOL    HW238123   6.507   4.980   9.585  0.3104 -1.1841  0.8343
11511SOL     OW38124   3.757   9.135   7.452 -0.7476  0.2027 -0.0164
11511SOL    HW138125   3.834   9.121   7.399 -0.3235 -0.8923  0.8589
11511SOL    HW238126   3.696   9.183   7.395  0.1399  0.1012 -1.0631
11512SOL     OW38127   3.451   0.939   4.284 -0.1845 -0.2542 -0.2782
11512SOL    HW138128   3.537   0.929   4.326 -0.3135 -3.3895 -0.5695
11512SOL    HW238129   3.389   0.904   4.347 -0.6951 -2.2933 -1.8292
11513SOL     OW38130   9.728   0.825   7.361 -0.2651 -0.3863 -0.4527
11513SOL    HW138131   9.808   0.803   7.408 -0.5712 -2.5880 -0.8542
11513SOL    HW238132   9.725   0.920   7.362  2.2816 -0.2443 -0.3317
11514SOL     OW38133  11.019   9.926   9.690 -0.3653 -0.0777  0.4601
11514SOL    HW138134  10.952   9.947   9.626 -2.2971 -0.6975  2.1782
11514SOL    HW238135  11.025  10.004   9.745  0.4850  0.0395  0.2198
11515SOL     OW38136   9.309   5.510   1.640 -0.1617 -0.3784 -0.8359
11515SOL    HW138137   9.315   5.553   1.555  0.5832  1.7401  0.2131
11515SOL    HW238138   9.384   5.450   1.642 -0.6728 -1.0895 -1.9648
11516SOL     OW38139   7.016   4.751   3.638  0.6703 -0.4994 -0.3687
11516SOL    HW138140   6.956   4.677   3.621 -0.5480  0.0958  1.1510
11516SOL    HW238141   7.040   4.782   3.551  0.8328 -2.3871 -1.0377
11517SOL     OW38142   8.800   2.601  10.997 -0.3215  0.2066  0.3872
11517SOL    HW138143   8.737   2.641  10.937 -1.9199  0.0919  1.9279
11517SOL    HW238144   8.765   2.513  11.013  1.7362 -0.9249 -0.8805
11518SOL     OW38145   3.102   6.017   8.855  0.0108  0.0768 -0.4363
11518SOL    HW138146   3.108   5.948   8.921 -0.1978 -0.0677 -0.5675
11518SOL    HW238147   3.150   6.091   8.893 -0.7966  0.2675  0.2257
11519SOL     OW38148  10.421   1.816   8.585 -0.1612 -0.2852 -0.0545
11519SOL    HW138149  10.378   1.732   8.602  1.0558 -0.5414  2.0657
11519SOL    HW238150  10.503   1.812   8.634 -0.6704  2.6498  1.2836
11520SOL     OW38151   0.094   6.790   8.700  0.1524  0.1222  0.1553
11520SOL    HW138152   0.144   6.744   8.768  0.0226 -0.1049  0.0981
11520SOL    HW238153   0.028   6.726   8.672  0.3452  0.1406 -0.3409
11521SOL     OW38154   5.360   5.571   7.440 -0.0683  0.5064  0.2615
11521SOL    HW138155   5.443   5.592   7.482 -0.1212  1.6491 -0.1822
11521SOL    HW238156   5.299   5.637   7.472 -0.4894  0.4645 -0.4225
11522SOL     OW38157   9.170   2.103   4.859  0.7533  0.0880  0.3277
11522SOL    HW138158   9.204   2.175   4.912 -0.8160  1.6267 -0.6490
11522SOL    HW238159   9.075   2.117   4.858  0.6028 -0.7170 -1.6859
11523SOL     OW38160   4.479   5.304   6.331 -0.3020 -0.0955  0.2998
11523SOL    HW138161   4.489   5.373   6.396  0.4873 -1.6486  1.8947
11523SOL    HW238162   4.387   5.280   6.335 -0.6081  0.8656 -0.3374
11524SOL     OW38163   5.469   6.024  11.108  0.1930  0.2849  0.6968
11524SOL    HW138164   5.470   5.969  11.186 -1.3920  0.2991  0.7487
11524SOL    HW238165   5.379   6.055  11.101  0.3198  0.3300 -1.1156
11525SOL     OW38166   1.039   9.813   3.360 -0.0651  0.4792 -0.5717
11525SOL    HW138167   0.967   9.863   3.398  0.0043  0.0939  0.0820
11525SOL    HW238168   1.115   9.835   3.414 -0.0320 -0.3210 -0.2871
11526SOL     OW38169  10.262  10.006   3.551 -0.2234  0.7138  0.1943
11526SOL    HW138170  10.176  10.048   3.548 -0.9754 -0.8140 -1.6639
11526SOL    HW238171  10.244   9.915   3.574  1.0306  0.6486  0.9781
11527SOL     OW38172   0.842  10.308   8.462  0.5273  0.2130  0.0749
11527SOL    HW138173   0.922  10.328   8.415 -1.0313  2.2125 -1.9892
11527SOL    HW238174   0.774  10.358   8.416 -1.7784 -0.7260  2.1983
11528SOL     OW38175   8.872   2.922   5.437 -0.7404 -0.7339 -0.2997
11528SOL    HW138176   8.799   2.955   5.385 -2.3164 -1.9184  1.0526
11528SOL    HW238177   8.853   2.829   5.449  1.2834 -1.2031 -0.3251
11529SOL     OW38178  10.867   9.723   2.695 -0.0716 -0.2738 -0.3544
11529SOL    HW138179  10.813   9.667   2.638 -0.2051  1.0493 -1.5824
11529SOL    HW238180  10.804   9.779   2.741  0.1515  0.0350 -0.4221
11530SOL     OW38181   5.331   0.606  10.368 -0.0742  0.0584 -0.2814
11530SOL    HW138182   5.307   0.558  10.446 -0.3389 -0.3525 -0.6118
11530SOL    HW238183   5.426   0.595  10.361 -0.0006  0.3889  0.1724
11531SOL     OW38184   1.428   9.855   6.966  0.4299 -0.4564 -0.0019
11531SOL    HW138185   1.412   9.946   6.993  1.4870 -0.4943  0.8329
11531SOL    HW238186   1.373   9.843   6.889  1.8095  1.5530 -1.4076
11532SOL     OW38187   8.426   0.036   8.277  0.4268 -0.0520 -0.6280
11532SOL    HW138188   8.510   0.071   8.247  0.9293  0.4808  1.2867
11532SOL    HW238189   8.363   0.068   8.213  1.8207 -1.7655 -3.0328
11533SOL     OW38190   2.591   0.341  11.071 -0.0127  0.2701 -0.7143
11533SOL    HW138191   2.628   0.364  11.156  0.4607  2.1773 -1.3963
11533SOL    HW238192   2.650   0.381  11.007 -0.6536 -0.6625 -1.9397
11534SOL     OW38193   6.753   7.118   9.075  0.2232  0.1068  0.3581
11534SOL    HW138194   6.847   7.120   9.094  0.1893 -1.5477  0.8382
11534SOL    HW238195   6.718   7.051   9.133 -1.4301  1.3200  0.8442
11535SOL     OW38196   1.582   4.356   6.234 -0.2074  0.2671  0.4116
11535SOL    HW138197   1.565   4.287   6.170 -3.3834  0.9466  0.3247
11535SOL    HW238198   1.642   4.416   6.191  0.7898 -1.2548 -0.3873
11536SOL     OW38199   6.834  10.383   1.196 -0.4322  0.4857 -0.3201
11536SOL    HW138200   6.870  10.322   1.260  1.5108  2.3552  0.4945
11536SOL    HW238201   6.769  10.434   1.245 -0.6874  0.3349 -0.4975
11537SOL     OW38202   1.553   0.990  10.693 -0.2429  0.3382  0.0208
11537SOL    HW138203   1.542   0.904  10.735 -1.0643  0.1353 -0.5742
11537SOL    HW238204   1.647   0.999  10.680 -0.1241 -0.3398  0.3849
11538SOL     OW38205   5.809   6.044   7.855  0.3360 -0.1340  0.5565
11538SOL    HW138206   5.751   6.021   7.928  0.6992  0.8072  1.1651
11538SOL    HW238207   5.750   6.076   7.787  0.1375  1.0041  1.2437
11539SOL     OW38208   9.424   2.518   3.267  0.6201 -0.3801 -0.9584
11539SOL    HW138209   9.437   2.454   3.337 -3.4823 -0.4699 -0.0083
11539SOL    HW238210   9.442   2.470   3.187  1.0460 -1.6610 -0.1249
11540SOL     OW38211   8.802   4.193   6.601 -0.0292 -0.0183  0.3981
11540SOL    HW138212   8.785   4.273   6.650 -0.4389  0.4191 -0.4336
11540SOL    HW238213   8.749   4.201   6.522  1.1424 -0.3736 -0.4636
11541SOL     OW38214   3.600   6.476   8.748  0.0460  0.4436  0.6161
11541SOL    HW138215   3.529   6.541   8.755  0.7930  1.7284 -2.3443
11541SOL    HW238216   3.654   6.508   8.676 -0.0728 -3.9856 -1.7508
11542SOL     OW38217  10.084   3.167   0.569 -0.8608 -0.1732 -0.2688
11542SOL    HW138218  10.012   3.211   0.614 -0.0037 -0.9066  1.9134
11542SOL    HW238219  10.151   3.234   0.559 -1.9356  0.6808 -2.8373
11543SOL     OW38220   1.107   4.804   0.383 -0.2322 -0.1275 -0.3167
11543SOL    HW138221   1.074   4.803   0.293 -1.0065 -2.3835 -0.0551
11543SOL    HW238222   1.035   4.840   0.435 -0.1129  0.3390 -0.4674
11544SOL     OW38223   4.823  10.454   7.065 -0.2243  0.1087 -0.1236
11544SOL    HW138224   4.893  10.390   7.076  0.0643  0.4074 -0.1860
11544SOL    HW238225   4.864  10.538   7.089 -0.4477  0.3409 -0.5454
11545SOL     OW38226   5.624  10.067   0.482 -0.2225  0.0991  0.1063
11545SOL    HW138227   5.709  10.039   0.515 -0.9418 -2.0873  0.2429
11545SOL    HW238228   5.600  10.001   0.417 -2.5086 -0.2447  1.2034
11546SOL     OW38229   5.355   2.222   8.461  0.1048  0.3700 -0.1754
11546SOL    HW138230   5.366   2.133   8.493 -0.7146  0.2819 -0.1175
11546SOL    HW238231   5.302   2.213   8.382 -0.1032  0.8166 -0.0909
11547SOL     OW38232   1.559   3.562   5.204  0.0377 -0.1154  0.1146
11547SOL    HW138233   1.492   3.589   5.141  0.0182 -2.5568 -1.0574
11547SOL    HW238234   1.625   3.630   5.199 -0.2110  0.0701 -2.2255
11548SOL     OW38235  10.470   9.586   3.201  0.4367  0.0401  0.3139
11548SOL    HW138236  10.510   9.673   3.207  1.0288  0.0178 -2.1740
11548SOL    HW238237  10.543   9.525   3.202  0.0828 -0.3829  1.1052
11549SOL     OW38238   1.861   2.432   8.689 -0.4859  0.0683 -0.0403
11549SOL    HW138239   1.935   2.433   8.629  0.5087 -3.2783  0.8850
11549SOL    HW238240   1.807   2.358   8.660 -0.0054 -1.6658  2.9740
11550SOL     OW38241  10.774   5.185   3.132  0.1607 -0.0897  0.3545
11550SOL    HW138242  10.836   5.112   3.138  3.0374  1.9495 -1.5753
11550SOL    HW238243  10.798   5.242   3.205  0.0777  0.3917  0.0078
11551SOL     OW38244   7.097   6.048   6.976  0.4881 -0.7978 -0.0579
11551SOL    HW138245   7.026   6.090   6.927  1.6215  0.0875 -0.9778
11551SOL    HW238246   7.153   6.008   6.910  0.9197 -1.4082  0.6535
11552SOL     OW38247   3.139   7.674   9.372  0.1120 -0.4062 -1.0471
11552SOL    HW138248   3.160   7.729   9.296 -1.8835  0.7861 -0.8021
11552SOL    HW238249   3.132   7.736   9.445 -0.8503 -1.1470 -0.4872
11553SOL     OW38250   5.630   8.372  11.091 -0.1862 -0.1474  0.3419
11553SOL    HW138251   5.649   8.285  11.054  0.8826 -0.3610  1.3169
11553SOL    HW238252   5.715   8.416  11.093 -1.1055  2.1143 -2.8858
11554SOL     OW38253   4.635   5.749   1.145 -0.0089  0.1060  0.4913
11554SOL    HW138254   4.597   5.685   1.206 -0.1775  0.2096  0.4954
11554SOL    HW238255   4.561   5.803   1.119  0.3201  0.9920  1.3325
11555SOL     OW38256   7.064   6.016   3.304  0.3744 -0.1071 -0.5779
11555SOL    HW138257   7.089   6.077   3.234 -0.4815  0.4443 -0.4213
11555SOL    HW238258   7.092   6.060   3.384 -0.3673  0.1572 -0.4554
11556SOL     OW38259   8.274  10.730   7.319  0.4349  0.9805 -0.1269
11556SOL    HW138260   8.193  10.744   7.368 -0.6079  1.5762 -1.9170
11556SOL    HW238261   8.280  10.805   7.261  1.5140  0.2205 -1.0432
11557SOL     OW38262   7.451   9.859   9.080 -0.1088 -0.0370 -0.0048
11557SOL    HW138263   7.457   9.948   9.044  0.1367 -0.5437 -1.2644
11557SOL    HW238264   7.393   9.812   9.020  1.2599 -1.2311 -0.4478
11558SOL     OW38265   8.540   3.223   7.380  0.2920 -0.0377  0.1923
11558SOL    HW138266   8.588   3.265   7.308 -1.8403  1.3229 -0.5120
11558SOL    HW238267   8.515   3.295   7.438 -1.0779 -0.6618  0.4201
11559SOL     OW38268   5.040   5.474   0.460 -0.1761  0.6324 -0.5141
11559SOL    HW138269   4.973   5.433   0.405 -0.9296  1.4566 -0.2380
11559SOL    HW238270   5.024   5.568   0.451 -0.6494  0.7740  1.5114
11560SOL     OW38271   4.123   4.800   8.774 -0.0709 -0.6083  0.0712
11560SOL    HW138272   4.142   4.742   8.848  0.0675  0.4896  0.9213
11560SOL    HW238273   4.029   4.816   8.780  0.2137  0.9038  1.1251
11561SOL     OW38274   3.900   7.116  10.489  0.2817  0.5319  0.3675
11561SOL    HW138275   3.831   7.068  10.445 -0.2793  1.3568  0.3228
11561SOL    HW238276   3.934   7.176  10.422  2.6254 -1.4103 -0.3153
11562SOL     OW38277   5.321   8.582   6.055  0.0974  0.4579  0.1405
11562SOL    HW138278   5.318   8.661   6.108 -2.8054 -0.8299  2.1615
11562SOL    HW238279   5.373   8.520   6.106  0.5323  0.3542 -0.4073
11563SOL     OW38280   0.666   8.016   7.570  0.2054 -0.3677 -0.3784
11563SOL    HW138281   0.708   8.087   7.520 -1.2166  0.7625 -0.0177
11563SOL    HW238282   0.689   8.034   7.661 -1.5657  0.6571 -0.1040
11564SOL     OW38283   9.904   8.818   2.304  0.2206 -0.2209 -0.3267
11564SOL    HW138284   9.846   8.801   2.379  0.7663 -1.3911 -0.1465
11564SOL    HW238285   9.856   8.782   2.229 -0.0498  0.3874 -0.4493
11565SOL     OW38286   7.503   6.542   7.783  0.1110  0.0097  0.1716
11565SOL    HW138287   7.523   6.587   7.700  1.2875 -1.4462 -0.3797
11565SOL    HW238288   7.430   6.484   7.761 -1.5064  1.6550  0.9206
11566SOL     OW38289   8.549   8.140   1.727  0.6052 -0.0514  0.0843
11566SOL    HW138290   8.514   8.098   1.648 -1.2565 -1.7970  1.7024
11566SOL    HW238291   8.472   8.179   1.769  1.5267  0.7023  1.1083
11567SOL     OW38292  10.953   0.689   1.836 -0.0458  0.6021 -0.3899
11567SOL    HW138293  10.968   0.669   1.743  2.0995 -3.1062  0.5054
11567SOL    HW238294  10.904   0.613   1.868  0.3980  1.1736  1.7500
11568SOL     OW38295   6.091   1.093   6.959 -0.4427  0.4175 -0.1288
11568SOL    HW138296   6.034   1.102   6.883 -0.6172 -0.3851 -0.0936
11568SOL    HW238297   6.033   1.068   7.031 -0.6279  3.1643  0.8023
11569SOL     OW38298   3.768   3.152   7.716 -0.6841 -0.2824 -1.0328
11569SOL    HW138299   3.788   3.237   7.676  1.1808 -0.0760  0.2097
11569SOL    HW238300   3.750   3.173   7.807 -0.0913 -1.2204 -0.6903
11570SOL     OW38301   7.054   9.027   8.191 -0.4455  0.2588  0.0903
11570SOL    HW138302   7.115   9.009   8.262 -0.2728 -1.2306 -0.4095
11570SOL    HW238303   6.994   8.953   8.190 -2.0889  1.5272  0.3391
11571SOL     OW38304   8.346   9.561   0.502 -0.8681  0.6440 -0.5071
11571SOL    HW138305   8.424   9.505   0.497 -0.3306  1.1572  1.3807
11571SOL    HW238306   8.321   9.574   0.410  1.0793  0.2039 -1.1610
11572SOL     OW38307  10.482   3.868   6.882 -0.0181 -0.2143 -0.1287
11572SOL    HW138308  10.574   3.856   6.860 -0.4931 -1.2050 -1.7531
11572SOL    HW238309  10.460   3.794   6.938  0.1321 -0.0588  0.1363
11573SOL     OW38310   3.222   3.330   4.632  0.5124  0.3708 -0.2277
11573SOL    HW138311   3.129   3.310   4.623  0.9917 -1.5075 -1.6446
11573SOL    HW238312   3.255   3.264   4.694  0.9097  1.0483  0.2962
11574SOL     OW38313   8.101  10.909   6.399 -0.7207  0.7519 -0.0148
11574SOL    HW138314   8.196  10.909   6.412 -0.6863  0.9221 -0.2776
11574SOL    HW238315   8.074  10.999   6.416 -0.7078  0.9259 -0.8739
11575SOL     OW38316   7.073   0.916   9.210 -0.1220 -0.1842 -0.5592
11575SOL    HW138317   7.155   0.947   9.172 -0.3021  1.4030  0.2892
11575SOL    HW238318   7.099   0.853   9.277  0.6243  2.1904  1.5160
11576SOL     OW38319   8.807   6.523   9.174 -0.4090 -0.1445 -0.0371
11576SOL    HW138320   8.868   6.576   9.226 -0.6816 -0.7971  0.9508
11576SOL    HW238321   8.757   6.473   9.238 -1.0931 -0.5945 -0.9050
11577SOL     OW38322   9.857   0.582   6.905  0.1657  0.1467  0.2098
11577SOL    HW138323   9.867   0.622   6.991  0.2931 -1.5434  1.0303
11577SOL    HW238324   9.930   0.616   6.853 -0.9401  2.5997  0.1419
11578SOL     OW38325   7.638   8.089   4.774 -0.6126  0.8687 -0.3430
11578SOL    HW138326   7.636   8.115   4.866  2.0798 -0.6891  0.2554
11578SOL    HW238327   7.687   8.158   4.730  2.5173 -0.7056  0.4122
11579SOL     OW38328   8.688   0.404   6.295 -0.1676  0.2447 -0.2207
11579SOL    HW138329   8.705   0.396   6.201 -2.8920  1.0367 -0.8708
11579SOL    HW238330   8.651   0.491   6.305 -0.3810 -0.0150  1.5295
11580SOL     OW38331   0.872   4.210   6.468  0.1303 -0.2708 -0.1644
11580SOL    HW138332   0.818   4.283   6.438 -0.2599 -0.1088  0.8735
11580SOL    HW238333   0.811   4.153   6.516  1.0968  0.6833  2.3590
11581SOL     OW38334   4.127   4.056   9.253  0.0200 -0.1924 -0.2946
11581SOL    HW138335   4.122   4.066   9.158 -0.5860 -0.1736 -0.2638
11581SOL    HW238336   4.109   4.144   9.288 -2.3909 -0.6925 -0.1034
11582SOL     OW38337   1.053   3.747   9.732  0.8928  0.0475 -0.2673
11582SOL    HW138338   1.101   3.796   9.798  1.4782 -0.1298 -0.5527
11582SOL    HW238339   0.962   3.752   9.759  0.8108  2.0593 -0.7707
11583SOL     OW38340   8.270   7.011   6.746  0.2656 -0.0037  0.0746
11583SOL    HW138341   8.281   7.060   6.665  2.2168  0.7841  0.7673
11583SOL    HW238342   8.311   6.926   6.730 -0.6347 -0.3933 -0.2153
11584SOL     OW38343   0.082   8.330   8.291 -0.7086 -0.0142 -0.0760
11584SOL    HW138344   0.009   8.268   8.289 -1.6242  1.0526 -2.0546
11584SOL    HW238345   0.042   8.413   8.317  0.5242 -0.1609  2.6847
11585SOL     OW38346   8.033   2.283   1.262  0.0182  0.0192  0.3675
11585SOL    HW138347   8.122   2.259   1.286 -0.3842 -0.5638  1.3764
11585SOL    HW238348   7.994   2.202   1.229 -1.4342 -1.0282  4.0510
11586SOL     OW38349   6.830   2.356   8.733 -0.1225 -0.4640 -0.1723
11586SOL    HW138350   6.764   2.322   8.794 -0.1743  0.3228  0.2227
11586SOL    HW238351   6.785   2.358   8.649 -0.6928  0.2919  0.1360
11587SOL     OW38352   8.825   1.899   4.845  0.1601 -0.1256  0.4073
11587SOL    HW138353   8.751   1.934   4.796 -0.0089 -0.3099  0.5332
11587SOL    HW238354   8.872   1.976   4.877  2.2435  0.1905 -2.9124
11588SOL     OW38355   3.591   0.810   3.241  0.0802 -0.4903 -0.3579
11588SOL    HW138356   3.664   0.872   3.239 -1.9191  2.0388 -0.2819
11588SOL    HW238357   3.539   0.832   3.164 -0.8476 -1.9230 -0.1795
11589SOL     OW38358  11.030   2.664   7.426 -0.4722  0.1001  0.5154
11589SOL    HW138359  11.039   2.570   7.443 -0.5518  0.0678  0.3851
11589SOL    HW238360  11.002   2.702   7.509  0.7799  0.1919  0.9117
11590SOL     OW38361   1.460  10.669   1.542 -0.6240 -0.0998  0.3348
11590SOL    HW138362   1.383  10.630   1.584 -0.9292 -0.1111 -0.2118
11590SOL    HW238363   1.496  10.729   1.607 -3.2730  2.7860 -0.5961
11591SOL     OW38364   2.186   9.789  10.254  0.7695  0.1201 -0.1339
11591SOL    HW138365   2.129   9.865  10.264  1.0894  0.1594  2.0186
11591SOL    HW238366   2.273   9.821  10.278  1.2787 -0.4700 -1.1446
11592SOL     OW38367   1.342   8.230   5.713  0.5884  0.3611  0.1929
11592SOL    HW138368   1.301   8.233   5.627 -1.5745 -2.6944  0.9523
11592SOL    HW238369   1.404   8.303   5.713 -2.2596  3.0965 -2.4227
11593SOL     OW38370   5.315   3.079   5.461  0.3765 -0.2318  0.0162
11593SOL    HW138371   5.335   3.066   5.368 -1.3294  2.1045 -0.7757
11593SOL    HW238372   5.334   3.171   5.478 -1.2548 -0.0892  1.4238
11594SOL     OW38373   6.375   8.313  10.357 -0.0410  0.2043  0.2089
11594SOL    HW138374   6.295   8.262  10.351 -1.2975  2.1465 -0.3162
11594SOL    HW238375   6.363   8.369  10.433  1.7047 -0.8566  1.3265
11595SOL     OW38376   8.517   9.490   6.058 -0.4479  0.0535  0.2217
11595SOL    HW138377   8.519   9.577   6.021 -2.0831  0.6615  1.4515
11595SOL    HW238378   8.493   9.503   6.150  0.1283 -1.6264  0.6602
11596SOL     OW38379   2.782   9.097   8.261 -0.5896  0.2585  0.0622
11596SOL    HW138380   2.833   9.147   8.197 -0.2005 -0.5533 -0.2731
11596SOL    HW238381   2.712   9.057   8.210 -0.1369 -0.5891  0.0818
11597SOL     OW38382   1.312   9.512  10.805  0.1438 -0.1534 -0.1539
11597SOL    HW138383   1.264   9.549  10.880  1.7293 -1.3461  1.5422
11597SOL    HW238384   1.314   9.584  10.741 -0.9570  1.0422  1.0724
11598SOL     OW38385   5.552   5.146   1.919 -0.2014 -0.4107  0.4829
11598SOL    HW138386   5.523   5.210   1.985 -0.0018 -0.4007  0.5604
11598SOL    HW238387   5.471   5.105   1.889 -0.2210 -1.1369  1.4778
11599SOL     OW38388   1.519   1.931   0.883 -0.0744 -0.6099 -0.1520
11599SOL    HW138389   1.478   1.919   0.797 -1.5250 -0.4216  0.4873
11599SOL    HW238390   1.599   1.878   0.879 -2.4566 -4.5680 -0.0140
11600SOL     OW38391   4.635   9.766   7.550 -0.0633 -0.5472  0.1427
11600SOL    HW138392   4.554   9.818   7.553  1.1749  1.7214 -2.0419
11600SOL    HW238393   4.667   9.767   7.641 -2.3814 -1.4630  1.0420
11601SOL     OW38394   1.064   4.447   6.666 -0.2072 -0.0717 -0.1190
11601SOL    HW138395   1.004   4.458   6.740  1.2579  0.4407  1.0530
11601SOL    HW238396   1.115   4.528   6.665  1.1224 -0.8842 -0.4351
11602SOL     OW38397   8.581   7.373   1.612 -0.4250  0.4785  0.1777
11602SOL    HW138398   8.501   7.416   1.584  0.0761  1.7030  0.5417
11602SOL    HW238399   8.553   7.288   1.646 -1.2573 -0.2389 -2.1126
11603SOL     OW38400   8.579   9.337   1.656  0.3166 -0.1910  0.1582
11603SOL    HW138401   8.522   9.388   1.598  0.6373  1.8540  1.5149
11603SOL    HW238402   8.661   9.328   1.608 -0.3273 -1.0594 -0.8289
11604SOL     OW38403   5.269   7.732   1.248  0.0537 -0.2312 -0.2701
11604SOL    HW138404   5.237   7.665   1.188  1.9456  0.3474 -2.0413
11604SOL    HW238405   5.206   7.803   1.242 -0.6506 -0.8487 -0.2684
11605SOL     OW38406   1.470   9.199   1.919  0.4923  0.3414  0.2265
11605SOL    HW138407   1.428   9.283   1.903  1.5570  1.3360  2.3122
11605SOL    HW238408   1.563   9.216   1.910  0.6932 -0.8092 -0.0588
11606SOL     OW38409   1.643   2.054   1.443  0.5812  0.3097 -0.6066
11606SOL    HW138410   1.657   2.119   1.374  1.2796 -1.1181 -1.8959
11606SOL    HW238411   1.697   2.085   1.516  1.3143  0.9226 -1.3755
11607SOL     OW38412   5.073   2.776   2.341 -0.5578 -0.1181  0.4432
11607SOL    HW138413   5.159   2.784   2.301 -0.3596 -1.6323  0.5084
11607SOL    HW238414   5.066   2.852   2.398  0.3429  0.5223 -0.2727
11608SOL     OW38415   6.489   0.213   2.799  0.2011  0.3513 -0.0526
11608SOL    HW138416   6.444   0.211   2.884 -0.4384 -2.6411 -0.3635
11608SOL    HW238417   6.533   0.298   2.798 -1.8951  1.5908  2.1300
11609SOL     OW38418   4.248   0.903   7.524  0.2207 -0.0074 -0.4428
11609SOL    HW138419   4.163   0.937   7.553 -0.3567 -1.1155 -0.7845
11609SOL    HW238420   4.226   0.836   7.460  1.3874  0.1117 -0.9845
11610SOL     OW38421   2.893   5.674   6.578  0.3310 -0.9882  0.5986
11610SOL    HW138422   2.856   5.756   6.545 -0.3626 -1.0816  1.1386
11610SOL    HW238423   2.971   5.660   6.524 -0.4188 -0.8058 -0.5623
11611SOL     OW38424   9.395   1.434   5.043  0.2369 -0.0171 -0.0814
11611SOL    HW138425   9.305   1.427   5.076  0.1880  2.5193  0.5408
11611SOL    HW238426   9.397   1.518   4.997  2.1686 -0.2533 -0.5048
11612SOL     OW38427  10.525   0.758   9.649 -0.4059  0.2801  0.2121
11612SOL    HW138428  10.441   0.722   9.677 -0.2842 -0.3707 -0.2342
11612SOL    HW238429  10.503   0.842   9.607 -0.9576 -0.3749 -0.8533
11613SOL     OW38430   4.809   8.347   2.039 -0.5328  0.2591 -0.2175
11613SOL    HW138431   4.824   8.336   1.945 -0.8698  1.9733 -0.4985
11613SOL    HW238432   4.795   8.441   2.050 -0.0625  0.1415  1.6227
11614SOL     OW38433   9.794   9.721   9.359 -0.3727 -0.7227 -0.2933
11614SOL    HW138434   9.886   9.723   9.384 -0.9621 -1.3221  2.1381
11614SOL    HW238435   9.756   9.800   9.399 -1.3532 -1.6978  0.7841
11615SOL     OW38436   5.578   9.586   4.642  0.0515 -0.3346 -0.0696
11615SOL    HW138437   5.512   9.525   4.608 -0.6513 -0.3617  1.2583
11615SOL    HW238438   5.562   9.588   4.736  0.9889  0.8275  0.0888
11616SOL     OW38439   8.229   5.025   2.853  0.6077 -0.0394  0.5998
11616SOL    HW138440   8.173   4.981   2.917 -0.9754 -0.2793 -0.8485
11616SOL    HW238441   8.201   5.117   2.856  0.5639 -0.0407  0.3267
11617SOL     OW38442   8.558  10.265   6.250 -0.1483 -0.0857 -0.2225
11617SOL    HW138443   8.464  10.251   6.234 -0.7889  1.0970  2.0174
11617SOL    HW238444   8.590  10.305   6.169 -1.8823  0.6590 -0.6026
11618SOL     OW38445   6.448   1.664   8.644  0.0457 -0.3322 -0.8597
11618SOL    HW138446   6.544   1.665   8.638  0.1993  1.4132  0.8939
11618SOL    HW238447   6.425   1.573   8.632  2.0180 -0.9482 -0.4396
11619SOL     OW38448   3.536   4.297   0.950  0.3756  0.2436  0.0490
11619SOL    HW138449   3.461   4.327   0.898  1.3017  1.3034 -0.7256
11619SOL    HW238450   3.571   4.222   0.901 -0.3546 -0.4689  0.5892
11620SOL     OW38451   9.701   6.573   6.757  0.8222 -0.0963 -0.3959
11620SOL    HW138452   9.677   6.491   6.714  1.6123 -0.4152 -0.2306
11620SOL    HW238453   9.790   6.560   6.788  0.4941  0.3601  0.7889
11621SOL     OW38454   8.352   9.629   4.438 -0.2169  0.3903  0.2541
11621SOL    HW138455   8.372   9.542   4.473 -2.5934 -0.6234 -0.7055
11621SOL    HW238456   8.274   9.657   4.486 -1.4798  0.4745 -1.7407
11622SOL     OW38457   2.737   8.373   8.694  0.4149 -0.3627  0.9746
11622SOL    HW138458   2.709   8.464   8.699 -0.4443 -0.5673 -0.0102
11622SOL    HW238459   2.686   8.335   8.623  1.6276 -1.3079  0.5708
11623SOL     OW38460   7.719   7.916   6.058  0.7003 -0.1314  0.3355
11623SOL    HW138461   7.731   8.001   6.015  0.9612 -0.9622 -1.3324
11623SOL    HW238462   7.776   7.857   6.010 -1.3506 -1.7746 -0.2564
11624SOL     OW38463   5.593   9.895   6.334 -0.1231 -0.0349 -0.1190
11624SOL    HW138464   5.645   9.913   6.255  0.3469 -0.2813  0.1273
11624SOL    HW238465   5.540   9.819   6.311  0.2776 -0.3292 -0.0838
11625SOL     OW38466  10.122   7.881   5.614  0.4632 -0.1148 -0.3165
11625SOL    HW138467  10.116   7.975   5.628  0.5376 -0.2115  0.3909
11625SOL    HW238468  10.032   7.852   5.601  0.3773 -0.0338  0.0812
11626SOL     OW38469   1.440   2.657   4.718 -0.3120 -0.1929  0.0012
11626SOL    HW138470   1.421   2.631   4.807 -1.4962  1.2467  0.2104
11626SOL    HW238471   1.356   2.652   4.672 -0.1247  0.9122 -0.5126
11627SOL     OW38472   2.617   5.371   7.209 -0.2685  0.0690 -0.1817
11627SOL    HW138473   2.676   5.383   7.284  0.8121 -1.7844 -0.6655
11627SOL    HW238474   2.644   5.438   7.146  0.5143  0.0108  0.0841
11628SOL     OW38475   6.677   3.679   6.651 -0.2836 -0.2337  0.0304
11628SOL    HW138476   6.632   3.712   6.574 -0.1459 -0.2184 -0.0418
11628SOL    HW238477   6.756   3.732   6.659 -0.4078 -0.0851  0.3110
11629SOL     OW38478   6.798   3.034   1.791  0.2012  0.1588  0.5544
11629SOL    HW138479   6.788   2.941   1.771 -1.6609  0.5853 -0.7084
11629SOL    HW238480   6.873   3.061   1.737 -0.8980 -0.0803 -1.1851
11630SOL     OW38481   6.990   3.899   8.588  0.2647 -0.0904  0.0775
11630SOL    HW138482   7.065   3.846   8.616 -0.1336 -1.1284 -0.7593
11630SOL    HW238483   6.963   3.945   8.667  0.2278 -1.6223  1.0029
11631SOL     OW38484   1.765  10.427   0.301 -0.6851 -0.0632  0.0040
11631SOL    HW138485   1.687  10.454   0.349 -0.4286  0.1582  0.2987
11631SOL    HW238486   1.813  10.508   0.284  1.4870 -0.4533  3.2829
11632SOL     OW38487   2.229   6.991   6.075  0.1926  0.5981 -0.4899
11632SOL    HW138488   2.253   6.959   6.162 -1.1301 -1.7393 -0.9036
11632SOL    HW238489   2.196   7.080   6.090  0.6728  0.5119  1.2733
11633SOL     OW38490   2.416  10.029   5.277  0.2304 -0.6943  0.3868
11633SOL    HW138491   2.494  10.036   5.333  0.8708 -2.7398 -0.1473
11633SOL    HW238492   2.368   9.954   5.312 -1.2510  0.2108  0.3676
11634SOL     OW38493   0.640   6.914   1.895  0.0896  0.0512  0.3586
11634SOL    HW138494   0.607   6.925   1.985 -2.1672  1.3588 -0.5373
11634SOL    HW238495   0.561   6.905   1.842  1.3850 -0.8752 -1.4975
11635SOL     OW38496   0.480   5.495   1.773  0.0313  0.1786 -0.3667
11635SOL    HW138497   0.536   5.552   1.719  1.1438  0.4986  1.0760
11635SOL    HW238498   0.393   5.535   1.766  0.2363  0.4823 -1.5364
11636SOL     OW38499   9.206   3.845   3.913 -0.1593  0.0756  0.2012
11636SOL    HW138500   9.185   3.813   4.000 -1.2987 -1.6930 -0.6720
11636SOL    HW238501   9.130   3.900   3.889 -0.9197 -1.2389 -0.5068
11637SOL     OW38502   4.077   3.647   7.180 -0.3353  0.0212  0.0183
11637SOL    HW138503   4.121   3.681   7.258  0.6668  0.0356 -0.5438
11637SOL    HW238504   4.109   3.702   7.109 -1.3430  0.0924 -0.3965
11638SOL     OW38505   5.485   9.887   5.052  0.1838 -0.5405 -0.1927
11638SOL    HW138506   5.560   9.902   4.993 -0.5098  1.1197 -0.7305
11638SOL    HW238507   5.468   9.974   5.090 -1.4781 -0.8824 -0.1017
11639SOL     OW38508   4.335   6.949   7.421  0.3031 -0.5635 -0.3848
11639SOL    HW138509   4.413   6.973   7.472 -0.3706  1.8744 -0.4078
11639SOL    HW238510   4.265   6.942   7.487 -0.3367  1.5206 -0.7875
11640SOL     OW38511   5.145   0.027   3.939 -0.3084 -0.3670 -0.2344
11640SOL    HW138512   5.159   0.113   3.900 -0.0726 -0.6001 -0.6637
11640SOL    HW238513   5.205  -0.031   3.893 -0.5591 -0.7888 -0.0365
11641SOL     OW38514   7.768   1.258   4.419  0.1594 -0.3349 -0.0986
11641SOL    HW138515   7.763   1.179   4.365 -1.9497 -1.6856  1.9069
11641SOL    HW238516   7.702   1.316   4.382 -1.1360 -1.1741  0.8272
11642SOL     OW38517   9.439   4.529   5.412 -0.8027  0.5566  0.1308
11642SOL    HW138518   9.489   4.482   5.345 -2.7869  0.0217 -1.0687
11642SOL    HW238519   9.417   4.462   5.477 -1.3262  0.4170 -0.1847
11643SOL     OW38520   7.849   5.427   6.071  0.6279  0.3346  0.1964
11643SOL    HW138521   7.763   5.423   6.031  0.9473  1.0450 -0.5925
11643SOL    HW238522   7.901   5.482   6.012  1.7312 -0.3867  0.4560
11644SOL     OW38523   1.802   9.599   1.169  0.0771 -0.3962  0.4036
11644SOL    HW138524   1.816   9.692   1.189 -0.2536 -0.3790  0.5746
11644SOL    HW238525   1.885   9.557   1.189  0.4350 -0.0384 -0.3111
11645SOL     OW38526   4.093  10.593   0.488  0.3478 -0.6066 -0.5275
11645SOL    HW138527   4.144  10.519   0.520 -1.3913 -1.7468 -0.2827
11645SOL    HW238528   4.008  10.585   0.532  0.7287  2.7081  1.1453
11646SOL     OW38529   2.093   9.565   0.767 -0.4020 -0.1433 -0.6826
11646SOL    HW138530   2.007   9.539   0.801  0.8478 -0.6753  2.4036
11646SOL    HW238531   2.128   9.485   0.727 -0.6629 -0.3749 -0.4503
11647SOL     OW38532  10.991   6.634   4.559  0.0773  0.0730  0.2877
11647SOL    HW138533  10.941   6.666   4.484  1.0303 -0.3786 -0.5540
11647SOL    HW238534  10.960   6.544   4.571  1.6505 -0.7123 -1.1433
11648SOL     OW38535   8.516   9.202   3.743 -0.1284  0.3482 -0.0148
11648SOL    HW138536   8.597   9.219   3.695  0.3593  1.1922  1.0556
11648SOL    HW238537   8.545   9.179   3.832 -1.0596  1.0836  0.4955
11649SOL     OW38538   9.995  10.665   4.356 -0.4660 -0.1190  0.0164
11649SOL    HW138539   9.900  10.672   4.356 -0.4790 -0.2310  0.9894
11649SOL    HW238540  10.026  10.756   4.363 -0.5001 -0.0777 -0.3574
11650SOL     OW38541   3.097  11.089   7.299 -0.2261 -0.0968 -0.1120
11650SOL    HW138542   3.045  11.026   7.249  1.0263 -1.0404 -0.2804
11650SOL    HW238543   3.160  11.035   7.347  2.4342  1.0873 -2.0226
11651SOL     OW38544  10.467   4.415   4.609 -0.1641  0.0331  0.2267
11651SOL    HW138545  10.494   4.477   4.677 -0.1889 -0.1767  0.4281
11651SOL    HW238546  10.425   4.343   4.656  2.0412 -1.3611  0.2747
11652SOL     OW38547   5.588  10.777   9.950 -0.5508  0.5140  0.0741
11652SOL    HW138548   5.645  10.851   9.970  0.5377 -0.6588  1.6553
11652SOL    HW238549   5.515  10.785  10.012  0.3791 -0.5345  1.3671
11653SOL     OW38550   4.267   0.988   0.667 -0.2738  0.2234 -0.3702
11653SOL    HW138551   4.240   0.984   0.758  1.5078  1.8138  0.2804
11653SOL    HW238552   4.260   0.897   0.636 -0.3130 -0.4666  1.5167
11654SOL     OW38553   5.509   9.780   1.236  0.8748 -0.0347 -0.5980
11654SOL    HW138554   5.487   9.827   1.317  2.0302  2.3302 -1.5547
11654SOL    HW238555   5.435   9.795   1.178  1.0500  0.2598 -0.7501
11655SOL     OW38556   7.389   0.247   5.827 -0.2188  0.2272  0.0281
11655SOL    HW138557   7.440   0.306   5.772 -2.6406  0.8714 -1.6621
11655SOL    HW238558   7.380   0.293   5.911  0.0779  1.0886 -0.4049
11656SOL     OW38559   6.409  10.815   0.460 -0.0411 -0.0007  0.6827
11656SOL    HW138560   6.417  10.873   0.384 -0.4529  0.4529  0.9749
11656SOL    HW238561   6.319  10.785   0.458 -0.1285  0.2194  1.1302
11657SOL     OW38562   6.816   3.599   2.057  0.2371  0.0688 -0.1290
11657SOL    HW138563   6.889   3.656   2.035  0.6945 -1.1648 -2.0852
11657SOL    HW238564   6.793   3.557   1.974  0.7095 -3.4704  1.3864
11658SOL     OW38565   2.242   1.034  10.651  0.2140 -0.7027 -0.0578
11658SOL    HW138566   2.332   1.007  10.667  0.1297 -1.1176 -0.2548
11658SOL    HW238567   2.223   1.098  10.719  1.3361  0.9660 -1.2251
11659SOL     OW38568   3.613   8.723   0.787  0.2362 -0.8769 -0.3427
11659SOL    HW138569   3.625   8.770   0.704 -0.5509  0.7322  0.4074
11659SOL    HW238570   3.523   8.743   0.812  0.6994 -0.7239  1.2829
11660SOL     OW38571   3.687   5.238   3.706 -0.4661 -0.3679 -0.5082
11660SOL    HW138572   3.646   5.281   3.781 -1.2925 -0.4815 -0.8806
11660SOL    HW238573   3.743   5.306   3.667 -1.5464  0.3061 -0.9323
11661SOL     OW38574   0.984   3.588   5.987  0.0639  0.0804 -0.1304
11661SOL    HW138575   1.012   3.498   6.003  1.5817  0.5816  0.1438
11661SOL    HW238576   0.935   3.612   6.066 -0.7065 -0.6242 -0.3809
11662SOL     OW38577   7.517   5.236   6.610 -0.1247  0.0677  0.4061
11662SOL    HW138578   7.607   5.243   6.577 -1.4419  0.1925 -3.6062
11662SOL    HW238579   7.495   5.325   6.638  0.0717  0.7588 -1.4892
11663SOL     OW38580   2.456   5.229   8.225  0.3894  0.0069 -0.1103
11663SOL    HW138581   2.487   5.290   8.158 -1.6409  1.5802  0.2767
11663SOL    HW238582   2.489   5.266   8.307  1.3423 -0.9000 -0.0734
11664SOL     OW38583   6.504   4.795   6.874 -0.2205  0.0694 -0.3500
11664SOL    HW138584   6.496   4.704   6.903 -0.1752 -0.6633 -2.4385
11664SOL    HW238585   6.579   4.795   6.813  1.4274  2.0685  1.4848
11665SOL     OW38586  10.854  10.583   9.729  0.5960 -0.4788 -0.2085
11665SOL    HW138587  10.797  10.583   9.651 -0.4587 -0.6538  0.5417
11665SOL    HW238588  10.936  10.622   9.698 -0.4226  1.1790 -0.9613
11666SOL     OW38589   3.613   9.427   3.123  0.2647 -0.2874  0.0745
11666SOL    HW138590   3.664   9.488   3.069  0.1006 -0.5367 -0.3670
11666SOL    HW238591   3.668   9.412   3.200  0.6556 -0.1991 -0.1841
11667SOL     OW38592   4.384   9.082   3.212 -0.4111 -0.2143 -0.5167
11667SOL    HW138593   4.325   9.065   3.285 -1.3024  0.2252 -1.1068
11667SOL    HW238594   4.450   9.013   3.217  0.0352  0.2999  1.1900
11668SOL     OW38595   1.144   2.045   3.309  0.1935 -0.0903 -0.1759
11668SOL    HW138596   1.126   1.990   3.385  0.7759  0.5807  0.4712
11668SOL    HW238597   1.238   2.038   3.296  0.2400  0.5477 -0.2339
11669SOL     OW38598   2.010   9.487   9.338  0.4895 -0.0432 -0.1662
11669SOL    HW138599   2.083   9.437   9.376  0.9165  0.5095 -0.2490
11669SOL    HW238600   1.963   9.522   9.414 -0.0213 -0.8586 -0.0988
11670SOL     OW38601   8.702   5.146   8.597  0.8916  0.0624 -0.4248
11670SOL    HW138602   8.670   5.193   8.674  1.5278  1.1328 -0.7842
11670SOL    HW238603   8.629   5.089   8.572  0.4269  0.1992  0.5627
11671SOL     OW38604   8.753   6.995   4.642 -0.1600  0.3894  0.6937
11671SOL    HW138605   8.772   7.038   4.558 -1.3311  0.7139  0.5864
11671SOL    HW238606   8.741   7.067   4.704  1.4326  0.1474  1.3356
11672SOL     OW38607   0.546   3.117   4.678  0.0283 -0.6386  0.4872
11672SOL    HW138608   0.603   3.187   4.711 -0.2859  0.3051 -0.8505
11672SOL    HW238609   0.466   3.125   4.730 -0.5232  0.9276 -0.5011
11673SOL     OW38610   8.787   0.141   8.786  0.0951 -0.1669  0.2580
11673SOL    HW138611   8.861   0.125   8.845  0.2655 -0.4425 -0.0348
11673SOL    HW238612   8.743   0.217   8.825  0.5403  0.0138  0.4232
11674SOL     OW38613   5.149   4.697   0.805 -0.3715  0.9160 -0.4184
11674SOL    HW138614   5.132   4.726   0.716 -2.3000 -1.8066 -1.0829
11674SOL    HW238615   5.062   4.681   0.842  0.4398  0.2693  1.3134
11675SOL     OW38616   7.049   8.296   8.766  0.6090 -0.0024  0.1792
11675SOL    HW138617   7.001   8.371   8.731  2.3400  0.6628 -0.8684
11675SOL    HW238618   7.138   8.307   8.734  0.8183 -2.8062 -0.4748
11676SOL     OW38619  10.561   2.601   0.198 -0.3453  0.6068  0.1749
11676SOL    HW138620  10.544   2.693   0.178 -0.5597  0.0590 -2.5988
11676SOL    HW238621  10.650   2.586   0.165 -0.4081 -0.2231  0.3798
11677SOL     OW38622   8.366   3.484  10.784 -0.1658  0.0631 -0.2279
11677SOL    HW138623   8.311   3.465  10.861 -1.5798  1.5194 -0.8280
11677SOL    HW238624   8.418   3.404  10.772 -1.1510 -0.8448  1.2076
11678SOL     OW38625   7.880   5.429   9.792 -0.3015  0.3040  0.0426
11678SOL    HW138626   7.852   5.338   9.805 -0.3216  0.4671  1.2678
11678SOL    HW238627   7.806   5.482   9.821 -0.1482  0.7151 -0.3075
11679SOL     OW38628  10.338   6.446   7.126 -0.3724 -0.1204 -0.1013
11679SOL    HW138629  10.288   6.406   7.197 -0.7368  0.8756  0.2176
11679SOL    HW238630  10.343   6.539   7.149  0.7631 -0.0288 -0.6451
11680SOL     OW38631   9.120   9.114   0.846  0.5179  0.6146  0.7710
11680SOL    HW138632   9.093   9.080   0.931 -0.4216  0.4794  0.4346
11680SOL    HW238633   9.186   9.181   0.866 -0.2054  1.0857  1.6522
11681SOL     OW38634   7.042   8.895   4.616 -0.1911  0.4959  0.2913
11681SOL    HW138635   7.039   8.869   4.708  1.3561 -1.7012 -0.1922
11681SOL    HW238636   7.135   8.888   4.592 -0.7730 -0.7779 -1.8792
11682SOL     OW38637   7.146   6.388  10.358 -0.4138 -0.1316  0.3866
11682SOL    HW138638   7.089   6.326  10.403  0.4965 -0.9786  0.4025
11682SOL    HW238639   7.087   6.438  10.301 -1.2050 -0.7858  0.6145
11683SOL     OW38640   3.765   3.931   7.156  0.0871 -0.3943 -0.0408
11683SOL    HW138641   3.748   3.867   7.087  1.4906  0.6367 -1.4392
11683SOL    HW238642   3.842   3.979   7.125  1.1090 -0.2190  2.5286
11684SOL     OW38643   8.870   8.239   9.128  0.4765  0.4352  0.0961
11684SOL    HW138644   8.942   8.270   9.184 -0.1286 -0.7384  1.6070
11684SOL    HW238645   8.796   8.227   9.189  0.1128 -2.0012 -0.7133
11685SOL     OW38646   2.963   7.373   7.244 -0.0334 -0.0184  0.4601
11685SOL    HW138647   2.912   7.332   7.174  0.1824 -2.8499  1.8363
11685SOL    HW238648   2.967   7.307   7.313  1.4597  1.9179  2.3541
11686SOL     OW38649   3.531   7.241   0.231  0.0548  0.0028  0.0737
11686SOL    HW138650   3.568   7.221   0.145  0.4319  0.0076  0.2346
11686SOL    HW238651   3.492   7.329   0.220 -0.3364 -0.2017 -0.2258
11687SOL     OW38652   2.245   3.692  10.385  0.3673 -0.2388  0.4705
11687SOL    HW138653   2.323   3.657  10.343  0.5266 -3.1671  2.8925
11687SOL    HW238654   2.172   3.649  10.342  0.2670  0.0370  0.3605
11688SOL     OW38655   7.373  10.393   8.894  0.0453 -0.3206  0.1786
11688SOL    HW138656   7.462  10.415   8.866  0.3296 -0.6482  0.8249
11688SOL    HW238657   7.335  10.477   8.920 -0.2451  0.0095 -1.1928
11689SOL     OW38658   5.443   4.912   0.306  0.0638  0.4378 -0.0544
11689SOL    HW138659   5.433   4.984   0.244  1.0717 -0.7821 -1.7141
11689SOL    HW238660   5.485   4.952   0.382  0.3795  1.6456 -0.8353
11690SOL     OW38661   9.718  10.187   3.921 -0.5324 -0.1227 -0.4181
11690SOL    HW138662   9.672  10.256   3.873 -1.7787 -1.5714 -1.3969
11690SOL    HW238663   9.704  10.108   3.869  0.6768 -1.1731  0.7776
11691SOL     OW38664   7.134   9.066   0.658 -0.1669 -0.0798  0.1474
11691SOL    HW138665   7.161   8.978   0.634  0.1133 -0.1480  0.6906
11691SOL    HW238666   7.088   9.055   0.742 -0.8915  0.1766 -0.2053
11692SOL     OW38667   2.368   5.299   9.907 -0.1504 -0.1507 -0.9248
11692SOL    HW138668   2.275   5.285   9.920 -0.2954  1.1569 -0.4302
11692SOL    HW238669   2.379   5.394   9.908  1.8262 -0.1460  3.9129
11693SOL     OW38670   8.225   7.231  10.470  0.1749  0.2652  0.2219
11693SOL    HW138671   8.209   7.152  10.522  1.6804 -1.4080 -1.6858
11693SOL    HW238672   8.160   7.226  10.400 -0.2963  1.2280  0.5769
11694SOL     OW38673   8.396   9.473   6.302  0.2694 -0.1526  0.0707
11694SOL    HW138674   8.331   9.407   6.326 -0.7665  0.6508 -0.4031
11694SOL    HW238675   8.414   9.519   6.384 -1.0933  0.7323 -0.0891
11695SOL     OW38676   0.590   6.220   7.009  0.0527  0.3204 -0.0019
11695SOL    HW138677   0.496   6.227   6.996 -0.0084  0.3367  0.4417
11695SOL    HW238678   0.602   6.138   7.057  0.3854 -0.3851 -1.2204
11696SOL     OW38679   8.886   8.273   8.250 -0.1013  0.6909 -0.2077
11696SOL    HW138680   8.791   8.279   8.262 -0.0218  0.6723  0.4748
11696SOL    HW238681   8.909   8.186   8.282  0.0905  0.5084 -0.8165
11697SOL     OW38682   5.039   8.324   9.693  0.2362  0.5511 -0.1759
11697SOL    HW138683   5.123   8.322   9.646 -0.7191 -0.3453 -1.9238
11697SOL    HW238684   4.987   8.389   9.646 -0.3259  0.5392  0.4193
11698SOL     OW38685   0.729   2.709   6.013  0.8705  0.4888  0.0738
11698SOL    HW138686   0.645   2.679   6.050  0.5775  1.2303  0.0171
11698SOL    HW238687   0.715   2.708   5.919  1.2726 -0.3756  0.0094
11699SOL     OW38688   2.842   0.247   4.407  0.5615  0.1464 -0.3866
11699SOL    HW138689   2.873   0.163   4.441 -1.0864 -1.0154 -1.5507
11699SOL    HW238690   2.921   0.294   4.383  1.6367 -0.0975  2.3401
11700SOL     OW38691   7.371   5.898  10.506  0.6792 -0.6803  0.1883
11700SOL    HW138692   7.451   5.895  10.453  0.2908  0.9907 -0.5564
11700SOL    HW238693   7.395   5.948  10.584  0.2932  0.1384 -0.2046
11701SOL     OW38694   6.912   8.034   4.215 -0.3338  0.2491  0.6366
11701SOL    HW138695   6.873   8.000   4.135 -1.0350 -2.6641  2.0807
11701SOL    HW238696   6.991   7.981   4.228 -0.1479  0.7711  1.8078
11702SOL     OW38697   2.988   0.305   9.239 -0.5168  0.0112 -0.1706
11702SOL    HW138698   3.010   0.216   9.209  0.2508  0.2256 -0.2604
11702SOL    HW238699   2.987   0.299   9.334 -3.2158 -0.7352 -0.1462
11703SOL     OW38700  10.643  10.239  11.050 -0.2488 -0.0150  0.5177
11703SOL    HW138701  10.582  10.173  11.016  0.3862 -1.3660  1.8619
11703SOL    HW238702  10.724  10.224  11.002 -0.4143  0.5560  0.0415
11704SOL     OW38703   1.143   1.320   4.177 -0.0723  0.1355  0.0188
11704SOL    HW138704   1.208   1.299   4.243 -0.1021 -0.7492 -0.2234
11704SOL    HW238705   1.185   1.299   4.094  0.4510  2.4813 -0.3636
11705SOL     OW38706   2.342   2.429   2.863  0.1614 -0.1846  0.5262
11705SOL    HW138707   2.430   2.402   2.889  0.5189 -0.4587 -0.8947
11705SOL    HW238708   2.284   2.380   2.921  0.8879 -1.7835 -0.0452
11706SOL     OW38709   7.310   6.005   4.850  0.1542 -0.0626 -0.1174
11706SOL    HW138710   7.301   5.913   4.873  1.4086 -0.2436 -0.2860
11706SOL    HW238711   7.364   6.042   4.920  0.8538  0.2180 -0.7869
11707SOL     OW38712   0.065   7.144   7.611 -0.0858 -0.4867 -0.3894
11707SOL    HW138713   0.006   7.159   7.684 -0.6857 -2.7124 -0.3517
11707SOL    HW238714   0.152   7.161   7.647 -0.5032  0.2849  0.2887
11708SOL     OW38715   8.855   0.644   1.497 -0.2806  0.1499 -0.0699
11708SOL    HW138716   8.921   0.668   1.432  0.6490 -1.5251  0.1717
11708SOL    HW238717   8.796   0.584   1.450  0.3996 -1.0738  0.5987
11709SOL     OW38718   1.009   7.066  10.108  0.2401  0.2665  0.4252
11709SOL    HW138719   1.062   7.144  10.125  0.7664  0.4090 -1.6102
11709SOL    HW238720   1.042   7.033  10.024 -0.2831 -1.8929  1.0124
11710SOL     OW38721   5.246   6.796   1.913  0.5672 -0.3626 -0.1534
11710SOL    HW138722   5.313   6.838   1.966  0.3263 -0.8954  0.5913
11710SOL    HW238723   5.281   6.709   1.895 -0.5399 -1.2013  1.5180
11711SOL     OW38724   1.502   4.529   9.121 -0.8538 -0.0882 -0.4556
11711SOL    HW138725   1.498   4.592   9.193 -0.2963 -0.5554 -0.0055
11711SOL    HW238726   1.581   4.477   9.139 -1.3894 -1.0143 -0.7256
11712SOL     OW38727   0.319  10.804   7.497 -0.9148 -0.2091 -0.0700
11712SOL    HW138728   0.326  10.854   7.578 -1.9269  2.4770 -1.4849
11712SOL    HW238729   0.409  10.791   7.468 -0.5962  0.2085  0.7198
11713SOL     OW38730   7.415   0.851   9.294  0.5341 -0.8394 -0.1033
11713SOL    HW138731   7.413   0.772   9.349  3.0086  0.2635  1.7489
11713SOL    HW238732   7.471   0.912   9.341 -0.4196  1.6938 -2.0075
11714SOL     OW38733   7.501   0.081   5.584  0.3249 -0.2786  0.5725
11714SOL    HW138734   7.413   0.067   5.547 -1.0155  2.6432  2.3548
11714SOL    HW238735   7.506   0.018   5.656  0.1674 -1.1652 -0.1545
11715SOL     OW38736   3.130  10.509   9.405 -0.2192 -0.4254 -0.1436
11715SOL    HW138737   3.056  10.566   9.423  1.0623  0.7305  1.7169
11715SOL    HW238738   3.148  10.466   9.488  1.8589  0.1282 -0.2669
11716SOL     OW38739   5.185   0.702   8.427  0.0946  0.2424  0.7158
11716SOL    HW138740   5.202   0.780   8.374 -0.5797  0.5017  0.8685
11716SOL    HW238741   5.237   0.716   8.507 -2.2046  1.9602  2.0402
11717SOL     OW38742   8.980   6.259   9.740  0.3329  0.2206  0.4577
11717SOL    HW138743   9.026   6.253   9.824  0.8464 -2.0194  0.0741
11717SOL    HW238744   8.904   6.202   9.751  0.3267  0.0314 -0.5445
11718SOL     OW38745   3.274  10.326   2.602 -0.5549  0.0216 -0.2723
11718SOL    HW138746   3.343  10.263   2.584 -1.9543 -0.8739 -3.1030
11718SOL    HW238747   3.305  10.407   2.562 -0.6815 -0.0901 -0.5975
11719SOL     OW38748   2.753   3.122   4.454 -0.2738  0.4017  0.0479
11719SOL    HW138749   2.831   3.117   4.399 -0.1463  0.7576  0.1936
11719SOL    HW238750   2.716   3.208   4.434 -0.4529  0.3642  0.2152
11720SOL     OW38751   6.959   9.174   4.984 -0.4870  0.2058  0.2369
11720SOL    HW138752   6.945   9.198   5.076  0.5859 -1.6620  0.9362
11720SOL    HW238753   7.053   9.182   4.971 -0.6515  0.6600 -0.7930
11721SOL     OW38754   8.844  10.830   3.433  0.1264 -0.7847  0.1262
11721SOL    HW138755   8.929  10.869   3.411 -0.8043  0.5886 -1.2566
11721SOL    HW238756   8.843  10.748   3.384 -0.0225  0.0535 -1.3545
11722SOL     OW38757   7.768   7.040   0.737  0.0805 -0.3328 -0.1169
11722SOL    HW138758   7.826   7.100   0.690  0.6257 -1.5329 -1.0044
11722SOL    HW238759   7.681   7.077   0.724  0.4541  0.5575 -0.1883
11723SOL     OW38760   6.804   2.827   6.573 -0.1077 -0.1250  0.4393
11723SOL    HW138761   6.797   2.740   6.614  0.2793  0.0722  0.9276
11723SOL    HW238762   6.714   2.848   6.546 -0.7166  0.4969  2.7547
11724SOL     OW38763   1.737   8.475   6.957 -0.1107 -0.3246  0.1047
11724SOL    HW138764   1.721   8.381   6.959 -0.6038 -0.2350  0.5513
11724SOL    HW238765   1.708   8.503   6.871 -0.3188 -0.5181  0.1133
11725SOL     OW38766   4.807   9.428   6.119 -0.0783  0.4211 -0.2339
11725SOL    HW138767   4.807   9.520   6.147  0.3829  0.1864  0.5661
11725SOL    HW238768   4.854   9.382   6.188 -1.0380 -0.5449 -0.1971
11726SOL     OW38769   6.636   3.449   3.530 -0.1043 -0.5862  0.2363
11726SOL    HW138770   6.601   3.386   3.593 -0.8233 -1.3628 -0.8959
11726SOL    HW238771   6.631   3.534   3.574  1.0192 -1.3020  1.8546
11727SOL     OW38772   2.674   7.532   3.400 -0.6409 -0.0547 -0.2227
11727SOL    HW138773   2.596   7.519   3.454 -1.4726 -1.1881 -1.6287
11727SOL    HW238774   2.746   7.493   3.451 -1.5261 -1.7529 -0.2074
11728SOL     OW38775   8.091   4.672   2.344 -0.0440 -0.4094 -0.5325
11728SOL    HW138776   8.167   4.627   2.380 -0.0676 -1.7788 -2.0794
11728SOL    HW238777   8.124   4.714   2.264 -0.7185 -0.2389 -0.7250
11729SOL     OW38778   9.192   3.986   0.386 -0.2863 -0.4592  0.1324
11729SOL    HW138779   9.181   3.971   0.480 -1.9554 -2.0327 -0.2620
11729SOL    HW238780   9.135   4.061   0.366 -0.8635 -0.8818  0.1812
11730SOL     OW38781   8.935   8.583   9.655  0.7160  0.1499  0.0859
11730SOL    HW138782   8.980   8.518   9.602  1.4077  1.1582 -0.6033
11730SOL    HW238783   8.994   8.600   9.728  1.7918  1.8998 -1.1248
11731SOL     OW38784   5.666   3.591   6.477 -0.9514  0.4492  0.2091
11731SOL    HW138785   5.583   3.544   6.463 -0.0562 -1.1453  0.0440
11731SOL    HW238786   5.734   3.528   6.453  0.3499  1.4363  1.1445
11732SOL     OW38787   7.790   4.113   7.372  0.1169  0.4155 -0.3746
11732SOL    HW138788   7.705   4.151   7.349  0.2952  1.1796  0.1881
11732SOL    HW238789   7.770   4.051   7.442 -0.0526  0.1497 -0.6550
11733SOL     OW38790   8.479  10.503   0.877 -0.5863 -0.6086  0.1192
11733SOL    HW138791   8.465  10.598   0.881 -0.8416 -0.6721  0.9168
11733SOL    HW238792   8.519  10.488   0.791 -0.1384  0.2689  0.1684
11734SOL     OW38793   8.548  10.845   7.987  0.0602 -0.2182 -0.4222
11734SOL    HW138794   8.457  10.818   7.997  0.1383 -0.4037 -0.2111
11734SOL    HW238795   8.543  10.935   7.955 -0.2123  0.2462  0.8603
11735SOL     OW38796   6.325   5.448   5.739 -0.1240 -0.1127  0.3140
11735SOL    HW138797   6.331   5.542   5.727 -0.5650 -0.0981  0.1957
11735SOL    HW238798   6.416   5.419   5.745  0.0179  0.2992  0.1980
11736SOL     OW38799   0.621   3.371   7.785  0.0978 -0.8503  0.0478
11736SOL    HW138800   0.626   3.447   7.842 -0.7501 -1.2560  0.6926
11736SOL    HW238801   0.709   3.333   7.789  0.3201 -0.3246  0.3094
11737SOL     OW38802   2.241   9.800   3.450 -0.2549  0.0980  0.1716
11737SOL    HW138803   2.227   9.725   3.508 -0.7582 -0.7043 -0.9408
11737SOL    HW238804   2.260   9.873   3.509 -3.1902 -0.0916  1.5382
11738SOL     OW38805   6.706   1.857   5.257 -0.2100  0.2748  0.4008
11738SOL    HW138806   6.748   1.788   5.307  0.4595  0.3985  0.0205
11738SOL    HW238807   6.635   1.888   5.313 -0.5135 -0.7034  0.5838
11739SOL     OW38808   3.408   4.300   0.011 -0.4385  0.6510  0.1515
11739SOL    HW138809   3.420   4.205   0.007  0.1128  0.6965  0.4742
11739SOL    HW238810   3.487   4.335  -0.030 -0.3843  0.9728  0.5277
11740SOL     OW38811   3.574   1.934   5.123 -0.1405  0.2661 -0.2598
11740SOL    HW138812   3.598   1.864   5.062 -1.0715 -0.2558 -0.0391
11740SOL    HW238813   3.566   2.012   5.068  2.6251  0.6488 -0.2833
11741SOL     OW38814   0.271   5.568   5.981  0.1477 -0.0606 -0.3472
11741SOL    HW138815   0.230   5.651   5.958 -1.3830 -0.0812  1.9989
11741SOL    HW238816   0.197   5.509   5.998  1.1956 -1.9004 -1.7636
11742SOL     OW38817   0.071   0.266   2.752 -0.1732  0.4668  0.0822
11742SOL    HW138818   0.002   0.331   2.748 -0.0120  0.6382  0.0805
11742SOL    HW238819   0.144   0.310   2.795 -0.5609 -0.1612  1.4433
11743SOL     OW38820   4.032   1.465   1.635 -0.3411  0.2410  0.0487
11743SOL    HW138821   4.099   1.466   1.704 -0.9646 -0.7070  0.7054
11743SOL    HW238822   3.953   1.432   1.679 -0.9559  0.3337 -0.9501
11744SOL     OW38823   7.653   4.401   6.761 -0.2513  0.2146 -0.0533
11744SOL    HW138824   7.714   4.468   6.792 -1.3314  0.5814  1.4214
11744SOL    HW238825   7.617   4.363   6.842 -1.5676 -0.3562 -0.8773
11745SOL     OW38826   9.958   9.734   7.175  0.0552  0.9514 -0.1053
11745SOL    HW138827  10.034   9.792   7.173 -1.0788  2.4944  0.0260
11745SOL    HW238828   9.989   9.655   7.220  1.9520  0.9477 -1.3279
11746SOL     OW38829   8.076   5.648   2.640 -0.1232  0.0357  0.3485
11746SOL    HW138830   8.170   5.646   2.657  0.0570  3.8106  0.6693
11746SOL    HW238831   8.067   5.629   2.547  1.4893  3.4443 -0.6501
11747SOL     OW38832   8.147   9.506   2.998 -0.0021  0.4232  0.6848
11747SOL    HW138833   8.090   9.439   3.034 -0.1174  0.1905  0.0820
11747SOL    HW238834   8.089   9.580   2.980 -0.3146 -0.1650 -0.8553
11748SOL     OW38835   0.244   1.550   9.938 -0.1964  0.2076  0.0615
11748SOL    HW138836   0.172   1.547   9.875  0.3360  1.9660 -0.6867
11748SOL    HW238837   0.213   1.609  10.007 -0.0100 -0.1313  0.4395
11749SOL     OW38838   8.619   2.710  10.522 -0.2271  0.5510  0.0507
11749SOL    HW138839   8.596   2.709  10.429 -0.2995 -1.3957  0.0429
11749SOL    HW238840   8.537   2.686  10.567 -0.3052  1.8798  0.6779
11750SOL     OW38841   0.439   0.824   7.007 -0.3252  0.2183 -0.3039
11750SOL    HW138842   0.500   0.766   6.961  0.7050  1.8682 -1.1446
11750SOL    HW238843   0.358   0.820   6.957 -0.0796 -0.0603 -0.6783
11751SOL     OW38844   6.599   3.819   7.706 -0.6659  0.2842 -0.2119
11751SOL    HW138845   6.601   3.895   7.648 -0.6541 -0.2862 -0.9756
11751SOL    HW238846   6.516   3.776   7.685  0.1892 -0.9498 -1.1574
11752SOL     OW38847   4.693  10.465   4.450 -0.0569 -0.1250  0.1722
11752SOL    HW138848   4.743  10.478   4.530 -3.5020  1.0952  2.3754
11752SOL    HW238849   4.677  10.370   4.447  1.8504 -0.4729 -0.3394
11753SOL     OW38850   3.475   5.379   1.437 -0.0212  0.4485  0.0204
11753SOL    HW138851   3.423   5.430   1.500 -0.3443 -0.7317  0.7416
11753SOL    HW238852   3.409   5.338   1.380 -0.0157 -1.9532  1.6239
11754SOL     OW38853  10.200   5.500   3.529 -0.2580 -0.1910  1.0005
11754SOL    HW138854  10.283   5.454   3.539 -0.9749 -1.7267  0.1935
11754SOL    HW238855  10.153   5.451   3.462 -2.1556  0.1466  2.0113
11755SOL     OW38856   8.378   0.145   7.162 -0.0694 -0.8175  0.3142
11755SOL    HW138857   8.373   0.237   7.189 -0.5934 -1.2604  1.8192
11755SOL    HW238858   8.448   0.108   7.216 -0.0874 -1.3861 -0.0478
11756SOL     OW38859  10.897   4.497   5.947  0.4985  0.3001  0.0285
11756SOL    HW138860  10.865   4.410   5.925 -0.4224  0.5891  0.1733
11756SOL    HW238861  10.974   4.482   6.002  0.5490 -0.4209 -0.2412
11757SOL     OW38862   9.419   0.467   5.178  0.8470 -0.3456 -0.0144
11757SOL    HW138863   9.402   0.524   5.253  0.4379 -0.8350  0.2702
11757SOL    HW238864   9.472   0.395   5.213 -0.4334 -1.2627  0.1022
11758SOL     OW38865   9.452   4.722   3.022 -0.2823  0.1346  0.0646
11758SOL    HW138866   9.370   4.678   3.001 -0.5979 -0.2145  1.8770
11758SOL    HW238867   9.439   4.812   2.991 -1.7004  0.3100  1.0863
11759SOL     OW38868   3.969   1.304  10.732  0.7256 -0.4227 -0.4147
11759SOL    HW138869   3.887   1.314  10.683  1.3412  1.4514 -1.1716
11759SOL    HW238870   3.947   1.331  10.821  0.4935  0.0131 -0.5987
11760SOL     OW38871   6.297   1.091   4.950  0.5152 -0.1398 -0.2987
11760SOL    HW138872   6.371   1.148   4.929  0.2692 -0.3827 -1.9118
11760SOL    HW238873   6.337   1.008   4.976  0.8517 -0.7848 -2.6515
11761SOL     OW38874   0.097   3.515   4.162 -1.0029 -0.0461 -0.1676
11761SOL    HW138875   0.177   3.523   4.109 -0.7776 -0.0101  0.1731
11761SOL    HW238876   0.129   3.503   4.251 -1.3637 -1.1736 -0.1750
11762SOL     OW38877   8.069   6.059   1.144  0.5158 -0.1138  0.8321
11762SOL    HW138878   8.098   6.145   1.116  0.2163 -0.1859  0.2960
11762SOL    HW238879   8.023   6.074   1.227  3.2224 -0.1425  2.4811
11763SOL     OW38880   1.974   7.741   2.821 -0.3811  0.2809 -0.0226
11763SOL    HW138881   2.063   7.761   2.792 -0.5951 -0.7270 -1.4535
11763SOL    HW238882   1.944   7.822   2.862  1.8249  0.1016  2.1912
11764SOL     OW38883   3.158   5.333  10.779 -0.8326 -0.2856 -0.5916
11764SOL    HW138884   3.227   5.392  10.748 -0.0972 -1.1947 -0.7624
11764SOL    HW238885   3.076   5.374  10.752 -0.4469  1.4780  0.7274
11765SOL     OW38886   7.748   6.189   2.993  0.2767  0.1014  0.9109
11765SOL    HW138887   7.827   6.236   3.017 -0.0035  0.9898  0.1275
11765SOL    HW238888   7.732   6.130   3.066 -1.2468  3.5331  3.6229
11766SOL     OW38889   5.634   7.006   8.802  0.2282 -0.1098 -0.4313
11766SOL    HW138890   5.601   7.092   8.828 -0.1342 -0.7603  1.4692
11766SOL    HW238891   5.556   6.957   8.778  0.4532  0.1305 -1.7035
11767SOL     OW38892   4.724   7.498   4.401  0.3311 -0.5238  0.1835
11767SOL    HW138893   4.697   7.484   4.310  1.3725  0.8860 -0.3756
11767SOL    HW238894   4.815   7.529   4.395  0.8951 -1.7632  1.7967
11768SOL     OW38895   5.280   6.153   7.924  0.0163  0.0826  0.2565
11768SOL    HW138896   5.332   6.125   8.000  0.3814 -0.2457 -0.1109
11768SOL    HW238897   5.340   6.209   7.874 -0.6069  1.2927  0.8219
11769SOL     OW38898  10.971  10.694   6.696  0.1011  0.0360  0.3562
11769SOL    HW138899  11.005  10.779   6.670 -0.4313  0.0288 -0.3902
11769SOL    HW238900  10.906  10.713   6.764 -2.3808  0.5550 -2.0074
11770SOL     OW38901   1.754   0.598   6.861 -0.6022  0.2369 -0.1835
11770SOL    HW138902   1.724   0.656   6.930  2.4765  2.6401 -0.6126
11770SOL    HW238903   1.847   0.619   6.850 -0.1058 -2.4575 -2.7331
11771SOL     OW38904   7.809  10.572   3.822  0.0051  0.1422  0.2541
11771SOL    HW138905   7.739  10.634   3.838  1.0162  1.0121  1.4552
11771SOL    HW238906   7.840  10.592   3.733 -1.1255 -0.1551 -0.2255
11772SOL     OW38907   5.118   4.741   8.405  0.0223  0.2845 -0.0399
11772SOL    HW138908   5.044   4.751   8.465  0.1759 -0.6224  0.3058
11772SOL    HW238909   5.161   4.827   8.407  0.5448  0.0293  1.8482
11773SOL     OW38910   0.304  10.376  10.834  0.1606  0.5346  0.5785
11773SOL    HW138911   0.258  10.391  10.917 -1.0290  0.5418 -0.0605
11773SOL    HW238912   0.365  10.449  10.827  0.3550  0.4699  1.5062
11774SOL     OW38913  10.979   0.667  10.737 -0.1903 -0.0059  0.1331
11774SOL    HW138914  10.977   0.762  10.743  2.0694  0.2359 -1.4498
11774SOL    HW238915  10.954   0.648  10.646 -1.4613 -1.0173  0.6657
11775SOL     OW38916   6.077   6.665   3.983  0.2633  0.4426  0.1882
11775SOL    HW138917   6.105   6.625   3.901 -0.1656 -0.6809  0.5664
11775SOL    HW238918   6.005   6.723   3.958  0.6180  0.6689 -0.3229
11776SOL     OW38919   0.160   5.295  11.026  0.5708  0.1399  1.1160
11776SOL    HW138920   0.213   5.374  11.039  1.3123 -0.3589  1.1781
11776SOL    HW238921   0.070   5.328  11.022  0.9175  1.0697  0.4180
11777SOL     OW38922   8.155   1.921   0.776  0.2540 -0.1948 -0.5763
11777SOL    HW138923   8.243   1.932   0.811 -0.0480 -0.7759  0.4247
11777SOL    HW238924   8.157   1.962   0.690  1.1280  1.0042 -0.0002
11778SOL     OW38925   2.530   4.348   0.991 -0.3305  0.3809 -0.7314
11778SOL    HW138926   2.503   4.438   1.010  1.0916  0.8915 -1.0301
11778SOL    HW238927   2.551   4.311   1.077 -2.7131 -0.3206 -0.3795
11779SOL     OW38928   7.891   1.778  10.486 -0.0726 -0.1688  0.3713
11779SOL    HW138929   7.978   1.738  10.482 -0.5570 -1.1427 -1.2775
11779SOL    HW238930   7.896   1.838  10.560  1.7922 -0.6958  0.7257
11780SOL     OW38931   8.026   9.640  10.793  0.6364  0.0959 -0.6223
11780SOL    HW138932   8.031   9.652  10.888  0.7748  3.0932 -0.9184
11780SOL    HW238933   7.942   9.597  10.779  0.3965  0.0237  0.8307
11781SOL     OW38934   4.667   5.412   1.445 -0.1148 -0.3386 -0.3543
11781SOL    HW138935   4.611   5.470   1.393 -0.3290 -0.3371 -0.1259
11781SOL    HW238936   4.711   5.471   1.506  0.4210 -0.2930 -0.7833
11782SOL     OW38937   1.889   9.941   3.084 -0.1000  0.2339 -0.6359
11782SOL    HW138938   1.864   9.920   2.994  0.3890 -1.5056 -0.4029
11782SOL    HW238939   1.846   9.874   3.138  1.3903 -0.1078  0.1905
11783SOL     OW38940   1.773   5.250   6.667  0.0919 -0.4418  0.2968
11783SOL    HW138941   1.781   5.316   6.599  1.3379  0.2322  1.0698
11783SOL    HW238942   1.816   5.173   6.631  0.8467 -0.0539  0.3432
11784SOL     OW38943   2.405   0.365   7.200  0.2183  0.1733 -0.6896
11784SOL    HW138944   2.334   0.319   7.244  0.6962  0.5095  0.4847
11784SOL    HW238945   2.484   0.335   7.246  0.8929 -0.4438 -2.1754
11785SOL     OW38946   0.057   8.015   2.295  0.2607  0.6566  0.4225
11785SOL    HW138947  -0.008   7.980   2.356  3.0242 -0.8300  2.7908
11785SOL    HW238948   0.075   8.103   2.328  1.9044 -0.2216  2.0318
11786SOL     OW38949   2.281   8.287   1.519  0.4556 -0.4918  0.1647
11786SOL    HW138950   2.197   8.328   1.502  0.4076 -0.2483  0.9789
11786SOL    HW238951   2.342   8.360   1.529  0.3633 -0.5816  1.6468
11787SOL     OW38952   4.842   5.876   5.200  0.6465  0.3853  0.0726
11787SOL    HW138953   4.781   5.804   5.183 -0.9849  1.8020 -0.3904
11787SOL    HW238954   4.803   5.924   5.273  0.5553  1.9935 -0.9855
11788SOL     OW38955   7.316   9.814   4.333 -0.3356 -0.0962  0.4249
11788SOL    HW138956   7.302   9.756   4.258  1.2295  1.8443 -1.4817
11788SOL    HW238957   7.233   9.860   4.344 -0.0238  0.9670 -1.4000
11789SOL     OW38958   0.973   9.697   8.497 -1.1283 -0.3666  0.7702
11789SOL    HW138959   1.049   9.748   8.471 -1.6663 -0.5002 -1.2353
11789SOL    HW238960   0.908   9.762   8.523 -1.0110 -0.1604  0.5459
11790SOL     OW38961   0.406   0.268   8.554  0.4386  0.4348 -0.3140
11790SOL    HW138962   0.313   0.290   8.550  0.1796 -0.7342 -2.1060
11790SOL    HW238963   0.414   0.210   8.631  0.0697  1.9763  0.9288
11791SOL     OW38964   0.005   2.960   0.815 -0.1639  0.2815 -0.6956
11791SOL    HW138965   0.028   2.939   0.724  2.2649 -0.0056 -0.0860
11791SOL    HW238966   0.089   2.973   0.858 -1.3068  2.2048  1.1251
11792SOL     OW38967   2.274   2.864   2.408  0.3086  0.1640  0.0858
11792SOL    HW138968   2.228   2.904   2.481  0.2762  1.3392 -0.5460
11792SOL    HW238969   2.257   2.770   2.417 -0.5367  0.3853  0.9918
11793SOL     OW38970   0.377   8.613   9.042  0.1389 -0.5193 -0.6915
11793SOL    HW138971   0.453   8.560   9.065  0.2624  0.3547  1.0830
11793SOL    HW238972   0.336   8.635   9.125 -0.5663  1.1831 -1.4248
11794SOL     OW38973   5.276   2.310   9.200  0.0980 -0.6551  0.2207
11794SOL    HW138974   5.357   2.297   9.249 -1.3873 -5.8431  1.9647
11794SOL    HW238975   5.296   2.280   9.111  0.5647  0.1957  0.0272
11795SOL     OW38976   1.826   9.139   7.719 -0.5709  0.3570 -0.0554
11795SOL    HW138977   1.762   9.181   7.777  0.5176  0.8465  0.8181
11795SOL    HW238978   1.778   9.127   7.637 -1.8996  0.3839  0.6756
11796SOL     OW38979   2.763   0.600   4.527  0.4713  0.1645  0.3674
11796SOL    HW138980   2.831   0.642   4.475  0.8767  0.8195  1.4080
11796SOL    HW238981   2.802   0.518   4.556  0.0596 -0.4525 -0.7713
11797SOL     OW38982   3.670   8.913   4.498  0.0995 -0.0864  0.1719
11797SOL    HW138983   3.654   8.831   4.546 -1.6056  0.7398  1.1016
11797SOL    HW238984   3.602   8.972   4.529  1.8010  1.9953  0.1706
11798SOL     OW38985  10.789   5.269   6.831 -0.7328  0.3898  0.4406
11798SOL    HW138986  10.808   5.266   6.738  0.2474 -0.4925  0.6470
11798SOL    HW238987  10.747   5.353   6.845  0.5366  1.2127 -0.5408
11799SOL     OW38988   2.632   0.336   5.581 -0.3360  0.2631  0.1651
11799SOL    HW138989   2.598   0.247   5.573  0.0491  0.2839 -2.4978
11799SOL    HW238990   2.697   0.343   5.512  0.4929  2.2593  1.0875
11800SOL     OW38991   8.699   6.354   9.753  0.0109 -0.2903 -0.1632
11800SOL    HW138992   8.783   6.393   9.776  0.2806 -0.6595 -0.4962
11800SOL    HW238993   8.675   6.301   9.829 -0.9426  1.4090  0.7980
11801SOL     OW38994  10.571   3.094   0.818  0.4767 -0.0656 -0.0480
11801SOL    HW138995  10.568   3.024   0.884 -1.1958  0.0918  0.0918
11801SOL    HW238996  10.531   3.055   0.740  1.1604  0.1963 -0.5362
11802SOL     OW38997   5.035   9.301   3.952  0.3306 -0.0633 -0.7118
11802SOL    HW138998   4.979   9.229   3.983 -0.6400  0.7920 -0.4127
11802SOL    HW238999   5.063   9.273   3.864  1.2289 -1.4796 -0.0090
11803SOL     OW39000   3.406  10.189   0.010 -0.2986 -0.0463 -0.6472
11803SOL    HW139001   3.453  10.169   0.091 -3.2678  0.2121  1.3083
11803SOL    HW239002   3.462  10.252  -0.036  1.0474  0.5977  1.7134
11804SOL     OW39003  10.686   0.428   8.583 -0.3893 -0.0832  0.4613
11804SOL    HW139004  10.670   0.374   8.506  0.9677  0.5144 -0.2723
11804SOL    HW239005  10.602   0.431   8.628 -0.8335 -1.6754 -0.1935
11805SOL     OW39006   5.954   5.965  10.676 -0.0227  0.3104  0.1563
11805SOL    HW139007   5.989   5.927  10.595  0.4953 -2.6106  1.5889
11805SOL    HW239008   5.861   5.943  10.675 -0.0880  0.5830  0.1782
11806SOL     OW39009   6.346   0.811   9.527  0.2808  0.0879 -0.1658
11806SOL    HW139010   6.272   0.866   9.552  1.3608  2.1009 -1.1831
11806SOL    HW239011   6.421   0.870   9.525  1.4173 -1.2975 -1.8237
11807SOL     OW39012   3.734   6.582   2.643  0.5832 -0.0404  0.6959
11807SOL    HW139013   3.679   6.549   2.715  0.9162 -1.2252  0.4309
11807SOL    HW239014   3.725   6.677   2.648 -1.2773 -0.1826  0.8444
11808SOL     OW39015   9.247   5.857   4.048 -0.5114  0.2980 -0.5079
11808SOL    HW139016   9.157   5.836   4.021 -0.1166 -1.0321 -0.8625
11808SOL    HW239017   9.242   5.864   4.144 -1.1047  0.8817 -0.5694
11809SOL     OW39018   0.260   0.041   9.902 -0.7842 -0.0780 -0.3125
11809SOL    HW139019   0.319  -0.034   9.911 -0.7002 -0.0917 -0.9819
11809SOL    HW239020   0.240   0.066   9.993 -1.5813 -1.5166 -0.0515
11810SOL     OW39021   7.942   2.188   7.278  0.3252  0.3727  0.2697
11810SOL    HW139022   7.993   2.264   7.251 -2.0052  1.7901 -0.4482
11810SOL    HW239023   7.902   2.157   7.197  0.7227 -1.2498  0.6651
11811SOL     OW39024   7.605   1.803   3.242  0.0057 -0.2480  0.6040
11811SOL    HW139025   7.626   1.744   3.170 -0.0039  1.4599 -0.8813
11811SOL    HW239026   7.516   1.779   3.268 -0.7823  0.3326 -1.3296
11812SOL     OW39027   3.691   8.343  10.894 -0.0741 -0.3799  0.1788
11812SOL    HW139028   3.785   8.360  10.890 -0.1976  0.1300 -1.4117
11812SOL    HW239029   3.684   8.248  10.907  0.6310 -0.2777  1.4896
11813SOL     OW39030   0.134   5.320   1.098  0.2488 -0.2691  0.1492
11813SOL    HW139031   0.069   5.366   1.150  1.1361  1.3500 -0.1195
11813SOL    HW239032   0.133   5.364   1.013  0.2451 -1.5720 -0.5534
11814SOL     OW39033   5.537   4.864   1.462  0.2151 -0.0364  0.2418
11814SOL    HW139034   5.483   4.846   1.385 -0.1036  2.5465 -0.2313
11814SOL    HW239035   5.545   4.959   1.464  1.7650 -0.1366  2.3794
11815SOL     OW39036   1.527   4.391   8.147  0.0589  0.0105 -0.1748
11815SOL    HW139037   1.622   4.397   8.156 -0.0152  1.5691 -0.1770
11815SOL    HW239038   1.508   4.427   8.061 -0.4424 -1.6308 -0.7870
11816SOL     OW39039   2.248   2.073   1.081 -0.0706  0.0946  0.0800
11816SOL    HW139040   2.230   2.134   1.010 -0.4695  1.6728  1.4822
11816SOL    HW239041   2.163   2.056   1.121 -0.3688 -3.1564 -1.5457
11817SOL     OW39042   8.781   5.626   3.894 -0.2900  0.3262  0.2880
11817SOL    HW139043   8.858   5.662   3.940 -0.4011  0.2294  0.5509
11817SOL    HW239044   8.723   5.702   3.883 -0.2699  0.3471  0.3204
11818SOL     OW39045   2.632   2.754   4.588 -0.1058 -0.6552 -0.2038
11818SOL    HW139046   2.566   2.738   4.655  0.8020 -3.2877  0.1456
11818SOL    HW239047   2.709   2.706   4.617  1.7289  1.5777 -1.0720
11819SOL     OW39048   8.760   1.003   8.234 -0.1664 -0.0757 -0.7429
11819SOL    HW139049   8.756   1.098   8.227 -1.1015 -0.1319 -1.0354
11819SOL    HW239050   8.758   0.972   8.143 -1.2665 -0.4174 -0.6121
11820SOL     OW39051   7.746   0.167   1.016  0.1739  0.6377 -0.6355
11820SOL    HW139052   7.807   0.176   1.089  1.0375  0.6776 -1.3360
11820SOL    HW239053   7.735   0.256   0.983 -2.3629  1.0636  1.0850
11821SOL     OW39054   8.427   7.125   3.637 -0.1256  0.0591  0.0430
11821SOL    HW139055   8.389   7.138   3.724 -2.6484  1.0058 -1.1113
11821SOL    HW239056   8.354   7.097   3.583  1.5911 -1.5254 -1.6119
11822SOL     OW39057   9.822   6.998   6.525  0.0023 -0.0621 -0.1299
11822SOL    HW139058   9.863   6.919   6.560 -0.3008 -0.2115 -0.1173
11822SOL    HW239059   9.887   7.032   6.463 -0.0595 -0.5755 -0.4825
11823SOL     OW39060   2.618  10.716   5.955 -0.8377 -0.3404 -0.8648
11823SOL    HW139061   2.533  10.759   5.955 -0.3897  0.6583 -2.2984
11823SOL    HW239062   2.655  10.739   5.869  0.6395 -1.1947 -0.4792
11824SOL     OW39063   0.930   2.579   2.412  0.2056 -0.1534  0.5698
11824SOL    HW139064   0.982   2.536   2.345  0.1022  0.0655  0.3475
11824SOL    HW239065   0.877   2.509   2.450 -1.0356  0.0024 -0.7802
11825SOL     OW39066   2.144   3.664   7.360  0.6231 -0.0088  0.7271
11825SOL    HW139067   2.193   3.591   7.322  1.1309 -0.1525  1.6306
11825SOL    HW239068   2.155   3.735   7.298  2.3677  0.1039  1.1112
11826SOL     OW39069   9.373   6.305   8.249 -0.6892 -0.6785  0.0643
11826SOL    HW139070   9.415   6.262   8.175  2.2114  1.1904  0.5041
11826SOL    HW239071   9.302   6.357   8.210  0.8650  0.3918 -1.4650
11827SOL     OW39072   7.407   6.935   6.505 -0.3475 -0.3726  0.3382
11827SOL    HW139073   7.488   6.893   6.534  0.3605  1.3655  1.0295
11827SOL    HW239074   7.343   6.915   6.573  0.2275  0.3982  1.1183
11828SOL     OW39075   3.203   0.582   4.958  0.3062 -0.3194  0.1562
11828SOL    HW139076   3.136   0.514   4.963 -0.5077  0.4685  0.4471
11828SOL    HW239077   3.282   0.537   4.928 -0.3598 -1.2708 -0.2153
11829SOL     OW39078   8.527  11.091   9.258  0.2821 -0.2234  0.6840
11829SOL    HW139079   8.589  11.097   9.331 -0.5826 -2.1628  1.6712
11829SOL    HW239080   8.568  11.033   9.195  0.5884  0.6370  0.0718
11830SOL     OW39081   1.725   1.164   4.710  0.2158  0.5889 -0.4763
11830SOL    HW139082   1.729   1.115   4.628 -1.7657 -1.0918  0.3395
11830SOL    HW239083   1.661   1.234   4.694  0.1062  0.4875 -0.4815
11831SOL     OW39084   2.737   8.597   8.946 -0.4102  0.3461 -0.2610
11831SOL    HW139085   2.651   8.567   8.975 -0.4748 -0.0027 -0.8085
11831SOL    HW239086   2.719   8.675   8.892 -0.4154  0.0745 -0.6586
11832SOL     OW39087   7.396  10.211   7.876  0.0045 -0.0807  0.7340
11832SOL    HW139088   7.383  10.291   7.927 -0.1895 -0.2218  0.9098
11832SOL    HW239089   7.430  10.148   7.940 -0.2430 -0.2594  0.6901
11833SOL     OW39090   8.591   1.773   2.097 -0.0938  0.3605 -0.1482
11833SOL    HW139091   8.601   1.690   2.144  1.1536  0.5470 -0.0389
11833SOL    HW239092   8.671   1.821   2.118 -1.6118  2.4180  1.3547
11834SOL     OW39093  10.938   8.728   2.506 -0.0940  0.1370  0.6376
11834SOL    HW139094  10.961   8.821   2.503 -1.1446  0.4346  1.5423
11834SOL    HW239095  11.011   8.685   2.460  0.6004  1.3553  0.5418
11835SOL     OW39096   5.713   2.833   4.770  0.2932  0.4484 -0.4456
11835SOL    HW139097   5.733   2.780   4.847  1.0703  0.1892 -0.8230
11835SOL    HW239098   5.665   2.909   4.806  0.1607  0.0589  0.2205
11836SOL     OW39099   2.250   9.907   6.648 -0.2054 -0.1021  0.1052
11836SOL    HW139100   2.335   9.923   6.606 -0.0172 -0.9232  0.1522
11836SOL    HW239101   2.267   9.919   6.741  0.4429 -2.4547  0.3553
11837SOL     OW39102   3.269   9.121   7.880  0.3791  0.3527 -0.4297
11837SOL    HW139103   3.205   9.185   7.912  1.6417  0.5088  2.0347
11837SOL    HW239104   3.236   9.037   7.910  2.0521  0.5894  2.4113
11838SOL     OW39105  10.683   8.465  10.860 -0.2806 -0.7383  0.2142
11838SOL    HW139106  10.733   8.439  10.936 -0.4402 -2.2688 -0.1689
11838SOL    HW239107  10.624   8.534  10.892 -0.1575 -1.1623  1.3966
11839SOL     OW39108   2.003   8.116   0.263 -0.6555  0.1981 -0.1580
11839SOL    HW139109   1.939   8.050   0.290 -1.0318  0.7112  0.2137
11839SOL    HW239110   1.991   8.188   0.324 -1.3905  1.3132 -1.5590
11840SOL     OW39111  10.292   2.069   3.974  0.3123  0.4550 -0.0779
11840SOL    HW139112  10.347   1.999   4.011 -1.7061 -1.4180 -0.4073
11840SOL    HW239113  10.247   2.107   4.049  1.6785  1.7118  0.1441
11841SOL     OW39114   9.300  10.508   8.855  0.0663  0.8850 -0.1527
11841SOL    HW139115   9.379  10.553   8.883  0.6516 -0.9552  1.3649
11841SOL    HW239116   9.329  10.419   8.831 -1.2939  0.6852 -1.2492
11842SOL     OW39117   7.170   3.500   1.456  0.4017 -0.3409 -0.8237
11842SOL    HW139118   7.088   3.451   1.460 -0.4582  1.1297  0.7855
11842SOL    HW239119   7.229   3.453   1.515  1.1396 -1.9514 -2.6849
11843SOL     OW39120   2.610   7.659   1.302  0.1180 -0.0237 -0.1686
11843SOL    HW139121   2.546   7.672   1.232 -1.4514  1.8768  1.5150
11843SOL    HW239122   2.686   7.710   1.275 -0.7459  1.2970 -0.2093
11844SOL     OW39123   5.021   4.780   1.896 -0.1475 -0.8582  0.1095
11844SOL    HW139124   5.096   4.819   1.940 -0.9208 -1.0863  1.7076
11844SOL    HW239125   4.949   4.787   1.960 -1.1139 -1.9472 -0.8059
11845SOL     OW39126   1.098   6.423   1.892  0.1737  0.4411 -0.0609
11845SOL    HW139127   1.128   6.508   1.922 -0.4843  0.2398  1.2643
11845SOL    HW239128   1.054   6.384   1.969 -1.9175  0.0215 -1.3659
11846SOL     OW39129   4.655  10.011   3.332 -0.4423 -0.0854  0.3927
11846SOL    HW139130   4.576  10.061   3.312  0.4873  0.6743 -1.7414
11846SOL    HW239131   4.703  10.066   3.394 -1.2295 -0.2181  1.1359
11847SOL     OW39132  10.518   7.934   3.601  0.7147 -0.3798  0.1885
11847SOL    HW139133  10.603   7.929   3.557  2.5905 -0.7466  3.4790
11847SOL    HW239134  10.505   7.847   3.637 -0.8598 -0.1779  0.1485
11848SOL     OW39135   9.723  10.708   9.251  0.4172 -0.0766 -0.1017
11848SOL    HW139136   9.686  10.755   9.325  0.7136  0.7141 -0.4379
11848SOL    HW239137   9.803  10.667   9.285  0.3947  0.0376  0.0850
11849SOL     OW39138   8.940   8.465   5.216 -0.2427  0.5447  0.5344
11849SOL    HW139139   9.002   8.398   5.245  1.1222  1.2641 -0.5758
11849SOL    HW239140   8.868   8.459   5.278  0.8005 -0.5218  1.7184
11850SOL     OW39141   0.608   2.561   2.638  0.5903 -0.0327 -0.2654
11850SOL    HW139142   0.655   2.592   2.715  1.6054  0.5046 -1.0651
11850SOL    HW239143   0.519   2.545   2.669  0.5596  1.6780  0.6912
11851SOL     OW39144  10.358   2.037   9.921  0.2246 -0.3400  0.5112
11851SOL    HW139145  10.263   2.030   9.921  0.1825  0.2014  1.2774
11851SOL    HW239146  10.387   1.981   9.993  0.4622 -0.2075  0.5215
11852SOL     OW39147   2.323   4.656   7.716 -0.3959 -0.3918  0.1150
11852SOL    HW139148   2.331   4.659   7.621 -0.4324  1.6857  0.1475
11852SOL    HW239149   2.232   4.632   7.731  0.0712 -2.7069 -0.3123
11853SOL     OW39150  10.633   9.817   3.224 -0.0506 -0.0426 -0.0537
11853SOL    HW139151  10.610   9.897   3.272 -0.5319 -0.8664  1.1315
11853SOL    HW239152  10.630   9.843   3.132  2.7970  2.1029  0.3399
11854SOL     OW39153   0.230   5.962   6.394 -0.7139 -0.3572  0.5495
11854SOL    HW139154   0.286   6.011   6.455  1.0725  1.3348 -2.2425
11854SOL    HW239155   0.269   5.875   6.390 -0.3353 -0.2218  1.1286
11855SOL     OW39156  10.331   7.530   5.004  0.4690  0.1501  0.3748
11855SOL    HW139157  10.315   7.499   5.092  0.0927  0.5533  0.4492
11855SOL    HW239158  10.294   7.463   4.947 -1.6846  1.1171  0.5332
11856SOL     OW39159   9.355   1.220   0.237 -0.6177 -0.0344 -0.1122
11856SOL    HW139160   9.270   1.258   0.217 -1.7745 -1.9940  0.7779
11856SOL    HW239161   9.347   1.190   0.328  0.5882 -1.3243 -0.3956
11857SOL     OW39162   1.734   5.433   2.230 -0.3223  0.3580 -0.2021
11857SOL    HW139163   1.654   5.408   2.276 -0.2097  0.5787  0.1151
11857SOL    HW239164   1.713   5.419   2.137 -0.8183  0.6541 -0.1433
11858SOL     OW39165   7.659   0.805   7.293  0.4402  0.1060  0.2247
11858SOL    HW139166   7.624   0.757   7.218  1.2429 -0.4125  0.1769
11858SOL    HW239167   7.644   0.897   7.271  0.9979 -0.0228 -0.7419
11859SOL     OW39168   7.325   1.000   3.514  0.6389  0.1701  0.1044
11859SOL    HW139169   7.338   1.044   3.430  1.2183  0.4578  0.3414
11859SOL    HW239170   7.253   0.939   3.498  1.1102 -0.1728 -0.7499
11860SOL     OW39171   9.897   2.268   2.170  0.6738  0.0700  0.2811
11860SOL    HW139172   9.871   2.336   2.108  2.1350 -0.2275 -0.7164
11860SOL    HW239173   9.992   2.279   2.179  0.7983 -1.2424  0.8366
11861SOL     OW39174   7.791   0.689   4.019  0.0545 -0.0694 -0.7042
11861SOL    HW139175   7.813   0.777   3.988 -0.8468  1.4727  2.5804
11861SOL    HW239176   7.875   0.643   4.020  0.4774  0.5355 -2.9153
11862SOL     OW39177   0.845   9.340   5.623 -0.0512 -0.2175  0.2603
11862SOL    HW139178   0.908   9.404   5.590  1.2145 -1.4499  0.2000
11862SOL    HW239179   0.862   9.335   5.717 -0.7261  0.1256  0.4117
11863SOL     OW39180   6.242   0.387   5.523 -0.9271 -0.3694  0.2903
11863SOL    HW139181   6.315   0.366   5.582 -1.1597 -0.2184  0.6333
11863SOL    HW239182   6.276   0.368   5.436  0.4113  2.0619  0.1902
11864SOL     OW39183  10.514   8.762   7.647  0.6275 -0.1902  0.0374
11864SOL    HW139184  10.436   8.762   7.591  0.3253  1.8208  0.3980
11864SOL    HW239185  10.581   8.807   7.596  1.1233 -0.5795  0.3260
11865SOL     OW39186   4.052   3.218   1.534 -0.4806  0.8633 -0.1210
11865SOL    HW139187   3.985   3.156   1.562 -0.2525  0.8196  0.3325
11865SOL    HW239188   4.012   3.264   1.460 -1.1359  1.0641  0.3443
11866SOL     OW39189   8.730   4.345   3.640 -0.4581  0.3173  0.5123
11866SOL    HW139190   8.736   4.323   3.547  1.4991  0.8259  0.4643
11866SOL    HW239191   8.704   4.263   3.682 -0.1718 -0.2455 -0.3793
11867SOL     OW39192   5.114   2.075   6.642 -0.1665  0.3510  0.0410
11867SOL    HW139193   5.143   2.108   6.727 -1.8548  0.5380  0.5880
11867SOL    HW239194   5.185   2.099   6.582 -0.7526  4.1665  0.5689
11868SOL     OW39195   4.705   5.779   1.508 -0.2233  0.2295 -0.0286
11868SOL    HW139196   4.772   5.818   1.452  0.6909 -1.5003 -0.1989
11868SOL    HW239197   4.624   5.824   1.483  0.6077  1.3249 -0.8586
11869SOL     OW39198   0.915   3.287  11.074  0.3846  0.1557 -0.3248
11869SOL    HW139199   0.920   3.236  10.993 -0.0111  1.2160 -1.0286
11869SOL    HW239200   0.993   3.259  11.124  1.3004  0.3554 -1.5887
11870SOL     OW39201   0.972   5.774   4.960 -0.2617 -0.1251 -0.1785
11870SOL    HW139202   0.997   5.700   5.015  0.5092 -0.7943 -1.4087
11870SOL    HW239203   0.906   5.821   5.012 -1.2357 -2.0196  0.3578
11871SOL     OW39204   4.734   1.843   7.672 -0.2565  0.7067  0.2578
11871SOL    HW139205   4.652   1.832   7.719 -0.4370  0.7060 -0.0516
11871SOL    HW239206   4.716   1.809   7.584  0.3523 -0.1839  0.4541
11872SOL     OW39207   4.516   4.504   8.594 -0.2749  0.0955 -0.2848
11872SOL    HW139208   4.570   4.533   8.520 -0.6468 -1.2756 -1.1457
11872SOL    HW239209   4.426   4.507   8.560 -0.4230 -0.8527  0.0027
11873SOL     OW39210  10.085   2.606  10.602 -0.6386  0.2165 -0.7884
11873SOL    HW139211  10.032   2.686  10.604 -2.1180 -0.7521  0.0258
11873SOL    HW239212  10.024   2.537  10.579  0.8451 -0.5625 -2.6645
11874SOL     OW39213   3.624   3.215  10.994  0.9981  0.2221 -0.6651
11874SOL    HW139214   3.535   3.191  10.965  0.6603  1.1892 -0.4465
11874SOL    HW239215   3.625   3.310  10.992  1.5262  0.2652  0.8786
11875SOL     OW39216   5.613   1.973   3.424 -0.1214  0.4499  0.4739
11875SOL    HW139217   5.708   1.984   3.421 -0.0194 -0.3433  0.4594
11875SOL    HW239218   5.601   1.879   3.441 -0.9061  0.4641  0.0313
11876SOL     OW39219   1.664   5.426   3.241 -0.6547  0.0645  0.0475
11876SOL    HW139220   1.706   5.458   3.162 -1.5546  1.2272  0.0138
11876SOL    HW239221   1.589   5.375   3.210 -0.1678 -0.7304  0.1390
11877SOL     OW39222  10.611  10.604  10.645  0.1238  0.2992  0.5166
11877SOL    HW139223  10.654  10.524  10.672 -0.6592 -0.1073  0.6039
11877SOL    HW239224  10.582  10.645  10.727  0.2613  0.5172  0.4566
11878SOL     OW39225   3.556   1.911   7.980  0.3356  0.0918  0.0128
11878SOL    HW139226   3.617   1.924   7.907 -0.5940 -1.5825 -1.1477
11878SOL    HW239227   3.605   1.859   8.044  0.7484  0.4448 -0.0156
11879SOL     OW39228   3.308   6.498   1.909  0.2707 -0.1626  0.0254
11879SOL    HW139229   3.321   6.559   1.836 -2.6897 -0.7006 -1.0822
11879SOL    HW239230   3.324   6.412   1.871  0.6160 -0.3323  0.5458
11880SOL     OW39231   8.099   7.788   0.737  0.3400 -0.3855 -0.0335
11880SOL    HW139232   8.005   7.809   0.737  0.1983 -0.8757 -1.6487
11880SOL    HW239233   8.142   7.871   0.761 -0.4728 -0.0343  0.2639
11881SOL     OW39234   1.201   4.632   9.238  0.0322  0.0989 -0.3785
11881SOL    HW139235   1.209   4.633   9.143 -1.1856  1.1088 -0.4888
11881SOL    HW239236   1.285   4.666   9.270  0.9332 -1.3869 -1.0108
11882SOL     OW39237   9.825   5.363   8.226  0.0938  0.1425 -0.0344
11882SOL    HW139238   9.895   5.299   8.233 -2.0617 -2.2792  1.5110
11882SOL    HW239239   9.802   5.383   8.317 -0.0861  2.2594 -0.4968
11883SOL     OW39240   1.454   2.191   9.033  0.5904 -0.1653  0.8242
11883SOL    HW139241   1.454   2.108   8.985 -0.2119 -0.2319  0.9278
11883SOL    HW239242   1.512   2.175   9.108 -0.8272 -1.1803  1.7497
11884SOL     OW39243   8.601   8.278   4.939  0.0222  0.4267  0.1533
11884SOL    HW139244   8.662   8.269   4.866 -1.7458 -0.9651 -1.2361
11884SOL    HW239245   8.640   8.227   5.009 -0.0294 -1.3913 -1.0769
11885SOL     OW39246   7.968  10.770   4.238  0.4731  1.0303 -0.1923
11885SOL    HW139247   7.954  10.843   4.178  1.4222  0.7913 -0.7295
11885SOL    HW239248   7.934  10.694   4.191 -1.0535  1.1814  0.6044
11886SOL     OW39249   0.633   9.693   3.888 -0.2601  0.0747 -0.1830
11886SOL    HW139250   0.654   9.711   3.797  1.4620 -1.5159 -0.1532
11886SOL    HW239251   0.556   9.636   3.884 -1.1123  1.2165 -0.5494
11887SOL     OW39252   2.840   2.540   1.486 -0.0204 -0.0889  0.2532
11887SOL    HW139253   2.934   2.527   1.474  0.0672  0.5854  0.1810
11887SOL    HW239254   2.831   2.633   1.508 -0.4726 -0.5358  2.1811
11888SOL     OW39255   0.854   3.257   4.310  0.5189  0.5158  0.0253
11888SOL    HW139256   0.778   3.203   4.333 -0.1879  0.4298 -2.3188
11888SOL    HW239257   0.894   3.278   4.395 -0.6875 -1.4781  1.1815
11889SOL     OW39258   2.832   8.743   5.655 -0.6389 -0.4976 -0.1282
11889SOL    HW139259   2.814   8.826   5.611 -0.4254 -1.0205 -1.2400
11889SOL    HW239260   2.771   8.740   5.728 -0.2925  0.8750  0.2464
11890SOL     OW39261   8.055   0.929   1.108 -0.0672 -0.5089  0.2525
11890SOL    HW139262   8.132   0.951   1.055 -1.7784  0.3650 -2.0493
11890SOL    HW239263   7.981   0.966   1.059 -2.1296 -2.6772  1.5321
11891SOL     OW39264   3.346   6.859   4.662  0.1725  0.4251  0.4028
11891SOL    HW139265   3.319   6.832   4.750  0.8899 -1.3211  0.1326
11891SOL    HW239266   3.408   6.930   4.676 -1.2452  1.5604  1.1946
11892SOL     OW39267   0.916   7.103   0.075  0.3169 -0.3175  0.1606
11892SOL    HW139268   0.853   7.113   0.146  0.0559  3.2203 -0.4219
11892SOL    HW239269   0.892   7.020   0.034 -0.7121 -1.5458  2.9574
11893SOL     OW39270   1.264   3.365   3.193  0.2212  0.4176  0.4663
11893SOL    HW139271   1.308   3.446   3.221 -0.2311  0.5003  0.9397
11893SOL    HW239272   1.172   3.389   3.184  0.0967 -0.0268  0.5379
11894SOL     OW39273   5.719   0.671   2.057 -0.4064 -0.2764 -0.1352
11894SOL    HW139274   5.627   0.655   2.039 -0.7753  0.2405  1.1168
11894SOL    HW239275   5.738   0.754   2.012 -0.7160 -0.0973  0.0573
11895SOL     OW39276   3.984   6.650   6.334 -0.4443 -0.7853  0.4577
11895SOL    HW139277   3.892   6.664   6.357 -0.6382  0.8246 -1.0846
11895SOL    HW239278   4.032   6.704   6.396 -0.8131  1.4581 -1.1024
11896SOL     OW39279   7.173   9.344   2.153 -0.6047  0.3304 -0.1822
11896SOL    HW139280   7.098   9.401   2.168 -1.2574 -0.0893 -1.7530
11896SOL    HW239281   7.163   9.313   2.063  1.1380 -0.1964 -0.2313
11897SOL     OW39282   5.956   1.584   5.542 -0.0114 -0.4654 -0.5590
11897SOL    HW139283   5.969   1.554   5.632 -0.8337 -1.4190 -0.7390
11897SOL    HW239284   5.906   1.666   5.551  1.9725  0.7565 -0.0763
11898SOL     OW39285   7.993   3.798   1.214  0.0550 -0.7467 -0.4376
11898SOL    HW139286   8.084   3.813   1.189 -0.4163 -2.1003 -3.4429
11898SOL    HW239287   7.947   3.879   1.191 -0.0426 -1.3134 -2.3694
11899SOL     OW39288   0.647   3.634   3.425 -0.1378  0.6581 -0.8231
11899SOL    HW139289   0.553   3.625   3.438 -0.0550 -0.7944 -1.0018
11899SOL    HW239290   0.665   3.727   3.438 -1.4462  0.8037  0.1231
11900SOL     OW39291   6.241   4.949   6.330 -0.5457  0.1616  0.4343
11900SOL    HW139292   6.302   5.004   6.379  0.9608 -2.5366  1.8260
11900SOL    HW239293   6.275   4.947   6.241 -0.1086  0.7493  0.5901
11901SOL     OW39294  10.137   3.529   2.402  0.2777 -0.3470  0.0293
11901SOL    HW139295  10.187   3.463   2.355  0.5287 -1.0687  1.2579
11901SOL    HW239296  10.203   3.579   2.451  0.0791  0.7469 -0.7742
11902SOL     OW39297   7.771   6.617   7.047 -0.3128  0.2047 -0.3449
11902SOL    HW139298   7.737   6.577   7.127  1.7292  0.9078  0.9497
11902SOL    HW239299   7.797   6.705   7.073  0.9058  0.2568 -1.6249
11903SOL     OW39300  10.450   9.533   4.090  0.5883  0.3109 -0.6587
11903SOL    HW139301  10.461   9.502   4.180 -2.9951 -0.6135 -0.3875
11903SOL    HW239302  10.513   9.482   4.040  1.6888 -0.1966  1.1373
11904SOL     OW39303   2.895   0.490   6.247 -0.2256 -0.3310 -0.4872
11904SOL    HW139304   2.940   0.473   6.330 -0.9453  0.6823  0.1305
11904SOL    HW239305   2.813   0.533   6.273 -0.2113  0.4880 -1.7640
11905SOL     OW39306   7.248   0.150  10.510 -0.1123 -0.0326 -0.3897
11905SOL    HW139307   7.234   0.225  10.567  0.5678  2.4765 -3.2661
11905SOL    HW239308   7.307   0.093  10.559 -1.5772  0.6694  2.3647
11906SOL     OW39309   3.139   4.477   7.079 -0.0753 -0.2646 -0.6379
11906SOL    HW139310   3.056   4.506   7.117  0.3228 -1.0308  0.8809
11906SOL    HW239311   3.121   4.389   7.047 -0.0074 -0.1923 -0.8777
11907SOL     OW39312   5.174  10.386   3.642  0.7837 -0.5072  0.0743
11907SOL    HW139313   5.108  10.327   3.678  1.4354 -0.9905  0.4986
11907SOL    HW239314   5.139  10.473   3.659  1.8632 -0.5853  3.6755
11908SOL     OW39315   6.255  10.926   9.867  0.5067  0.4218 -0.0610
11908SOL    HW139316   6.173  10.976   9.868  1.0017  1.3359 -1.3368
11908SOL    HW239317   6.243  10.858   9.933 -0.6198  1.5710  0.9767
11909SOL     OW39318   7.454   2.230   9.835 -0.4108 -0.7140 -0.0902
11909SOL    HW139319   7.536   2.270   9.807  0.2166 -1.4542  0.6798
11909SOL    HW239320   7.390   2.302   9.830  0.2132 -0.1928 -0.9123
11910SOL     OW39321   9.078   0.914   2.383  0.1522  0.3255 -0.2460
11910SOL    HW139322   9.004   0.900   2.442 -1.4892 -1.2356 -2.5039
11910SOL    HW239323   9.128   0.832   2.388 -0.4831 -0.1708 -1.5830
11911SOL     OW39324   7.202   4.362   5.467  0.4548  0.1070 -0.0822
11911SOL    HW139325   7.277   4.306   5.445  1.3120  1.3340 -0.3837
11911SOL    HW239326   7.228   4.406   5.548 -0.6833 -0.7521  0.7880
11912SOL     OW39327   0.648   3.900   3.446 -0.0624  0.1908  0.3616
11912SOL    HW139328   0.556   3.908   3.421 -0.7075 -0.1097  2.4653
11912SOL    HW239329   0.673   3.988   3.474 -0.9927 -0.4344  3.6284
11913SOL     OW39330   4.902   6.472   0.887 -0.0923  0.0336  0.5497
11913SOL    HW139331   4.925   6.448   0.798  2.0496 -0.3176  1.1520
11913SOL    HW239332   4.831   6.536   0.877  1.1602  1.2063 -1.4734
11914SOL     OW39333   3.022   9.107   3.879 -0.4332 -0.3736  0.1559
11914SOL    HW139334   3.094   9.158   3.915 -1.2821  2.0131 -1.3104
11914SOL    HW239335   3.064   9.047   3.818  0.4638 -0.4247  0.8016
11915SOL     OW39336   9.555   8.604  10.155  0.2549  0.0404 -0.3896
11915SOL    HW139337   9.524   8.516  10.173 -0.1573  0.1807 -0.3808
11915SOL    HW239338   9.620   8.594  10.086  0.2075 -0.2695 -0.3886
11916SOL     OW39339   6.903   3.639   2.771 -0.2020  0.4154 -0.0838
11916SOL    HW139340   6.899   3.547   2.795 -6.2480  0.1445 -0.5380
11916SOL    HW239341   6.896   3.687   2.854 -2.8836  0.0755 -0.0144
11917SOL     OW39342   3.831   4.150   7.884  0.0218 -0.4667 -0.0224
11917SOL    HW139343   3.830   4.123   7.975  2.0804 -1.2840 -0.1847
11917SOL    HW239344   3.739   4.165   7.862 -0.6541 -1.6584  1.7697
11918SOL     OW39345   0.654   5.608   0.154 -0.1194 -0.0028  0.2813
11918SOL    HW139346   0.735   5.557   0.153 -1.1997 -1.8517  1.5830
11918SOL    HW239347   0.683   5.698   0.137  2.4524 -0.3085  2.2947
11919SOL     OW39348  10.332   6.795   0.076 -0.2265  0.4500 -0.0111
11919SOL    HW139349  10.359   6.823  -0.011  1.3286  1.3977  0.7416
11919SOL    HW239350  10.290   6.872   0.114 -1.4717 -0.1469 -0.1130
11920SOL     OW39351   4.162   6.836   7.910  0.6144 -0.3688  0.1636
11920SOL    HW139352   4.203   6.780   7.977  1.4010 -1.6406 -1.3283
11920SOL    HW239353   4.069   6.835   7.933  0.7312 -1.6126  0.6586
11921SOL     OW39354   4.399  10.661   0.517  0.1983  0.0173 -0.0306
11921SOL    HW139355   4.396  10.597   0.446 -0.9477  0.9032 -0.8112
11921SOL    HW239356   4.412  10.745   0.473  1.3554  0.3950  0.9553
11922SOL     OW39357   6.106   9.578   0.926  0.3604  0.5016 -0.0833
11922SOL    HW139358   6.087   9.531   0.845  0.6325 -0.4237  0.3675
11922SOL    HW239359   6.182   9.531   0.963  1.2893  1.9236 -0.1152
11923SOL     OW39360  10.749   7.477   9.501  0.1124 -0.8685  0.0136
11923SOL    HW139361  10.719   7.395   9.540  1.1861 -0.8527  0.9142
11923SOL    HW239362  10.841   7.483   9.525  0.0311  0.6644  0.0763
11924SOL     OW39363   5.453   2.231   0.812  0.1987 -0.2266 -0.6387
11924SOL    HW139364   5.369   2.197   0.842  0.0514  0.8961  0.2927
11924SOL    HW239365   5.515   2.160   0.829 -0.4708 -0.8943 -0.9231
11925SOL     OW39366   1.627  11.028   4.440 -0.2213  0.3511 -0.2941
11925SOL    HW139367   1.700  11.090   4.447 -1.6826  2.0332  0.8683
11925SOL    HW239368   1.629  10.980   4.523  0.1764 -0.3713 -0.7052
11926SOL     OW39369   1.995  10.225   2.542 -0.0964 -0.0862 -0.3547
11926SOL    HW139370   1.969  10.310   2.507 -2.4110 -0.9327 -0.8568
11926SOL    HW239371   1.982  10.233   2.636 -1.0657 -0.0968 -0.4751
11927SOL     OW39372   6.305   1.295   5.832 -0.6614 -0.1836  0.0065
11927SOL    HW139373   6.324   1.346   5.753 -2.4400 -0.7263 -0.8238
11927SOL    HW239374   6.211   1.306   5.846 -0.5679 -0.9325  1.4750
11928SOL     OW39375   5.268   1.312   1.026  0.5146  0.2287 -0.0652
11928SOL    HW139376   5.221   1.384   1.067  1.9832  1.0748  0.2307
11928SOL    HW239377   5.271   1.335   0.933  2.4035  1.4826  0.2358
11929SOL     OW39378   4.773   2.195   5.943  0.3660  0.1366 -0.2127
11929SOL    HW139379   4.813   2.179   5.858 -1.2990  0.5400 -1.1109
11929SOL    HW239380   4.840   2.243   5.992  1.3776 -0.1703 -1.2484
11930SOL     OW39381   7.940   2.550   7.688  0.2049  0.0723  0.3227
11930SOL    HW139382   7.934   2.544   7.593  0.3328  1.6876  0.1820
11930SOL    HW239383   7.854   2.526   7.720  0.3052 -0.9636 -0.1661
11931SOL     OW39384   7.768   4.157   4.750 -0.3820  0.0932  0.0675
11931SOL    HW139385   7.739   4.071   4.781  1.4448 -0.1787  1.2058
11931SOL    HW239386   7.774   4.148   4.655 -1.4299 -0.6193  0.0472
11932SOL     OW39387   3.680   1.030   2.267  0.0146  0.4123 -0.0251
11932SOL    HW139388   3.610   1.086   2.303  0.2232 -0.1895  1.4184
11932SOL    HW239389   3.668   0.946   2.313  0.4932 -0.3153 -1.2073
11933SOL     OW39390   2.780   6.209   4.603  0.2317 -0.0155  0.4353
11933SOL    HW139391   2.808   6.293   4.566  2.6292 -0.0107  2.0294
11933SOL    HW239392   2.790   6.146   4.532  0.4622  0.7006 -0.1672
11934SOL     OW39393   0.833   3.512  10.676  0.2522  0.4366  0.2023
11934SOL    HW139394   0.797   3.432  10.715  1.4466 -0.7019 -0.9288
11934SOL    HW239395   0.782   3.525  10.597  1.5073 -0.5864 -0.8454
11935SOL     OW39396   1.058   6.633   9.368 -0.0219  0.0111 -0.1224
11935SOL    HW139397   0.964   6.648   9.356  0.1514  0.5477 -0.9160
11935SOL    HW239398   1.075   6.550   9.325  0.0623  0.4776 -1.0147
11936SOL     OW39399   9.764  10.815   8.150 -1.0191 -0.1320 -0.2027
11936SOL    HW139400   9.736  10.737   8.198 -2.5554  0.3165 -0.2914
11936SOL    HW239401   9.830  10.783   8.089 -1.0476 -1.2113  0.2954
11937SOL     OW39402   8.729   7.666   5.603  0.2063 -0.1967 -0.2769
11937SOL    HW139403   8.719   7.589   5.547 -1.7641 -0.5922  0.5406
11937SOL    HW239404   8.640   7.699   5.616  0.3586 -0.7365  3.3934
11938SOL     OW39405   2.458   9.690   0.469  0.4773  0.2043  0.1340
11938SOL    HW139406   2.376   9.662   0.428  0.9015 -0.5784 -0.2147
11938SOL    HW239407   2.471   9.779   0.438 -0.1034  0.2441 -0.0164
11939SOL     OW39408   6.157   5.900   8.757  0.1059 -0.1157  0.4050
11939SOL    HW139409   6.205   5.850   8.823  0.7801  0.3748  0.2912
11939SOL    HW239410   6.206   5.982   8.748 -0.9957  0.5927  0.6137
11940SOL     OW39411  10.708   5.552   9.735 -0.4593  0.1854  0.6740
11940SOL    HW139412  10.624   5.510   9.715 -0.8670  1.7989 -1.4509
11940SOL    HW239413  10.736   5.513   9.818 -1.8674 -2.5128 -0.0114
11941SOL     OW39414   1.486   3.637   9.881 -0.4014  0.3907 -0.0016
11941SOL    HW139415   1.473   3.558   9.933 -0.1943  0.5339  0.2709
11941SOL    HW239416   1.474   3.609   9.790  3.0940 -0.7384 -0.2560
11942SOL     OW39417   2.131   5.500  10.601  0.0028 -0.2564  0.0050
11942SOL    HW139418   2.142   5.421  10.654  2.5607  1.0803  1.6379
11942SOL    HW239419   2.115   5.467  10.513  2.8631 -2.6812  0.2325
11943SOL     OW39420   2.558   3.804   2.972 -0.4453  0.5966 -0.3413
11943SOL    HW139421   2.628   3.741   2.988  0.2908  1.5281  0.2378
11943SOL    HW239422   2.482   3.751   2.951  0.3230 -0.4562 -0.5339
11944SOL     OW39423   6.656   0.140   2.349  0.0483  0.1845  0.0143
11944SOL    HW139424   6.720   0.069   2.345 -0.3410 -0.1681 -0.1010
11944SOL    HW239425   6.702   0.211   2.392  0.0966 -0.5165  1.1636
11945SOL     OW39426   0.178   9.623   6.771 -0.3382  0.4428 -0.3336
11945SOL    HW139427   0.209   9.633   6.681  0.2498  0.2256 -0.1598
11945SOL    HW239428   0.130   9.540   6.771 -1.6825  1.1908 -0.8053
11946SOL     OW39429   5.361   1.568   1.487  0.0378 -0.8268 -0.0907
11946SOL    HW139430   5.382   1.480   1.518  0.3402 -0.6782  0.1267
11946SOL    HW239431   5.272   1.583   1.519  0.4149 -0.6033  0.8724
11947SOL     OW39432   4.080   7.853   5.970  0.2857  0.6523  0.1924
11947SOL    HW139433   3.997   7.852   5.923  0.8516  1.3164 -0.8696
11947SOL    HW239434   4.116   7.940   5.954  2.3166 -0.3827 -1.4600
11948SOL     OW39435   2.222   7.457  10.135 -0.3230 -0.4104  0.0992
11948SOL    HW139436   2.153   7.466  10.070 -1.1482 -2.3060  0.6305
11948SOL    HW239437   2.294   7.413  10.089  0.3241  1.0143 -0.2947
11949SOL     OW39438   7.340   7.371   1.190  0.2646 -0.2663  0.4209
11949SOL    HW139439   7.310   7.377   1.100  2.0880  1.9914 -0.1444
11949SOL    HW239440   7.398   7.294   1.191  0.1543 -0.3615 -0.2992
11950SOL     OW39441   7.906   6.265   0.580  0.0491  0.3379 -0.0427
11950SOL    HW139442   7.934   6.252   0.670 -0.8686 -0.3507  0.1583
11950SOL    HW239443   7.984   6.248   0.527  0.5498  0.5990  0.6139
11951SOL     OW39444  10.437   2.245   9.332  0.5192  0.7083  0.3825
11951SOL    HW139445  10.481   2.169   9.369 -0.0477  0.9494  1.6238
11951SOL    HW239446  10.383   2.209   9.261  0.9116  0.0821  0.3934
11952SOL     OW39447   6.162   1.768   8.083  0.2954  0.0318 -0.2499
11952SOL    HW139448   6.084   1.716   8.103 -0.0668  1.3172  2.0379
11952SOL    HW239449   6.128   1.846   8.040  0.1536  0.8966  1.3226
11953SOL     OW39450   8.708   2.794   7.926  0.4868  0.2155 -0.6149
11953SOL    HW139451   8.738   2.706   7.906  0.0222 -0.2389  0.5535
11953SOL    HW239452   8.746   2.813   8.012 -0.9975  0.3466  0.0559
11954SOL     OW39453   6.124  10.135  10.657 -0.1933 -0.3122 -0.3583
11954SOL    HW139454   6.125  10.205  10.722  0.9929 -0.9644  0.3636
11954SOL    HW239455   6.038  10.141  10.615  0.2133  2.1671 -0.9839
11955SOL     OW39456   9.594   8.932   8.067 -0.0400 -0.5610 -0.1545
11955SOL    HW139457   9.638   8.989   8.004 -0.2275 -0.5418 -0.2715
11955SOL    HW239458   9.545   8.991   8.124  0.5527 -0.5439  0.3463
11956SOL     OW39459   6.226  10.801   1.499  0.3161 -0.3824  0.6234
11956SOL    HW139460   6.193  10.814   1.410  1.9348 -1.6879 -0.2233
11956SOL    HW239461   6.210  10.709   1.517  1.5774 -0.5506  0.9829
11957SOL     OW39462  10.161   1.967   3.064  0.3118 -0.0223  0.0890
11957SOL    HW139463  10.100   1.947   3.135 -1.3680  0.0743 -1.2569
11957SOL    HW239464  10.124   1.921   2.988 -0.4828  3.3901 -1.7809
11958SOL     OW39465   9.511  10.093   3.173 -0.2419 -0.3484 -0.2617
11958SOL    HW139466   9.590  10.141   3.197  0.2792 -0.3670 -1.8290
11958SOL    HW239467   9.521  10.007   3.214 -0.5293  0.3699  1.3966
11959SOL     OW39468   2.686   0.496   5.284  0.2756  0.9751  0.0824
11959SOL    HW139469   2.677   0.575   5.231  1.1915  0.1108 -1.4201
11959SOL    HW239470   2.772   0.503   5.324  0.8327  0.2426 -0.9471
11960SOL     OW39471   3.676  10.511   9.064 -0.2994  0.4803 -0.0985
11960SOL    HW139472   3.624  10.486   9.141  1.9125  0.1933  1.4148
11960SOL    HW239473   3.697  10.428   9.022  1.9069  0.1558  1.4299
11961SOL     OW39474   4.945  10.618   5.563  0.2987 -0.2670 -0.2378
11961SOL    HW139475   4.855  10.608   5.532  0.2007 -0.6829  0.1786
11961SOL    HW239476   4.998  10.614   5.484 -0.1270  1.1747 -0.6268
11962SOL     OW39477   0.591   8.100   5.874  0.1435 -0.1916  0.3713
11962SOL    HW139478   0.554   8.026   5.922  0.7368  0.1261  1.3532
11962SOL    HW239479   0.572   8.081   5.782  1.4962 -2.2613  0.4502
11963SOL     OW39480   4.426   4.939   4.844 -0.0366  0.2518 -0.2591
11963SOL    HW139481   4.365   4.952   4.917  0.7176  1.4072  0.1997
11963SOL    HW239482   4.382   4.978   4.769 -0.3425  0.0623 -0.1804
11964SOL     OW39483   5.006   2.811   3.596 -0.5635  0.7438 -0.1396
11964SOL    HW139484   5.027   2.904   3.595 -0.6180  0.7594  0.1697
11964SOL    HW239485   4.927   2.805   3.650 -1.8190  0.7783 -1.8922
11965SOL     OW39486   6.448   5.479   8.124  0.2202  0.3880 -0.3647
11965SOL    HW139487   6.464   5.570   8.098  0.2685  0.1472 -1.2031
11965SOL    HW239488   6.354   5.467   8.113 -0.1048  0.8658  1.5249
11966SOL     OW39489   2.873   2.836   9.635  0.7743 -0.0007  0.0447
11966SOL    HW139490   2.908   2.877   9.556  1.3601 -0.9129 -0.1759
11966SOL    HW239491   2.835   2.753   9.606  1.8075 -0.7760  0.8327
11967SOL     OW39492   8.671   9.971   1.540  0.3844 -0.2568  1.0970
11967SOL    HW139493   8.647  10.060   1.568  2.1283  0.1927  1.2634
11967SOL    HW239494   8.701   9.982   1.450  0.2909 -0.7363  1.0063
11968SOL     OW39495   2.594   8.967   8.122  0.0316 -0.4156 -0.0110
11968SOL    HW139496   2.601   8.895   8.060 -0.9829 -0.3523 -0.2040
11968SOL    HW239497   2.558   9.040   8.071  1.8633  0.5302 -0.0484
11969SOL     OW39498   3.585   4.196   4.952 -0.4354  0.0908 -1.5427
11969SOL    HW139499   3.677   4.196   4.926 -0.2032  0.1126 -0.7556
11969SOL    HW239500   3.588   4.188   5.048 -1.2569 -0.3384 -1.5488
11970SOL     OW39501   9.568   0.402  10.212  0.0365  0.1581  0.3356
11970SOL    HW139502   9.530   0.377  10.296 -1.1522  0.1050 -0.1901
11970SOL    HW239503   9.493   0.432  10.160  0.8537  0.9025 -0.4482
11971SOL     OW39504   8.763  10.081   5.647 -0.0668 -0.1970  0.0938
11971SOL    HW139505   8.856  10.084   5.670 -0.1437 -1.1226  0.5597
11971SOL    HW239506   8.739  10.173   5.638  1.5996  0.0708 -3.0952
11972SOL     OW39507   6.281   5.283   9.438  0.3114  0.2675 -0.2610
11972SOL    HW139508   6.310   5.350   9.376  2.5794  0.2298  0.6567
11972SOL    HW239509   6.327   5.305   9.519 -0.5061 -1.2182  0.6368
11973SOL     OW39510  10.121  10.392  11.102  0.1597  0.4902 -0.0168
11973SOL    HW139511  10.054  10.461  11.102  0.0920  0.4542 -1.3247
11973SOL    HW239512  10.179  10.415  11.174 -0.3400  1.4471  0.1000
11974SOL     OW39513  10.689   7.270  10.702 -0.3485 -0.0960  0.2970
11974SOL    HW139514  10.674   7.215  10.779 -1.7651  1.4764  1.2280
11974SOL    HW239515  10.616   7.332  10.703  1.3698  2.0753 -0.4065
11975SOL     OW39516   9.151   0.057   7.016 -0.3411  0.6994  0.6709
11975SOL    HW139517   9.170   0.004   7.093 -1.5152 -1.0556 -0.1622
11975SOL    HW239518   9.057   0.077   7.023 -0.6285 -0.0698 -0.5960
11976SOL     OW39519   2.138   6.127   4.375 -0.0452 -0.2936  0.6003
11976SOL    HW139520   2.153   6.132   4.281 -1.6082  0.0167  0.3325
11976SOL    HW239521   2.178   6.044   4.402  3.5547  1.1983  0.3751
11977SOL     OW39522   9.160   5.407  10.611 -0.1483  0.3257 -0.4947
11977SOL    HW139523   9.089   5.396  10.674  0.2959 -1.5282 -0.2711
11977SOL    HW239524   9.223   5.463  10.656 -0.6563  0.5175 -0.0102
11978SOL     OW39525   4.119   4.087   0.678 -0.1153 -0.7424 -0.1930
11978SOL    HW139526   4.040   4.098   0.732  0.7325 -1.3529  1.2133
11978SOL    HW239527   4.099   4.135   0.597 -1.6685 -0.3314  0.3975
11979SOL     OW39528   0.358   1.490   3.483 -0.5366 -0.3532 -0.2490
11979SOL    HW139529   0.274   1.537   3.483 -0.3930 -0.0854  0.9088
11979SOL    HW239530   0.390   1.499   3.393 -0.4654  1.8748 -0.0432
11980SOL     OW39531   5.677   6.557  10.402  0.1375  0.0072 -0.3061
11980SOL    HW139532   5.665   6.600  10.486 -0.4022  0.7868 -0.7724
11980SOL    HW239533   5.660   6.464  10.420  4.4626 -0.6846  1.4195
11981SOL     OW39534   9.206   9.032   1.537  0.8158 -0.1432  0.1857
11981SOL    HW139535   9.267   8.964   1.567  2.1548  1.3393  0.9697
11981SOL    HW239536   9.261   9.098   1.496 -0.3886  0.7526 -0.0632
11982SOL     OW39537   5.963  10.254   9.628 -0.3906 -0.3705  0.5425
11982SOL    HW139538   6.002  10.312   9.564 -2.0395  0.2019  0.0058
11982SOL    HW239539   5.959  10.306   9.709 -1.6106  0.2127  0.1349
11983SOL     OW39540   0.541   5.931  10.000 -0.1664  0.2048  0.9293
11983SOL    HW139541   0.498   5.857  10.042  0.0764 -0.2668  0.3527
11983SOL    HW239542   0.517   6.006  10.055 -1.0023 -0.1811  1.1161
11984SOL     OW39543   9.737   8.032   9.020  0.2953 -0.2004 -0.3238
11984SOL    HW139544   9.746   8.113   9.070  0.7694 -0.1346 -0.5041
11984SOL    HW239545   9.652   8.039   8.977  0.0623 -0.0782  0.1545
11985SOL     OW39546   2.378   9.604  10.454 -0.5442  0.5231 -0.2564
11985SOL    HW139547   2.319   9.550  10.507 -0.5382  1.6667  0.9806
11985SOL    HW239548   2.464   9.590  10.494 -0.1635 -0.1635 -1.2646
11986SOL     OW39549   6.349   2.134   3.973 -0.0250  0.0357  0.1425
11986SOL    HW139550   6.396   2.217   3.972  1.1698 -0.6164  0.6184
11986SOL    HW239551   6.417   2.067   3.969 -0.9116 -0.9411  0.7520
11987SOL     OW39552   5.175   4.337   0.748 -0.2988  0.5574 -0.2208
11987SOL    HW139553   5.157   4.430   0.735  1.3655  0.9852  0.3578
11987SOL    HW239554   5.201   4.305   0.662  0.0562  0.8491 -0.2231
11988SOL     OW39555   6.188   1.002   9.694  0.5438  0.3611  0.6329
11988SOL    HW139556   6.275   1.023   9.728  0.3483  1.1308  0.6652
11988SOL    HW239557   6.155   0.935   9.754  1.1373  0.0143  0.5827
11989SOL     OW39558   1.066   3.102   6.747 -0.4964 -0.2680  0.0617
11989SOL    HW139559   0.986   3.105   6.694  0.7445 -1.7172 -2.0355
11989SOL    HW239560   1.052   3.028   6.807 -0.8762 -0.2777 -0.0342
11990SOL     OW39561  10.862   4.740   6.157  0.4968 -0.1868 -0.2135
11990SOL    HW139562  10.918   4.741   6.080  0.9058  0.8001  0.0821
11990SOL    HW239563  10.796   4.807   6.141 -1.0172 -1.7543 -0.8275
11991SOL     OW39564   4.929   7.944   6.948  1.2992  0.5189  0.3103
11991SOL    HW139565   4.912   8.017   7.008  0.7188  2.0367 -1.6024
11991SOL    HW239566   4.995   7.891   6.993 -0.1304  0.7815  2.8891
11992SOL     OW39567   4.233   8.987   9.014  0.0771  0.6855  0.0323
11992SOL    HW139568   4.201   8.949   9.096  1.1624 -1.7922 -0.5908
11992SOL    HW239569   4.220   9.081   9.024  0.5966  0.5203  3.2333
11993SOL     OW39570   5.853   6.816   0.317 -0.0678 -0.1924  0.1861
11993SOL    HW139571   5.831   6.782   0.404  2.8144  1.9440  1.9419
11993SOL    HW239572   5.817   6.905   0.316  1.1503  0.3178 -0.1704
11994SOL     OW39573   4.933   7.133   9.522  0.1388 -0.5708 -0.8404
11994SOL    HW139574   4.988   7.094   9.590 -2.3233 -2.7634  0.0672
11994SOL    HW239575   4.990   7.197   9.479  2.5084 -0.7241  1.7548
11995SOL     OW39576   4.607   6.178   6.164  0.2092 -0.3335  0.3314
11995SOL    HW139577   4.610   6.259   6.113  0.3053 -1.0922 -0.9011
11995SOL    HW239578   4.520   6.142   6.146  0.4611 -0.8982  0.2560
11996SOL     OW39579   1.431   5.268  10.128  0.0535  0.2907  0.2685
11996SOL    HW139580   1.389   5.339  10.176  2.3980  0.4894  2.2201
11996SOL    HW239581   1.524   5.285  10.137  0.6589 -2.2566 -0.4329
11997SOL     OW39582   1.325   1.145   0.123 -0.2267 -0.7037  0.0072
11997SOL    HW139583   1.306   1.073   0.184 -0.4600  0.9267  1.9421
11997SOL    HW239584   1.388   1.200   0.169  1.4746 -0.6488 -2.2411
11998SOL     OW39585   1.391   8.515   7.373 -0.6350  0.0743 -0.4030
11998SOL    HW139586   1.323   8.501   7.306 -0.9160 -0.3193 -0.0415
11998SOL    HW239587   1.473   8.500   7.326 -0.7675  0.9982 -0.9581
11999SOL     OW39588   0.802   0.206   5.385 -0.1675  0.0260 -0.0601
11999SOL    HW139589   0.876   0.152   5.358  0.6414  0.0519  1.9058
11999SOL    HW239590   0.765   0.240   5.304  2.3888  0.5417 -1.0840
12000SOL     OW39591   8.387   4.499   6.680 -0.2322  0.0468 -0.1388
12000SOL    HW139592   8.417   4.586   6.708 -1.5445  0.5452 -0.2281
12000SOL    HW239593   8.417   4.440   6.749  1.0165  0.4973 -0.2641
12001SOL     OW39594   3.691   9.620   8.635  0.4029  0.4049  0.1163
12001SOL    HW139595   3.607   9.664   8.620 -1.1132 -2.5730 -0.9062
12001SOL    HW239596   3.745   9.644   8.559  0.5739  2.3856  0.8122
12002SOL     OW39597   8.681   3.483   4.398 -0.2676  0.1000  0.1564
12002SOL    HW139598   8.671   3.516   4.487 -1.6823  1.6005 -0.5055
12002SOL    HW239599   8.722   3.397   4.408  0.1326  0.4951  2.1952
12003SOL     OW39600  10.149   9.623   2.272  0.2658 -0.2593 -0.4142
12003SOL    HW139601  10.128   9.694   2.212  1.1583 -1.3003 -2.0317
12003SOL    HW239602  10.219   9.574   2.228 -0.5017 -2.3023  0.4827
12004SOL     OW39603  10.145   6.624   9.936  0.0950 -0.4592 -0.7495
12004SOL    HW139604  10.071   6.654   9.989 -1.2423 -2.2173 -1.5163
12004SOL    HW239605  10.192   6.704   9.912 -1.6069  0.7135 -0.3246
12005SOL     OW39606   5.292   7.127   3.999 -0.0669 -0.1605  0.0800
12005SOL    HW139607   5.263   7.092   4.084  0.4345 -0.7178  0.0295
12005SOL    HW239608   5.303   7.221   4.014 -0.8692 -0.1075  0.3821
12006SOL     OW39609   8.006  10.700  11.044 -0.0843  0.5098  0.0229
12006SOL    HW139610   7.979  10.729  10.957  0.3557  0.7717 -0.0348
12006SOL    HW239611   8.099  10.679  11.034  0.0669  0.9239  0.5192
12007SOL     OW39612   4.386   0.031   4.197  0.2625 -0.1909 -0.0776
12007SOL    HW139613   4.308   0.082   4.220  1.1075  1.9289 -1.5955
12007SOL    HW239614   4.361  -0.015   4.117 -0.3364 -1.8241  1.0199
12008SOL     OW39615   2.298   9.066   4.834 -0.2385 -0.3947 -0.2791
12008SOL    HW139616   2.230   9.020   4.785  0.3196 -0.9676 -0.5294
12008SOL    HW239617   2.352   9.108   4.767  0.2493 -0.7893 -0.1383
12009SOL     OW39618   7.115   0.903   8.256  0.2701  0.1251  0.0023
12009SOL    HW139619   7.165   0.844   8.199 -0.2819  0.3152 -0.6886
12009SOL    HW239620   7.173   0.920   8.330  0.6524 -0.8482 -0.0542
12010SOL     OW39621   7.005   2.022   7.547  0.5202 -0.2931 -0.0596
12010SOL    HW139622   7.000   1.979   7.462 -0.2032  1.0766 -0.7380
12010SOL    HW239623   7.084   1.984   7.588  2.7781  1.2475 -2.6227
12011SOL     OW39624  10.950   8.706   8.685 -0.1256  0.0567  0.0200
12011SOL    HW139625  10.880   8.744   8.632 -0.2589 -0.3027 -0.0649
12011SOL    HW239626  10.904   8.662   8.757 -0.1883 -2.4450 -1.4342
12012SOL     OW39627   7.079   9.301   1.131 -0.0246 -0.1612 -0.2986
12012SOL    HW139628   6.997   9.270   1.092  0.0813 -0.9548  0.1022
12012SOL    HW239629   7.146   9.244   1.094  0.1983 -0.2751  0.2781
12013SOL     OW39630   8.627   2.059   7.587  0.0003  0.4446  0.1431
12013SOL    HW139631   8.673   2.088   7.508 -0.6478 -1.0549 -0.8439
12013SOL    HW239632   8.616   2.138   7.640 -0.1745  1.6450 -1.6054
12014SOL     OW39633   7.289   3.357   7.074  0.0097 -0.4567 -0.0380
12014SOL    HW139634   7.338   3.355   6.992 -0.4529  0.2663 -0.3425
12014SOL    HW239635   7.269   3.450   7.087 -0.1728 -0.6044  0.7402
12015SOL     OW39636   1.852   2.284   1.363  0.1411  0.2584  0.0176
12015SOL    HW139637   1.807   2.295   1.447  0.1847  1.1394 -0.0748
12015SOL    HW239638   1.792   2.322   1.298  0.4114  0.1959 -0.2712
12016SOL     OW39639   2.630   6.574   5.330 -0.6310  0.1270  0.4189
12016SOL    HW139640   2.653   6.647   5.273 -1.0606  1.4828  1.9228
12016SOL    HW239641   2.547   6.599   5.370 -0.3619 -0.7845  1.6080
12017SOL     OW39642   8.122   2.335   1.572  0.1548 -0.2746  0.7168
12017SOL    HW139643   8.092   2.251   1.606  0.3587 -0.6555 -0.0251
12017SOL    HW239644   8.085   2.340   1.484  0.6352  0.1416  0.5334
12018SOL     OW39645   3.358   8.593   6.846 -0.5936 -0.1380  0.4418
12018SOL    HW139646   3.429   8.601   6.909  0.4473 -0.7431 -0.6120
12018SOL    HW239647   3.388   8.527   6.784 -2.7921 -1.6710  0.8796
12019SOL     OW39648   7.154   8.215   0.428  0.2445 -0.2040  0.6036
12019SOL    HW139649   7.226   8.265   0.390 -0.1202  0.0942  0.2882
12019SOL    HW239650   7.196   8.148   0.481  0.8224 -1.3557 -1.2144
12020SOL     OW39651   3.828   7.035   3.381  0.6289 -0.1814  0.4130
12020SOL    HW139652   3.792   7.072   3.301 -0.1941  0.3292  1.0061
12020SOL    HW239653   3.867   7.109   3.427 -0.3493 -0.1496  1.2402
12021SOL     OW39654   4.862   1.989  10.439  0.0449  0.3533 -0.1229
12021SOL    HW139655   4.892   2.075  10.412 -3.0567  2.0293  1.2667
12021SOL    HW239656   4.820   1.953  10.360 -1.4823  1.5605  0.0959
12022SOL     OW39657   1.023  10.106   8.541 -0.3047 -0.1075  0.1362
12022SOL    HW139658   0.953  10.156   8.499 -0.7572  0.3261  1.3720
12022SOL    HW239659   1.056  10.165   8.609  1.5628 -0.1231 -0.6787
12023SOL     OW39660   8.528   8.615   7.115  0.2308 -0.5942 -0.2888
12023SOL    HW139661   8.623   8.618   7.114  0.3235 -1.7262  1.5877
12023SOL    HW239662   8.507   8.523   7.128 -1.1751 -0.4933 -1.4990
12024SOL     OW39663   1.956   8.585   4.029  0.5938 -0.0289 -0.1331
12024SOL    HW139664   1.926   8.511   4.083 -0.3988 -1.4587 -2.4772
12024SOL    HW239665   2.032   8.550   3.982  0.6424  0.7488 -0.6408
12025SOL     OW39666   8.187   5.442   5.459 -0.5159 -0.5961 -0.3686
12025SOL    HW139667   8.114   5.420   5.517 -2.9430  0.9748 -2.5978
12025SOL    HW239668   8.157   5.417   5.372  0.7596  1.8487 -1.6279
12026SOL     OW39669   6.878   4.687   4.617 -1.0232  0.1048 -0.0898
12026SOL    HW139670   6.926   4.657   4.694 -0.4595  0.7249 -0.1903
12026SOL    HW239671   6.944   4.694   4.549 -1.3475  0.4834 -0.3702
12027SOL     OW39672   6.961   8.181  10.350  0.1345 -0.2262 -0.3183
12027SOL    HW139673   6.907   8.217  10.420  0.0424  0.1129 -0.5587
12027SOL    HW239674   6.918   8.210  10.269  1.0327  0.6037 -0.5089
12028SOL     OW39675   0.731   3.737   8.657  0.2569 -0.0560 -0.1170
12028SOL    HW139676   0.672   3.787   8.714  0.5481 -0.1408  0.2589
12028SOL    HW239677   0.672   3.683   8.604 -0.0430  0.4282 -0.2886
12029SOL     OW39678   0.936  10.932   9.077  0.2169  0.6279 -0.6835
12029SOL    HW139679   0.949  11.027   9.075 -0.0596  0.7739  1.8081
12029SOL    HW239680   0.847  10.921   9.110  0.6134 -0.4850  0.0739
12030SOL     OW39681   0.621   7.935   7.902 -0.4551  0.0568 -0.4410
12030SOL    HW139682   0.668   8.010   7.868  2.0478 -1.6588 -1.0615
12030SOL    HW239683   0.566   7.906   7.830  1.0927 -0.6166 -1.4068
12031SOL     OW39684   6.864   6.552   9.057 -0.3008  0.3028 -0.4917
12031SOL    HW139685   6.819   6.548   8.972  0.9206  1.4178 -1.2353
12031SOL    HW239686   6.870   6.646   9.076 -0.3101  0.0672  0.7000
12032SOL     OW39687   1.413   0.658  10.404  1.3558  0.4397 -0.0184
12032SOL    HW139688   1.348   0.628  10.467  1.5040 -0.5010 -0.3032
12032SOL    HW239689   1.362   0.679  10.325  1.1545  1.7421  0.4320
12033SOL     OW39690   4.154   3.886   7.682  0.2471  0.7415 -0.1029
12033SOL    HW139691   4.227   3.941   7.710 -0.3793  0.5529  2.1246
12033SOL    HW239692   4.146   3.820   7.751 -1.6535  0.4397 -0.5488
12034SOL     OW39693   9.386   6.228  11.111 -0.0303 -0.7329 -0.2922
12034SOL    HW139694   9.392   6.194  11.022  4.0334 -1.9314  0.2398
12034SOL    HW239695   9.423   6.316  11.105  1.6300 -1.3527  0.3620
12035SOL     OW39696   4.689   8.134   5.960  0.4903 -0.2509  0.0086
12035SOL    HW139697   4.678   8.114   6.053  2.0320 -0.5622  0.1610
12035SOL    HW239698   4.717   8.226   5.959  0.1166 -0.1403 -0.1733
12036SOL     OW39699  10.198   8.724   2.301  0.7870  0.2538 -0.3488
12036SOL    HW139700  10.171   8.633   2.298  1.4145  0.0763 -0.7425
12036SOL    HW239701  10.118   8.772   2.322  0.4171 -0.3679 -0.3143
12037SOL     OW39702  10.744   4.602   0.925 -0.6479  0.6067  0.6646
12037SOL    HW139703  10.684   4.663   0.967  0.4131  1.4080  1.0525
12037SOL    HW239704  10.785   4.653   0.855 -1.5310 -0.3727 -0.6221
12038SOL     OW39705   5.159   7.252   6.987 -0.0608 -0.7028 -0.4985
12038SOL    HW139706   5.248   7.245   6.952  0.1531  1.5192 -0.5090
12038SOL    HW239707   5.134   7.343   6.972 -2.0326 -1.0685  0.2749
12039SOL     OW39708   6.655  10.545   3.219 -0.1613  0.2475  0.1715
12039SOL    HW139709   6.632  10.489   3.145  0.6175 -0.3329  0.3574
12039SOL    HW239710   6.681  10.484   3.288 -2.4170  0.6720  1.5141
12040SOL     OW39711  10.885   2.568   6.182 -0.2991 -0.5152  0.2839
12040SOL    HW139712  10.827   2.643   6.196  0.2617 -0.0330  0.0628
12040SOL    HW239713  10.963   2.587   6.234  0.2694 -0.4486 -0.5612
12041SOL     OW39714   5.575   9.078  10.474  0.0251  0.1998 -0.1505
12041SOL    HW139715   5.564   9.012  10.542  0.5282 -0.4413 -0.6741
12041SOL    HW239716   5.638   9.140  10.511  0.8808 -0.5505 -0.3037
12042SOL     OW39717  10.015   9.113   7.300 -0.0153 -0.2359 -0.0738
12042SOL    HW139718  10.011   9.094   7.393 -0.0887  0.5976  0.1029
12042SOL    HW239719   9.923   9.114   7.272  0.0527 -1.8130 -0.4544
12043SOL     OW39720   9.037  10.006   2.776 -0.1321  0.3189  0.4969
12043SOL    HW139721   9.013   9.925   2.821 -2.0148 -1.8649 -3.7627
12043SOL    HW239722   9.128   9.991   2.748  0.2926  0.7235  1.6219
12044SOL     OW39723   8.941   5.307   2.354  0.1853 -0.3739 -0.0182
12044SOL    HW139724   8.966   5.263   2.435 -0.0486  0.2955  0.4374
12044SOL    HW239725   8.897   5.240   2.302  3.6342 -1.8810 -1.2839
12045SOL     OW39726   4.403   0.367   0.939 -0.2197  0.6408  0.1251
12045SOL    HW139727   4.493   0.335   0.935 -0.1589  0.8261  0.0083
12045SOL    HW239728   4.360   0.327   0.863 -0.8519 -1.3079  1.4209
12046SOL     OW39729   3.950   6.551   6.036 -0.1992 -0.3275  0.2855
12046SOL    HW139730   3.906   6.511   6.110 -0.8423 -0.4024 -0.1269
12046SOL    HW239731   4.006   6.619   6.074 -0.0439 -0.7844  0.8818
12047SOL     OW39732   2.094   5.067   5.633 -0.0255 -0.0103 -0.0792
12047SOL    HW139733   2.187   5.086   5.624  0.4483 -2.1798 -0.3060
12047SOL    HW239734   2.058   5.083   5.545 -0.1908  2.0960  0.3084
12048SOL     OW39735   9.685   8.539   6.339  0.2386  0.2222  0.2685
12048SOL    HW139736   9.761   8.571   6.388  0.5051  1.7398 -1.0461
12048SOL    HW239737   9.612   8.590   6.374 -0.0713 -0.7219  1.0284
12049SOL     OW39738  10.349   8.508   6.964  0.5187 -0.2815  0.2831
12049SOL    HW139739  10.339   8.600   6.990 -1.0664 -0.2321 -0.3937
12049SOL    HW239740  10.267   8.486   6.920  0.8710 -2.0283  0.4093
12050SOL     OW39741   3.075   3.881   9.783  0.0229  0.2424 -0.1389
12050SOL    HW139742   3.150   3.844   9.736 -0.1532  0.8175 -0.8881
12050SOL    HW239743   3.114   3.946   9.842  0.0740  0.9445 -0.9335
12051SOL     OW39744  10.856   3.893   8.616  0.0844  0.0186 -0.5271
12051SOL    HW139745  10.939   3.938   8.600  0.3668 -0.5228 -0.6014
12051SOL    HW239746  10.829   3.861   8.530  0.4129 -0.8448 -0.3225
12052SOL     OW39747   1.109  10.317   3.429  0.1175  0.0751  0.1841
12052SOL    HW139748   1.081  10.243   3.483  1.4331 -1.0479 -0.5978
12052SOL    HW239749   1.196  10.339   3.462  0.1099  0.6947 -0.1865
12053SOL     OW39750   1.685   6.265   8.864  0.4764 -0.2378 -0.2073
12053SOL    HW139751   1.752   6.228   8.921  1.3846  0.4565 -0.7773
12053SOL    HW239752   1.649   6.190   8.817 -0.1745 -0.7891  1.1472
12054SOL     OW39753   3.241   4.347   5.608 -0.6307  0.1895  0.0413
12054SOL    HW139754   3.314   4.401   5.579  0.1695 -2.2449 -3.1314
12054SOL    HW239755   3.179   4.350   5.535 -1.4349 -1.5373  0.5862
12055SOL     OW39756  11.009   6.715   1.719 -0.6721 -0.0619  0.0658
12055SOL    HW139757  10.936   6.653   1.716 -2.3023  1.7137  1.0500
12055SOL    HW239758  10.987   6.782   1.654  0.0124  0.5710  0.4646
12056SOL     OW39759   8.746   2.484   6.086 -0.2124  0.6138 -0.1041
12056SOL    HW139760   8.737   2.517   5.997 -0.6801 -2.3307 -1.2553
12056SOL    HW239761   8.657   2.461   6.112 -0.1682  1.9974  1.4215
12057SOL     OW39762   5.336   4.224   2.168 -0.0432 -0.0757 -0.4514
12057SOL    HW139763   5.402   4.286   2.138 -1.0476  1.1135 -0.2626
12057SOL    HW239764   5.265   4.232   2.104 -0.2654 -0.9044 -0.3205
12058SOL     OW39765   4.124   4.657   4.476 -0.0549 -0.4987  0.5775
12058SOL    HW139766   4.031   4.640   4.462 -0.1596  0.3334  0.2131
12058SOL    HW239767   4.145   4.610   4.557 -0.3246 -2.2658 -0.3334
12059SOL     OW39768  10.627   1.807   4.755 -0.5277 -0.6629  0.1552
12059SOL    HW139769  10.699   1.775   4.811 -0.3647  0.5317  0.6540
12059SOL    HW239770  10.669   1.824   4.671 -0.2912 -0.3418  0.3326
12060SOL     OW39771   5.426  10.927   1.415 -0.3681  0.4526 -0.3106
12060SOL    HW139772   5.336  10.907   1.391 -0.1021 -0.3990 -0.6218
12060SOL    HW239773   5.448  10.864   1.484 -0.2302  1.1023  0.2538
12061SOL     OW39774   4.638   1.825   1.013  0.1215 -0.1979 -0.0536
12061SOL    HW139775   4.723   1.784   1.034 -0.1363 -1.3704 -1.2154
12061SOL    HW239776   4.628   1.812   0.919 -0.8163  0.9945 -0.1333
12062SOL     OW39777   8.625   1.467   9.077  0.1000  0.0032 -0.1213
12062SOL    HW139778   8.538   1.449   9.113  0.0426 -0.6094 -0.5473
12062SOL    HW239779   8.655   1.546   9.123 -1.3412  1.1774 -1.0986
12063SOL     OW39780  10.592   5.801   5.213 -1.1860  0.2118  0.4566
12063SOL    HW139781  10.592   5.778   5.306  0.2057  0.7507  0.6088
12063SOL    HW239782  10.584   5.896   5.211 -1.5200  0.1802  0.0059
12064SOL     OW39783  10.108   2.752   7.039 -0.1985 -0.3324  0.4540
12064SOL    HW139784  10.199   2.722   7.046 -0.1840 -0.5487 -0.5210
12064SOL    HW239785  10.110   2.818   6.970 -0.6867  0.0941  0.8361
12065SOL     OW39786   5.652   8.217   4.260  0.5022 -0.1907  0.1268
12065SOL    HW139787   5.608   8.222   4.345  0.9213 -1.0847  0.4032
12065SOL    HW239788   5.582   8.202   4.197 -0.2129  3.1832 -0.1109
12066SOL     OW39789   9.492   9.926   0.616  0.3799 -0.8204  0.3762
12066SOL    HW139790   9.431   9.927   0.543  1.6066 -0.0327 -0.6727
12066SOL    HW239791   9.573   9.892   0.579  1.0698 -0.2705  1.3427
12067SOL     OW39792   6.644   6.748   0.944 -0.0606  0.2200 -0.7186
12067SOL    HW139793   6.680   6.821   0.892 -0.4354  0.3555 -0.7907
12067SOL    HW239794   6.713   6.681   0.942 -0.9536 -0.7577 -3.3946
12068SOL     OW39795   0.623   4.395   8.651 -0.1697  0.7474 -0.2554
12068SOL    HW139796   0.647   4.303   8.640 -1.6542  0.3549 -0.3564
12068SOL    HW239797   0.570   4.415   8.573 -0.4452  1.4875  0.1166
12069SOL     OW39798  10.067   8.945   2.537  0.3014 -0.2476 -0.1484
12069SOL    HW139799  10.038   8.942   2.446  0.8562 -1.3514 -0.3012
12069SOL    HW239800   9.993   8.910   2.587 -0.5025  1.5374 -0.0172
12070SOL     OW39801   6.887   7.476   9.050  0.0979 -0.1292  0.2472
12070SOL    HW139802   6.880   7.560   9.095 -1.6290 -0.1639  0.1194
12070SOL    HW239803   6.797   7.443   9.048  0.5181 -1.2755 -1.0475
12071SOL     OW39804   0.347   6.442   3.375  0.1943  0.4484  0.5897
12071SOL    HW139805   0.392   6.525   3.356  0.7532 -0.1565 -0.9339
12071SOL    HW239806   0.317   6.451   3.465  1.8388  1.5857  1.0789
12072SOL     OW39807   0.779   1.227   0.130  0.2615 -0.6474  0.3181
12072SOL    HW139808   0.783   1.210   0.036 -0.9211 -1.2817  0.3644
12072SOL    HW239809   0.870   1.226   0.158  0.6826  0.1539 -0.9137
12073SOL     OW39810   8.912   9.999   7.354  0.2775 -0.1871  0.0827
12073SOL    HW139811   8.877   9.910   7.352  1.7719 -0.7900 -0.4522
12073SOL    HW239812   8.970  10.004   7.278 -0.2552  1.4624 -0.2706
12074SOL     OW39813   5.381  10.911   8.468  0.0812 -0.2410 -0.1518
12074SOL    HW139814   5.392  11.006   8.472 -1.4189  0.0529 -1.9304
12074SOL    HW239815   5.367  10.884   8.559  2.2197  0.9635  0.6093
12075SOL     OW39816   5.746   2.141   8.124  0.1564 -0.0539 -0.2874
12075SOL    HW139817   5.791   2.177   8.047  0.5975 -1.5197 -0.7486
12075SOL    HW239818   5.817   2.116   8.184 -0.0754 -1.1497 -0.4501
12076SOL     OW39819  10.825   8.166   5.975  0.2799 -0.2505 -0.0344
12076SOL    HW139820  10.872   8.144   6.056 -0.7509 -1.1324  0.3495
12076SOL    HW239821  10.733   8.160   5.999 -0.0417 -0.8679 -1.3577
12077SOL     OW39822  10.984   5.290   4.460  0.1748 -0.2106 -0.0270
12077SOL    HW139823  11.061   5.233   4.466 -0.3749 -0.8900  0.7558
12077SOL    HW239824  10.915   5.234   4.427 -0.5684 -0.2176  1.4704
12078SOL     OW39825  10.956   2.787   6.539 -0.0227 -0.2994  0.2878
12078SOL    HW139826  10.892   2.848   6.502  1.6039  0.5815 -1.2122
12078SOL    HW239827  10.993   2.834   6.614  1.5639  0.8396 -1.1435
12079SOL     OW39828   0.616   5.685   7.236  0.0771  0.1350 -0.2481
12079SOL    HW139829   0.700   5.727   7.255  0.3788 -0.4939 -0.1776
12079SOL    HW239830   0.556   5.721   7.301 -0.1342  1.8680 -1.3302
12080SOL     OW39831   5.419   0.046   0.573  0.2102 -0.2061 -0.5566
12080SOL    HW139832   5.465  -0.011   0.511  0.6608  1.3573 -1.7230
12080SOL    HW239833   5.326   0.028   0.558  0.3354 -2.2568  0.7237
12081SOL     OW39834   4.418   2.058  10.327  0.1345  0.1118 -0.1031
12081SOL    HW139835   4.430   1.964  10.341 -2.6990 -0.5960 -1.6583
12081SOL    HW239836   4.406   2.067  10.232  1.7362  2.2769 -0.1608
12082SOL     OW39837   4.347   0.819   5.441 -0.3071  0.9930 -0.0298
12082SOL    HW139838   4.436   0.791   5.419  0.4179  1.7525  1.7560
12082SOL    HW239839   4.330   0.779   5.527 -0.9210  2.4450  0.5548
12083SOL     OW39840   4.631   3.007   7.830 -0.3459  0.7022  0.0914
12083SOL    HW139841   4.695   2.990   7.762 -0.2088 -0.3359  0.4597
12083SOL    HW239842   4.610   3.100   7.821  0.2032  0.7424 -0.8904
12084SOL     OW39843   1.531   0.142   6.865 -0.4042 -0.3817  0.4018
12084SOL    HW139844   1.587   0.101   6.798  0.8922 -2.0510  2.3751
12084SOL    HW239845   1.449   0.159   6.820 -0.3968 -3.5352 -1.1188
12085SOL     OW39846   6.130   4.064   7.372  0.0728  0.0872 -0.1736
12085SOL    HW139847   6.215   4.033   7.405 -0.6347 -1.4378  0.3101
12085SOL    HW239848   6.077   4.076   7.451 -0.3548  0.4371 -0.5096
12086SOL     OW39849   1.050   1.230   9.680 -0.3685 -0.0867  0.3182
12086SOL    HW139850   1.046   1.299   9.746 -0.4377  0.2727 -0.0566
12086SOL    HW239851   1.077   1.276   9.600 -1.4854 -0.3071 -0.1955
12087SOL     OW39852  10.967   7.476   5.933  0.8304  0.2075 -0.5793
12087SOL    HW139853  11.029   7.535   5.890  1.0190 -0.3384 -1.0767
12087SOL    HW239854  11.018   7.396   5.949  0.2417 -0.2731 -1.0535
12088SOL     OW39855   3.876   7.285   8.521 -0.1595  0.5076  0.0678
12088SOL    HW139856   3.861   7.297   8.428  0.6220  2.1422  0.1096
12088SOL    HW239857   3.916   7.367   8.550 -2.1330  0.8523  2.2076
12089SOL     OW39858   3.293   7.081   9.636 -0.2137  0.1248 -0.2182
12089SOL    HW139859   3.257   7.007   9.686  1.5300 -0.4796  0.2449
12089SOL    HW239860   3.254   7.073   9.549 -0.7203 -0.8349  0.0790
12090SOL     OW39861  10.728   5.654   9.307  0.1973  0.7859  0.2803
12090SOL    HW139862  10.648   5.604   9.322  1.0690 -0.6267  0.4212
12090SOL    HW239863  10.759   5.625   9.221  0.0541  2.0624 -0.2228
12091SOL     OW39864   2.638   0.705   7.761 -0.3945 -0.3988 -0.0008
12091SOL    HW139865   2.711   0.669   7.813 -0.3629 -1.4883 -0.7730
12091SOL    HW239866   2.613   0.784   7.808  2.2852  0.8908 -0.5197
12092SOL     OW39867   9.321   9.257   3.151 -0.3241  0.0980  0.2287
12092SOL    HW139868   9.254   9.315   3.186 -0.5566 -0.1612  0.2206
12092SOL    HW239869   9.403   9.303   3.167 -0.3976 -0.1323  1.3673
12093SOL     OW39870   7.117   8.513  10.280  0.3298 -0.4133  0.0357
12093SOL    HW139871   7.066   8.472  10.210 -0.1355 -0.4835  0.4087
12093SOL    HW239872   7.125   8.446  10.347  2.3802 -0.9777 -0.7089
12094SOL     OW39873   8.023   8.212   7.798 -0.7440 -0.0466  0.3135
12094SOL    HW139874   8.052   8.174   7.880 -0.2585 -0.5696 -0.0957
12094SOL    HW239875   7.928   8.196   7.796 -0.6279 -0.7496  0.3934
12095SOL     OW39876   0.325   4.774   1.913 -0.8600  0.1375  0.7656
12095SOL    HW139877   0.405   4.749   1.868  0.4096 -1.9446  3.8717
12095SOL    HW239878   0.256   4.760   1.848  0.8634 -1.9735 -0.7685
12096SOL     OW39879   7.607   7.250  10.598 -0.3078 -0.4935  0.1933
12096SOL    HW139880   7.524   7.202  10.593 -1.2314  0.4296  3.6657
12096SOL    HW239881   7.593   7.314  10.667  2.7112  1.0524 -0.4565
12097SOL     OW39882   2.030  10.113   7.226 -0.0806  0.2603 -0.4608
12097SOL    HW139883   2.123  10.130   7.233  0.3596 -1.0271 -2.3861
12097SOL    HW239884   2.002  10.091   7.315  1.5949 -0.0386  0.0121
12098SOL     OW39885   9.059   7.744  10.577 -0.6408 -0.3332 -0.0843
12098SOL    HW139886   9.062   7.838  10.596 -1.1875 -0.1570 -0.8120
12098SOL    HW239887   8.976   7.732  10.533 -2.3541 -1.8073  3.2044
12099SOL     OW39888   4.810   9.154   2.059  0.2037  0.5458  0.2391
12099SOL    HW139889   4.721   9.190   2.063  0.7998  1.9823  1.3983
12099SOL    HW239890   4.802   9.077   2.002 -1.4751  1.5237 -0.9338
12100SOL     OW39891   7.961   1.136   9.944 -0.0961 -0.1033 -0.1434
12100SOL    HW139892   8.015   1.194   9.997 -1.3242  0.8492  0.0979
12100SOL    HW239893   7.945   1.185   9.863  0.3951 -0.8714 -0.7191
12101SOL     OW39894   0.358   3.378  10.199 -0.0418 -0.0859 -0.0709
12101SOL    HW139895   0.269   3.350  10.218  0.3210 -1.4017 -0.1586
12101SOL    HW239896   0.369   3.460  10.247 -1.2829  0.0874 -0.0508
12102SOL     OW39897   9.012   1.078   0.360 -0.1780  0.0737  0.6107
12102SOL    HW139898   8.925   1.045   0.380 -0.8647  2.3869  1.8530
12102SOL    HW239899   9.066   1.054   0.435  0.5193 -1.9792 -0.4695
12103SOL     OW39900   0.556   1.931   2.503  0.1074 -0.3372 -0.6468
12103SOL    HW139901   0.603   2.014   2.495 -1.3013  0.3664 -1.8836
12103SOL    HW239902   0.611   1.868   2.457  0.7731  0.0751 -0.4319
12104SOL     OW39903   8.378   4.948   9.602 -0.2677 -0.0767  0.4939
12104SOL    HW139904   8.325   5.004   9.545 -1.2065  0.1230  1.5208
12104SOL    HW239905   8.450   4.918   9.546 -1.6138 -0.5869 -1.0388
12105SOL     OW39906   6.287   8.768   2.422  0.2603 -0.1873  0.3282
12105SOL    HW139907   6.250   8.721   2.347 -0.4960 -1.2923  1.3637
12105SOL    HW239908   6.212   8.787   2.478  0.7844  0.8340  0.7009
12106SOL     OW39909   5.674   2.694   6.330  0.2881  0.5704 -0.1622
12106SOL    HW139910   5.731   2.756   6.286  0.7169  0.7374  0.6055
12106SOL    HW239911   5.589   2.737   6.333  0.6473  1.2610  0.6147
12107SOL     OW39912   6.176   7.132   4.917 -0.6700  0.4175  0.2131
12107SOL    HW139913   6.174   7.139   5.012 -0.0092  3.9100  0.0888
12107SOL    HW239914   6.238   7.062   4.899 -1.0963 -0.5644  2.3165
12108SOL     OW39915   6.656   4.733  10.743  0.7058  0.1107  0.6071
12108SOL    HW139916   6.571   4.757  10.705 -0.1378 -1.6711  1.2416
12108SOL    HW239917   6.682   4.810  10.794  0.7581  1.6786 -1.6396
12109SOL     OW39918   7.732   2.390   3.248 -0.0746  0.1174 -0.2023
12109SOL    HW139919   7.797   2.460   3.234  0.2466 -0.4073 -1.4898
12109SOL    HW239920   7.648   2.434   3.242  0.0934  0.2846 -2.0379
12110SOL     OW39921   6.161   3.036   6.198  0.0802  0.7748  0.1346
12110SOL    HW139922   6.169   2.945   6.168 -0.4650  0.5516  0.6505
12110SOL    HW239923   6.207   3.036   6.282 -0.6536  0.7703  0.5406
12111SOL     OW39924  10.973   6.143   4.776 -0.3146  0.4527  0.1671
12111SOL    HW139925  11.052   6.089   4.774 -0.9030 -0.4245 -0.2483
12111SOL    HW239926  10.986   6.208   4.708 -0.3762 -0.3384 -0.6230
12112SOL     OW39927   5.082   7.632   7.467 -0.0126 -0.2161  0.5332
12112SOL    HW139928   5.079   7.726   7.484  0.3398  0.1074 -1.0080
12112SOL    HW239929   5.062   7.592   7.551  0.1523  1.2309  1.3008
12113SOL     OW39930   6.471   5.384   0.221  0.2539  0.4914  0.6112
12113SOL    HW139931   6.492   5.298   0.258  0.3025 -0.7290 -1.9807
12113SOL    HW239932   6.386   5.406   0.260  0.2638 -0.7011  1.3816
12114SOL     OW39933   5.008   6.893   9.665 -0.1726  0.0068 -0.1830
12114SOL    HW139934   4.992   6.885   9.759 -1.1188 -0.6539 -0.3907
12114SOL    HW239935   4.961   6.820   9.626 -1.2342  1.2453 -1.3246
12115SOL     OW39936   8.324  10.269   6.452 -0.5216  0.7593 -0.1344
12115SOL    HW139937   8.355  10.358   6.471  2.1019  0.4089 -2.1941
12115SOL    HW239938   8.297  10.235   6.537  1.3357  2.4969  1.2646
12116SOL     OW39939   1.124   7.010   3.327 -0.4918 -0.0511 -0.1027
12116SOL    HW139940   1.038   7.050   3.342  0.5281  1.8883  0.8963
12116SOL    HW239941   1.157   7.054   3.248 -0.6430 -1.2382 -0.8496
12117SOL     OW39942   6.074   0.806   5.208  0.2029 -0.0045 -0.6133
12117SOL    HW139943   6.122   0.863   5.268 -0.6794  1.1472 -0.9518
12117SOL    HW239944   6.110   0.826   5.122 -0.8149  0.8677 -0.8702
12118SOL     OW39945  10.607   4.107   3.016 -0.3496  0.1425 -0.1262
12118SOL    HW139946  10.650   4.151   3.089 -0.8794 -0.9747  0.8757
12118SOL    HW239947  10.642   4.152   2.938  1.5633  0.2047  0.7049
12119SOL     OW39948   4.665   6.098   4.842 -0.4127 -0.0354 -0.2357
12119SOL    HW139949   4.741   6.082   4.897 -0.3198 -0.4671 -0.4863
12119SOL    HW239950   4.592   6.106   4.904 -0.5210 -1.7408 -0.0902
12120SOL     OW39951   5.011   6.005   4.401  0.2458  0.4401  0.0990
12120SOL    HW139952   5.000   6.025   4.494  1.2258  0.1446  0.2883
12120SOL    HW239953   5.094   6.045   4.377 -0.3580  1.1604 -0.8526
12121SOL     OW39954   6.483   4.770   2.629 -0.4021 -0.5535  0.3938
12121SOL    HW139955   6.484   4.714   2.551 -0.3890 -1.0859  0.7659
12121SOL    HW239956   6.393   4.763   2.662 -0.6608  0.3958 -0.0775
12122SOL     OW39957  10.073   4.646   6.885  0.3992 -0.0946  0.0648
12122SOL    HW139958   9.981   4.660   6.904  0.1588 -0.4222 -0.8164
12122SOL    HW239959  10.108   4.735   6.872 -0.1095 -0.0394 -0.9910
12123SOL     OW39960  10.036   6.689   3.165 -0.6347 -0.0005 -0.7196
12123SOL    HW139961   9.955   6.695   3.114 -0.3828  1.8303 -0.9670
12123SOL    HW239962  10.006   6.683   3.256 -1.0652 -2.3129 -0.9564
12124SOL     OW39963   2.155   1.399   7.589  0.2449  0.1459 -0.4056
12124SOL    HW139964   2.110   1.403   7.504 -0.1802 -2.0549 -0.3287
12124SOL    HW239965   2.101   1.454   7.646 -1.5866 -1.2620 -0.6876
12125SOL     OW39966   1.983   0.492   0.097  0.1316 -0.0069 -0.3798
12125SOL    HW139967   1.971   0.421   0.034  1.6434 -1.4243  0.8437
12125SOL    HW239968   2.078   0.501   0.105  0.0137  2.7493 -1.0815
12126SOL     OW39969   1.662   5.918   1.660  0.6065 -0.1025 -0.0994
12126SOL    HW139970   1.684   5.865   1.737 -0.1304  2.2477  1.8678
12126SOL    HW239971   1.576   5.887   1.633  1.2557 -1.5563 -0.5935
12127SOL     OW39972   7.021   9.414   6.361  0.8790  0.4011 -0.2798
12127SOL    HW139973   7.047   9.407   6.269  0.2372  0.1553 -0.4445
12127SOL    HW239974   6.931   9.445   6.359  0.6131 -0.3181  0.2515
12128SOL     OW39975   4.538   1.277   4.904 -0.3435 -0.4540 -0.3279
12128SOL    HW139976   4.525   1.253   4.812  2.3520 -3.5554 -0.0795
12128SOL    HW239977   4.633   1.283   4.914 -0.5731 -0.0176  2.2213
12129SOL     OW39978   8.198   7.495   5.383 -0.3125  0.1101 -0.6302
12129SOL    HW139979   8.106   7.513   5.363 -0.8040 -3.5216 -2.5379
12129SOL    HW239980   8.195   7.450   5.468 -0.3365 -0.2258 -0.8082
12130SOL     OW39981   7.282   7.411  10.830  0.2466  0.0757 -0.3079
12130SOL    HW139982   7.373   7.433  10.810  0.7857 -0.3751  1.4865
12130SOL    HW239983   7.238   7.414  10.745  1.4452  2.5391 -0.9467
12131SOL     OW39984   7.717   2.378   6.215 -0.0433 -0.3982 -0.3721
12131SOL    HW139985   7.751   2.336   6.295 -0.8671 -1.3340 -0.4901
12131SOL    HW239986   7.712   2.306   6.152 -1.0471 -0.0185 -0.7336
12132SOL     OW39987   0.694   7.700   4.060  0.2857  0.8883  0.2028
12132SOL    HW139988   0.697   7.695   4.155 -0.9892  1.4607  0.2837
12132SOL    HW239989   0.786   7.701   4.033  0.8183 -3.4387  1.1650
12133SOL     OW39990   4.806   8.394   1.025  0.2895  0.1200 -0.8596
12133SOL    HW139991   4.893   8.406   0.988  0.0487 -0.7592 -1.7545
12133SOL    HW239992   4.822   8.369   1.116  0.9482  0.4326 -0.8809
12134SOL     OW39993   2.375   1.123   7.998 -0.3180  0.0672  0.5968
12134SOL    HW139994   2.312   1.053   7.980 -0.3374 -0.3151  2.0984
12134SOL    HW239995   2.360   1.186   7.927 -0.7156 -1.1354 -0.4382
12135SOL     OW39996   4.296   1.930   9.513  0.0436 -0.2971 -0.0300
12135SOL    HW139997   4.247   2.013   9.505  1.5936  0.6360 -0.2242
12135SOL    HW239998   4.250   1.882   9.581 -0.3717  1.1191  0.7392
12136SOL     OW39999  10.715   1.077   1.614 -0.1757  0.6904 -0.3933
12136SOL    HW140000  10.685   0.993   1.649  0.0282 -0.0920 -2.0289
12136SOL    HW240001  10.757   1.120   1.688  0.9991 -1.2572  0.1365
12137SOL     OW40002   5.339   8.525   1.684 -0.1371  0.2258 -0.2710
12137SOL    HW140003   5.410   8.511   1.620  0.3960 -1.3952  0.6150
12137SOL    HW240004   5.378   8.502   1.768 -0.2026  4.1736  1.0654
12138SOL     OW40005   9.499   7.148   3.735  0.1138 -0.1809 -0.3757
12138SOL    HW140006   9.552   7.071   3.753 -1.0583 -0.8314  0.4332
12138SOL    HW240007   9.556   7.206   3.685  0.6736 -1.9956 -1.9192
12139SOL     OW40008   8.137  10.388   3.755 -0.1804 -0.5343  0.5818
12139SOL    HW140009   8.183  10.323   3.702 -0.0692 -0.2512  0.3275
12139SOL    HW240010   8.205  10.429   3.808 -0.1679 -0.2761  0.3726
12140SOL     OW40011  10.518   4.987   6.769  0.2081  0.4238  0.5744
12140SOL    HW140012  10.521   5.063   6.710 -0.0769 -0.1382 -0.1933
12140SOL    HW240013  10.599   4.992   6.820  0.5552  0.8359 -0.0033
12141SOL     OW40014   4.919   7.055   7.023  0.3969 -0.2083 -0.5447
12141SOL    HW140015   4.899   7.025   6.935  1.5394  0.3061 -1.0080
12141SOL    HW240016   4.845   7.026   7.076 -1.9220  2.1580 -2.2129
12142SOL     OW40017   6.437   9.477   5.322  0.0199 -0.3610  0.2287
12142SOL    HW140018   6.410   9.508   5.236  0.6030 -0.6715 -0.0710
12142SOL    HW240019   6.420   9.550   5.381  1.8825  0.7665 -0.5406
12143SOL     OW40020   9.332  10.305   6.013 -0.3904 -1.0303 -0.5498
12143SOL    HW140021   9.368  10.268   5.932  0.4171 -0.1532 -0.6090
12143SOL    HW240022   9.389  10.380   6.032 -1.3689 -0.4367  0.1118
12144SOL     OW40023   3.906   1.012   7.354 -0.4561 -0.4648  0.2644
12144SOL    HW140024   3.896   0.932   7.404 -0.1440 -0.6654  0.0054
12144SOL    HW240025   3.954   0.986   7.275 -1.3122 -0.2384 -0.3496
12145SOL     OW40026   8.552   4.194   1.813  0.0194 -0.0223 -0.2366
12145SOL    HW140027   8.493   4.205   1.888 -0.7849  0.8742 -0.9855
12145SOL    HW240028   8.539   4.103   1.785 -0.9097  0.1292 -0.3166
12146SOL     OW40029  10.578   8.804   0.264  0.6889 -0.0336  0.5318
12146SOL    HW140030  10.603   8.780   0.353  0.9984 -1.4807  0.0717
12146SOL    HW240031  10.662   8.822   0.221  0.5952 -0.1151  0.3178
12147SOL     OW40032  10.537   7.830   5.574  0.3047  0.0279 -0.5308
12147SOL    HW140033  10.536   7.738   5.602  2.5590  0.7898  2.6218
12147SOL    HW240034  10.482   7.875   5.638  1.9938  1.3045  0.0772
12148SOL     OW40035   8.595   9.775   2.562  0.1078 -0.1223  0.1400
12148SOL    HW140036   8.689   9.793   2.566 -0.2859  2.3552 -0.2901
12148SOL    HW240037   8.553   9.852   2.600 -1.8020 -0.4316 -1.1412
12149SOL     OW40038   5.532   3.868   5.564 -0.4355  0.4138  0.8812
12149SOL    HW140039   5.470   3.899   5.498 -0.4622 -0.6873  0.3678
12149SOL    HW240040   5.611   3.847   5.515  0.2727  1.5638  1.5033
12150SOL     OW40041   9.553   8.945   3.445  0.0787 -0.4514 -0.0177
12150SOL    HW140042   9.499   8.867   3.439 -1.5260  0.7219 -2.9976
12150SOL    HW240043   9.604   8.945   3.364  0.9176  1.0026  0.4638
12151SOL     OW40044   3.243   5.497   6.079  0.5554 -0.3871 -0.3621
12151SOL    HW140045   3.238   5.419   6.133 -0.5701 -0.1741 -0.1345
12151SOL    HW240046   3.181   5.481   6.008 -0.1725  0.5668  0.0441
12152SOL     OW40047   2.281   9.093   8.761  0.0815 -0.1703 -0.3582
12152SOL    HW140048   2.259   9.078   8.669 -0.0989 -0.3780 -0.2816
12152SOL    HW240049   2.374   9.113   8.761 -0.0514  0.4697 -0.6631
12153SOL     OW40050   3.361   1.734   4.128 -0.2712 -0.0941 -0.0921
12153SOL    HW140051   3.409   1.697   4.202 -0.2193  1.2215  0.5447
12153SOL    HW240052   3.319   1.658   4.087  2.4655 -1.3512 -0.8070
12154SOL     OW40053   5.570   5.355   9.321 -0.5570  0.1438 -0.2209
12154SOL    HW140054   5.626   5.352   9.399  0.0602  1.2554 -0.6032
12154SOL    HW240055   5.485   5.383   9.354 -0.8050 -1.1437  0.3004
12155SOL     OW40056   7.622  10.674  10.919 -0.8931 -0.4902  0.4351
12155SOL    HW140057   7.630  10.760  10.958  0.2057 -0.0655 -0.6737
12155SOL    HW240058   7.694  10.623  10.956 -2.0181 -1.2193  1.7178
12156SOL     OW40059   5.349   8.410   6.279 -0.3336  0.5670  0.2385
12156SOL    HW140060   5.415   8.478   6.292 -0.8478  1.1166  0.0369
12156SOL    HW240061   5.325   8.383   6.368 -1.6283  2.1433  0.4117
12157SOL     OW40062   6.058   1.379   6.788  0.3704 -0.3184 -0.2000
12157SOL    HW140063   6.033   1.400   6.878  0.1828 -0.0480 -0.3129
12157SOL    HW240064   6.152   1.391   6.786  0.2332  0.8266 -0.3362
12158SOL     OW40065   0.599   0.249   0.590  0.4995 -0.0770 -0.6221
12158SOL    HW140066   0.621   0.196   0.514 -0.7401 -0.6556 -0.5975
12158SOL    HW240067   0.595   0.339   0.557  1.1892 -0.1624 -0.9630
12159SOL     OW40068   8.601   5.924   9.647 -0.0527  0.0466  0.0749
12159SOL    HW140069   8.592   5.847   9.591  1.3364  0.6925 -1.0881
12159SOL    HW240070   8.550   5.903   9.725 -0.7638 -1.5107 -0.7684
12160SOL     OW40071   9.049   6.944   1.108  0.0998  0.0745 -0.2849
12160SOL    HW140072   9.119   7.002   1.138  0.4780 -1.0297  1.1116
12160SOL    HW240073   8.991   6.936   1.184 -0.3392 -0.7741 -0.6966
12161SOL     OW40074   6.298   3.047   5.116  0.4987  0.0006 -0.4204
12161SOL    HW140075   6.310   3.047   5.211 -0.2940 -3.2682 -0.1956
12161SOL    HW240076   6.386   3.041   5.080  0.9216  2.7002 -0.0532
12162SOL     OW40077   9.700   2.845   3.556  0.2253  0.2259 -0.1152
12162SOL    HW140078   9.773   2.893   3.517 -0.2860 -0.2227 -1.6873
12162SOL    HW240079   9.660   2.798   3.483  0.8207 -2.7878  1.3456
12163SOL     OW40080   5.250   7.484  10.701  0.0247  0.3364 -0.5370
12163SOL    HW140081   5.162   7.516  10.723  0.0289 -0.1902  0.2925
12163SOL    HW240082   5.307   7.527  10.765  0.1216 -0.7471  0.1210
12164SOL     OW40083   7.923   7.485   2.257 -0.0466 -0.1851  0.1314
12164SOL    HW140084   7.878   7.515   2.178 -0.7270 -0.9207  0.2241
12164SOL    HW240085   7.865   7.418   2.293  0.8342 -0.7119  0.5980
12165SOL     OW40086   0.008  10.769   1.322 -0.1310  0.2129 -0.1423
12165SOL    HW140087   0.081  10.799   1.268  0.5582 -0.0636  0.6084
12165SOL    HW240088  -0.060  10.835   1.310  0.3300  0.5923 -0.6812
12166SOL     OW40089   7.439  10.931   6.229 -0.6410  0.1356  0.0707
12166SOL    HW140090   7.501  10.859   6.244 -0.8405  0.1079  0.8439
12166SOL    HW240091   7.367  10.913   6.290 -2.0693 -0.5772 -1.7343
12167SOL     OW40092   0.777   0.198   2.614  0.2125 -0.1542 -0.1786
12167SOL    HW140093   0.690   0.206   2.653  0.8657  0.2270  1.2941
12167SOL    HW240094   0.783   0.107   2.587 -0.5756 -0.2286 -0.1289
12168SOL     OW40095   5.589   6.535   4.525  0.1189 -0.1849  0.2093
12168SOL    HW140096   5.562   6.623   4.551  0.3865  0.0531 -0.3086
12168SOL    HW240097   5.681   6.545   4.498  0.5647 -0.8637  1.3913
12169SOL     OW40098   9.536   3.608   2.438 -1.0850  0.3302  0.1718
12169SOL    HW140099   9.620   3.616   2.484  0.4538 -0.9998 -2.2082
12169SOL    HW240100   9.509   3.518   2.456 -1.3633  0.3578 -0.1139
12170SOL     OW40101   9.660   9.407   6.756  1.0577  0.3203  0.4001
12170SOL    HW140102   9.645   9.500   6.772 -2.5460 -0.3281  1.8234
12170SOL    HW240103   9.738   9.386   6.807  0.5703  2.1154  1.9993
12171SOL     OW40104   1.197  10.170   4.786 -0.2618 -0.2224 -0.4072
12171SOL    HW140105   1.281  10.123   4.790 -0.4604 -0.5583 -0.1351
12171SOL    HW240106   1.160  10.160   4.874 -0.4193  0.2370 -0.4198
12172SOL     OW40107   9.405   0.527   5.458 -0.1662 -0.0672  0.5220
12172SOL    HW140108   9.385   0.539   5.551  0.4949  1.4079  0.5046
12172SOL    HW240109   9.495   0.493   5.457  0.2555  1.0009  0.4226
12173SOL     OW40110   4.456  10.370   7.208  0.8371  0.2016  1.0737
12173SOL    HW140111   4.504  10.379   7.291 -0.2788  1.0438  1.6516
12173SOL    HW240112   4.470  10.279   7.183  0.6753 -0.2598  2.5364
12174SOL     OW40113   4.644   4.390   5.550 -0.3605  0.0908  0.1448
12174SOL    HW140114   4.714   4.371   5.612 -1.3248  2.2767  2.0813
12174SOL    HW240115   4.688   4.401   5.466  1.1236 -2.0183  0.5790
12175SOL     OW40116   7.145  10.381   0.857 -0.4102  0.0900  0.0705
12175SOL    HW140117   7.080  10.334   0.805 -1.1549  2.1246 -0.9457
12175SOL    HW240118   7.093  10.425   0.925  0.0335  0.7893 -0.0359
12176SOL     OW40119   7.063   2.845   8.770  0.0859  0.3691  0.0255
12176SOL    HW140120   6.985   2.819   8.821 -1.0363  1.0214 -1.2963
12176SOL    HW240121   7.029   2.904   8.704  1.5229 -0.3797 -1.4387
12177SOL     OW40122   7.282   2.142   7.911  0.1002 -0.0337 -0.0319
12177SOL    HW140123   7.299   2.086   7.836 -1.4520 -1.7227  0.7817
12177SOL    HW240124   7.198   2.184   7.891  0.9382  1.5445 -0.3503
12178SOL     OW40125   9.125   2.858   5.332  0.6887 -0.2243 -0.6514
12178SOL    HW140126   9.036   2.887   5.354  0.2501 -1.2919 -0.9334
12178SOL    HW240127   9.182   2.919   5.377 -0.1833  1.1035 -1.2582
12179SOL     OW40128  10.273   2.342  10.212 -0.1399  0.4316  0.6260
12179SOL    HW140129  10.253   2.432  10.236  1.0501  0.9628 -0.2492
12179SOL    HW240130  10.308   2.348  10.123  2.2840 -0.5403  1.4191
12180SOL     OW40131   2.981   3.157   2.711 -0.7685 -0.1081  0.3891
12180SOL    HW140132   2.898   3.180   2.753 -0.3933 -0.8118  1.5564
12180SOL    HW240133   2.986   3.062   2.718  0.8905  0.0357  1.8506
12181SOL     OW40134   0.841   2.355   0.628  0.2870 -0.3943 -0.5464
12181SOL    HW140135   0.775   2.287   0.610 -1.7096  1.1382  0.6058
12181SOL    HW240136   0.901   2.314   0.690  1.5146 -2.3895 -2.8603
12182SOL     OW40137   5.395   7.353   9.088  0.2409 -0.0869  0.2185
12182SOL    HW140138   5.426   7.294   9.157 -0.8258  0.2187  0.9921
12182SOL    HW240139   5.433   7.438   9.110  2.9113 -0.6790 -1.6612
12183SOL     OW40140  11.052   6.550   9.321 -0.5488 -0.0385  0.5650
12183SOL    HW140141  11.068   6.494   9.245 -0.4635 -0.3646  0.8197
12183SOL    HW240142  11.139   6.581   9.348 -0.5760  0.0543  0.5460
12184SOL     OW40143   1.804   7.042   7.937  0.6788 -0.4811  0.0533
12184SOL    HW140144   1.882   7.091   7.965 -0.7779  1.1311  1.4863
12184SOL    HW240145   1.781   7.080   7.853  1.3355 -0.8635 -0.3084
12185SOL     OW40146   3.992  10.104   2.965 -0.1030 -0.2494 -0.2472
12185SOL    HW140147   4.065  10.157   2.932 -1.1782  0.4826 -1.5359
12185SOL    HW240148   4.025  10.014   2.963  1.0587  0.1519  0.0220
12186SOL     OW40149   5.208   2.828   0.860  0.0655  0.4943 -0.0720
12186SOL    HW140150   5.225   2.890   0.789  0.2204  0.1575 -0.3295
12186SOL    HW240151   5.278   2.844   0.923 -0.5712  1.4098  0.4313
12187SOL     OW40152   3.963   7.532  10.811 -0.6423 -0.1029 -0.0466
12187SOL    HW140153   4.023   7.598  10.775 -1.6043  0.5025 -0.5993
12187SOL    HW240154   3.967   7.460  10.748 -0.6411  0.0236 -0.1935
12188SOL     OW40155   0.623   8.786  10.617 -0.2741 -0.3351  0.2005
12188SOL    HW140156   0.528   8.779  10.605 -0.4302  0.9241  0.5706
12188SOL    HW240157   0.653   8.839  10.543  0.1494 -0.7464  0.0741
12189SOL     OW40158   8.254   5.794   5.815 -0.2412 -0.2074  0.0153
12189SOL    HW140159   8.238   5.832   5.729 -0.4268  1.7999  0.8719
12189SOL    HW240160   8.273   5.702   5.798 -1.2872 -0.0909 -2.0659
12190SOL     OW40161  10.046   9.699   2.571  0.8296  0.4457  0.5325
12190SOL    HW140162   9.954   9.701   2.544  0.9083  2.9372  0.1576
12190SOL    HW240163  10.043   9.712   2.666  0.7677  2.1601  0.3372
12191SOL     OW40164   0.276   2.096   2.043 -0.1540  0.3955 -0.4878
12191SOL    HW140165   0.293   2.056   2.128  1.9966 -0.6547 -1.3176
12191SOL    HW240166   0.197   2.052   2.011  0.0648 -0.5350  0.2108
12192SOL     OW40167   0.462   9.295   1.263 -0.1069  0.5637  0.3229
12192SOL    HW140168   0.513   9.218   1.239 -1.0470  0.3838 -1.2021
12192SOL    HW240169   0.515   9.339   1.329  1.8430  0.1998 -0.9384
12193SOL     OW40170   8.178   1.776   6.542  0.0354  0.1615  0.1197
12193SOL    HW140171   8.181   1.744   6.451 -2.0743  1.0506 -0.2970
12193SOL    HW240172   8.259   1.743   6.581  0.4491 -1.1993 -1.7649
12194SOL     OW40173   8.827   7.251   9.845 -0.0166  0.2062 -0.1908
12194SOL    HW140174   8.771   7.176   9.828 -0.2507 -0.1880  2.1117
12194SOL    HW240175   8.900   7.216   9.895  0.5744  1.2973 -0.2633
12195SOL     OW40176   7.663   9.363   5.493  0.2111  0.4862  0.3608
12195SOL    HW140177   7.748   9.326   5.473  1.1794  2.3030  0.8577
12195SOL    HW240178   7.665   9.381   5.587 -1.0710 -0.2299  0.5584
12196SOL     OW40179  10.907   8.478   5.639 -0.4113  0.1321 -0.5803
12196SOL    HW140180  10.919   8.383   5.645  0.9057  0.1955 -1.7482
12196SOL    HW240181  10.930   8.510   5.725  0.4199 -0.5058 -0.5497
12197SOL     OW40182  10.666   5.956   0.807 -0.0567  0.2754 -0.4014
12197SOL    HW140183  10.683   5.873   0.764 -2.8786 -0.8016  0.3303
12197SOL    HW240184  10.753   5.990   0.830  1.1802 -2.3808 -0.8156
12198SOL     OW40185  11.109   2.312   3.463 -0.5835 -0.1325  0.0020
12198SOL    HW140186  11.033   2.368   3.480 -0.6931 -0.4773  0.6967
12198SOL    HW240187  11.178   2.349   3.519 -0.1349  0.3658 -0.8495
12199SOL     OW40188   8.221   9.191   2.187 -0.2523 -0.0086  0.1199
12199SOL    HW140189   8.253   9.101   2.177  1.0847  0.0976  2.8085
12199SOL    HW240190   8.179   9.210   2.103  0.3803 -2.7443 -0.9260
12200SOL     OW40191   9.187   4.819   0.277 -0.0229 -0.6553  0.1658
12200SOL    HW140192   9.261   4.846   0.332 -0.1062 -0.6343  0.2669
12200SOL    HW240193   9.127   4.777   0.338 -1.2080  1.4343  0.5347
12201SOL     OW40194   5.780   5.074   5.879  0.1574 -0.4043  0.9109
12201SOL    HW140195   5.809   4.996   5.832 -0.6189 -0.0065 -0.2516
12201SOL    HW240196   5.838   5.144   5.849 -0.8833  0.0337 -0.1444
12202SOL     OW40197   2.565   4.664   9.919 -0.5006  0.7896 -0.2071
12202SOL    HW140198   2.504   4.694   9.986 -1.3958 -0.9312 -0.2048
12202SOL    HW240199   2.578   4.740   9.862  1.8366  2.9724  2.9036
12203SOL     OW40200   0.425   3.714   6.881  0.1464  0.3234  0.4384
12203SOL    HW140201   0.416   3.741   6.973  0.7722  0.7574  0.3827
12203SOL    HW240202   0.452   3.794   6.835  1.3224 -0.2110  0.1450
12204SOL     OW40203   8.177   1.752   3.832 -0.1161  0.0263  0.1371
12204SOL    HW140204   8.085   1.729   3.839 -0.0158 -0.4894 -0.1420
12204SOL    HW240205   8.223   1.688   3.886  0.0120  0.8192  0.9784
12205SOL     OW40206  10.200   8.244   1.177 -0.3719  0.3013 -0.2053
12205SOL    HW140207  10.207   8.151   1.153  0.2764  0.0835  0.7945
12205SOL    HW240208  10.283   8.265   1.218 -0.0120  1.6833 -1.5384
12206SOL     OW40209   7.244   3.571   0.974 -0.2703 -0.1136  0.1110
12206SOL    HW140210   7.287   3.498   1.019 -1.9659 -1.1443  0.1480
12206SOL    HW240211   7.228   3.538   0.885 -1.3539  0.0581  0.2290
12207SOL     OW40212   4.593   4.249   3.356 -0.2101  0.0791 -0.0264
12207SOL    HW140213   4.524   4.257   3.421  0.1172  0.4485  0.2764
12207SOL    HW240214   4.666   4.300   3.391  0.3360 -0.5802 -0.1812
12208SOL     OW40215   0.712  10.643   5.010  0.3645 -1.2203  0.5503
12208SOL    HW140216   0.740  10.735   5.008  0.7181 -1.3260 -1.2071
12208SOL    HW240217   0.662  10.634   5.091  0.6978  0.4115  0.9614
12209SOL     OW40218   8.061   6.533   6.928  0.0753 -0.1968 -0.0347
12209SOL    HW140219   8.003   6.476   6.979  0.1695  0.4984  0.8872
12209SOL    HW240220   8.018   6.618   6.929 -0.8143 -0.5522 -2.6859
12210SOL     OW40221   4.284   8.814   2.901  0.1357  0.7574 -0.7236
12210SOL    HW140222   4.318   8.903   2.904  0.0645  0.8189 -1.5507
12210SOL    HW240223   4.204   8.816   2.953  1.9404  0.3440  2.2603
12211SOL     OW40224   8.415   2.571   0.174  0.4169 -0.3837 -0.4290
12211SOL    HW140225   8.335   2.537   0.215  0.5159  0.6103  0.6362
12211SOL    HW240226   8.401   2.665   0.169  1.0854 -0.3245 -1.2324
12212SOL     OW40227   2.004   4.079   9.340 -0.3346 -0.9324 -0.7428
12212SOL    HW140228   1.909   4.083   9.345 -0.2440 -0.2345  2.7671
12212SOL    HW240229   2.026   3.989   9.361 -0.2239 -0.4171  1.6199
12213SOL     OW40230   4.945   0.265   6.326 -1.1373 -0.4731  0.2233
12213SOL    HW140231   4.990   0.332   6.274 -1.3438  0.6084  1.3772
12213SOL    HW240232   5.015   0.207   6.355 -1.2048 -2.2454 -2.7318
12214SOL     OW40233   8.521   5.901   0.145  0.4708  0.2270 -0.4122
12214SOL    HW140234   8.538   5.995   0.151 -0.6654  0.3952  0.4186
12214SOL    HW240235   8.574   5.872   0.071  0.3783  1.6267 -1.0606
12215SOL     OW40236  10.913   0.957   9.252 -0.5394  0.0380 -0.3390
12215SOL    HW140237  10.881   1.047   9.245 -1.6662 -0.1528  1.4494
12215SOL    HW240238  10.837   0.903   9.227  0.0279 -0.4282 -1.0926
12216SOL     OW40239   9.443   3.054   5.983  0.4935 -0.0359 -0.7571
12216SOL    HW140240   9.368   3.088   5.934 -0.0593 -0.9361 -0.5675
12216SOL    HW240241   9.451   2.963   5.953  2.3350  0.4016 -1.7383
12217SOL     OW40242   1.337   8.615   3.240  0.1802  0.7310 -0.0002
12217SOL    HW140243   1.254   8.663   3.234 -0.4620 -0.4987 -2.5148
12217SOL    HW240244   1.350   8.601   3.333 -2.0178  1.6958  0.5252
12218SOL     OW40245   7.599   8.441   1.481 -0.3696  0.2860 -0.2412
12218SOL    HW140246   7.661   8.514   1.478 -1.0079  0.8045 -1.4212
12218SOL    HW240247   7.519   8.476   1.441 -1.3283 -0.4773  0.9159
12219SOL     OW40248   2.920   4.555   7.535  0.0975  0.1863  0.0408
12219SOL    HW140249   2.917   4.574   7.629 -2.8806 -0.2122  0.1225
12219SOL    HW240250   2.933   4.461   7.530 -0.1334  0.1520  0.0741
12220SOL     OW40251   1.075  10.210   0.816  0.1871 -0.0251 -0.3044
12220SOL    HW140252   1.044  10.237   0.903 -0.4696 -1.5404 -0.0249
12220SOL    HW240253   0.995  10.194   0.766  0.5504 -0.2845 -0.8141
12221SOL     OW40254   3.238  10.144   9.015  0.3254  0.1672  0.2682
12221SOL    HW140255   3.218  10.214   9.077 -1.5416  0.1857 -0.2962
12221SOL    HW240256   3.283  10.189   8.943 -0.1125  0.6546  0.2907
12222SOL     OW40257   6.043   0.467   9.056 -0.0334  0.1895 -0.2716
12222SOL    HW140258   6.130   0.506   9.050  0.0601 -0.0859 -0.7750
12222SOL    HW240259   5.986   0.525   9.004 -0.1520  0.3702  0.0587
12223SOL     OW40260   9.122   1.525   3.083 -0.4035  0.1677  0.0396
12223SOL    HW140261   9.148   1.617   3.083  1.0563 -0.1855 -1.6874
12223SOL    HW240262   9.202   1.478   3.107 -0.2558 -0.7712 -2.0634
12224SOL     OW40263   3.783   8.338   5.699  0.4113  0.0726 -0.2967
12224SOL    HW140264   3.733   8.414   5.672 -0.9944 -0.8322 -0.3416
12224SOL    HW240265   3.760   8.270   5.635 -0.3661 -1.1195  1.1727
12225SOL     OW40266   1.312   5.501   0.555  0.8594 -0.5370 -0.4331
12225SOL    HW140267   1.313   5.463   0.468 -1.3905 -1.0132 -0.3192
12225SOL    HW240268   1.386   5.561   0.557  0.6435 -0.1306 -2.8364
12226SOL     OW40269   5.771   1.941  10.609  0.0488 -0.5090 -0.0846
12226SOL    HW140270   5.846   1.886  10.588  0.2875 -0.1930 -0.0594
12226SOL    HW240271   5.771   2.009  10.543  1.9101  1.5922  1.9031
12227SOL     OW40272   3.327   1.853   6.500  0.1742  0.2818  0.3375
12227SOL    HW140273   3.409   1.861   6.549  0.8594 -3.0651 -0.0245
12227SOL    HW240274   3.267   1.910   6.547  2.2172  1.4097  1.7673
12228SOL     OW40275   4.271   4.222   0.846  0.6315  0.0004  0.6811
12228SOL    HW140276   4.312   4.278   0.780 -0.5575  0.1102  0.0072
12228SOL    HW240277   4.225   4.155   0.795  0.7496 -0.6681  1.4376
12229SOL     OW40278   7.459   7.630  10.074  0.1150 -0.0257 -0.0818
12229SOL    HW140279   7.446   7.573   9.998  1.4638 -0.0668 -0.3002
12229SOL    HW240280   7.503   7.574  10.138  0.0168  0.3305  0.2995
12230SOL     OW40281  10.109   7.329   3.958 -0.2229  0.0378  0.1075
12230SOL    HW140282  10.175   7.375   3.906  0.3404 -1.5114 -0.6352
12230SOL    HW240283  10.069   7.267   3.896 -1.3555 -0.0636  0.9053
12231SOL     OW40284   3.169   1.611   7.594  0.4737 -0.8341  0.2674
12231SOL    HW140285   3.194   1.667   7.521 -1.8192  2.2339  1.6497
12231SOL    HW240286   3.124   1.537   7.552  0.4584  0.0949 -1.4723
12232SOL     OW40287   4.209   9.305   8.928  0.0287 -0.2497  0.1798
12232SOL    HW140288   4.155   9.278   8.853  0.6267 -1.0458  0.0276
12232SOL    HW240289   4.145   9.321   8.998 -0.5256  0.3619 -0.4539
12233SOL     OW40290   1.208   4.732   8.974 -0.0755 -0.0263  0.2245
12233SOL    HW140291   1.115   4.709   8.977 -0.3077  0.9819  1.8680
12233SOL    HW240292   1.210   4.827   8.985  1.0994  0.1507 -1.2604
12234SOL     OW40293   4.111   0.714   4.898  0.6436 -0.3132  0.1497
12234SOL    HW140294   4.044   0.645   4.903  2.2777 -2.0057 -0.0913
12234SOL    HW240295   4.088   0.775   4.969  1.0370 -2.9330  2.7270
12235SOL     OW40296   2.166   4.918  10.090 -0.5130  0.0125 -0.0192
12235SOL    HW140297   2.219   4.993  10.064  0.2928 -0.7055 -0.5086
12235SOL    HW240298   2.109   4.902  10.015  2.3993 -2.5941 -1.9515
12236SOL     OW40299   6.942   9.767  10.364 -0.5776 -0.0914 -0.3974
12236SOL    HW140300   7.031   9.735  10.377 -0.3301  1.2290  1.6003
12236SOL    HW240301   6.944   9.857  10.396 -2.2499  0.5605 -1.9237
12237SOL     OW40302   4.538   9.774   3.411 -0.0096 -0.1641  1.0101
12237SOL    HW140303   4.505   9.789   3.500  0.0956  0.5927  0.9330
12237SOL    HW240304   4.586   9.854   3.390 -0.3384 -0.1887  0.1406
12238SOL     OW40305   6.459  10.727   9.281 -0.2366 -0.3893  0.5519
12238SOL    HW140306   6.500  10.645   9.309  0.5462  1.0030  3.9546
12238SOL    HW240307   6.370  10.723   9.317 -0.1714  0.2899  0.7982
12239SOL     OW40308   9.618   4.548   5.801  0.5793 -0.1771  0.6066
12239SOL    HW140309   9.712   4.528   5.805  0.5178 -0.3188  1.5096
12239SOL    HW240310   9.585   4.528   5.888 -0.5504 -1.4057 -0.0603
12240SOL     OW40311   0.836   7.817   0.858 -0.2502  0.0696  0.4180
12240SOL    HW140312   0.878   7.824   0.772 -1.9746  0.3391 -0.4504
12240SOL    HW240313   0.742   7.824   0.840 -0.7201 -0.8201  2.2330
12241SOL     OW40314   1.411  10.399   6.072 -0.1676  0.8229  0.1630
12241SOL    HW140315   1.415  10.495   6.077 -1.3613  1.0952 -2.2022
12241SOL    HW240316   1.468  10.377   5.998 -2.7179  0.1462 -1.7273
12242SOL     OW40317   8.516   4.542   1.269  0.0426  0.0682 -0.1001
12242SOL    HW140318   8.559   4.482   1.331 -0.1394 -1.0868 -1.0465
12242SOL    HW240319   8.444   4.490   1.232  0.3990  0.5648 -1.5733
12243SOL     OW40320   5.126   9.249   3.565 -0.7530  0.0726 -0.1714
12243SOL    HW140321   5.034   9.250   3.539 -0.9663 -1.6886  0.3778
12243SOL    HW240322   5.151   9.157   3.560  1.0240  0.5368 -0.4039
12244SOL     OW40323   3.555   1.737   9.611  0.0573 -0.2261  0.5192
12244SOL    HW140324   3.601   1.783   9.681 -0.4738  1.3534 -0.1301
12244SOL    HW240325   3.490   1.799   9.579 -1.9735 -2.0833  0.8161
12245SOL     OW40326   0.670   9.248   7.535 -0.3116  0.0107  0.0849
12245SOL    HW140327   0.604   9.217   7.473 -1.0546  0.8624  0.4256
12245SOL    HW240328   0.644   9.338   7.556  0.7266  0.2305  0.5492
12246SOL     OW40329   5.493   3.368   0.015  0.4510 -0.2357 -0.1977
12246SOL    HW140330   5.419   3.325   0.057  1.5837 -1.5622  0.5210
12246SOL    HW240331   5.528   3.427   0.081 -1.1262  1.9657 -1.1952
12247SOL     OW40332   5.554   9.658   5.562  0.3399 -0.3267  0.2281
12247SOL    HW140333   5.510   9.643   5.646 -0.4078  0.8362  0.0714
12247SOL    HW240334   5.539   9.751   5.544 -0.8910 -0.8761 -1.9675
12248SOL     OW40335   7.719   3.629   9.671 -0.1177 -0.2625 -0.3599
12248SOL    HW140336   7.682   3.575   9.602  0.7506 -0.8510 -0.3848
12248SOL    HW240337   7.647   3.643   9.733 -0.3727 -1.4234 -0.3698
12249SOL     OW40338   1.030   9.491   8.303  0.0263  0.4810  0.7335
12249SOL    HW140339   1.095   9.554   8.334  0.3383  0.1667  0.7227
12249SOL    HW240340   0.998   9.448   8.383  0.4624  0.0282  0.6715
12250SOL     OW40341   2.801   0.263   3.083  0.5032  0.4011 -0.0294
12250SOL    HW140342   2.714   0.256   3.121 -0.7277  1.4820 -2.4027
12250SOL    HW240343   2.844   0.331   3.135 -0.0204 -0.1748  1.1989
12251SOL     OW40344   5.101   1.099   4.846  0.6315 -0.4555 -0.6059
12251SOL    HW140345   5.046   1.129   4.918  1.9036 -0.2113  0.2902
12251SOL    HW240346   5.110   1.004   4.860 -1.0207 -0.8347 -1.8011
12252SOL     OW40347   9.911   2.424  11.009  0.6426  0.0965  0.6453
12252SOL    HW140348   9.990   2.468  10.977 -0.3885  0.2266 -1.9246
12252SOL    HW240349   9.906   2.343  10.958 -0.2026 -0.5425  1.7043
12253SOL     OW40350  10.317   2.955   8.468 -0.7688 -0.1829  0.2668
12253SOL    HW140351  10.274   2.997   8.542  0.5132  0.2219  0.7920
12253SOL    HW240352  10.406   2.988   8.469 -0.6794 -0.2867 -1.3738
12254SOL     OW40353   7.647   4.822   1.144  0.0737  0.5214 -0.6059
12254SOL    HW140354   7.659   4.764   1.220  0.3785 -0.3130 -1.2810
12254SOL    HW240355   7.572   4.785   1.098 -0.2300  1.1396 -0.6198
12255SOL     OW40356   4.482   7.175  10.815  0.6091 -0.1695 -0.0229
12255SOL    HW140357   4.532   7.153  10.894 -0.3352  2.5333  1.4632
12255SOL    HW240358   4.391   7.174  10.844  0.0765 -1.1058 -1.6415
12256SOL     OW40359   4.870   3.080   3.871 -0.0633  0.4603 -0.0178
12256SOL    HW140360   4.874   2.991   3.907  2.0511  0.4785 -0.0920
12256SOL    HW240361   4.854   3.136   3.947  0.7275  0.1805  0.3669
12257SOL     OW40362   0.019   7.090   0.961  0.1285  0.6172 -0.9567
12257SOL    HW140363   0.047   7.153   0.894  0.6475  1.9989  0.4971
12257SOL    HW240364  -0.076   7.088   0.955  0.2081 -0.1658 -2.4765
12258SOL     OW40365   1.707   2.516   0.583  0.2244  0.5664  0.4833
12258SOL    HW140366   1.686   2.425   0.560  1.4612 -0.4051  2.7579
12258SOL    HW240367   1.642   2.539   0.649 -1.1895  2.0612 -1.3192
12259SOL     OW40368   9.740   7.745   0.974 -0.0207  0.5512 -0.2109
12259SOL    HW140369   9.703   7.814   1.030  1.0501  1.0463 -0.0953
12259SOL    HW240370   9.717   7.663   1.019 -1.7002  0.7818 -0.5841
12260SOL     OW40371   6.495   8.063   2.292  0.1996  0.2343 -0.0098
12260SOL    HW140372   6.459   7.996   2.234 -1.6069  0.2992  0.9615
12260SOL    HW240373   6.576   8.091   2.250  0.0628 -1.2676 -1.3550
12261SOL     OW40374   3.729   6.674   3.365  0.0764  0.2771  0.4710
12261SOL    HW140375   3.665   6.656   3.296 -0.9486 -0.8496  1.6816
12261SOL    HW240376   3.813   6.674   3.319 -0.5283 -0.9443 -0.7089
12262SOL     OW40377   2.402   1.926   3.291 -0.0822 -0.1959  1.0043
12262SOL    HW140378   2.412   1.834   3.265 -1.0235 -0.5394  1.8011
12262SOL    HW240379   2.476   1.942   3.350  0.1111 -0.4211  0.8282
12263SOL     OW40380   2.150   3.126   0.430  0.0356 -0.1498  0.2353
12263SOL    HW140381   2.112   3.152   0.345 -2.7736  1.8894  1.9285
12263SOL    HW240382   2.181   3.209   0.468  1.1051 -1.0062  1.2824
12264SOL     OW40383   2.313   9.598   6.632  0.4488 -0.0443 -0.4552
12264SOL    HW140384   2.269   9.659   6.690  0.9007  0.2719 -0.4370
12264SOL    HW240385   2.243   9.546   6.593 -0.1327  1.8116 -2.0141
12265SOL     OW40386  10.825   5.054  10.979 -0.6382  0.2113  0.1476
12265SOL    HW140387  10.897   5.072  10.918 -0.0127 -0.8493  0.5409
12265SOL    HW240388  10.811   5.137  11.025 -0.0397  0.5871 -0.3327
12266SOL     OW40389  10.589   6.099   1.785  0.0157 -0.1831  0.3159
12266SOL    HW140390  10.648   6.134   1.718  0.5741  0.1733  0.9774
12266SOL    HW240391  10.618   6.141   1.866 -0.4212 -0.8756  0.8412
12267SOL     OW40392   6.602   2.390   0.010  0.1358  0.2637  0.2720
12267SOL    HW140393   6.682   2.435  -0.016 -0.1805 -0.7381 -2.9830
12267SOL    HW240394   6.533   2.457   0.002  0.1864  0.2204 -0.6377
12268SOL     OW40395   2.765   0.341   5.873 -0.0982  0.0409  0.0787
12268SOL    HW140396   2.804   0.303   5.951 -0.2743 -0.9306 -0.2979
12268SOL    HW240397   2.783   0.435   5.881  1.4274 -0.2442  0.4189
12269SOL     OW40398   3.657   6.323   4.725 -0.8766  0.1487 -0.3791
12269SOL    HW140399   3.704   6.352   4.646  0.4135 -1.8536 -0.4197
12269SOL    HW240400   3.672   6.392   4.789  1.7952 -0.1735 -0.5572
12270SOL     OW40401   9.603  10.153   1.927 -0.0724  0.5618 -0.6966
12270SOL    HW140402   9.649  10.200   1.857 -2.1501  1.3623 -1.6082
12270SOL    HW240403   9.543  10.218   1.963 -0.1262 -0.2897  0.8226
12271SOL     OW40404   6.606   8.727   2.606 -0.2015  0.0557 -0.3457
12271SOL    HW140405   6.638   8.811   2.573  0.2581 -0.5840 -1.6091
12271SOL    HW240406   6.574   8.681   2.528 -1.5590 -0.4763  0.4886
12272SOL     OW40407   2.555   5.198  10.507  0.0097  0.1446 -0.0305
12272SOL    HW140408   2.471   5.189  10.464 -0.0688 -0.4241  0.2374
12272SOL    HW240409   2.542   5.270  10.569  0.0241  0.7323 -0.6957
12273SOL     OW40410   9.700   1.688   5.477 -0.2174 -0.0483  0.2493
12273SOL    HW140411   9.777   1.637   5.451 -0.0875  0.1785  0.1829
12273SOL    HW240412   9.650   1.700   5.397 -0.8897 -1.1351  0.4912
12274SOL     OW40413   7.502   7.107   0.165 -0.5062 -0.3984  0.1925
12274SOL    HW140414   7.547   7.173   0.113 -0.5365 -0.8034 -0.3567
12274SOL    HW240415   7.416   7.145   0.183 -0.2408  0.0410  0.5653
12275SOL     OW40416   9.127   4.585  10.411  0.0324 -0.2822 -0.2627
12275SOL    HW140417   9.132   4.504  10.462  0.3565 -0.0982  0.0047
12275SOL    HW240418   9.211   4.628  10.426  0.6565 -0.8181 -1.9742
12276SOL     OW40419   2.876   8.096  10.736 -0.2078  0.4826 -0.3236
12276SOL    HW140420   2.956   8.102  10.684 -0.4904 -1.2011 -1.0146
12276SOL    HW240421   2.819   8.164  10.699  0.4745  0.9225 -0.5944
12277SOL     OW40422   8.099  10.717   5.472  0.1297 -0.3955 -0.8604
12277SOL    HW140423   8.148  10.636   5.459  1.8588  0.5446 -0.4354
12277SOL    HW240424   8.149  10.783   5.426 -0.4151  0.7201  0.0959
12278SOL     OW40425  10.250   5.892   9.249 -0.0279  0.0028  0.0381
12278SOL    HW140426  10.246   5.896   9.345  0.4025  0.8624  0.0283
12278SOL    HW240427  10.289   5.975   9.223 -3.6415  1.5552 -1.0772
12279SOL     OW40428  10.613   6.719   1.571 -0.4134  0.1925  0.0083
12279SOL    HW140429  10.523   6.752   1.562 -1.1355 -1.6736  0.0402
12279SOL    HW240430  10.665   6.797   1.592 -2.3943  1.0045  2.4127
12280SOL     OW40431  10.030   1.386   0.569 -0.1130  0.6913  0.1279
12280SOL    HW140432  10.009   1.378   0.476 -0.7854 -1.6585  0.4169
12280SOL    HW240433  10.091   1.459   0.574  3.2463 -1.5554 -2.7643
12281SOL     OW40434   6.379   0.020  11.020  0.2829  0.7928  0.1117
12281SOL    HW140435   6.438   0.096  11.023  1.1818  0.0911  1.7550
12281SOL    HW240436   6.292   0.056  11.037  0.0733  1.9147 -2.7846
12282SOL     OW40437   5.626   8.770   4.615 -0.2211  0.5077 -0.4663
12282SOL    HW140438   5.690   8.734   4.553 -1.4306 -0.8565 -0.9876
12282SOL    HW240439   5.678   8.795   4.691  0.9641 -0.4110 -0.9370
12283SOL     OW40440   9.598   4.230   4.987 -0.1740  0.0197  0.6285
12283SOL    HW140441   9.563   4.193   5.067  1.1785 -1.3686  0.6237
12283SOL    HW240442   9.562   4.176   4.917 -1.8245  1.5818  0.1790
12284SOL     OW40443   0.652   2.672   3.284 -0.1128  0.5154 -0.6542
12284SOL    HW140444   0.619   2.583   3.298 -1.6755  1.3524  1.6018
12284SOL    HW240445   0.730   2.678   3.339 -0.3029  0.7006 -0.4063
12285SOL     OW40446   7.837   2.169   7.025  0.4032 -0.4056 -0.3339
12285SOL    HW140447   7.834   2.153   6.931  0.3325 -0.0904 -0.3870
12285SOL    HW240448   7.751   2.142   7.057  0.0947  0.3449 -0.5027
12286SOL     OW40449   8.858   1.861   7.473 -0.0402  0.3706 -0.3899
12286SOL    HW140450   8.918   1.789   7.453  1.1647  1.1325  0.3434
12286SOL    HW240451   8.880   1.928   7.408  0.7013  1.0774  0.5643
12287SOL     OW40452   7.905   9.756   6.701 -0.3250 -0.6172  0.4013
12287SOL    HW140453   7.872   9.845   6.688  0.0513 -0.4993  0.2149
12287SOL    HW240454   7.953   9.760   6.784 -0.8419 -0.8053  0.7068
12288SOL     OW40455  11.024   3.729  10.721 -0.2342  0.3628 -0.1536
12288SOL    HW140456  11.003   3.662  10.786 -1.2020  0.5972 -0.2104
12288SOL    HW240457  10.951   3.727  10.660 -0.3929  1.6149 -0.0347
12289SOL     OW40458   5.997   9.386   2.047  0.2618  0.2186 -0.5832
12289SOL    HW140459   5.915   9.427   2.017 -0.7871 -0.4485  1.2158
12289SOL    HW240460   5.992   9.296   2.015 -0.7633 -0.4350  1.2476
12290SOL     OW40461   7.522   4.322   3.804  1.1073 -0.3585 -0.1237
12290SOL    HW140462   7.478   4.243   3.772 -2.7126  1.1002  0.9030
12290SOL    HW240463   7.539   4.374   3.725  2.1154 -1.4455 -0.6463
12291SOL     OW40464  10.834   8.822   1.897 -0.1092  0.2725 -0.2093
12291SOL    HW140465  10.840   8.812   1.993  0.5785 -0.5563 -0.3260
12291SOL    HW240466  10.914   8.868   1.873 -0.1196  0.1770 -0.4264
12292SOL     OW40467   8.406   4.186   2.687  0.6736 -0.3335  0.7743
12292SOL    HW140468   8.404   4.258   2.623 -1.5761 -0.5403  0.5039
12292SOL    HW240469   8.469   4.124   2.652  0.0939 -0.0587 -0.8340
12293SOL     OW40470   8.780   5.767  10.184 -0.3232  0.2441  0.6549
12293SOL    HW140471   8.838   5.694  10.206  1.2619  1.6464  1.3163
12293SOL    HW240472   8.724   5.733  10.115 -0.0978 -1.8089  1.4116
12294SOL     OW40473   8.317   9.593   7.223 -0.0423  0.4092  0.7110
12294SOL    HW140474   8.258   9.623   7.291 -0.8589  0.6795 -0.1027
12294SOL    HW240475   8.291   9.502   7.206 -1.4591  1.0796 -0.9131
12295SOL     OW40476   9.745   1.398   7.613 -0.1753 -0.1306 -0.0772
12295SOL    HW140477   9.699   1.315   7.623 -2.5074  1.1003 -0.0473
12295SOL    HW240478   9.729   1.423   7.522  1.3686 -0.1438 -0.3819
12296SOL     OW40479   7.282   0.539   3.001  0.6940  0.6432  0.3877
12296SOL    HW140480   7.345   0.504   3.065 -0.2651 -0.6647  0.6595
12296SOL    HW240481   7.244   0.616   3.045 -0.0195 -0.2906  1.4651
12297SOL     OW40482   7.575   3.637   8.860  0.2305  0.0042  0.6005
12297SOL    HW140483   7.667   3.618   8.844  0.7410  1.3819  1.7351
12297SOL    HW240484   7.568   3.648   8.955 -1.1211 -0.1215  0.5451
12298SOL     OW40485   8.516   1.121   8.805 -0.4783  0.8191 -0.2942
12298SOL    HW140486   8.423   1.128   8.828 -0.0623  3.1270  0.9978
12298SOL    HW240487   8.562   1.144   8.885  1.2090  0.7057 -1.1928
12299SOL     OW40488   0.706   8.833   8.986 -0.0367 -0.1740 -0.1820
12299SOL    HW140489   0.646   8.804   8.917 -0.3685 -0.9235  0.4145
12299SOL    HW240490   0.729   8.922   8.960 -3.7042  1.3354  1.0047
12300SOL     OW40491   7.501   9.620   1.359 -0.0191  0.3416  0.1542
12300SOL    HW140492   7.555   9.558   1.309 -2.3694 -1.1395 -0.7232
12300SOL    HW240493   7.491   9.580   1.445 -1.1107 -0.2926 -0.2476
12301SOL     OW40494   0.491   5.498   5.113  0.4523 -0.3969  0.5240
12301SOL    HW140495   0.530   5.557   5.178 -0.5473 -0.0965  0.8653
12301SOL    HW240496   0.536   5.414   5.127  2.6084  0.4707 -0.6228
12302SOL     OW40497   5.398   4.024  10.260  0.3465  0.6307  0.3491
12302SOL    HW140498   5.492   4.024  10.278  1.1779  0.8590 -3.2778
12302SOL    HW240499   5.364   4.100  10.307  1.8066  0.1823  2.2352
12303SOL     OW40500   2.819   1.908   0.120 -0.6863 -0.6221 -0.4574
12303SOL    HW140501   2.815   1.908   0.216  1.2186  1.1916 -0.3097
12303SOL    HW240502   2.859   1.824   0.098 -0.8729 -0.9336  0.3530
12304SOL     OW40503   6.344   5.378   6.754 -0.1839  0.1310  0.2713
12304SOL    HW140504   6.375   5.452   6.806 -1.2929  1.5067 -0.9294
12304SOL    HW240505   6.399   5.379   6.676 -0.8921  0.3616 -0.2330
12305SOL     OW40506   2.239   8.696   7.210 -0.0932  0.1187 -0.1833
12305SOL    HW140507   2.222   8.684   7.304  0.1756 -0.7261 -0.2354
12305SOL    HW240508   2.161   8.662   7.167 -0.1525  0.3689 -0.2754
12306SOL     OW40509  10.159   1.659   6.936 -0.6512  0.0029 -0.2555
12306SOL    HW140510  10.144   1.632   6.845 -1.5014  0.2062 -0.1859
12306SOL    HW240511  10.223   1.596   6.970 -2.4846 -1.8712 -0.1237
12307SOL     OW40512   0.963   2.930   1.090  0.2113  0.7782  0.2851
12307SOL    HW140513   0.959   2.862   1.023  0.8438  0.3719  0.6527
12307SOL    HW240514   1.050   2.968   1.080  0.1179  1.0592  0.5467
12308SOL     OW40515   6.598   6.554   1.266  0.3126 -0.4366 -1.0088
12308SOL    HW140516   6.632   6.475   1.308  2.0917  0.6854 -0.2059
12308SOL    HW240517   6.657   6.569   1.192  0.0736  0.2158 -1.0756
12309SOL     OW40518   4.542   1.708   0.161  0.0580 -0.5224 -0.2352
12309SOL    HW140519   4.586   1.628   0.187  1.5403 -0.5912 -2.6407
12309SOL    HW240520   4.547   1.765   0.238  2.8713 -1.1971  0.1804
12310SOL     OW40521   3.886   8.133   4.612 -0.1996  0.0149  0.3699
12310SOL    HW140522   3.812   8.131   4.673 -0.4033  1.8595  0.2179
12310SOL    HW240523   3.878   8.051   4.563 -2.5706  0.4536 -0.1238
12311SOL     OW40524   4.912   6.304   5.488 -0.2000 -0.5912 -0.3486
12311SOL    HW140525   4.959   6.249   5.426  0.5541  0.5431 -0.8311
12311SOL    HW240526   4.980   6.359   5.528 -1.1296  1.6626 -1.6440
12312SOL     OW40527  10.205   6.095   3.028  0.4904  0.1761 -0.2199
12312SOL    HW140528  10.202   6.167   3.091  0.6692  1.4011 -1.5628
12312SOL    HW240529  10.115   6.085   2.998  0.5523  0.1941 -0.4147
12313SOL     OW40530   4.056  10.902   5.490 -0.5024 -0.1551 -0.1074
12313SOL    HW140531   4.020  10.928   5.405 -1.0786  0.3541  0.2861
12313SOL    HW240532   3.987  10.851   5.532 -0.4501  0.0967  0.2965
12314SOL     OW40533   5.785   0.274   2.667 -0.1562  0.1184 -0.5071
12314SOL    HW140534   5.729   0.348   2.643 -1.1769 -0.7773 -0.9808
12314SOL    HW240535   5.791   0.280   2.763  1.7244  2.1422 -0.6828
12315SOL     OW40536   9.656   2.654  10.018  0.3473 -0.3358  0.0409
12315SOL    HW140537   9.714   2.730  10.025 -0.0111  0.0743 -1.1649
12315SOL    HW240538   9.568   2.690  10.022  0.1571 -0.4967 -1.8450
12316SOL     OW40539   9.542   2.604  10.298  0.2539 -0.0279  0.4260
12316SOL    HW140540   9.618   2.596  10.241 -0.3021 -0.1885 -0.3175
12316SOL    HW240541   9.476   2.648  10.244  0.0026  0.6086  1.2391
12317SOL     OW40542   1.738   4.196   7.117 -0.0289  0.2368  0.5032
12317SOL    HW140543   1.694   4.244   7.047 -0.7974 -1.4400 -0.2224
12317SOL    HW240544   1.767   4.264   7.178 -1.2910  1.5874 -0.3259
12318SOL     OW40545   7.598   1.301   5.954  0.1345 -0.0797 -0.4829
12318SOL    HW140546   7.529   1.252   5.907  0.6044  0.9431 -2.3257
12318SOL    HW240547   7.553   1.377   5.990  0.0709 -0.0350 -0.6558
12319SOL     OW40548   2.632   2.828   9.362 -0.3285  0.4931 -0.5635
12319SOL    HW140549   2.690   2.829   9.438  0.9868  0.6677 -1.5413
12319SOL    HW240550   2.628   2.736   9.337 -0.3274  0.5050 -0.6066
12320SOL     OW40551   9.325   9.940   2.773 -0.0511 -0.1777  0.2139
12320SOL    HW140552   9.344   9.917   2.863 -0.8682 -1.0039  0.1975
12320SOL    HW240553   9.366   9.871   2.721  1.4790  0.9589 -0.1399
12321SOL     OW40554   9.540   5.130   6.878  0.6892  0.2234 -0.3937
12321SOL    HW140555   9.605   5.065   6.903  0.7563  0.9820  1.5528
12321SOL    HW240556   9.574   5.213   6.911  0.4657  1.2505 -2.5468
12322SOL     OW40557   5.408   8.510   9.499  0.3054  0.1405 -0.1986
12322SOL    HW140558   5.501   8.513   9.522  0.1367 -0.3273  0.5448
12322SOL    HW240559   5.408   8.488   9.405  0.9102 -1.6915  0.1943
12323SOL     OW40560   9.491  10.227  11.029  0.5229 -0.5727  0.0663
12323SOL    HW140561   9.577  10.216  10.988  0.7203  0.8783  0.0376
12323SOL    HW240562   9.475  10.143  11.073  1.5006 -1.2136 -0.7413
12324SOL     OW40563   2.809   2.629  10.701  0.1338  0.4441  0.6123
12324SOL    HW140564   2.770   2.715  10.718  1.4356  1.0970  0.4814
12324SOL    HW240565   2.741   2.567  10.724 -1.0003  1.5209  0.2920
12325SOL     OW40566   4.777   6.571   1.557 -0.1708 -0.2138 -0.1258
12325SOL    HW140567   4.816   6.658   1.562 -1.6007  0.4299  0.3064
12325SOL    HW240568   4.837   6.515   1.605 -0.5556  1.0495  1.9564
12326SOL     OW40569   5.304   9.959   5.980 -0.2623  0.5032 -0.0061
12326SOL    HW140570   5.233   9.897   5.997  0.7485 -1.4805 -2.3862
12326SOL    HW240571   5.260  10.035   5.941 -1.1506 -0.9361 -2.0405
12327SOL     OW40572   6.659   9.901   9.663  0.5853  0.0239  0.5221
12327SOL    HW140573   6.685   9.809   9.673  3.4509  0.6634 -0.1860
12327SOL    HW240574   6.737   9.951   9.687 -0.9202  2.3118  0.9402
12328SOL     OW40575   2.763   7.652   1.982 -0.2018 -0.8765 -0.3211
12328SOL    HW140576   2.816   7.724   1.950  0.2017 -0.3765  1.3556
12328SOL    HW240577   2.684   7.694   2.016  0.2295 -1.1398  1.0732
12329SOL     OW40578   8.754  10.152   2.159  0.3664  0.2967 -0.5325
12329SOL    HW140579   8.846  10.146   2.186 -0.4981  1.8024  3.3884
12329SOL    HW240580   8.708  10.090   2.216 -1.0686 -1.4589 -3.3293
12330SOL     OW40581   5.150   3.245   2.610  0.0958 -0.2081  0.1260
12330SOL    HW140582   5.080   3.256   2.546  0.0140  0.7543  0.3639
12330SOL    HW240583   5.126   3.303   2.682  1.9170  1.3766 -0.4664
12331SOL     OW40584   2.873   7.062   9.906  0.6909  0.6910  0.3672
12331SOL    HW140585   2.837   7.139   9.861  1.2201  0.6494 -0.1524
12331SOL    HW240586   2.965   7.061   9.881  0.7007 -0.0952  0.3946
12332SOL     OW40587   1.693   9.352   1.833 -0.0927 -0.0184  0.7936
12332SOL    HW140588   1.715   9.444   1.849  1.1553 -0.4301  1.5785
12332SOL    HW240589   1.671   9.348   1.740  0.2855  0.9926  0.6520
12333SOL     OW40590   7.509  10.948   1.750  0.3345 -0.4787  0.4258
12333SOL    HW140591   7.598  10.915   1.743  0.5406  0.3696 -1.2464
12333SOL    HW240592   7.454  10.869   1.748  1.0091 -0.9694  0.9896
12334SOL     OW40593   8.790   1.772   3.235 -0.2473 -0.3549  0.6432
12334SOL    HW140594   8.810   1.809   3.149 -0.6380  0.4208  0.8761
12334SOL    HW240595   8.872   1.733   3.265 -0.6151 -2.6303 -1.0162
12335SOL     OW40596   1.070  10.152   4.549 -0.6479 -0.1343  0.8135
12335SOL    HW140597   1.124  10.146   4.628  1.9815 -3.1476 -0.9131
12335SOL    HW240598   0.987  10.112   4.573  0.5246 -2.0968  1.8412
12336SOL     OW40599  10.285   8.303   2.498 -0.5238  0.4030  0.1778
12336SOL    HW140600  10.217   8.236   2.498 -1.0173  0.8730 -0.9052
12336SOL    HW240601  10.238   8.385   2.482  0.1860  0.8775  0.4467
12337SOL     OW40602   9.552   9.984   4.187 -0.3096 -0.2132 -0.1948
12337SOL    HW140603   9.508   9.945   4.111 -0.7177  0.0160 -0.0814
12337SOL    HW240604   9.518  10.073   4.190  1.4740  0.5562 -1.1434
12338SOL     OW40605  10.820   6.270   2.023 -0.2370  0.2209 -0.2023
12338SOL    HW140606  10.906   6.235   1.998  0.5264  1.4765  0.5170
12338SOL    HW240607  10.839   6.360   2.051 -1.7440  0.3883  0.3559
12339SOL     OW40608   1.640  10.641   0.771  0.0174 -0.5015 -0.3396
12339SOL    HW140609   1.607  10.692   0.698  1.9937 -0.0104 -0.9576
12339SOL    HW240610   1.679  10.705   0.831 -1.9843 -0.8406  1.4457
12340SOL     OW40611   7.234   7.337   5.721 -0.2236  0.0748 -0.3719
12340SOL    HW140612   7.228   7.360   5.814 -1.2688  0.9227 -0.6196
12340SOL    HW240613   7.159   7.381   5.681 -0.3627 -1.1033 -1.4628
12341SOL     OW40614   9.174   6.392   6.802  0.2843 -0.0758  0.1122
12341SOL    HW140615   9.263   6.403   6.770  0.1267  1.3729  0.1175
12341SOL    HW240616   9.137   6.324   6.746  0.8859  0.4585 -0.9632
12342SOL     OW40617  10.692   2.274   7.700  0.6527  1.1187  0.5484
12342SOL    HW140618  10.664   2.245   7.613  0.5387 -0.0485  0.9609
12342SOL    HW240619  10.633   2.346   7.721  0.6947  1.4274 -0.3453
12343SOL     OW40620  10.861   2.220   0.337  0.6900  0.0704  0.5081
12343SOL    HW140621  10.888   2.233   0.428 -0.8488 -0.1527  1.0262
12343SOL    HW240622  10.886   2.129   0.319 -2.1152 -1.0972  1.9248
12344SOL     OW40623   5.764   3.867   9.396 -0.2133  0.0409 -0.1771
12344SOL    HW140624   5.792   3.957   9.380  1.3470 -0.3417  0.1806
12344SOL    HW240625   5.746   3.864   9.490  2.6428 -0.6833  0.4440
12345SOL     OW40626   3.198  10.886   1.388 -0.3624 -0.2959 -0.3246
12345SOL    HW140627   3.271  10.840   1.430 -0.3623  0.0583  0.0702
12345SOL    HW240628   3.239  10.959   1.342 -0.4057 -0.4565 -0.6231
12346SOL     OW40629   6.570   7.852   9.840  0.1073 -0.1943 -0.2635
12346SOL    HW140630   6.652   7.829   9.883  0.8987 -0.0010 -1.6285
12346SOL    HW240631   6.503   7.802   9.887  0.8383  0.4513  1.5586
12347SOL     OW40632   7.742  11.085   7.002  0.3022 -0.5503 -0.1672
12347SOL    HW140633   7.713  11.150   7.065 -0.7880 -0.9700 -0.1976
12347SOL    HW240634   7.798  11.133   6.941 -0.0640  0.2454  0.1097
12348SOL     OW40635   6.218   3.295   2.584  0.6327 -0.6995  0.4096
12348SOL    HW140636   6.312   3.312   2.591  0.6173 -0.2244 -0.4247
12348SOL    HW240637   6.207   3.255   2.498  0.0458 -0.6217  0.4432
12349SOL     OW40638   1.649   8.361   8.085 -0.0924  0.3852 -0.3215
12349SOL    HW140639   1.594   8.418   8.030 -0.9043 -0.9014 -0.8938
12349SOL    HW240640   1.637   8.273   8.048  0.4012 -0.3154  1.1062
12350SOL     OW40641   9.715   4.049  10.906 -0.3583 -0.2523  0.0206
12350SOL    HW140642   9.769   4.065  10.828  0.7045  0.2567  0.8358
12350SOL    HW240643   9.666   3.969  10.885  2.2963 -1.9892  0.0639
12351SOL     OW40644   6.774   1.190   8.769 -0.0017  0.3645  0.3777
12351SOL    HW140645   6.858   1.147   8.758 -0.3427 -0.1904 -0.1491
12351SOL    HW240646   6.714   1.121   8.796 -0.2568  0.7832  0.8966
12352SOL     OW40647  10.184   0.500   6.445  0.0328  0.6285  0.0925
12352SOL    HW140648  10.097   0.501   6.485  0.4750 -0.7546  1.1484
12352SOL    HW240649  10.171   0.455   6.361  0.0436 -1.3506  1.1075
12353SOL     OW40650   1.843   4.158   0.371 -0.6203 -0.3646 -0.1102
12353SOL    HW140651   1.853   4.147   0.277  0.1957 -1.1563  0.0586
12353SOL    HW240652   1.858   4.071   0.408 -0.0085  0.1173  0.8183
12354SOL     OW40653   5.388   3.931   1.441  0.0123 -0.5029  0.6004
12354SOL    HW140654   5.313   3.872   1.432 -0.6297  0.3959 -0.0930
12354SOL    HW240655   5.464   3.877   1.418 -0.5532 -1.0769  0.0466
12355SOL     OW40656   2.327   7.272   2.088 -0.1803  0.0978  0.1933
12355SOL    HW140657   2.397   7.329   2.119 -1.4385  0.2504  2.9746
12355SOL    HW240658   2.263   7.331   2.048 -0.1145  0.3022  0.3891
12356SOL     OW40659   9.046   0.174   2.911  0.2177 -0.5419 -0.2508
12356SOL    HW140660   9.023   0.226   2.988  1.5703  0.1209 -0.2712
12356SOL    HW240661   8.991   0.095   2.918 -0.0547 -0.2528  1.1035
12357SOL     OW40662  10.142   4.859   3.138  0.1309 -0.4230 -0.3436
12357SOL    HW140663  10.133   4.789   3.074  1.4369 -1.3151  0.4164
12357SOL    HW240664  10.077   4.838   3.205  1.0947 -1.4379  0.3161
12358SOL     OW40665   4.573   9.879   3.775 -0.0490  0.5238  0.3809
12358SOL    HW140666   4.642   9.893   3.840  0.8199  0.0067 -0.3997
12358SOL    HW240667   4.521   9.959   3.778 -0.0933  0.4690  1.7752
12359SOL     OW40668  10.296   3.835   2.878 -0.0419  0.0178  0.3079
12359SOL    HW140669  10.240   3.839   2.800 -0.2827 -0.9438  0.4181
12359SOL    HW240670  10.241   3.796   2.945 -0.2236  1.9558  1.3376
12360SOL     OW40671   0.569   4.225   6.803 -0.0189 -0.2650  0.2698
12360SOL    HW140672   0.642   4.173   6.836 -0.2791 -1.5111 -1.0086
12360SOL    HW240673   0.606   4.277   6.731  0.1049  0.9184  1.1552
12361SOL     OW40674  10.918   7.130   1.812  0.1552 -0.0075 -0.1524
12361SOL    HW140675  10.972   7.082   1.750  0.7799 -0.9110  1.0415
12361SOL    HW240676  10.926   7.222   1.786  0.6400 -0.3412 -1.2035
12362SOL     OW40677   3.177  10.939   4.154 -0.1501  0.0390 -0.7585
12362SOL    HW140678   3.168  10.930   4.059  0.4942 -0.2962 -0.7986
12362SOL    HW240679   3.154  11.030   4.172 -0.2455  0.1138 -1.2428
12363SOL     OW40680   6.392   1.533   5.978 -0.2406  0.2357  0.4528
12363SOL    HW140681   6.369   1.443   5.955  0.3906 -0.2617  1.7282
12363SOL    HW240682   6.471   1.551   5.927  1.3412 -0.9775  2.3546
12364SOL     OW40683   7.861   6.059   9.369  0.0994  0.0918 -0.4702
12364SOL    HW140684   7.818   6.044   9.453 -0.0199  1.2350 -0.3100
12364SOL    HW240685   7.927   5.990   9.363  1.3823  1.0605  1.4375
12365SOL     OW40686  10.708   2.824   6.249 -0.0429  0.3071 -0.0587
12365SOL    HW140687  10.743   2.890   6.308  1.3888 -0.1588 -0.3550
12365SOL    HW240688  10.619   2.809   6.280  0.9551 -0.6527  2.6591
12366SOL     OW40689   2.183   3.846   2.888 -0.3584 -0.2870  0.8211
12366SOL    HW140690   2.148   3.757   2.878 -0.4604 -0.1876  0.2765
12366SOL    HW240691   2.195   3.877   2.798  1.4864 -0.4478  0.9615
12367SOL     OW40692   2.533   3.938   0.110  0.1352  0.0702  0.4170
12367SOL    HW140693   2.494   3.965   0.027  0.4718 -1.3939 -0.2379
12367SOL    HW240694   2.608   3.997   0.121 -0.0964  0.4799 -0.1373
12368SOL     OW40695   1.432   6.188   1.883 -0.7745  0.0190  0.4429
12368SOL    HW140696   1.419   6.122   1.951 -0.9102 -0.3430  0.0726
12368SOL    HW240697   1.478   6.259   1.927 -1.9458  0.3237  1.2071
12369SOL     OW40698   3.728   1.024   4.386 -0.3944  0.0268  0.0651
12369SOL    HW140699   3.785   1.021   4.462 -0.9985  1.9708  0.6543
12369SOL    HW240700   3.780   1.067   4.318  0.9205 -3.6072 -1.4304
12370SOL     OW40701   6.618   5.737  10.797 -0.2539 -0.2301 -0.0802
12370SOL    HW140702   6.663   5.664  10.756 -0.2396 -0.4776  0.3697
12370SOL    HW240703   6.620   5.807  10.731 -1.0967 -0.9354 -0.8779
12371SOL     OW40704   8.529   5.452   2.601 -0.3507 -0.2433  0.1127
12371SOL    HW140705   8.613   5.486   2.632 -0.5876  0.1402  0.3474
12371SOL    HW240706   8.483   5.426   2.680 -0.6356 -0.0182  0.0248
12372SOL     OW40707   7.334   2.503   8.901 -0.1015 -0.2650  0.7336
12372SOL    HW140708   7.289   2.486   8.984 -0.5668  1.2317  0.8035
12372SOL    HW240709   7.407   2.559   8.925 -1.7513  2.4242 -0.1557
12373SOL     OW40710   5.157   8.618   9.969 -0.9866 -0.0324  0.0935
12373SOL    HW140711   5.114   8.542   9.931  0.6634 -1.7347  1.4103
12373SOL    HW240712   5.250   8.596   9.968 -0.4539  1.9880  0.5252
12374SOL     OW40713   6.228   8.373   5.362 -0.6667 -0.4207  0.0690
12374SOL    HW140714   6.241   8.466   5.379  1.7308 -0.9159  1.3565
12374SOL    HW240715   6.274   8.357   5.279  0.2549 -0.7180  0.6254
12375SOL     OW40716   3.921  10.396   1.630 -0.2677  0.2809  0.1929
12375SOL    HW140717   3.855  10.419   1.565 -1.5178 -1.2036  0.8717
12375SOL    HW240718   3.988  10.463   1.621 -0.3096  0.0513 -2.7317
12376SOL     OW40719   7.689   2.668   5.132  0.0228  1.0626  0.4015
12376SOL    HW140720   7.658   2.643   5.219  0.4022 -0.9550  0.0165
12376SOL    HW240721   7.758   2.733   5.149  0.8702 -0.1058  1.7140
12377SOL     OW40722   4.486  10.416   2.375 -0.2765 -0.2292 -0.2995
12377SOL    HW140723   4.443  10.432   2.459  0.6153  2.9897 -0.3144
12377SOL    HW240724   4.579  10.409   2.396 -0.0291  0.7351 -0.9714
12378SOL     OW40725  10.524   7.054   0.297  0.0995  0.0435 -0.2988
12378SOL    HW140726  10.484   7.092   0.376  0.0570  1.0063 -0.7630
12378SOL    HW240727  10.515   6.960   0.308 -1.1770  0.2060  0.2006
12379SOL     OW40728   0.560   4.234   3.799  0.4254  0.0092 -0.3646
12379SOL    HW140729   0.469   4.261   3.816 -0.5892 -1.4220 -2.9625
12379SOL    HW240730   0.608   4.316   3.790 -0.3104  0.8059  2.0726
12380SOL     OW40731   3.060   9.038   0.029  0.0504 -0.0439  0.0691
12380SOL    HW140732   3.079   9.119  -0.019  1.1379  1.0032  2.1588
12380SOL    HW240733   3.134   8.981   0.010  0.8107  0.6159  0.9956
12381SOL     OW40734   6.463   2.142   8.204  0.2814 -0.3732 -0.1910
12381SOL    HW140735   6.495   2.084   8.135 -2.1930 -1.3199 -0.6551
12381SOL    HW240736   6.442   2.084   8.277 -0.2867  0.1967  0.1082
12382SOL     OW40737   1.780   1.960   7.689  0.0054  0.7193  0.1006
12382SOL    HW140738   1.816   1.903   7.756 -0.0589 -1.4307 -1.5719
12382SOL    HW240739   1.856   1.993   7.641  0.0056  1.4662  0.5996
12383SOL     OW40740  10.739   7.951  10.388 -0.1693 -0.3707 -0.5419
12383SOL    HW140741  10.711   8.027  10.440 -0.3971 -0.1990 -0.9120
12383SOL    HW240742  10.721   7.876  10.444 -0.4765 -0.1899 -0.3933
12384SOL     OW40743   6.095   8.707   4.471 -0.0005  0.3545  0.1025
12384SOL    HW140744   6.148   8.668   4.540 -0.5525 -0.8635 -0.1122
12384SOL    HW240745   6.098   8.801   4.487  1.2342  0.2164  0.7822
12385SOL     OW40746   8.714   5.914   6.444  0.2513  0.0944  0.0315
12385SOL    HW140747   8.684   5.971   6.374  0.6333 -2.5361 -2.4854
12385SOL    HW240748   8.687   5.958   6.525  0.1816  3.5303 -1.6672
12386SOL     OW40749   5.756   1.425  10.854  0.2207 -0.3036 -0.6469
12386SOL    HW140750   5.701   1.366  10.803 -0.3944 -0.6378  0.3911
12386SOL    HW240751   5.825   1.452  10.793 -0.3797 -0.8582 -1.5864
12387SOL     OW40752   3.684   7.538   8.597 -0.4460  0.6643  0.2657
12387SOL    HW140753   3.617   7.506   8.537  1.7520 -1.9769 -1.0249
12387SOL    HW240754   3.756   7.567   8.540  0.4196  1.2389  1.5958
12388SOL     OW40755   5.128   1.969  10.847  0.1633 -0.0276  0.0676
12388SOL    HW140756   5.112   2.056  10.812  2.8100  0.6024  0.2380
12388SOL    HW240757   5.045   1.923  10.835 -0.6846  1.8474 -1.9228
12389SOL     OW40758   9.584   8.542   0.666 -0.1001 -0.4095 -0.5911
12389SOL    HW140759   9.553   8.456   0.636  0.4180 -0.3894 -1.2081
12389SOL    HW240760   9.563   8.601   0.593 -0.1339 -0.0765 -0.3119
12390SOL     OW40761  10.909   9.101   2.253 -0.1935 -0.1882 -0.8609
12390SOL    HW140762  10.874   9.144   2.175 -0.3998 -0.1575 -0.7522
12390SOL    HW240763  10.836   9.048   2.285 -0.3439  0.3654 -0.2711
12391SOL     OW40764   0.668   3.270   3.528 -0.2328  0.0063  0.4019
12391SOL    HW140765   0.745   3.327   3.522  0.4096 -0.6792  1.6853
12391SOL    HW240766   0.594   3.329   3.512  0.5174  0.7349 -0.5923
12392SOL     OW40767  10.501   4.847   9.713  0.0558  0.0818  0.0285
12392SOL    HW140768  10.539   4.930   9.683  0.6006 -0.5348 -1.0418
12392SOL    HW240769  10.406   4.861   9.706  0.1506  0.4045 -0.8093
12393SOL     OW40770   0.691   0.534  10.956  0.7979 -0.4261  0.4176
12393SOL    HW140771   0.651   0.468  10.900  0.7418  0.3198 -0.4561
12393SOL    HW240772   0.718   0.487  11.035 -0.8826 -1.1508  0.6103
12394SOL     OW40773   9.356   9.842   8.459 -0.5545 -0.2752 -0.4313
12394SOL    HW140774   9.301   9.920   8.457 -0.8637 -0.4477  0.5999
12394SOL    HW240775   9.379   9.832   8.552 -0.4954 -1.3907 -0.5573
12395SOL     OW40776   0.557   8.455   8.778 -0.3960 -0.2677  0.4402
12395SOL    HW140777   0.486   8.417   8.727  0.3775  0.5382 -1.3177
12395SOL    HW240778   0.516   8.528   8.826 -0.8439 -0.0295 -0.2809
12396SOL     OW40779   1.119   4.030  10.712 -0.2960  1.3310  0.3459
12396SOL    HW140780   1.074   3.980  10.780  1.4726  0.2848  0.8012
12396SOL    HW240781   1.212   4.017  10.729  0.2093  2.0263 -1.5546
12397SOL     OW40782   4.852   5.323   6.003  0.1383 -0.1046  0.1510
12397SOL    HW140783   4.944   5.320   6.030  0.0765  0.6527  0.4845
12397SOL    HW240784   4.846   5.399   5.945 -0.3858  0.2274  0.6152
12398SOL     OW40785  10.312   9.774   5.762  0.3675 -0.0554 -1.0733
12398SOL    HW140786  10.316   9.822   5.679  2.7056 -1.3050 -1.7785
12398SOL    HW240787  10.380   9.814   5.816  0.1577 -0.4815 -0.4849
12399SOL     OW40788  11.040   8.316  10.695 -0.6555  0.1999 -0.0639
12399SOL    HW140789  11.134   8.299  10.699 -0.5181  1.0680  0.5338
12399SOL    HW240790  11.010   8.311  10.786 -1.2350 -0.2892 -0.2718
12400SOL     OW40791  10.297   8.088   8.632 -0.2656 -0.2132  0.1634
12400SOL    HW140792  10.266   8.001   8.608 -1.4850  0.2817 -0.1332
12400SOL    HW240793  10.392   8.078   8.641 -0.5613 -1.9917  1.9620
12401SOL     OW40794   5.201   9.203   9.828 -0.0444 -0.2843 -0.5818
12401SOL    HW140795   5.196   9.188   9.923  0.9041 -0.3753 -0.5344
12401SOL    HW240796   5.289   9.239   9.814 -0.3320  0.1268 -1.3761
12402SOL     OW40797   1.486   6.898   3.686  0.3132 -0.5455 -0.5048
12402SOL    HW140798   1.472   6.991   3.706  1.7141 -0.7324  1.6605
12402SOL    HW240799   1.539   6.898   3.607  0.5714  0.5199 -0.3494
12403SOL     OW40800   3.298   6.560  10.216  0.3257 -0.3993  0.4196
12403SOL    HW140801   3.361   6.631  10.226 -0.7547  0.4202  1.6472
12403SOL    HW240802   3.352   6.482  10.200  1.5288  0.6803 -1.0901
12404SOL     OW40803   7.168   3.922   6.893 -0.0545  0.1839  0.3025
12404SOL    HW140804   7.141   3.884   6.976 -0.3207  0.4441  0.3356
12404SOL    HW240805   7.233   3.989   6.916  1.4984 -1.1893  0.1519
12405SOL     OW40806   3.966   0.689   5.447  0.6155  0.0120  0.7623
12405SOL    HW140807   3.918   0.612   5.478  0.6986 -0.4829 -0.3053
12405SOL    HW240808   4.013   0.720   5.524 -1.5352  0.6222  1.8998
12406SOL     OW40809   2.469   8.074   6.395  0.5094  0.4585  0.0994
12406SOL    HW140810   2.547   8.095   6.446  0.4993 -0.1246  0.3699
12406SOL    HW240811   2.397   8.082   6.458  0.6039 -1.3272  0.5031
12407SOL     OW40812   8.119   4.618   3.367 -0.7186  0.4764 -0.1756
12407SOL    HW140813   8.089   4.618   3.458  0.7289  1.8678  0.3603
12407SOL    HW240814   8.050   4.662   3.318 -0.8675  1.0337  0.5178
12408SOL     OW40815   0.305   5.758   3.200 -0.0769  0.0964 -0.1577
12408SOL    HW140816   0.216   5.763   3.237 -0.9174 -2.2353 -1.6356
12408SOL    HW240817   0.310   5.670   3.163  2.2706  0.7843 -1.6324
12409SOL     OW40818   9.309   9.364   6.910  0.1736  0.1457 -0.0352
12409SOL    HW140819   9.374   9.317   6.962 -0.3664 -0.1061  0.4210
12409SOL    HW240820   9.299   9.311   6.830 -0.0363 -0.2332  0.2378
12410SOL     OW40821   6.008   7.437   1.820  0.1492 -0.3194 -0.0103
12410SOL    HW140822   5.950   7.388   1.762 -0.0333 -1.9916  1.4862
12410SOL    HW240823   5.975   7.527   1.817  0.3695 -0.2404 -2.6911
12411SOL     OW40824   6.507  10.869  11.044  0.3876  0.4571 -0.0754
12411SOL    HW140825   6.438  10.840  11.104  1.3894 -0.9557  0.4398
12411SOL    HW240826   6.487  10.961  11.027 -0.9183  0.4004  1.0265
12412SOL     OW40827   1.921   0.660   5.599  0.1635  0.2104 -0.4151
12412SOL    HW140828   2.009   0.691   5.581  1.6388 -0.6750  3.9739
12412SOL    HW240829   1.893   0.711   5.675 -2.6234 -0.4859 -0.8560
12413SOL     OW40830   6.261   1.629   1.490 -0.6848 -0.4729  0.1636
12413SOL    HW140831   6.217   1.549   1.518  0.2100 -0.5260  1.5493
12413SOL    HW240832   6.274   1.678   1.572  0.2935  0.3009 -0.4375
12414SOL     OW40833   4.888   7.149   5.432  0.7384  0.4487  0.6066
12414SOL    HW140834   4.916   7.233   5.469  1.2009  0.4920  0.1731
12414SOL    HW240835   4.962   7.090   5.447  1.5543  0.8465 -1.5029
12415SOL     OW40836   0.284   1.917   6.644  0.3838 -0.0133  0.1017
12415SOL    HW140837   0.296   2.008   6.672  5.0216 -0.9975  2.2446
12415SOL    HW240838   0.240   1.874   6.717  2.4921 -0.3436  1.2378
12416SOL     OW40839   2.949   7.963   4.569  0.4141  0.0688 -0.3158
12416SOL    HW140840   2.896   8.042   4.572  1.6323  0.8799  0.4184
12416SOL    HW240841   3.019   7.984   4.508  1.2325 -0.1248  0.5403
12417SOL     OW40842   4.200   6.781   6.492 -1.1546  0.1849  0.1843
12417SOL    HW140843   4.173   6.721   6.561 -0.0212  0.8345  1.2551
12417SOL    HW240844   4.224   6.861   6.539 -1.6188  1.1081 -1.1030
12418SOL     OW40845   4.800  10.571   5.913  0.0900  0.1735 -0.2687
12418SOL    HW140846   4.799  10.665   5.929 -0.4771  0.2359 -0.6187
12418SOL    HW240847   4.712  10.552   5.878  1.2298  0.0857 -3.3842
12419SOL     OW40848   7.873   0.920   7.046 -0.3839  0.0851  0.3124
12419SOL    HW140849   7.874   0.968   6.962 -0.5217 -0.6622 -0.1224
12419SOL    HW240850   7.791   0.947   7.087 -0.0018  0.9818  0.5314
12420SOL     OW40851  10.757  10.289   0.574 -0.3780  0.4935  0.2437
12420SOL    HW140852  10.843  10.282   0.616 -0.4011  2.2156  0.6798
12420SOL    HW240853  10.775  10.291   0.481  0.0445  0.6482  0.3286
12421SOL     OW40854   1.134   0.202   0.726 -0.7763  0.2100 -0.1100
12421SOL    HW140855   1.100   0.146   0.796  1.2470 -0.2862  0.5678
12421SOL    HW240856   1.125   0.291   0.760  1.5101 -0.0822  1.5466
12422SOL     OW40857   8.624   2.840   5.926 -0.4078 -0.0162 -0.0029
12422SOL    HW140858   8.711   2.879   5.915 -0.7285  0.9275  0.6614
12422SOL    HW240859   8.608   2.793   5.844  0.1346  0.9740 -0.6902
12423SOL     OW40860   0.892   3.628   7.580 -0.5835 -0.0854 -0.5739
12423SOL    HW140861   0.843   3.687   7.523 -3.4729  0.0758  1.7813
12423SOL    HW240862   0.826   3.569   7.616  1.7390 -2.9306 -0.5635
12424SOL     OW40863   8.631   0.188   3.178 -0.4774 -0.3759  0.6191
12424SOL    HW140864   8.665   0.102   3.203 -0.7558 -0.6804 -0.0369
12424SOL    HW240865   8.690   0.218   3.108  1.4184  1.2723  2.7764
12425SOL     OW40866   4.478   5.004   2.383 -0.0275  0.0990  0.4996
12425SOL    HW140867   4.528   4.960   2.451 -0.2667  0.8169  1.1574
12425SOL    HW240868   4.389   4.969   2.392 -0.5823  1.7342  2.0119
12426SOL     OW40869   0.688   7.304   2.253  0.3811  0.5284  0.2155
12426SOL    HW140870   0.602   7.348   2.255  0.2004  0.4669 -2.5522
12426SOL    HW240871   0.669   7.216   2.221  1.0836 -0.8574  3.2506
12427SOL     OW40872   1.626   3.404   7.365  0.4133  0.2687 -0.4778
12427SOL    HW140873   1.557   3.347   7.332  1.8100 -0.4133 -2.4273
12427SOL    HW240874   1.607   3.415   7.458 -1.9410 -0.3704 -0.8261
12428SOL     OW40875   2.801   1.973   9.391  0.5348  0.0425  0.1103
12428SOL    HW140876   2.739   1.902   9.404  1.2686 -0.4090  1.2348
12428SOL    HW240877   2.869   1.935   9.334  0.2895  0.2436 -0.3257
12429SOL     OW40878   5.047   4.072   3.370 -0.2582  0.0423 -0.0271
12429SOL    HW140879   5.083   3.996   3.323 -1.1519 -0.3083 -0.1603
12429SOL    HW240880   5.014   4.129   3.301 -1.1006 -0.2314  0.1426
12430SOL     OW40881   7.441   0.098   6.192 -0.0817 -0.5019 -0.3230
12430SOL    HW140882   7.351   0.092   6.159 -0.5532  0.6192  0.6685
12430SOL    HW240883   7.463   0.008   6.217 -0.1436 -1.1617 -2.4624
12431SOL     OW40884   9.822   9.228   5.335  0.1912 -0.3950 -0.3683
12431SOL    HW140885   9.864   9.239   5.421 -2.0452 -1.1313  0.8825
12431SOL    HW240886   9.735   9.267   5.346  0.6464  1.6682 -3.0650
12432SOL     OW40887   1.937   2.620   9.084 -0.4240  0.6878  0.1148
12432SOL    HW140888   1.883   2.681   9.134 -1.7159 -0.8793  0.7043
12432SOL    HW240889   1.951   2.546   9.143 -0.2304 -0.2931 -1.1219
12433SOL     OW40890   6.555   0.542   0.804 -0.1524 -0.2751 -0.1510
12433SOL    HW140891   6.571   0.574   0.893 -0.6536  0.7497 -0.4136
12433SOL    HW240892   6.460   0.542   0.796 -0.0996  0.9944 -1.1442
12434SOL     OW40893   5.674   8.766   9.321 -0.1477  0.3663 -0.1656
12434SOL    HW140894   5.670   8.807   9.408  0.6607  1.1032 -0.4570
12434SOL    HW240895   5.731   8.690   9.333 -1.2164 -0.3920  0.2581
12435SOL     OW40896   8.310  10.012   2.103 -0.0915  0.4912  0.2714
12435SOL    HW140897   8.296   9.919   2.085 -0.8589  0.8817 -1.2784
12435SOL    HW240898   8.386  10.014   2.162 -0.1318 -1.1078  0.4101
12436SOL     OW40899   6.701   4.504   4.890  0.6336 -0.1562 -0.2493
12436SOL    HW140900   6.697   4.452   4.810  0.0230  0.8213 -0.8743
12436SOL    HW240901   6.780   4.474   4.934  0.6377 -1.1515 -0.9061
12437SOL     OW40902  11.004   7.524   1.452  0.0420  0.3886  0.0919
12437SOL    HW140903  10.964   7.438   1.465 -0.4282  0.3924 -1.1934
12437SOL    HW240904  11.023   7.556   1.541  0.1051 -0.9766  0.5850
12438SOL     OW40905   1.191  10.381   6.638 -0.5355 -0.5257 -0.3445
12438SOL    HW140906   1.113  10.330   6.659  0.0807 -1.3203  0.0637
12438SOL    HW240907   1.263  10.318   6.644  0.0877  0.0909 -1.1580
12439SOL     OW40908   3.843   0.485   6.212  0.0833 -0.0947 -0.2775
12439SOL    HW140909   3.753   0.466   6.184 -0.8443  0.9764  1.7260
12439SOL    HW240910   3.870   0.559   6.158 -2.2903  3.0596  2.4661
12440SOL     OW40911   7.259  10.685   4.957 -0.2228  0.3076 -0.3605
12440SOL    HW140912   7.350  10.704   4.936  0.3509 -0.2026  1.4937
12440SOL    HW240913   7.250  10.708   5.050 -1.5842 -1.0363 -0.1146
12441SOL     OW40914   2.320   9.704   0.026 -0.3569 -0.2408 -0.0567
12441SOL    HW140915   2.349   9.700  -0.065  0.2383  0.0658  0.1130
12441SOL    HW240916   2.236   9.657   0.027 -0.0741 -0.7762 -0.6419
12442SOL     OW40917   5.413   7.692   7.563 -0.4578  0.4168 -0.1748
12442SOL    HW140918   5.365   7.723   7.639  1.6759 -0.6306  1.7363
12442SOL    HW240919   5.434   7.601   7.583  0.2621  0.1240 -1.9871
12443SOL     OW40920   1.311   3.828   8.829  0.3697 -0.1127 -0.6780
12443SOL    HW140921   1.352   3.838   8.915  0.0328 -1.7671 -0.2902
12443SOL    HW240922   1.381   3.851   8.767  2.2439 -3.4341 -0.0605
12444SOL     OW40923   0.972   6.839  10.263 -0.7118  0.2310  0.4395
12444SOL    HW140924   0.905   6.793  10.212 -0.9265  0.6875  0.2996
12444SOL    HW240925   0.995   6.915  10.209 -0.2400  0.2005  0.5890
12445SOL     OW40926   6.264   5.745   6.567  0.4208  0.0804  0.0350
12445SOL    HW140927   6.187   5.690   6.563  0.4450  0.0910 -0.7474
12445SOL    HW240928   6.330   5.692   6.613 -0.3995  0.5276  1.8264
12446SOL     OW40929   1.856   2.699   6.881  0.2414  0.0861  0.1301
12446SOL    HW140930   1.804   2.639   6.828  0.6903 -0.2503  0.0641
12446SOL    HW240931   1.934   2.649   6.904  0.3659  0.4609  0.5366
12447SOL     OW40932   9.434   0.798  10.122  0.4005  0.2425 -0.4106
12447SOL    HW140933   9.454   0.891  10.113  1.2233  0.1549  0.3946
12447SOL    HW240934   9.469   0.774  10.208 -0.6898 -0.5893 -0.1726
12448SOL     OW40935   9.046   9.554   6.492  0.8721 -0.4729 -0.2349
12448SOL    HW140936   9.106   9.505   6.436  0.3501 -0.8950 -0.4371
12448SOL    HW240937   9.004   9.487   6.546 -1.1041 -0.5003 -1.6870
12449SOL     OW40938   5.573   7.266   8.326 -0.5699 -0.2872  0.1995
12449SOL    HW140939   5.551   7.194   8.384 -0.4907 -1.6569 -1.3845
12449SOL    HW240940   5.495   7.321   8.324  0.0204  0.7819  2.9022
12450SOL     OW40941   3.673   7.946   1.281  0.8784 -0.5367 -0.1770
12450SOL    HW140942   3.729   7.868   1.272 -0.4254 -1.4554 -0.6176
12450SOL    HW240943   3.717   8.013   1.229  1.2099 -1.4539 -1.1303
12451SOL     OW40944   8.948   9.764   1.015  0.2945  0.2854  0.3554
12451SOL    HW140945   8.976   9.812   0.938 -0.7261  0.7250  0.2503
12451SOL    HW240946   8.854   9.782   1.023  0.2066 -0.4476  1.1974
12452SOL     OW40947   4.950   1.735   4.485 -0.4831  0.1763  0.3958
12452SOL    HW140948   5.007   1.739   4.562  1.4153 -0.2033 -0.9233
12452SOL    HW240949   4.956   1.645   4.455 -2.3595 -0.0579  0.5763
12453SOL     OW40950   4.146   3.329   2.549 -0.3208  0.4166 -0.2918
12453SOL    HW140951   4.092   3.318   2.627 -1.3052  0.4121 -0.9570
12453SOL    HW240952   4.141   3.245   2.504  1.7086 -0.1839  0.5215
12454SOL     OW40953   6.885   7.695   0.071  0.0452 -0.0262 -0.3033
12454SOL    HW140954   6.962   7.666   0.022  0.9237  0.3518  0.8032
12454SOL    HW240955   6.851   7.769   0.021  1.6516  1.1461  0.2474
12455SOL     OW40956   1.554  10.424   5.806  0.4250 -0.0331 -0.1680
12455SOL    HW140957   1.594  10.375   5.878  2.1727 -0.5131 -1.3871
12455SOL    HW240958   1.561  10.365   5.731  1.3281  1.5196 -1.3720
12456SOL     OW40959   9.979   5.799   7.654  0.0128  0.8204  0.0893
12456SOL    HW140960  10.045   5.755   7.708 -1.0622 -0.7303  0.2189
12456SOL    HW240961   9.976   5.888   7.688 -0.0993  0.0978  2.1294
12457SOL     OW40962   1.446   7.698   1.745  0.4155 -0.1662 -0.8614
12457SOL    HW140963   1.458   7.723   1.653  0.5028  2.1952 -0.2651
12457SOL    HW240964   1.392   7.767   1.782 -1.1898 -2.0360  0.4708
12458SOL     OW40965   8.441   2.224  10.897 -0.8210 -0.3804  0.0568
12458SOL    HW140966   8.373   2.200  10.960 -0.5473 -1.6825 -0.1112
12458SOL    HW240967   8.459   2.143  10.850  1.1965 -0.1985  0.4356
12459SOL     OW40968   5.201   0.408   8.445  0.4734 -0.3390 -0.4058
12459SOL    HW140969   5.208   0.503   8.447  4.6172 -0.4642 -0.7419
12459SOL    HW240970   5.163   0.385   8.530  1.3819  1.5300  0.5590
12460SOL     OW40971   4.296  10.091   6.469 -0.1656  0.3702  0.7523
12460SOL    HW140972   4.387  10.074   6.495  0.5175  1.9902 -0.4090
12460SOL    HW240973   4.259  10.137   6.544  0.0476 -0.0763  1.1364
12461SOL     OW40974   4.240   6.362   0.091  0.0951  0.4208 -0.1639
12461SOL    HW140975   4.254   6.297   0.160  0.3409  0.6449  0.0033
12461SOL    HW240976   4.195   6.435   0.135 -2.9883 -0.8464 -0.9853
12462SOL     OW40977   0.272   5.148   4.773  0.3702  0.0654 -0.1149
12462SOL    HW140978   0.337   5.162   4.704  0.1829 -0.1961 -0.3477
12462SOL    HW240979   0.220   5.074   4.742  0.2064  0.0242  0.2514
12463SOL     OW40980   3.353   6.581   8.552 -0.2766  0.2363  0.3948
12463SOL    HW140981   3.349   6.486   8.544  0.4549 -0.0600  2.6893
12463SOL    HW240982   3.389   6.611   8.469  0.7340 -1.6012  0.1197
12464SOL     OW40983   0.580  10.388   0.851  0.6814  0.4105 -0.0746
12464SOL    HW140984   0.496  10.399   0.805 -0.6242 -2.2562  1.4392
12464SOL    HW240985   0.582  10.459   0.914 -0.9585 -0.0071  0.5081
12465SOL     OW40986   5.984   8.335   4.428  0.5551 -0.2347  0.1861
12465SOL    HW140987   5.954   8.267   4.367 -0.9784  0.2970  0.2885
12465SOL    HW240988   6.020   8.404   4.371 -1.1040  0.3748 -0.1944
12466SOL     OW40989   0.911   0.235   7.678 -0.5312 -0.7778  0.0550
12466SOL    HW140990   0.954   0.319   7.693  0.4242 -0.9963 -1.3454
12466SOL    HW240991   0.819   0.257   7.667 -0.5449 -0.1093  1.3330
12467SOL     OW40992   6.560  10.450   9.064 -0.2181 -0.0188  0.6191
12467SOL    HW140993   6.531  10.429   9.153 -0.6546 -1.2813  0.1873
12467SOL    HW240994   6.483  10.488   9.022  0.1186  1.0285  0.8949
12468SOL     OW40995   2.750   9.226   4.279  0.1321 -0.4316 -0.5121
12468SOL    HW140996   2.835   9.197   4.310 -0.1903  0.9216  1.8973
12468SOL    HW240997   2.692   9.151   4.294  0.4831 -0.6301 -0.1386
12469SOL     OW40998   2.582   4.228   7.388  0.1479  0.5352  0.0914
12469SOL    HW140999   2.553   4.312   7.424 -3.4932 -0.0263 -1.1618
12469SOL    HW241000   2.544   4.224   7.300  1.1919 -1.9524 -0.3533
12470SOL     OW41001   7.560   5.935   6.187 -0.1171  0.4594 -0.1584
12470SOL    HW141002   7.476   5.902   6.157 -0.1372  0.7397 -0.4128
12470SOL    HW241003   7.624   5.895   6.129  0.0309 -0.6236  0.7194
12471SOL     OW41004   9.890   8.742   8.226  0.1454  0.3226  0.6428
12471SOL    HW141005   9.895   8.838   8.233  0.3656  0.5109 -1.3584
12471SOL    HW241006   9.796   8.723   8.226  0.1068  0.4165  2.0183
12472SOL     OW41007   7.998  10.739   2.592 -0.1710 -0.4960 -0.3260
12472SOL    HW141008   7.941  10.666   2.565 -1.0444 -0.1244  0.4725
12472SOL    HW241009   8.074  10.732   2.534  1.0378 -3.6281  1.3781
12473SOL     OW41010   5.838   2.307   2.080  0.1288 -0.0999  0.2721
12473SOL    HW141011   5.803   2.225   2.045 -1.4366  0.7836 -0.3187
12473SOL    HW241012   5.778   2.331   2.150  0.1248  0.9164 -0.0669
12474SOL     OW41013   8.294   1.068   7.274  0.2423  0.3507  0.3164
12474SOL    HW141014   8.270   1.008   7.203  0.3969  1.1451 -0.4266
12474SOL    HW241015   8.385   1.047   7.292 -0.2799 -1.0390  1.4975
12475SOL     OW41016   1.698   7.335  10.513  0.0924 -0.2513  0.1929
12475SOL    HW141017   1.605   7.319  10.501 -0.2808  0.6676  1.6509
12475SOL    HW241018   1.737   7.315  10.428 -1.4823 -0.2613 -0.5541
12476SOL     OW41019  10.981   2.548   5.401 -0.3609 -0.1373  0.9209
12476SOL    HW141020  10.952   2.471   5.353 -0.9880  0.7115 -0.1164
12476SOL    HW241021  10.961   2.529   5.492 -1.4759 -0.7717  0.5613
12477SOL     OW41022   2.458   9.242   0.488  0.1941  0.1418 -0.2040
12477SOL    HW141023   2.421   9.153   0.496 -0.6212  0.3690 -1.1590
12477SOL    HW241024   2.497   9.243   0.400  0.2567  0.7140 -0.1688
12478SOL     OW41025   2.532   1.605   5.421  0.3601 -0.0462 -0.0522
12478SOL    HW141026   2.572   1.561   5.495 -1.5558 -0.6974  0.6694
12478SOL    HW241027   2.585   1.580   5.346  1.8253 -0.0726  0.9655
12479SOL     OW41028   3.018   2.388   6.227  0.2504  0.0330 -0.4013
12479SOL    HW141029   3.061   2.364   6.145 -2.8610 -0.9539 -1.8724
12479SOL    HW241030   2.992   2.305   6.265 -1.0730  0.6129 -0.0030
12480SOL     OW41031   6.904   5.619   8.053 -0.1771 -0.2678  0.4527
12480SOL    HW141032   6.881   5.712   8.057  0.7802  0.0801 -1.1788
12480SOL    HW241033   6.988   5.617   8.006 -1.0665 -2.0675 -1.1840
12481SOL     OW41034   3.687   2.559   2.815 -0.1277  0.3469  0.3501
12481SOL    HW141035   3.715   2.650   2.824 -1.7576  0.7870  1.2963
12481SOL    HW241036   3.769   2.510   2.803  0.7327  1.9888 -0.8850
12482SOL     OW41037   7.292   7.530   1.691 -0.0775  0.0711 -0.3832
12482SOL    HW141038   7.278   7.621   1.667  0.3680 -0.0717 -1.2054
12482SOL    HW241039   7.332   7.490   1.614  1.0990 -0.4752  0.4866
12483SOL     OW41040   7.602   3.476   9.465 -0.1918 -0.2901  0.9382
12483SOL    HW141041   7.648   3.521   9.394 -0.4056 -2.8219 -0.9503
12483SOL    HW241042   7.512   3.509   9.460  0.4643  1.8556  2.1600
12484SOL     OW41043   2.618   9.693   6.650  0.1603  0.0867 -0.6185
12484SOL    HW141044   2.530   9.656   6.650  0.2801 -0.2173  0.2435
12484SOL    HW241045   2.619   9.752   6.574 -0.6705 -0.1600 -0.8342
12485SOL     OW41046   5.150  10.396   7.842 -0.2991 -0.0268 -0.0424
12485SOL    HW141047   5.216  10.462   7.859  1.5628 -2.2487  2.1605
12485SOL    HW241048   5.092  10.399   7.918 -1.4897  0.4710 -0.9486
12486SOL     OW41049   9.780   2.319   7.277 -0.6123  0.0594  0.4506
12486SOL    HW141050   9.854   2.282   7.325 -1.9418 -3.0924  0.3255
12486SOL    HW241051   9.714   2.336   7.344 -0.4091  1.2200  0.3685
12487SOL     OW41052   3.891   2.361   5.509 -0.0359  0.1518 -0.0745
12487SOL    HW141053   3.859   2.270   5.514  0.7544 -0.0912  0.8317
12487SOL    HW241054   3.940   2.365   5.427  2.4078 -1.1139  1.2046
12488SOL     OW41055   2.097   3.166   8.578  0.1543  0.0909  0.2056
12488SOL    HW141056   2.004   3.186   8.566  0.6647  1.9984 -0.9420
12488SOL    HW241057   2.107   3.156   8.672 -0.9484  1.4025  0.4996
12489SOL     OW41058   8.138   2.231   3.444 -0.5027  0.0017 -0.7321
12489SOL    HW141059   8.073   2.290   3.481 -2.1909 -1.8293 -0.6091
12489SOL    HW241060   8.132   2.243   3.349 -0.7846  0.0768 -0.7039
12490SOL     OW41061   3.677   7.627  10.291  0.3159  0.5868 -0.0255
12490SOL    HW141062   3.769   7.612  10.315 -0.2691 -1.1729  1.2735
12490SOL    HW241063   3.630   7.625  10.374 -1.1133 -0.3148 -0.8239
12491SOL     OW41064   7.291   5.063  10.069  0.0363  0.2396 -0.2378
12491SOL    HW141065   7.377   5.105  10.063 -0.1938  0.5441 -1.8158
12491SOL    HW241066   7.305   4.986  10.125  1.5408 -0.1963 -1.1680
12492SOL     OW41067   3.905   0.062   3.194 -0.1365 -0.1318  0.6031
12492SOL    HW141068   3.964   0.133   3.218 -0.4094  0.2959  0.0447
12492SOL    HW241069   3.905   0.003   3.269 -0.5720  0.9023  1.4364
12493SOL     OW41070   7.723   7.512   4.929  0.0836 -0.0119  0.1166
12493SOL    HW141071   7.662   7.575   4.966 -0.8221 -1.1914  0.6967
12493SOL    HW241072   7.780   7.488   5.002 -1.5747 -2.1861  0.7821
12494SOL     OW41073   5.010   0.362   3.468  0.2745 -0.0459  0.2890
12494SOL    HW141074   5.087   0.322   3.508  1.4295  0.7869 -0.9970
12494SOL    HW241075   5.019   0.455   3.488  0.7064  0.3481 -1.5399
12495SOL     OW41076   3.460   0.496   6.777  1.0164  0.4328 -0.5038
12495SOL    HW141077   3.395   0.425   6.777  1.6910 -0.1966 -0.2821
12495SOL    HW241078   3.442   0.545   6.697  1.7210 -1.1016 -1.6524
12496SOL     OW41079   5.275   8.186  10.484 -0.5958 -0.4449 -0.0315
12496SOL    HW141080   5.248   8.239  10.560 -0.0339  0.4754 -0.4645
12496SOL    HW241081   5.366   8.164  10.502 -0.7178 -0.9669 -0.0358
12497SOL     OW41082   5.720   1.300   2.006  0.1449 -0.4500  0.2677
12497SOL    HW141083   5.661   1.235   1.967 -0.5863 -0.6249  1.6210
12497SOL    HW241084   5.662   1.365   2.045  0.8665 -0.0961  0.7736
12498SOL     OW41085   9.471   0.422   7.374  0.0996  0.4251 -0.2120
12498SOL    HW141086   9.488   0.332   7.403  0.6163  0.7873  0.6343
12498SOL    HW241087   9.377   0.423   7.352 -0.2650  0.0842  1.2674
12499SOL     OW41088   0.193   4.731   6.891  0.0636 -0.1008 -0.5022
12499SOL    HW141089   0.125   4.668   6.918 -0.3163  0.7384  0.6061
12499SOL    HW241090   0.158   4.770   6.811 -0.5662  0.0049 -0.1864
12500SOL     OW41091   3.474   4.170   8.279  0.3829  0.3291  0.5133
12500SOL    HW141092   3.528   4.190   8.356  1.3491 -0.2904  0.0099
12500SOL    HW241093   3.386   4.200   8.304  0.6938  0.2404  1.8211
12501SOL     OW41094   7.073   9.659   6.775  0.8178  0.2694 -0.1290
12501SOL    HW141095   7.166   9.671   6.794  1.5747  0.4517 -3.3386
12501SOL    HW241096   7.070   9.580   6.721 -1.1601 -0.6798  1.2505
12502SOL     OW41097   7.412   3.420   3.335 -0.2137 -0.0172 -0.8553
12502SOL    HW141098   7.455   3.480   3.275 -1.5106  2.0689  0.1740
12502SOL    HW241099   7.342   3.472   3.375 -1.9701 -2.4573 -0.4925
12503SOL     OW41100   8.678   5.104   1.780 -0.0786  0.0220  0.4152
12503SOL    HW141101   8.749   5.141   1.727 -0.9762  0.6934 -0.3702
12503SOL    HW241102   8.634   5.181   1.817 -0.2335 -0.3964  1.1143
12504SOL     OW41103   7.139   7.154   8.326 -0.2767 -0.2988  0.1282
12504SOL    HW141104   7.152   7.248   8.317  0.3879 -0.4852 -1.0347
12504SOL    HW241105   7.067   7.145   8.388 -1.0020  0.9958 -0.5091
12505SOL     OW41106   9.368   9.715  10.784 -0.8036 -0.5029 -0.0423
12505SOL    HW141107   9.318   9.781  10.737 -1.2955 -1.5815 -1.1018
12505SOL    HW241108   9.383   9.646  10.719  0.4151 -1.0594  0.7854
12506SOL     OW41109   4.672   1.313   6.597 -0.1208  0.0091 -0.0100
12506SOL    HW141110   4.709   1.356   6.520 -0.4821  0.5951  0.1373
12506SOL    HW241111   4.646   1.226   6.566  0.5145 -0.0703 -0.3355
12507SOL     OW41112   3.631   6.625   6.647 -0.1392 -0.1890  0.0336
12507SOL    HW141113   3.545   6.594   6.674 -0.3304 -0.1868 -0.5565
12507SOL    HW241114   3.693   6.581   6.706 -0.4700 -0.9818 -0.2070
12508SOL     OW41115  10.542   6.954   7.222  0.2142 -0.0042 -0.4574
12508SOL    HW141116  10.578   6.905   7.296 -0.2957 -0.3663 -0.4417
12508SOL    HW241117  10.503   7.032   7.261  0.1128 -0.1009 -0.3649
12509SOL     OW41118   9.557  10.805   6.486  0.1640 -0.5888 -0.2218
12509SOL    HW141119   9.558  10.818   6.392  0.3048 -1.5208 -0.3568
12509SOL    HW241120   9.529  10.890   6.522  0.2879 -0.1757 -1.0800
12510SOL     OW41121  10.266   2.080   1.333  0.1317 -0.3340 -0.2383
12510SOL    HW141122  10.232   2.075   1.423  1.7685  0.6592  0.4799
12510SOL    HW241123  10.359   2.061   1.342  0.5952  1.1433 -1.5057
12511SOL     OW41124   2.405   7.010   8.637  0.0534  0.3469 -0.3585
12511SOL    HW141125   2.375   7.090   8.681 -1.0050 -0.6940  0.8641
12511SOL    HW241126   2.483   6.984   8.686  0.9349  1.0879 -1.3181
12512SOL     OW41127   7.489   9.954   8.057  0.0736  0.3616 -0.2099
12512SOL    HW141128   7.438   9.900   7.997 -1.0361  1.9156 -0.7393
12512SOL    HW241129   7.570   9.972   8.010 -0.1848  0.3719 -0.6577
12513SOL     OW41130   9.231   7.812   1.365  0.4040  0.2100  0.3303
12513SOL    HW141131   9.300   7.849   1.420  0.6365  1.4512 -0.7574
12513SOL    HW241132   9.180   7.888   1.336 -1.1150 -0.6313  0.6832
12514SOL     OW41133   8.179   9.432   2.506 -0.1170 -0.2109 -0.0656
12514SOL    HW141134   8.208   9.475   2.587 -0.2058  1.0462 -0.6916
12514SOL    HW241135   8.158   9.503   2.446  0.9151 -1.1221 -1.5663
12515SOL     OW41136   2.660   9.338   7.470  0.9654  0.1068  0.4245
12515SOL    HW141137   2.587   9.277   7.478  0.6325  0.3201 -0.8027
12515SOL    HW241138   2.629   9.418   7.512  0.6078  0.0998  0.1760
12516SOL     OW41139  10.229   7.260   9.649 -0.0480 -0.2215  0.3398
12516SOL    HW141140  10.184   7.307   9.579 -0.4502  0.3693  0.9831
12516SOL    HW241141  10.165   7.254   9.719  0.4930 -0.4264  0.8244
12517SOL     OW41142   2.495   5.206   2.435  0.1550 -0.1319 -0.2428
12517SOL    HW141143   2.451   5.258   2.502  0.0026 -0.5054 -0.0504
12517SOL    HW241144   2.561   5.156   2.483  0.2921 -0.1268 -0.4250
12518SOL     OW41145   7.375   1.583   3.037 -0.2959  0.2568  0.7279
12518SOL    HW141146   7.309   1.533   3.085 -0.1341  0.4041  1.1060
12518SOL    HW241147   7.455   1.530   3.042 -0.5218 -0.1972 -0.2191
12519SOL     OW41148   9.418  10.440   2.578  0.3758 -0.5874 -0.4489
12519SOL    HW141149   9.342  10.498   2.583  0.4942 -0.2730 -1.8933
12519SOL    HW241150   9.384  10.354   2.603 -0.8643 -0.7705 -2.4815
12520SOL     OW41151   0.391   0.878   4.518  0.6770 -0.7149  0.1802
12520SOL    HW141152   0.461   0.913   4.463  1.0006  0.0026  1.0251
12520SOL    HW241153   0.353   0.955   4.561 -0.5822 -1.0959 -0.1907
12521SOL     OW41154   1.663   8.852   1.190 -0.2079 -0.0372  0.1006
12521SOL    HW141155   1.707   8.925   1.145  2.0137 -1.6540 -0.5487
12521SOL    HW241156   1.679   8.776   1.134 -1.5215 -1.2448  1.2823
12522SOL     OW41157   0.084   1.744   9.019 -0.5388  0.2867 -0.3019
12522SOL    HW141158   0.042   1.671   8.975 -1.8579  1.3496 -0.8668
12522SOL    HW241159   0.097   1.810   8.950  1.4390  0.2848 -0.0053
12523SOL     OW41160   6.097   0.369  10.096 -0.5003 -0.2292  0.2114
12523SOL    HW141161   6.099   0.317  10.016 -0.7308 -0.9961  0.6966
12523SOL    HW241162   6.180   0.350  10.140 -1.4715 -1.9148  1.4460
12524SOL     OW41163   6.075  10.848   3.024  0.3188  0.4079 -0.0939
12524SOL    HW141164   6.130  10.912   2.979  3.1233 -0.8284  1.2772
12524SOL    HW241165   6.000  10.898   3.055  0.4687  2.1581 -2.3116
12525SOL     OW41166   8.546   4.142   1.167  0.4484  0.3774  0.3696
12525SOL    HW141167   8.639   4.164   1.176  0.7506 -0.8750  0.4365
12525SOL    HW241168   8.540   4.052   1.197 -0.9137  0.6520  0.9959
12526SOL     OW41169   1.739   1.504   7.334  0.0341  0.7886  0.7849
12526SOL    HW141170   1.746   1.498   7.239 -0.5807 -1.1046  0.8050
12526SOL    HW241171   1.826   1.483   7.366 -0.1743 -0.3598  0.6460
12527SOL     OW41172   3.731   7.168   3.628 -0.8652 -0.9539  0.1478
12527SOL    HW141173   3.797   7.194   3.564  1.4701 -1.9124  2.0232
12527SOL    HW241174   3.649   7.205   3.594  0.7171  0.9799 -1.8737
12528SOL     OW41175   4.990   3.311   6.671 -0.3877 -0.3347  0.5418
12528SOL    HW141176   4.977   3.278   6.582 -2.4494  2.1744 -0.2176
12528SOL    HW241177   5.042   3.391   6.659 -1.7952  0.7514  1.3622
12529SOL     OW41178   9.655   7.774   0.319  1.1173  0.3176  0.5301
12529SOL    HW141179   9.640   7.759   0.412  0.5828  0.0796  0.4130
12529SOL    HW241180   9.743   7.812   0.314  0.6678  1.5093  1.2445
12530SOL     OW41181   5.109   7.057   5.980  0.1010 -0.6248 -0.5615
12530SOL    HW141182   5.190   7.106   5.970 -0.3848  0.1741 -0.6595
12530SOL    HW241183   5.122   6.978   5.927  1.1816 -0.9842  0.2041
12531SOL     OW41184  10.740   9.303  10.597 -0.4829 -0.7781 -0.0036
12531SOL    HW141185  10.825   9.291  10.554  0.0275 -0.6741  0.9418
12531SOL    HW241186  10.676   9.290  10.527  0.2356 -2.8406 -0.3584
12532SOL     OW41187   5.600   7.979   1.811 -0.4369  0.1278 -0.0441
12532SOL    HW141188   5.687   7.998   1.777 -0.6445  1.5241  0.1711
12532SOL    HW241189   5.547   8.055   1.787 -1.3567 -0.2700  0.6595
12533SOL     OW41190   1.671   6.222   6.949 -0.1251 -0.2260  0.1329
12533SOL    HW141191   1.660   6.127   6.943 -0.8728 -0.1428  0.0075
12533SOL    HW241192   1.725   6.235   7.027 -0.8283 -0.7151  0.7183
12534SOL     OW41193   5.751   5.517   9.662  0.6154  0.2275 -0.2925
12534SOL    HW141194   5.684   5.579   9.691  1.9899  2.0980 -0.9185
12534SOL    HW241195   5.739   5.440   9.718 -0.3671  1.5480  1.3973
12535SOL     OW41196   2.753  10.059   2.965  0.1497 -0.0701  1.0688
12535SOL    HW141197   2.744  10.150   2.993 -0.1428 -0.5852  2.7572
12535SOL    HW241198   2.837  10.031   2.999  1.4386  0.2370 -1.5974
12536SOL     OW41199   2.179   0.872   6.845  0.6627 -0.6597 -0.5721
12536SOL    HW141200   2.205   0.885   6.754 -0.1501  0.7513 -0.6306
12536SOL    HW241201   2.238   0.927   6.895 -0.5723  0.6700 -0.5057
12537SOL     OW41202   0.963   8.682  10.383  0.0791  0.2445  0.3188
12537SOL    HW141203   0.956   8.770  10.347  1.4410 -0.2234 -1.2137
12537SOL    HW241204   0.882   8.639  10.356 -0.8363  1.1430  1.5323
12538SOL     OW41205  10.938   9.542   9.776 -0.5852 -0.6574  0.9063
12538SOL    HW141206  10.963   9.486   9.850  1.5749 -0.1741  0.6145
12538SOL    HW241207  10.845   9.525   9.764 -0.1088 -4.0625  0.9481
12539SOL     OW41208   5.186   7.666   8.639 -0.4029 -0.1688  0.3015
12539SOL    HW141209   5.179   7.598   8.705 -1.0781 -0.9526 -0.5465
12539SOL    HW241210   5.265   7.715   8.662 -0.5068 -0.5634  1.5372
12540SOL     OW41211   5.892   1.379   7.658 -0.1849  0.6188 -0.2407
12540SOL    HW141212   5.906   1.287   7.677  0.5368  0.5329 -1.1317
12540SOL    HW241213   5.798   1.392   7.672 -0.6731 -0.7033 -1.8908
12541SOL     OW41214   3.384   5.808   3.483 -0.1158  0.3722  0.4441
12541SOL    HW141215   3.304   5.755   3.485 -0.4613  0.6105 -2.5185
12541SOL    HW241216   3.447   5.758   3.534 -1.8596 -0.2808  2.0872
12542SOL     OW41217   7.665   5.959  10.693 -0.7802  0.0560 -0.8345
12542SOL    HW141218   7.722   6.012  10.748  0.7798 -0.1432 -2.1839
12542SOL    HW241219   7.685   5.987  10.604 -0.5964 -2.1143 -1.5324
12543SOL     OW41220   8.628   4.081   3.244 -0.7020 -0.2449  0.0107
12543SOL    HW141221   8.696   4.015   3.258 -0.4537  0.2008  1.0238
12543SOL    HW241222   8.547   4.031   3.237 -0.5061 -0.6700  0.6659
12544SOL     OW41223   0.105   2.131   1.259 -0.2145 -0.0488 -0.1046
12544SOL    HW141224   0.151   2.215   1.246 -1.1625  0.3222 -1.2547
12544SOL    HW241225   0.148   2.071   1.199 -0.4019 -0.0307 -0.2585
12545SOL     OW41226   5.686   0.608   3.560 -0.3402 -0.1938  0.3040
12545SOL    HW141227   5.716   0.665   3.489 -1.4946  0.6392  0.4531
12545SOL    HW241228   5.627   0.663   3.611 -1.2174 -1.4260  0.6641
12546SOL     OW41229   9.361   4.719  10.048  0.5239  0.4801 -0.2769
12546SOL    HW141230   9.301   4.786  10.082 -0.3400  0.6753 -2.0601
12546SOL    HW241231   9.338   4.640  10.096  0.3862  1.0776  0.6603
12547SOL     OW41232   8.797   2.608   1.529  0.2767  0.3889  0.2063
12547SOL    HW141233   8.880   2.636   1.490 -0.2586  0.3908 -0.9736
12547SOL    HW241234   8.815   2.522   1.566  0.4260 -0.3164 -1.4412
12548SOL     OW41235   7.585   1.750   8.897 -0.2215  0.4215  0.0141
12548SOL    HW141236   7.566   1.702   8.816 -0.8417  0.6637  0.0120
12548SOL    HW241237   7.671   1.718   8.924 -1.2049 -1.7911  0.7721
12549SOL     OW41238   3.515  10.321   3.812 -0.5803 -0.6027  0.2368
12549SOL    HW141239   3.542  10.248   3.757  0.9863  0.4123 -0.4288
12549SOL    HW241240   3.568  10.395   3.782 -0.3572  0.2387  2.4750
12550SOL     OW41241  10.521   5.546   4.196 -0.4403 -0.3218  0.2918
12550SOL    HW141242  10.528   5.553   4.101 -0.8230 -0.7454  0.2300
12550SOL    HW241243  10.491   5.632   4.225 -5.2152 -1.4465 -0.4645
12551SOL     OW41244   8.933  10.650   0.251  0.0717 -0.1787  0.2780
12551SOL    HW141245   8.935  10.625   0.344  1.5141 -0.3983  0.2179
12551SOL    HW241246   9.007  10.710   0.241 -0.9817  1.0619 -0.4285
12552SOL     OW41247   1.054   1.837  10.693  0.3906 -0.1219  0.2311
12552SOL    HW141248   1.129   1.817  10.749  0.7452 -0.8297 -0.4762
12552SOL    HW241249   0.978   1.820  10.749  0.7428  1.1967  1.1518
12553SOL     OW41250   4.624   4.553   6.422  0.2501  0.0573  0.0778
12553SOL    HW141251   4.555   4.500   6.381  1.1551 -0.6597 -0.5498
12553SOL    HW241252   4.663   4.494   6.487  2.4095 -0.7134 -1.7987
12554SOL     OW41253   3.267   0.943   1.650 -0.1730 -0.9059  0.6219
12554SOL    HW141254   3.258   0.988   1.734  0.9001 -0.1735  0.3708
12554SOL    HW241255   3.280   1.014   1.586 -3.0515 -1.2801 -0.5431
12555SOL     OW41256   6.935   2.126   4.412 -0.0497 -0.7367  0.3853
12555SOL    HW141257   6.893   2.207   4.441 -0.2644 -1.8364  3.6344
12555SOL    HW241258   6.977   2.092   4.491  0.9753 -3.2453 -1.1300
12556SOL     OW41259   5.768   8.141   9.615  0.0347 -0.0202  0.4347
12556SOL    HW141260   5.800   8.164   9.528 -0.1228  0.0721  0.3993
12556SOL    HW241261   5.838   8.165   9.675 -0.4830  1.4328  0.4965
12557SOL     OW41262   4.116  10.238   1.908 -0.1408 -0.1268 -0.1915
12557SOL    HW141263   4.032  10.200   1.880  0.7359 -1.5628 -1.0423
12557SOL    HW241264   4.110  10.243   2.003 -0.4186 -2.2803 -0.0395
12558SOL     OW41265  11.050  10.121  10.667  0.0275  0.1683 -0.1513
12558SOL    HW141266  11.001  10.049  10.707 -3.1319  1.7757 -0.7399
12558SOL    HW241267  11.018  10.199  10.712 -0.1692  1.5960 -2.5817
12559SOL     OW41268   2.577   0.751  10.008 -0.5060  0.1742 -0.1325
12559SOL    HW141269   2.536   0.836  10.026  0.6403  0.6474  0.3883
12559SOL    HW241270   2.558   0.698  10.085  1.7430  1.1621  1.1967
12560SOL     OW41271   1.213   2.989   6.050  0.7509 -0.1239  0.2081
12560SOL    HW141272   1.141   2.969   6.110  1.6638  0.4025  1.5479
12560SOL    HW241273   1.286   2.936   6.083  1.5088  0.8277  0.1040
12561SOL     OW41274   6.440  10.037   5.774  0.2345 -0.1051 -0.3732
12561SOL    HW141275   6.449  10.125   5.737 -1.1382  0.1429 -0.1714
12561SOL    HW241276   6.528  10.013   5.801  1.0607  0.2453 -2.5881
12562SOL     OW41277   2.481   1.207   6.829  0.3036  0.4188  0.4633
12562SOL    HW141278   2.571   1.239   6.824  0.5656 -0.1946  1.0832
12562SOL    HW241279   2.434   1.277   6.875  0.4624  0.7438  0.1354
12563SOL     OW41280   8.992   9.491   8.893  0.5857 -0.4145 -0.1353
12563SOL    HW141281   9.026   9.578   8.870 -1.7340  0.3367 -0.9792
12563SOL    HW241282   8.949   9.504   8.978  1.3970 -1.0908  0.3958
12564SOL     OW41283   0.351   4.427   6.520  0.0221 -0.2597  0.6657
12564SOL    HW141284   0.263   4.465   6.522  0.8553  2.1073 -1.4608
12564SOL    HW241285   0.395   4.465   6.596 -0.3988 -0.4172  0.9938
12565SOL     OW41286   4.837  10.944   9.934  0.3148 -0.4175 -0.3303
12565SOL    HW141287   4.854  10.883   9.863  2.1651  0.2454 -0.5309
12565SOL    HW241288   4.888  10.910  10.008 -0.4626 -0.3413  0.2557
12566SOL     OW41289   4.251   1.260  10.074  0.5768  0.3527  0.2585
12566SOL    HW141290   4.277   1.261  10.166 -2.9787 -1.5295  1.4617
12566SOL    HW241291   4.295   1.184  10.037  2.2091  1.2505  0.2685
12567SOL     OW41292   2.238   7.500   2.747 -0.4539 -0.0210 -0.0863
12567SOL    HW141293   2.244   7.586   2.788  1.9901 -0.5021  0.7424
12567SOL    HW241294   2.182   7.513   2.670 -1.0399  2.0266  0.6340
12568SOL     OW41295   2.310   5.729   0.800 -0.8975 -0.4343  0.1449
12568SOL    HW141296   2.348   5.647   0.830 -0.7854 -0.5665 -0.3384
12568SOL    HW241297   2.353   5.746   0.716 -1.1177 -0.0233  0.1097
12569SOL     OW41298   6.635   8.246   2.968  0.7370 -0.0347  0.2610
12569SOL    HW141299   6.635   8.290   3.052  0.5279  0.0073  0.2402
12569SOL    HW241300   6.711   8.188   2.971 -0.0986 -1.1375  1.0675
12570SOL     OW41301   5.416   0.427   3.902  0.1076 -0.3214 -0.3672
12570SOL    HW141302   5.330   0.468   3.911  0.6611  1.5345 -2.6742
12570SOL    HW241303   5.433   0.388   3.988 -2.2554  0.7755  0.6866
12571SOL     OW41304   2.602   7.129   3.265 -0.9274 -0.2479 -0.0981
12571SOL    HW141305   2.651   7.047   3.274  0.2929  0.4902  0.1968
12571SOL    HW241306   2.580   7.154   3.355 -1.1207 -0.1459 -0.1731
12572SOL     OW41307   3.589   8.131   4.575  0.3263 -0.0646 -0.7602
12572SOL    HW141308   3.635   8.086   4.504 -0.8554 -0.5789 -1.2335
12572SOL    HW241309   3.575   8.063   4.641 -0.7504 -0.2123 -1.1226
12573SOL     OW41310   7.827   3.954   4.535  0.0699 -0.0273 -0.1441
12573SOL    HW141311   7.800   3.985   4.449 -0.3850  0.4788  0.1781
12573SOL    HW241312   7.774   3.877   4.551 -0.4452  0.3616  0.0392
12574SOL     OW41313   0.488   5.639   9.620 -0.3261  0.0590  0.4215
12574SOL    HW141314   0.536   5.638   9.537 -2.3129 -0.1009 -0.8085
12574SOL    HW241315   0.521   5.716   9.666  1.5501 -0.4195 -0.0368
12575SOL     OW41316   9.550   2.749   3.315  0.1808  0.2195 -0.3068
12575SOL    HW141317   9.545   2.790   3.229 -0.3387  0.2180 -0.2799
12575SOL    HW241318   9.521   2.659   3.301  0.7673  0.0206 -0.2592
12576SOL     OW41319   4.593   5.557   6.985  0.5349 -0.3837 -0.4407
12576SOL    HW141320   4.628   5.622   7.046 -3.1149  1.5731 -0.1932
12576SOL    HW241321   4.536   5.502   7.038 -0.1060 -0.7968 -1.5230
12577SOL     OW41322   4.429   8.050   4.132  0.2237  0.9656 -1.0945
12577SOL    HW141323   4.441   8.099   4.051  0.9709  0.5556 -1.2380
12577SOL    HW241324   4.439   8.114   4.202  1.5575  0.9634 -1.2663
12578SOL     OW41325  10.496   8.026   1.030  0.0329 -0.6691  0.3003
12578SOL    HW141326  10.432   8.006   0.962 -0.7125 -1.8295  1.3129
12578SOL    HW241327  10.509   8.120   1.024 -0.2166 -0.7082 -1.2625
12579SOL     OW41328   4.679   7.756   3.634  0.0538 -0.0937  0.5687
12579SOL    HW141329   4.744   7.701   3.591  1.3186  0.7685  1.3126
12579SOL    HW241330   4.601   7.700   3.640  0.5429 -0.9784 -0.7871
12580SOL     OW41331   4.314   1.558   5.040  0.5863  0.3291 -0.1334
12580SOL    HW141332   4.409   1.552   5.040  0.5604 -1.7359  2.3770
12580SOL    HW241333   4.294   1.631   5.099  0.6086  0.2404 -0.0163
12581SOL     OW41334   2.729   4.727   3.469 -0.1281  0.0763 -0.1624
12581SOL    HW141335   2.809   4.779   3.462  0.8088 -1.1277  1.1992
12581SOL    HW241336   2.675   4.775   3.532  0.0465  0.2354 -0.1334
12582SOL     OW41337   6.616   1.016   7.827 -0.1405  0.4630  0.8188
12582SOL    HW141338   6.589   1.082   7.763  0.6631  0.2379  0.2360
12582SOL    HW241339   6.659   1.066   7.896  0.3284  0.5747  0.4525
12583SOL     OW41340   6.452  10.326   5.723 -0.5708 -0.7831 -0.2547
12583SOL    HW141341   6.453  10.340   5.628  0.2034 -0.3397 -0.1974
12583SOL    HW241342   6.483  10.409   5.759  2.7993 -2.0440  0.1910
12584SOL     OW41343  11.090   5.528   3.197  0.0219  0.1443 -0.5249
12584SOL    HW141344  11.012   5.584   3.197  1.4637  2.4209  2.3441
12584SOL    HW241345  11.076   5.468   3.271  1.4832  1.4436  0.8541
12585SOL     OW41346  10.649   4.605   5.957 -0.1820 -0.2123 -0.3515
12585SOL    HW141347  10.736   4.571   5.933  0.1750  0.3522  0.1120
12585SOL    HW241348  10.652   4.697   5.932 -0.6168 -0.1667 -0.2392
12586SOL     OW41349   1.746   2.595   3.167 -0.3782  0.1925  0.1296
12586SOL    HW141350   1.731   2.587   3.261 -1.8110 -0.8076 -0.1446
12586SOL    HW241351   1.841   2.600   3.157 -0.1879 -0.2885  1.5894
12587SOL     OW41352   6.998   0.690   6.135 -0.1401  0.3977  0.5089
12587SOL    HW141353   7.008   0.595   6.132 -0.1369  0.3908  0.7101
12587SOL    HW241354   7.014   0.713   6.227  0.3224  0.6463  0.3684
12588SOL     OW41355   6.588   3.220  10.187 -0.4020  0.0333  0.4141
12588SOL    HW141356   6.661   3.281  10.183 -2.2609  2.3137 -2.6996
12588SOL    HW241357   6.601   3.161  10.113 -2.1977  1.1509 -0.8462
12589SOL     OW41358   1.009   3.118   7.311 -0.1746  0.1592  0.0940
12589SOL    HW141359   1.082   3.125   7.249 -1.7128 -0.2431 -1.8419
12589SOL    HW241360   1.052   3.106   7.396  2.0722 -2.6326 -1.2425
12590SOL     OW41361   1.499   1.069   8.547 -0.3019  0.1267 -0.2856
12590SOL    HW141362   1.580   1.018   8.546 -1.1562 -1.3175 -2.3207
12590SOL    HW241363   1.527   1.157   8.574  1.6821 -0.6854  0.5167
12591SOL     OW41364  10.885   1.768   0.447 -0.3857 -0.4279 -0.7674
12591SOL    HW141365  10.958   1.748   0.387  0.6872  0.3184  0.2563
12591SOL    HW241366  10.849   1.682   0.469  0.2104 -0.8161 -1.2543
12592SOL     OW41367   1.244   2.003   6.945 -0.3055 -0.3303  0.9377
12592SOL    HW141368   1.188   2.011   6.868 -1.5446 -1.5491  1.6579
12592SOL    HW241369   1.326   2.045   6.920 -1.8624  2.4990  0.2088
12593SOL     OW41370   9.926  10.201   6.953  0.5706  0.1359 -0.3657
12593SOL    HW141371   9.966  10.219   6.868 -1.2961  1.5102 -1.0280
12593SOL    HW241372   9.901  10.287   6.987 -0.2066 -0.5160  0.7822
12594SOL     OW41373   6.625   0.111   0.208 -0.2693 -0.0073  0.4544
12594SOL    HW141374   6.654   0.116   0.116 -1.0024 -1.7238  0.0883
12594SOL    HW241375   6.608   0.202   0.232  2.0330  0.7462 -0.3894
12595SOL     OW41376   7.024  10.934  10.831  0.3272  0.4996 -0.3820
12595SOL    HW141377   6.956  10.924  10.764 -0.8895  0.5763  0.7935
12595SOL    HW241378   6.977  10.928  10.914  1.5727  1.8392  0.4736
12596SOL     OW41379   0.439   8.691   3.986 -0.3844  0.4210  0.1567
12596SOL    HW141380   0.382   8.767   3.987 -1.7010 -0.5135 -0.6761
12596SOL    HW241381   0.403   8.635   3.917  2.5986  0.5713 -1.6935
12597SOL     OW41382   0.951   1.966   9.445 -0.2262 -0.6162  0.0346
12597SOL    HW141383   0.908   1.890   9.404 -1.9503  0.0090  0.6093
12597SOL    HW241384   0.964   2.028   9.373 -0.3181 -0.7932 -0.1345
12598SOL     OW41385   8.994   5.889   1.773  0.1914  0.2560  0.0946
12598SOL    HW141386   8.993   5.917   1.681  0.6631  1.2670  0.3867
12598SOL    HW241387   9.075   5.840   1.782 -1.6773 -3.3603 -0.9960
12599SOL     OW41388   4.290   6.445   6.423 -0.1996  0.2668  0.0974
12599SOL    HW141389   4.262   6.384   6.354 -0.7144 -0.8081  1.2106
12599SOL    HW241390   4.216   6.505   6.433  0.1018  0.7865 -0.6453
12600SOL     OW41391   9.785   1.542   5.063 -0.0655 -0.2083 -0.5897
12600SOL    HW141392   9.737   1.612   5.018 -0.0395 -0.5991 -1.2429
12600SOL    HW241393   9.716   1.486   5.100 -0.0874  1.0883  1.4422
12601SOL     OW41394   2.484   6.023  10.815 -0.2870 -0.2491 -0.0874
12601SOL    HW141395   2.477   6.108  10.857  1.7813 -0.3252  0.4967
12601SOL    HW241396   2.484   6.042  10.721  0.2952  0.4088  0.0438
12602SOL     OW41397   7.869  10.603  10.194 -0.2370 -0.0994 -0.0691
12602SOL    HW141398   7.911  10.681  10.155 -1.0734  1.3247  1.7298
12602SOL    HW241399   7.921  10.530  10.161 -0.9222  0.9142 -3.8897
12603SOL     OW41400   5.692   0.818   3.345  0.3382 -0.0790  0.4104
12603SOL    HW141401   5.787   0.822   3.337  0.2732 -0.7035 -0.9501
12603SOL    HW241402   5.668   0.901   3.387  1.5405 -0.3052  1.6387
12604SOL     OW41403   8.964  10.489   1.361 -0.3870  0.4012 -0.2552
12604SOL    HW141404   8.952  10.530   1.447 -2.8668  0.2425 -0.4634
12604SOL    HW241405   9.026  10.546   1.316 -1.3931  2.2432  0.5623
12605SOL     OW41406   9.098   6.693   7.417 -0.3935  0.2269 -0.1853
12605SOL    HW141407   9.188   6.721   7.401 -0.9258  1.0775 -1.8308
12605SOL    HW241408   9.100   6.659   7.507  1.0212  2.4712  0.7277
12606SOL     OW41409   2.559   2.089   6.634 -0.3141 -0.5693 -0.2144
12606SOL    HW141410   2.521   2.154   6.576  1.1099  0.7794  0.2913
12606SOL    HW241411   2.518   2.006   6.608 -1.2423  0.3159 -1.7032
12607SOL     OW41412   7.963   2.768   4.624  0.5464 -0.4078  0.7552
12607SOL    HW141413   8.006   2.849   4.651 -2.4966  1.3756  0.7284
12607SOL    HW241414   8.000   2.701   4.681  2.2699  1.2063  1.6422
12608SOL     OW41415   3.576   4.857   0.534  0.5596 -0.2132  0.0960
12608SOL    HW141416   3.574   4.854   0.630  0.6561 -0.2660  0.0957
12608SOL    HW241417   3.575   4.951   0.514 -1.4586 -0.1791  0.1117
12609SOL     OW41418   9.873   2.216   9.570 -0.5826 -0.1277  0.7269
12609SOL    HW141419   9.892   2.290   9.628  2.3005 -0.1425 -0.0448
12609SOL    HW241420   9.783   2.231   9.540 -0.3185  2.7274  1.0976
12610SOL     OW41421   8.147   4.423   2.835  0.2550  0.1433 -0.1500
12610SOL    HW141422   8.214   4.440   2.768  0.4053  1.3665  0.2789
12610SOL    HW241423   8.147   4.328   2.845  0.6052 -0.0329 -1.5008
12611SOL     OW41424   6.501   7.067   8.959  0.0308 -0.2503  0.3967
12611SOL    HW141425   6.590   7.096   8.978  0.3255 -1.0082  0.2467
12611SOL    HW241426   6.472   7.025   9.040 -1.8030  3.5996  1.9664
12612SOL     OW41427   2.425   2.229   9.072 -0.3015  0.4707  0.0111
12612SOL    HW141428   2.496   2.192   9.125 -0.3680 -2.0844 -1.4890
12612SOL    HW241429   2.345   2.199   9.116 -0.3784  0.1146 -0.3652
12613SOL     OW41430   4.702   3.352   7.089  0.1069 -0.0861  0.0879
12613SOL    HW141431   4.773   3.312   7.039 -1.7280 -0.1025 -2.7159
12613SOL    HW241432   4.699   3.302   7.171  2.1231 -1.2092 -0.4534
12614SOL     OW41433  10.724   5.747   0.351  0.2506 -0.2601 -0.0333
12614SOL    HW141434  10.706   5.835   0.319 -1.9799 -0.7722 -0.3738
12614SOL    HW241435  10.673   5.690   0.294 -0.0773 -1.5924  1.5183
12615SOL     OW41436   8.010   6.893   5.927 -0.3018 -0.2897  0.3389
12615SOL    HW141437   8.098   6.873   5.895 -0.1005 -0.5055  0.9992
12615SOL    HW241438   8.009   6.988   5.936 -0.0038 -0.3180  0.6879
12616SOL     OW41439   4.069   1.211   9.703  0.0261  0.1629  0.2023
12616SOL    HW141440   4.159   1.244   9.715  0.3329 -0.4884 -0.2593
12616SOL    HW241441   4.062   1.140   9.767 -0.8291  1.4529  1.6080
12617SOL     OW41442  10.087   1.893   2.138 -0.1500 -0.0285 -0.3130
12617SOL    HW141443   9.997   1.922   2.122  0.1992  1.2962  0.0150
12617SOL    HW241444  10.100   1.906   2.232  1.4375  3.0250 -0.8505
12618SOL     OW41445   5.610   4.190   2.749  0.1905  0.1842  0.1810
12618SOL    HW141446   5.595   4.173   2.656 -0.4376 -0.2140  0.3500
12618SOL    HW241447   5.523   4.193   2.787  0.4478  0.3230  0.7613
12619SOL     OW41448   8.805   9.047   6.146  0.4814  0.4034  0.5946
12619SOL    HW141449   8.720   9.067   6.186 -0.2752 -1.7168  0.1650
12619SOL    HW241450   8.868   9.055   6.218 -0.5996 -1.5345  1.8402
12620SOL     OW41451  10.173   6.325   9.948 -0.5083  0.2559 -0.1395
12620SOL    HW141452  10.263   6.333   9.980 -0.3817  0.2227 -0.4852
12620SOL    HW241453  10.147   6.415   9.926  0.0976  0.0654 -1.7980
12621SOL     OW41454   6.005   9.675   7.247 -0.4853  0.1151 -0.1743
12621SOL    HW141455   5.936   9.609   7.252  0.6254 -1.2146 -1.3543
12621SOL    HW241456   5.971   9.743   7.189 -0.8547 -0.4540 -0.6280
12622SOL     OW41457  10.966   1.040   2.587 -0.0812 -0.7281 -0.4856
12622SOL    HW141458  11.039   1.038   2.525 -0.1239 -0.1669 -0.5564
12622SOL    HW241459  10.892   1.006   2.537 -0.5567  1.4039 -1.3562
12623SOL     OW41460   7.139   0.054   7.553  0.7114  0.3558 -0.0652
12623SOL    HW141461   7.070   0.051   7.486  1.0845 -0.6882 -0.4307
12623SOL    HW241462   7.106  -0.003   7.622  1.5003 -0.7382 -0.5579
12624SOL     OW41463   7.331   0.690  10.469  0.2030 -0.3909 -0.0692
12624SOL    HW141464   7.365   0.735  10.392  1.1043 -2.2191 -0.8090
12624SOL    HW241465   7.405   0.640  10.502 -0.2998 -0.0150  1.7312
12625SOL     OW41466   9.978   4.932   7.466 -0.0084  0.2822 -0.1514
12625SOL    HW141467   9.995   4.844   7.433 -1.5213  0.7139 -2.3204
12625SOL    HW241468   9.907   4.921   7.528  0.6702 -0.1607  0.5593
12626SOL     OW41469   8.571   0.742   5.664  0.4741 -0.4852 -0.0558
12626SOL    HW141470   8.635   0.798   5.707  0.9121 -0.6016 -0.5409
12626SOL    HW241471   8.490   0.754   5.714  1.2280 -1.4480  1.4760
12627SOL     OW41472   8.843   0.196   0.731  0.0412  0.0776  0.3637
12627SOL    HW141473   8.805   0.117   0.770  1.4236 -1.4488 -1.1787
12627SOL    HW241474   8.919   0.216   0.785  0.6281 -0.6580 -0.1670
12628SOL     OW41475   5.955   5.847   3.212 -0.6858 -0.0991 -0.3327
12628SOL    HW141476   5.935   5.908   3.141  0.3853 -1.1657 -1.5940
12628SOL    HW241477   5.964   5.762   3.170 -0.5549 -0.8762  1.1667
12629SOL     OW41478   6.488   9.629   1.433  0.1389 -0.5960 -0.4407
12629SOL    HW141479   6.430   9.703   1.415  2.5470  1.2190 -1.1683
12629SOL    HW241480   6.439   9.553   1.401 -0.8494  1.1278 -3.4337
12630SOL     OW41481   1.363   5.757  10.125  0.2120  0.0182 -0.1913
12630SOL    HW141482   1.333   5.736  10.213  1.3130  0.2082  0.2383
12630SOL    HW241483   1.303   5.708  10.068 -1.6499  1.2797  0.5594
12631SOL     OW41484   6.474   4.736   8.763  0.1692 -0.1280  0.1235
12631SOL    HW141485   6.547   4.798   8.769  0.7805 -0.4250 -2.8772
12631SOL    HW241486   6.396   4.790   8.777  0.6460  1.5485 -2.7322
12632SOL     OW41487  10.119   0.969   0.855  0.2928 -0.3224 -0.7227
12632SOL    HW141488  10.085   1.058   0.842  0.0702 -0.3887 -0.5875
12632SOL    HW241489  10.042   0.916   0.876  0.3951 -0.5936 -1.0347
12633SOL     OW41490   2.207   8.972   8.157  0.7560  0.7164  0.2021
12633SOL    HW141491   2.217   8.882   8.188 -1.0918  0.4917  0.2403
12633SOL    HW241492   2.208   8.965   8.061 -0.3737  0.5051  0.1945
12634SOL     OW41493   7.416   8.334   1.260 -0.6568 -0.5195 -0.0487
12634SOL    HW141494   7.491   8.288   1.299 -1.0962 -1.6086 -0.4587
12634SOL    HW241495   7.448   8.362   1.173 -0.9713 -1.6928 -0.5507
12635SOL     OW41496   0.095   4.996   8.552 -0.5904  0.2777  0.1389
12635SOL    HW141497   0.039   5.045   8.612 -1.5470 -0.7169  0.0768
12635SOL    HW241498   0.092   4.906   8.584  1.3141  0.2560  0.3786
12636SOL     OW41499   6.728   2.622   3.892  0.1902 -0.1300  0.4170
12636SOL    HW141500   6.697   2.682   3.824  1.8973  0.4116  0.0807
12636SOL    HW241501   6.797   2.671   3.937  0.1606 -1.0688  1.5208
12637SOL     OW41502   7.655  10.787   8.738 -0.8951 -0.0954  0.6688
12637SOL    HW141503   7.627  10.707   8.692  1.9016 -0.9730  0.3140
12637SOL    HW241504   7.703  10.755   8.814  3.9184  0.9050 -1.5860
12638SOL     OW41505   4.209   6.406   9.707 -0.1046  0.4482  0.2636
12638SOL    HW141506   4.136   6.345   9.717 -0.5546  0.5417 -1.8233
12638SOL    HW241507   4.211   6.424   9.613  3.1123 -0.1413  0.1155
12639SOL     OW41508   0.899   0.636   9.950 -0.2412  0.5057 -0.1706
12639SOL    HW141509   0.815   0.653   9.992  0.1399  0.2454  0.7163
12639SOL    HW241510   0.960   0.620  10.022  0.9988  2.4501 -0.6992
12640SOL     OW41511   5.553   0.097   1.665 -0.1159 -0.3640 -0.0062
12640SOL    HW141512   5.557   0.177   1.717  1.3315  0.6787 -1.6521
12640SOL    HW241513   5.468   0.101   1.621  0.3094  0.7374 -0.7636
12641SOL     OW41514   9.963   9.263   9.333 -0.1993  0.4065  0.3272
12641SOL    HW141515   9.899   9.329   9.361 -1.3274 -0.6541  0.3409
12641SOL    HW241516   9.910   9.193   9.296  0.9718 -0.4880  0.2947
12642SOL     OW41517   8.366   7.450   5.180  0.1712  0.4672 -0.2408
12642SOL    HW141518   8.289   7.455   5.237  0.1423  0.5830 -0.2906
12642SOL    HW241519   8.424   7.388   5.225  0.0873  0.4465 -0.1587
12643SOL     OW41520   7.301   1.983   2.013  0.0568  0.7245  0.1278
12643SOL    HW141521   7.377   1.942   1.971 -0.6018 -0.5081  0.0841
12643SOL    HW241522   7.314   1.969   2.106  0.2507  1.1888  0.1732
12644SOL     OW41523   6.442   1.084   9.804  0.3478 -0.1173 -0.5352
12644SOL    HW141524   6.425   1.174   9.832  0.2729 -0.1945 -0.3266
12644SOL    HW241525   6.524   1.060   9.848 -0.3971 -0.6594  0.6323
12645SOL     OW41526   6.476   4.269   2.396  0.1720  0.0352 -0.2074
12645SOL    HW141527   6.395   4.223   2.374 -0.0239  0.3762 -0.1989
12645SOL    HW241528   6.545   4.208   2.371 -0.0893 -0.3061 -0.1068
12646SOL     OW41529   0.564   7.477   4.953  0.2103 -0.1528 -0.5155
12646SOL    HW141530   0.482   7.510   4.917 -0.2475 -0.6528  0.0600
12646SOL    HW241531   0.622   7.469   4.877 -0.3781 -0.1321 -0.9761
12647SOL     OW41532  10.666   6.907   0.931  0.2888  0.4258  0.1654
12647SOL    HW141533  10.699   6.850   1.000 -0.3241 -1.6436 -1.1646
12647SOL    HW241534  10.578   6.874   0.912  0.0974  1.5153 -0.9945
12648SOL     OW41535   8.924   0.433   4.991 -0.1121  0.4929 -0.2164
12648SOL    HW141536   8.902   0.375   5.064  0.2639  1.5251  0.7436
12648SOL    HW241537   8.843   0.480   4.972 -0.5209 -0.5909 -1.2502
12649SOL     OW41538   7.989  10.161   9.900  0.3655 -0.0829 -0.3198
12649SOL    HW141539   8.064  10.180   9.844 -0.0546 -0.1729 -0.9326
12649SOL    HW241540   7.927  10.116   9.842  0.5052 -1.5044  0.5748
12650SOL     OW41541   2.672   3.616   1.743 -0.4412  0.4258  0.5007
12650SOL    HW141542   2.659   3.634   1.836 -2.1652  0.7308  0.2359
12650SOL    HW241543   2.640   3.526   1.731 -0.2519  0.3960  0.2068
12651SOL     OW41544   7.847   1.039   2.898  0.0264 -0.2444 -0.0877
12651SOL    HW141545   7.899   1.113   2.866  1.3209 -0.0760  2.2056
12651SOL    HW241546   7.913   0.976   2.927 -1.0642 -0.8152  1.2058
12652SOL     OW41547  10.878  10.297  10.017 -0.4795 -0.1253 -0.3822
12652SOL    HW141548  10.802  10.296   9.960 -0.6022 -0.0347 -0.2207
12652SOL    HW241549  10.866  10.374  10.072  0.1271  0.3394 -0.8905
12653SOL     OW41550   4.763   9.884   4.000  0.8008  0.1586  0.1941
12653SOL    HW141551   4.743   9.920   4.086 -1.2682  0.0187 -0.1653
12653SOL    HW241552   4.736   9.792   4.006  0.7136  0.1291 -0.5638
12654SOL     OW41553   0.280   8.402   5.686  0.1149  0.8295 -0.9811
12654SOL    HW141554   0.359   8.440   5.726 -1.2202  0.0887  2.7208
12654SOL    HW241555   0.314   8.343   5.618  2.5982  2.1528 -0.9998
12655SOL     OW41556   4.928   5.921   9.169 -0.4051  0.3515  0.5364
12655SOL    HW141557   5.008   5.972   9.154 -0.1647  0.3276  1.6401
12655SOL    HW241558   4.955   5.853   9.232 -1.0511 -0.2845  0.1330
12656SOL     OW41559   5.981   1.736   2.529  0.3391 -0.0709  0.2297
12656SOL    HW141560   5.961   1.814   2.582 -0.9395 -0.1358 -0.1268
12656SOL    HW241561   5.905   1.726   2.472  0.7725 -1.2242 -0.1660
12657SOL     OW41562   2.003   8.565   5.797 -0.6716 -0.3797  0.0974
12657SOL    HW141563   2.043   8.611   5.724  0.6523 -0.4182  0.7647
12657SOL    HW241564   1.925   8.616   5.818 -1.8945 -1.1617 -2.2277
12658SOL     OW41565   9.117   9.216   4.569 -0.0826  0.3141  0.1771
12658SOL    HW141566   9.176   9.141   4.577  1.0832  1.3576  2.0973
12658SOL    HW241567   9.078   9.225   4.656 -0.0255  2.0504  0.0569
12659SOL     OW41568   9.659   3.524  10.173 -0.2574 -0.2576  0.2160
12659SOL    HW141569   9.722   3.501  10.241  3.6977  1.9096 -2.2959
12659SOL    HW241570   9.654   3.447  10.117  0.8991 -0.1898 -0.0013
12660SOL     OW41571   1.821  11.086   4.875 -0.6042  0.2149 -0.6291
12660SOL    HW141572   1.773  11.167   4.891 -0.6189 -0.0088  0.5414
12660SOL    HW241573   1.781  11.049   4.796 -2.2582  0.1067  0.2221
12661SOL     OW41574   8.019   4.860   8.216 -0.3691  0.1666  0.4078
12661SOL    HW141575   8.075   4.796   8.171 -0.6658 -0.6304  1.1402
12661SOL    HW241576   7.970   4.902   8.145  0.7166  0.4621 -0.1898
12662SOL     OW41577   3.846   5.835   7.555  0.2181  0.7541  0.1285
12662SOL    HW141578   3.914   5.900   7.573 -0.4669  1.8079 -0.9257
12662SOL    HW241579   3.875   5.792   7.475 -0.6846  1.7100 -0.7347
12663SOL     OW41580   3.615   1.621   5.231  0.1696 -0.0083  0.7741
12663SOL    HW141581   3.601   1.569   5.152  0.2064  2.6828 -1.1387
12663SOL    HW241582   3.528   1.629   5.270  0.3349 -2.3746  1.7974
12664SOL     OW41583   2.849  10.861   9.148 -0.6095  0.0766 -0.2705
12664SOL    HW141584   2.863  10.934   9.087  0.4033  0.6575  0.6265
12664SOL    HW241585   2.776  10.890   9.203  0.2602  0.7555  0.5565
12665SOL     OW41586  10.151   0.307   3.863  0.1473  0.8254 -0.5329
12665SOL    HW141587  10.220   0.258   3.908 -0.0307  2.8491  2.1747
12665SOL    HW241588  10.187   0.323   3.775  1.3926 -1.5152 -0.5548
12666SOL     OW41589   5.814   3.915   7.006  0.2863  0.1910 -0.2766
12666SOL    HW141590   5.903   3.883   7.019 -0.6588 -1.8059  2.1688
12666SOL    HW241591   5.773   3.851   6.947  0.2348  0.6542 -0.7505
12667SOL     OW41592   7.465   4.054   2.254 -0.0481 -0.1235 -0.0524
12667SOL    HW141593   7.383   4.054   2.205 -0.0672 -0.2466 -0.0222
12667SOL    HW241594   7.467   4.139   2.297 -1.4004 -1.0316  1.9763
12668SOL     OW41595   2.220   1.505   0.394  1.1597  0.2937 -0.2065
12668SOL    HW141596   2.267   1.444   0.451 -1.0834 -0.1504  1.2704
12668SOL    HW241597   2.275   1.584   0.392  2.1712 -0.3502  1.0828
12669SOL     OW41598   8.476   7.290   5.382  1.0983 -0.0414 -0.2883
12669SOL    HW141599   8.553   7.237   5.361  1.0202 -0.6318  0.8761
12669SOL    HW241600   8.401   7.233   5.364  1.0252 -0.5152  1.3838
12670SOL     OW41601   6.549   3.699   8.942  0.3673 -0.4771 -0.2802
12670SOL    HW141602   6.558   3.764   9.012  0.9953  0.1917 -0.9609
12670SOL    HW241603   6.518   3.749   8.867 -0.8782 -1.2892 -0.3336
12671SOL     OW41604   9.863   5.729   1.431 -0.0516 -0.0561 -0.3407
12671SOL    HW141605   9.842   5.691   1.345 -3.3458 -0.4179  0.4791
12671SOL    HW241606   9.868   5.653   1.489  1.5229  0.2388 -0.0613
12672SOL     OW41607   7.054   8.171   3.076 -0.2555 -0.2404 -0.0120
12672SOL    HW141608   7.087   8.129   3.155 -1.0041 -0.5522  0.1384
12672SOL    HW241609   7.084   8.262   3.083 -3.5820  0.8485  2.6219
12673SOL     OW41610   2.847   7.743   1.150 -0.4063  0.1226 -0.1289
12673SOL    HW141611   2.836   7.745   1.055  1.9773 -0.8006 -0.5073
12673SOL    HW241612   2.848   7.835   1.176  0.3680  0.4520 -1.2341
12674SOL     OW41613   1.827   0.507   3.599 -0.2582 -0.4596 -0.3194
12674SOL    HW141614   1.770   0.523   3.674  0.5613  0.9100  0.0606
12674SOL    HW241615   1.908   0.474   3.638  0.1054  0.0826 -0.5905
12675SOL     OW41616   7.289   5.424  10.140 -0.2945 -0.3734 -0.1648
12675SOL    HW141617   7.260   5.513  10.119 -0.2388 -0.1343  0.7247
12675SOL    HW241618   7.268   5.373  10.062  1.1414  0.7343 -1.3377
12676SOL     OW41619   6.006   0.018  10.466  0.1226  0.1675  0.1249
12676SOL    HW141620   5.979   0.012  10.558 -1.3347  1.0597 -0.2195
12676SOL    HW241621   6.067   0.091  10.464 -0.4777  0.6806  0.2556
12677SOL     OW41622   2.971   2.417   3.393 -0.3058  0.3100  0.4046
12677SOL    HW141623   2.904   2.361   3.355 -1.2441  2.3414 -1.1116
12677SOL    HW241624   2.953   2.416   3.487  0.4651 -2.7895  0.6378
12678SOL     OW41625   9.413   2.490   6.704  0.5932 -0.0373  0.4856
12678SOL    HW141626   9.408   2.583   6.680  0.0626  0.3128  1.8840
12678SOL    HW241627   9.364   2.445   6.635 -0.2521  0.8522  0.4791
12679SOL     OW41628   3.449   4.193   9.644 -0.0067  0.1289 -0.5242
12679SOL    HW141629   3.390   4.209   9.718  0.0985  1.2359 -0.6611
12679SOL    HW241630   3.533   4.228   9.672 -0.4326  2.4347 -1.8815
12680SOL     OW41631   9.080   1.529   4.632  0.3317 -0.3084  0.6274
12680SOL    HW141632   9.021   1.578   4.689  1.5295  1.4160  0.4675
12680SOL    HW241633   9.130   1.473   4.691 -0.3829 -0.6426  0.9297
12681SOL     OW41634   8.335   3.640   3.096  0.4581 -0.0337  0.5156
12681SOL    HW141635   8.311   3.587   3.172 -0.0456 -0.2977  0.1750
12681SOL    HW241636   8.264   3.703   3.087  0.8446  0.4296  0.6566
12682SOL     OW41637   3.502   1.643   1.316  0.0494  0.2807 -0.0513
12682SOL    HW141638   3.535   1.729   1.288  1.2773 -0.0848  0.1893
12682SOL    HW241639   3.571   1.582   1.290 -0.8649 -0.6571 -0.3246
12683SOL     OW41640   3.739   0.565   5.791 -0.0869  0.3295  0.0515
12683SOL    HW141641   3.704   0.565   5.880  0.7773  0.3312  0.4019
12683SOL    HW241642   3.820   0.616   5.797  0.0208  0.2589 -0.7187
12684SOL     OW41643  10.676   9.304   4.143 -0.1743  0.2610 -0.4990
12684SOL    HW141644  10.652   9.231   4.201  1.7300 -0.7123 -0.8753
12684SOL    HW241645  10.726   9.364   4.199  1.0668 -0.3377 -0.9507
12685SOL     OW41646   4.748   7.377   1.538  0.0238  0.1363 -0.3790
12685SOL    HW141647   4.714   7.324   1.466 -1.7053  0.7314 -0.0475
12685SOL    HW241648   4.776   7.458   1.496  2.6121 -0.9129 -0.8769
12686SOL     OW41649   1.681   3.897  10.628 -0.4553  0.0873  0.3342
12686SOL    HW141650   1.625   3.961  10.583  0.4297 -0.6862 -1.9665
12686SOL    HW241651   1.762   3.896  10.577  0.6413 -0.8249  2.0085
12687SOL     OW41652   5.433   5.694   2.175  0.0758  0.0300 -0.4343
12687SOL    HW141653   5.486   5.744   2.113 -0.2360  0.9982  0.0611
12687SOL    HW241654   5.497   5.650   2.232  0.3509 -0.1283 -0.8631
12688SOL     OW41655   9.921  10.443   0.376  0.8031 -0.0949  0.9852
12688SOL    HW141656   9.826  10.449   0.366  0.9259 -1.4536 -3.0187
12688SOL    HW241657   9.952  10.533   0.370 -0.1285  0.1318 -1.6625
12689SOL     OW41658  10.841   5.531   1.056  0.3718 -0.3602 -0.6185
12689SOL    HW141659  10.835   5.603   0.993 -1.4323  1.3694  1.3916
12689SOL    HW241660  10.786   5.462   1.018  0.5704  0.0337 -1.6636
12690SOL     OW41661   9.154   4.986  10.569 -0.1348 -0.6562  0.1298
12690SOL    HW141662   9.142   4.901  10.526 -2.8328 -0.2841 -0.0555
12690SOL    HW241663   9.194   4.965  10.653  0.8285 -1.9169 -0.6069
12691SOL     OW41664   1.348   6.523   5.957  0.2612 -0.5721  0.1338
12691SOL    HW141665   1.330   6.611   5.989 -0.4498 -0.4434 -0.5697
12691SOL    HW241666   1.389   6.536   5.872 -1.3267 -0.8974 -0.7296
12692SOL     OW41667   8.861   4.513   7.840  0.2089  0.2472  0.0168
12692SOL    HW141668   8.777   4.541   7.803  1.6006  1.5304 -2.4111
12692SOL    HW241669   8.877   4.427   7.801  0.7994  0.7687 -0.9184
12693SOL     OW41670   0.617   9.652   8.249 -0.3669  0.2004 -0.7744
12693SOL    HW141671   0.592   9.569   8.288  1.8390  0.9625  2.7768
12693SOL    HW241672   0.703   9.635   8.211 -1.4808  0.0804 -3.4552
12694SOL     OW41673   8.580  10.539  10.573  0.3884  0.0042  0.3072
12694SOL    HW141674   8.534  10.608  10.526  0.2783 -0.6985 -0.6350
12694SOL    HW241675   8.673  10.554  10.554  0.4063  0.2189  0.5570
12695SOL     OW41676   7.860   2.737   0.710  0.1294  0.4741  0.1366
12695SOL    HW141677   7.914   2.753   0.633 -1.1993 -0.9739 -1.1549
12695SOL    HW241678   7.786   2.685   0.678 -0.1601 -0.7202  2.4745
12696SOL     OW41679   0.554   9.478   6.148 -0.2977 -0.1219 -0.3705
12696SOL    HW141680   0.498   9.402   6.134 -0.8677  0.4548 -1.3083
12696SOL    HW241681   0.590   9.465   6.236  0.6473 -2.1237 -0.9955
12697SOL     OW41682   6.851   2.408   2.722  0.0414  0.1982 -0.0594
12697SOL    HW141683   6.880   2.338   2.780  2.5468  1.2758  0.1305
12697SOL    HW241684   6.871   2.377   2.634  0.0667  0.1943 -0.0524
12698SOL     OW41685   3.381   1.800   6.238 -0.0441 -0.2250 -0.6033
12698SOL    HW141686   3.473   1.807   6.265 -0.4720  0.4773  0.7299
12698SOL    HW241687   3.331   1.823   6.316 -1.3514  1.2138 -1.8154
12699SOL     OW41688   2.207   3.924  10.959  0.0109  0.9004  0.4140
12699SOL    HW141689   2.117   3.953  10.978  0.2644  1.8085  0.2859
12699SOL    HW241690   2.208   3.908  10.865  0.0107  0.9889  0.3986
12700SOL     OW41691   6.126   8.043   4.596  0.4896 -0.1365  0.0841
12700SOL    HW141692   6.139   8.034   4.501  0.1209 -1.1995  0.1106
12700SOL    HW241693   6.149   8.133   4.616 -2.5258  1.1509 -1.5644
12701SOL     OW41694   2.264   1.278   5.857  0.0599  0.5159 -0.2773
12701SOL    HW141695   2.231   1.368   5.861  1.5286  1.1111 -0.5692
12701SOL    HW241696   2.358   1.287   5.876 -0.0687 -1.1863  1.4144
12702SOL     OW41697  10.303   7.365   2.931 -0.9527  0.4580  0.1361
12702SOL    HW141698  10.247   7.351   2.855 -1.0248  0.8892  0.1051
12702SOL    HW241699  10.279   7.453   2.962 -1.1285  0.1692  0.8276
12703SOL     OW41700   2.579   3.154   6.391  0.2277  0.2818  0.2658
12703SOL    HW141701   2.545   3.242   6.410  0.2537  0.4646 -0.5057
12703SOL    HW241702   2.673   3.161   6.408  0.1338  0.2306  0.8085
12704SOL     OW41703   7.642   9.067   1.900 -0.0355  0.1673 -0.0163
12704SOL    HW141704   7.725   9.063   1.946 -0.2551  1.8921  0.6012
12704SOL    HW241705   7.591   9.133   1.947 -1.6346 -0.6062 -0.5820
12705SOL     OW41706   2.908  10.624   2.715 -0.0458 -0.2442 -0.1947
12705SOL    HW141707   2.889  10.677   2.638  0.2998  1.3441  0.7615
12705SOL    HW241708   2.829  10.630   2.769  0.3192  0.0246  0.3171
12706SOL     OW41709   0.331   2.141   3.733  0.5537  0.5095  0.1981
12706SOL    HW141710   0.376   2.177   3.656 -0.4376  1.2644 -0.0529
12706SOL    HW241711   0.363   2.051   3.739 -1.5051 -0.6236 -2.9388
12707SOL     OW41712   3.961   9.247   8.780 -0.5805 -0.2381 -0.1307
12707SOL    HW141713   3.968   9.181   8.711 -1.2284  0.2204 -0.6595
12707SOL    HW241714   3.900   9.209   8.843  0.3127 -0.8214  0.3895
12708SOL     OW41715   2.025   6.786   4.818  0.0214 -0.3775  0.5532
12708SOL    HW141716   2.000   6.841   4.892 -0.9792 -1.5135  1.0987
12708SOL    HW241717   2.070   6.712   4.857 -0.5595 -1.0111  0.0433
12709SOL     OW41718   0.283   6.534   8.255 -0.2524  0.0681 -0.1265
12709SOL    HW141719   0.377   6.518   8.246 -0.2948 -0.9140  0.9583
12709SOL    HW241720   0.276   6.594   8.329 -0.5237 -0.7896  0.5657
12710SOL     OW41721   7.207   8.877  10.669 -0.5958  0.5541  0.2552
12710SOL    HW141722   7.227   8.901  10.579  3.1263  1.5637  1.1874
12710SOL    HW241723   7.227   8.784  10.674 -3.0708 -0.0732 -0.4255
12711SOL     OW41724   9.925   8.983   9.603  0.0913 -0.4985  0.3868
12711SOL    HW141725   9.866   9.046   9.645  0.4794 -0.2371  0.5540
12711SOL    HW241726   9.868   8.928   9.550 -0.1956  0.3993 -0.2709
12712SOL     OW41727   5.282   3.322   2.104  0.1796 -0.0596 -0.4316
12712SOL    HW141728   5.256   3.257   2.039  1.4312 -0.9496 -0.0820
12712SOL    HW241729   5.307   3.399   2.053  1.2155 -0.7723 -1.0262
12713SOL     OW41730   1.566   4.906   7.319 -0.1914 -0.0590 -0.3368
12713SOL    HW141731   1.590   4.993   7.287  0.4286  0.3017  1.0109
12713SOL    HW241732   1.648   4.856   7.316  0.1865  0.3328  1.6697
12714SOL     OW41733   4.796   7.917   9.426 -0.1605  0.4506  0.0241
12714SOL    HW141734   4.798   8.013   9.425  0.4523  0.4603 -2.3727
12714SOL    HW241735   4.833   7.891   9.342 -1.1611 -1.8950  0.2361
12715SOL     OW41736   9.137   2.052   9.092 -0.6958 -0.1455  0.6281
12715SOL    HW141737   9.226   2.085   9.107 -0.5438 -0.0522 -0.4212
12715SOL    HW241738   9.081   2.129   9.104 -0.3951  0.4244 -1.1933
12716SOL     OW41739   5.080   7.956   8.309 -0.2414 -0.1555 -0.3450
12716SOL    HW141740   5.077   8.027   8.372  1.6943 -0.9274  0.7191
12716SOL    HW241741   5.009   7.897   8.335 -0.3121  0.1961  0.2596
12717SOL     OW41742   2.138   1.964   3.294 -0.0456 -0.4154 -0.4898
12717SOL    HW141743   2.102   1.998   3.212  1.2341  2.0557 -0.1087
12717SOL    HW241744   2.232   1.956   3.278  0.5931  2.2337  1.2973
12718SOL     OW41745   0.557   7.812  10.447  0.3244 -0.4222 -0.7284
12718SOL    HW141746   0.630   7.850  10.398  0.2154  2.8088  1.3069
12718SOL    HW241747   0.479   7.857  10.412 -0.1713 -0.7792 -0.1065
12719SOL     OW41748   0.958   1.288   4.493  0.0925 -0.2390 -0.2192
12719SOL    HW141749   0.991   1.198   4.490 -1.6982 -0.9304 -1.0409
12719SOL    HW241750   1.009   1.335   4.427  0.1522 -0.9948 -0.7204
12720SOL     OW41751   0.001   3.490  10.506 -0.3110 -0.6588  0.0808
12720SOL    HW141752   0.046   3.479  10.590  0.8824 -0.5990 -0.5386
12720SOL    HW241753  -0.087   3.456  10.522 -0.3068 -0.0518  1.5368
12721SOL     OW41754   1.766   7.575   4.090  0.1424 -0.4500 -0.1395
12721SOL    HW141755   1.861   7.571   4.076  0.1048 -1.3297 -0.2248
12721SOL    HW241756   1.755   7.552   4.183 -0.0995 -2.5822 -0.6270
12722SOL     OW41757   9.742   0.278   1.052 -0.2758  0.4179  0.6602
12722SOL    HW141758   9.646   0.279   1.058 -0.5071 -2.3786 -0.8944
12722SOL    HW241759   9.765   0.369   1.034 -2.5961  1.2333  1.3859
12723SOL     OW41760   6.233   8.878   9.105 -0.0073 -0.8213  0.1105
12723SOL    HW141761   6.312   8.897   9.157  0.8472 -0.7260 -1.1793
12723SOL    HW241762   6.222   8.955   9.049 -1.3272 -0.6131  0.6181
12724SOL     OW41763   6.041   9.884   0.216 -0.2742 -0.2155 -0.1416
12724SOL    HW141764   6.039   9.823   0.290  1.5316 -0.5719 -0.3616
12724SOL    HW241765   6.054   9.828   0.139 -0.8261  0.2699 -0.5955
12725SOL     OW41766   3.762   7.522   1.698  0.2503 -0.5530 -0.3370
12725SOL    HW141767   3.838   7.545   1.752 -1.6933  1.4739  1.7776
12725SOL    HW241768   3.781   7.434   1.667  2.7657 -0.7455  1.4018
12726SOL     OW41769  10.487   4.319   5.014  0.2197 -0.0174 -0.5020
12726SOL    HW141770  10.491   4.386   4.945  1.1163  1.0191  0.5018
12726SOL    HW241771  10.579   4.304   5.038 -0.0962  0.1715  0.9320
12727SOL     OW41772   0.566   7.190   6.841  0.5120  0.1351 -0.2331
12727SOL    HW141773   0.629   7.257   6.867 -0.1275  1.1096 -1.1832
12727SOL    HW241774   0.488   7.209   6.893  1.1865 -1.5258  1.5129
12728SOL     OW41775   2.963   5.565   3.905 -0.6140  0.3161 -0.3629
12728SOL    HW141776   2.976   5.490   3.964 -1.1899 -0.1447 -0.8084
12728SOL    HW241777   3.027   5.552   3.836 -0.4592  0.4389 -0.2426
12729SOL     OW41778   8.242   4.421   9.659  0.8854 -0.2819 -0.1476
12729SOL    HW141779   8.284   4.356   9.715  0.2323 -0.7817 -0.2221
12729SOL    HW241780   8.177   4.371   9.610  0.2812  0.4541 -0.1050
12730SOL     OW41781   4.123   1.522  10.402 -0.0181  0.6643  0.3817
12730SOL    HW141782   4.085   1.552  10.319 -1.7300  0.0304  0.8930
12730SOL    HW241783   4.060   1.550  10.468  0.9446  0.4781  1.4118
12731SOL     OW41784   9.832   8.393   1.990 -0.4717 -0.2691  0.1310
12731SOL    HW141785   9.868   8.311   2.024 -0.4884  0.5081  2.1309
12731SOL    HW241786   9.872   8.402   1.903  0.6354 -1.6655  0.4579
12732SOL     OW41787   4.576   1.980   7.171  0.0119  0.7905  0.3976
12732SOL    HW141788   4.609   2.000   7.259 -1.5794  0.8440  1.0086
12732SOL    HW241789   4.497   2.032   7.163 -2.4026 -2.5284  0.7238
12733SOL     OW41790   4.623   9.491   8.911 -0.1740 -0.1455  0.2495
12733SOL    HW141791   4.544   9.472   8.962  0.3975 -0.2183  1.1217
12733SOL    HW241792   4.640   9.584   8.927  0.4509 -0.3512  0.8322
12734SOL     OW41793   3.567  10.213  10.687 -0.4390 -0.1273  0.1951
12734SOL    HW141794   3.474  10.209  10.662 -0.0358 -1.4987 -1.1887
12734SOL    HW241795   3.582  10.133  10.736  0.6148 -1.3000 -1.9087
12735SOL     OW41796   9.309   6.647   7.892  0.2265 -0.0820  0.2057
12735SOL    HW141797   9.311   6.737   7.925  0.5402  0.0991 -0.2856
12735SOL    HW241798   9.395   6.612   7.916 -0.1297 -0.4705  0.9646
12736SOL     OW41799   3.828   7.313   1.372 -0.3644  0.1204  0.3415
12736SOL    HW141800   3.815   7.277   1.460  1.3247 -1.5374 -0.0093
12736SOL    HW241801   3.739   7.322   1.336 -0.9867 -2.7147  0.9163
12737SOL     OW41802  10.235   3.902   2.618  0.4423 -0.7593 -0.4151
12737SOL    HW141803  10.228   3.995   2.598  1.3973 -0.6655 -0.3624
12737SOL    HW241804  10.290   3.866   2.548 -0.8138 -1.5029 -1.0494
12738SOL     OW41805  10.570   0.846   5.975  0.7257 -0.0639 -0.0222
12738SOL    HW141806  10.501   0.850   5.909  1.3455 -1.4335 -0.7987
12738SOL    HW241807  10.624   0.772   5.949  2.5395  0.9883  0.5190
12739SOL     OW41808   9.971   2.956   2.928 -0.2941 -0.0258 -0.0947
12739SOL    HW141809   9.909   3.001   2.871  0.2584 -1.1163 -1.6135
12739SOL    HW241810   9.920   2.886   2.969 -0.5311  0.3363  0.2355
12740SOL     OW41811   3.884   5.614  10.585  0.4731  0.3770 -0.7427
12740SOL    HW141812   3.839   5.629  10.668  1.5690 -2.3023  0.4660
12740SOL    HW241813   3.869   5.521  10.566  1.5407  0.5530 -2.7293
12741SOL     OW41814   5.543   4.188   7.444  0.1902 -0.0814  0.2510
12741SOL    HW141815   5.505   4.164   7.359  0.2467  2.0703 -0.4439
12741SOL    HW241816   5.467   4.208   7.499  0.1253 -2.0583  0.9495
12742SOL     OW41817   6.534   2.968   5.056 -0.6455  0.1630  0.7716
12742SOL    HW141818   6.589   2.981   4.979 -2.5393 -2.1921 -1.1718
12742SOL    HW241819   6.595   2.949   5.127  1.1251  0.3841 -0.6280
12743SOL     OW41820   2.387   4.737  10.946 -0.2034  0.7338  0.3231
12743SOL    HW141821   2.431   4.656  10.971 -0.7275  0.4559  0.3595
12743SOL    HW241822   2.348   4.769  11.027 -0.5080  0.7058  0.1871
12744SOL     OW41823   4.097   1.257   5.936 -0.3380 -0.1365  0.1077
12744SOL    HW141824   4.139   1.341   5.957 -0.1515 -0.4429  1.0104
12744SOL    HW241825   4.010   1.264   5.974 -0.9072  0.2671 -1.2440
12745SOL     OW41826   6.356   4.494   0.888 -0.2277  0.2497 -0.0526
12745SOL    HW141827   6.279   4.550   0.874 -0.8208 -0.6690 -0.5754
12745SOL    HW241828   6.324   4.406   0.870  0.4312 -0.3826  1.7120
12746SOL     OW41829   4.957   6.517   8.699  0.1199 -0.5754 -0.2444
12746SOL    HW141830   4.910   6.558   8.626  1.0182  1.7827  0.4291
12746SOL    HW241831   4.889   6.486   8.758 -0.5967 -0.0782 -0.8025
12747SOL     OW41832   9.672   4.905   2.481  0.3176 -0.1558 -0.2004
12747SOL    HW141833   9.726   4.856   2.543  0.6684 -0.3753 -0.6712
12747SOL    HW241834   9.676   4.996   2.511  1.0905 -0.1421 -0.3263
12748SOL     OW41835   9.960   8.812   0.052  0.3776 -0.0541  0.1994
12748SOL    HW141836  10.031   8.801  -0.011  0.3301 -0.1773  0.1668
12748SOL    HW241837   9.911   8.730   0.048  0.1412  0.0894  0.1050
12749SOL     OW41838   5.153   0.832  10.168 -0.0533  0.3866  0.1711
12749SOL    HW141839   5.197   0.819  10.252  1.9906  1.1139 -0.7042
12749SOL    HW241840   5.151   0.927  10.157 -0.3443  0.3012 -0.5683
12750SOL     OW41841  10.510   8.666   7.346 -0.1654 -0.2728  0.2173
12750SOL    HW141842  10.422   8.670   7.309 -0.9106  0.6992  1.9496
12750SOL    HW241843  10.501   8.610   7.423  0.5091  0.5861  0.9391
12751SOL     OW41844   4.683   8.940   8.763  0.3292  0.1173 -0.1597
12751SOL    HW141845   4.775   8.933   8.738  0.8445 -1.0823  1.8687
12751SOL    HW241846   4.672   9.032   8.789  0.6734  0.4986 -1.2780
12752SOL     OW41847   0.986   1.125   6.072 -0.2891  0.2093 -0.2431
12752SOL    HW141848   0.912   1.082   6.029  0.1439  0.2085 -1.0011
12752SOL    HW241849   1.019   1.187   6.006 -0.3898  1.1195  0.5353
12753SOL     OW41850   6.429   2.502   2.753 -0.0562 -0.3968 -0.4491
12753SOL    HW141851   6.513   2.491   2.798 -0.9245 -0.8203  1.1292
12753SOL    HW241852   6.422   2.597   2.739 -0.7495  0.0745  2.4166
12754SOL     OW41853   6.779  10.122   2.720 -0.2571 -0.2913 -0.3601
12754SOL    HW141854   6.754  10.125   2.627 -0.4347  0.5148 -0.2943
12754SOL    HW241855   6.807  10.211   2.740  1.7418 -0.9202 -0.1610
12755SOL     OW41856   3.938   6.744  10.005  0.5193  0.2040  0.2964
12755SOL    HW141857   3.964   6.827   9.966 -1.2752 -0.3194 -2.2449
12755SOL    HW241858   4.008   6.684   9.981 -0.5556 -0.1164 -2.3842
12756SOL     OW41859   3.078   0.101   7.600 -0.2105  0.6478 -0.2440
12756SOL    HW141860   3.163   0.090   7.558  0.1793 -0.9275  0.8668
12756SOL    HW241861   3.049   0.012   7.619 -0.0004  1.1897  3.4226
12757SOL     OW41862   9.396   6.065   6.955 -0.3100 -0.8068  0.1390
12757SOL    HW141863   9.398   5.997   6.888 -0.9829 -1.6155  0.9114
12757SOL    HW241864   9.303   6.086   6.965 -0.0834  0.5872 -0.4222
12758SOL     OW41865   3.240   9.382   3.732 -0.2604 -0.7121 -0.2770
12758SOL    HW141866   3.245   9.340   3.646  0.1210 -1.3522  0.0507
12758SOL    HW241867   3.246   9.310   3.794  2.0866 -0.0932  0.3276
12759SOL     OW41868   4.567  10.099   8.682 -0.4548 -0.2759 -0.3509
12759SOL    HW141869   4.658  10.074   8.698 -1.0422 -1.4695  1.5613
12759SOL    HW241870   4.541  10.048   8.606 -0.8815 -3.9758  2.0004
12760SOL     OW41871   4.221  10.296   2.833 -0.0997  0.0138  0.0478
12760SOL    HW141872   4.182  10.271   2.749 -1.6580 -0.4381  0.8671
12760SOL    HW241873   4.307  10.252   2.834  0.4926  1.0607 -1.8200
12761SOL     OW41874   1.472   5.632   7.883  0.0899 -0.2523  0.2581
12761SOL    HW141875   1.493   5.588   7.965  0.2733  0.7258  0.7564
12761SOL    HW241876   1.398   5.583   7.847  1.4085 -2.0680 -0.1241
12762SOL     OW41877   5.580   7.225   6.388 -0.0345  0.0820  0.8156
12762SOL    HW141878   5.526   7.251   6.313 -0.9262 -1.6227  0.8068
12762SOL    HW241879   5.646   7.167   6.351 -0.5917 -0.9206  1.3327
12763SOL     OW41880   6.953   9.037   8.484  0.2294  0.1230 -0.1228
12763SOL    HW141881   6.908   8.969   8.435  0.6685  0.2825 -0.7558
12763SOL    HW241882   7.045   9.013   8.481  0.1768 -0.4044  1.4944
12764SOL     OW41883   7.897   8.481   0.288  0.7826  0.3814 -0.2263
12764SOL    HW141884   7.967   8.544   0.273 -0.3682  1.6498 -0.5243
12764SOL    HW241885   7.821   8.535   0.309 -0.3555 -0.8907 -0.9010
12765SOL     OW41886   4.449   7.494   9.545  0.3861 -0.1297 -0.0678
12765SOL    HW141887   4.471   7.414   9.593  0.4077  0.8171  1.5565
12765SOL    HW241888   4.376   7.468   9.488  0.1345 -1.2068  0.7177
12766SOL     OW41889   0.420   7.889   1.953  0.2724 -0.1664  0.2832
12766SOL    HW141890   0.373   7.882   1.870  1.1099  1.2326 -0.3234
12766SOL    HW241891   0.359   7.936   2.011  0.0564 -0.3166  0.1788
12767SOL     OW41892   4.646   5.926   6.716  0.0633  0.2492  0.7251
12767SOL    HW141893   4.719   5.918   6.654 -0.9292 -1.6235 -0.2790
12767SOL    HW241894   4.648   6.018   6.743 -0.5819  1.7605 -3.5453
12768SOL     OW41895   1.840   8.296   2.474 -0.5613  0.0428  0.2975
12768SOL    HW141896   1.780   8.370   2.473  0.1423  0.6221 -0.6728
12768SOL    HW241897   1.906   8.319   2.540 -0.2466  0.3631 -0.1271
12769SOL     OW41898   2.677   6.272   2.205 -0.7980  0.4737  0.3331
12769SOL    HW141899   2.643   6.200   2.152 -1.1729  0.2194  0.9068
12769SOL    HW241900   2.645   6.351   2.161  0.2858  0.3288 -0.7542
12770SOL     OW41901  11.058  10.123   9.903 -0.1294  0.3730 -0.5248
12770SOL    HW141902  11.122  10.186   9.870 -0.3746  2.0105  1.9025
12770SOL    HW241903  10.986  10.176   9.937 -0.6877 -1.2177  0.9315
12771SOL     OW41904   0.422   2.769   1.086 -0.4888 -0.6351  0.1469
12771SOL    HW141905   0.329   2.785   1.101 -0.4986  1.3670 -1.5648
12771SOL    HW241906   0.430   2.759   0.991  1.3724  2.4123 -0.1406
12772SOL     OW41907   7.977  10.290   9.466  0.2820  0.4070 -0.6901
12772SOL    HW141908   8.036  10.340   9.523  0.7768  0.6284 -1.3805
12772SOL    HW241909   7.938  10.356   9.408  1.1886 -0.0192 -1.8282
12773SOL     OW41910   0.296   8.742   9.279  0.1575 -0.0653  0.2582
12773SOL    HW141911   0.302   8.835   9.298 -1.3840  0.2285 -0.5699
12773SOL    HW241912   0.293   8.700   9.365  0.5255  0.6617  0.6330
12774SOL     OW41913   6.751   4.679   0.619 -0.0690 -0.2807 -0.4883
12774SOL    HW141914   6.814   4.708   0.553  0.1452  0.2287 -0.0641
12774SOL    HW241915   6.715   4.598   0.583  0.1934 -0.1174 -1.1354
12775SOL     OW41916   6.551   6.514   7.136 -0.0740 -0.7507  0.0594
12775SOL    HW141917   6.485   6.546   7.197  2.4741  0.9157  2.1402
12775SOL    HW241918   6.606   6.590   7.117  2.4336 -2.4436  0.0571
12776SOL     OW41919   7.085   3.644   8.750  0.1265 -0.2269  0.3230
12776SOL    HW141920   7.014   3.595   8.709  0.6973 -0.9223  0.1303
12776SOL    HW241921   7.042   3.716   8.796 -0.6278 -0.1180 -0.5200
12777SOL     OW41922   9.331   2.805   5.164 -0.3061  0.2697 -0.3723
12777SOL    HW141923   9.374   2.726   5.197 -0.5485 -0.7616 -2.3339
12777SOL    HW241924   9.278   2.836   5.237  1.7193  0.0946  1.2643
12778SOL     OW41925   1.776   4.411   4.244  0.0231 -0.5616  0.5797
12778SOL    HW141926   1.743   4.496   4.217  0.1839 -0.6907 -0.0373
12778SOL    HW241927   1.736   4.349   4.182  2.9022 -0.5413 -1.5001
12779SOL     OW41928   8.640   6.756   5.361 -0.3928 -0.2591  0.9072
12779SOL    HW141929   8.563   6.759   5.305 -0.4275  1.7288  1.0089
12779SOL    HW241930   8.636   6.669   5.402 -2.1845 -0.4618  0.3919
12780SOL     OW41931   5.643   9.007   3.213 -0.4187  0.3990 -0.0369
12780SOL    HW141932   5.705   9.070   3.176 -1.5054  1.9696  0.7420
12780SOL    HW241933   5.618   8.952   3.138  1.6964 -0.1590 -0.4204
12781SOL     OW41934   6.340   3.988   3.991  0.4861 -0.5160 -0.0119
12781SOL    HW141935   6.295   3.928   3.932  1.8589 -1.8705  0.2660
12781SOL    HW241936   6.298   3.974   4.076  1.7736 -2.2332  0.3857
12782SOL     OW41937   3.793   0.549   7.008 -0.4073  0.0114  0.3110
12782SOL    HW141938   3.723   0.612   7.025 -0.2373  0.5763 -0.9681
12782SOL    HW241939   3.748   0.467   6.992 -0.7847  0.3465 -0.3885
12783SOL     OW41940   4.583  10.876   2.053 -0.1791  0.0216 -0.3683
12783SOL    HW141941   4.603  10.911   2.140 -0.8394 -0.2262 -0.1088
12783SOL    HW241942   4.491  10.849   2.059 -0.2474  0.0654 -1.1659
12784SOL     OW41943   6.950   4.334   5.565 -0.3326 -0.1365  0.0822
12784SOL    HW141944   6.880   4.354   5.504 -0.7896 -0.4996  0.4772
12784SOL    HW241945   7.030   4.341   5.514 -0.7915 -2.0273 -0.9907
12785SOL     OW41946   5.700   0.623   0.930 -0.3466 -0.3567  0.1602
12785SOL    HW141947   5.715   0.568   1.006  0.9311 -0.8587 -0.4286
12785SOL    HW241948   5.754   0.701   0.945 -0.5993 -0.1613  0.0668
12786SOL     OW41949  10.331   2.558  10.717 -0.4282 -0.5778  0.6751
12786SOL    HW141950  10.240   2.578  10.694 -0.2050 -0.5026 -0.1882
12786SOL    HW241951  10.347   2.474  10.676  0.3563  0.1240 -0.5179
12787SOL     OW41952   9.844  10.450   7.060  0.6212  0.3731 -0.3492
12787SOL    HW141953   9.851  10.537   7.021  0.0535  0.2763 -0.6745
12787SOL    HW241954   9.799  10.465   7.143  0.7653  0.4267 -0.2810
12788SOL     OW41955   7.874   1.131   9.207 -0.5367  0.2665 -0.3641
12788SOL    HW141956   7.873   1.088   9.292  0.5053 -0.9892 -0.9529
12788SOL    HW241957   7.931   1.207   9.220  1.3957 -1.0942 -0.4265
12789SOL     OW41958   5.549   8.846   3.011  0.6784  0.0684 -0.1275
12789SOL    HW141959   5.562   8.832   2.917  2.0046 -0.6502  0.1522
12789SOL    HW241960   5.486   8.779   3.036 -0.5134  0.9255 -0.6711
12790SOL     OW41961   2.368   7.587   0.449  0.0626 -0.4186  0.0275
12790SOL    HW141962   2.353   7.681   0.443 -0.1396 -0.4348  0.2420
12790SOL    HW241963   2.425   7.567   0.375  0.0857 -0.1326 -0.0349
12791SOL     OW41964   3.266   0.164   3.345  0.1459 -0.6950  0.1089
12791SOL    HW141965   3.222   0.135   3.425  1.5923 -0.2362  1.1095
12791SOL    HW241966   3.289   0.256   3.362 -1.9548  0.3290 -1.9423
12792SOL     OW41967   1.512   8.975   4.442  0.1189  0.3692 -0.9172
12792SOL    HW141968   1.514   8.879   4.438 -0.1336  0.3693 -1.1044
12792SOL    HW241969   1.424   8.995   4.475  0.5010  0.5110  0.0292
12793SOL     OW41970   1.962   6.635   6.719  0.5018  0.3336  0.0561
12793SOL    HW141971   1.934   6.584   6.795 -0.4376 -1.1136 -1.1869
12793SOL    HW241972   1.933   6.724   6.737  0.3840  0.0369  1.4151
12794SOL     OW41973   6.813   0.958   5.860 -0.0056 -0.0508  0.4823
12794SOL    HW141974   6.830   1.051   5.874  0.0960 -0.0314  0.2237
12794SOL    HW241975   6.724   0.945   5.892 -0.5719  0.4428 -0.8502
12795SOL     OW41976   9.662   2.545   6.307  0.2032  0.0666  0.1116
12795SOL    HW141977   9.739   2.516   6.258  1.4763  1.4207  1.2187
12795SOL    HW241978   9.663   2.491   6.386 -0.6799 -0.7163 -0.3969
12796SOL     OW41979   8.847   9.701   2.298 -0.4962  0.4293 -0.3726
12796SOL    HW141980   8.831   9.773   2.237 -0.3573 -0.7931 -1.9335
12796SOL    HW241981   8.927   9.660   2.266 -1.2825 -1.2099 -0.3544
12797SOL     OW41982   0.309   6.439   5.361  0.2570 -0.0673  0.5091
12797SOL    HW141983   0.354   6.361   5.327 -0.5082 -0.4701  0.3952
12797SOL    HW241984   0.217   6.412   5.368 -0.3681  1.3929 -1.3277
12798SOL     OW41985   7.387   3.005   0.822 -0.0354 -0.7948 -0.0944
12798SOL    HW141986   7.309   3.025   0.873 -0.3094 -1.0814 -0.3962
12798SOL    HW241987   7.449   3.075   0.844  0.4257 -1.7182  1.7808
12799SOL     OW41988   0.067   0.091   6.576 -0.3555  0.3771  0.5017
12799SOL    HW141989   0.130   0.022   6.556 -3.7623 -2.3526 -1.8756
12799SOL    HW241990   0.099   0.129   6.658  1.7793 -4.0131  2.0011
12800SOL     OW41991   5.678   0.387   0.488 -0.3020  0.8384 -0.1120
12800SOL    HW141992   5.717   0.301   0.471 -1.0760  0.6545 -1.0338
12800SOL    HW241993   5.727   0.421   0.563  1.2981  0.4114 -0.9174
12801SOL     OW41994   5.171  10.958  10.064 -0.0504 -0.3860 -0.1367
12801SOL    HW141995   5.180  10.997   9.977 -1.0441 -0.0307 -0.0948
12801SOL    HW241996   5.116  11.020  10.112 -0.2301 -1.0061  0.4673
12802SOL     OW41997   1.077   0.114   4.824  0.1258  0.2930  0.3495
12802SOL    HW141998   1.037   0.113   4.911 -0.3210  0.3433  0.1474
12802SOL    HW241999   1.044   0.195   4.784 -1.5929 -0.8900 -0.7478
12803SOL     OW42000   2.110   3.597   5.639 -0.1079  0.4518 -0.0107
12803SOL    HW142001   2.119   3.515   5.687  1.7159  0.4802 -0.2348
12803SOL    HW242002   2.145   3.663   5.698  0.1383  0.7978 -0.5410
12804SOL     OW42003  10.909   3.514  10.885  0.2846 -0.4820  0.3338
12804SOL    HW142004  10.951   3.454  10.824 -0.3515 -0.0573 -0.5341
12804SOL    HW242005  10.843   3.460  10.929 -0.5013 -0.3522 -0.6713
12805SOL     OW42006   5.390   6.884   7.890 -0.3743 -0.7472 -0.2350
12805SOL    HW142007   5.434   6.893   7.974  1.0304 -0.0031 -1.0205
12805SOL    HW242008   5.347   6.968   7.875 -0.9350 -1.0049 -0.1026
12806SOL     OW42009   8.476   6.259   5.635  0.3040  0.1284 -0.3480
12806SOL    HW142010   8.503   6.175   5.598  0.3752  0.9350 -2.2202
12806SOL    HW242011   8.529   6.268   5.715 -0.3210 -1.9525  0.3623
12807SOL     OW42012   4.673   3.991   0.428 -0.5054 -0.1981  0.0445
12807SOL    HW142013   4.632   4.031   0.504 -1.0342 -0.8670  0.1242
12807SOL    HW242014   4.765   3.981   0.452 -0.9838 -1.9767  1.2752
12808SOL     OW42015   9.608   4.135   8.742  0.2622 -0.2468 -0.1795
12808SOL    HW142016   9.648   4.062   8.695  1.8484  1.5604 -1.8046
12808SOL    HW242017   9.541   4.168   8.682  0.7091  0.6374 -0.2066
12809SOL     OW42018   0.249   1.485   8.997  0.4143 -0.5761  0.5213
12809SOL    HW142019   0.336   1.520   8.977 -0.1158  0.4131 -0.1481
12809SOL    HW242020   0.195   1.513   8.923 -0.5696 -0.8401  1.1299
12810SOL     OW42021   2.151   2.320   6.626  0.4913  0.0608  0.7913
12810SOL    HW142022   2.191   2.406   6.638 -1.4780  1.2613 -0.5552
12810SOL    HW242023   2.080   2.318   6.690 -0.2992  0.0143 -0.0719
12811SOL     OW42024   1.965   0.103   1.931 -0.6336 -0.4054 -0.1244
12811SOL    HW142025   2.008   0.188   1.926  0.5022 -1.0178 -1.5626
12811SOL    HW242026   1.883   0.120   1.977  0.6466  0.9999  1.8117
12812SOL     OW42027   5.803   2.189   6.653  0.3450  0.7462 -0.1149
12812SOL    HW142028   5.767   2.105   6.625  0.3174  1.0053 -0.9029
12812SOL    HW242029   5.822   2.235   6.571  0.8928  1.2817  0.3032
12813SOL     OW42030   5.790   1.987   2.214  0.0579 -0.4733 -0.1710
12813SOL    HW142031   5.788   1.893   2.197 -2.0508 -0.5375  0.2433
12813SOL    HW242032   5.773   2.027   2.129 -1.0327 -0.5371  0.0075
12814SOL     OW42033   0.164   9.374  11.096 -0.5154 -0.4081 -0.0542
12814SOL    HW142034   0.116   9.457  11.090  2.1650  1.2696  0.2041
12814SOL    HW242035   0.132   9.334  11.178  0.4127  1.9853  1.5864
12815SOL     OW42036   9.468   3.870   9.658 -0.1374 -0.0302  0.2502
12815SOL    HW142037   9.439   3.799   9.601 -0.9257  0.8909 -0.5276
12815SOL    HW242038   9.492   3.941   9.599  0.6780  0.3554  1.0103
12816SOL     OW42039   3.904   4.266   7.211 -0.2974 -0.5942  0.1343
12816SOL    HW142040   3.833   4.304   7.159 -0.0373  1.0142  0.8979
12816SOL    HW242041   3.861   4.229   7.288 -0.3147  0.7143  0.7860
12817SOL     OW42042   7.372  10.721  10.235  0.1756 -0.7833 -0.2153
12817SOL    HW142043   7.420  10.657  10.287 -0.9366 -1.0674  0.4868
12817SOL    HW242044   7.425  10.800  10.239  1.3041 -1.4940 -0.6610
12818SOL     OW42045   8.463   0.983   8.315 -0.1459 -0.3560 -0.1245
12818SOL    HW142046   8.539   0.952   8.266 -0.8517 -3.4266  0.4940
12818SOL    HW242047   8.495   0.997   8.404 -0.2676 -1.8155  0.1771
12819SOL     OW42048  10.141   2.817   6.307  0.0055 -0.6798 -0.2193
12819SOL    HW142049  10.173   2.853   6.389 -1.0915 -0.9109  0.3347
12819SOL    HW242050  10.098   2.735   6.331 -0.5637 -0.6222 -0.9816
12820SOL     OW42051   9.600   0.349   3.762  0.1761  0.2836  0.9037
12820SOL    HW142052   9.555   0.282   3.711 -0.7727  0.1989  1.8241
12820SOL    HW242053   9.540   0.423   3.763 -0.1956 -0.0142  2.5903
12821SOL     OW42054   2.357   9.969   6.870  0.1912  0.0665 -0.8321
12821SOL    HW142055   2.401   9.892   6.905 -2.4664 -0.8420  0.8312
12821SOL    HW242056   2.322  10.014   6.947 -0.3531  1.6204 -1.9322
12822SOL     OW42057   0.300  10.154   9.203  0.1500  0.5652  0.0374
12822SOL    HW142058   0.296  10.239   9.246  1.1222  0.5573  0.1761
12822SOL    HW242059   0.387  10.120   9.226  0.3387  0.1704 -1.1819
12823SOL     OW42060   2.365   6.779  10.877  0.1278  0.6603  0.4729
12823SOL    HW142061   2.346   6.688  10.898  4.3189 -0.6363 -0.4160
12823SOL    HW242062   2.343   6.787  10.784 -1.2177  0.9540  0.7889
12824SOL     OW42063   8.991   9.574   4.507 -0.4602 -0.2702 -0.1714
12824SOL    HW142064   9.084   9.571   4.487 -0.5622 -0.4317 -0.6330
12824SOL    HW242065   8.984   9.635   4.580 -0.3720  2.4560 -2.2988
12825SOL     OW42066  10.149   2.080   4.784 -0.0722  0.2028  0.3178
12825SOL    HW142067  10.124   2.005   4.838 -1.1939 -0.2680 -0.8231
12825SOL    HW242068  10.124   2.156   4.836 -0.1840 -0.2183  0.8961
12826SOL     OW42069   9.400   0.847   2.038  0.5641  0.5874 -0.4870
12826SOL    HW142070   9.320   0.883   2.078  0.9216  2.0939 -1.0423
12826SOL    HW242071   9.416   0.766   2.086 -0.7715  0.7358  0.2778
12827SOL     OW42072   2.048   8.479   3.248 -0.6916 -0.1482  0.1770
12827SOL    HW142073   1.969   8.430   3.228  0.4305 -2.8191  1.7671
12827SOL    HW242074   2.059   8.469   3.342  1.0139  1.0098  0.1421
12828SOL     OW42075   1.030   2.335   7.298 -0.1964 -0.4189 -0.0804
12828SOL    HW142076   1.081   2.255   7.287 -0.1950 -0.6441  1.4542
12828SOL    HW242077   0.940   2.305   7.308 -0.1429 -0.2617  0.9140
12829SOL     OW42078   5.574   2.406   5.392  0.0461 -0.0333  0.1991
12829SOL    HW142079   5.616   2.329   5.430  1.3182  1.1275  1.2634
12829SOL    HW242080   5.639   2.440   5.330 -0.8287 -0.2426 -0.8608
12830SOL     OW42081   1.081   7.170   7.797 -0.6265 -0.4141 -0.0093
12830SOL    HW142082   1.153   7.224   7.764 -0.3326 -0.2382  0.8933
12830SOL    HW242083   1.086   7.090   7.745  1.1189 -0.9912  0.9690
12831SOL     OW42084   1.503   6.618   9.175  0.0607  0.1080  0.6093
12831SOL    HW142085   1.564   6.570   9.119 -0.3426 -0.2764  0.4907
12831SOL    HW242086   1.519   6.710   9.155  1.0780  0.0495  1.0760
12832SOL     OW42087   2.739   5.662   1.270  0.4284 -0.0021  0.2099
12832SOL    HW142088   2.726   5.729   1.203  1.3223 -0.4135 -0.3965
12832SOL    HW242089   2.720   5.707   1.353  2.1301  1.3703 -0.0661
12833SOL     OW42090   9.700   9.415   0.494 -0.3765 -0.5172 -0.5067
12833SOL    HW142091   9.623   9.443   0.444  0.3793 -0.4065 -1.6371
12833SOL    HW242092   9.771   9.468   0.460 -0.0823  0.6145  1.7276
12834SOL     OW42093   4.362   3.339   3.735  1.3035 -0.0580 -0.4129
12834SOL    HW142094   4.443   3.380   3.703  0.7198  0.2217 -1.5888
12834SOL    HW242095   4.303   3.342   3.660 -0.0690  0.4427  0.6509
12835SOL     OW42096   9.198   9.783   5.731 -0.2811  0.0929 -0.3212
12835SOL    HW142097   9.271   9.818   5.782 -1.0105 -0.6238  1.2688
12835SOL    HW242098   9.210   9.821   5.644  1.9467  0.0445 -0.1043
12836SOL     OW42099  10.084   2.336   6.877 -0.0026 -0.5069 -0.0739
12836SOL    HW142100  10.073   2.338   6.972 -0.3906 -0.2339 -0.1223
12836SOL    HW242101  10.178   2.331   6.864 -0.0019 -2.3233  0.3499
12837SOL     OW42102   4.733   1.379   7.417 -0.5183 -0.1223 -0.4048
12837SOL    HW142103   4.738   1.290   7.381 -1.2200  0.5151 -2.1958
12837SOL    HW242104   4.753   1.435   7.343 -0.8317  1.2531  0.5265
12838SOL     OW42105   7.592   3.695   9.905  0.3192 -0.1032  0.7230
12838SOL    HW142106   7.617   3.781   9.940 -0.5776  0.4735 -0.0163
12838SOL    HW242107   7.519   3.668   9.960  0.6222 -0.4191  0.9763
12839SOL     OW42108   5.727   5.867   6.632  0.0687  0.7345  0.2140
12839SOL    HW142109   5.706   5.912   6.550 -0.0577  0.3133  0.0152
12839SOL    HW242110   5.802   5.812   6.611 -0.9422 -0.5875 -0.0418
12840SOL     OW42111   0.862   9.694   4.450  0.0780  0.4820  0.6932
12840SOL    HW142112   0.882   9.656   4.536 -0.9779  0.4855  0.9564
12840SOL    HW242113   0.903   9.635   4.387  0.4329  0.2043  1.1820
12841SOL     OW42114   3.992   7.576   3.429  0.4908 -0.0587 -0.0481
12841SOL    HW142115   3.905   7.540   3.446  0.2528  1.1746  1.5415
12841SOL    HW242116   3.979   7.633   3.353 -0.0899  0.1061  0.1691
12842SOL     OW42117   2.455   8.103   3.635  0.4670  0.5957 -0.4904
12842SOL    HW142118   2.474   8.168   3.567 -0.3609 -0.1798 -1.5134
12842SOL    HW242119   2.540   8.079   3.670  0.9950  0.5311 -1.7450
12843SOL     OW42120   3.813   4.303   3.712  0.2074  0.2919 -0.3249
12843SOL    HW142121   3.732   4.295   3.761  0.1400  0.7555 -0.3591
12843SOL    HW242122   3.813   4.227   3.653 -1.3451  1.5122 -2.0009
12844SOL     OW42123   9.789   0.402   3.927  0.5864  0.0899  0.3339
12844SOL    HW142124   9.719   0.373   3.868  0.2050 -0.5114  1.0697
12844SOL    HW242125   9.856   0.437   3.868 -0.0598  0.0961 -0.4196
12845SOL     OW42126   9.448   9.105   7.681  0.3190 -0.2109  0.2675
12845SOL    HW142127   9.502   9.145   7.613  1.3411 -0.9242  0.6381
12845SOL    HW242128   9.450   9.011   7.661 -0.0596 -0.3395  0.8087
12846SOL     OW42129   8.744   3.561   5.805  0.0595 -0.4083  0.0083
12846SOL    HW142130   8.709   3.473   5.791 -1.0683  0.4490 -3.3427
12846SOL    HW242131   8.668   3.613   5.832  0.6621 -0.3313  1.6738
12847SOL     OW42132   7.420   3.862   3.098 -0.7029  0.4156 -0.1508
12847SOL    HW142133   7.408   3.954   3.120 -1.0969  0.5816 -0.9849
12847SOL    HW242134   7.390   3.814   3.175 -1.7699  0.9664 -0.2067
12848SOL     OW42135   8.812   3.053   5.958  0.4892  0.4801  0.0232
12848SOL    HW142136   8.887   3.094   6.001  2.4958 -1.7015 -1.1444
12848SOL    HW242137   8.848   3.015   5.878 -2.3186  1.0748 -1.6711
12849SOL     OW42138   9.071   7.643   9.796 -0.2596 -0.3475 -0.4284
12849SOL    HW142139   9.033   7.643   9.708 -0.2524 -1.9541 -0.4595
12849SOL    HW242140   9.095   7.735   9.812  0.8702 -0.2020 -2.5878
12850SOL     OW42141   1.079   5.243   3.366  0.1346  0.5649  0.4537
12850SOL    HW142142   1.109   5.293   3.442  0.0192  0.5401  0.5156
12850SOL    HW242143   1.151   5.250   3.303  1.0082 -0.8839  1.2294
12851SOL     OW42144   4.602   5.343   7.321  0.4194 -0.1041 -0.3457
12851SOL    HW142145   4.541   5.417   7.315 -0.1707 -0.5550 -0.0148
12851SOL    HW242146   4.636   5.332   7.232  1.2055  1.1347 -0.2183
12852SOL     OW42147   2.834   6.291   3.436 -0.0299  0.4822 -0.3981
12852SOL    HW142148   2.773   6.326   3.501 -1.4598  1.8452 -2.3744
12852SOL    HW242149   2.844   6.361   3.372  0.8647 -1.0108 -1.9693
12853SOL     OW42150   6.773   3.938   4.324  0.2263  0.3844 -0.5656
12853SOL    HW142151   6.846   3.877   4.339 -0.3183 -0.2466 -0.4357
12853SOL    HW242152   6.790   3.975   4.238  1.0348  0.7191 -0.2760
12854SOL     OW42153   4.834   8.301   4.375 -0.6626  0.5247  0.6488
12854SOL    HW142154   4.915   8.313   4.425 -0.2943  0.1115  0.1610
12854SOL    HW242155   4.863   8.286   4.285 -1.3232  1.3746  0.2781
12855SOL     OW42156   2.556   1.742   3.974 -0.0971 -0.4601  0.3333
12855SOL    HW142157   2.504   1.673   3.934 -2.1813  1.2531 -0.1050
12855SOL    HW242158   2.551   1.724   4.068 -1.5812 -0.3158  0.3039
12856SOL     OW42159   9.431   6.220   8.002  0.6358 -0.6307  0.3019
12856SOL    HW142160   9.361   6.277   7.968  0.2763 -0.0224  1.9842
12856SOL    HW242161   9.397   6.131   7.990 -0.4858 -0.3392  1.1746
12857SOL     OW42162  10.459  10.063   9.797 -0.6154 -0.0935  0.4811
12857SOL    HW142163  10.430  10.089   9.709  0.7687  0.3038  0.1085
12857SOL    HW242164  10.492  10.144   9.836  0.4430 -0.5919  0.6715
12858SOL     OW42165   3.081   4.235  10.533  0.1407 -1.0965  0.7412
12858SOL    HW142166   3.067   4.326  10.558 -0.4822 -0.0496 -2.7475
12858SOL    HW242167   3.170   4.215  10.560  0.8951  1.1594  0.1088
12859SOL     OW42168   8.493   3.268  10.731  0.2629  0.0462 -0.3548
12859SOL    HW142169   8.575   3.238  10.693 -0.5443 -0.6420 -1.6275
12859SOL    HW242170   8.431   3.267  10.658 -1.0182 -0.0130  0.7016
12860SOL     OW42171  10.941   0.981   9.749  0.3642 -0.3255  0.0862
12860SOL    HW142172  10.941   1.074   9.727 -0.1637 -0.8069 -2.1836
12860SOL    HW242173  10.970   0.937   9.669 -1.3595 -2.2241  0.4131
12861SOL     OW42174   6.082   2.304   1.280 -0.3326 -0.2881 -0.3758
12861SOL    HW142175   6.070   2.386   1.328  0.1327 -1.2969  1.5455
12861SOL    HW242176   6.012   2.247   1.311 -0.2014 -0.8818 -1.1404
12862SOL     OW42177   2.911   3.576   9.180  0.1448 -0.2994 -0.0834
12862SOL    HW142178   2.827   3.607   9.145 -0.1456  0.0541  0.9032
12862SOL    HW242179   2.902   3.585   9.275  2.4841  2.9396 -0.0101
12863SOL     OW42180   6.632   9.953  10.543 -0.3516 -0.2031 -0.6365
12863SOL    HW142181   6.572   9.958  10.618 -1.4333 -1.5073 -1.3864
12863SOL    HW242182   6.626  10.039  10.502 -0.7570  0.0922  0.0218
12864SOL     OW42183   4.429   7.281   4.382  0.6728 -0.6855  0.0589
12864SOL    HW142184   4.402   7.315   4.296 -0.6252  0.2127  0.7875
12864SOL    HW242185   4.410   7.352   4.443  0.5396 -1.7032  1.2491
12865SOL     OW42186   9.120   6.265   4.534 -0.4379 -0.3144  0.1977
12865SOL    HW142187   9.193   6.234   4.481 -0.5672  0.1908 -0.2897
12865SOL    HW242188   9.123   6.212   4.614 -0.5188 -1.4195 -0.5031
12866SOL     OW42189   9.656   5.209   5.332  0.2095 -0.0316  0.1180
12866SOL    HW142190   9.701   5.220   5.415  1.4709 -3.3241  0.0204
12866SOL    HW242191   9.574   5.164   5.354  0.6007 -1.0232 -0.3886
12867SOL     OW42192   8.544   1.909  10.505 -0.0830  0.2759 -0.2565
12867SOL    HW142193   8.604   1.834  10.509  1.8408  1.7627  0.3947
12867SOL    HW242194   8.575   1.968  10.573 -2.7098  0.8927  0.5107
12868SOL     OW42195   2.804   2.196   2.962  0.6693 -1.0283 -0.1124
12868SOL    HW142196   2.710   2.198   2.944  0.1669  2.0751  2.1063
12868SOL    HW242197   2.811   2.161   3.050  1.6830 -1.8333 -0.4940
12869SOL     OW42198   6.663   5.383   6.113  0.0038 -0.3460 -0.2537
12869SOL    HW142199   6.651   5.472   6.081 -0.5134 -0.0966  0.6154
12869SOL    HW242200   6.748   5.356   6.076  0.3711  0.6579 -0.1782
12870SOL     OW42201   8.773   7.920   0.692 -0.0287  0.0230  0.2023
12870SOL    HW142202   8.809   7.832   0.702  0.4092 -0.2214 -2.6876
12870SOL    HW242203   8.686   7.906   0.654 -0.5231  0.8386  0.9904
12871SOL     OW42204   8.652   3.806   0.574  0.6436  0.3532  0.3459
12871SOL    HW142205   8.729   3.836   0.622  0.1930  1.0592  0.6448
12871SOL    HW242206   8.578   3.833   0.628  0.1560  0.4529 -0.3528
12872SOL     OW42207   2.331   5.207   2.166  0.3805  0.7344 -0.3728
12872SOL    HW142208   2.369   5.195   2.253 -2.1612  0.5441  0.7938
12872SOL    HW242209   2.333   5.302   2.151  0.3130  0.8225  0.1588
12873SOL     OW42210   8.693   6.693   8.985  0.0921  0.2977  0.8985
12873SOL    HW142211   8.630   6.754   9.022 -0.8320  0.2378 -0.5178
12873SOL    HW242212   8.695   6.620   9.047  0.8391  1.4902  2.3466
12874SOL     OW42213   3.176   6.055   7.772  0.4178  0.0937 -0.2122
12874SOL    HW142214   3.153   5.970   7.810 -1.5724  0.5212 -0.3260
12874SOL    HW242215   3.170   6.116   7.845 -0.9540  0.5303 -0.6437
12875SOL     OW42216   4.977   9.347   2.695 -0.3250 -0.2700  0.1442
12875SOL    HW142217   4.938   9.411   2.635  1.0007 -0.7414 -1.2714
12875SOL    HW242218   5.041   9.398   2.745  1.2410 -0.5314 -1.4683
12876SOL     OW42219   6.358  11.037  10.168 -0.1655  0.2421 -0.6810
12876SOL    HW142220   6.268  11.004  10.171 -0.1999  0.3450 -0.5489
12876SOL    HW242221   6.406  10.981  10.229 -0.5503  1.3994  0.7517
12877SOL     OW42222  11.053   2.896   7.259  0.8624  0.1489  0.4843
12877SOL    HW142223  11.143   2.921   7.281  1.3133 -1.6372  0.7880
12877SOL    HW242224  11.046   2.805   7.288 -0.3546 -0.4509 -1.5245
12878SOL     OW42225   3.691   4.125   9.816  0.0045 -0.1653  0.2850
12878SOL    HW142226   3.710   4.046   9.867 -1.1674 -0.0939  0.8759
12878SOL    HW242227   3.759   4.128   9.749  1.1576 -0.6674  1.3921
12879SOL     OW42228   2.031   9.262   4.063 -0.2835 -0.0355 -0.1737
12879SOL    HW142229   1.973   9.255   4.139 -1.3467  1.6479 -0.7511
12879SOL    HW242230   2.026   9.177   4.021 -0.7320 -0.5722  0.9135
12880SOL     OW42231   5.468  10.568   6.113 -0.2364  0.2122 -0.7090
12880SOL    HW142232   5.543  10.543   6.061  0.4346  0.9317 -0.1253
12880SOL    HW242233   5.492  10.545   6.203 -1.3723 -1.0178 -0.6852
12881SOL     OW42234   1.016   9.071   8.117 -0.0792  0.2288 -0.1438
12881SOL    HW142235   1.015   8.996   8.176  1.4394  0.6265  0.4329
12881SOL    HW242236   0.995   9.033   8.031  0.1117 -0.7615  0.2271
12882SOL     OW42237   4.333   7.774   4.172 -0.0463  0.2113 -0.0993
12882SOL    HW142238   4.336   7.863   4.136 -0.1406  1.1707  2.1328
12882SOL    HW242239   4.411   7.768   4.227 -1.8224  0.2219  2.5725
12883SOL     OW42240   2.546   4.489   7.416 -0.2273  0.4460  0.1751
12883SOL    HW142241   2.519   4.573   7.378 -2.2004  0.6957  1.9349
12883SOL    HW242242   2.472   4.463   7.470  0.5174 -2.2511  0.0247
12884SOL     OW42243   2.111   1.567   7.161  0.2565 -0.0770 -0.3483
12884SOL    HW142244   2.051   1.617   7.105  0.6478 -0.4659 -1.1377
12884SOL    HW242245   2.198   1.591   7.129  0.4485 -1.4144 -0.9043
12885SOL     OW42246   5.288   7.264   8.471  0.3339 -0.3253 -0.0059
12885SOL    HW142247   5.195   7.243   8.479  0.1655 -0.9697 -2.6596
12885SOL    HW242248   5.333   7.179   8.481  0.4249 -0.4177 -1.1038
12886SOL     OW42249   9.208   7.206   4.279  0.1678 -0.0510  0.3669
12886SOL    HW142250   9.221   7.130   4.222 -2.3465  1.0972 -1.9805
12886SOL    HW242251   9.296   7.234   4.302  1.3770 -0.8548 -2.7114
12887SOL     OW42252   6.423   4.077   4.587 -0.7077 -0.2456 -0.3071
12887SOL    HW142253   6.427   4.031   4.670  0.3615  0.0750 -0.1635
12887SOL    HW242254   6.515   4.091   4.563 -0.9792  1.6248 -0.4231
12888SOL     OW42255   2.818   4.981   2.488  0.6097 -0.2981 -0.5849
12888SOL    HW142256   2.737   4.990   2.537  1.4152 -2.5876  1.3249
12888SOL    HW242257   2.887   4.988   2.553  1.9557  0.5876 -2.0200
12889SOL     OW42258   3.779   5.844   3.912  0.2300 -0.8704  0.0525
12889SOL    HW142259   3.860   5.793   3.917 -0.0448 -1.2911  0.2600
12889SOL    HW242260   3.773   5.887   3.998 -0.7680 -2.3954  0.7981
12890SOL     OW42261   3.788   5.057   3.484 -0.4666  0.3211 -0.3152
12890SOL    HW142262   3.832   5.141   3.481 -0.7152  0.4863  0.4796
12890SOL    HW242263   3.752   5.051   3.573 -2.1816  0.2652 -0.9784
12891SOL     OW42264   5.782   0.507   5.536 -0.0773 -0.1087  0.0335
12891SOL    HW142265   5.874   0.536   5.537 -0.4049  0.9523  0.9957
12891SOL    HW242266   5.747   0.543   5.454  0.1573  0.1473  0.0439
12892SOL     OW42267   4.115   0.797  10.065 -0.1858 -0.0128 -0.3341
12892SOL    HW142268   4.183   0.764  10.005  0.4378 -0.7960  0.7654
12892SOL    HW242269   4.164   0.851  10.127 -0.6245 -0.3382  0.2912
12893SOL     OW42270   3.572   2.870   9.158  0.0089 -0.7534 -0.4556
12893SOL    HW142271   3.591   2.904   9.070 -0.1768 -0.8832 -0.5455
12893SOL    HW242272   3.485   2.832   9.151 -0.3194 -0.0936 -0.0215
12894SOL     OW42273  10.865   3.572   3.351 -0.7313  0.1950 -0.4186
12894SOL    HW142274  10.937   3.560   3.413 -1.5418 -2.7614  0.1311
12894SOL    HW242275  10.863   3.490   3.302 -1.6893  1.5044 -2.7126
12895SOL     OW42276   5.471   7.276   3.542 -0.5193  0.3213  0.6315
12895SOL    HW142277   5.470   7.358   3.592 -0.0357 -0.6342  2.2611
12895SOL    HW242278   5.476   7.207   3.608  0.7157 -0.9747 -0.7387
12896SOL     OW42279   6.776   7.889   8.531  0.4210  0.1174 -0.0544
12896SOL    HW142280   6.706   7.841   8.486  1.5081 -1.8943  0.2452
12896SOL    HW242281   6.830   7.820   8.570  0.1721  1.6721  3.4366
12897SOL     OW42282   1.311   8.057   1.206 -0.3729 -0.3649 -0.0163
12897SOL    HW142283   1.243   8.038   1.142  0.3504 -0.8474 -0.6627
12897SOL    HW242284   1.305   8.152   1.221 -0.8738 -0.3321 -0.4064
12898SOL     OW42285   0.751   2.081   3.077  1.1918  0.0059 -0.4870
12898SOL    HW142286   0.708   2.159   3.042  0.9458 -0.1589 -0.5589
12898SOL    HW242287   0.686   2.012   3.067  0.7478  0.1306  1.1329
12899SOL     OW42288   8.413   7.971   0.116  0.2865  0.5673  0.0007
12899SOL    HW142289   8.318   7.976   0.114  0.1530 -0.2538  1.8547
12899SOL    HW242290   8.438   8.027   0.190  1.5827  3.7007 -2.5905
12900SOL     OW42291   9.325   6.234   3.132  0.0908 -0.0749 -0.2719
12900SOL    HW142292   9.370   6.313   3.102 -1.5287  0.2415 -2.0874
12900SOL    HW242293   9.299   6.253   3.222 -1.8687  2.2592 -1.2342
12901SOL     OW42294   3.171   3.690   9.123 -0.3199 -0.5104  0.3656
12901SOL    HW142295   3.092   3.637   9.131 -1.0998  0.4547 -0.5138
12901SOL    HW242296   3.146   3.776   9.158  0.0106  0.0777 -0.7549
12902SOL     OW42297   5.006   4.965   3.790  0.1702  0.1789  0.2852
12902SOL    HW142298   4.945   4.994   3.857  1.4821 -1.0601  2.1072
12902SOL    HW242299   4.956   4.903   3.737 -0.7634  0.8611  0.3415
12903SOL     OW42300   9.580   6.457   9.716 -0.7227 -0.0977 -0.1065
12903SOL    HW142301   9.617   6.381   9.761 -0.1293  0.3907  0.2544
12903SOL    HW242302   9.491   6.432   9.695 -0.3550 -1.1014 -0.4977
12904SOL     OW42303   0.151   2.956  10.493  0.2752  0.2211 -0.4719
12904SOL    HW142304   0.058   2.940  10.509  0.3895  0.1670  0.1560
12904SOL    HW242305   0.173   2.896  10.421 -0.1948  0.3039 -0.6887
12905SOL     OW42306   1.594   3.441   8.763  0.1261 -0.3586  0.3443
12905SOL    HW142307   1.667   3.444   8.701 -0.0141  0.0978  0.2025
12905SOL    HW242308   1.625   3.491   8.839 -0.2954  0.4420  0.0037
12906SOL     OW42309   5.455   6.695   2.077  0.0746  0.1521  0.6249
12906SOL    HW142310   5.415   6.608   2.085 -0.5528  0.4437  0.6229
12906SOL    HW242311   5.544   6.683   2.112  0.1317 -0.5865  0.2502
12907SOL     OW42312   7.768   6.018   3.210  0.3623 -0.1868 -0.4786
12907SOL    HW142313   7.817   5.936   3.210 -1.2901 -1.2256 -1.0387
12907SOL    HW242314   7.807   6.069   3.280  1.2836 -1.5369  0.0355
12908SOL     OW42315   2.330   3.478   9.910  0.1724 -0.1667  0.1484
12908SOL    HW142316   2.260   3.412   9.914  1.0692 -1.2217 -0.8820
12908SOL    HW242317   2.290   3.552   9.865  0.0340 -1.2512 -1.6255
12909SOL     OW42318   9.714   2.547   7.932 -0.2611  0.2564  0.1157
12909SOL    HW142319   9.679   2.636   7.928  2.6504  1.5891  1.1114
12909SOL    HW242320   9.650   2.493   7.886 -3.0957  2.5211  1.1203
12910SOL     OW42321   8.189   6.007   9.957  0.3434  0.3076  0.0536
12910SOL    HW142322   8.152   6.086   9.916 -0.7939  0.0335  0.5040
12910SOL    HW242323   8.116   5.971  10.008  0.5887 -1.4709 -0.7704
12911SOL     OW42324   6.660  11.009   6.614  0.0228  0.2746  0.4774
12911SOL    HW142325   6.670  11.082   6.552 -1.4775  0.1092 -0.0236
12911SOL    HW242326   6.602  11.044   6.682 -2.0288 -0.8633 -0.5905
12912SOL     OW42327   9.148   6.873  10.243 -0.3871  0.1556 -0.0938
12912SOL    HW142328   9.237   6.883  10.209 -0.0506  1.6577  1.1154
12912SOL    HW242329   9.093   6.873  10.165  0.6698 -1.1037 -0.8777
12913SOL     OW42330   3.584   1.901   2.495 -0.4940  0.0742 -0.3701
12913SOL    HW142331   3.523   1.859   2.435 -2.0073 -1.3062  2.0048
12913SOL    HW242332   3.548   1.884   2.582  2.9905 -0.3510  1.1415
12914SOL     OW42333   2.228   2.532   5.582 -0.0852 -0.6857 -0.0540
12914SOL    HW142334   2.162   2.475   5.545  0.9678 -0.8035 -1.8488
12914SOL    HW242335   2.258   2.486   5.661  0.7458 -2.6709 -1.4518
12915SOL     OW42336   4.018   6.229   9.796 -0.1705  0.4958 -0.0426
12915SOL    HW142337   4.036   6.172   9.871 -1.8892  0.4949  0.4054
12915SOL    HW242338   3.954   6.180   9.744  0.7001  0.6764 -1.3161
12916SOL     OW42339   2.864   9.589   0.029  0.8365  0.0695 -0.2538
12916SOL    HW142340   2.955   9.560   0.019  1.6705  2.3212  0.2159
12916SOL    HW242341   2.870   9.673   0.074 -1.5133  0.2087 -0.0544
12917SOL     OW42342   5.208   6.709   1.438 -0.2819  0.4181  0.0310
12917SOL    HW142343   5.174   6.771   1.373 -0.4021  1.9123  1.4670
12917SOL    HW242344   5.164   6.732   1.519 -0.7057 -1.9098  0.5378
12918SOL     OW42345   6.119  10.827   0.592 -0.1981 -0.1167  0.5842
12918SOL    HW142346   6.088  10.827   0.683 -2.2640  2.6977  0.0126
12918SOL    HW242347   6.132  10.919   0.571 -1.4311 -0.5124 -2.4588
12919SOL     OW42348   2.251   2.259   7.641  0.4021 -0.4654 -0.0031
12919SOL    HW142349   2.165   2.233   7.609 -0.0799 -0.1896  1.0277
12919SOL    HW242350   2.271   2.340   7.594  0.3614 -0.8275 -0.6571
12920SOL     OW42351   9.164   8.238   1.846  0.1050 -0.2813 -0.4487
12920SOL    HW142352   9.206   8.252   1.761 -0.2372 -0.5398 -0.6564
12920SOL    HW242353   9.208   8.161   1.882  0.0513 -0.3422 -0.5144
12921SOL     OW42354   6.089   6.189   6.545 -0.2851  0.7468  0.7018
12921SOL    HW142355   6.137   6.125   6.597  0.7390  1.2894  0.4639
12921SOL    HW242356   6.037   6.238   6.609  0.0097  0.5954  1.0592
12922SOL     OW42357   2.316   7.826   5.433  0.3201  0.4472 -0.1758
12922SOL    HW142358   2.346   7.902   5.482  2.3093 -0.9993  0.9971
12922SOL    HW242359   2.345   7.751   5.485 -1.9673 -1.1396 -1.0362
12923SOL     OW42360   5.000   6.201   7.344  0.3315 -0.0820  0.1603
12923SOL    HW142361   4.997   6.129   7.407  1.3459  0.0500  0.3708
12923SOL    HW242362   4.914   6.243   7.352 -0.6396 -1.7901 -0.6250
12924SOL     OW42363   7.617   7.575   0.178 -0.1703  0.3932  0.9396
12924SOL    HW142364   7.656   7.650   0.133 -0.1110  0.8819  1.7859
12924SOL    HW242365   7.612   7.602   0.270  1.9159 -1.4669  1.6783
12925SOL     OW42366   9.847   5.273   0.881 -0.4575  0.8556 -0.5280
12925SOL    HW142367   9.906   5.214   0.928 -0.6672  1.6704  0.8081
12925SOL    HW242368   9.904   5.322   0.822  0.2803  1.8257  0.9421
12926SOL     OW42369   7.254   7.166   9.848  0.1320  0.2197 -0.5005
12926SOL    HW142370   7.206   7.116   9.782 -3.3503  2.2249  0.3010
12926SOL    HW242371   7.267   7.104   9.920 -2.8274 -0.0588 -0.0950
12927SOL     OW42372   3.921  10.411   7.919 -0.0136 -0.0835  0.0846
12927SOL    HW142373   3.846  10.469   7.934 -1.3964 -1.4997 -0.9637
12927SOL    HW242374   3.930  10.410   7.823 -0.1529 -1.7024  0.0630
12928SOL     OW42375   3.797   9.326   8.114  0.3967  0.0808  0.0127
12928SOL    HW142376   3.755   9.408   8.088  0.9433  0.0494 -1.0115
12928SOL    HW242377   3.731   9.259   8.100  0.1082  0.2822  0.3913
12929SOL     OW42378   3.355   8.457   2.411 -0.1207  0.2726 -0.4287
12929SOL    HW142379   3.361   8.537   2.359  2.3140  0.8849  0.6405
12929SOL    HW242380   3.280   8.471   2.468 -1.2487  0.6875 -1.9444
12930SOL     OW42381   9.014   6.235   6.660 -0.3748 -0.1679  0.1842
12930SOL    HW142382   8.976   6.147   6.667 -0.0779 -0.3001  0.1204
12930SOL    HW242383   8.939   6.294   6.674 -0.4653 -0.4291  0.8145
12931SOL     OW42384   2.701   7.632   1.675  0.0773 -0.1161  0.1483
12931SOL    HW142385   2.654   7.714   1.659  1.4816  0.2806 -2.4450
12931SOL    HW242386   2.708   7.627   1.771 -1.2920  2.0216  0.4412
12932SOL     OW42387   1.538   9.444   4.730 -0.3379 -0.1760  0.0750
12932SOL    HW142388   1.496   9.475   4.810 -2.7121  0.4224 -1.3084
12932SOL    HW242389   1.529   9.516   4.668 -0.8366 -1.5194 -1.4882
12933SOL     OW42390   3.409   1.828   2.673  0.3454  0.0969  0.0606
12933SOL    HW142391   3.384   1.831   2.766  0.0661 -0.2048 -0.0038
12933SOL    HW242392   3.337   1.783   2.630  0.0708  0.9841 -0.4421
12934SOL     OW42393   9.994   7.090   9.364  0.9961  0.4698 -0.6254
12934SOL    HW142394   9.929   7.146   9.407  0.5446 -0.9065  0.5440
12934SOL    HW242395   9.998   7.011   9.418  3.3695  0.3474 -0.8884
12935SOL     OW42396   8.357   7.079   6.982 -0.3448 -0.5065  0.3591
12935SOL    HW142397   8.293   7.134   7.028 -1.3316  0.0661 -1.6005
12935SOL    HW242398   8.309   7.046   6.906  1.7789  0.1767 -1.3550
12936SOL     OW42399   9.311   6.295  10.643  0.0885  0.2388 -0.5846
12936SOL    HW142400   9.332   6.318  10.733  0.7017 -0.3834 -0.5623
12936SOL    HW242401   9.351   6.363  10.590  1.1050 -0.2573 -0.4716
12937SOL     OW42402   1.730   3.686   7.383  0.0252  0.0559 -0.2783
12937SOL    HW142403   1.700   3.765   7.339 -2.0433 -0.1693  0.6289
12937SOL    HW242404   1.685   3.614   7.339  1.5902 -0.6279 -0.8457
12938SOL     OW42405   6.882   6.871   6.961 -0.1911  0.3582 -0.1823
12938SOL    HW142406   6.854   6.942   7.018  0.7784  2.0168 -1.6773
12938SOL    HW242407   6.809   6.860   6.899 -0.1330  0.3938 -0.2576
12939SOL     OW42408   3.390   6.930   1.750  0.6038  0.2114 -0.2740
12939SOL    HW142409   3.456   6.869   1.781  0.1512 -0.8775 -1.3506
12939SOL    HW242410   3.435   6.982   1.683  1.2175  1.6673  1.2129
12940SOL     OW42411   1.213  10.954   5.573  0.0074  0.2120  0.1599
12940SOL    HW142412   1.302  10.985   5.556 -0.1890  0.9028  0.3730
12940SOL    HW242413   1.159  11.033   5.574 -0.4276 -0.0785  1.1387
12941SOL     OW42414  10.438   5.838   3.989 -0.2973 -0.3122 -0.5792
12941SOL    HW142415  10.533   5.843   3.990 -0.1319 -2.2989 -0.8505
12941SOL    HW242416  10.416   5.820   3.898 -1.1444  2.1789 -0.9422
12942SOL     OW42417   5.674   4.159   6.414  0.3244 -0.0708  0.3801
12942SOL    HW142418   5.618   4.235   6.432  0.0190 -0.0493 -0.5975
12942SOL    HW242419   5.616   4.098   6.368  0.7275 -0.6600  0.6461
12943SOL     OW42420  10.990   5.558   5.173 -0.3229 -0.1507  0.2318
12943SOL    HW142421  10.952   5.633   5.129 -0.1178 -0.0440  0.2337
12943SOL    HW242422  11.066   5.593   5.220  0.5779 -0.5817 -0.8425
12944SOL     OW42423   3.594   7.082   2.985  0.1009  0.4752 -0.0355
12944SOL    HW142424   3.626   6.993   2.998 -1.9085 -0.3369 -0.2173
12944SOL    HW242425   3.661   7.138   3.023  2.6815 -0.9393 -2.1721
12945SOL     OW42426   7.712   7.444   1.428 -0.3941  0.3713 -0.0884
12945SOL    HW142427   7.691   7.353   1.451 -0.6432  0.2847 -0.6405
12945SOL    HW242428   7.627   7.483   1.406 -0.2440  0.6384 -0.1953
12946SOL     OW42429   2.942   4.613   8.971 -0.1770 -0.7317  0.0902
12946SOL    HW142430   2.935   4.549   8.900 -1.6070 -1.0954  0.5188
12946SOL    HW242431   2.852   4.643   8.985  0.2619  0.2541  0.9146
12947SOL     OW42432   8.377   7.708   0.413  0.2280 -0.0005 -0.0786
12947SOL    HW142433   8.361   7.657   0.492  0.9297  0.3790  0.3114
12947SOL    HW242434   8.324   7.787   0.423  1.5622  0.8137  0.7771
12948SOL     OW42435   4.502   0.798   1.802 -0.2874 -0.4804  0.3685
12948SOL    HW142436   4.512   0.892   1.792 -2.7214 -0.1884 -0.0563
12948SOL    HW242437   4.499   0.764   1.712 -0.8468 -0.7526  0.4837
12949SOL     OW42438   8.048   7.542   6.672  0.0701  0.3940  0.1790
12949SOL    HW142439   8.072   7.452   6.693  0.5680  0.3472 -0.5735
12949SOL    HW242440   8.125   7.594   6.696 -0.6339  0.7849  1.7091
12950SOL     OW42441   4.257   3.670   0.258 -0.1790 -0.0264 -0.0612
12950SOL    HW142442   4.250   3.649   0.352  1.9528 -1.2661 -0.0935
12950SOL    HW242443   4.189   3.618   0.217 -0.2278 -0.5871  0.6902
12951SOL     OW42444   6.395   4.483   4.284  0.5792 -0.0602  0.2817
12951SOL    HW142445   6.345   4.461   4.362 -0.5090  0.6287 -0.2036
12951SOL    HW242446   6.353   4.432   4.214  1.2971 -0.3683  0.0604
12952SOL     OW42447   0.790   7.305   5.871  0.2397  0.1974 -0.2159
12952SOL    HW142448   0.802   7.300   5.776  1.4754  1.4466 -0.1550
12952SOL    HW242449   0.711   7.254   5.888  0.4446 -0.7151 -1.8150
12953SOL     OW42450   4.473   5.324   5.465  0.3186 -0.1448  0.6874
12953SOL    HW142451   4.470   5.409   5.508  0.6541  1.0264 -1.4700
12953SOL    HW242452   4.470   5.344   5.372  3.4011 -2.3089 -0.0269
12954SOL     OW42453   4.904   0.379   4.025 -0.0530  0.0242 -0.7459
12954SOL    HW142454   4.812   0.374   3.997  0.3052 -1.0659 -1.8348
12954SOL    HW242455   4.917   0.299   4.076  0.3798  0.0209 -0.8627
12955SOL     OW42456   3.013   4.004   1.707 -0.2407  0.3751 -0.2332
12955SOL    HW142457   3.046   3.968   1.790  0.8314 -0.0170 -0.8150
12955SOL    HW242458   2.918   4.000   1.715 -0.1674  0.9258  1.2303
12956SOL     OW42459   7.564   3.706   6.264  0.5759 -0.3392 -0.7263
12956SOL    HW142460   7.655   3.727   6.241  0.7736  0.5009  0.7239
12956SOL    HW242461   7.538   3.639   6.200  3.6039 -3.8327  1.3472
12957SOL     OW42462   8.535   5.674   9.507  0.1664 -0.3244 -0.1239
12957SOL    HW142463   8.593   5.615   9.459  0.1582 -1.0523  0.7278
12957SOL    HW242464   8.455   5.678   9.455  0.1311 -1.1457 -0.1428
12958SOL     OW42465   1.377   9.395   7.932  0.3586  0.9192 -0.1010
12958SOL    HW142466   1.426   9.314   7.943  1.6253  1.6473 -0.1858
12958SOL    HW242467   1.286   9.370   7.944  0.8377 -0.2260  1.5306
12959SOL     OW42468   1.710   3.724   5.903 -0.1919 -0.0975  0.1032
12959SOL    HW142469   1.738   3.779   5.831 -0.1386  2.1229  1.7301
12959SOL    HW242470   1.759   3.756   5.979 -1.4121 -1.2776  1.4621
12960SOL     OW42471   5.693   5.597   9.202  0.3891 -0.1067  0.2304
12960SOL    HW142472   5.677   5.533   9.272  1.5692  1.3037  1.8733
12960SOL    HW242473   5.770   5.646   9.231  0.0615  1.4913 -1.3972
12961SOL     OW42474   8.279  10.927   7.825 -0.3331 -0.0546 -0.1711
12961SOL    HW142475   8.224  10.852   7.801 -1.1324  0.3594  0.2992
12961SOL    HW242476   8.313  10.959   7.741  0.2971 -1.1369 -0.3464
12962SOL     OW42477   5.221   1.734   9.024  0.1230  0.0680 -0.2857
12962SOL    HW142478   5.131   1.723   8.992  0.3064  0.7715 -1.0981
12962SOL    HW242479   5.214   1.801   9.092 -0.2972 -1.5646  1.3632
12963SOL     OW42480   8.015   6.191   9.776  0.2734 -0.2879 -0.4081
12963SOL    HW142481   7.938   6.248   9.784  0.3969 -0.2621  0.6943
12963SOL    HW242482   8.076   6.240   9.721  0.7922  1.1174  1.3546
12964SOL     OW42483  10.482   3.303   9.126  0.1128  0.2128 -0.2857
12964SOL    HW142484  10.471   3.371   9.192  0.5383 -0.3875  0.4107
12964SOL    HW242485  10.574   3.278   9.132  0.6245  1.3993 -2.3363
12965SOL     OW42486   4.365  10.487   8.895 -0.0266  0.0579  0.3353
12965SOL    HW142487   4.430  10.525   8.954 -0.0162  1.0389 -0.2846
12965SOL    HW242488   4.417  10.441   8.828  0.0628  1.0932 -0.3293
12966SOL     OW42489   7.667   8.674   7.858 -0.2251  0.3141 -0.2200
12966SOL    HW142490   7.611   8.749   7.877 -0.8305 -0.5339  1.5119
12966SOL    HW242491   7.607   8.600   7.850  0.2951  0.0661 -2.6400
12967SOL     OW42492   1.667   9.327   5.155 -0.4660 -0.3335 -0.3465
12967SOL    HW142493   1.597   9.390   5.171 -0.0134  0.6122 -1.9421
12967SOL    HW242494   1.708   9.315   5.241 -0.8122  1.2295  0.0742
12968SOL     OW42495   7.350   0.218   3.380 -0.6055 -0.3157  0.2991
12968SOL    HW142496   7.402   0.143   3.351  2.4931  1.4427  0.8081
12968SOL    HW242497   7.332   0.200   3.472  2.4518  0.5918  1.1957
12969SOL     OW42498   7.596  10.840   3.593 -0.3681 -0.7120  0.0665
12969SOL    HW142499   7.631  10.816   3.507 -1.1702 -1.1660 -0.1418
12969SOL    HW242500   7.620  10.932   3.604 -0.5194 -0.5641 -0.7782
12970SOL     OW42501   6.561   6.881   6.227  0.0596 -0.2016  0.2912
12970SOL    HW142502   6.510   6.961   6.218 -1.2517 -1.0616 -0.3139
12970SOL    HW242503   6.628   6.888   6.159  1.3024  1.3064  1.6147
12971SOL     OW42504   8.417   8.761   9.415  0.3580 -0.2719 -0.1902
12971SOL    HW142505   8.324   8.768   9.439  0.4564  0.5376  0.0033
12971SOL    HW242506   8.463   8.797   9.490  0.8579 -1.0736 -0.1052
12972SOL     OW42507   0.019   6.530   9.797  0.0720  0.1446 -0.2158
12972SOL    HW142508  -0.001   6.577   9.716  1.9870 -0.7395 -1.2688
12972SOL    HW242509   0.115   6.536   9.805 -0.0651  0.2508  2.0332
12973SOL     OW42510   7.956   1.843   9.249 -0.0634  0.1903 -0.3205
12973SOL    HW142511   7.948   1.835   9.344 -0.5849 -1.6712 -0.4981
12973SOL    HW242512   8.041   1.806   9.228 -0.7128 -1.1174 -0.7438
12974SOL     OW42513   5.665   4.418   9.470  0.4334  0.1031  0.3709
12974SOL    HW142514   5.638   4.336   9.513  0.9655  0.1570  0.8211
12974SOL    HW242515   5.615   4.486   9.516 -0.6953 -0.0412 -0.6072
12975SOL     OW42516   5.830   6.620   8.095 -0.2159  0.0394 -0.7753
12975SOL    HW142517   5.737   6.640   8.089 -0.2628 -0.0080 -0.2880
12975SOL    HW242518   5.844   6.600   8.188  0.2342 -0.1706 -0.8857
12976SOL     OW42519  10.740   9.105   7.991 -0.2871  0.4625  0.2054
12976SOL    HW142520  10.677   9.105   8.063 -1.4012 -0.3677 -0.7232
12976SOL    HW242521  10.718   9.028   7.939  0.2939  1.1783 -1.1779
12977SOL     OW42522   6.929   6.627   5.911  0.2853  0.5094  0.2258
12977SOL    HW142523   6.918   6.572   5.834 -1.2645  1.6540 -0.4156
12977SOL    HW242524   7.020   6.612   5.938  0.6282 -0.5005 -1.3381
12978SOL     OW42525  11.035  10.601   6.434 -0.1693  0.1826  0.3965
12978SOL    HW142526  11.041  10.693   6.407  1.4701  0.5177  1.7439
12978SOL    HW242527  11.034  10.604   6.530 -1.4641 -1.1733  0.4666
12979SOL     OW42528   8.242   2.882   4.482  0.2213 -0.1765  0.5121
12979SOL    HW142529   8.176   2.862   4.549  0.0354 -1.1850  0.0471
12979SOL    HW242530   8.259   2.976   4.492 -0.9585  0.0071  0.9416
12980SOL     OW42531   8.234   2.616   0.417 -0.0840  0.3260  0.4137
12980SOL    HW142532   8.219   2.527   0.452 -2.4998  1.3596  2.3542
12980SOL    HW242533   8.324   2.636   0.441 -0.0816 -0.9587  1.6595
12981SOL     OW42534   1.344  10.825  11.042 -0.1892 -0.4764  0.3244
12981SOL    HW142535   1.387  10.888  10.984  0.1793 -0.9758  0.0528
12981SOL    HW242536   1.252  10.852  11.042 -0.1631 -0.3808 -0.3669
12982SOL     OW42537  10.462   0.523   5.482 -0.3854  0.0112 -0.2065
12982SOL    HW142538  10.391   0.584   5.462  0.8604  2.1226  1.3310
12982SOL    HW242539  10.418   0.444   5.513 -2.1239  1.7071  1.9867
12983SOL     OW42540   8.765   9.047   8.172 -0.5029 -0.1473 -0.1845
12983SOL    HW142541   8.790   8.972   8.227 -0.7399  0.2350  0.4535
12983SOL    HW242542   8.822   9.040   8.095  0.4368 -0.2116  0.4980
12984SOL     OW42543   3.621   2.784  11.003 -0.1951 -0.4518 -0.2494
12984SOL    HW142544   3.667   2.712  11.046  2.4485 -0.2284 -2.4006
12984SOL    HW242545   3.688   2.851  10.992 -1.1545  0.1771 -3.0406
12985SOL     OW42546   2.565   6.359   0.115 -0.6188 -0.1435  0.0076
12985SOL    HW142547   2.527   6.445   0.097 -1.7292 -0.3241  1.3568
12985SOL    HW242548   2.650   6.361   0.071  0.1289  2.2698  1.3778
12986SOL     OW42549   6.901   5.642   7.078  0.6742 -0.3563  0.3463
12986SOL    HW142550   6.815   5.628   7.119  0.9071 -0.4908  0.7943
12986SOL    HW242551   6.882   5.698   7.003  0.3106  0.3612  0.9514
12987SOL     OW42552   6.786   1.156   7.073 -0.1378  0.7579 -0.9995
12987SOL    HW142553   6.789   1.186   6.982 -0.0785  1.8801 -0.6355
12987SOL    HW242554   6.845   1.215   7.120  0.2288 -0.1323 -0.3153
12988SOL     OW42555   6.961   8.708   9.341  0.1729 -0.0137  0.0058
12988SOL    HW142556   6.967   8.617   9.313  3.2462 -0.2395  1.0856
12988SOL    HW242557   6.894   8.746   9.284 -0.6129 -2.7103 -1.0210
12989SOL     OW42558   4.207   9.947   2.222  0.1117 -0.1332  0.3780
12989SOL    HW142559   4.255   9.971   2.143  1.9978 -0.6997  1.2988
12989SOL    HW242560   4.223   9.853   2.231 -0.0567 -0.0639  1.4551
12990SOL     OW42561   0.425   9.340  11.006 -0.6590  0.1051 -0.5675
12990SOL    HW142562   0.390   9.357  10.919 -0.1246  1.1469 -0.5975
12990SOL    HW242563   0.358   9.372  11.066  0.4326  2.7217 -0.6228
12991SOL     OW42564   2.246   0.490   3.239  0.7587 -0.6971  0.1983
12991SOL    HW142565   2.232   0.410   3.187  0.7972 -0.2316 -0.5458
12991SOL    HW242566   2.229   0.561   3.178 -0.4584 -0.1163  1.1899
12992SOL     OW42567  11.044   0.220   8.461  0.1333 -0.2818  0.1740
12992SOL    HW142568  11.008   0.304   8.432  0.6332  0.0555  0.5148
12992SOL    HW242569  10.974   0.182   8.515 -0.6832 -0.7798 -1.1806
12993SOL     OW42570   1.787   8.346   9.085 -0.1088  0.2513  0.3407
12993SOL    HW142571   1.776   8.339   8.990  0.5807 -0.4124  0.2985
12993SOL    HW242572   1.700   8.327   9.120 -0.0696 -0.8845 -0.1204
12994SOL     OW42573   6.837   2.395   4.809  0.5312 -0.0561  0.0812
12994SOL    HW142574   6.806   2.456   4.742  0.6389 -0.9339 -0.7885
12994SOL    HW242575   6.833   2.309   4.767  0.3892 -0.6569  1.2805
12995SOL     OW42576   1.578  10.794   3.755 -0.1665  0.4215  0.3160
12995SOL    HW142577   1.627  10.727   3.803 -0.2986  0.5889  0.6868
12995SOL    HW242578   1.557  10.860   3.821  0.4728  1.1203 -0.1563
12996SOL     OW42579   9.119   8.949   3.613 -0.1036  0.7046  0.5234
12996SOL    HW142580   9.196   8.967   3.667  0.4657  0.0833 -0.0671
12996SOL    HW242581   9.154   8.937   3.525 -0.5320 -2.2297  0.6684
12997SOL     OW42582   0.937  10.403   6.712 -0.2086  0.1903  0.5643
12997SOL    HW142583   0.905  10.351   6.638 -0.7967  0.9660  0.2619
12997SOL    HW242584   0.857  10.436   6.754  0.1554  0.6511  0.9056
12998SOL     OW42585   9.036  10.503   6.652 -0.2153 -0.6255 -0.3478
12998SOL    HW142586   9.062  10.424   6.606  0.8306  0.5117 -1.8411
12998SOL    HW242587   9.115  10.557   6.654 -1.2446  0.9896 -0.7309
12999SOL     OW42588   5.653  11.050   2.015 -0.0127  0.6311  0.5021
12999SOL    HW142589   5.600  11.120   2.053  2.7954  2.4979  1.3342
12999SOL    HW242590   5.652  11.067   1.921  0.3581  1.6361  0.6632
13000SOL     OW42591   7.444   4.604   7.984 -0.2118  0.5123  0.2939
13000SOL    HW142592   7.437   4.605   7.889 -0.7740  0.1656  0.3262
13000SOL    HW242593   7.361   4.568   8.014 -0.6537  2.0387  0.9912
13001SOL     OW42594   5.915   0.212   0.966 -0.5078 -0.2541  0.3259
13001SOL    HW142595   5.872   0.181   1.046  0.1020 -1.0637  0.3576
13001SOL    HW242596   5.937   0.132   0.918  0.0039  0.1822 -0.1850
13002SOL     OW42597   1.026   4.293   2.108 -0.4714  0.1624 -0.0452
13002SOL    HW142598   1.011   4.254   2.023  0.4317  0.0905 -0.1796
13002SOL    HW242599   0.944   4.338   2.129 -1.9739 -2.6742  0.6160
13003SOL     OW42600   4.200   2.827   3.965 -0.0530  0.0475 -0.4423
13003SOL    HW142601   4.294   2.809   3.965 -0.0923 -0.1937  0.1987
13003SOL    HW242602   4.193   2.921   3.982  0.0933  0.2812 -1.5930
13004SOL     OW42603   5.499   2.181   9.939 -0.6211  0.4309 -0.6886
13004SOL    HW142604   5.454   2.264   9.954  0.3325  0.7759  0.4204
13004SOL    HW242605   5.520   2.149  10.027  0.8094  0.0247 -1.1588
13005SOL     OW42606   0.490   7.496   3.672  0.1832  0.3861 -0.3599
13005SOL    HW142607   0.545   7.569   3.701 -1.1842  1.4682 -0.4068
13005SOL    HW242608   0.463   7.454   3.754 -0.7876  1.2844 -0.1902
13006SOL     OW42609   4.509   0.702   6.038  0.7070  0.6259  0.2841
13006SOL    HW142610   4.505   0.765   5.966  1.0922  2.3416  1.7011
13006SOL    HW242611   4.589   0.725   6.085  1.2993 -1.4804  0.3908
13007SOL     OW42612   0.783   1.591   3.336 -0.3021 -0.4592 -0.1179
13007SOL    HW142613   0.710   1.646   3.362 -1.5579 -1.6852 -0.8848
13007SOL    HW242614   0.854   1.615   3.395 -1.0139  1.4383  0.0226
13008SOL     OW42615   9.070   1.835   0.581 -0.3807 -0.1835  0.4528
13008SOL    HW142616   9.086   1.750   0.620 -0.6915  0.4752  2.1023
13008SOL    HW242617   9.112   1.897   0.640  0.1684  0.7926 -0.9150
13009SOL     OW42618   9.890  10.720  10.583  0.0983  0.3081 -0.1963
13009SOL    HW142619   9.977  10.682  10.576  0.3590  0.3236  2.2271
13009SOL    HW242620   9.834  10.662  10.532  1.1540 -0.9910  0.0748
13010SOL     OW42621   5.553   7.714   3.890  0.5066 -0.1965  0.2245
13010SOL    HW142622   5.621   7.680   3.832  0.3972  1.1896 -0.7594
13010SOL    HW242623   5.595   7.786   3.937 -0.1930  0.5265 -0.2299
13011SOL     OW42624   1.074   2.590   9.594 -0.0982  0.0769  0.1034
13011SOL    HW142625   1.122   2.548   9.665  1.6089  1.4647 -0.1684
13011SOL    HW242626   1.095   2.539   9.516 -0.2535 -0.1878  0.2353
13012SOL     OW42627   7.799   8.342   1.962  0.3246 -0.2665 -0.2477
13012SOL    HW142628   7.816   8.364   1.871 -0.2717 -3.6396 -1.3281
13012SOL    HW242629   7.713   8.301   1.962 -0.2891  0.8354  2.1144
13013SOL     OW42630   0.042   4.882   0.176  0.6841  0.1217  0.6255
13013SOL    HW142631   0.030   4.976   0.193 -0.0398  0.1651 -0.0826
13013SOL    HW242632   0.111   4.856   0.237 -0.9108  0.5436  2.7734
13014SOL     OW42633   7.358   7.655   3.673 -0.2101 -0.2888  0.9143
13014SOL    HW142634   7.326   7.593   3.738  0.8373 -2.2170 -0.2993
13014SOL    HW242635   7.394   7.600   3.603  0.1675  1.6994 -0.5567
13015SOL     OW42636   2.586   1.280   8.916  0.0490  0.1457  0.0379
13015SOL    HW142637   2.616   1.348   8.855 -0.0267 -0.1692 -0.3487
13015SOL    HW242638   2.659   1.219   8.922  0.8586  1.2088  1.8221
13016SOL     OW42639   6.464   7.269   6.826 -0.6774  0.2633 -0.0796
13016SOL    HW142640   6.502   7.309   6.904 -1.8328 -1.6074  1.5468
13016SOL    HW242641   6.539   7.240   6.775  0.1355  2.7961 -0.4308
13017SOL     OW42642   9.427   9.556  10.510 -0.4262  0.5557  0.1456
13017SOL    HW142643   9.395   9.515  10.429 -2.7347  2.0228  0.2191
13017SOL    HW242644   9.458   9.642  10.483 -3.0301  1.8621  0.9501
13018SOL     OW42645   7.664   7.882   2.649 -0.1503 -0.0964 -0.0114
13018SOL    HW142646   7.650   7.823   2.722  0.3230 -1.7953 -1.2312
13018SOL    HW242647   7.586   7.873   2.595  1.3679 -2.4599 -2.0370
13019SOL     OW42648   0.433   2.922   1.883  0.4980  0.0884  0.1240
13019SOL    HW142649   0.390   2.916   1.798 -0.7272  0.0741  0.7294
13019SOL    HW242650   0.420   2.836   1.923 -1.1333  0.8501  1.3338
13020SOL     OW42651   1.430   5.844   7.612 -0.0543  0.5600  0.6221
13020SOL    HW142652   1.423   5.750   7.600  0.9809  0.6134 -0.5662
13020SOL    HW242653   1.367   5.864   7.682 -2.1922 -0.6254 -0.8576
13021SOL     OW42654   2.849   9.900  10.940  0.3111 -0.3599 -0.1427
13021SOL    HW142655   2.804   9.908  11.024  1.2487  0.8778  0.2793
13021SOL    HW242656   2.785   9.931  10.876  0.0971  0.1264  0.2946
13022SOL     OW42657  11.052   2.480   2.117 -0.1865 -0.4081  0.1502
13022SOL    HW142658  11.142   2.470   2.085 -0.3918 -1.2845 -0.1917
13022SOL    HW242659  11.021   2.390   2.131 -1.2608 -0.1666 -0.4858
13023SOL     OW42660   2.297   2.574  10.955 -0.3999  0.5467  0.1191
13023SOL    HW142661   2.386   2.548  10.979 -0.3304 -0.2438 -0.9643
13023SOL    HW242662   2.288   2.548  10.864 -1.7949  0.4872  0.2576
13024SOL     OW42663   5.409   5.517   1.202 -0.1934 -0.1389 -0.3921
13024SOL    HW142664   5.400   5.487   1.112  0.1078 -0.6805 -0.2464
13024SOL    HW242665   5.340   5.470   1.249 -0.4116  0.2142 -0.3534
13025SOL     OW42666   7.607   3.483   7.673 -0.2890  0.1861  0.3669
13025SOL    HW142667   7.556   3.484   7.592  1.1773  1.1513 -0.5969
13025SOL    HW242668   7.558   3.541   7.733 -0.1064  1.5216 -0.7189
13026SOL     OW42669   8.048   5.094   0.746 -0.3345 -0.2129  0.1937
13026SOL    HW142670   8.011   5.024   0.800 -0.1821  0.6894  1.4909
13026SOL    HW242671   7.977   5.157   0.736 -0.5477 -0.6425 -1.1796
13027SOL     OW42672   7.950   7.201   8.298 -0.7077 -0.0089  0.0136
13027SOL    HW142673   7.899   7.127   8.331  0.5686 -0.7865  0.2999
13027SOL    HW242674   8.004   7.229   8.372 -0.9195  0.9988 -0.1943
13028SOL     OW42675   9.182   9.816   3.789 -0.2813 -0.0017  0.7226
13028SOL    HW142676   9.086   9.812   3.787 -0.3522  1.3505  0.7097
13028SOL    HW242677   9.208   9.731   3.825 -1.4092 -1.0186 -0.7228
13029SOL     OW42678  10.165   8.172   6.175 -0.2522 -0.3405  0.0122
13029SOL    HW142679  10.101   8.219   6.122  1.8076  0.7535 -1.6313
13029SOL    HW242680  10.192   8.236   6.242 -0.7220 -0.7533  0.6135
13030SOL     OW42681   9.824   8.987   1.730  0.4576  0.3242 -0.2754
13030SOL    HW142682   9.746   8.990   1.785 -0.8488 -0.2513 -2.0092
13030SOL    HW242683   9.857   9.077   1.730 -3.2758  2.0153 -3.6005
13031SOL     OW42684   1.598   4.992   9.140 -0.2185 -0.1475  0.0377
13031SOL    HW142685   1.567   5.005   9.230 -0.3440 -0.7734  0.0900
13031SOL    HW242686   1.669   4.928   9.148  0.4374  0.5450 -0.1997
13032SOL     OW42687   9.815   2.408   9.177  0.0290 -0.3536 -0.2692
13032SOL    HW142688   9.869   2.337   9.142 -0.4044  0.1619 -2.0555
13032SOL    HW242689   9.810   2.472   9.106 -0.6658  0.8757  0.8435
13033SOL     OW42690   4.465   2.019   2.173  0.3205  0.5601 -0.0904
13033SOL    HW142691   4.386   1.971   2.198 -0.7037  1.7457 -0.8994
13033SOL    HW242692   4.439   2.111   2.179  2.1022  1.0364  1.0406
13034SOL     OW42693   8.496   3.138   6.351 -0.2921  0.2676  1.0473
13034SOL    HW142694   8.514   3.059   6.300 -0.3558  0.7241  0.3005
13034SOL    HW242695   8.401   3.144   6.353 -0.3380 -0.5116  2.4377
13035SOL     OW42696   7.986   6.188  10.264 -0.0365 -0.0846 -0.4983
13035SOL    HW142697   8.074   6.226  10.257  0.1645 -0.7401 -1.6901
13035SOL    HW242698   8.000   6.106  10.311 -0.0275 -0.1712 -0.6549
13036SOL     OW42699   2.785   3.076   1.384 -0.0276  0.1620 -0.5144
13036SOL    HW142700   2.842   3.041   1.316  2.6293  1.3576  0.9188
13036SOL    HW242701   2.758   3.162   1.352 -1.2973 -0.4929 -1.2885
13037SOL     OW42702   4.131   1.125   8.936 -0.1210  0.2190 -0.1189
13037SOL    HW142703   4.152   1.183   9.009  2.2336 -0.8383  0.1157
13037SOL    HW242704   4.163   1.039   8.963 -0.7810 -0.5712 -1.6952
13038SOL     OW42705   1.841   0.925   1.503 -0.4774 -0.0142 -0.6660
13038SOL    HW142706   1.858   0.844   1.455 -0.2038 -1.1101  1.1811
13038SOL    HW242707   1.755   0.910   1.544 -0.2967  0.5109 -0.0848
13039SOL     OW42708   7.060   0.071  10.273 -0.2133  0.0818  0.5746
13039SOL    HW142709   7.114   0.017  10.217 -0.1953  0.5698  0.1123
13039SOL    HW242710   7.122   0.110  10.335  0.0779  1.1122 -0.3299
13040SOL     OW42711   2.092   4.086  10.052 -0.3921 -0.1541  0.3123
13040SOL    HW142712   2.167   4.086  10.111  0.6853 -0.8702 -0.9731
13040SOL    HW242713   2.092   3.998  10.014  0.3123  0.8542 -2.3104
13041SOL     OW42714  10.750   0.158   4.163  0.2586 -0.0930  0.4876
13041SOL    HW142715  10.721   0.139   4.252 -1.3475 -1.2940 -0.2613
13041SOL    HW242716  10.713   0.089   4.109  3.6559 -1.1548 -0.7660
13042SOL     OW42717   5.040  10.717   9.919  0.5410  0.0633  0.3141
13042SOL    HW142718   5.100  10.649   9.951  1.6926  0.7626 -0.2974
13042SOL    HW242719   5.010  10.761   9.998 -0.1325 -1.0642  0.7139
13043SOL     OW42720   3.336   4.494   7.823 -0.3932 -0.3086 -0.2942
13043SOL    HW142721   3.403   4.462   7.763  0.4070  0.0373  0.3913
13043SOL    HW242722   3.339   4.433   7.897  0.1074  0.4653  0.3417
13044SOL     OW42723   6.758   0.785   6.537  0.1762  0.3651  0.3910
13044SOL    HW142724   6.693   0.725   6.503 -0.9364  1.2341  0.9184
13044SOL    HW242725   6.841   0.754   6.501 -0.5589 -0.5806 -0.5326
13045SOL     OW42726   1.959   6.437   6.930 -0.4720 -0.1128  0.2681
13045SOL    HW142727   1.945   6.355   6.977 -2.7025 -0.4174 -0.8033
13045SOL    HW242728   1.894   6.498   6.967  0.6104  0.9462  0.4958
13046SOL     OW42729   4.334   8.058   0.586 -0.0418  0.0823 -0.3892
13046SOL    HW142730   4.407   8.117   0.601 -1.0979  1.0589  1.1376
13046SOL    HW242731   4.273   8.108   0.531 -0.7133  0.2476  0.4913
13047SOL     OW42732   0.240   7.029   6.991 -0.1392  0.5545  0.1338
13047SOL    HW142733   0.258   6.954   6.934  1.8211  1.2459 -0.2207
13047SOL    HW242734   0.255   6.996   7.080 -2.5045 -0.3240  0.2963
13048SOL     OW42735   6.761   0.040   9.245  0.3871 -0.2091  1.0724
13048SOL    HW142736   6.756  -0.040   9.193 -0.4405 -0.3127  1.3024
13048SOL    HW242737   6.768   0.010   9.335  1.0045 -0.0235  1.0889
13049SOL     OW42738   3.553   7.666   0.893  0.2276 -0.1170  0.4621
13049SOL    HW142739   3.576   7.582   0.854  1.0956  0.1436  0.3819
13049SOL    HW242740   3.475   7.695   0.846  1.4583  0.3741 -1.3764
13050SOL     OW42741   8.832   9.618   2.963  0.2487  0.2355 -0.0170
13050SOL    HW142742   8.896   9.662   2.906 -0.0536  0.0586 -0.4953
13050SOL    HW242743   8.874   9.617   3.049 -0.3343  2.8766  0.4122
13051SOL     OW42744   8.831   7.995   3.501  0.3261  0.9171 -0.0850
13051SOL    HW142745   8.900   7.973   3.564 -0.5310  0.8032  0.8510
13051SOL    HW242746   8.841   8.089   3.487  1.0672  0.7867 -0.4533
13052SOL     OW42747   5.888   2.974   7.349  0.0336  0.0335  0.3049
13052SOL    HW142748   5.809   3.001   7.396  0.5139 -1.6206  2.2698
13052SOL    HW242749   5.954   3.039   7.374  0.3095 -0.8783  2.1482
13053SOL     OW42750   1.956   7.776   3.783 -0.4984  0.5463 -0.0493
13053SOL    HW142751   1.876   7.729   3.807 -1.4794  0.2547 -3.4023
13053SOL    HW242752   2.000   7.719   3.721  1.5721  1.4124  0.5287
13054SOL     OW42753   7.351   4.160   2.645 -0.6351  0.7310 -0.6426
13054SOL    HW142754   7.348   4.075   2.600 -1.1694  0.4813 -0.1621
13054SOL    HW242755   7.436   4.162   2.687 -1.0042 -0.0219  0.1718
13055SOL     OW42756   5.057   5.990   3.222  0.1592 -0.1119  0.0997
13055SOL    HW142757   5.121   6.061   3.225  0.5491 -0.2877 -2.2737
13055SOL    HW242758   5.016   5.998   3.136 -1.9120 -0.9804  0.9431
13056SOL     OW42759  10.131   2.031  10.982  0.0700  0.0904 -0.3954
13056SOL    HW142760  10.077   1.953  10.992 -0.5764  0.4987 -0.6654
13056SOL    HW242761  10.200   2.021  11.048 -1.6647  0.6705  1.6002
13057SOL     OW42762   7.337   0.686   7.345  0.6267  0.2534  0.2853
13057SOL    HW142763   7.402   0.690   7.274 -0.4877  1.1218 -0.7324
13057SOL    HW242764   7.345   0.770   7.390 -0.5211  0.8339 -0.5483
13058SOL     OW42765   4.944  10.600   4.312  0.2332  0.2028  0.2340
13058SOL    HW142766   4.916  10.690   4.328  0.2324  0.3691 -0.6760
13058SOL    HW242767   4.879  10.546   4.358 -1.1817  0.6005 -1.2324
13059SOL     OW42768   2.214   4.130   1.956 -0.2755  0.3023 -0.3761
13059SOL    HW142769   2.305   4.148   1.932  0.5349 -0.5737  1.7283
13059SOL    HW242770   2.217   4.041   1.992 -1.3771  1.2786  2.3364
13060SOL     OW42771   6.571   5.344   8.354  0.2848  0.0679  0.6625
13060SOL    HW142772   6.505   5.393   8.305  0.3662 -0.5515 -0.0896
13060SOL    HW242773   6.654   5.375   8.319  0.3341 -0.9480 -0.2186
13061SOL     OW42774  10.282   7.907   3.949  0.1966  0.3741  0.8331
13061SOL    HW142775  10.323   7.989   3.977  0.2674  0.9490 -0.8197
13061SOL    HW242776  10.345   7.839   3.973  1.6980  1.1498 -0.7458
13062SOL     OW42777  10.437   3.792   0.154  0.1904  0.2502 -0.3482
13062SOL    HW142778  10.522   3.747   0.155  0.4417  0.7083 -0.8836
13062SOL    HW242779  10.413   3.795   0.062  1.1828  3.0883 -0.5959
13063SOL     OW42780   9.245  10.419   4.039  0.2590  0.2725  0.1084
13063SOL    HW142781   9.337  10.392   4.044  0.0555 -0.3031  1.0112
13063SOL    HW242782   9.247  10.514   4.050  0.7884  0.3348 -0.4917
13064SOL     OW42783   4.678   2.309   3.509  0.1022 -0.0381 -0.0928
13064SOL    HW142784   4.704   2.359   3.432  0.5099  0.6442  0.4675
13064SOL    HW242785   4.596   2.266   3.484  0.0131  0.5035 -0.7600
13065SOL     OW42786   6.659   2.901  10.677 -0.1669  0.5589 -0.3369
13065SOL    HW142787   6.568   2.875  10.685  0.0462 -0.1792 -0.2151
13065SOL    HW242788   6.696   2.885  10.764 -0.0826  1.5259 -0.1844
13066SOL     OW42789   2.497   0.527   9.378 -0.0919  0.0562 -0.1236
13066SOL    HW142790   2.461   0.604   9.421 -1.1749  0.3939 -1.5579
13066SOL    HW242791   2.431   0.459   9.393  1.3203 -0.9518  2.0132
13067SOL     OW42792  10.225   1.435   3.890  0.0973 -0.1943  0.3220
13067SOL    HW142793  10.170   1.389   3.954 -0.9200  0.7501  0.1706
13067SOL    HW242794  10.315   1.410   3.913 -0.3259 -0.9195  1.2781
13068SOL     OW42795   5.502   3.390   8.074 -0.0553 -0.4229  0.3829
13068SOL    HW142796   5.543   3.367   7.990  1.1589  1.5975  0.3759
13068SOL    HW242797   5.411   3.409   8.051  0.1838 -0.2219 -0.4337
13069SOL     OW42798  10.672   2.088   9.913  0.0805 -0.1612  0.1162
13069SOL    HW142799  10.682   2.146   9.988  0.3182  0.2208 -0.2128
13069SOL    HW242800  10.612   2.020   9.944 -1.3284  1.0153  0.0705
13070SOL     OW42801   6.372   4.538  10.502  0.2952  0.0063  0.2134
13070SOL    HW142802   6.424   4.458  10.500 -0.6660 -0.6320 -0.9694
13070SOL    HW242803   6.300   4.518  10.562  1.2355  0.7958  1.6464
13071SOL     OW42804   7.658   4.552   0.837 -0.2392  0.2752  0.1573
13071SOL    HW142805   7.720   4.487   0.804 -1.0639 -1.6965  2.2744
13071SOL    HW242806   7.572   4.517   0.816 -0.7307  2.0599 -1.0494
13072SOL     OW42807  10.211   3.746   4.769 -0.2721  0.0545  0.5064
13072SOL    HW142808  10.225   3.668   4.823  1.2865  0.5662  0.9029
13072SOL    HW242809  10.284   3.804   4.791  0.0072  0.6044 -1.5726
13073SOL     OW42810   4.473   5.515   4.845  0.5225 -0.4944  0.2035
13073SOL    HW142811   4.441   5.428   4.822 -0.4766 -0.3091  0.8197
13073SOL    HW242812   4.403   5.553   4.899  1.2293  0.4376  0.4936
13074SOL     OW42813   5.951   7.371   2.429  0.0584 -0.0231 -0.3684
13074SOL    HW142814   5.869   7.420   2.422  0.2535  0.3098 -0.2998
13074SOL    HW242815   5.923   7.281   2.449 -0.3935 -0.3422 -2.2092
13075SOL     OW42816   4.789   5.781   3.531  0.2311 -0.4465  0.0212
13075SOL    HW142817   4.864   5.722   3.545  0.0824 -0.9579 -1.1898
13075SOL    HW242818   4.755   5.798   3.618  0.3892 -2.0333  0.4247
13076SOL     OW42819   2.442   4.423   6.131  0.0206 -0.4452  0.0861
13076SOL    HW142820   2.455   4.346   6.185  0.8591 -0.1108  0.3896
13076SOL    HW242821   2.504   4.413   6.058 -0.3152 -0.3644 -0.2151
13077SOL     OW42822   0.733   8.657   8.469  0.5158 -0.2475 -0.1635
13077SOL    HW142823   0.753   8.599   8.543 -0.0471  0.7799  0.8196
13077SOL    HW242824   0.638   8.660   8.466  0.5404  0.2533 -0.5071
13078SOL     OW42825   6.757   6.628   7.688 -0.5141  0.0198 -0.7510
13078SOL    HW142826   6.797   6.649   7.603 -0.9078  2.3540 -0.4064
13078SOL    HW242827   6.665   6.609   7.667 -0.4915  0.0727 -0.9017
13079SOL     OW42828   8.504   8.079   1.252 -0.0969  0.0045 -0.4197
13079SOL    HW142829   8.441   8.127   1.198 -1.0432  0.1594  0.7720
13079SOL    HW242830   8.519   7.997   1.206  0.2576  0.7271 -1.6443
13080SOL     OW42831   5.148  10.732   8.538 -0.3670  0.1776  0.0877
13080SOL    HW142832   5.114  10.782   8.612 -1.6016 -0.3928 -0.0582
13080SOL    HW242833   5.233  10.699   8.568 -1.6400 -1.6358  2.0469
13081SOL     OW42834   1.343   7.054   8.511  0.6559 -0.3818 -0.1991
13081SOL    HW142835   1.365   7.033   8.421 -1.5906  0.7029 -1.0861
13081SOL    HW242836   1.281   7.126   8.504  1.1382  0.3754  2.2796
13082SOL     OW42837   4.021   7.828   4.659  0.0166  0.2446  0.8951
13082SOL    HW142838   4.048   7.913   4.625  1.3446 -0.1160  0.9940
13082SOL    HW242839   4.085   7.808   4.728 -1.6542  0.2331  2.5384
13083SOL     OW42840   2.860   3.081   3.491 -0.0818  0.5697  0.3255
13083SOL    HW142841   2.818   3.152   3.539  0.9891  1.1252  0.4670
13083SOL    HW242842   2.953   3.092   3.508  0.0589 -1.5239  1.2689
13084SOL     OW42843   1.548   4.188   7.826  0.1693 -0.3785 -0.5552
13084SOL    HW142844   1.634   4.191   7.868 -0.8199 -0.6640  1.6167
13084SOL    HW242845   1.527   4.095   7.818 -0.9038 -0.3341  1.1612
13085SOL     OW42846   6.223   0.681   4.650  0.2812 -0.2611 -0.0350
13085SOL    HW142847   6.201   0.760   4.700 -0.9282 -0.4851 -0.1883
13085SOL    HW242848   6.291   0.639   4.701  0.0697  0.2569  0.6910
13086SOL     OW42849   3.560   6.726   1.836  0.2830 -0.3513 -0.3462
13086SOL    HW142850   3.640   6.762   1.875 -1.4265  2.1163  1.2181
13086SOL    HW242851   3.558   6.634   1.864 -0.6270  1.0396  5.6644
13087SOL     OW42852   9.405   5.035   3.918  0.3306 -0.4185  0.0118
13087SOL    HW142853   9.490   5.078   3.930  0.7277 -1.4376  1.2101
13087SOL    HW242854   9.419   4.975   3.845  0.7460 -0.7570  0.3561
13088SOL     OW42855   6.149  11.055   0.949 -0.1984  0.1546 -0.0200
13088SOL    HW142856   6.219  11.002   0.987  1.0644 -0.1107 -2.5009
13088SOL    HW242857   6.110  10.999   0.882  0.8335  2.0771 -2.3870
13089SOL     OW42858   7.190   6.783   8.108  0.1807 -0.2566  0.8322
13089SOL    HW142859   7.284   6.788   8.125  0.3142  1.9751 -0.3006
13089SOL    HW242860   7.180   6.815   8.019 -1.6731 -0.5220  0.9085
13090SOL     OW42861   6.300   7.777   8.694 -0.1893  0.3000 -0.2193
13090SOL    HW142862   6.288   7.798   8.786 -3.1392 -0.6848 -0.2653
13090SOL    HW242863   6.319   7.861   8.652 -0.0413  0.9483  1.1155
13091SOL     OW42864   6.800   4.250   6.854  0.0837  0.3389  1.0636
13091SOL    HW142865   6.839   4.189   6.791 -0.2773 -0.0704  1.2309
13091SOL    HW242866   6.841   4.228   6.937  0.6814  0.9895  0.9536
13092SOL     OW42867   2.889   9.433   7.276 -0.4909 -0.2408  0.0398
13092SOL    HW142868   2.822   9.418   7.343  0.2817 -1.6766  0.5399
13092SOL    HW242869   2.877   9.361   7.214 -0.7240  0.6632 -0.9956
13093SOL     OW42870   5.948   7.513   8.317 -1.2247  0.4376 -0.2401
13093SOL    HW142871   5.999   7.432   8.327  0.4023  1.1111 -2.3159
13093SOL    HW242872   6.013   7.583   8.324 -2.2932  1.4713 -0.4390
13094SOL     OW42873   1.949   9.158   5.473 -0.4396  0.0743  0.3997
13094SOL    HW142874   1.893   9.187   5.402 -0.0315 -0.9307 -0.3551
13094SOL    HW242875   1.987   9.238   5.508 -1.1215  0.6264 -0.1039
13095SOL     OW42876   2.576   7.116   5.899  0.0396  0.1996 -0.5495
13095SOL    HW142877   2.508   7.049   5.891  0.1106 -0.4170  2.5160
13095SOL    HW242878   2.528   7.199   5.907 -0.3690 -0.1180  0.5657
13096SOL     OW42879   6.444   7.379   4.944 -0.3937  0.0666 -0.1603
13096SOL    HW142880   6.535   7.355   4.927 -0.3716 -0.4484  0.6309
13096SOL    HW242881   6.394   7.322   4.886 -0.4102 -3.0457  2.5934
13097SOL     OW42882   2.803   0.830   0.374  0.2175 -0.7875  0.1667
13097SOL    HW142883   2.782   0.898   0.310  0.6395 -0.3556  0.4820
13097SOL    HW242884   2.850   0.876   0.443 -0.9098 -1.0940  1.1752
13098SOL     OW42885   7.685   0.510   8.665  0.4061 -0.0374  0.0441
13098SOL    HW142886   7.740   0.463   8.603 -0.8126 -0.7798 -0.5350
13098SOL    HW242887   7.601   0.464   8.661 -0.7255  1.9128 -0.2062
13099SOL     OW42888   0.993   2.771   8.916 -0.1897 -0.0725 -0.0641
13099SOL    HW142889   0.898   2.781   8.909 -0.2122 -0.9955 -1.4622
13099SOL    HW242890   1.013   2.691   8.866  1.1398 -0.8522  1.5804
13100SOL     OW42891   8.546   3.359   4.166 -0.0291  0.1791 -0.0452
13100SOL    HW142892   8.523   3.442   4.124 -0.1275  0.8971  1.3777
13100SOL    HW242893   8.639   3.367   4.186 -0.1077  0.0733  0.3706
13101SOL     OW42894   8.126   4.139   9.336  0.0594  0.2727  0.0530
13101SOL    HW142895   8.133   4.234   9.341  0.0384  0.3409 -0.9405
13101SOL    HW242896   8.197   4.107   9.391  0.3114  0.8674  0.0889
13102SOL     OW42897   9.041   8.860   9.605 -0.2768  0.3259 -0.0854
13102SOL    HW142898   9.031   8.905   9.521  2.1302  0.4716 -0.3619
13102SOL    HW242899   9.013   8.770   9.588  0.2751  0.3260 -1.0823
13103SOL     OW42900   3.395   0.391   7.645 -0.6429  0.5818  0.1299
13103SOL    HW142901   3.468   0.354   7.695 -1.3827 -1.1363 -0.0066
13103SOL    HW242902   3.317   0.371   7.696 -1.4323 -1.3278 -1.6665
13104SOL     OW42903   4.340   7.309   0.144 -0.0538 -0.4656 -0.8381
13104SOL    HW142904   4.308   7.275   0.061  1.0774  0.0778 -1.5197
13104SOL    HW242905   4.414   7.365   0.121  0.7881 -0.9163  0.5934
13105SOL     OW42906   8.407   6.318   5.272 -0.0848  0.0524 -0.6917
13105SOL    HW142907   8.335   6.373   5.303  1.0864  0.0104  2.5144
13105SOL    HW242908   8.486   6.367   5.295  0.9898 -0.0911 -3.7397
13106SOL     OW42909   3.241   2.516  10.093 -0.1383 -0.0429  0.6199
13106SOL    HW142910   3.248   2.607  10.121  0.1595  0.7328 -1.7133
13106SOL    HW242911   3.150   2.507  10.065 -0.4399 -0.7995  1.7624
13107SOL     OW42912   8.102   4.517   5.409  0.3857 -0.2004 -0.6193
13107SOL    HW142913   8.138   4.546   5.325  2.1063 -1.7052 -0.4470
13107SOL    HW242914   8.115   4.423   5.411 -0.1151 -0.2815  1.1161
13108SOL     OW42915   5.683  10.290   5.200  0.0748 -0.5496 -0.6872
13108SOL    HW142916   5.751  10.235   5.238 -0.3582  0.0976  1.1131
13108SOL    HW242917   5.726  10.374   5.182 -0.1700 -0.2131  0.2443
13109SOL     OW42918  10.504   5.010   0.992 -0.5693 -0.1016 -0.0818
13109SOL    HW142919  10.435   5.065   0.953  0.7155  1.4844 -0.2482
13109SOL    HW242920  10.549   5.069   1.053 -0.4651 -1.6207  1.3705
13110SOL     OW42921   1.828  10.819   7.070 -0.4787  0.2384 -0.4185
13110SOL    HW142922   1.870  10.796   6.987 -0.6675  0.1110 -0.4809
13110SOL    HW242923   1.738  10.843   7.045 -0.1986  1.3791 -0.4022
13111SOL     OW42924   5.514   2.015   6.391  0.1293  0.1355  0.0181
13111SOL    HW142925   5.567   2.089   6.362  0.4038 -0.6656 -1.7016
13111SOL    HW242926   5.571   1.967   6.452 -0.0339  1.2902  1.0949
13112SOL     OW42927   8.324   1.250   5.072  0.3789 -0.3092  0.7272
13112SOL    HW142928   8.399   1.227   5.127  1.4397  2.5759  0.6377
13112SOL    HW242929   8.323   1.181   5.004  0.4732 -2.5839  2.8899
13113SOL     OW42930   6.946   4.247   3.783 -0.2399 -0.2244  0.0486
13113SOL    HW142931   6.893   4.259   3.704 -1.0050 -0.8029  0.4508
13113SOL    HW242932   6.887   4.270   3.855  0.8291  1.5366  0.4287
13114SOL     OW42933   0.232   1.397   4.786 -0.5313  0.1014  0.5865
13114SOL    HW142934   0.181   1.443   4.718 -0.3509 -0.3682  0.1241
13114SOL    HW242935   0.301   1.458   4.810 -1.6399  0.9826  1.6423
13115SOL     OW42936   2.978   3.039   4.311 -0.4673 -0.0018 -0.1079
13115SOL    HW142937   3.031   3.002   4.381 -0.8129 -1.1326 -0.4139
13115SOL    HW242938   3.038   3.046   4.236 -0.9453 -2.4531 -0.8382
13116SOL     OW42939   0.073  10.273   5.837  0.4898  0.1985  0.4545
13116SOL    HW142940   0.035  10.187   5.818 -0.4217  0.7444 -0.2930
13116SOL    HW242941   0.025  10.305   5.913  1.3206 -0.2405  1.1814
13117SOL     OW42942   4.526   7.904   4.840  0.1078 -0.1157  0.7063
13117SOL    HW142943   4.524   7.946   4.754  1.9572  0.6386  0.9682
13117SOL    HW242944   4.456   7.945   4.890  1.1553  1.9219  0.5936
13118SOL     OW42945   3.714   7.009   6.911 -0.1569 -0.0956 -0.0269
13118SOL    HW142946   3.747   7.082   6.858 -0.0851 -0.2632 -0.2143
13118SOL    HW242947   3.781   6.996   6.978  0.2970 -0.6211 -0.5772
13119SOL     OW42948   0.330   3.139   8.807  0.1220 -0.3992 -0.2208
13119SOL    HW142949   0.284   3.071   8.759 -0.3497 -0.5259  0.3951
13119SOL    HW242950   0.339   3.104   8.896  1.0158 -0.1895 -0.2144
13120SOL     OW42951   5.150   2.721  10.281 -0.3012  0.2256  0.6156
13120SOL    HW142952   5.245   2.713  10.289 -0.0824  1.6410 -0.2750
13120SOL    HW242953   5.117   2.633  10.300  1.1318 -0.1309  1.5959
13121SOL     OW42954   8.694   3.964   9.118 -0.5414 -0.0242 -0.3056
13121SOL    HW142955   8.781   3.945   9.082 -0.1188  3.4802 -1.5943
13121SOL    HW242956   8.642   3.989   9.042 -2.5018 -1.2866  0.5541
13122SOL     OW42957   0.585   7.663   6.679  0.3679  0.2031  0.3805
13122SOL    HW142958   0.635   7.717   6.619  0.7889 -1.6504 -1.0186
13122SOL    HW242959   0.546   7.725   6.741  1.8011  1.9554 -0.3974
13123SOL     OW42960   4.851   3.890   7.702 -0.1873  0.0011 -0.1377
13123SOL    HW142961   4.837   3.819   7.765 -2.2501  0.8330  0.4131
13123SOL    HW242962   4.932   3.866   7.657 -0.0436 -1.9441  1.0389
13124SOL     OW42963   2.457   2.776   1.809  0.6695  0.0729  0.3134
13124SOL    HW142964   2.451   2.731   1.724 -1.2364 -0.3408  0.6197
13124SOL    HW242965   2.439   2.868   1.789  2.2471  0.3363  0.0113
13125SOL     OW42966   5.437   3.453   8.524 -0.3961  0.1049 -0.4198
13125SOL    HW142967   5.488   3.401   8.462 -1.8111 -0.1508 -1.4132
13125SOL    HW242968   5.502   3.502   8.574  0.7963  0.0433 -1.8657
13126SOL     OW42969   8.326   3.719   5.259 -0.5970  0.4924  0.2419
13126SOL    HW142970   8.373   3.668   5.192  1.2094  2.1967  0.1202
13126SOL    HW242971   8.275   3.783   5.209 -0.1889  0.9870  0.4493
13127SOL     OW42972   7.130   5.285   2.287  0.2664 -0.4141  0.7614
13127SOL    HW142973   7.043   5.262   2.319  0.1359 -2.0969 -0.6253
13127SOL    HW242974   7.151   5.368   2.330 -3.3206  1.7361 -1.1765
13128SOL     OW42975   9.030   6.350  10.573  0.5821 -0.3997 -0.6940
13128SOL    HW142976   9.108   6.345  10.629 -0.6785  0.9589  1.2849
13128SOL    HW242977   8.960   6.380  10.631 -1.2944 -0.9084 -2.5670
13129SOL     OW42978   0.970   2.178   1.197  0.4741  0.4206 -0.2659
13129SOL    HW142979   1.042   2.128   1.236  0.3831  0.1587 -0.4329
13129SOL    HW242980   0.993   2.270   1.213  1.2484  0.3684 -1.0419
13130SOL     OW42981   8.235   8.282   7.998 -0.0877  0.3724  0.3842
13130SOL    HW142982   8.269   8.267   7.910 -2.1879  1.0742 -0.6285
13130SOL    HW242983   8.185   8.364   7.990 -0.9562  0.0467  2.0364
13131SOL     OW42984   0.502   5.077   5.923 -0.0428  0.0613  0.5301
13131SOL    HW142985   0.496   4.997   5.975  1.1266 -0.6641 -0.4060
13131SOL    HW242986   0.596   5.092   5.914 -0.2248  1.8688  1.1539
13132SOL     OW42987   9.766   2.522   0.377 -0.3771 -0.1725 -0.1467
13132SOL    HW142988   9.768   2.427   0.390  2.3694  0.0252  1.6216
13132SOL    HW242989   9.780   2.533   0.283 -0.2131 -1.5085 -0.3010
13133SOL     OW42990   7.197   6.626   9.391 -0.3470 -0.0900 -0.2705
13133SOL    HW142991   7.271   6.596   9.340  0.7053  0.3945  0.9303
13133SOL    HW242992   7.158   6.547   9.427 -0.7005 -0.3796 -1.2646
13134SOL     OW42993  10.872   2.314  10.715 -1.0051 -0.4004  0.0698
13134SOL    HW142994  10.832   2.296  10.800  0.5864  0.3784  1.0373
13134SOL    HW242995  10.892   2.227  10.679  2.1991 -0.8458  2.4984
13135SOL     OW42996   5.184   9.710  10.004  0.0142 -0.3795 -0.5108
13135SOL    HW142997   5.193   9.804  10.017  0.0232 -0.0724 -2.4074
13135SOL    HW242998   5.139   9.678  10.082  0.1098  1.1686  0.2030
13136SOL     OW42999   4.971   7.300   2.492  0.4052 -0.1347 -0.2180
13136SOL    HW143000   5.038   7.341   2.438  0.6722  1.3956  1.2030
13136SOL    HW243001   5.013   7.284   2.576 -1.2133  1.8578  1.0859
13137SOL     OW43002   5.070   6.364   4.137 -0.3216  0.2536  0.3788
13137SOL    HW143003   5.120   6.343   4.216  1.3088  0.2522 -0.6116
13137SOL    HW243004   5.039   6.454   4.151 -0.1648  0.2048  1.0678
13138SOL     OW43005   1.393   6.877  10.268 -0.1298 -0.5383  0.1335
13138SOL    HW143006   1.475   6.842  10.304 -0.1738 -1.7490 -0.8621
13138SOL    HW243007   1.391   6.968  10.297  0.1239 -1.2461  2.6279
13139SOL     OW43008   0.168  10.275   8.571 -0.6352 -0.5317 -0.2388
13139SOL    HW143009   0.210  10.203   8.618 -0.0853  0.0002  0.0950
13139SOL    HW243010   0.232  10.301   8.505 -0.7331 -0.1765 -0.1930
13140SOL     OW43011   0.649   1.255   7.578 -0.1165 -0.6262 -0.7157
13140SOL    HW143012   0.735   1.216   7.593  0.3367 -0.0488 -1.7822
13140SOL    HW243013   0.626   1.229   7.489 -0.1087  0.9637 -1.1985
13141SOL     OW43014   9.125   4.564   7.111 -0.0151 -0.3547 -0.1088
13141SOL    HW143015   9.165   4.564   7.197 -1.4076  0.0147  0.5731
13141SOL    HW243016   9.197   4.583   7.051  1.3028 -2.2535  0.7692
13142SOL     OW43017  11.011   6.631   6.127 -0.2785 -0.0211 -0.6109
13142SOL    HW143018  11.050   6.580   6.198 -1.1276  0.4376  0.2110
13142SOL    HW243019  10.917   6.616   6.137 -0.5134  1.2762 -0.6717
13143SOL     OW43020   9.060   5.310   9.743 -0.2635 -0.2122 -0.0383
13143SOL    HW143021   9.118   5.361   9.687 -0.9601  0.5426 -0.0745
13143SOL    HW243022   8.999   5.373   9.780 -1.5465 -1.0875 -0.5786
13144SOL     OW43023   7.588   8.234  10.784  0.0260 -0.2203 -0.5665
13144SOL    HW143024   7.631   8.289  10.849  0.7761 -1.9784  0.4737
13144SOL    HW243025   7.615   8.145  10.805 -0.5698 -0.9614 -2.6374
13145SOL     OW43026   8.936  10.785   2.819 -0.0167 -0.1534 -0.5394
13145SOL    HW143027   8.988  10.754   2.893  1.2552  0.1945 -1.2685
13145SOL    HW243028   8.985  10.759   2.741 -1.1220 -0.1389 -1.2717
13146SOL     OW43029   0.586   8.817   6.636  0.0738  0.8943 -0.1670
13146SOL    HW143030   0.558   8.754   6.703  0.3529 -1.3536 -2.0202
13146SOL    HW243031   0.538   8.897   6.656 -1.0320 -0.1883  1.7789
13147SOL     OW43032   0.716   0.075   3.275 -0.0279  0.0036  0.2259
13147SOL    HW143033   0.715   0.116   3.362 -0.5894 -1.1929  0.8211
13147SOL    HW243034   0.775  -0.000   3.286  0.2952  0.1361 -0.5833
13148SOL     OW43035   3.723   5.636   0.385  0.4851 -0.0758  0.4602
13148SOL    HW143036   3.737   5.726   0.354  0.7275 -0.3143 -0.1452
13148SOL    HW243037   3.810   5.596   0.385  0.1555 -0.9052 -1.2199
13149SOL     OW43038   0.626   7.022   5.331  0.6260 -0.2399 -0.4259
13149SOL    HW143039   0.685   7.098   5.332  2.3561 -1.5207  0.9195
13149SOL    HW243040   0.668   6.961   5.270 -0.7834 -0.1259 -1.5505
13150SOL     OW43041   1.457   7.388   0.350 -0.2708  0.4624  0.5441
13150SOL    HW143042   1.545   7.425   0.343  0.3420 -0.8570  0.9354
13150SOL    HW243043   1.468   7.296   0.329 -1.6419  0.3513  0.2384
13151SOL     OW43044   1.803   4.867   8.822 -0.1806  0.7663 -0.1198
13151SOL    HW143045   1.797   4.849   8.915  0.2034  1.9933  0.1647
13151SOL    HW243046   1.715   4.894   8.797 -0.3574  0.1353 -0.1846
13152SOL     OW43047   9.541   9.442   0.755 -0.0452 -0.1531  0.4448
13152SOL    HW143048   9.542   9.468   0.663 -1.2700 -2.0812 -0.1772
13152SOL    HW243049   9.457   9.396   0.766  0.5849 -0.9907  2.2164
13153SOL     OW43050   0.363   8.438   9.369 -0.1899  0.2390  0.5810
13153SOL    HW143051   0.324   8.495   9.435 -1.1494  1.0317 -0.6301
13153SOL    HW243052   0.326   8.352   9.387 -1.5069  0.7172  0.2750
13154SOL     OW43053   1.647   4.380   1.831  0.8060 -0.6060 -0.2397
13154SOL    HW143054   1.632   4.460   1.881  0.1007 -1.1882  0.4943
13154SOL    HW243055   1.567   4.370   1.778  1.0603 -0.6182 -0.6249
13155SOL     OW43056   6.921  10.786   9.026 -0.0301  0.0726  0.6718
13155SOL    HW143057   6.976  10.825   8.958  0.1847  0.0728  0.8415
13155SOL    HW243058   6.868  10.858   9.059  1.4056  0.5874  2.0058
13156SOL     OW43059   9.063   0.607   0.910 -0.0437  0.8410  0.2257
13156SOL    HW143060   9.035   0.525   0.869 -1.5004  1.2038  0.4381
13156SOL    HW243061   9.145   0.585   0.953 -0.9000 -0.7805  1.1170
13157SOL     OW43062   4.874  10.012   2.039  0.0928  0.1863 -0.2674
13157SOL    HW143063   4.797   9.990   1.986  0.2436  2.1126 -1.3589
13157SOL    HW243064   4.852   9.978   2.126 -2.4101  1.4204 -0.3083
13158SOL     OW43065   3.557   1.087   8.198 -0.4336 -0.0121  0.1845
13158SOL    HW143066   3.592   1.109   8.112 -0.7521  0.9374  0.2834
13158SOL    HW243067   3.584   0.996   8.213 -1.0529 -0.4636 -1.2490
13159SOL     OW43068   3.261   2.465   8.730 -0.0309  0.4373 -0.2912
13159SOL    HW143069   3.297   2.464   8.641 -1.6041  0.5935 -0.9544
13159SOL    HW243070   3.249   2.373   8.753  1.4451  0.3436  0.2502
13160SOL     OW43071  11.089   0.543   2.476 -0.4171 -0.3123  0.4174
13160SOL    HW143072  11.012   0.496   2.442 -0.2433  0.0100 -0.4703
13160SOL    HW243073  11.085   0.628   2.432  0.2295 -0.1465  0.6772
13161SOL     OW43074   4.333   6.818   2.768  0.0803 -0.7242 -0.0796
13161SOL    HW143075   4.266   6.821   2.700 -0.3654 -0.3922  0.3611
13161SOL    HW243076   4.411   6.854   2.726 -0.4542  0.4096 -0.1352
13162SOL     OW43077   4.298   3.248   4.674  0.5043 -0.1843 -0.2860
13162SOL    HW143078   4.357   3.324   4.685 -0.6967  0.7542 -0.1324
13162SOL    HW243079   4.357   3.174   4.664  1.7547  0.3948  2.0204
13163SOL     OW43080   5.168  10.594   1.809 -0.2462  0.3064 -0.0210
13163SOL    HW143081   5.231  10.609   1.880  0.9951 -0.5294 -0.9108
13163SOL    HW243082   5.175  10.673   1.755  2.5901 -1.1383 -1.9569
13164SOL     OW43083   1.476   7.488   7.073 -0.0719  0.0330 -0.2413
13164SOL    HW143084   1.398   7.542   7.063  0.4572  0.7667 -0.5839
13164SOL    HW243085   1.455   7.405   7.031 -0.6465  0.2399 -0.3593
13165SOL     OW43086   8.797   7.892   4.477  0.0622 -0.1722 -0.9554
13165SOL    HW143087   8.738   7.817   4.467 -0.4106  0.1003 -0.2976
13165SOL    HW243088   8.842   7.899   4.393 -0.9277 -0.3181 -1.5037
13166SOL     OW43089   9.007  10.354   1.929 -0.0867  0.4759 -0.4856
13166SOL    HW143090   9.061  10.312   1.995 -0.3190 -1.6532 -1.5714
13166SOL    HW243091   8.929  10.384   1.976 -0.4452 -1.3783  0.1654
13167SOL     OW43092   0.351   9.153   8.492 -0.1982  0.4971  0.1314
13167SOL    HW143093   0.413   9.085   8.518  1.3454  2.0680  0.7476
13167SOL    HW243094   0.279   9.105   8.451  1.7198 -1.3751 -1.2934
13168SOL     OW43095   6.255   3.861   0.210  0.5774 -0.2396  0.1252
13168SOL    HW143096   6.202   3.891   0.284 -2.5205 -2.4946 -0.9538
13168SOL    HW243097   6.251   3.765   0.215  1.5849 -0.4725 -2.0830
13169SOL     OW43098   3.770   8.713   6.417  0.3961  0.5122 -0.0092
13169SOL    HW143099   3.736   8.718   6.328  1.5486 -0.3164 -0.5144
13169SOL    HW243100   3.713   8.770   6.468  0.5405  2.1063 -1.5426
13170SOL     OW43101   7.548   9.263   9.541 -0.1120 -0.1066 -0.4831
13170SOL    HW143102   7.514   9.312   9.466  1.1868 -0.0922 -1.0855
13170SOL    HW243103   7.626   9.311   9.568 -1.8520  1.3051  2.4884
13171SOL     OW43104   6.111   0.826   8.154 -0.1849  0.6539  0.3485
13171SOL    HW143105   6.161   0.906   8.169  0.7445  0.3369 -0.8665
13171SOL    HW243106   6.066   0.841   8.071 -2.1350  0.9133  1.3947
13172SOL     OW43107   2.128   5.014   1.475 -0.2039  0.0588 -0.2518
13172SOL    HW143108   2.212   4.991   1.437  0.0920 -0.0398  0.4382
13172SOL    HW243109   2.135   5.108   1.493 -0.9177  0.4515 -1.8402
13173SOL     OW43110   6.655   2.559   0.632 -0.6055 -0.0432 -0.8317
13173SOL    HW143111   6.611   2.617   0.694 -0.8633 -1.8270  0.7369
13173SOL    HW243112   6.584   2.521   0.580 -0.7214 -0.8383 -0.1318
13174SOL     OW43113   3.057   0.611   6.702  0.0723  0.0225  0.4740
13174SOL    HW143114   2.966   0.640   6.716  0.0465  0.8135 -1.1350
13174SOL    HW243115   3.077   0.559   6.780 -2.2192 -1.3107  0.2720
13175SOL     OW43116   0.701   9.769   3.003  0.1512 -0.0900  0.0309
13175SOL    HW143117   0.716   9.860   3.028 -1.1249  0.2086 -0.2361
13175SOL    HW243118   0.640   9.736   3.069  2.8255 -1.6849  1.9304
13176SOL     OW43119   7.598   3.601   6.572 -0.1391  0.2391 -0.5013
13176SOL    HW143120   7.659   3.541   6.528 -0.5186  0.4889 -1.3903
13176SOL    HW243121   7.654   3.664   6.616  0.2533 -0.1834 -0.3832
13177SOL     OW43122   4.229   2.061   0.344 -0.4759 -0.4354 -0.2685
13177SOL    HW143123   4.140   2.095   0.334 -1.0001 -1.9126 -0.7894
13177SOL    HW243124   4.277   2.099   0.271 -0.5497  0.7014  0.2493
13178SOL     OW43125   6.256  10.267   3.105 -0.0765 -0.2987 -0.0186
13178SOL    HW143126   6.161  10.270   3.092 -0.4585  0.3356  2.3888
13178SOL    HW243127   6.268  10.294   3.196  2.4591  0.0099 -0.3790
13179SOL     OW43128   7.788   2.782   1.923  0.2812  0.1312  0.1420
13179SOL    HW143129   7.744   2.697   1.918  0.0645  0.2920 -0.7216
13179SOL    HW243130   7.722   2.841   1.960  0.8629 -0.3465  2.0935
13180SOL     OW43131  11.051   4.378   3.632  0.0042 -0.4253  0.6423
13180SOL    HW143132  11.110   4.336   3.695 -0.7086 -1.0885  0.8771
13180SOL    HW243133  11.086   4.466   3.622 -0.8309  0.3064  3.2669
13181SOL     OW43134   5.249   1.133   2.945 -0.6151 -0.1665 -0.0198
13181SOL    HW143135   5.234   1.077   3.021  1.5186  0.1858  0.7397
13181SOL    HW243136   5.224   1.080   2.870 -0.5018 -1.4022  0.7988
13182SOL     OW43137   1.138  10.091   5.373  0.2772 -0.3293  0.3138
13182SOL    HW143138   1.147  10.185   5.389  0.0755 -0.2940  0.2334
13182SOL    HW243139   1.052  10.069   5.408 -0.3820 -0.1521 -1.1213
13183SOL     OW43140   4.455   7.752   5.440  0.5737 -0.2850  0.1081
13183SOL    HW143141   4.430   7.672   5.486 -0.0024 -0.8340 -1.1215
13183SOL    HW243142   4.531   7.726   5.387 -0.8700 -0.6316 -1.9121
13184SOL     OW43143   3.786   2.112   5.504  0.1050  0.3396 -0.7067
13184SOL    HW143144   3.744   2.055   5.440 -1.5159 -0.0263  0.6043
13184SOL    HW243145   3.732   2.103   5.583  0.0270  3.3462 -0.3014
13185SOL     OW43146   7.488   4.309   5.709 -0.0332  0.3702  0.7289
13185SOL    HW143147   7.417   4.246   5.720 -0.5326  1.0618  1.7571
13185SOL    HW243148   7.561   4.259   5.674 -1.1696 -0.2616 -0.8234
13186SOL     OW43149   0.333   6.226   0.878 -0.2401  0.2466 -0.1902
13186SOL    HW143150   0.277   6.149   0.870 -0.1397  0.2633 -1.1551
13186SOL    HW243151   0.412   6.203   0.831  0.5583  0.2584  1.0855
13187SOL     OW43152   9.742  10.231   3.234  0.2399 -0.4252  0.2414
13187SOL    HW143153   9.727  10.324   3.250  0.2757 -0.1359 -1.2842
13187SOL    HW243154   9.758  10.194   3.321 -1.3754  0.6876  1.0458
13188SOL     OW43155   7.310   6.802   5.958 -0.1465  0.1726 -0.0848
13188SOL    HW143156   7.289   6.836   5.871  0.4082 -0.0469 -0.3083
13188SOL    HW243157   7.339   6.879   6.008  0.7592  0.1087 -0.4821
13189SOL     OW43158   0.706  11.076   8.632 -0.0343 -0.2470 -0.3260
13189SOL    HW143159   0.793  11.093   8.668 -1.6090  1.5140  3.1087
13189SOL    HW243160   0.693  11.145   8.567  0.4552  0.6861  0.5355
13190SOL     OW43161   4.061   6.579   4.775  0.5547  0.0621  0.2398
13190SOL    HW143162   4.066   6.517   4.703 -1.4988  0.3493 -0.2209
13190SOL    HW243163   4.125   6.647   4.754  1.8207 -1.1403  0.0475
13191SOL     OW43164   8.086   1.134   7.432 -0.5741 -0.2262 -0.6445
13191SOL    HW143165   8.061   1.225   7.419 -0.4212 -0.3699 -2.1338
13191SOL    HW243166   8.168   1.124   7.384  1.1159 -0.3988  2.0871
13192SOL     OW43167   2.567   4.537   4.992 -0.7875  0.8540 -0.1981
13192SOL    HW143168   2.492   4.593   4.971 -2.4724  0.0526  3.0791
13192SOL    HW243169   2.617   4.587   5.056 -0.5897 -0.1304  0.4339
13193SOL     OW43170   6.442  10.074   8.993 -0.0238  0.1393  0.1746
13193SOL    HW143171   6.395  10.112   8.920  0.7473 -0.1102 -0.4692
13193SOL    HW243172   6.527  10.048   8.956 -0.9059 -3.2930  0.2541
13194SOL     OW43173   7.678   5.771   0.798 -0.5492 -0.5278  0.1173
13194SOL    HW143174   7.770   5.756   0.820 -0.8657 -3.0969 -0.0877
13194SOL    HW243175   7.659   5.708   0.729 -2.2682  0.5180 -0.4106
13195SOL     OW43176   9.608   0.616   3.354 -0.0346 -0.1938  0.0227
13195SOL    HW143177   9.555   0.640   3.278  0.7011 -0.3181 -0.5395
13195SOL    HW243178   9.560   0.545   3.396 -0.7295  0.2560 -0.0024
13196SOL     OW43179   3.833   8.425   6.986  0.0065 -0.3854  0.2913
13196SOL    HW143180   3.886   8.474   7.049 -0.7943  0.6340  0.1991
13196SOL    HW243181   3.867   8.450   6.901  1.4552 -2.1857  0.2723
13197SOL     OW43182   7.121   4.153   1.373  0.2906 -0.4244  0.6235
13197SOL    HW143183   7.108   4.077   1.430 -0.2542 -0.1766  0.8394
13197SOL    HW243184   7.076   4.130   1.292 -0.5931 -0.0122  0.9798
13198SOL     OW43185   7.344  10.379   4.124  0.2770  0.0243  0.2154
13198SOL    HW143186   7.365  10.390   4.216  0.9162 -0.1079  0.0888
13198SOL    HW243187   7.296  10.459   4.100  0.9589  0.5006  0.4189
13199SOL     OW43188   4.343   5.001   4.583  0.7179 -0.2111  0.1071
13199SOL    HW143189   4.428   4.960   4.572  1.2216  1.1906 -1.6671
13199SOL    HW243190   4.350   5.085   4.538 -1.9814 -0.5722 -1.2186
13200SOL     OW43191   7.115   8.360   7.646  0.2535 -0.4129 -0.0205
13200SOL    HW143192   7.064   8.385   7.568 -0.3661 -0.4136  0.3755
13200SOL    HW243193   7.194   8.320   7.611  0.1063 -0.1593 -0.6553
13201SOL     OW43194   6.953   3.038   5.579  0.0118 -0.5571  0.0473
13201SOL    HW143195   6.960   3.133   5.570 -0.8736 -0.3914  0.9834
13201SOL    HW243196   6.999   3.018   5.660  1.2800 -1.1102 -0.7596
13202SOL     OW43197   9.332   0.311   3.265 -0.2294  0.2547 -0.3674
13202SOL    HW143198   9.268   0.380   3.282 -0.7659 -0.4787  0.7389
13202SOL    HW243199   9.280   0.239   3.231  0.2567  0.2203 -1.0407
13203SOL     OW43200   4.939   3.195   9.779  0.1568  0.2014  0.0876
13203SOL    HW143201   4.979   3.218   9.863  0.6584 -0.6071  0.0759
13203SOL    HW243202   4.904   3.278   9.747 -0.8989  0.3626  1.5377
13204SOL     OW43203   9.438   1.267   1.944 -0.0984  0.4215  0.0454
13204SOL    HW143204   9.381   1.335   1.981 -1.3547 -0.6136  0.0771
13204SOL    HW243205   9.516   1.315   1.915  0.8436  1.3920  3.6642
13205SOL     OW43206   8.746  10.261   3.668  0.1660 -0.2106 -0.3639
13205SOL    HW143207   8.664  10.230   3.631  0.5657  0.2106 -1.6754
13205SOL    HW243208   8.722  10.335   3.723 -0.4970 -1.1280  0.6134
13206SOL     OW43209   7.680   2.650  10.820  0.0611  0.2235  0.0897
13206SOL    HW143210   7.728   2.619  10.744  1.1905  0.7471  0.5612
13206SOL    HW243211   7.627   2.722  10.788 -0.0574 -0.0573 -0.3480
13207SOL     OW43212  10.292   0.803  10.498 -0.2533  0.1612 -0.0565
13207SOL    HW143213  10.316   0.865  10.567  1.3670 -1.7350  1.1733
13207SOL    HW243214  10.370   0.796  10.444 -1.2576  1.0387 -1.7163
13208SOL     OW43215  10.742   3.405   4.402 -0.2947 -0.2068 -0.1219
13208SOL    HW143216  10.724   3.357   4.483  0.5375  1.1838  0.9176
13208SOL    HW243217  10.669   3.466   4.393 -0.7854 -0.8770 -0.8611
13209SOL     OW43218   1.521   8.877   8.221 -0.3612  0.1311  0.4482
13209SOL    HW143219   1.607   8.917   8.212 -0.3599  0.0277  0.0064
13209SOL    HW243220   1.460   8.951   8.217 -0.3839  0.0660 -0.7607
13210SOL     OW43221   4.149   5.911   4.704  0.1319  0.0318 -0.5254
13210SOL    HW143222   4.119   5.990   4.660 -1.5871 -2.0838 -3.6215
13210SOL    HW243223   4.245   5.914   4.697  0.1201  1.9823 -0.1790
13211SOL     OW43224  10.645   6.360   7.085 -0.1156 -0.3053  0.0554
13211SOL    HW143225  10.704   6.311   7.028  0.1352 -1.8378  1.5759
13211SOL    HW243226  10.591   6.293   7.127 -0.8146  0.8427  1.0376
13212SOL     OW43227   6.054  10.407   6.690  0.2970 -0.5399  0.2668
13212SOL    HW143228   5.978  10.423   6.746  1.8148  0.4576  2.1735
13212SOL    HW243229   6.090  10.324   6.721  0.2219 -0.8009 -0.3404
13213SOL     OW43230   1.803   6.176   2.042  0.0759 -0.7686 -0.0270
13213SOL    HW143231   1.892   6.162   2.075  0.4806 -0.3598 -0.8932
13213SOL    HW243232   1.814   6.181   1.947 -1.1672 -2.9060 -0.3421
13214SOL     OW43233   1.524   7.563   5.664 -0.6619  0.2138 -0.1361
13214SOL    HW143234   1.612   7.600   5.674  0.1359 -1.6218  0.0153
13214SOL    HW243235   1.513   7.551   5.570  0.1301 -1.4778 -0.0469
13215SOL     OW43236   9.519   9.942   8.236 -0.2026  0.1755 -0.1823
13215SOL    HW143237   9.464   9.907   8.307 -1.8422 -0.4697 -1.6826
13215SOL    HW243238   9.458   9.991   8.181  1.2854  1.7968 -0.4790
13216SOL     OW43239   2.801   5.176   5.613 -0.0371  0.0329 -0.3912
13216SOL    HW143240   2.813   5.191   5.520 -0.0866  0.3330 -0.3528
13216SOL    HW243241   2.708   5.195   5.629 -0.3006 -1.1339 -0.4818
13217SOL     OW43242   9.971   5.661   2.971 -0.0492  0.0406  0.6665
13217SOL    HW143243   9.966   5.756   2.961  0.0044 -0.1218 -1.3539
13217SOL    HW243244   9.904   5.626   2.911  0.3744 -1.2091  0.8792
13218SOL     OW43245   0.351   2.606   5.612 -0.1330 -0.2650  0.7371
13218SOL    HW143246   0.351   2.665   5.687  0.0080  0.3144  0.2925
13218SOL    HW243247   0.429   2.551   5.625  0.0880  0.0685  0.8377
13219SOL     OW43248   8.637   1.767   7.185 -0.2832 -0.0278 -0.2862
13219SOL    HW143249   8.594   1.695   7.138 -0.6734  1.3916 -2.2104
13219SOL    HW243250   8.657   1.730   7.271 -4.9151 -1.0362  0.6568
13220SOL     OW43251   0.841   2.852   3.798 -0.2090  0.2491  0.1186
13220SOL    HW143252   0.855   2.809   3.882 -0.0964 -1.9225 -0.9493
13220SOL    HW243253   0.912   2.818   3.742 -1.2977  0.2859 -1.3324
13221SOL     OW43254   6.662   7.998   5.331 -0.0039  0.6796 -0.2115
13221SOL    HW143255   6.665   8.074   5.273 -0.8337  0.2559 -0.8383
13221SOL    HW243256   6.727   7.938   5.295 -0.7444  0.2850 -0.9112
13222SOL     OW43257   8.063   4.965   6.258 -0.4519 -0.5643  0.2492
13222SOL    HW143258   8.041   5.047   6.214 -0.8375 -0.7905  0.0173
13222SOL    HW243259   7.989   4.946   6.314 -0.1894 -0.5519  0.6009
13223SOL     OW43260  10.035   4.810  10.787 -0.3539 -0.4225 -0.0751
13223SOL    HW143261  10.120   4.853  10.800 -0.8420  1.0449 -1.3828
13223SOL    HW243262   9.975   4.860  10.842 -0.2645 -2.0004  1.5281
13224SOL     OW43263   1.559   4.245   6.592 -0.5116  0.9875  0.3665
13224SOL    HW143264   1.492   4.296   6.637 -0.6446  2.3441 -1.2652
13224SOL    HW243265   1.514   4.207   6.516  0.2875  0.9633 -0.1082
13225SOL     OW43266   1.282   4.298   3.530  0.7214  1.0076  0.5430
13225SOL    HW143267   1.213   4.285   3.595  0.7367  2.6863  0.9365
13225SOL    HW243268   1.348   4.233   3.552 -0.4324 -0.2229  0.5401
13226SOL     OW43269   8.500   9.263   8.632  0.3884 -0.1002  0.3447
13226SOL    HW143270   8.552   9.224   8.561 -1.8320  1.0574 -2.0535
13226SOL    HW243271   8.554   9.335   8.664  0.6630  0.5897 -1.5523
13227SOL     OW43272   4.779   5.610   2.306 -0.4946  0.3665  0.0528
13227SOL    HW143273   4.841   5.643   2.241  1.4683 -0.8968  1.1793
13227SOL    HW243274   4.815   5.638   2.390 -1.8332  0.1634  0.7157
13228SOL     OW43275   0.652   5.286   4.807  0.0286 -0.0865  0.0352
13228SOL    HW143276   0.716   5.357   4.794  0.4287 -0.5590 -0.6347
13228SOL    HW243277   0.592   5.294   4.733  0.3118 -0.6874 -0.2639
13229SOL     OW43278   8.799   9.384   3.366 -0.3725 -0.6541 -0.0352
13229SOL    HW143279   8.730   9.450   3.373 -0.5154 -0.2833 -3.3848
13229SOL    HW243280   8.762   9.316   3.309  0.9258 -2.0766  0.7292
13230SOL     OW43281   9.976   0.871   9.358  0.5748  0.0500 -0.0730
13230SOL    HW143282  10.020   0.946   9.398  3.5902 -2.6243  2.0973
13230SOL    HW243283   9.987   0.800   9.421 -1.6155 -2.4280 -2.2482
13231SOL     OW43284   9.692   5.417  10.258 -0.9765  0.9077  0.0779
13231SOL    HW143285   9.647   5.351  10.206  0.3333  0.0451  0.0019
13231SOL    HW243286   9.743   5.467  10.193 -0.2566  0.5754  0.3720
13232SOL     OW43287   6.959   5.751  10.704 -0.3337  0.5618  0.0447
13232SOL    HW143288   6.886   5.690  10.695  0.0722  0.2649 -1.4520
13232SOL    HW243289   6.980   5.749  10.798 -2.0663  0.4695  0.4690
13233SOL     OW43290   4.334   2.419   8.934  0.3909  0.1295 -0.0133
13233SOL    HW143291   4.251   2.425   8.981  0.0766  0.6531 -0.6218
13233SOL    HW243292   4.334   2.495   8.875  0.5226 -0.7923 -1.2405
13234SOL     OW43293   0.125   9.983   4.529 -0.7903 -0.2081  0.1203
13234SOL    HW143294   0.152   9.932   4.452 -0.6565 -0.9644  0.6564
13234SOL    HW243295   0.163   9.936   4.603 -0.1467  1.0167  0.5966
13235SOL     OW43296   6.257   5.147   4.144 -0.9209  0.5391  0.1378
13235SOL    HW143297   6.236   5.105   4.061 -0.9147 -0.3859  0.5973
13235SOL    HW243298   6.177   5.139   4.196 -1.2986  2.0731 -0.1344
13236SOL     OW43299   6.002   5.195   8.990  0.1925 -0.3983 -0.6311
13236SOL    HW143300   5.969   5.190   9.080  1.5230 -2.1609 -0.1833
13236SOL    HW243301   5.937   5.148   8.938  0.0083 -0.3962 -0.4059
13237SOL     OW43302   2.378   5.482   5.530 -0.3141 -0.5605  0.5009
13237SOL    HW143303   2.303   5.434   5.566 -0.0868 -2.3842 -1.2648
13237SOL    HW243304   2.355   5.574   5.543 -2.5975 -1.0676  0.5736
13238SOL     OW43305   6.841   9.904   4.881 -0.4662 -0.8145  0.7645
13238SOL    HW143306   6.765   9.931   4.829 -0.5629 -1.6762  0.4560
13238SOL    HW243307   6.852   9.975   4.945 -0.5115  0.1156 -0.2398
13239SOL     OW43308  10.753   3.171   9.181 -0.0653  0.1882 -0.1488
13239SOL    HW143309  10.805   3.213   9.250 -0.1632  0.6837 -0.3775
13239SOL    HW243310  10.761   3.077   9.200  0.9082  0.2572 -0.1812
13240SOL     OW43311   7.650   5.087   2.657  0.0566  0.0403 -0.5964
13240SOL    HW143312   7.568   5.120   2.621  0.0561  0.1488 -0.4937
13240SOL    HW243313   7.649   5.111   2.749 -0.6771 -1.6445 -0.1216
13241SOL     OW43314   6.562   8.453   7.569 -0.1525 -0.4537 -0.3274
13241SOL    HW143315   6.601   8.366   7.571 -0.1194 -0.4746  2.6894
13241SOL    HW243316   6.636   8.513   7.558  0.0061 -0.7407 -0.8111
13242SOL     OW43317   1.778   1.559   4.059  0.1011  0.3915  0.7040
13242SOL    HW143318   1.703   1.562   4.118 -1.7157  2.1024 -1.4861
13242SOL    HW243319   1.841   1.621   4.096  0.1278 -0.4707  2.1537
13243SOL     OW43320   4.467   9.288  10.708 -0.5222 -0.1071 -0.0745
13243SOL    HW143321   4.389   9.241  10.679 -0.6388  0.5062 -0.8148
13243SOL    HW243322   4.433   9.371  10.742 -0.4343 -0.9979  2.3726
13244SOL     OW43323   8.309   7.201   8.435  0.3266  0.1539 -0.7163
13244SOL    HW143324   8.318   7.259   8.359 -0.5181  2.1128  0.6030
13244SOL    HW243325   8.395   7.202   8.477  0.2803  0.5810 -0.6272
13245SOL     OW43326   8.027   8.660   5.427  0.3314  0.1547  0.4245
13245SOL    HW143327   8.072   8.672   5.510  2.6762  1.0126 -0.8607
13245SOL    HW243328   8.070   8.721   5.367 -0.4505 -1.2416 -1.7107
13246SOL     OW43329   5.347  11.033   0.126  0.2213 -0.2865 -0.0578
13246SOL    HW143330   5.377  11.004   0.039 -0.0464 -0.1482 -0.1965
13246SOL    HW243331   5.260  10.994   0.135 -0.3777  0.8914 -0.4705
13247SOL     OW43332   2.659   4.952   6.823  0.4931  0.0783 -0.2797
13247SOL    HW143333   2.651   4.888   6.752 -0.2783  1.2347 -1.2778
13247SOL    HW243334   2.593   5.019   6.802 -1.7681 -0.8632  2.9819
13248SOL     OW43335   9.053   1.813   5.961  0.3959  0.3702 -0.4613
13248SOL    HW143336   9.125   1.838   6.019  0.5694 -1.3894  0.1320
13248SOL    HW243337   9.096   1.769   5.887 -0.0531 -0.6571 -0.1226
13249SOL     OW43338   4.548  10.886   4.809 -0.3350 -0.0577 -0.3843
13249SOL    HW143339   4.470  10.845   4.848 -0.7405  0.5228 -0.5669
13249SOL    HW243340   4.574  10.953   4.871 -0.6090  0.4491 -0.8119
13250SOL     OW43341   3.350   9.872   1.085 -0.1125  0.1133 -0.1913
13250SOL    HW143342   3.303   9.830   1.013  2.1608 -0.5135 -1.4026
13250SOL    HW243343   3.281   9.895   1.148 -2.0348 -0.4826 -1.9524
13251SOL     OW43344   9.136   8.142   2.966 -0.5425  0.3855  0.2696
13251SOL    HW143345   9.143   8.237   2.960  0.4406  0.3686  0.9235
13251SOL    HW243346   9.225   8.112   2.985 -0.9019 -0.6361  0.4270
13252SOL     OW43347   6.750   9.819   4.430  0.1635  0.4005 -0.5550
13252SOL    HW143348   6.836   9.858   4.411  0.7067  0.6601  2.1102
13252SOL    HW243349   6.770   9.729   4.456 -0.2012  0.8030  1.2215
13253SOL     OW43350   6.842   6.090   0.738 -0.0932  0.3470  0.1573
13253SOL    HW143351   6.889   6.063   0.659 -0.4849  0.7935 -0.2329
13253SOL    HW243352   6.751   6.064   0.723  0.1490 -1.4006  1.3130
13254SOL     OW43353   6.656   0.344   3.050  0.7538  0.0299  0.0026
13254SOL    HW143354   6.567   0.342   3.086  1.2796 -2.5461  1.3464
13254SOL    HW243355   6.680   0.252   3.040  3.9583  0.5848  1.4681
13255SOL     OW43356   4.162   2.852   7.240 -0.2676  0.0222  0.5723
13255SOL    HW143357   4.234   2.789   7.241  1.6060  1.9484 -1.1315
13255SOL    HW243358   4.092   2.810   7.291  1.8197 -2.2041  1.8387
13256SOL     OW43359   0.843   8.887   6.500  0.7575 -0.3496  0.3788
13256SOL    HW143360   0.761   8.937   6.503 -0.7633 -2.6766  0.1132
13256SOL    HW243361   0.842   8.835   6.580  0.6824 -2.2620 -0.8042
13257SOL     OW43362   8.864   2.696   8.766  0.2195  0.4042  0.5951
13257SOL    HW143363   8.911   2.616   8.790 -1.2403 -0.6651  0.0302
13257SOL    HW243364   8.811   2.717   8.842 -0.0599  0.3220  0.4246
13258SOL     OW43365   1.977   0.999   3.655  0.5540  0.1306  0.2149
13258SOL    HW143366   2.054   1.046   3.624  0.6775 -0.1720  0.0648
13258SOL    HW243367   1.917   1.001   3.580  0.8100 -0.5068 -0.0088
13259SOL     OW43368  10.280   5.205   9.855  0.5254 -0.5822  0.2111
13259SOL    HW143369  10.353   5.144   9.865  0.2439 -1.1721 -1.1246
13259SOL    HW243370  10.205   5.151   9.831 -0.5024 -0.0357  1.9548
13260SOL     OW43371   7.821   6.975   0.992 -0.1476 -0.5870  0.4620
13260SOL    HW143372   7.794   6.998   0.903 -0.9164 -0.1607  0.7990
13260SOL    HW243373   7.826   6.879   0.992  2.6065 -0.5454 -0.8243
13261SOL     OW43374   4.985   3.964   9.814 -0.4608  0.0144 -0.6744
13261SOL    HW143375   5.016   4.026   9.879  0.2271 -0.8227 -0.1923
13261SOL    HW243376   4.974   4.017   9.734  2.5077  0.3267 -0.9735
13262SOL     OW43377   3.323   2.670   4.919 -0.0765  0.1114  0.5864
13262SOL    HW143378   3.345   2.636   4.832  0.8635  0.1871  0.7861
13262SOL    HW243379   3.388   2.631   4.977 -0.6008  0.1936  1.2297
13263SOL     OW43380   9.105   3.665   2.414  0.1988 -0.2516  0.3998
13263SOL    HW143381   9.154   3.603   2.360 -0.9301 -0.6897 -0.1693
13263SOL    HW243382   9.013   3.650   2.390 -0.2448  0.3173  1.6515
13264SOL     OW43383   1.129   7.200   7.164  0.2096  0.4905 -0.3589
13264SOL    HW143384   1.116   7.110   7.197 -0.0121  0.0012 -1.7297
13264SOL    HW243385   1.199   7.235   7.219 -2.1465  0.7995  2.7126
13265SOL     OW43386   1.701  10.491  10.656 -0.0423  0.0889 -0.3440
13265SOL    HW143387   1.689  10.558  10.723  1.4443 -1.4634  1.5745
13265SOL    HW243388   1.684  10.537  10.574  0.2276  2.6432  0.9210
13266SOL     OW43389   3.774   3.463   2.042 -0.7096 -0.0631  0.2238
13266SOL    HW143390   3.738   3.395   2.099 -1.3936 -2.3017 -2.6690
13266SOL    HW243391   3.699   3.493   1.991 -0.1388  1.9574  0.4947
13267SOL     OW43392   8.298   9.455   2.789 -0.8789 -0.1618  0.0345
13267SOL    HW143393   8.385   9.493   2.794 -0.9641  0.6436 -2.9652
13267SOL    HW243394   8.252   9.491   2.865  0.7501  1.1067  0.4802
13268SOL     OW43395   9.843   9.671   9.053 -0.0815  0.2682 -0.1545
13268SOL    HW143396   9.929   9.672   9.012  0.5097 -0.7230  0.9929
13268SOL    HW243397   9.858   9.635   9.140 -1.8644 -1.2807 -0.4185
13269SOL     OW43398   9.209   4.831   1.692  0.2707  0.2570  0.6130
13269SOL    HW143399   9.239   4.914   1.654  0.2220  0.1837  0.4141
13269SOL    HW243400   9.187   4.776   1.617  0.1225  0.1297  0.7476
13270SOL     OW43401   3.620   7.898   7.692 -0.4003  0.6152  0.2690
13270SOL    HW143402   3.684   7.954   7.648 -0.5485 -2.0169 -3.8583
13270SOL    HW243403   3.537   7.943   7.682 -0.2931  0.4548 -1.6087
13271SOL     OW43404  10.582   9.996   8.452  0.1541  0.6203 -0.3394
13271SOL    HW143405  10.535   9.917   8.480 -0.8361  1.4960  0.5660
13271SOL    HW243406  10.673   9.980   8.477  0.0545 -0.4035 -0.5674
13272SOL     OW43407   0.988   0.377   4.702 -0.1410  0.3296 -0.2548
13272SOL    HW143408   1.053   0.351   4.636  0.3948 -0.4363  0.5592
13272SOL    HW243409   0.996   0.472   4.707 -0.2341  0.4122 -1.3282
13273SOL     OW43410   3.129   3.548   7.298  0.2992 -0.0910  0.0793
13273SOL    HW143411   3.120   3.533   7.392  0.2551 -1.6894 -0.1615
13273SOL    HW243412   3.040   3.544   7.264  0.3811 -0.2287 -0.1234
13274SOL     OW43413   3.214   5.450   8.505  0.2346  0.2660  0.0564
13274SOL    HW143414   3.213   5.433   8.411 -1.2427 -0.1919  0.1340
13274SOL    HW243415   3.307   5.459   8.527  0.5827  0.7231 -1.4954
13275SOL     OW43416   3.385   6.672   8.801 -0.2802  0.3109 -0.0522
13275SOL    HW143417   3.340   6.591   8.824  1.7863 -0.7539  0.4755
13275SOL    HW243418   3.370   6.683   8.707 -0.0507 -1.0632 -0.2669
13276SOL     OW43419   6.865   0.552   3.968  0.5300 -0.2944  0.9496
13276SOL    HW143420   6.905   0.518   4.047 -2.4012 -1.8233  1.9239
13276SOL    HW243421   6.826   0.635   3.994 -0.1483 -0.6352  1.0332
13277SOL     OW43422   4.251   0.592  10.811 -0.3956  0.5325 -0.1811
13277SOL    HW143423   4.172   0.568  10.859  1.4871 -1.4975  2.2444
13277SOL    HW243424   4.252   0.687  10.811 -3.5184  0.6826 -1.6717
13278SOL     OW43425   3.545   5.251   3.939  0.2778  0.5150  0.4407
13278SOL    HW143426   3.592   5.173   3.908 -0.6543 -0.4536  1.4085
13278SOL    HW243427   3.610   5.299   3.991  0.9334  0.5429 -0.3813
13279SOL     OW43428   5.386   2.660   1.947  0.2780 -0.0324  0.2436
13279SOL    HW143429   5.354   2.652   1.857 -1.8482  0.1496  0.9271
13279SOL    HW243430   5.371   2.751   1.971  0.1147 -0.2452  1.0052
13280SOL     OW43431   3.305   8.995   4.224 -0.0667 -0.2706  0.0396
13280SOL    HW143432   3.219   8.955   4.213  0.4502 -0.9701 -2.0444
13280SOL    HW243433   3.328   8.979   4.315 -1.2713 -1.8952  0.0981
13281SOL     OW43434   2.946   4.890  10.467  0.5923 -0.0518 -0.7687
13281SOL    HW143435   2.904   4.974  10.484  0.2773 -0.3252 -0.1633
13281SOL    HW243436   2.875   4.826  10.473  0.7489 -0.3236 -1.6355
13282SOL     OW43437   2.883   2.806   9.158 -0.0065  0.1453  0.1664
13282SOL    HW143438   2.809   2.827   9.102  0.2907 -2.8604 -1.5605
13282SOL    HW243439   2.858   2.724   9.200  1.9423 -0.4188  0.2971
13283SOL     OW43440   1.217   5.265   6.586  0.3174 -0.6050  0.0457
13283SOL    HW143441   1.231   5.259   6.681  0.2176  1.0420  0.1858
13283SOL    HW243442   1.304   5.282   6.550  0.1695 -0.0527 -0.0465
13284SOL     OW43443   5.765   3.466   1.151 -0.4505  0.7067  0.2254
13284SOL    HW143444   5.843   3.458   1.204 -0.8061 -0.4903  0.5898
13284SOL    HW243445   5.798   3.488   1.063  0.4286 -1.2661  0.0040
13285SOL     OW43446   7.873  10.745   4.785  0.3224  0.6643  0.4459
13285SOL    HW143447   7.843  10.830   4.754  0.2157  0.9197  1.2183
13285SOL    HW243448   7.841  10.740   4.875  1.8374  0.5648  0.9981
13286SOL     OW43449   8.084   0.993   9.702  0.3618 -0.3963  0.1913
13286SOL    HW143450   8.043   1.001   9.788  0.7561 -1.4856  0.4928
13286SOL    HW243451   8.152   1.060   9.702  0.1727 -0.1962  0.6130
13287SOL     OW43452   7.950   3.884   9.347 -0.3336  0.0040 -0.0126
13287SOL    HW143453   7.995   3.922   9.422 -1.4079  0.2752  0.5115
13287SOL    HW243454   8.018   3.875   9.280  0.0731  2.3326  0.0317
13288SOL     OW43455   0.486   3.319   6.093 -0.3756 -0.4452  0.2361
13288SOL    HW143456   0.577   3.345   6.108  0.4154 -2.1003 -1.3290
13288SOL    HW243457   0.450   3.307   6.181  1.1840 -0.5868  0.8791
13289SOL     OW43458  10.390   8.411   9.464 -0.3158  0.3616 -0.3054
13289SOL    HW143459  10.444   8.335   9.486 -1.3464 -0.2419  0.2297
13289SOL    HW243460  10.392   8.415   9.369  1.0106  0.6153 -0.2857
13290SOL     OW43461   8.859   6.081   4.321  0.8885 -0.2064  0.3637
13290SOL    HW143462   8.801   6.080   4.245  0.8259  1.2992  0.3648
13290SOL    HW243463   8.926   6.146   4.300  0.7012  0.4540  1.6958
13291SOL     OW43464   5.509   8.932  10.739  0.0576  0.2798  0.2124
13291SOL    HW143465   5.450   8.859  10.719  1.5995 -1.1019  0.4879
13291SOL    HW243466   5.552   8.906  10.820  1.4768  0.9575 -0.3048
13292SOL     OW43467   8.323   7.434   1.524 -0.0350  0.1369  0.0875
13292SOL    HW143468   8.243   7.381   1.522 -0.5410  0.8930 -1.1019
13292SOL    HW243469   8.312   7.489   1.602 -0.7225  0.2657 -0.0865
13293SOL     OW43470   3.483   5.479   4.888  0.4987 -0.0821 -0.2243
13293SOL    HW143471   3.405   5.456   4.837  0.3214  0.8423 -0.3834
13293SOL    HW243472   3.555   5.436   4.843  0.5671  1.8874 -2.1641
13294SOL     OW43473   4.014   3.529   2.387  0.4787  0.3082  0.0117
13294SOL    HW143474   4.065   3.455   2.420 -0.6076 -0.6832 -0.4455
13294SOL    HW243475   4.018   3.594   2.456  0.7743 -0.5121  0.7894
13295SOL     OW43476   4.183   3.048   3.082  0.2285 -0.1357 -0.1938
13295SOL    HW143477   4.226   3.063   3.166  0.3990 -0.0202 -0.3007
13295SOL    HW243478   4.239   2.985   3.037  0.3536  0.1098 -0.3834
13296SOL     OW43479   7.060   3.610   3.424  0.5159  0.4628  0.2181
13296SOL    HW143480   7.021   3.560   3.352  1.4846  0.8700 -0.6161
13296SOL    HW243481   7.067   3.547   3.496  1.2539 -0.4904 -0.6505
13297SOL     OW43482   9.227   4.527   5.880 -0.2389 -0.4853 -0.5811
13297SOL    HW143483   9.297   4.552   5.819 -0.4018 -0.3729 -0.7194
13297SOL    HW243484   9.180   4.608   5.897 -0.3690 -0.5725 -0.5296
13298SOL     OW43485   4.880  10.464  10.460 -0.3705 -0.0062  0.2738
13298SOL    HW143486   4.823  10.402  10.505 -0.3871 -0.0407  0.2067
13298SOL    HW243487   4.868  10.443  10.367 -0.6216  0.3136  0.2344
13299SOL     OW43488   3.519   0.070   4.582  0.3774  0.2764 -0.9966
13299SOL    HW143489   3.508   0.165   4.596  0.6406  0.2716 -0.7448
13299SOL    HW243490   3.583   0.044   4.649 -1.4601 -0.5111  0.5449
13300SOL     OW43491   0.398   7.063   9.331 -0.5486 -0.1181 -0.2657
13300SOL    HW143492   0.460   7.135   9.342  1.5559 -1.9522  0.7954
13300SOL    HW243493   0.427   7.018   9.252 -1.5899 -0.0380 -0.7029
13301SOL     OW43494   8.735   4.625   7.440  0.6526 -0.7094  0.0496
13301SOL    HW143495   8.640   4.618   7.426  0.1653 -1.3164  2.9034
13301SOL    HW243496   8.765   4.686   7.373 -2.2218  1.5057  0.5614
13302SOL     OW43497   3.489   8.373  10.720  0.3786  0.3381 -0.3780
13302SOL    HW143498   3.519   8.330  10.640  0.5824  1.1010 -0.7191
13302SOL    HW243499   3.561   8.361  10.782  0.4989  0.3147 -0.5211
13303SOL     OW43500   4.617   3.962   0.172  0.1126 -0.6183 -0.5442
13303SOL    HW143501   4.642   3.956   0.265  1.1617 -2.9588 -0.9020
13303SOL    HW243502   4.694   3.930   0.125 -0.5435  0.1877 -2.2284
13304SOL     OW43503   9.410   1.675   7.306  0.3437 -0.1428 -0.1498
13304SOL    HW143504   9.457   1.735   7.248 -0.7703  1.8211  0.8316
13304SOL    HW243505   9.350   1.627   7.249 -0.0062  1.0052 -0.7777
13305SOL     OW43506   3.464   9.087   4.561  0.0527 -0.3184 -0.7982
13305SOL    HW143507   3.484   9.179   4.546 -1.1076 -0.0622 -0.8259
13305SOL    HW243508   3.369   9.081   4.553  0.0180 -1.3495  0.0965
13306SOL     OW43509   0.515   0.968   5.534 -0.3216  0.4007 -0.1789
13306SOL    HW143510   0.549   1.040   5.482  1.5534  0.1351  0.6265
13306SOL    HW243511   0.457   1.009   5.598  1.8528  1.4242  1.2219
13307SOL     OW43512   6.303  10.016   0.758  0.8649 -0.2567 -0.3031
13307SOL    HW143513   6.289   9.940   0.815  0.7454 -1.0903 -1.4071
13307SOL    HW243514   6.372   9.988   0.698  0.7636  0.4883 -0.7733
13308SOL     OW43515  10.245   3.769  10.064 -0.0836  0.2112  0.1132
13308SOL    HW143516  10.312   3.833  10.041  0.6715 -0.1344  1.2661
13308SOL    HW243517  10.282   3.685  10.037 -0.0569  0.0206  0.7363
13309SOL     OW43518  10.503   4.756   2.650  0.3386  0.3940  0.6999
13309SOL    HW143519  10.526   4.706   2.728  0.8362 -0.2922  0.1310
13309SOL    HW243520  10.538   4.844   2.665  0.1633  0.3519  1.3682
13310SOL     OW43521   6.182   6.103   0.754  0.2781 -0.2095  0.0940
13310SOL    HW143522   6.170   6.188   0.796  0.0130  0.4639 -1.2718
13310SOL    HW243523   6.266   6.071   0.787  0.8829  1.0768 -0.1591
13311SOL     OW43524   7.580   7.662   8.902  0.0742 -0.3645  0.1458
13311SOL    HW143525   7.652   7.637   8.844 -0.0191 -1.9811  0.6928
13311SOL    HW243526   7.623   7.696   8.980  0.4239 -3.8498  1.6296
13312SOL     OW43527   2.970   0.037   8.571  0.4879 -0.7694 -0.0211
13312SOL    HW143528   2.904   0.031   8.640  0.4503 -1.5586 -0.1169
13312SOL    HW243529   2.923   0.015   8.491  0.4401  0.5326 -0.3713
13313SOL     OW43530   2.514   2.031   1.829  0.4272 -0.1120  0.8797
13313SOL    HW143531   2.512   1.995   1.740 -1.2080  0.4368  0.6755
13313SOL    HW243532   2.516   2.126   1.817  0.2057 -0.0313  1.4292
13314SOL     OW43533   9.218   8.692  11.083  0.0796 -0.1735  0.2289
13314SOL    HW143534   9.178   8.605  11.085  0.4171 -0.3219  1.1331
13314SOL    HW243535   9.287   8.688  11.149 -0.1104  0.8785  0.5163
13315SOL     OW43536  10.107   3.582  10.719 -0.1472 -0.4984  0.2948
13315SOL    HW143537  10.037   3.534  10.674  0.3813 -1.4152  0.4073
13315SOL    HW243538  10.133   3.524  10.791  1.1213 -0.4590 -0.1012
13316SOL     OW43539  10.704   2.730   4.338  0.1967 -0.2524 -0.2256
13316SOL    HW143540  10.648   2.717   4.261 -0.6408 -1.9977  0.6220
13316SOL    HW243541  10.763   2.655   4.337 -0.1081 -0.5333  1.0303
13317SOL     OW43542   1.003   2.286   1.673 -0.3123 -0.4035  0.0956
13317SOL    HW143543   0.917   2.324   1.655  0.1702  0.5690 -0.2257
13317SOL    HW243544   1.016   2.221   1.604 -0.2720  0.3201 -0.5971
13318SOL     OW43545   5.792  10.672   5.343  0.7225 -0.1175 -0.2543
13318SOL    HW143546   5.849  10.670   5.266  0.8137  0.1090 -0.1909
13318SOL    HW243547   5.703  10.672   5.306  0.7656 -0.0867 -0.3584
13319SOL     OW43548   1.967   0.273   1.603 -0.4635 -0.1727 -0.1353
13319SOL    HW143549   2.023   0.261   1.680 -1.3561  1.7844  0.8875
13319SOL    HW243550   1.878   0.264   1.637 -0.8578 -0.3041 -1.1670
13320SOL     OW43551   7.110   3.153   6.982  0.6710  0.0017  0.1221
13320SOL    HW143552   7.187   3.189   7.027  1.4744 -1.5700  0.0674
13320SOL    HW243553   7.115   3.059   6.999  0.4995 -0.5340 -2.4871
13321SOL     OW43554   6.849   3.904   7.388 -0.5970  0.2017  0.1895
13321SOL    HW143555   6.893   3.886   7.305  1.7320  0.4557  1.2827
13321SOL    HW243556   6.869   3.828   7.443 -0.8090  0.7152  0.9991
13322SOL     OW43557   5.228  10.908   1.761 -0.2018  0.3047 -0.0635
13322SOL    HW143558   5.234  10.985   1.818  0.0498  0.7484 -0.6733
13322SOL    HW243559   5.174  10.937   1.687  1.6726  0.6192 -1.3985
13323SOL     OW43560   7.347   1.974   2.271  0.5389  0.0059 -0.0087
13323SOL    HW143561   7.389   1.895   2.304  1.4515  0.7864  0.7932
13323SOL    HW243562   7.342   2.032   2.348 -2.0372 -0.0335 -0.0721
13324SOL     OW43563   3.813  10.735   9.103 -0.0859 -0.2144  1.0426
13324SOL    HW143564   3.765  10.658   9.073  1.4402  0.3751 -3.7921
13324SOL    HW243565   3.756  10.809   9.080  0.9609  0.2821 -0.0479
13325SOL     OW43566   3.211   3.955   4.056  0.2743  0.3705 -0.4668
13325SOL    HW143567   3.131   3.983   4.012 -0.0674  0.2777  0.0808
13325SOL    HW243568   3.255   3.898   3.993 -0.8736 -0.8577 -0.2104
13326SOL     OW43569   9.528   1.939   6.662  0.7180 -0.2039  0.5626
13326SOL    HW143570   9.538   1.987   6.580 -0.6305 -1.9492 -0.6985
13326SOL    HW243571   9.613   1.899   6.677  1.1928  0.7351  0.4381
13327SOL     OW43572   5.252   4.512   3.743  0.0475 -0.8462  0.2353
13327SOL    HW143573   5.193   4.511   3.667  0.9213  0.4001 -0.4883
13327SOL    HW243574   5.213   4.576   3.802  0.1464 -0.7493  0.1954
13328SOL     OW43575   7.229   1.123   9.775 -0.3052  0.9683  0.1369
13328SOL    HW143576   7.184   1.039   9.781 -2.3643  1.9059 -1.2089
13328SOL    HW243577   7.181   1.181   9.834  0.9655  1.2770  0.8995
13329SOL     OW43578   5.792  10.388   7.810 -0.2235  0.4194  0.1120
13329SOL    HW143579   5.742  10.396   7.728 -0.6955  0.3647  0.3877
13329SOL    HW243580   5.755  10.310   7.852 -0.1112  0.5585  0.4642
13330SOL     OW43581   4.157   8.757   6.833  0.4215 -0.0534 -0.3301
13330SOL    HW143582   4.176   8.740   6.741  0.5649  0.7573 -0.4545
13330SOL    HW243583   4.064   8.740   6.842  0.5051 -0.6329 -0.5046
13331SOL     OW43584   2.041  10.755   8.516  0.1391 -0.9440 -0.6524
13331SOL    HW143585   2.070  10.798   8.596 -0.3043  0.3349 -1.1484
13331SOL    HW243586   2.044  10.824   8.449 -1.1449 -1.5292 -1.3621
13332SOL     OW43587  10.687   0.173   2.192 -0.0921 -0.2674  0.9845
13332SOL    HW143588  10.780   0.194   2.207  0.6041 -0.6579 -2.0555
13332SOL    HW243589  10.688   0.113   2.118 -2.8293 -0.0198  0.6499
13333SOL     OW43590   9.932   0.337  10.388 -0.4041  0.4285  0.1099
13333SOL    HW143591   9.997   0.388  10.436  0.8771 -1.6015  0.6938
13333SOL    HW243592   9.893   0.280  10.454 -2.7438  1.4721 -0.2626
13334SOL     OW43593   9.896   1.630   9.638 -0.2907 -0.3132 -0.1881
13334SOL    HW143594   9.922   1.612   9.547  0.2302  0.9996 -0.3224
13334SOL    HW243595   9.803   1.606   9.641 -0.7969  1.2658 -1.5750
13335SOL     OW43596  10.654  10.573   8.713  0.3451  0.4830  0.4110
13335SOL    HW143597  10.724  10.509   8.722  0.9102  1.2971  2.4712
13335SOL    HW243598  10.697  10.651   8.678 -0.2884 -0.0941 -1.8269
13336SOL     OW43599   1.341   7.667   0.356  0.2740  0.3779  0.1234
13336SOL    HW143600   1.362   7.588   0.306  2.1616  0.8919  0.0343
13336SOL    HW243601   1.426   7.697   0.390 -0.7450  0.9013  2.3676
13337SOL     OW43602   6.268   4.324   4.472  0.2787 -1.0442  0.1062
13337SOL    HW143603   6.177   4.308   4.447 -0.1421  1.1568 -0.0255
13337SOL    HW243604   6.310   4.238   4.469 -1.3170 -1.8287 -1.7407
13338SOL     OW43605   5.490   3.589   6.746  0.4023 -0.4158  0.3374
13338SOL    HW143606   5.503   3.502   6.785  1.3288 -0.4341  0.0165
13338SOL    HW243607   5.474   3.571   6.653  0.3252 -0.2575  0.3203
13339SOL     OW43608   0.737   8.184   4.937  0.2846 -0.0155  0.5579
13339SOL    HW143609   0.690   8.181   4.854  1.1504  3.5973 -0.2331
13339SOL    HW243610   0.669   8.183   5.004 -0.5795 -0.3192 -0.3014
13340SOL     OW43611  10.252   8.473   5.913 -0.2215  0.1969  0.6169
13340SOL    HW143612  10.277   8.380   5.921  1.1500  0.5558  0.8492
13340SOL    HW243613  10.230   8.499   6.002  1.3880  0.5946  0.9300
13341SOL     OW43614   5.581   6.383   9.044 -0.1643  0.3481 -0.2903
13341SOL    HW143615   5.527   6.452   9.005 -1.1184 -0.2022  0.0019
13341SOL    HW243616   5.562   6.306   8.991  0.3072  0.1382 -0.1524
13342SOL     OW43617   8.213   5.679   8.570  0.2670 -0.1041  0.2376
13342SOL    HW143618   8.250   5.748   8.515 -0.8288  1.5313  1.4548
13342SOL    HW243619   8.273   5.605   8.559  1.2363  0.8626 -1.4686
13343SOL     OW43620   0.732   3.578  10.411 -0.1804 -0.2261 -0.9609
13343SOL    HW143621   0.639   3.595  10.426 -0.2497 -0.9204 -0.5610
13343SOL    HW243622   0.743   3.584  10.316 -0.4854  0.5425 -0.9564
13344SOL     OW43623   7.800   1.642   4.913 -0.5890 -0.2602 -0.8299
13344SOL    HW143624   7.825   1.593   4.991  2.0336 -0.5134 -1.7186
13344SOL    HW243625   7.762   1.723   4.946 -0.7539 -0.9361  0.6929
13345SOL     OW43626   9.253   3.314  10.906 -0.2150  0.3943 -0.2253
13345SOL    HW143627   9.198   3.392  10.895  0.4348  0.9815  0.5791
13345SOL    HW243628   9.301   3.329  10.987  0.2687 -0.6442 -0.2978
13346SOL     OW43629   4.301   7.039   8.140 -0.0573  0.0461  0.4130
13346SOL    HW143630   4.389   7.078   8.134  1.1730 -2.6983 -1.6422
13346SOL    HW243631   4.307   6.975   8.211 -0.5364  0.1322  0.5362
13347SOL     OW43632  10.687   6.963   7.503  0.6412 -0.5425 -0.4708
13347SOL    HW143633  10.695   6.948   7.597  0.3419  1.4844 -0.0609
13347SOL    HW243634  10.762   7.019   7.482  0.2075 -0.2378 -1.2317
13348SOL     OW43635   6.431   4.164   0.948 -0.1290  0.1262 -0.4188
13348SOL    HW143636   6.433   4.134   1.039  0.6416  1.3521 -0.0002
13348SOL    HW243637   6.338   4.174   0.929 -0.4595 -2.6764 -0.6957
13349SOL     OW43638   4.525   7.000   9.414 -0.1888 -0.2523 -0.0633
13349SOL    HW143639   4.583   6.926   9.397  0.1743  0.4368 -2.0920
13349SOL    HW243640   4.569   7.074   9.372 -1.7643  0.6074 -0.2350
13350SOL     OW43641   3.079   2.451   7.535  0.0590  0.2116  0.3183
13350SOL    HW143642   3.053   2.449   7.627  0.0818  0.4991  0.3298
13350SOL    HW243643   3.131   2.530   7.525 -1.1912  0.9967 -0.2672
13351SOL     OW43644   5.185   7.306   6.456 -0.7805  0.1117  0.8211
13351SOL    HW143645   5.250   7.376   6.460 -1.5190  0.8131  0.7702
13351SOL    HW243646   5.103   7.348   6.479 -1.0163 -1.0498  2.2865
13352SOL     OW43647   1.243   8.902   2.134  0.0361 -0.0579 -0.5705
13352SOL    HW143648   1.253   8.806   2.138 -0.3524 -0.0819  2.2193
13352SOL    HW243649   1.329   8.935   2.110  0.7512 -1.0833  0.4482
13353SOL     OW43650   1.504   2.342   8.457  0.3390  0.1563  0.4094
13353SOL    HW143651   1.461   2.256   8.463  1.5865 -0.5489 -0.2977
13353SOL    HW243652   1.566   2.332   8.385 -0.3458  2.0496 -0.4908
13354SOL     OW43653   4.469   3.652  10.854 -0.2710  0.4497  0.2074
13354SOL    HW143654   4.448   3.610  10.938  0.7681 -2.8140 -0.9846
13354SOL    HW243655   4.394   3.631  10.798  0.5443 -0.4399 -0.5843
13355SOL     OW43656   3.616  10.394   6.235 -0.3246  0.1680  0.3434
13355SOL    HW143657   3.671  10.420   6.160 -1.2748  0.9016 -0.1244
13355SOL    HW243658   3.634  10.461   6.301 -0.5475  0.3263  0.2434
13356SOL     OW43659   3.043   6.329   5.708 -0.3485 -0.2924 -0.9408
13356SOL    HW143660   2.974   6.317   5.773  0.2723  5.1832  1.2288
13356SOL    HW243661   3.006   6.389   5.643  0.4789 -2.3095 -3.4863
13357SOL     OW43662   5.732   4.883   9.472  0.2733  0.1097  0.0708
13357SOL    HW143663   5.817   4.863   9.433  1.3368  0.3344  2.1548
13357SOL    HW243664   5.746   4.962   9.524 -1.3618  0.4817  0.0081
13358SOL     OW43665   8.727   8.711   2.699 -0.2571 -0.3572  0.4420
13358SOL    HW143666   8.693   8.754   2.778 -2.6766 -1.9836  0.3816
13358SOL    HW243667   8.749   8.784   2.641 -1.5027  0.8634  1.4067
13359SOL     OW43668   5.891   5.990   2.252  0.1688 -0.0719  0.0020
13359SOL    HW143669   5.852   5.988   2.164  1.1171  0.9509 -0.4722
13359SOL    HW243670   5.940   5.909   2.259  1.2122  0.4492 -0.9738
13360SOL     OW43671   7.150   5.598   3.662  0.4869  0.3831  0.4542
13360SOL    HW143672   7.146   5.678   3.609 -2.0303 -0.5356 -0.8975
13360SOL    HW243673   7.199   5.536   3.609 -1.6189 -0.3835 -0.7058
13361SOL     OW43674   0.186   5.703  10.583 -0.0690  0.0210 -0.0231
13361SOL    HW143675   0.202   5.702  10.678 -0.9033 -0.8739  0.1235
13361SOL    HW243676   0.166   5.794  10.563  0.9095  0.3660  0.5191
13362SOL     OW43677   1.747   1.704  10.159 -0.1785 -0.2662  0.5385
13362SOL    HW143678   1.777   1.793  10.177 -0.3228 -0.3501  1.2199
13362SOL    HW243679   1.756   1.658  10.243  0.6693 -1.1221  0.0091
13363SOL     OW43680  10.994   6.051   4.278  0.1628  0.8019 -0.0629
13363SOL    HW143681  11.023   5.983   4.216 -0.1474  1.9311 -1.4956
13363SOL    HW243682  10.907   6.075   4.248 -0.0598  1.2844  0.9320
13364SOL     OW43683   6.100   3.485   5.159 -0.8148  0.4284  0.3211
13364SOL    HW143684   6.127   3.473   5.068  1.0202 -0.2161  0.8909
13364SOL    HW243685   6.153   3.422   5.208 -3.0380 -0.4996  1.6768
13365SOL     OW43686  11.000   4.359   3.028 -0.1645  0.6408  0.1941
13365SOL    HW143687  11.026   4.431   3.085 -1.4745  1.2675  0.0311
13365SOL    HW243688  10.941   4.306   3.082  2.0237 -1.2811  0.8734
13366SOL     OW43689   2.016   7.231   8.003  0.0245  0.0099  0.0890
13366SOL    HW143690   2.048   7.321   7.996 -0.2508  0.0168 -1.8526
13366SOL    HW243691   2.090   7.182   8.039  0.0228  1.0617  1.6131
13367SOL     OW43692  10.962   8.192   8.245  0.0987  0.4378  0.7511
13367SOL    HW143693  10.909   8.184   8.324  1.4394  1.7500  1.8464
13367SOL    HW243694  10.925   8.267   8.198  0.1218  0.4771  0.7955
13368SOL     OW43695   5.710   8.823   2.547 -0.0784 -0.5755  0.2841
13368SOL    HW143696   5.675   8.872   2.472 -0.9970 -1.5359  0.0592
13368SOL    HW243697   5.801   8.806   2.524 -0.1958 -0.3618 -0.3705
13369SOL     OW43698   6.296   9.305   6.897  0.4547  0.0386 -0.1812
13369SOL    HW143699   6.312   9.218   6.933 -2.8817 -0.9276 -0.6834
13369SOL    HW243700   6.353   9.310   6.819  0.2001 -1.9959 -0.5363
13370SOL     OW43701   4.754   8.712  10.498  0.7290 -0.3463  0.9553
13370SOL    HW143702   4.744   8.772  10.424  1.5523  0.5719  1.5599
13370SOL    HW243703   4.848   8.715  10.518  0.4542 -0.2374  2.2969
13371SOL     OW43704   5.306   7.843   9.643 -0.1660  0.1646  0.1918
13371SOL    HW143705   5.338   7.926   9.606 -0.3200 -0.8619 -2.4024
13371SOL    HW243706   5.213   7.857   9.657 -0.0423  0.6787  0.5326
13372SOL     OW43707   6.525   9.312   2.491 -0.4171  0.0908 -0.5108
13372SOL    HW143708   6.467   9.247   2.453 -0.7869  0.0752  0.0660
13372SOL    HW243709   6.488   9.396   2.464 -1.2198  0.1069  0.5381
13373SOL     OW43710   7.455   3.924   0.218 -0.2270  0.1747 -0.0851
13373SOL    HW143711   7.430   3.833   0.205 -0.7141  0.4257 -0.9888
13373SOL    HW243712   7.535   3.920   0.270 -0.5806 -0.7429  0.4057
13374SOL     OW43713  10.311   0.954   7.901 -0.3292  0.0330  0.3276
13374SOL    HW143714  10.315   0.979   7.808  1.8507 -2.1570 -0.2767
13374SOL    HW243715  10.369   1.016   7.945  2.8267 -1.9864 -0.7059
13375SOL     OW43716   9.973   3.225   1.685 -0.5710 -0.4400  0.0959
13375SOL    HW143717  10.030   3.277   1.628  0.6922 -1.9651 -0.1229
13375SOL    HW243718   9.936   3.158   1.628 -1.7295 -0.1391  0.4705
13376SOL     OW43719   6.826  10.235   1.700  0.1372  0.5932  0.2033
13376SOL    HW143720   6.796  10.316   1.659  0.2200  0.3436 -0.3572
13376SOL    HW243721   6.772  10.227   1.779  1.6854  2.3751  1.5359
13377SOL     OW43722   2.098   6.212  10.540  0.6166 -0.1245  0.2947
13377SOL    HW143723   2.149   6.159  10.601  0.3264  0.2906  0.8991
13377SOL    HW243724   2.152   6.288  10.522  0.6794 -0.2204  0.0718
13378SOL     OW43725   4.226   9.716   4.622 -0.6303 -0.0606  0.0687
13378SOL    HW143726   4.281   9.781   4.577 -0.1998  1.2724  2.3417
13378SOL    HW243727   4.259   9.716   4.713 -0.9977 -3.0879  0.2960
13379SOL     OW43728   2.343   2.736   0.197  0.1672  0.6448  0.3514
13379SOL    HW143729   2.430   2.713   0.165 -0.2333 -2.0606  0.9290
13379SOL    HW243730   2.360   2.791   0.274  1.4717 -0.9120  1.2444
13380SOL     OW43731  10.604   8.974   8.602 -0.3386 -0.0663 -0.0355
13380SOL    HW143732  10.552   8.967   8.522  1.2374 -0.6815 -1.0584
13380SOL    HW243733  10.540   8.966   8.673 -1.6235 -0.8634 -1.2212
13381SOL     OW43734   2.584   0.053   7.795  0.5765 -0.7739 -0.6105
13381SOL    HW143735   2.668   0.014   7.817 -0.0473 -1.0870  1.4355
13381SOL    HW243736   2.521   0.010   7.853 -0.7536  0.5425 -0.9998
13382SOL     OW43737   5.996   4.852   9.362  0.1938 -0.4010  0.2538
13382SOL    HW143738   6.067   4.916   9.355  0.5573 -0.9036 -0.8928
13382SOL    HW243739   6.030   4.773   9.320 -1.4370 -0.2926 -1.4482
13383SOL     OW43740   5.133   3.011   4.201 -0.2317 -0.2374 -0.2309
13383SOL    HW143741   5.076   2.988   4.127 -1.5709 -0.6555  0.8875
13383SOL    HW243742   5.104   2.954   4.272  0.8036  0.3954  0.7324
13384SOL     OW43743   2.879   0.966   0.987  0.6947  0.2631  0.3842
13384SOL    HW143744   2.852   0.875   0.995 -1.0616  0.6457 -0.7372
13384SOL    HW243745   2.971   0.962   0.963  0.1150 -1.3046 -1.8424
13385SOL     OW43746   4.363   5.413   1.003 -0.7785  0.0073 -0.5361
13385SOL    HW143747   4.323   5.495   0.973 -0.3999  0.5090  0.3124
13385SOL    HW243748   4.289   5.352   1.008 -1.2731  0.6278 -0.0216
13386SOL     OW43749   4.990   8.063  10.389  0.0810 -0.2508  0.2748
13386SOL    HW143750   4.951   8.147  10.365 -1.4430 -0.6186  1.2980
13386SOL    HW243751   4.992   8.064  10.485  0.1695 -1.3185  0.3018
13387SOL     OW43752   0.683   3.958   5.395 -0.7092  0.0349  0.0873
13387SOL    HW143753   0.751   3.998   5.448 -0.1692  0.0253 -0.5925
13387SOL    HW243754   0.612   3.939   5.457  0.5150 -1.4057  1.1101
13388SOL     OW43755  10.874   9.050   3.147  0.0943  0.0744  0.1011
13388SOL    HW143756  10.953   9.048   3.201  0.1030 -0.4469  0.0665
13388SOL    HW243757  10.902   9.095   3.067  0.4547 -0.4300 -0.0631
13389SOL     OW43758   8.902   3.762   8.090  0.2071  0.1720 -0.3051
13389SOL    HW143759   8.850   3.741   8.012 -0.6154 -2.3539  0.8162
13389SOL    HW243760   8.854   3.832   8.133  0.2341  1.0222 -1.6192
13390SOL     OW43761   4.553   6.412   3.293 -0.1114 -0.7504  0.5330
13390SOL    HW143762   4.519   6.323   3.295  0.0030 -0.8070  0.0161
13390SOL    HW243763   4.640   6.407   3.331 -0.4546 -0.7041  1.3336
13391SOL     OW43764   5.183   1.933   1.497 -0.0618  1.1429  0.2169
13391SOL    HW143765   5.158   1.878   1.571  2.0988  1.3399  1.1647
13391SOL    HW243766   5.201   2.018   1.536 -0.5111  1.7287 -0.8138
13392SOL     OW43767   1.774   8.719   5.197 -0.4181 -0.2379 -0.6276
13392SOL    HW143768   1.796   8.626   5.205  1.1291  0.2283  1.6620
13392SOL    HW243769   1.685   8.726   5.230 -0.2465 -0.8087 -0.0300
13393SOL     OW43770   4.716   3.039  10.251 -0.6076 -0.4804  0.2720
13393SOL    HW143771   4.715   3.045  10.346  2.4614  0.4180  0.3577
13393SOL    HW243772   4.739   3.127  10.221 -0.0180 -1.0936 -1.1997
13394SOL     OW43773   1.933   7.614   1.010 -0.2083  0.0367  0.8208
13394SOL    HW143774   1.975   7.690   1.051 -0.6139  0.6379  0.1612
13394SOL    HW243775   1.840   7.639   1.005  0.1145  0.9812 -2.4825
13395SOL     OW43776  10.979   1.336   9.662 -0.3150 -0.1836 -0.0276
13395SOL    HW143777  11.067   1.303   9.680 -0.3289 -0.6846 -0.8585
13395SOL    HW243778  10.987   1.383   9.579 -1.0375 -1.1247 -0.6542
13396SOL     OW43779   4.118   8.053   5.383 -0.5873 -0.0542 -0.0023
13396SOL    HW143780   4.145   8.108   5.309  0.4183 -0.0510  0.3589
13396SOL    HW243781   4.085   8.116   5.448 -1.6290 -0.0682 -0.4913
13397SOL     OW43782   9.689   0.373   6.278  0.3576 -0.0915 -0.4971
13397SOL    HW143783   9.659   0.456   6.316 -0.5695 -0.7197  0.1846
13397SOL    HW243784   9.686   0.311   6.351  0.8779 -0.7687 -1.0424
13398SOL     OW43785   5.789   0.824  10.648  0.3391 -0.1816 -0.0035
13398SOL    HW143786   5.838   0.905  10.663  1.5421 -0.9177  0.1225
13398SOL    HW243787   5.787   0.815  10.553 -1.2730  0.8461 -0.1188
13399SOL     OW43788   4.685   3.068  10.522 -0.1552 -0.0718  0.9289
13399SOL    HW143789   4.603   3.092  10.566  0.2007 -0.6236  1.9423
13399SOL    HW243790   4.752   3.123  10.563  0.0334  0.1352  0.3477
13400SOL     OW43791   1.921   4.152   4.953 -0.3822  0.0846  0.0804
13400SOL    HW143792   1.875   4.068   4.948  1.6580 -1.3713  2.8992
13400SOL    HW243793   2.004   4.136   4.909 -0.9527  1.5120 -1.6216
13401SOL     OW43794   5.241   9.559   9.316 -0.3620 -0.4256  0.2165
13401SOL    HW143795   5.255   9.480   9.368 -0.9245 -0.0635  0.9429
13401SOL    HW243796   5.298   9.624   9.355  0.1596 -0.4780 -0.4324
13402SOL     OW43797   6.122   4.615   1.409  0.4714 -0.1905  0.1462
13402SOL    HW143798   6.211   4.580   1.409  1.5370  2.2968  0.5737
13402SOL    HW243799   6.109   4.647   1.499  0.0379  1.4862 -0.4862
13403SOL     OW43800   8.725   2.347   0.854  0.1841  0.1176  0.1073
13403SOL    HW143801   8.777   2.287   0.907 -1.3051 -2.1234 -0.8223
13403SOL    HW243802   8.671   2.290   0.799 -1.6257  2.3252 -0.5587
13404SOL     OW43803   0.594   4.707   0.521 -0.0657  0.0815 -0.3714
13404SOL    HW143804   0.534   4.653   0.470 -0.3149  0.1789 -0.1785
13404SOL    HW243805   0.680   4.687   0.484 -0.3309  0.8493 -1.4719
13405SOL     OW43806   0.787   4.943   0.238  0.1346  0.3539  0.3725
13405SOL    HW143807   0.868   4.941   0.187 -0.4780  1.9636 -0.7464
13405SOL    HW243808   0.751   4.854   0.228  1.3000 -0.1144  0.1514
13406SOL     OW43809   3.972   6.226   2.289 -0.3484  0.6363 -0.4704
13406SOL    HW143810   3.918   6.306   2.288 -2.3112 -0.6029  0.4063
13406SOL    HW243811   3.972   6.196   2.198 -0.0858  1.3016 -0.6987
13407SOL     OW43812   9.254   2.239   6.968 -0.2233  0.5788 -0.4027
13407SOL    HW143813   9.266   2.151   7.003 -3.7965 -0.5199 -1.5445
13407SOL    HW243814   9.342   2.278   6.972  0.8722 -1.7480  3.2728
13408SOL     OW43815   0.514   9.082   0.953  0.1815 -0.6402  0.4694
13408SOL    HW143816   0.595   9.095   0.904  0.8696 -0.8092  1.5391
13408SOL    HW243817   0.542   9.062   1.042 -0.9866 -2.2680  0.5250
13409SOL     OW43818   9.992   9.245  10.646 -0.1963  0.9562 -0.5118
13409SOL    HW143819  10.009   9.151  10.652 -0.2513  0.9940  0.3239
13409SOL    HW243820  10.067   9.286  10.688 -1.8538  1.1436  2.5684
13410SOL     OW43821   2.230   1.576   8.086 -0.3808 -0.3133  0.6322
13410SOL    HW143822   2.311   1.535   8.054 -0.3428  0.7289 -0.7183
13410SOL    HW243823   2.161   1.514   8.063 -0.2610  0.0632 -0.8765
13411SOL     OW43824   6.498   8.612   0.376  0.4464  0.4493 -0.2845
13411SOL    HW143825   6.531   8.677   0.314  1.4436  1.2707  1.0419
13411SOL    HW243826   6.574   8.558   0.396  1.2463  2.4469  2.9210
13412SOL     OW43827   3.159   1.812   4.404  0.1870 -0.4303  0.8732
13412SOL    HW143828   3.236   1.760   4.383  0.2558  0.1573 -0.4187
13412SOL    HW243829   3.165   1.888   4.346 -0.7347  0.2253  1.6043
13413SOL     OW43830   9.211   2.186   0.303  0.0735 -0.2880 -0.0287
13413SOL    HW143831   9.189   2.255   0.241 -1.4238 -1.4892 -0.9011
13413SOL    HW243832   9.129   2.140   0.318  0.8791 -1.4241  1.1104
13414SOL     OW43833   8.001   3.180   7.363 -0.1302  0.2253 -0.4665
13414SOL    HW143834   7.930   3.194   7.426  0.7630  3.0733  0.0892
13414SOL    HW243835   8.020   3.087   7.368 -1.0296  0.0951  2.4605
13415SOL     OW43836   0.068   5.126   6.655  0.4259  0.8582  0.4400
13415SOL    HW143837   0.041   5.084   6.737 -0.1503 -1.7649 -1.0106
13415SOL    HW243838  -0.005   5.185   6.634 -0.1321  0.3930  1.0236
13416SOL     OW43839   9.472   7.012   5.988  0.5165  0.1348 -0.0290
13416SOL    HW143840   9.379   7.032   5.978  0.0894 -0.9718  1.3660
13416SOL    HW243841   9.515   7.059   5.916 -1.2938 -0.6705 -1.7260
13417SOL     OW43842   6.246   9.444   6.248 -0.3954 -0.2502  0.5546
13417SOL    HW143843   6.198   9.372   6.208 -0.6126  0.5331 -0.6596
13417SOL    HW243844   6.286   9.491   6.175  0.5399  0.3115  1.3867
13418SOL     OW43845   0.840  10.310   5.938  0.3136 -0.2946  0.1691
13418SOL    HW143846   0.782  10.267   5.999 -0.8895 -0.5880 -1.1295
13418SOL    HW243847   0.806  10.287   5.851  1.3176  0.9565 -0.6045
13419SOL     OW43848   1.316   0.076   6.674 -0.1075  0.6269  0.0139
13419SOL    HW143849   1.369   0.030   6.609  0.9511  1.1976  0.4500
13419SOL    HW243850   1.296   0.160   6.634 -0.8442  0.3556 -0.2122
13420SOL     OW43851   9.358  10.587   4.867 -0.1195  0.0315  0.3422
13420SOL    HW143852   9.332  10.496   4.854 -0.0845  0.0618  0.0469
13420SOL    HW243853   9.448  10.591   4.833 -0.4543  0.3904 -0.5346
13421SOL     OW43854   1.925   7.917   8.645  0.0285 -0.1021 -0.4599
13421SOL    HW143855   1.882   7.935   8.730 -0.4614  1.0677 -0.9284
13421SOL    HW243856   1.863   7.860   8.599  1.3225 -2.7143  0.8087
13422SOL     OW43857   3.456  10.401   3.416 -0.1338 -0.2829 -0.1624
13422SOL    HW143858   3.460  10.305   3.413 -0.5348 -0.2938 -0.4562
13422SOL    HW243859   3.547  10.429   3.419 -0.0071 -0.6634 -0.4326
13423SOL     OW43860   9.843   4.883   3.463  0.2172 -0.2181  0.7178
13423SOL    HW143861   9.788   4.934   3.403  0.7382 -0.1237  0.3117
13423SOL    HW243862   9.890   4.948   3.514  1.9809 -0.2198 -0.7946
13424SOL     OW43863   8.289  10.421  10.408  0.4973  0.0328  0.2427
13424SOL    HW143864   8.352  10.422  10.336 -0.2562  0.5651 -0.4300
13424SOL    HW243865   8.267  10.513  10.422 -0.2964 -0.1609  0.3133
13425SOL     OW43866   0.202   4.409   9.595 -0.1304 -0.5262 -0.1590
13425SOL    HW143867   0.270   4.476   9.598 -1.0751  0.4254  1.7719
13425SOL    HW243868   0.161   4.412   9.681 -1.8500 -1.8795 -0.8627
13426SOL     OW43869   7.235   4.627   9.358  0.0217  0.2966  0.0266
13426SOL    HW143870   7.196   4.592   9.278  0.2201 -0.7569  0.3870
13426SOL    HW243871   7.300   4.690   9.328  0.5288 -0.5445 -0.6585
13427SOL     OW43872   3.054   3.388   6.873 -0.7628 -0.1088 -1.2797
13427SOL    HW143873   3.078   3.340   6.794  0.9483  1.0821 -1.5226
13427SOL    HW243874   3.007   3.465   6.840 -1.9598 -0.6908 -0.9865
13428SOL     OW43875   7.859   5.916   2.970 -0.4917  0.2813  0.2402
13428SOL    HW143876   7.911   5.911   3.050 -0.5510  0.7166  0.3081
13428SOL    HW243877   7.853   6.010   2.951  0.8929  0.1214 -1.1771
13429SOL     OW43878   6.025   5.704   4.788 -0.4270 -0.1094 -0.5989
13429SOL    HW143879   6.111   5.664   4.787  0.0511  0.8601 -0.2391
13429SOL    HW243880   6.041   5.796   4.764 -1.5242 -0.2014 -1.8073
13430SOL     OW43881   6.479   2.190   9.921 -0.8688  0.1260 -0.1683
13430SOL    HW143882   6.483   2.098   9.946  0.2754  0.2272  0.0678
13430SOL    HW243883   6.490   2.190   9.826  0.6534  0.0984 -0.0093
13431SOL     OW43884   2.761   7.708   5.444 -0.0199  0.1302 -0.3680
13431SOL    HW143885   2.746   7.782   5.503  1.8991 -1.1606  1.9009
13431SOL    HW243886   2.740   7.630   5.496  0.8402 -1.0376 -1.6875
13432SOL     OW43887   8.194   7.040   1.539 -0.4870 -0.4391  0.4322
13432SOL    HW143888   8.135   7.106   1.502 -0.6200  0.1707  1.6841
13432SOL    HW243889   8.202   7.064   1.631  1.9317 -0.3359  0.2712
13433SOL     OW43890   7.304   2.741   3.903  0.4084  0.4999 -0.2763
13433SOL    HW143891   7.356   2.749   3.982 -0.5609  1.4478  0.2924
13433SOL    HW243892   7.367   2.750   3.831  0.8873  3.0991  0.3735
13434SOL     OW43893   1.195   6.489   7.906  0.6446  1.0700  0.0519
13434SOL    HW143894   1.266   6.541   7.867  0.3273  0.0478 -2.0262
13434SOL    HW243895   1.118   6.512   7.854  0.5630 -1.6571 -1.2079
13435SOL     OW43896   1.236   0.584  10.578 -0.4341  0.1100  0.0262
13435SOL    HW143897   1.155   0.633  10.595 -1.1459 -1.0799  0.2310
13435SOL    HW243898   1.217   0.496  10.611  0.8120 -0.2965 -0.3011
13436SOL     OW43899   3.533   4.300   0.656 -0.0850 -0.4294  0.2936
13436SOL    HW143900   3.627   4.281   0.662  0.2752  0.9549 -0.5219
13436SOL    HW243901   3.491   4.222   0.693  1.3346 -1.8768 -0.9684
13437SOL     OW43902   9.448   4.004   0.489 -0.2493 -0.5009 -0.6880
13437SOL    HW143903   9.457   4.021   0.583  0.8480  0.0002 -0.8755
13437SOL    HW243904   9.354   4.014   0.472 -0.3399  0.2852  0.1887
13438SOL     OW43905   2.375   9.231   2.824  0.0640 -0.0788 -0.0138
13438SOL    HW143906   2.459   9.277   2.822  0.2660 -0.4624 -1.3635
13438SOL    HW243907   2.384   9.170   2.897  0.8609  0.0636  0.0238
13439SOL     OW43908  10.284   7.120   8.023  0.2000  0.2243  0.0724
13439SOL    HW143909  10.251   7.210   8.013 -1.3265 -0.4693 -1.7631
13439SOL    HW243910  10.269   7.100   8.115 -0.4713  1.4966  0.2701
13440SOL     OW43911   0.295   8.262   0.340 -0.1821 -0.0646 -0.1805
13440SOL    HW143912   0.248   8.332   0.385 -0.2375 -0.0984 -0.1844
13440SOL    HW243913   0.376   8.252   0.390  0.4866  0.9703 -1.0286
13441SOL     OW43914   4.577   0.431   9.356  0.8431  0.0612  0.1100
13441SOL    HW143915   4.555   0.439   9.263 -0.2502 -0.6636  0.2848
13441SOL    HW243916   4.495   0.448   9.402  1.1804 -0.3949  0.9054
13442SOL     OW43917   5.024   5.276   8.567 -0.0664  0.0082  0.1957
13442SOL    HW143918   4.968   5.208   8.530  0.5679  0.0105 -0.8056
13442SOL    HW243919   4.972   5.356   8.559  0.3596  0.1484 -1.4808
13443SOL     OW43920   9.924   3.543   6.670 -0.1044  0.1491  0.0677
13443SOL    HW143921   9.972   3.602   6.729  0.0821  0.0551  0.0087
13443SOL    HW243922   9.876   3.485   6.729 -1.0922  1.0125  0.1286
13444SOL     OW43923   3.471   2.171   7.410 -0.0200 -0.1158  0.4065
13444SOL    HW143924   3.432   2.164   7.497  1.1557 -0.2378  0.9470
13444SOL    HW243925   3.536   2.240   7.418  0.6663 -0.6775 -0.1570
13445SOL     OW43926   8.591   2.161   4.916 -0.3501 -0.2898  0.4895
13445SOL    HW143927   8.534   2.092   4.951  0.0353 -0.6522  0.4011
13445SOL    HW243928   8.603   2.138   4.824 -0.1688 -0.1381  0.4753
13446SOL     OW43929   6.306   2.879   1.496 -0.6908  0.4927 -0.7315
13446SOL    HW143930   6.228   2.827   1.515 -0.2816 -1.1219 -3.0484
13446SOL    HW243931   6.274   2.969   1.491 -2.1852  0.0027 -0.4836
13447SOL     OW43932   7.782   9.277   7.583 -0.3432 -0.4655 -0.4647
13447SOL    HW143933   7.782   9.372   7.596 -1.0587 -0.6726  1.4642
13447SOL    HW243934   7.871   9.257   7.552  0.0140  0.7731 -0.3103
13448SOL     OW43935   5.271   8.571   4.947 -0.1252  0.5851 -0.2706
13448SOL    HW143936   5.304   8.600   4.862  0.0925  0.6195 -0.1757
13448SOL    HW243937   5.295   8.478   4.952 -1.3323  0.2299 -0.8187
13449SOL     OW43938  11.074   2.542  11.005 -0.0262 -0.5957 -0.3352
13449SOL    HW143939  11.012   2.532  11.077 -1.2063  0.1921 -1.2009
13449SOL    HW243940  11.125   2.462  11.006 -1.5931 -1.6358 -0.0652
13450SOL     OW43941   1.850   9.747   5.390  0.6850 -0.2298 -0.0009
13450SOL    HW143942   1.785   9.699   5.441 -2.0978  2.1763 -0.9810
13450SOL    HW243943   1.888   9.810   5.452  0.9620 -0.6113  0.2186
13451SOL     OW43944   5.530   6.955   6.578  0.5943 -0.0403 -0.3867
13451SOL    HW143945   5.527   6.875   6.526  0.3340 -0.6039  0.4750
13451SOL    HW243946   5.531   7.026   6.513  1.5544 -0.7395 -1.1804
13452SOL     OW43947   7.650   8.676   9.765  0.2851  1.0556 -0.1877
13452SOL    HW143948   7.587   8.746   9.750  0.3314  1.0943 -0.2020
13452SOL    HW243949   7.605   8.615   9.823 -0.2160  0.4837 -1.1466
13453SOL     OW43950   2.290   5.081   1.751 -0.2182  0.2924  0.2599
13453SOL    HW143951   2.221   5.092   1.817 -0.4999  0.8664 -0.1228
13453SOL    HW243952   2.264   5.139   1.680  0.0075 -0.4352 -0.4261
13454SOL     OW43953   6.573   2.205   4.313  0.5737 -0.2610  0.2861
13454SOL    HW143954   6.611   2.118   4.328  0.3520 -0.4508 -0.2574
13454SOL    HW243955   6.563   2.212   4.218  0.2450  0.2134  0.3502
13455SOL     OW43956   4.167   7.293   7.387 -0.9320 -0.2816  0.7182
13455SOL    HW143957   4.148   7.385   7.369 -0.4322 -0.3634 -0.2794
13455SOL    HW243958   4.219   7.295   7.467 -0.7833  0.3228  0.6136
13456SOL     OW43959   6.887  10.971   3.954  0.4155 -0.0413 -0.1631
13456SOL    HW143960   6.924  10.933   3.874 -0.5599 -1.9093  0.1969
13456SOL    HW243961   6.835  10.900   3.992  1.1094  0.6733  2.3290
13457SOL     OW43962   8.420   0.676   0.689  0.2450  0.6062 -0.2058
13457SOL    HW143963   8.447   0.631   0.610 -0.2035 -0.8556  0.4333
13457SOL    HW243964   8.437   0.769   0.672 -1.8150  0.6219 -2.8286
13458SOL     OW43965  10.525   2.493   1.002  0.2565  0.2644  0.0333
13458SOL    HW143966  10.436   2.529   1.006 -0.0753 -0.6079  1.4199
13458SOL    HW243967  10.570   2.532   1.076  1.3411  1.3872 -1.1726
13459SOL     OW43968   9.724  10.461   5.425 -0.1809 -0.2722  1.0902
13459SOL    HW143969   9.777  10.460   5.345  0.8120 -1.8945  1.7153
13459SOL    HW243970   9.780  10.504   5.489 -0.5026 -0.0264  1.2044
13460SOL     OW43971   7.075   7.989   9.499 -0.8250  0.5076 -0.1419
13460SOL    HW143972   7.062   7.940   9.580  0.1255  0.9042  0.2719
13460SOL    HW243973   7.002   7.963   9.443 -1.5866  0.3397  0.8926
13461SOL     OW43974   0.446   0.839   2.123  0.3064  0.1890  0.2018
13461SOL    HW143975   0.397   0.894   2.184  2.8215  0.3155  2.3074
13461SOL    HW243976   0.454   0.754   2.168 -0.0057 -0.5970 -1.1646
13462SOL     OW43977   0.751   5.826   3.703 -0.0607 -0.1094  0.4678
13462SOL    HW143978   0.840   5.842   3.670  0.3357  0.6404  1.8271
13462SOL    HW243979   0.742   5.730   3.700  0.7058 -0.1822  0.1073
13463SOL     OW43980   0.029   5.668   6.799 -0.1768 -0.3561 -0.5142
13463SOL    HW143981  -0.060   5.679   6.765 -0.3910 -2.2092 -0.6555
13463SOL    HW243982   0.081   5.645   6.722 -0.8859 -5.8157  0.2560
13464SOL     OW43983   3.719   2.446   7.748 -0.1380 -0.7052  0.2106
13464SOL    HW143984   3.680   2.364   7.718 -1.2239 -0.6267  1.3229
13464SOL    HW243985   3.661   2.514   7.714  1.6613 -0.2285 -2.1322
13465SOL     OW43986   4.932   3.175   9.500 -0.4921  0.0013  0.0503
13465SOL    HW143987   4.935   3.140   9.589 -1.4078  1.4859  0.7051
13465SOL    HW243988   4.838   3.180   9.480 -0.3346  0.9213 -0.4885
13466SOL     OW43989   2.193   8.095  10.137  0.1561  0.5289 -0.4664
13466SOL    HW143990   2.124   8.036  10.165  0.0784  1.2821  1.0140
13466SOL    HW243991   2.274   8.048  10.154  0.0785 -0.7599 -3.1158
13467SOL     OW43992   1.610   4.340   8.546 -0.6456  0.3058 -0.2541
13467SOL    HW143993   1.605   4.428   8.510 -0.3865  0.5670  0.3285
13467SOL    HW243994   1.552   4.343   8.622  0.8367  0.5514  0.9153
13468SOL     OW43995   4.054   5.134   5.271 -0.5972  0.2262  0.2221
13468SOL    HW143996   4.107   5.100   5.343 -1.6020 -1.1611  0.3518
13468SOL    HW243997   4.113   5.191   5.222  0.1630  1.0799  2.0299
13469SOL     OW43998   3.580   4.685   9.812 -0.1489  0.0039  0.4988
13469SOL    HW143999   3.500   4.661   9.766 -0.9639 -0.1236  1.9426
13469SOL    HW244000   3.550   4.735   9.888  1.1539  0.0691  0.9941
13470SOL     OW44001   6.424   3.967   4.950  0.6471 -0.1867 -0.0549
13470SOL    HW144002   6.416   3.907   4.876 -2.2229  0.6410 -0.5479
13470SOL    HW244003   6.483   4.036   4.919  1.3618 -1.0596 -0.6798
13471SOL     OW44004   8.214   7.064   4.756  0.3549 -0.3206 -0.1708
13471SOL    HW144005   8.120   7.063   4.743 -0.1477  1.0679  2.5288
13471SOL    HW244006   8.238   6.972   4.772 -0.2583 -0.8592 -2.1434
13472SOL     OW44007   2.808   6.915   7.879 -0.6385  0.0546  0.4643
13472SOL    HW144008   2.865   6.935   7.953  0.9578  0.5757 -0.8470
13472SOL    HW244009   2.763   6.834   7.904 -0.0297  0.1564  1.9347
13473SOL     OW44010   5.757   2.862   3.404 -0.1936 -0.2843 -0.1091
13473SOL    HW144011   5.786   2.953   3.416 -0.7792 -0.0561 -0.3581
13473SOL    HW244012   5.698   2.867   3.329 -0.1428 -0.8959 -0.1895
13474SOL     OW44013   2.804   3.161   9.693  0.3033 -0.3661 -0.5305
13474SOL    HW144014   2.852   3.204   9.763 -1.3364 -0.4192  0.6877
13474SOL    HW244015   2.743   3.102   9.738 -3.8254  2.6351 -1.6411
13475SOL     OW44016   1.291   9.420   0.751  0.3264 -0.4172 -0.2464
13475SOL    HW144017   1.201   9.407   0.779  0.1603 -1.0078 -1.0130
13475SOL    HW244018   1.289   9.499   0.697  0.5375  0.3752  0.8680
13476SOL     OW44019   7.992  10.001   5.469 -0.2911  0.1750  0.0639
13476SOL    HW144020   7.955   9.926   5.515  0.3899  0.5122  1.2200
13476SOL    HW244021   8.065   9.965   5.419  0.8359  0.1955  1.5962
13477SOL     OW44022   8.127   3.365   0.579  0.3679 -0.6181 -0.2742
13477SOL    HW144023   8.171   3.428   0.522  0.6604 -0.7170 -0.1634
13477SOL    HW244024   8.073   3.312   0.521 -1.8520  1.3084 -0.1217
13478SOL     OW44025   2.337   4.426  10.652  0.0257 -0.2053 -0.4677
13478SOL    HW144026   2.412   4.371  10.630 -1.0283 -2.0380  0.3038
13478SOL    HW244027   2.267   4.364  10.671 -1.1926  1.4180  0.5729
13479SOL     OW44028   3.908   6.042   9.621  0.3834  0.1845 -0.2380
13479SOL    HW144029   3.995   6.003   9.619 -0.5331 -1.9499 -1.4171
13479SOL    HW244030   3.854   5.978   9.666 -0.1890  2.5339  2.7203
13480SOL     OW44031   1.744   6.519   3.385 -0.6851 -0.2956 -0.1765
13480SOL    HW144032   1.810   6.552   3.324 -0.5324  1.1310  0.7125
13480SOL    HW244033   1.662   6.557   3.353 -0.3461  2.1129  1.5478
13481SOL     OW44034   3.352   4.874  10.774 -0.2252  0.0972 -0.0131
13481SOL    HW144035   3.421   4.811  10.795 -0.7512 -0.2696  0.6461
13481SOL    HW244036   3.392   4.932  10.709  0.7259 -0.0753  0.3949
13482SOL     OW44037   0.635  10.491   0.245  0.2856  0.2713  0.2075
13482SOL    HW144038   0.726  10.506   0.269 -0.2403  1.3990  1.6235
13482SOL    HW244039   0.620  10.398   0.263  1.1654  0.0403 -0.1745
13483SOL     OW44040   0.046   6.380   7.360 -0.1316  0.1377 -0.3808
13483SOL    HW144041   0.071   6.323   7.433  0.5162  0.9086  0.0211
13483SOL    HW244042  -0.040   6.415   7.386  1.2267  2.4872  1.3502
13484SOL     OW44043   1.234   5.951   7.806  0.1249  0.1708 -0.0214
13484SOL    HW144044   1.190   5.995   7.733 -0.1294  0.1927  0.1433
13484SOL    HW244045   1.163   5.919   7.861  0.3009 -0.5260 -0.1824
13485SOL     OW44046   7.228  10.657   9.768  0.3956 -0.3421 -0.5877
13485SOL    HW144047   7.203  10.573   9.728 -2.2228 -0.7159  1.5124
13485SOL    HW244048   7.282  10.633   9.843 -0.4195 -0.2004  0.0609
13486SOL     OW44049   0.706   2.819   1.201  0.2559 -0.0074 -0.0401
13486SOL    HW144050   0.614   2.808   1.177 -0.1651 -1.1832  1.8890
13486SOL    HW244051   0.746   2.861   1.125 -1.8407  0.4189 -0.9711
13487SOL     OW44052   2.478   8.189   4.292 -0.3882 -0.3604  0.5462
13487SOL    HW144053   2.502   8.156   4.205 -1.6825 -3.2717  1.1811
13487SOL    HW244054   2.558   8.229   4.326  0.5506 -0.4974 -1.3864
13488SOL     OW44055   4.056   8.894   0.024  0.1560 -0.0648 -0.1234
13488SOL    HW144056   3.986   8.830   0.040 -0.0052  0.7210  2.8810
13488SOL    HW244057   4.137   8.846   0.040  0.1624 -0.1422 -0.3809
13489SOL     OW44058   4.148   4.482   1.868 -1.0247 -0.2034  0.2211
13489SOL    HW144059   4.097   4.498   1.789 -0.3895 -0.2573 -0.2090
13489SOL    HW244060   4.166   4.388   1.867  2.0066  0.2727 -1.5011
13490SOL     OW44061   5.263   6.126  10.486  0.2010 -0.0975  0.0799
13490SOL    HW144062   5.188   6.098  10.539 -0.6438 -1.7234 -1.8086
13490SOL    HW244063   5.317   6.047  10.477  0.9200  0.4434 -0.5129
13491SOL     OW44064   6.157   6.298   8.484 -0.0626  0.3119 -0.0486
13491SOL    HW144065   6.094   6.266   8.420  0.4328  0.2030 -0.4874
13491SOL    HW244066   6.242   6.268   8.451  0.1467 -0.2812  0.9782
13492SOL     OW44067   3.636   6.341   9.950  0.4031  0.2780 -0.2304
13492SOL    HW144068   3.621   6.429   9.914  0.6357  1.3819  2.2144
13492SOL    HW244069   3.729   6.340   9.974 -0.2360  0.5857  2.6329
13493SOL     OW44070   0.052   4.775   9.847 -0.5576  0.0216 -0.3930
13493SOL    HW144071   0.077   4.692   9.889  0.4526  0.3033 -0.4147
13493SOL    HW244072   0.098   4.773   9.763  0.3621  1.0823  0.0652
13494SOL     OW44073   2.430   3.685   5.082 -0.0707  0.3541 -0.4526
13494SOL    HW144074   2.335   3.679   5.077 -0.3516  2.2405  1.4250
13494SOL    HW244075   2.450   3.775   5.055  1.2109 -0.0771 -1.0255
13495SOL     OW44076   7.006   4.596   6.542  0.3819 -0.3483 -0.1787
13495SOL    HW144077   7.076   4.660   6.557 -1.6202  1.8648  0.3124
13495SOL    HW244078   6.972   4.577   6.630 -0.6960 -0.0983 -0.5254
13496SOL     OW44079  11.068   9.631   0.801 -0.4469  0.1672  0.2182
13496SOL    HW144080  11.118   9.658   0.878  1.0943  0.8233 -0.9600
13496SOL    HW244081  11.071   9.706   0.742  0.1571 -0.9883 -1.3092
13497SOL     OW44082   4.178   6.850   0.693 -0.3669  0.1648  0.2075
13497SOL    HW144083   4.176   6.779   0.757  0.8652 -1.1653 -1.1541
13497SOL    HW244084   4.262   6.841   0.649 -1.0361  1.2143 -1.3970
13498SOL     OW44085   8.243   8.982   7.072  0.8069 -0.0648  0.2554
13498SOL    HW144086   8.334   8.974   7.041  0.3674  1.3801 -1.5911
13498SOL    HW244087   8.233   9.075   7.091 -0.3849 -0.1709  0.1844
13499SOL     OW44088   4.822  10.417   7.547 -0.8487  0.0864 -0.9734
13499SOL    HW144089   4.898  10.469   7.574 -0.5819 -0.6659 -0.2352
13499SOL    HW244090   4.802  10.363   7.623 -1.3272 -0.6639 -1.6231
13500SOL     OW44091   2.707   0.773   5.224  0.2556  0.7176 -0.2374
13500SOL    HW144092   2.757   0.818   5.292  1.7716 -1.4495  0.2000
13500SOL    HW244093   2.616   0.784   5.249  0.7587  0.3389  1.9647
13501SOL     OW44094   8.737   1.061   6.921 -0.2134 -0.0937  0.3963
13501SOL    HW144095   8.707   0.970   6.927  0.7681 -0.4543  0.1406
13501SOL    HW244096   8.809   1.058   6.858 -0.3068  0.9048  0.2310
13502SOL     OW44097   7.828   2.211   3.441  0.1474 -0.5897  0.0947
13502SOL    HW144098   7.818   2.122   3.407  1.9932 -0.3849 -1.1035
13502SOL    HW244099   7.797   2.267   3.370 -1.9801 -0.2221  1.2215
13503SOL     OW44100   0.766   5.402   9.509 -0.2264  0.0824 -0.4928
13503SOL    HW144101   0.700   5.356   9.561 -1.2717  0.3443 -1.5558
13503SOL    HW244102   0.834   5.336   9.495 -1.3562 -0.9322 -1.3542
13504SOL     OW44103   9.734   2.146   2.659 -0.1803 -0.0350  0.3077
13504SOL    HW144104   9.786   2.078   2.702 -0.9506  0.0860  1.4720
13504SOL    HW244105   9.737   2.220   2.719  0.7640  1.0284 -1.0135
13505SOL     OW44106   6.438   7.354   3.019 -0.1820  0.1627  0.1747
13505SOL    HW144107   6.470   7.270   3.051  0.3508 -0.5323 -2.0143
13505SOL    HW244108   6.406   7.399   3.098 -1.5209 -2.4987  1.2881
13506SOL     OW44109   9.394   3.293   2.025 -0.3616  0.1127  0.7981
13506SOL    HW144110   9.318   3.271   1.971  0.4550  0.2070 -0.4293
13506SOL    HW244111   9.457   3.223   2.006  0.1900  0.5277  1.1011
13507SOL     OW44112   3.035   7.737   6.050 -0.2782 -0.3946 -0.5072
13507SOL    HW144113   2.960   7.782   6.009  1.2071  0.8820 -1.9663
13507SOL    HW244114   3.107   7.752   5.989  1.5363 -0.3004  1.5710
13508SOL     OW44115   2.185   3.664   9.786  0.2812  0.4735 -0.4693
13508SOL    HW144116   2.120   3.731   9.765 -0.1929  1.1388  2.7109
13508SOL    HW244117   2.233   3.651   9.704 -0.6357  3.5229 -1.6227
13509SOL     OW44118   0.455   9.999   7.189 -0.0014 -0.1363  0.5420
13509SOL    HW144119   0.420  10.074   7.141 -1.0069 -1.7260 -1.3535
13509SOL    HW244120   0.389   9.982   7.257  0.0575  0.4605  0.7590
13510SOL     OW44121   0.769   5.496   1.876  0.0685  0.1183  0.3044
13510SOL    HW144122   0.726   5.412   1.863 -0.0726  0.1579  0.5163
13510SOL    HW244123   0.759   5.542   1.793  2.4393 -1.0984 -0.7607
13511SOL     OW44124   3.452  10.729   4.945 -0.1025  0.0025  0.0990
13511SOL    HW144125   3.512  10.681   5.002 -1.4254 -2.7592 -0.6487
13511SOL    HW244126   3.481  10.708   4.856 -2.4413 -2.0041 -0.3045
13512SOL     OW44127   4.009   6.862   3.029 -0.1935  0.6159  0.0092
13512SOL    HW144128   3.979   6.858   2.938 -0.6215 -0.9574  0.1935
13512SOL    HW244129   4.087   6.806   3.031  0.1540  1.1029  0.4985
13513SOL     OW44130   3.069  10.071   1.931  0.0663 -0.7434  0.6390
13513SOL    HW144131   3.042  10.085   2.021 -0.3379  0.1278  0.3951
13513SOL    HW244132   3.153  10.115   1.924  0.9022 -2.2085  1.0076
13514SOL     OW44133   5.174   0.147   6.429 -0.0949  0.3289  0.1021
13514SOL    HW144134   5.252   0.135   6.375 -1.3286 -0.6795 -1.5809
13514SOL    HW244135   5.192   0.098   6.509  0.8640 -0.1707 -0.4037
13515SOL     OW44136   9.946   2.513   8.251 -0.1149  0.1642  0.1734
13515SOL    HW144137   9.850   2.508   8.254 -0.1483  0.8886  1.8116
13515SOL    HW244138   9.975   2.455   8.321  0.7037 -0.7195 -0.8693
13516SOL     OW44139   5.474   7.145   2.936 -0.3573  0.7087  0.3336
13516SOL    HW144140   5.408   7.113   2.875  0.8117 -2.5395  0.5305
13516SOL    HW244141   5.436   7.131   3.023 -0.7408  2.2388  0.4441
13517SOL     OW44142  10.337   0.306   1.354 -0.4744  0.1946 -0.3046
13517SOL    HW144143  10.413   0.364   1.350 -0.7022  0.8460  2.6883
13517SOL    HW244144  10.369   0.227   1.397 -1.6790  1.0745  2.4565
13518SOL     OW44145   0.831   4.343   5.679  0.0896 -0.3660 -0.2572
13518SOL    HW144146   0.764   4.390   5.631  0.6894 -0.8223 -1.6053
13518SOL    HW244147   0.914   4.380   5.648  0.5130 -1.0816 -0.0131
13519SOL     OW44148   3.859  10.929   2.821 -0.0620  0.2385 -0.0856
13519SOL    HW144149   3.813  10.989   2.879 -1.1789 -0.7249  0.0639
13519SOL    HW244150   3.907  10.871   2.880 -1.3762 -0.8833 -0.0829
13520SOL     OW44151   5.714   4.372   2.926  0.5036  0.2502  0.3977
13520SOL    HW144152   5.765   4.425   2.865  1.2934  0.1694  0.9793
13520SOL    HW244153   5.676   4.303   2.871  2.4919 -0.7711  0.2223
13521SOL     OW44154   9.490   8.768   8.483  0.0778 -0.5712 -0.8110
13521SOL    HW144155   9.492   8.838   8.548 -1.0049  0.4464 -1.8337
13521SOL    HW244156   9.508   8.688   8.533 -0.4182  0.2181  0.6847
13522SOL     OW44157   8.359   9.324   4.503 -0.2440 -0.0830 -0.0677
13522SOL    HW144158   8.448   9.289   4.506 -0.4638 -0.6891 -0.5382
13522SOL    HW244159   8.323   9.308   4.590  0.4110  0.9933  0.4216
13523SOL     OW44160   5.764   1.005   4.403 -0.0528  0.2727  0.3009
13523SOL    HW144161   5.721   1.091   4.409  1.7501  1.2808 -0.6363
13523SOL    HW244162   5.824   1.004   4.477 -1.2361 -0.9207  1.2952
13524SOL     OW44163   5.241   0.693   1.621 -0.1542  0.7374  0.3189
13524SOL    HW144164   5.204   0.619   1.573  0.3742 -0.3359  1.4964
13524SOL    HW244165   5.261   0.758   1.554 -0.3919 -0.2974 -0.7826
13525SOL     OW44166   6.656   4.713  10.096 -0.0888 -0.6839 -0.5380
13525SOL    HW144167   6.562   4.699  10.090  0.0296 -1.0671 -1.9160
13525SOL    HW244168   6.691   4.627  10.120 -0.1701 -0.2250  1.3969
13526SOL     OW44169   6.211   6.356   2.283 -0.2480 -0.0903 -0.3607
13526SOL    HW144170   6.201   6.268   2.318 -0.1424 -0.1193 -0.4037
13526SOL    HW244171   6.128   6.375   2.239 -0.5557  0.1220  0.3003
13527SOL     OW44172   9.811   8.083   0.202  0.1518  0.2366 -0.3973
13527SOL    HW144173   9.804   8.020   0.274  1.8799 -0.4735 -0.8061
13527SOL    HW244174   9.898   8.070   0.167 -0.8719  0.0795 -3.0939
13528SOL     OW44175   7.930   8.042   8.071  0.1763  0.8532 -0.3804
13528SOL    HW144176   7.859   8.016   8.012 -2.0059  1.0874  1.9537
13528SOL    HW244177   7.891   8.109   8.128  2.6364  1.8202  0.2961
13529SOL     OW44178   9.800  10.302   0.828 -0.2830  0.0439  0.0914
13529SOL    HW144179   9.714  10.261   0.824 -0.7469  0.8080  1.5538
13529SOL    HW244180   9.853  10.244   0.883  0.3866 -0.8021 -1.3955
13530SOL     OW44181   0.240   6.351   8.720  0.6997  0.2258 -0.2582
13530SOL    HW144182   0.317   6.388   8.678  0.6341  2.6282  1.5103
13530SOL    HW244183   0.266   6.262   8.744  1.5678 -0.3302 -2.9845
13531SOL     OW44184   2.440   3.471   4.647 -0.0546 -0.1088  0.2521
13531SOL    HW144185   2.478   3.550   4.686 -1.6765  0.1553  1.4124
13531SOL    HW244186   2.394   3.428   4.720 -0.3033 -1.4291 -0.6524
13532SOL     OW44187   1.903   1.899  10.361 -0.5915  0.4028  0.1350
13532SOL    HW144188   1.946   1.816  10.343 -2.3067 -0.6228  0.5004
13532SOL    HW244189   1.909   1.910  10.456 -2.5700 -0.6542  0.4400
13533SOL     OW44190   0.551   4.761   8.452 -0.2582 -0.5042  0.0033
13533SOL    HW144191   0.520   4.818   8.382 -0.5258  0.6456  1.0119
13533SOL    HW244192   0.645   4.755   8.438 -0.5111 -1.6080 -1.3697
13534SOL     OW44193   5.592   4.907   9.216 -0.5659 -0.6201 -0.3931
13534SOL    HW144194   5.596   5.002   9.208 -0.8650 -0.6233 -0.6130
13534SOL    HW244195   5.621   4.888   9.305  1.0804 -0.4377 -0.8608
13535SOL     OW44196   8.362   2.818  10.081  0.2792 -0.1272  0.5576
13535SOL    HW144197   8.423   2.892  10.080  1.8933 -1.3740 -1.3406
13535SOL    HW244198   8.308   2.830  10.003 -1.4460  0.5167  1.7788
13536SOL     OW44199   7.501   4.436   0.243  0.6796 -0.3821 -0.7090
13536SOL    HW144200   7.534   4.447   0.154  0.3683 -0.0023 -0.7819
13536SOL    HW244201   7.468   4.346   0.245 -0.7931  0.1091 -1.4909
13537SOL     OW44202   6.292   8.532   7.672 -0.1543  0.0415 -0.4260
13537SOL    HW144203   6.361   8.473   7.644 -2.4032 -1.6381 -2.9818
13537SOL    HW244204   6.255   8.491   7.750 -1.0109 -1.5031 -1.5811
13538SOL     OW44205   6.798   3.871   4.693 -0.3290 -0.3785  0.5722
13538SOL    HW144206   6.748   3.794   4.666 -0.8312 -0.3509  1.3903
13538SOL    HW244207   6.767   3.941   4.635 -0.4566 -0.6064  0.3626
13539SOL     OW44208   2.208  10.638   7.485  0.5098 -0.3092 -0.3222
13539SOL    HW144209   2.121  10.673   7.503 -0.5441 -3.1510  0.6329
13539SOL    HW244210   2.193  10.571   7.418  2.3662  0.6901 -1.8334
13540SOL     OW44211   1.805   6.077   1.063 -0.0294  0.1200  0.5981
13540SOL    HW144212   1.888   6.109   1.099 -0.8998  1.4957  1.4852
13540SOL    HW244213   1.786   6.136   0.991 -0.7137  0.4255  1.0219
13541SOL     OW44214   6.247   2.531   2.181 -0.0412  1.1773 -0.1462
13541SOL    HW144215   6.173   2.473   2.199  0.4228  0.4264 -0.6017
13541SOL    HW244216   6.316   2.500   2.239  0.4365  0.8025 -0.8978
13542SOL     OW44217   9.678   5.017   3.300  0.1113 -0.3374  0.2880
13542SOL    HW144218   9.597   5.031   3.251  0.7877  0.0488 -0.7504
13542SOL    HW244219   9.726   5.100   3.292  1.2610 -1.0308 -0.3858
13543SOL     OW44220  10.959   7.897   2.443  0.2346  0.4824 -0.2565
13543SOL    HW144221  10.921   7.821   2.487  1.5022  0.8869  1.6665
13543SOL    HW244222  10.885   7.953   2.424 -0.4966 -0.2862  0.2306
13544SOL     OW44223   0.429   4.525   9.891 -0.0307 -0.3141  0.4607
13544SOL    HW144224   0.457   4.581   9.820  0.7093  0.2080  1.1546
13544SOL    HW244225   0.505   4.517   9.948 -0.7887 -0.1893  1.5360
13545SOL     OW44226   5.403   1.599   0.004  1.0405 -0.0647  0.3282
13545SOL    HW144227   5.347   1.575  -0.071  0.5635  0.1687  0.6050
13545SOL    HW244228   5.449   1.518   0.026 -1.3356 -1.0691  1.9285
13546SOL     OW44229   3.073   7.997   3.360  0.0047  0.2841 -0.4404
13546SOL    HW144230   2.996   8.006   3.416  1.0834  0.1536  1.1277
13546SOL    HW244231   3.110   8.085   3.355 -0.1164  0.3065 -1.0119
13547SOL     OW44232   1.467   8.632   6.990 -0.1969  0.1156  0.4895
13547SOL    HW144233   1.374   8.610   6.982 -0.0962  0.3914 -2.1403
13547SOL    HW244234   1.509   8.549   7.013 -1.0965  0.0843  2.2112
13548SOL     OW44235   5.532   1.886   7.969 -0.6702  0.3003 -0.3613
13548SOL    HW144236   5.562   1.881   8.059 -2.7619  2.0250  0.5123
13548SOL    HW244237   5.438   1.868   7.974 -0.8816  0.6915 -2.1489
13549SOL     OW44238   5.042   1.434  10.899  0.3014  0.3775  0.0744
13549SOL    HW144239   4.959   1.478  10.917  0.1284  0.5698 -1.1335
13549SOL    HW244240   5.080   1.420  10.985 -1.3888 -0.5133  0.7135
13550SOL     OW44241   2.143   8.254   7.741  0.2947  0.5965 -0.1903
13550SOL    HW144242   2.207   8.241   7.811  0.8705 -1.3246 -0.9872
13550SOL    HW244243   2.108   8.166   7.725 -1.3252  1.3395 -0.9231
13551SOL     OW44244   1.105  10.347   8.276  0.0351 -0.1120  0.5371
13551SOL    HW144245   1.191  10.347   8.234 -0.4132  1.1126 -0.4227
13551SOL    HW244246   1.064  10.266   8.244 -0.5064  1.0446 -1.9155
13552SOL     OW44247   3.247   8.524   5.618  0.0347 -0.6107 -0.1103
13552SOL    HW144248   3.298   8.543   5.696 -0.0511  0.8748 -0.3840
13552SOL    HW244249   3.291   8.450   5.578  0.2215 -1.2428  1.2068
13553SOL     OW44250  10.829   4.735   3.530 -0.3614  0.7579 -0.0712
13553SOL    HW144251  10.918   4.763   3.550 -0.4488  1.2245 -0.3040
13553SOL    HW244252  10.790   4.717   3.615 -0.2900  1.3403  0.0887
13554SOL     OW44253   3.406   7.882  10.968  0.5595 -0.3616 -0.1000
13554SOL    HW144254   3.439   7.972  10.967 -0.4112  0.0006 -0.9072
13554SOL    HW244255   3.436   7.845  10.885 -1.2626  0.0739 -1.0050
13555SOL     OW44256  10.685   0.572   9.495  0.3392 -0.1291 -0.0832
13555SOL    HW144257  10.652   0.492   9.536  1.1717 -0.1919  0.4844
13555SOL    HW244258  10.640   0.643   9.542 -0.1296 -0.2521 -0.3448
13556SOL     OW44259   0.838   5.351   0.034 -0.0981 -0.0542  0.4325
13556SOL    HW144260   0.756   5.329  -0.011 -0.3497  1.9077 -0.1661
13556SOL    HW244261   0.906   5.337  -0.032 -0.3678  1.8618 -0.3083
13557SOL     OW44262   5.719   5.976   5.339  0.1386  0.3470  0.2072
13557SOL    HW144263   5.656   6.003   5.406 -1.9202 -0.2414 -1.3957
13557SOL    HW244264   5.730   5.882   5.353  0.0447  0.3035 -0.0124
13558SOL     OW44265   0.116   4.037   7.039 -0.2398 -0.6057 -0.1174
13558SOL    HW144266   0.081   4.050   6.951 -1.3393 -1.9646  0.0895
13558SOL    HW244267   0.197   4.088   7.041  1.3436 -2.7547 -2.8363
13559SOL     OW44268   6.385   0.883   7.923  0.5091 -0.1022 -0.4044
13559SOL    HW144269   6.366   0.900   8.016  0.9675 -1.0948 -0.1164
13559SOL    HW244270   6.436   0.959   7.895 -0.0974  0.4709 -0.0003
13560SOL     OW44271   9.792  10.721   0.160 -0.1317 -0.0505  0.3223
13560SOL    HW144272   9.816  10.643   0.211  0.5501 -0.4844 -0.6402
13560SOL    HW244273   9.718  10.694   0.107 -0.6897  0.3343  0.8828
13561SOL     OW44274   7.940   5.818   3.228  0.5221 -0.1788  0.1591
13561SOL    HW144275   7.965   5.731   3.198 -0.0938 -0.4828  0.5102
13561SOL    HW244276   8.022   5.857   3.259  0.8658 -0.4856 -0.3502
13562SOL     OW44277   6.906   8.722  10.941 -0.2902  0.2846 -0.5123
13562SOL    HW144278   6.935   8.787  10.878 -0.2485  1.0563  0.2716
13562SOL    HW244279   6.959   8.645  10.923  0.2733  0.7549 -0.9079
13563SOL     OW44280   4.041   1.261   0.865 -0.5549 -0.0450 -0.0561
13563SOL    HW144281   4.134   1.279   0.857 -0.7822  1.4058  0.3244
13563SOL    HW244282   4.034   1.167   0.851  1.2257 -0.5764  2.0642
13564SOL     OW44283   6.530   3.366   7.513 -1.1076  0.2585 -0.1997
13564SOL    HW144284   6.573   3.436   7.464 -0.7002  0.4302  0.3841
13564SOL    HW244285   6.601   3.322   7.559 -1.5482  0.5764  0.8214
13565SOL     OW44286   7.267   6.924  10.002  0.1686 -0.1862  0.4114
13565SOL    HW144287   7.252   6.847   9.946 -0.6866 -0.3133  0.7876
13565SOL    HW244288   7.187   6.930  10.054  0.5560  0.5067  0.9317
13566SOL     OW44289   2.864   3.017   4.756 -0.2349 -0.3565  0.1589
13566SOL    HW144290   2.789   2.985   4.705  0.1751 -0.8823 -0.1256
13566SOL    HW244291   2.849   2.983   4.844 -0.0790 -0.8892 -0.0167
13567SOL     OW44292  10.401   2.718   8.696 -0.9183 -0.0002  0.0916
13567SOL    HW144293  10.470   2.773   8.659 -1.7508  1.3590  0.5355
13567SOL    HW244294  10.391   2.749   8.786 -1.6842 -0.6165  0.2272
13568SOL     OW44295   8.144   8.973   5.406 -0.1697  0.2904 -0.3485
13568SOL    HW144296   8.237   8.953   5.421 -0.5523 -0.5272  1.1736
13568SOL    HW244297   8.143   9.066   5.385  0.8352  0.8104  1.6191
13569SOL     OW44298   6.998   8.210   6.073  0.1344  0.2218 -0.2165
13569SOL    HW144299   6.969   8.130   6.116 -1.4558  0.8405 -0.0418
13569SOL    HW244300   6.981   8.195   5.980  1.5259 -0.3000 -0.4003
13570SOL     OW44301   3.198   7.877  10.706  0.1351 -0.1151 -0.1580
13570SOL    HW144302   3.182   7.971  10.699 -0.8767 -0.3769 -4.3808
13570SOL    HW244303   3.285   7.865  10.668  0.1399 -0.9155  0.0816
13571SOL     OW44304   6.385   5.045   6.859  0.3316 -0.4597 -0.2386
13571SOL    HW144305   6.415   4.955   6.871  0.0812 -0.3922  1.1590
13571SOL    HW244306   6.459   5.099   6.886  0.4327 -0.2513 -0.9407
13572SOL     OW44307   4.045   0.901   8.337  0.7525  0.4314  0.6808
13572SOL    HW144308   3.984   0.968   8.305 -1.1632 -0.8769  1.3751
13572SOL    HW244309   4.104   0.948   8.396 -0.9899  1.4579  1.7105
13573SOL     OW44310   0.770   2.189   8.187  0.2788  0.1396  0.1678
13573SOL    HW144311   0.852   2.205   8.140  0.5484  0.8151  0.8520
13573SOL    HW244312   0.752   2.271   8.233 -0.9088  0.0777 -0.1589
13574SOL     OW44313   1.978   8.711   7.698  0.4702 -0.4834 -0.0204
13574SOL    HW144314   1.901   8.761   7.725  0.6603  0.6250 -1.4158
13574SOL    HW244315   2.051   8.757   7.741  0.4567 -0.9358  0.4998
13575SOL     OW44316  10.162   5.255   9.475 -0.2771  0.8179 -0.7012
13575SOL    HW144317  10.255   5.276   9.480 -0.0098  0.1738 -2.2281
13575SOL    HW244318  10.152   5.214   9.389 -1.8702  0.3578 -0.3268
13576SOL     OW44319   9.220   5.560   8.730  0.4157  0.4244  0.5766
13576SOL    HW144320   9.263   5.524   8.808 -0.0766 -1.5210  0.0072
13576SOL    HW244321   9.282   5.625   8.696  2.1014 -1.0283  0.7548
13577SOL     OW44322   8.816   4.229   1.226 -0.3276  0.6095 -0.3349
13577SOL    HW144323   8.844   4.320   1.237  0.6528  0.4641 -1.4022
13577SOL    HW244324   8.896   4.178   1.240 -0.9613 -0.1386  0.7241
13578SOL     OW44325   1.724   5.772   1.904  0.4845  0.2585  0.5274
13578SOL    HW144326   1.663   5.698   1.906  0.2440  0.1562 -3.4574
13578SOL    HW244327   1.685   5.836   1.963 -0.6003 -1.8027  2.1889
13579SOL     OW44328   5.408  10.201   2.239 -0.2957 -0.1758  0.1280
13579SOL    HW144329   5.341  10.248   2.288  0.8102  0.8451  0.7097
13579SOL    HW244330   5.359  10.145   2.179 -1.6747 -1.0219  1.9721
13580SOL     OW44331   1.723   2.623   7.384 -0.0157  0.4844 -0.0611
13580SOL    HW144332   1.667   2.546   7.380  1.1901 -0.7167  3.0997
13580SOL    HW244333   1.805   2.595   7.343 -0.0692  0.5533 -0.2133
13581SOL     OW44334   1.180   2.970   2.363 -0.0024 -0.1379  0.1978
13581SOL    HW144335   1.183   2.878   2.335 -0.3280 -0.3412  0.7987
13581SOL    HW244336   1.227   2.971   2.446 -1.4883 -0.1195  1.0861
13582SOL     OW44337  10.305   9.629   2.993  0.0208 -0.0090 -0.6763
13582SOL    HW144338  10.362   9.640   2.916  0.7747  2.7743  0.1567
13582SOL    HW244339  10.364   9.598   3.061  0.0405  0.5033 -0.4531
13583SOL     OW44340  10.416   1.882   4.129 -0.2969  0.0095 -0.1185
13583SOL    HW144341  10.497   1.835   4.108 -0.2874 -0.2275  0.4376
13583SOL    HW244342  10.419   1.895   4.223 -1.6725 -1.4880  0.1898
13584SOL     OW44343  10.743   0.787   6.620  0.0946  0.1200  0.1868
13584SOL    HW144344  10.678   0.856   6.604 -1.1689 -0.3338  2.8874
13584SOL    HW244345  10.692   0.706   6.623  1.2338 -0.6593 -0.5439
13585SOL     OW44346   0.032  10.559   3.371  0.0847 -0.2175  0.4073
13585SOL    HW144347   0.058  10.651   3.384  2.0957 -1.0402  3.0325
13585SOL    HW244348   0.091  10.527   3.303 -1.3739  0.6304 -1.3528
13586SOL     OW44349   0.422   7.626   3.315  0.0010 -0.1088 -0.0768
13586SOL    HW144350   0.379   7.629   3.230  0.6142  0.7980 -0.3658
13586SOL    HW244351   0.413   7.535   3.343 -1.5482 -0.0768 -0.4021
13587SOL     OW44352   9.388  10.382   4.487 -0.3453  0.1793 -0.1688
13587SOL    HW144353   9.391  10.306   4.429 -0.5680  0.6042 -0.7467
13587SOL    HW244354   9.476  10.386   4.525 -0.8821 -1.5002  1.3832
13588SOL     OW44355   7.829   9.607   0.187  0.3180 -0.4254 -0.1083
13588SOL    HW144356   7.904   9.590   0.244  0.8078 -0.2126 -0.6759
13588SOL    HW244357   7.765   9.651   0.244  1.8392  2.2491 -0.3128
13589SOL     OW44358   8.629   9.355   6.748  0.1880 -0.1166 -0.4060
13589SOL    HW144359   8.714   9.319   6.773  0.6668  2.3885  1.9920
13589SOL    HW244360   8.648   9.444   6.718 -1.6761  1.3882  2.4325
13590SOL     OW44361   9.223   2.593   5.908 -0.0546  0.2280 -0.4800
13590SOL    HW144362   9.226   2.522   5.972  1.0463  0.5764 -0.1204
13590SOL    HW244363   9.224   2.673   5.960  1.4129  0.5279 -0.9027
13591SOL     OW44364   1.625  11.105   7.438  0.9376 -0.2295 -0.2174
13591SOL    HW144365   1.584  11.073   7.519 -0.5348 -2.8701 -1.8618
13591SOL    HW244366   1.709  11.141   7.467 -0.0110  0.0165  2.5990
13592SOL     OW44367   7.840   8.263   3.460 -0.4895  0.1780  0.1155
13592SOL    HW144368   7.779   8.237   3.391  0.4213 -1.3432 -0.1709
13592SOL    HW244369   7.924   8.274   3.414  0.7423 -3.2680  1.1797
13593SOL     OW44370   6.475   4.534   0.403 -0.3653  0.2348 -0.0838
13593SOL    HW144371   6.477   4.599   0.474  0.1222  0.2811 -0.1371
13593SOL    HW244372   6.387   4.541   0.367 -0.0051  1.6242 -0.7765
13594SOL     OW44373  10.502   8.843  10.571  0.1285  0.0685  0.1771
13594SOL    HW144374  10.496   8.777  10.641 -0.1137 -0.4350 -0.3129
13594SOL    HW244375  10.484   8.795  10.491  2.1482  0.2689 -0.4585
13595SOL     OW44376   1.845   9.921   2.775 -0.3503 -0.7369  0.5119
13595SOL    HW144377   1.935   9.909   2.746 -0.3707 -0.2288  0.2281
13595SOL    HW244378   1.801   9.839   2.752 -0.6551  0.0426 -1.9979
13596SOL     OW44379   8.351   8.334  10.930 -0.4269  0.1339  0.3239
13596SOL    HW144380   8.432   8.345  10.979 -0.8284  1.6442  0.6811
13596SOL    HW244381   8.321   8.246  10.954  1.3565 -0.6747 -0.2466
13597SOL     OW44382   8.030   6.523  10.237  0.0979  0.1741  0.2766
13597SOL    HW144383   7.953   6.479  10.274 -0.5475  1.4962  0.5507
13597SOL    HW244384   7.997   6.568  10.160  0.8333 -0.1115 -0.2183
13598SOL     OW44385   1.758   1.240   1.772  0.1508  0.3786  0.0898
13598SOL    HW144386   1.789   1.322   1.733  0.2870  0.1513 -0.2817
13598SOL    HW244387   1.701   1.201   1.705  0.8851 -0.3168 -0.1423
13599SOL     OW44388  11.100   6.241  11.095  0.5146  0.1320 -0.2430
13599SOL    HW144389  11.048   6.176  11.143  1.0739  1.2523  2.0138
13599SOL    HW244390  11.042   6.317  11.087 -0.0370 -0.4514 -2.6220
13600SOL     OW44391   4.408   3.034  10.665  0.1568  0.0563  0.1670
13600SOL    HW144392   4.373   3.122  10.650 -1.4570 -0.4015  0.9710
13600SOL    HW244393   4.358   2.979  10.605  2.1429 -0.1760 -1.3676
13601SOL     OW44394   2.650   7.917   8.414  0.3769 -0.8276 -0.7608
13601SOL    HW144395   2.638   7.822   8.416  1.0496 -0.9102 -0.1862
13601SOL    HW244396   2.674   7.940   8.504  1.5740 -0.3022 -1.2000
13602SOL     OW44397   0.039   1.527   6.058 -0.0689  0.2937 -0.1294
13602SOL    HW144398   0.003   1.440   6.043 -0.0126  0.3766 -0.7981
13602SOL    HW244399   0.131   1.520   6.032  0.3150  0.1777  1.2228
13603SOL     OW44400   7.733   7.777   8.496 -0.5781 -0.1740  0.3057
13603SOL    HW144401   7.764   7.751   8.409  2.6240 -2.4900  1.9158
13603SOL    HW244402   7.655   7.724   8.511 -0.9223 -0.0555 -0.9590
13604SOL     OW44403   8.103   8.322   7.552 -0.4243 -0.2988  0.2647
13604SOL    HW144404   8.148   8.271   7.485 -1.0540  0.3487 -0.6733
13604SOL    HW244405   8.072   8.258   7.615  0.7456 -0.8620  0.2860
13605SOL     OW44406   6.608   0.258   6.843  0.2712  0.2090  0.1793
13605SOL    HW144407   6.553   0.307   6.903 -0.8747  0.1452 -0.7754
13605SOL    HW244408   6.695   0.296   6.853  0.1987 -0.0686  2.1371
13606SOL     OW44409   2.312   5.584   4.946 -0.2169  0.3765  0.5217
13606SOL    HW144410   2.245   5.563   5.011 -2.2742  1.0128 -1.2725
13606SOL    HW244411   2.388   5.534   4.973 -1.5437 -0.7413  2.4176
13607SOL     OW44412   8.286   8.862   1.173 -0.0803 -0.0289 -0.1143
13607SOL    HW144413   8.267   8.833   1.084 -1.1725  0.7676 -0.1646
13607SOL    HW244414   8.369   8.909   1.167  0.6295 -1.2816 -0.4153
13608SOL     OW44415   7.669   0.506   9.422  0.2182 -0.5996  0.3750
13608SOL    HW144416   7.705   0.593   9.440 -0.5727  0.0936 -1.1536
13608SOL    HW244417   7.746   0.450   9.409  0.7682  0.3624 -0.7101
13609SOL     OW44418   8.542   4.223   7.103 -0.1641  0.1817 -0.5079
13609SOL    HW144419   8.508   4.175   7.179 -0.3694  1.1304  0.0137
13609SOL    HW244420   8.636   4.207   7.105 -0.3018 -0.6794 -0.6871
13610SOL     OW44421   6.775   4.847   0.826  0.4099  0.4745  0.3501
13610SOL    HW144422   6.768   4.795   0.747  1.3316 -0.9963  1.1894
13610SOL    HW244423   6.714   4.807   0.888 -0.0571  1.3959  0.5135
13611SOL     OW44424   1.460  10.151  10.842  0.3860  0.4108  0.3421
13611SOL    HW144425   1.369  10.161  10.813  0.6808  0.7399 -0.4711
13611SOL    HW244426   1.456  10.168  10.936 -0.1273  2.0809  0.0440
13612SOL     OW44427   5.176  10.649   0.869  0.5191 -0.2533  0.6575
13612SOL    HW144428   5.142  10.665   0.781 -2.0137 -0.4256  1.5167
13612SOL    HW244429   5.221  10.565   0.863 -1.6955 -1.4709 -0.0282
13613SOL     OW44430   6.524   7.933   5.582  0.1243 -0.1612 -0.4600
13613SOL    HW144431   6.581   7.892   5.516 -0.3887 -0.4395 -0.7310
13613SOL    HW244432   6.487   8.009   5.536  1.5372  1.0043  0.2146
13614SOL     OW44433   9.320   3.603   6.415  0.3931 -0.5448 -0.1202
13614SOL    HW144434   9.301   3.603   6.509  0.2539 -0.6446 -0.1473
13614SOL    HW244435   9.259   3.668   6.379 -1.0446 -1.9861 -0.4276
13615SOL     OW44436   7.529   2.322   5.979  0.6779 -0.0266 -0.0921
13615SOL    HW144437   7.469   2.278   5.919 -0.4532  0.0888  0.9001
13615SOL    HW244438   7.485   2.316   6.064  3.2126 -2.1193  1.2039
13616SOL     OW44439   6.335   5.778  10.160 -0.0346 -0.4527  0.4096
13616SOL    HW144440   6.315   5.685  10.152  1.1582 -0.5462 -2.8678
13616SOL    HW244441   6.261   5.822  10.118  1.3587 -0.2789 -2.1078
13617SOL     OW44442   7.414   6.166   1.328  0.6315  0.5245 -0.3510
13617SOL    HW144443   7.345   6.230   1.311  1.3672  1.7242  1.0058
13617SOL    HW244444   7.369   6.091   1.365 -0.0229  1.0549 -0.0494
13618SOL     OW44445   1.149   0.768   1.509  0.4651  0.5151 -0.6290
13618SOL    HW144446   1.202   0.839   1.472  0.5856 -0.5287 -2.6001
13618SOL    HW244447   1.071   0.766   1.454  1.1554 -1.8476 -1.6608
13619SOL     OW44448   0.964   9.898   1.968  0.0381  0.8867 -0.3633
13619SOL    HW144449   1.002   9.931   2.049  1.0101  0.4706 -0.6474
13619SOL    HW244450   1.026   9.925   1.900  0.3428 -0.6537 -0.7180
13620SOL     OW44451  10.141   7.647   7.745 -0.1757 -0.2603 -0.0250
13620SOL    HW144452  10.129   7.669   7.653 -0.7571  0.7179  0.2667
13620SOL    HW244453  10.090   7.567   7.758 -0.2832 -0.2696 -0.5071
13621SOL     OW44454   0.649   5.802   8.100 -0.3635 -0.4282  0.0147
13621SOL    HW144455   0.660   5.896   8.084 -0.4162 -0.4221  0.0165
13621SOL    HW244456   0.608   5.769   8.021  0.8233 -0.6719 -0.5278
13622SOL     OW44457   3.365   9.808   4.923  0.0238  0.1265  0.4069
13622SOL    HW144458   3.377   9.714   4.907 -1.4399 -0.1822  1.0476
13622SOL    HW244459   3.417   9.850   4.854 -0.8300 -1.1638 -1.0794
13623SOL     OW44460   3.796   1.373   5.713  0.2776 -0.2093 -0.4557
13623SOL    HW144461   3.738   1.384   5.638  0.9083  0.7455 -0.8260
13623SOL    HW244462   3.884   1.374   5.676  0.5786 -3.8624 -0.1893
13624SOL     OW44463   1.233  10.894   5.957 -0.3372  0.0891 -0.7776
13624SOL    HW144464   1.224  10.932   6.045  0.4916  0.2400 -0.7471
13624SOL    HW244465   1.325  10.907   5.935 -0.1751 -1.3697 -1.0285
13625SOL     OW44466   5.334  10.482   6.783 -0.7735 -0.0304  0.1286
13625SOL    HW144467   5.332  10.543   6.709 -2.0315  1.3965  1.2634
13625SOL    HW244468   5.337  10.395   6.743 -1.8538  0.6718 -1.6053
13626SOL     OW44469  11.026   6.027   6.007  0.1123 -0.3021 -0.0858
13626SOL    HW144470  11.001   5.949   5.959 -1.5666  0.4556 -0.5193
13626SOL    HW244471  10.946   6.053   6.054  1.2852 -0.2045  2.0136
13627SOL     OW44472   9.720  10.720   7.721 -0.4127  0.3901  0.8941
13627SOL    HW144473   9.694  10.795   7.669 -0.1656  0.0366  0.2509
13627SOL    HW244474   9.788  10.753   7.780 -0.2188  0.6411  0.5287
13628SOL     OW44475   0.648   4.389   3.190  0.1421 -0.0868  0.4219
13628SOL    HW144476   0.720   4.449   3.172 -0.6321  0.3447 -1.3881
13628SOL    HW244477   0.572   4.446   3.204 -0.0080 -0.5603  1.7267
13629SOL     OW44478   9.478   6.699   3.676  0.2298 -0.2648  0.9455
13629SOL    HW144479   9.420   6.772   3.653  0.6160  0.2960  1.7147
13629SOL    HW244480   9.500   6.714   3.768  1.3076 -0.6611  0.7691
13630SOL     OW44481   4.320   0.846   8.973  0.5040  0.2657 -0.5038
13630SOL    HW144482   4.375   0.768   8.986 -3.0874 -2.2976  0.7534
13630SOL    HW244483   4.314   0.856   8.878  2.1369 -0.0556 -0.6710
13631SOL     OW44484   3.696   8.156   6.525 -0.2455  0.3209  0.0791
13631SOL    HW144485   3.654   8.072   6.544 -0.7223  0.2256 -1.2448
13631SOL    HW244486   3.740   8.181   6.606 -0.4027 -1.0288  0.5933
13632SOL     OW44487  10.570  10.854   1.617  0.1861 -0.1128 -0.2745
13632SOL    HW144488  10.544  10.913   1.687  1.6857 -1.1966  1.2854
13632SOL    HW244489  10.665  10.866   1.609  0.0143  0.2370 -2.4020
13633SOL     OW44490   6.818   9.342   5.544 -0.2758  0.4455 -0.0166
13633SOL    HW144491   6.805   9.250   5.566  0.4218  0.1405 -0.8474
13633SOL    HW244492   6.905   9.363   5.578 -0.5946  0.9158  0.5284
13634SOL     OW44493   3.851  10.045   4.148  0.4176  0.3329 -0.1099
13634SOL    HW144494   3.914  10.087   4.208  0.6426 -1.8187  1.2610
13634SOL    HW244495   3.864   9.952   4.161 -2.3764 -0.2047 -0.5474
13635SOL     OW44496   5.300   8.325   6.550 -0.5504  0.1058  0.2601
13635SOL    HW144497   5.323   8.402   6.602  0.2911 -0.0869  0.1886
13635SOL    HW244498   5.358   8.257   6.582 -1.0250 -0.3991  0.0534
13636SOL     OW44499   8.200   7.938   3.386  0.2257  0.4195  0.6611
13636SOL    HW144500   8.127   7.953   3.325  0.1188  1.0231  0.9239
13636SOL    HW244501   8.161   7.953   3.473  0.6323  0.6135  0.8097
13637SOL     OW44502   5.763   9.926  10.367 -0.1813 -0.0492  0.2011
13637SOL    HW144503   5.696   9.864  10.397  0.3695 -0.3938  0.7646
13637SOL    HW244504   5.740   9.945  10.276 -0.7089 -0.6079  0.2099
13638SOL     OW44505   3.403   3.854   1.628  0.4950 -0.4089 -0.6876
13638SOL    HW144506   3.487   3.840   1.671  0.1330 -1.2904 -0.2236
13638SOL    HW244507   3.356   3.771   1.640 -0.7823  0.3569 -0.1470
13639SOL     OW44508   4.562   9.105   1.095 -0.4606 -0.6014  0.0606
13639SOL    HW144509   4.645   9.115   1.048 -0.0797  1.1240  1.0180
13639SOL    HW244510   4.534   9.195   1.113 -2.0367 -1.1780  0.6488
13640SOL     OW44511   8.369   7.882   8.252 -0.1596 -0.2261 -0.3687
13640SOL    HW144512   8.329   7.967   8.232  0.3654 -0.0835 -0.8660
13640SOL    HW244513   8.357   7.831   8.171  0.2152 -0.3505 -0.3475
13641SOL     OW44514   0.254   7.693   3.094  0.2072  0.3466  0.5433
13641SOL    HW144515   0.179   7.704   3.151  0.3070  1.1624  0.5302
13641SOL    HW244516   0.246   7.764   3.030  1.6167  1.1845  1.2478
13642SOL     OW44517   6.042   2.109   5.337 -0.2963  0.4510  0.2669
13642SOL    HW144518   5.983   2.149   5.274  0.4769 -1.4015 -1.7420
13642SOL    HW244519   5.990   2.042   5.381 -0.7790  1.6085  1.5379
13643SOL     OW44520   9.785   5.128   0.596  0.7946 -0.2349  0.4928
13643SOL    HW144521   9.782   5.204   0.654  0.3382  0.2977 -0.2264
13643SOL    HW244522   9.855   5.148   0.534  1.6468 -1.0378  1.1469
13644SOL     OW44523   6.768   4.579   7.863  0.2486 -0.3375 -1.2548
13644SOL    HW144524   6.819   4.512   7.908  1.0717  1.2398  0.2466
13644SOL    HW244525   6.783   4.562   7.770  0.8839 -1.8568 -0.9114
13645SOL     OW44526  10.409   6.325   9.538  0.3405  0.5067 -0.6304
13645SOL    HW144527  10.434   6.290   9.624  2.7091 -0.1115 -1.4943
13645SOL    HW244528  10.359   6.404   9.558  0.3991  0.1083  1.3140
13646SOL     OW44529   5.021  10.246  10.953  0.7813 -0.4790  0.0684
13646SOL    HW144530   5.009  10.315  11.018 -1.3199 -0.7286 -0.0007
13646SOL    HW244531   4.981  10.281  10.873  1.0896 -1.1769 -0.4051
13647SOL     OW44532   0.591   8.571   4.184  0.0380  0.4524  0.4119
13647SOL    HW144533   0.669   8.553   4.131 -0.2454 -0.3429  0.2454
13647SOL    HW244534   0.532   8.616   4.125 -0.3252 -0.5417 -0.0049
13648SOL     OW44535   9.526  10.515   2.903  0.1822  0.1308  0.7851
13648SOL    HW144536   9.490  10.590   2.950  0.4562  1.3945 -0.9236
13648SOL    HW244537   9.475  10.440   2.934 -1.4033  1.3115  1.1268
13649SOL     OW44538   9.275   8.150   5.341 -0.1693 -0.3046 -0.1831
13649SOL    HW144539   9.266   8.087   5.269 -0.0022 -2.4441  1.5576
13649SOL    HW244540   9.349   8.117   5.392 -0.8464  0.6218  1.4752
13650SOL     OW44541  10.682   3.094   0.149  0.3050  0.5102  0.0213
13650SOL    HW144542  10.605   3.149   0.135  0.5958  1.1888  1.0320
13650SOL    HW244543  10.724   3.129   0.227  1.1476 -0.4224  0.0169
13651SOL     OW44544   4.180   6.598   7.378 -0.6366  0.2862 -0.3801
13651SOL    HW144545   4.264   6.557   7.398 -0.1605 -0.1449 -2.8921
13651SOL    HW244546   4.171   6.668   7.443  1.6610  0.3323 -0.0384
13652SOL     OW44547   8.013   4.902   9.642  0.1161 -0.2528  0.3906
13652SOL    HW144548   8.089   4.859   9.681  1.1123 -0.3612 -1.5169
13652SOL    HW244549   8.049   4.953   9.569 -1.4718  0.9896  0.4116
13653SOL     OW44550  10.288   2.941   2.327  0.2197 -0.2084 -0.2366
13653SOL    HW144551  10.234   2.874   2.368 -0.5024  0.1088 -0.6624
13653SOL    HW244552  10.355   2.960   2.393 -0.0666 -0.7377  0.2208
13654SOL     OW44553   7.696   4.765   6.955  0.1300  0.1265  0.3795
13654SOL    HW144554   7.744   4.703   6.901  1.5614  1.2403  0.3141
13654SOL    HW244555   7.690   4.723   7.040 -3.4933 -2.3499 -0.8459
13655SOL     OW44556   2.447   2.208   5.842  0.0340 -0.0615  0.1205
13655SOL    HW144557   2.447   2.142   5.773 -0.8722  0.5058 -0.4312
13655SOL    HW244558   2.490   2.165   5.916 -1.5981 -1.6983  0.1799
13656SOL     OW44559  10.996   7.977   1.203  0.4749 -0.1913  0.2305
13656SOL    HW144560  11.055   8.038   1.247  0.5169  0.1385 -0.2768
13656SOL    HW244561  10.942   8.032   1.146  0.7870 -0.6606 -0.5423
13657SOL     OW44562   3.570   3.482   4.094  0.2322  0.1465 -0.2082
13657SOL    HW144563   3.566   3.427   4.015 -1.3018  0.2612 -0.2409
13657SOL    HW244564   3.578   3.419   4.166 -0.1711 -0.0498 -0.3337
13658SOL     OW44565   6.212  10.526   5.426 -0.1984  0.4877 -0.2646
13658SOL    HW144566   6.249  10.558   5.508 -3.2129  0.5884  1.1878
13658SOL    HW244567   6.181  10.605   5.382 -0.3128  0.2576 -0.5975
13659SOL     OW44568   2.560   7.777  11.001 -0.2466 -0.0561  0.1269
13659SOL    HW144569   2.481   7.740  10.961  0.3415 -0.3843 -0.7681
13659SOL    HW244570   2.569   7.864  10.962 -0.7647  0.4401  1.0658
13660SOL     OW44571   2.274   6.779   8.576 -0.5436  0.2521  0.3515
13660SOL    HW144572   2.332   6.854   8.583  1.0794 -0.9672  0.3420
13660SOL    HW244573   2.203   6.809   8.519 -0.1026  1.8694  0.6265
13661SOL     OW44574  10.637   9.448   8.659 -0.0527 -0.6098  0.0622
13661SOL    HW144575  10.658   9.519   8.720 -1.1114  0.6571 -0.9884
13661SOL    HW244576  10.624   9.492   8.575  0.9692 -2.2713 -1.0180
13662SOL     OW44577   1.587   1.445   4.674 -0.0839  0.0914  0.2892
13662SOL    HW144578   1.662   1.424   4.731 -0.4718  0.9215  1.1318
13662SOL    HW244579   1.593   1.540   4.662  1.2772 -0.2747 -2.9308
13663SOL     OW44580   7.297   3.837   0.926  0.0741  0.4132 -0.9605
13663SOL    HW144581   7.286   3.744   0.945 -0.8612  0.7498  0.2462
13663SOL    HW244582   7.376   3.841   0.873  0.7181 -0.9670 -0.1596
13664SOL     OW44583   1.271   7.123   3.561 -0.1946  0.0975 -0.0572
13664SOL    HW144584   1.213   7.115   3.485  1.4610  1.4416 -1.5426
13664SOL    HW244585   1.358   7.138   3.523  0.5569  1.6118  2.1094
13665SOL     OW44586   3.351   0.857   2.081 -0.1346 -0.1096  0.2017
13665SOL    HW144587   3.308   0.910   2.014  0.2937 -0.1777 -0.1295
13665SOL    HW244588   3.297   0.869   2.159 -0.9370 -0.4355 -0.2907
13666SOL     OW44589   7.478   7.858   0.747 -0.5184 -0.4002 -0.0634
13666SOL    HW144590   7.551   7.913   0.775  0.3749 -0.1464 -2.6486
13666SOL    HW244591   7.518   7.774   0.724 -0.9189 -0.1536 -1.8279
13667SOL     OW44592   1.475   7.347  11.097 -0.3553 -0.1696 -0.0729
13667SOL    HW144593   1.499   7.329  11.006  1.7660 -0.8651  0.5762
13667SOL    HW244594   1.413   7.278  11.119  1.0307 -1.5261 -0.2675
13668SOL     OW44595   1.155   9.747  10.458  0.6960 -0.5348  1.0940
13668SOL    HW144596   1.103   9.766  10.536  0.1124  0.4847  0.4715
13668SOL    HW244597   1.092   9.710  10.395  1.4063 -2.6754  1.5384
13669SOL     OW44598   4.860   0.727   5.725 -0.1850  0.2490  0.0232
13669SOL    HW144599   4.939   0.676   5.705 -1.3432 -1.4004 -0.5583
13669SOL    HW244600   4.877   0.764   5.812  1.5364  0.6269 -0.4236
13670SOL     OW44601   6.791   3.064  10.290 -0.4182 -0.1276  0.4370
13670SOL    HW144602   6.699   3.042  10.281 -0.2948 -0.9237  1.0018
13670SOL    HW244603   6.826   2.997  10.349  0.4202  0.4301  0.5899
13671SOL     OW44604   0.487   7.634   5.285 -0.6404 -1.3579  0.4139
13671SOL    HW144605   0.550   7.562   5.289  0.8780 -0.0571  1.0264
13671SOL    HW244606   0.525   7.695   5.222 -1.2501 -0.5208  0.8378
13672SOL     OW44607  10.531   4.513  10.900  0.0939 -0.4442 -0.1905
13672SOL    HW144608  10.583   4.567  10.841  1.5890 -0.8224  0.7220
13672SOL    HW244609  10.445   4.555  10.902  1.1032  1.7359  0.2703
13673SOL     OW44610   6.416   3.379   8.682 -0.0374 -0.2921  0.0704
13673SOL    HW144611   6.466   3.456   8.655  0.8394 -0.5836  0.8461
13673SOL    HW244612   6.327   3.397   8.650  0.2228  0.8915 -0.0499
13674SOL     OW44613   7.610   9.638   5.694  0.9842 -0.2986  0.4442
13674SOL    HW144614   7.554   9.586   5.751  1.4413 -1.1109  0.1797
13674SOL    HW244615   7.653   9.701   5.752  0.1050  0.0757  0.7042
13675SOL     OW44616   3.736  10.778   6.118 -0.1112 -0.0764 -0.0029
13675SOL    HW144617   3.736  10.773   6.023 -0.8399 -2.2519  0.0576
13675SOL    HW244618   3.663  10.836   6.140 -0.6055 -0.3977 -0.7693
13676SOL     OW44619   9.927  11.035   1.542  0.6847 -0.9939  0.0856
13676SOL    HW144620   9.875  11.055   1.464  0.9801  0.6584  0.2625
13676SOL    HW244621   9.933  10.940   1.544 -2.2019 -1.2786 -0.0377
13677SOL     OW44622   5.222   7.025  10.787  0.9068  0.3803 -0.3812
13677SOL    HW144623   5.149   7.087  10.777 -0.1930 -1.0548 -1.9387
13677SOL    HW244624   5.237   6.993  10.698  2.4788 -0.4637  0.1621
13678SOL     OW44625   9.127  10.856   4.468  0.1921  0.2873  0.9506
13678SOL    HW144626   9.050  10.809   4.500  0.0663  0.2640  0.6229
13678SOL    HW244627   9.200  10.798   4.489  0.0583  0.0307  0.7343
13679SOL     OW44628   7.145   8.682   2.774  0.4202 -0.3469 -0.0552
13679SOL    HW144629   7.126   8.763   2.727  0.1126  0.5090  1.4593
13679SOL    HW244630   7.163   8.711   2.864  0.7298 -1.9276  0.4159
13680SOL     OW44631   4.217   6.948   6.044 -0.8502  0.6259  0.5781
13680SOL    HW144632   4.261   6.873   6.084 -1.2316  0.9497  1.6418
13680SOL    HW244633   4.280   7.020   6.052  0.2628  0.0575 -2.0743
13681SOL     OW44634   4.879   0.706   0.717 -0.5122  0.2085  0.3093
13681SOL    HW144635   4.935   0.639   0.677  1.6770  1.5854  0.8784
13681SOL    HW244636   4.898   0.700   0.811 -0.2045  1.6517  0.3645
13682SOL     OW44637   6.085   7.949   7.220  0.1916 -0.1566  0.3854
13682SOL    HW144638   5.991   7.964   7.211  0.3431  2.0893  1.8225
13682SOL    HW244639   6.123   8.036   7.220  2.2672 -1.0139  0.2332
13683SOL     OW44640   8.264   7.165   5.049  0.7127 -0.6976  0.1007
13683SOL    HW144641   8.175   7.141   5.024 -0.3593  3.4251 -0.8438
13683SOL    HW244642   8.320   7.120   4.985 -0.7176 -2.5421  0.0654
13684SOL     OW44643   7.273   7.562   5.233  0.5075 -0.1867  0.1448
13684SOL    HW144644   7.304   7.609   5.310  1.2485 -0.8086  0.2324
13684SOL    HW244645   7.179   7.554   5.246  0.7206 -0.8903  1.3126
13685SOL     OW44646   6.344   2.276   8.780  0.3451 -0.5447 -0.1062
13685SOL    HW144647   6.348   2.245   8.689 -0.3166  0.8753 -0.6598
13685SOL    HW244648   6.380   2.365   8.775 -1.1006  0.1139  0.7398
13686SOL     OW44649   9.474   6.508   8.430 -0.5062  0.1921  0.0567
13686SOL    HW144650   9.423   6.588   8.436 -0.2230  0.3024  1.0647
13686SOL    HW244651   9.416   6.446   8.386  0.0534  1.5802 -2.8913
13687SOL     OW44652   6.895   3.452   2.293  0.2307  0.0021 -0.6207
13687SOL    HW144653   6.857   3.515   2.233 -0.4228 -0.7430 -1.0071
13687SOL    HW244654   6.969   3.497   2.332  1.8140 -0.0727 -3.3220
13688SOL     OW44655   7.518   6.602   8.050 -0.5989  0.2044  0.1789
13688SOL    HW144656   7.508   6.576   7.958 -0.3089 -0.4453  0.3285
13688SOL    HW244657   7.553   6.525   8.093  0.8260  0.9955  0.5212
13689SOL     OW44658   7.973   3.485   3.654 -0.0498 -0.2768  0.5441
13689SOL    HW144659   7.914   3.410   3.641  0.2037 -0.3316 -0.3864
13689SOL    HW244660   7.946   3.548   3.586 -0.2524  0.4788  1.3099
13690SOL     OW44661   8.291   0.884   2.602 -0.3833 -0.1741  0.1413
13690SOL    HW144662   8.303   0.865   2.509  0.7943 -0.6887  0.3794
13690SOL    HW244663   8.371   0.850   2.644 -0.4986  0.8360  1.2272
13691SOL     OW44664   0.571   5.480   3.013  0.8321  0.0874 -0.4291
13691SOL    HW144665   0.479   5.492   3.039  0.6056  0.6562 -1.4348
13691SOL    HW244666   0.573   5.391   2.977  0.8378 -0.1886  0.2454
13692SOL     OW44667   2.086   8.450   3.508 -0.5657  0.2958 -0.2367
13692SOL    HW144668   2.169   8.477   3.547  0.0013  2.6290 -2.7926
13692SOL    HW244669   2.023   8.453   3.581  0.8324  2.2426  0.9697
13693SOL     OW44670  10.343  10.122   2.559  0.0397 -0.2932 -0.1012
13693SOL    HW144671  10.275  10.061   2.529 -0.9151  0.1984  0.9886
13693SOL    HW244672  10.361  10.177   2.483 -2.7965  1.3498  0.2458
13694SOL     OW44673   8.036   9.495   3.634  0.0435 -0.2154  0.3580
13694SOL    HW144674   8.001   9.407   3.644 -2.2230  0.6198  0.3917
13694SOL    HW244675   8.039   9.510   3.540  1.8580 -0.8145  0.2861
13695SOL     OW44676   4.014   0.618   3.156 -0.0130 -0.3898  0.3506
13695SOL    HW144677   3.973   0.571   3.084 -0.0956 -0.8363  0.6865
13695SOL    HW244678   4.050   0.550   3.213  0.4351 -0.0296  0.5107
13696SOL     OW44679   9.097   6.153   8.337 -0.0788 -0.1522 -0.5611
13696SOL    HW144680   9.116   6.236   8.380 -0.5713  0.6969 -1.9273
13696SOL    HW244681   9.054   6.177   8.255  0.0858 -1.7438 -1.1563
13697SOL     OW44682  10.783   8.791  10.253 -0.6263  0.6740  0.5316
13697SOL    HW144683  10.864   8.746  10.230 -0.4224  1.1156  0.3650
13697SOL    HW244684  10.774   8.859  10.186 -1.5196  0.1634  0.1165
13698SOL     OW44685   1.829   3.265   2.246 -0.4595 -0.4850 -0.6908
13698SOL    HW144686   1.887   3.209   2.195  0.0121 -1.5745  0.9645
13698SOL    HW244687   1.869   3.270   2.333 -2.7130 -1.1319  0.4727
13699SOL     OW44688   6.357   2.866   1.031  0.2910  0.0170 -0.0913
13699SOL    HW144689   6.299   2.905   0.965 -2.0554 -1.5268  0.9537
13699SOL    HW244690   6.389   2.941   1.081  0.1980  1.0120 -1.4505
13700SOL     OW44691   9.443   0.338   0.975 -0.2684 -0.0520 -0.1854
13700SOL    HW144692   9.451   0.404   0.905 -1.1871  0.4943  0.2068
13700SOL    HW244693   9.431   0.389   1.055  0.4890 -0.6833  0.3471
13701SOL     OW44694   9.200   1.365   1.678  0.0320 -0.1995  0.4219
13701SOL    HW144695   9.251   1.306   1.624  0.9144  0.8136  0.1250
13701SOL    HW244696   9.140   1.308   1.727  1.8914 -1.4849  1.2840
13702SOL     OW44697   9.793   3.279   6.533 -0.1261  0.0890 -0.4680
13702SOL    HW144698   9.713   3.331   6.542 -0.4786 -0.6891  1.2851
13702SOL    HW244699   9.837   3.289   6.617  2.0306  1.0814 -1.6306
13703SOL     OW44700   1.371   1.641   8.657 -0.2893 -0.5153 -0.3313
13703SOL    HW144701   1.393   1.660   8.565  1.6868 -2.2948 -0.3083
13703SOL    HW244702   1.315   1.563   8.652 -1.1322  0.0582 -0.0473
13704SOL     OW44703   4.169   6.739   5.073  0.3461 -0.4179 -0.2605
13704SOL    HW144704   4.150   6.810   5.013 -0.1511 -0.4278 -0.1191
13704SOL    HW244705   4.099   6.743   5.138  1.9114  0.8214  1.4496
13705SOL     OW44706   9.153   4.158   2.203 -0.1695  0.4258  0.1121
13705SOL    HW144707   9.197   4.221   2.260 -1.4492  0.5442  0.9989
13705SOL    HW244708   9.060   4.176   2.215 -0.4911  0.4215 -1.9865
13706SOL     OW44709   1.384   0.679   1.577 -0.1888  0.1622  0.8046
13706SOL    HW144710   1.292   0.701   1.560 -0.9300 -0.0897  3.7759
13706SOL    HW244711   1.382   0.586   1.600  0.8420  0.1029  0.6820
13707SOL     OW44712  10.138   1.787   9.201 -0.6705 -0.0514  0.8906
13707SOL    HW144713  10.154   1.772   9.108 -1.0170 -0.1464  0.8437
13707SOL    HW244714  10.106   1.877   9.206  2.5527  1.2083  1.3136
13708SOL     OW44715  10.428   5.081   5.898  0.3267  0.1444 -0.1472
13708SOL    HW144716  10.420   5.144   5.825  0.6631 -1.2462 -1.4258
13708SOL    HW244717  10.439   5.136   5.975 -0.9763  1.7094 -0.9996
13709SOL     OW44718   2.752   4.785   7.460  0.0668 -0.1779 -0.5090
13709SOL    HW144719   2.784   4.704   7.500 -0.5314 -1.2782 -2.1459
13709SOL    HW244720   2.821   4.849   7.478 -0.6842 -0.1939  3.2887
13710SOL     OW44721   9.141   1.342   8.034 -0.4481  0.2092  0.3577
13710SOL    HW144722   9.223   1.367   8.077 -0.3032 -0.2375  0.3382
13710SOL    HW244723   9.087   1.304   8.104  0.2108 -1.5521 -0.0467
13711SOL     OW44724   1.053  10.580   7.846  0.2154 -0.6409 -0.6980
13711SOL    HW144725   1.000  10.655   7.818  1.1309  0.2334 -0.1668
13711SOL    HW244726   1.015  10.506   7.800 -0.7647  0.1314 -1.1905
13712SOL     OW44727   4.157   2.519   2.415 -0.4445  0.4988  0.1080
13712SOL    HW144728   4.069   2.498   2.384  0.5406 -0.4301 -2.3607
13712SOL    HW244729   4.189   2.585   2.353  0.7321  0.5451  0.7320
13713SOL     OW44730   3.876   0.117   7.301  0.2392  0.1382 -0.2661
13713SOL    HW144731   3.792   0.145   7.265  0.4296 -0.3446 -1.0953
13713SOL    HW244732   3.873   0.022   7.298 -0.5504 -0.0706  2.8500
13714SOL     OW44733   6.343   0.695  10.699  0.2013 -0.2599  0.1644
13714SOL    HW144734   6.256   0.655  10.700 -0.2070  0.6211  0.1760
13714SOL    HW244735   6.400   0.626  10.662 -1.1621  0.4319 -3.7245
13715SOL     OW44736   6.617   7.705   7.755  0.3296 -0.0720  0.2995
13715SOL    HW144737   6.560   7.629   7.751 -2.5186  1.9507 -0.8966
13715SOL    HW244738   6.586   7.754   7.832  0.7524  0.8439 -0.0953
13716SOL     OW44739   3.067   7.714   0.103 -0.3070 -0.0091 -0.2255
13716SOL    HW144740   3.063   7.689   0.010 -0.9140  1.6368 -0.6840
13716SOL    HW244741   3.106   7.802   0.102  0.4795 -0.3160  1.1671
13717SOL     OW44742   6.565   5.566   2.949  0.2100  0.0465  0.3382
13717SOL    HW144743   6.535   5.647   2.908 -1.1468 -0.3885  0.4424
13717SOL    HW244744   6.580   5.506   2.876 -0.1297 -0.0486  0.3467
13718SOL     OW44745   6.706   1.549   1.540 -0.2875  0.0217  0.1054
13718SOL    HW144746   6.781   1.606   1.522  0.0511 -0.6613 -0.7568
13718SOL    HW244747   6.633   1.589   1.493  0.1308 -0.6458 -1.1917
13719SOL     OW44748   6.792   4.169   6.139  0.9299 -0.2248  0.2820
13719SOL    HW144749   6.756   4.254   6.116  1.1497 -0.2621 -0.2011
13719SOL    HW244750   6.828   4.181   6.227 -0.6729 -0.3138  0.9738
13720SOL     OW44751   8.226   3.431  11.007  0.0403  0.1406  0.6216
13720SOL    HW144752   8.136   3.449  11.035 -0.8706 -0.9591 -1.3562
13720SOL    HW244753   8.238   3.338  11.023 -0.3951 -0.4581 -1.9984
13721SOL     OW44754   6.641   2.331   6.310  0.1728  0.1151 -0.3197
13721SOL    HW144755   6.632   2.421   6.279  0.9155  0.1521 -0.4316
13721SOL    HW244756   6.735   2.313   6.307  0.1049 -0.4233  0.3830
13722SOL     OW44757   0.231   7.564   8.713 -0.5405  0.6177  0.5017
13722SOL    HW144758   0.193   7.552   8.626  0.9121 -1.3817  0.0647
13722SOL    HW244759   0.323   7.584   8.697 -0.5758  1.7786  1.5886
13723SOL     OW44760   5.486   1.401   1.782  0.5921 -0.3339  0.2402
13723SOL    HW144761   5.400   1.427   1.815  0.4628 -0.2920 -0.1164
13723SOL    HW244762   5.498   1.312   1.814  0.0195 -0.6671 -0.4318
13724SOL     OW44763   2.116   0.895   3.013  0.1954  0.3998 -0.4565
13724SOL    HW144764   2.026   0.907   2.982 -0.7014 -0.4955  1.6513
13724SOL    HW244765   2.113   0.917   3.106  2.2162  0.5443 -0.3763
13725SOL     OW44766   2.374   8.097   9.473  0.1168 -0.5375  0.4495
13725SOL    HW144767   2.305   8.119   9.536 -1.0173 -2.2480 -0.1233
13725SOL    HW244768   2.342   8.018   9.429  0.3418  1.0889 -2.9994
13726SOL     OW44769   9.743   2.357   3.800 -0.2489  0.0359 -0.5871
13726SOL    HW144770   9.684   2.307   3.855 -1.5891 -0.8740 -2.7278
13726SOL    HW244771   9.702   2.443   3.792 -0.7068 -0.2268 -1.1320
13727SOL     OW44772   4.894   3.532   4.188  0.0399 -0.4385 -0.2642
13727SOL    HW144773   4.861   3.581   4.263  0.7135  2.8212 -1.8989
13727SOL    HW244774   4.983   3.507   4.213 -0.5405 -1.4898  0.8483
13728SOL     OW44775   4.549   4.263   0.176  0.2881  0.2976 -1.2503
13728SOL    HW144776   4.480   4.271   0.243  0.7435 -0.6784 -0.6391
13728SOL    HW244777   4.560   4.168   0.166  2.8874  0.3746  0.0963
13729SOL     OW44778  10.392   9.151   5.650  0.1735  0.0348 -0.3550
13729SOL    HW144779  10.320   9.183   5.703  0.4264 -0.6354  0.4216
13729SOL    HW244780  10.468   9.202   5.679 -0.1038  1.2749 -1.7054
13730SOL     OW44781  10.349   3.601   8.394 -0.1339 -0.3036 -0.1573
13730SOL    HW144782  10.372   3.646   8.476 -0.8530  0.8928 -0.5789
13730SOL    HW244783  10.431   3.561   8.365  0.4508  0.4072  0.4627
13731SOL     OW44784  10.502   7.559  10.422 -0.1138 -0.8349 -1.0213
13731SOL    HW144785  10.537   7.471  10.437  0.0661 -0.7621 -1.0081
13731SOL    HW244786  10.488   7.564  10.328  0.7701 -0.5491 -1.1444
13732SOL     OW44787   2.835  10.923   8.807  0.3875  0.0935 -0.1974
13732SOL    HW144788   2.926  10.950   8.823 -0.0497  1.7011 -0.2944
13732SOL    HW244789   2.842  10.856   8.739  1.4844  0.3267 -0.3395
13733SOL     OW44790   0.029   9.677   9.624  0.2174 -0.1822 -0.1111
13733SOL    HW144791  -0.041   9.622   9.658 -0.8292  1.0870 -0.1339
13733SOL    HW244792   0.018   9.761   9.669  1.0697  0.3749 -0.8971
13734SOL     OW44793  10.152   0.369   0.920 -0.1632 -0.0951 -0.4401
13734SOL    HW144794  10.196   0.360   1.005  2.0173 -0.6505 -1.5578
13734SOL    HW244795  10.071   0.417   0.940 -0.2475 -1.1175  2.0844
13735SOL     OW44796   2.815   6.025   9.250  0.1353 -1.2656  0.0980
13735SOL    HW144797   2.778   5.995   9.167  0.2895  0.2642 -0.5701
13735SOL    HW244798   2.743   6.073   9.292  0.7539  0.0941 -0.3308
13736SOL     OW44799   3.486   4.351   9.044 -0.3027  0.0335 -0.1411
13736SOL    HW144800   3.458   4.278   9.099  2.5963 -0.8130  0.3635
13736SOL    HW244801   3.581   4.342   9.038 -0.1016  2.4020 -2.0674
13737SOL     OW44802   5.431   6.549   8.894  0.2109 -0.0868  0.0789
13737SOL    HW144803   5.364   6.498   8.850 -0.3867  0.7976 -0.0576
13737SOL    HW244804   5.422   6.637   8.859  1.1927  0.1348  0.3433
13738SOL     OW44805   9.306   8.294   2.132  0.2178  0.5674  0.1984
13738SOL    HW144806   9.315   8.329   2.221 -0.6718  0.7669  0.2202
13738SOL    HW244807   9.212   8.292   2.117  0.3821  1.6978 -1.1934
13739SOL     OW44808   8.333   6.331   0.710  0.3800 -0.3656  0.2811
13739SOL    HW144809   8.276   6.320   0.786 -0.8086  0.5858 -0.4228
13739SOL    HW244810   8.421   6.317   0.744 -0.0518  0.7007  1.9944
13740SOL     OW44811   0.935   6.505   1.485 -0.0091  0.2520  0.5049
13740SOL    HW144812   0.855   6.555   1.466 -0.3490 -0.6311 -0.5059
13740SOL    HW244813   0.986   6.562   1.542 -0.6821  1.4686 -0.0706
13741SOL     OW44814   2.243  10.193   4.804 -0.3578  0.1861 -0.0042
13741SOL    HW144815   2.260  10.160   4.892 -2.3934 -1.0392 -0.0149
13741SOL    HW244816   2.260  10.119   4.746  0.4004  0.8151 -0.6130
13742SOL     OW44817   6.639   0.937   2.804 -0.2295 -0.0061 -0.5202
13742SOL    HW144818   6.552   0.966   2.833 -1.6157 -2.4450 -1.9255
13742SOL    HW244819   6.636   0.941   2.709  2.1574  2.2229 -0.6027
13743SOL     OW44820   4.356   7.583  10.189 -0.3189  0.3175 -0.0612
13743SOL    HW144821   4.392   7.601  10.102 -0.2766  1.2415  0.1397
13743SOL    HW244822   4.431   7.590  10.248 -0.1766 -1.1295 -0.0213
13744SOL     OW44823   4.713  10.989   9.373  0.3743 -0.7285  0.1648
13744SOL    HW144824   4.656  10.951   9.306  1.2402 -2.1344  0.1877
13744SOL    HW244825   4.659  10.994   9.451 -0.0961 -0.8270 -0.1505
13745SOL     OW44826   3.383   5.653   4.379 -0.3150 -0.8347 -0.1450
13745SOL    HW144827   3.474   5.679   4.362 -0.6143 -0.7098 -1.7757
13745SOL    HW244828   3.376   5.647   4.474  1.0179  0.5284  0.0656
13746SOL     OW44829   1.276   5.676   9.839  0.8321 -0.2310  0.5023
13746SOL    HW144830   1.190   5.689   9.801  1.2109 -1.7117 -0.9664
13746SOL    HW244831   1.334   5.734   9.789  0.9633 -0.5156  0.3218
13747SOL     OW44832   5.318   7.062   3.135 -0.3561 -0.4161 -0.1533
13747SOL    HW144833   5.311   7.128   3.204  0.7321 -0.8161  0.3560
13747SOL    HW244834   5.319   6.979   3.182 -1.6526 -0.8056 -0.7885
13748SOL     OW44835   6.476   5.006   3.097 -0.2238  0.2919 -0.7675
13748SOL    HW144836   6.486   5.066   3.023  0.7453  0.1672 -0.7434
13748SOL    HW244837   6.563   4.968   3.110 -0.7537 -0.9098 -0.5975
13749SOL     OW44838   3.538   9.878   2.127  0.4529  0.3090 -0.0293
13749SOL    HW144839   3.508   9.966   2.105  0.7939 -0.0234 -1.9929
13749SOL    HW244840   3.461   9.823   2.120  0.4443  0.2900  0.2052
13750SOL     OW44841   0.179   2.986   1.044  0.0149  0.3531  0.1949
13750SOL    HW144842   0.223   2.984   1.128 -1.8365 -1.9957  1.2295
13750SOL    HW244843   0.169   2.894   1.020 -2.2737  0.8461 -1.0422
13751SOL     OW44844   2.689   8.242   5.419  0.2572  0.0095 -0.3047
13751SOL    HW144845   2.658   8.318   5.371  1.4068  1.4675  1.1719
13751SOL    HW244846   2.783   8.258   5.431  0.4439 -1.4478  0.3959
13752SOL     OW44847   5.235   6.155   6.912 -0.4628 -0.5320 -0.2540
13752SOL    HW144848   5.205   6.241   6.884 -0.2808 -0.4982 -0.3481
13752SOL    HW244849   5.200   6.144   7.000  1.4862  0.6492  0.7422
13753SOL     OW44850  10.983   0.158   7.539  0.6121  0.0087  0.5094
13753SOL    HW144851  10.933   0.187   7.462  0.9097 -1.1707 -0.1639
13753SOL    HW244852  11.022   0.237   7.574  0.7681  0.5296 -0.7849
13754SOL     OW44853   2.899   3.048  10.800  0.2401  0.3517  0.4241
13754SOL    HW144854   2.811   3.084  10.806  0.1995  0.3375 -0.0629
13754SOL    HW244855   2.941   3.098  10.731 -0.1184 -1.1205 -0.9304
13755SOL     OW44856   8.580  11.103   1.035  0.7165 -0.8338 -0.0413
13755SOL    HW144857   8.582  11.199   1.032 -0.3597 -0.7603  1.0828
13755SOL    HW244858   8.510  11.078   0.975  0.1188 -0.8513  0.6614
13756SOL     OW44859   0.481   6.949   0.524 -0.3913  0.2342 -0.4943
13756SOL    HW144860   0.397   6.911   0.499 -2.5823  3.7200  0.8434
13756SOL    HW244861   0.475   7.041   0.498  2.8644  0.7458  0.0920
13757SOL     OW44862   1.343   0.259   1.987 -0.2067  0.1878  0.1304
13757SOL    HW144863   1.272   0.220   2.038  0.3859 -0.5439  0.4033
13757SOL    HW244864   1.299   0.317   1.924 -0.9847  0.5323  0.9773
13758SOL     OW44865   6.942   9.639   4.911 -0.2598  0.6019  0.1483
13758SOL    HW144866   7.002   9.654   4.984  0.9003  1.4986 -0.9606
13758SOL    HW244867   6.857   9.670   4.943 -0.1632 -0.5672  1.6866
13759SOL     OW44868   1.264   4.620   8.588 -0.0833 -0.0641  0.1404
13759SOL    HW144869   1.194   4.613   8.652 -0.6083 -0.9288 -0.5067
13759SOL    HW244870   1.286   4.713   8.586 -0.2497  0.0160  1.3487
13760SOL     OW44871   4.611   4.521   6.054  0.7283 -0.4614  0.3596
13760SOL    HW144872   4.530   4.572   6.062  0.1926 -0.9710 -1.3575
13760SOL    HW244873   4.679   4.580   6.087 -0.1425  0.5702  0.4017
13761SOL     OW44874   5.401   9.689  10.629 -0.4826  0.6536 -0.2019
13761SOL    HW144875   5.414   9.596  10.649 -0.7458  0.5351 -0.5851
13761SOL    HW244876   5.392   9.730  10.715 -0.6739  0.2789 -0.0385
13762SOL     OW44877   8.173   3.009   8.939 -0.2637 -0.4938  0.2696
13762SOL    HW144878   8.182   3.027   9.032 -1.2142 -0.5333  0.3741
13762SOL    HW244879   8.205   3.089   8.896  2.0678 -1.2098  0.5489
13763SOL     OW44880  10.648   1.507   6.151 -0.0379  0.7199  0.2995
13763SOL    HW144881  10.641   1.512   6.247  2.9681 -1.4795  0.7757
13763SOL    HW244882  10.724   1.561   6.129  0.0342  0.2489 -0.6721
13764SOL     OW44883   2.947   7.193   4.163 -0.5835  0.6937  0.1903
13764SOL    HW144884   2.970   7.285   4.168  0.2737  0.5803 -1.1793
13764SOL    HW244885   2.973   7.157   4.248  0.7249  1.3723  0.1002
13765SOL     OW44886   6.695   5.563   7.234 -0.5591  0.0616  0.0650
13765SOL    HW144887   6.703   5.508   7.311  3.3989 -0.1090 -0.2555
13765SOL    HW244888   6.610   5.540   7.196 -1.4872 -1.6912  2.9129
13766SOL     OW44889   1.872   0.005   0.420  0.0184  0.3705 -0.5483
13766SOL    HW144890   1.857   0.070   0.489 -1.3515  1.2869 -1.6624
13766SOL    HW244891   1.953   0.033   0.377 -0.0834  0.8316 -0.4463
13767SOL     OW44892   0.773   7.707   3.176 -0.4400 -0.3040 -0.4094
13767SOL    HW144893   0.740   7.618   3.164 -2.5354 -0.0138  2.1791
13767SOL    HW244894   0.726   7.740   3.253  2.8000  1.8234  0.9037
13768SOL     OW44895   0.188   2.384  10.973  0.0471  0.6631 -0.2578
13768SOL    HW144896   0.251   2.327  11.017 -1.4392 -1.1729 -0.3650
13768SOL    HW244897   0.233   2.416  10.895  0.9148 -0.4086 -0.2026
13769SOL     OW44898   9.761   7.995   2.694 -0.2415  0.2568 -0.3622
13769SOL    HW144899   9.775   7.953   2.610  1.6844  0.3944 -0.1541
13769SOL    HW244900   9.742   8.087   2.673 -0.4755  0.1377 -0.6646
13770SOL     OW44901   5.671   9.901   5.686  0.4287  0.2413  0.1207
13770SOL    HW144902   5.663   9.975   5.746 -0.5337  0.9322 -0.8289
13770SOL    HW244903   5.686   9.826   5.743 -0.1054  0.9372  1.2129
13771SOL     OW44904   7.582   4.081   5.946 -0.3152  0.4396  0.2752
13771SOL    HW144905   7.617   4.139   6.014  1.2060 -0.5063  0.3625
13771SOL    HW244906   7.657   4.068   5.886 -0.9455 -0.5808 -0.3110
13772SOL     OW44907   2.454   5.855   6.102 -0.2954 -0.0843 -0.4435
13772SOL    HW144908   2.448   5.821   6.191  0.2129 -0.9662 -0.7342
13772SOL    HW244909   2.495   5.785   6.052 -1.2125  0.1137 -1.5263
13773SOL     OW44910   4.177   1.868   6.306  0.2185 -0.2198  0.4104
13773SOL    HW144911   4.173   1.851   6.211  1.1755 -0.3745  0.3829
13773SOL    HW244912   4.124   1.799   6.345  1.7107 -1.6034  0.1165
13774SOL     OW44913   7.832   3.021   0.852  0.0101 -0.1922  0.0590
13774SOL    HW144914   7.873   3.080   0.789 -0.4495  0.4151  0.3124
13774SOL    HW244915   7.835   2.935   0.811 -0.3943  0.2188 -0.8396
13775SOL     OW44916  10.170   3.486   9.054  0.1521  0.3163  0.3897
13775SOL    HW144917  10.265   3.473   9.059  0.4216  1.2215 -1.4328
13775SOL    HW244918  10.140   3.416   8.995 -0.3062  0.1422  0.8178
13776SOL     OW44919   3.931   1.678   0.428 -0.1425  0.5860  0.0521
13776SOL    HW144920   3.927   1.738   0.503 -1.2307  0.6326 -0.0232
13776SOL    HW244921   3.968   1.730   0.357 -0.1603  0.8755  0.2537
13777SOL     OW44922   5.965   3.484   3.996 -0.3963  0.4943 -0.2976
13777SOL    HW144923   5.912   3.489   3.917  0.6015  0.5488 -0.9685
13777SOL    HW244924   5.942   3.400   4.035  0.2537 -0.2435 -1.4657
13778SOL     OW44925   6.393   0.930   2.953 -0.0244 -0.0720 -0.0265
13778SOL    HW144926   6.397   0.916   3.047 -0.5556  0.7743  0.1369
13778SOL    HW244927   6.348   1.014   2.943  1.9015  0.9314 -0.9538
13779SOL     OW44928   0.538   7.696   8.998 -0.0155 -0.1870  0.0177
13779SOL    HW144929   0.475   7.766   8.986 -0.9035 -1.0018 -0.2022
13779SOL    HW244930   0.489   7.616   8.980  0.6073 -0.9631  1.6011
13780SOL     OW44931  10.788   8.298   9.221  0.1519 -0.1366 -0.3075
13780SOL    HW144932  10.813   8.348   9.298  1.2296 -0.2572 -0.5661
13780SOL    HW244933  10.763   8.364   9.156 -1.0825 -0.0445  0.2299
13781SOL     OW44934  10.747   2.152   7.177  0.2030 -0.1186 -0.0369
13781SOL    HW144935  10.779   2.112   7.097  0.9800  0.2594  0.0739
13781SOL    HW244936  10.802   2.230   7.189 -0.0812 -0.0195  0.7158
13782SOL     OW44937   3.848   9.115   8.987  0.0073 -0.7251 -0.0027
13782SOL    HW144938   3.763   9.159   8.989 -0.5455 -1.7504 -0.3063
13782SOL    HW244939   3.884   9.126   9.075 -1.4408 -2.1580  0.8236
13783SOL     OW44940   4.403   3.859   8.772  0.0821  0.1458 -0.0096
13783SOL    HW144941   4.366   3.816   8.848  0.7318 -1.3132 -0.4648
13783SOL    HW244942   4.476   3.911   8.806 -0.0526  0.0383  0.4412
13784SOL     OW44943   8.315   3.179  10.536  0.3465  0.0325 -0.1336
13784SOL    HW144944   8.323   3.100  10.483 -2.3456 -0.1369 -0.4078
13784SOL    HW244945   8.330   3.251  10.474  0.8597 -0.2123 -0.3010
13785SOL     OW44946   5.489   0.350   1.887  0.3992  0.1027  0.1754
13785SOL    HW144947   5.580   0.331   1.912  1.1714  3.1111  0.1241
13785SOL    HW244948   5.466   0.427   1.939 -1.5002  0.4674 -1.0972
13786SOL     OW44949   5.706   6.107   7.306 -0.0867 -0.3185  0.5571
13786SOL    HW144950   5.781   6.064   7.266 -0.7691 -1.9044  0.9270
13786SOL    HW244951   5.655   6.036   7.345 -2.0397  0.6496 -0.1151
13787SOL     OW44952   4.623   6.148   7.026 -0.0311  0.3632  1.1311
13787SOL    HW144953   4.602   6.234   6.992 -1.3114 -0.4493 -0.2394
13787SOL    HW244954   4.698   6.118   6.974  0.9626  0.9530  2.1749
13788SOL     OW44955   3.934   4.696   6.004 -0.0573  0.1121 -0.1097
13788SOL    HW144956   3.889   4.613   6.022  0.3945 -0.3325 -0.9422
13788SOL    HW244957   4.016   4.670   5.962  1.8243  0.8010  2.8439
13789SOL     OW44958  10.696   4.312   0.871 -0.0507 -0.4981 -0.4113
13789SOL    HW144959  10.690   4.400   0.909 -1.6966 -0.0386 -1.6109
13789SOL    HW244960  10.756   4.323   0.797 -0.7029 -0.2231 -0.9118
13790SOL     OW44961   5.376   6.634   0.296  0.4087 -0.0497  0.0930
13790SOL    HW144962   5.433   6.696   0.341  1.2371  0.9755 -2.2257
13790SOL    HW244963   5.374   6.665   0.206 -2.2123 -1.2539 -0.3427
13791SOL     OW44964   6.031   1.310   6.057 -0.3478 -0.1164  0.3530
13791SOL    HW144965   5.961   1.334   5.996 -1.5892 -1.0459  1.3815
13791SOL    HW244966   6.046   1.390   6.108 -0.7931  0.0371  0.2524
13792SOL     OW44967   5.294   8.296   9.618 -0.0078  0.4899 -0.1520
13792SOL    HW144968   5.371   8.242   9.635 -0.8174 -0.9844 -1.0334
13792SOL    HW244969   5.329   8.371   9.569  0.7711 -0.6721 -1.4713
13793SOL     OW44970   0.466   3.932   2.639 -0.1176  0.0919  0.6601
13793SOL    HW144971   0.442   3.840   2.648  0.7880 -0.0416  2.1433
13793SOL    HW244972   0.472   3.964   2.729  1.2625  1.1283  0.2352
13794SOL     OW44973   9.464   2.929   8.559 -0.1026  0.3937 -0.6466
13794SOL    HW144974   9.481   2.926   8.653 -2.1748  0.3442 -0.2280
13794SOL    HW244975   9.433   2.841   8.538 -0.2684  0.5942 -1.2391
13795SOL     OW44976  10.955   8.094   1.684 -0.1659  0.1323  0.0705
13795SOL    HW144977  10.988   8.095   1.595 -0.2319 -0.5313  0.0287
13795SOL    HW244978  10.958   8.001   1.709  2.0045  0.5314  1.5713
13796SOL     OW44979   0.050   7.736   1.205  0.0422 -0.1615 -0.0609
13796SOL    HW144980   0.122   7.764   1.262  1.2412 -1.1119 -1.0693
13796SOL    HW244981   0.063   7.784   1.124  0.7714 -1.8472 -0.9776
13797SOL     OW44982   5.511   8.711   3.607 -0.3487  0.0802  0.4832
13797SOL    HW144983   5.475   8.742   3.689 -1.9585  0.6492 -0.3924
13797SOL    HW244984   5.461   8.757   3.539 -0.2106 -1.5838 -0.8284
13798SOL     OW44985   1.588   3.236   2.006  0.3452 -0.5954  0.0563
13798SOL    HW144986   1.566   3.179   1.932 -2.7009 -2.5884  2.2597
13798SOL    HW244987   1.672   3.201   2.038  1.3177 -0.1883 -1.8686
13799SOL     OW44988   0.680   3.403  11.038 -0.4777 -0.2923  0.2459
13799SOL    HW144989   0.617   3.341  11.075 -0.1843 -0.4819  0.4321
13799SOL    HW244990   0.762   3.355  11.035  0.3683  0.8314  2.6857
13800SOL     OW44991   6.868   8.776   8.839 -0.6789  0.0403 -0.4689
13800SOL    HW144992   6.952   8.751   8.878 -0.2453 -0.4239 -1.6308
13800SOL    HW244993   6.870   8.872   8.837 -0.8751  0.0843  0.9460
13801SOL     OW44994   1.228   8.751  11.031 -0.1449  0.0730 -0.0224
13801SOL    HW144995   1.141   8.726  11.061 -0.5408  0.1964 -1.0353
13801SOL    HW244996   1.213   8.794  10.947  1.1927 -3.7728 -2.5188
13802SOL     OW44997   4.378   0.666   0.874 -0.2988 -0.3718  0.3017
13802SOL    HW144998   4.431   0.594   0.909 -0.0268 -0.3743 -0.1119
13802SOL    HW244999   4.339   0.707   0.951  2.7341  1.5910  0.9387
13803SOL     OW45000   7.282   8.603   6.012 -0.4333  0.0301 -0.0941
13803SOL    HW145001   7.247   8.674   6.064  1.5363 -1.0075  2.9523
13803SOL    HW245002   7.227   8.527   6.034  1.8669 -1.0143  2.7706
13804SOL     OW45003   5.922   4.612   7.014  0.6743 -0.3094  0.0064
13804SOL    HW145004   5.968   4.685   6.972 -0.0256  0.5144  0.6494
13804SOL    HW245005   5.916   4.637   7.106 -2.1592  0.1957 -0.2538
13805SOL     OW45006   8.091   5.149   0.451  0.0411 -0.4462 -0.2359
13805SOL    HW145007   8.147   5.159   0.528 -0.3254  0.4739 -0.0738
13805SOL    HW245008   8.145   5.103   0.387  1.9594  2.6640 -1.0485
13806SOL     OW45009   6.113   8.316   3.173  0.1648 -0.0088  0.0371
13806SOL    HW145010   6.037   8.358   3.133  0.2539 -0.4601 -0.6303
13806SOL    HW245011   6.144   8.255   3.106  0.6613 -0.3722  0.5917
13807SOL     OW45012   5.301   3.013   4.700  0.2038 -0.7515 -0.2015
13807SOL    HW145013   5.275   3.073   4.630  0.6546 -0.1589  0.1306
13807SOL    HW245014   5.340   2.939   4.654  0.1939 -0.5171 -0.5948
13808SOL     OW45015   9.286  11.063   9.860  0.4975  0.1214  0.3105
13808SOL    HW145016   9.196  11.095   9.856 -0.0744 -1.1798  1.7527
13808SOL    HW245017   9.278  10.968   9.866  1.9331  0.0240  1.1798
13809SOL     OW45018  10.238  10.190  10.059 -0.1710 -0.1051  0.3502
13809SOL    HW145019  10.241  10.228  10.147  0.2540  1.5329 -0.3423
13809SOL    HW245020  10.328  10.193  10.028 -0.5416  0.7317 -0.7026
13810SOL     OW45021   3.144   2.499   1.850 -0.5056  0.5052 -0.1102
13810SOL    HW145022   3.059   2.458   1.868 -1.1474  0.6302 -2.5240
13810SOL    HW245023   3.123   2.591   1.834  0.3074  0.8501  0.7237
13811SOL     OW45024   2.921  10.701   9.407  0.6334 -0.2410 -0.5218
13811SOL    HW145025   2.861  10.775   9.413 -0.4037 -0.9144 -1.9535
13811SOL    HW245026   2.983  10.726   9.338  0.7457 -0.3828 -0.4729
13812SOL     OW45027   3.174   5.328   8.260  0.2456 -0.3314  0.1297
13812SOL    HW145028   3.169   5.253   8.318 -0.1240 -0.7530 -0.4350
13812SOL    HW245029   3.179   5.291   8.172  0.6571  0.2970 -0.1238
13813SOL     OW45030   1.741  10.924  10.566 -0.0875 -0.4752 -0.1400
13813SOL    HW145031   1.759  10.979  10.643 -0.7618  0.4946 -0.6546
13813SOL    HW245032   1.759  10.981  10.491  0.1504 -1.2807 -0.7027
13814SOL     OW45033  10.097   7.815   3.459  0.5040  0.5043  0.7636
13814SOL    HW145034  10.032   7.885   3.472  0.3077  0.4287  0.2121
13814SOL    HW245035  10.175   7.860   3.427  1.0864  0.7283  2.3970
13815SOL     OW45036   1.695   3.761   4.367  0.0874  0.8608 -0.5363
13815SOL    HW145037   1.660   3.811   4.442  1.2692  1.5607 -0.4271
13815SOL    HW245038   1.706   3.827   4.298  2.5713  0.9963 -0.0875
13816SOL     OW45039   8.678   1.898   1.230  0.3021 -0.4615  0.2160
13816SOL    HW145040   8.716   1.823   1.184  1.3986 -0.7759  1.5755
13816SOL    HW245041   8.629   1.859   1.302 -0.6522  0.0737 -0.1162
13817SOL     OW45042   8.420   5.119   3.715 -0.5084 -0.1031  0.2675
13817SOL    HW145043   8.423   5.153   3.805 -0.3917 -0.0172  0.2309
13817SOL    HW245044   8.348   5.166   3.674  2.4773  3.6069 -1.2137
13818SOL     OW45045   7.793   0.761   8.250  0.1498 -0.2935 -0.5749
13818SOL    HW145046   7.820   0.851   8.270  0.1534 -0.0898 -1.4470
13818SOL    HW245047   7.823   0.747   8.161 -0.7234 -0.8209 -0.7982
13819SOL     OW45048   1.212  10.391   3.958  0.0296 -0.2502 -0.1134
13819SOL    HW145049   1.178  10.306   3.984 -0.1269 -0.3622 -0.6688
13819SOL    HW245050   1.174  10.452   4.020 -1.7568 -0.2795 -1.1004
13820SOL     OW45051   0.334   0.402   3.648 -0.3359  0.2490 -0.5572
13820SOL    HW145052   0.362   0.383   3.737  0.7459 -0.9326 -1.1144
13820SOL    HW245053   0.414   0.398   3.596 -0.6213  2.9147 -1.3112
13821SOL     OW45054   8.520   8.825   5.973 -0.2325 -0.2197  0.2143
13821SOL    HW145055   8.469   8.752   6.007  0.3511 -0.3477  0.8270
13821SOL    HW245056   8.454   8.891   5.949 -0.7428 -0.8227 -0.0754
13822SOL     OW45057   9.654  10.874   9.496 -0.9813  0.3250 -0.0262
13822SOL    HW145058   9.641  10.813   9.568  0.1770  0.6636  0.4982
13822SOL    HW245059   9.651  10.960   9.538 -2.4962  0.6446 -0.7391
13823SOL     OW45060   3.637   5.698   9.498 -0.4353 -0.0734 -0.4427
13823SOL    HW145061   3.710   5.674   9.440  0.1518  1.2403 -0.2878
13823SOL    HW245062   3.589   5.617   9.511  0.8683 -0.9234 -0.7423
13824SOL     OW45063   1.180   9.526   0.051 -0.1577 -0.0721 -0.3392
13824SOL    HW145064   1.129   9.527   0.131  0.0775 -0.8272 -0.1741
13824SOL    HW245065   1.137   9.590  -0.006 -1.5607 -1.0125 -0.3852
13825SOL     OW45066   3.563   9.223   0.708  0.1655 -0.3847 -0.3536
13825SOL    HW145067   3.602   9.168   0.776 -0.7577  0.7750  1.1679
13825SOL    HW245068   3.613   9.305   0.711 -1.5644  0.6887  0.8333
13826SOL     OW45069   8.103   6.758   1.021 -0.1958 -0.0928  0.2822
13826SOL    HW145070   8.180   6.727   0.975  1.8649  3.1917  1.1860
13826SOL    HW245071   8.031   6.705   0.987  1.8737 -0.9300 -3.2428
13827SOL     OW45072   7.376   1.253   4.843 -0.4707 -0.2468  0.0466
13827SOL    HW145073   7.417   1.284   4.763 -1.0805  0.9492  0.1885
13827SOL    HW245074   7.447   1.207   4.889  0.6524  1.4653  0.1261
13828SOL     OW45075   1.776   8.999   9.939 -0.5403  0.2918  0.1806
13828SOL    HW145076   1.686   9.003   9.908 -0.6561 -0.2323  0.4223
13828SOL    HW245077   1.767   8.983  10.033 -0.2286 -2.1461 -0.1290
13829SOL     OW45078   0.255   0.928   3.897 -0.2289  0.1061  0.2583
13829SOL    HW145079   0.286   0.842   3.869 -1.5823  0.3785 -2.3431
13829SOL    HW245080   0.315   0.952   3.968  0.8314 -2.4906  0.3872
13830SOL     OW45081   2.526  10.508   2.198  0.2601 -0.1766 -0.1619
13830SOL    HW145082   2.547  10.419   2.226  0.6917 -0.4404 -1.2897
13830SOL    HW245083   2.543  10.509   2.104 -1.5105  0.5728 -0.5261
13831SOL     OW45084   7.076   9.449   6.629  0.0268  0.4517 -0.2146
13831SOL    HW145085   7.057   9.460   6.536  0.0522 -0.0931 -0.2855
13831SOL    HW245086   6.996   9.412   6.666  0.3539 -0.2447 -0.2001
13832SOL     OW45087   3.803   0.711  10.738 -0.1601 -0.3062  0.4958
13832SOL    HW145088   3.729   0.751  10.784  2.0371  2.0932  2.2609
13832SOL    HW245089   3.807   0.758  10.654 -0.5945 -0.4064  0.4154
13833SOL     OW45090   0.299  10.773   8.796 -0.0325 -0.4658  0.2043
13833SOL    HW145091   0.247  10.848   8.822 -0.0130 -0.0360 -0.9502
13833SOL    HW245092   0.350  10.803   8.721  2.0365 -0.7990  1.3860
13834SOL     OW45093   5.494   9.223   8.328 -0.3791 -0.1020  0.1330
13834SOL    HW145094   5.448   9.258   8.404  2.7758  1.3943  1.5242
13834SOL    HW245095   5.442   9.253   8.253 -4.0096 -2.2462  1.5337
13835SOL     OW45096   1.873   0.642  10.671 -0.0430 -0.1963  0.3241
13835SOL    HW145097   1.943   0.704  10.691 -1.1927  1.0865  0.5327
13835SOL    HW245098   1.838   0.671  10.587  1.1837 -2.2657 -0.9742
13836SOL     OW45099   1.787   1.206  10.952 -0.3080  0.7684 -0.6190
13836SOL    HW145100   1.728   1.263  11.000  0.2151  1.8430 -1.1995
13836SOL    HW245101   1.746   1.120  10.955 -0.7548  1.0136  0.9056
13837SOL     OW45102   4.347   6.316   2.385  0.0129  0.1536  0.6710
13837SOL    HW145103   4.370   6.360   2.466  1.2996 -0.0839  0.4530
13837SOL    HW245104   4.375   6.375   2.316 -1.8535  0.7423  0.3671
13838SOL     OW45105   7.425   9.149   8.944 -0.6892 -0.1776 -0.4448
13838SOL    HW145106   7.333   9.170   8.960 -0.7011 -0.6661  0.1815
13838SOL    HW245107   7.474   9.217   8.990 -0.7220 -1.6070  1.8771
13839SOL     OW45108   7.414   7.540   2.955  0.1175  0.6536 -0.3500
13839SOL    HW145109   7.435   7.516   2.864  1.1780 -0.8493  0.2554
13839SOL    HW245110   7.435   7.462   3.006  1.9132  2.2324  1.5007
13840SOL     OW45111   2.393   2.638   7.730 -0.1739  0.2185  0.2522
13840SOL    HW145112   2.298   2.647   7.726  0.0379  2.7510 -1.8814
13840SOL    HW245113   2.418   2.606   7.643  0.9278 -0.5080  0.8151
13841SOL     OW45114  10.670   3.267   4.628 -0.7011 -0.3010  0.5694
13841SOL    HW145115  10.655   3.177   4.598  0.0271 -1.7001  4.0112
13841SOL    HW245116  10.765   3.276   4.630 -0.7506  0.0290  1.6120
13842SOL     OW45117   2.828   1.016  10.380 -0.1219 -0.6453 -0.0277
13842SOL    HW145118   2.866   1.042  10.464 -1.1225 -0.4302  0.3667
13842SOL    HW245119   2.767   1.086  10.358 -0.0031 -0.7927 -0.8485
13843SOL     OW45120   8.125   6.846   0.648 -0.2354  0.5695  0.1767
13843SOL    HW145121   8.093   6.763   0.684 -0.8055  1.1191  0.9636
13843SOL    HW245122   8.191   6.875   0.710 -0.1140  0.7548 -0.0397
13844SOL     OW45123   5.442  10.967   6.373 -0.2131  0.4245  0.3690
13844SOL    HW145124   5.528  10.937   6.346 -0.5350 -0.4295  0.2554
13844SOL    HW245125   5.432  11.053   6.332  1.1967  1.2491  1.6605
13845SOL     OW45126   2.711  10.855   9.420 -0.5058  0.1578 -0.0354
13845SOL    HW145127   2.700  10.946   9.449  0.8181 -0.0129  1.1201
13845SOL    HW245128   2.629  10.813   9.444 -1.3067  1.1166 -0.9632
13846SOL     OW45129   3.489   2.637   7.748  0.3361 -0.0435 -0.1074
13846SOL    HW145130   3.451   2.604   7.667  0.5426 -1.0439  0.1858
13846SOL    HW245131   3.440   2.593   7.818  2.1934 -1.6268  0.2735
13847SOL     OW45132   8.013   8.306  10.437  1.1249 -0.3031 -0.4783
13847SOL    HW145133   7.966   8.293  10.355  1.3094 -0.6202 -0.5349
13847SOL    HW245134   8.050   8.394  10.430 -0.7074  0.5933  0.1857
13848SOL     OW45135   1.996   2.158   4.058 -0.2476 -0.8922 -0.1796
13848SOL    HW145136   2.008   2.153   3.963 -0.7815  1.9223 -0.4780
13848SOL    HW245137   2.057   2.227   4.086 -1.1262 -0.6697  1.2861
13849SOL     OW45138   9.937   2.822   0.857 -0.2494  0.0027  0.0294
13849SOL    HW145139   9.999   2.795   0.925  0.1144  0.5573 -0.0749
13849SOL    HW245140   9.992   2.864   0.790 -0.7407  0.5311 -0.0480
13850SOL     OW45141   1.931   3.371   7.871  0.5867  0.2620 -0.3147
13850SOL    HW145142   1.969   3.326   7.947  0.6857 -1.9540 -1.6030
13850SOL    HW245143   1.995   3.438   7.848  0.4846  1.0890  1.6157
13851SOL     OW45144   3.099   0.459  10.393 -0.2557  0.2657  0.4721
13851SOL    HW145145   3.091   0.388  10.329 -1.5170  0.0268  0.8764
13851SOL    HW245146   3.010   0.493  10.402 -0.0150  0.5925  1.7565
13852SOL     OW45147   3.293   2.565   6.549  0.8552 -0.0340 -0.0404
13852SOL    HW145148   3.338   2.521   6.622  1.2164 -2.2047 -1.4802
13852SOL    HW245149   3.206   2.586   6.584  0.9970 -1.0643  1.0111
13853SOL     OW45150   2.920   5.681   5.575 -0.2540  0.5701  0.5271
13853SOL    HW145151   2.917   5.710   5.484 -1.6419  1.2115  0.7507
13853SOL    HW245152   2.828   5.681   5.604  0.2660  1.8214  2.3735
13854SOL     OW45153   4.931  10.310   3.713 -0.1686 -0.3275 -0.5649
13854SOL    HW145154   4.868  10.374   3.680 -1.7064 -2.2498 -1.5966
13854SOL    HW245155   4.877  10.246   3.761  1.0481 -1.7369 -1.0014
13855SOL     OW45156   1.716  10.394   7.915  0.4759 -0.1234  0.0840
13855SOL    HW145157   1.735  10.487   7.926  0.4001  0.1373 -1.6227
13855SOL    HW245158   1.625  10.391   7.884  0.7838 -0.6658 -0.8310
13856SOL     OW45159  10.412  10.402   5.784  0.1134  0.1111  0.0947
13856SOL    HW145160  10.336  10.372   5.735  0.0754 -0.0600  0.2571
13856SOL    HW245161  10.413  10.347   5.862  1.3994 -1.0668 -0.7063
13857SOL     OW45162   7.515   2.719   8.954 -0.0788  0.0462  0.1562
13857SOL    HW145163   7.549   2.782   8.890  0.5034 -0.5349 -0.1215
13857SOL    HW245164   7.547   2.751   9.038 -0.5773  0.6373  0.1300
13858SOL     OW45165   0.512   1.111   6.900  0.5670 -0.2715 -0.4349
13858SOL    HW145166   0.603   1.082   6.896  0.8220  0.5728 -1.3023
13858SOL    HW245167   0.463   1.043   6.856  0.9360 -0.1911 -0.9826
13859SOL     OW45168   1.544   7.958   9.543 -0.0924  0.0079 -0.4309
13859SOL    HW145169   1.561   7.880   9.489  1.2347  0.2534 -0.4079
13859SOL    HW245170   1.553   8.031   9.482  0.1670  0.2186 -0.1407
13860SOL     OW45171   2.496   0.543   5.694 -0.3256  0.0636 -0.2085
13860SOL    HW145172   2.449   0.476   5.743  0.8255 -1.0694 -0.6038
13860SOL    HW245173   2.576   0.500   5.664  0.1824  1.4524 -0.9602
13861SOL     OW45174   1.334   9.573   6.746 -0.1456  0.4097  0.5442
13861SOL    HW145175   1.427   9.594   6.752 -0.2092  1.1236 -0.7419
13861SOL    HW245176   1.326   9.487   6.787  0.7343  1.2077  2.5468
13862SOL     OW45177   9.760   5.295   5.548 -0.0148  0.2774  0.3772
13862SOL    HW145178   9.734   5.255   5.631 -0.4362 -0.2980 -0.0280
13862SOL    HW245179   9.789   5.383   5.572  0.2349 -0.0144  1.1861
13863SOL     OW45180  10.976   2.566   8.773 -0.5126 -0.1456 -0.4704
13863SOL    HW145181  11.067   2.555   8.800 -0.3731  0.5824 -0.6333
13863SOL    HW245182  10.929   2.582   8.855 -0.5296 -0.7069 -0.3653
13864SOL     OW45183   3.536   8.770   3.345  0.8460 -0.1054  0.1024
13864SOL    HW145184   3.545   8.865   3.342 -0.8809  0.1103  0.5338
13864SOL    HW245185   3.541   8.742   3.254  0.4063  0.5113 -0.1153
13865SOL     OW45186   5.265   3.217  10.744  0.2605 -0.6023 -0.2401
13865SOL    HW145187   5.214   3.194  10.666 -2.5577  1.1786  0.9202
13865SOL    HW245188   5.244   3.148  10.807  2.2731 -1.8546 -0.8466
13866SOL     OW45189   5.203   2.225   8.720 -0.0800  0.0850 -0.2590
13866SOL    HW145190   5.209   2.232   8.625 -1.6427  1.3431 -0.2959
13866SOL    HW245191   5.146   2.297   8.746 -0.1395 -0.5808  1.5869
13867SOL     OW45192   8.849   9.351   2.853  0.7234 -0.1229 -0.0013
13867SOL    HW145193   8.848   9.440   2.888  1.4872 -0.6956  1.5629
13867SOL    HW245194   8.799   9.300   2.916  0.1902 -0.8035 -0.9499
13868SOL     OW45195   9.641   9.262   2.665  0.3362  0.1965  0.5251
13868SOL    HW145196   9.641   9.305   2.750  0.6091  0.7827  0.2284
13868SOL    HW245197   9.728   9.279   2.629  0.3811 -0.4401  0.3240
13869SOL     OW45198   6.766   9.781   2.098  0.4457  0.1081  0.0756
13869SOL    HW145199   6.696   9.845   2.087  0.4866  0.4229  1.4390
13869SOL    HW245200   6.783   9.781   2.193 -0.6945 -3.1359  0.3852
13870SOL     OW45201   1.917  10.374   1.183  0.7291 -0.4735 -0.0244
13870SOL    HW145202   1.953  10.311   1.246 -1.1567 -0.2889  1.3245
13870SOL    HW245203   1.977  10.370   1.108  2.4961 -1.4384  1.3572
13871SOL     OW45204   3.156   7.464  10.128  0.1649  0.3844  0.3027
13871SOL    HW145205   3.144   7.500  10.216 -0.1552  1.8570 -0.3139
13871SOL    HW245206   3.211   7.528  10.083 -0.6456  0.2561 -0.9256
13872SOL     OW45207   7.668   4.606  10.837  0.0753  0.1494 -0.2850
13872SOL    HW145208   7.597   4.668  10.818 -0.3251 -0.5168 -1.0477
13872SOL    HW245209   7.737   4.659  10.876 -0.4070  1.0077 -0.5751
13873SOL     OW45210   0.184   8.297   9.123  0.1868 -0.6835  0.5882
13873SOL    HW145211   0.274   8.312   9.094 -0.1644 -2.0823 -1.4029
13873SOL    HW245212   0.178   8.202   9.136 -0.9335 -0.5822  0.9222
13874SOL     OW45213   1.161   3.802   0.941  0.1405  0.4992  0.4622
13874SOL    HW145214   1.086   3.862   0.939  1.5787  2.3796  0.9075
13874SOL    HW245215   1.170   3.778   1.033  0.0476  0.2066  0.3961
13875SOL     OW45216   6.906   0.076   9.871  0.2339 -0.0854  0.3527
13875SOL    HW145217   6.837   0.104   9.932 -1.7094 -1.0742 -1.2491
13875SOL    HW245218   6.880   0.114   9.788  1.5555 -0.6516 -0.3401
13876SOL     OW45219   7.579   3.616   5.559  0.2025  0.0307 -0.0575
13876SOL    HW145220   7.661   3.644   5.600 -0.9234  0.5855  2.0060
13876SOL    HW245221   7.519   3.690   5.573 -0.2757  0.3142 -2.9363
13877SOL     OW45222   9.129   4.422   0.250  0.0693 -0.3032 -0.1935
13877SOL    HW145223   9.092   4.488   0.308 -2.4505 -1.5167 -0.2582
13877SOL    HW245224   9.135   4.465   0.165 -1.2595 -0.0026 -0.1649
13878SOL     OW45225   1.085   8.834   4.720 -0.3620  0.4964 -0.2241
13878SOL    HW145226   1.069   8.843   4.814  0.1504 -0.0009 -0.0863
13878SOL    HW245227   1.173   8.797   4.714 -0.9456 -0.8786 -0.8465
13879SOL     OW45228   0.445  10.768   9.062  0.4058  0.3143 -0.2516
13879SOL    HW145229   0.373  10.803   9.115 -0.1888  0.4726 -1.1497
13879SOL    HW245230   0.407  10.753   8.976  1.1558 -0.6974 -0.4333
13880SOL     OW45231   6.967   1.930   6.745  0.0438  0.5689  0.5652
13880SOL    HW145232   6.886   1.973   6.716 -0.3849  0.5005  1.6138
13880SOL    HW245233   7.025   1.934   6.669 -0.2093  2.4383  0.4407
13881SOL     OW45234   4.120   5.016   7.971 -0.0080  0.4187 -0.0203
13881SOL    HW145235   4.130   5.106   7.941  0.4791 -0.2694 -2.0941
13881SOL    HW245236   4.096   4.967   7.892 -1.6795 -1.0538  1.3172
13882SOL     OW45237   9.326   8.010   3.265 -0.5102 -1.4419 -0.0498
13882SOL    HW145238   9.333   8.098   3.229  2.0139 -1.2425  0.7436
13882SOL    HW245239   9.246   8.011   3.318 -0.0669  0.6335  0.6361
13883SOL     OW45240   1.932   6.137   0.399  0.4409 -0.3675  0.2117
13883SOL    HW145241   2.026   6.144   0.381  0.8077 -0.3783  1.9958
13883SOL    HW245242   1.912   6.213   0.454 -1.2074  1.1697 -2.2673
13884SOL     OW45243   0.335   0.690   3.782  0.4835  0.0910  0.2215
13884SOL    HW145244   0.403   0.623   3.785  1.1816  0.8239  1.7580
13884SOL    HW245245   0.340   0.725   3.693  0.8395 -1.1194 -0.2659
13885SOL     OW45246   4.614   1.045   9.827 -0.9096  0.0757  0.0214
13885SOL    HW145247   4.666   0.967   9.849  2.1823  1.6064 -1.2646
13885SOL    HW245248   4.592   1.033   9.735 -0.7743  0.5331 -0.0705
13886SOL     OW45249   2.855   2.516   6.633  0.0302  0.1174  0.5068
13886SOL    HW145250   2.925   2.461   6.667  1.4969  2.3097  1.2217
13886SOL    HW245251   2.834   2.576   6.705 -0.9899  0.9670 -0.4489
13887SOL     OW45252   4.383   9.510   1.347  0.3596 -0.3612  0.2532
13887SOL    HW145253   4.364   9.468   1.431  1.8634 -0.0511  0.7800
13887SOL    HW245254   4.341   9.596   1.353 -2.0645 -1.4049 -0.5237
13888SOL     OW45255   4.084   5.953   7.609 -0.5977  0.1028  0.7695
13888SOL    HW145256   4.090   6.012   7.684 -4.1881  1.1296  0.4687
13888SOL    HW245257   4.082   6.011   7.533  1.8342 -0.8624 -0.1350
13889SOL     OW45258   4.995   3.799   8.335 -0.2152  0.2431  0.6192
13889SOL    HW145259   5.044   3.873   8.298  0.1205 -1.0905 -1.8704
13889SOL    HW245260   4.937   3.772   8.264 -1.5662 -0.8269  2.0769
13890SOL     OW45261   2.817   3.143   3.943 -0.4058  0.4607  0.4137
13890SOL    HW145262   2.858   3.209   4.000  0.8853  0.8316 -0.8700
13890SOL    HW245263   2.891   3.106   3.894 -1.3968 -0.3317 -0.5147
13891SOL     OW45264   1.766   7.360   3.754  0.2000  0.0114 -1.0085
13891SOL    HW145265   1.702   7.412   3.801 -0.1177 -1.4265  0.2403
13891SOL    HW245266   1.735   7.358   3.664 -0.1994  1.2839 -0.9109
13892SOL     OW45267   4.617   7.299   6.539 -0.3004  0.7603  0.2821
13892SOL    HW145268   4.538   7.263   6.578 -2.0735  0.1201 -3.4011
13892SOL    HW245269   4.585   7.362   6.474  2.1476  0.4227 -1.4213
13893SOL     OW45270   7.608   5.900   8.774  0.1746  0.0037 -0.0947
13893SOL    HW145271   7.597   5.872   8.683  1.7720 -1.5279  0.1142
13893SOL    HW245272   7.535   5.859   8.821  0.2939 -0.6138 -0.4376
13894SOL     OW45273   1.345   0.432   4.858  0.3107 -0.2567 -0.3040
13894SOL    HW145274   1.355   0.523   4.885  0.4669 -0.5895  0.8045
13894SOL    HW245275   1.415   0.385   4.904 -1.2245 -1.3126  1.0676
13895SOL     OW45276   0.943   6.865   1.510 -0.3168  0.4308  0.1256
13895SOL    HW145277   0.965   6.870   1.417 -0.2792  0.3390  0.1288
13895SOL    HW245278   0.970   6.949   1.546 -1.1035  0.7968 -0.1083
13896SOL     OW45279  10.577   6.179   0.037 -0.3112  0.5826 -0.3077
13896SOL    HW145280  10.660   6.195   0.082 -1.0879  1.2302  0.9793
13896SOL    HW245281  10.536   6.266   0.032 -2.3895 -0.1365  2.1899
13897SOL     OW45282   6.018   7.614   4.409  0.4383 -0.7758  0.0983
13897SOL    HW145283   6.090   7.657   4.455  0.1003 -2.5838  2.5275
13897SOL    HW245284   6.042   7.521   4.409 -0.8307 -1.1295 -1.0926
13898SOL     OW45285   7.691   5.444   0.740  0.2753 -0.1128 -0.1411
13898SOL    HW145286   7.637   5.432   0.662 -1.3160 -1.4961  1.1015
13898SOL    HW245287   7.713   5.355   0.768 -0.8091  0.2486  2.0394
13899SOL     OW45288   2.499   5.995   1.465  0.3802  1.0889  0.5427
13899SOL    HW145289   2.432   6.025   1.527 -1.0328 -1.7384  0.5433
13899SOL    HW245290   2.450   5.975   1.385  1.6277  1.2870 -0.2949
13900SOL     OW45291   9.563   5.716   6.105 -0.0403 -0.2990  0.3415
13900SOL    HW145292   9.555   5.657   6.180 -1.4293  2.9097  3.0079
13900SOL    HW245293   9.651   5.753   6.114  0.0572 -0.4364 -0.0500
13901SOL     OW45294   2.402   1.891   4.612 -0.5573  0.3858  0.4607
13901SOL    HW145295   2.347   1.879   4.689  0.8349 -3.5721  1.0974
13901SOL    HW245296   2.480   1.937   4.645 -0.5915 -0.0119  1.1008
13902SOL     OW45297   6.904   8.172   0.090 -0.1619 -0.4335  0.4694
13902SOL    HW145298   6.995   8.197   0.108 -0.5469  0.9749  0.5712
13902SOL    HW245299   6.909   8.122   0.008  0.6898 -0.3129  0.4360
13903SOL     OW45300   6.487   6.759   8.568  0.7815 -0.7482  0.0684
13903SOL    HW145301   6.464   6.674   8.531 -1.0637 -0.4429  0.4083
13903SOL    HW245302   6.403   6.805   8.576  1.3635  0.0135  2.5748
13904SOL     OW45303  10.024   1.647   1.592 -0.1309  0.2192 -0.3079
13904SOL    HW145304  10.110   1.655   1.550  0.3328 -0.9653  0.3698
13904SOL    HW245305   9.979   1.578   1.542 -0.1348 -0.1576  0.2063
13905SOL     OW45306   9.130   8.080  11.072 -0.1239 -0.0856  0.4052
13905SOL    HW145307   9.099   8.030  10.996 -0.5918  1.5129 -0.5170
13905SOL    HW245308   9.199   8.026  11.110 -0.7545 -1.5150 -0.4005
13906SOL     OW45309   0.096   3.390  10.731 -0.0343 -0.7004  0.1404
13906SOL    HW145310   0.148   3.399  10.810  0.7718 -0.3144 -0.4249
13906SOL    HW245311   0.070   3.297  10.730  0.7822 -0.9384  0.3425
13907SOL     OW45312   5.750   2.381   9.293 -0.3547 -0.5986 -0.2750
13907SOL    HW145313   5.675   2.404   9.348 -0.9770  0.2994 -1.4636
13907SOL    HW245314   5.818   2.354   9.355 -1.3801 -0.6290  0.8616
13908SOL     OW45315   1.496   4.469  10.756  0.0563 -0.5479 -0.1710
13908SOL    HW145316   1.470   4.379  10.734  0.9485 -0.4950 -1.5589
13908SOL    HW245317   1.585   4.477  10.723 -0.3899  1.1852 -1.0714
13909SOL     OW45318   0.096   8.095   9.992 -0.2557 -0.0775  0.5740
13909SOL    HW145319   0.014   8.058   9.959 -0.1131 -0.0403  0.1731
13909SOL    HW245320   0.083   8.103  10.087 -1.0963  0.9062  0.3865
13910SOL     OW45321   6.212   3.795   3.843  0.3855  0.1894  0.3911
13910SOL    HW145322   6.184   3.844   3.765  1.7368 -2.7292 -2.1661
13910SOL    HW245323   6.285   3.741   3.813 -0.2853 -2.5828  3.1518
13911SOL     OW45324   6.910   2.876   6.316 -0.3777  0.3928 -0.0239
13911SOL    HW145325   6.997   2.835   6.320 -0.4152  0.4195  1.3418
13911SOL    HW245326   6.869   2.854   6.399 -0.7140  2.5351  0.4303
13912SOL     OW45327   6.755   3.729   6.972 -0.0926 -0.5355  0.6719
13912SOL    HW145328   6.682   3.782   6.940  0.8722 -0.2835 -1.3230
13912SOL    HW245329   6.735   3.641   6.943  0.6558 -0.3560 -0.4634
13913SOL     OW45330   6.447   3.776   4.777 -0.0302  0.0614 -0.0027
13913SOL    HW145331   6.442   3.717   4.852  1.3439 -0.1915 -0.0880
13913SOL    HW245332   6.502   3.730   4.713  0.8327  1.2972 -0.1840
13914SOL     OW45333   8.507   7.738   0.143  0.2855  0.4670 -0.1524
13914SOL    HW145334   8.524   7.731   0.049 -1.5113 -0.5601 -0.4522
13914SOL    HW245335   8.460   7.820   0.153 -1.7328 -0.5752 -0.5752
13915SOL     OW45336   1.320   8.397   1.293 -0.4214  0.3137 -0.4561
13915SOL    HW145337   1.324   8.397   1.389 -1.6078  1.2243 -0.3873
13915SOL    HW245338   1.262   8.469   1.272  0.9423  1.0271 -1.9377
13916SOL     OW45339   8.398   0.299   7.795  0.2686  0.6179 -0.2241
13916SOL    HW145340   8.439   0.385   7.786  1.3393  0.2014  0.4821
13916SOL    HW245341   8.469   0.241   7.823 -0.4795 -0.4570 -0.4863
13917SOL     OW45342   9.263   1.790   5.434 -0.6666 -0.5400 -0.1651
13917SOL    HW145343   9.248   1.881   5.411 -0.1588 -0.5372 -0.4996
13917SOL    HW245344   9.176   1.755   5.455 -1.0034 -0.2581 -1.0446
13918SOL     OW45345   8.618  10.580   1.862 -0.2980  0.1896  0.0319
13918SOL    HW145346   8.534  10.619   1.835 -0.1232  0.6287  0.1162
13918SOL    HW245347   8.655  10.644   1.923  0.5753  0.5032 -0.8027
13919SOL     OW45348   2.177   5.071   0.764  0.3062  0.1572  0.1217
13919SOL    HW145349   2.162   5.132   0.693  2.3410  2.2799  1.3652
13919SOL    HW245350   2.124   5.104   0.836  0.3781 -0.3432  0.4075
13920SOL     OW45351   4.326   3.610   8.192 -0.3444  0.5465  0.4365
13920SOL    HW145352   4.370   3.584   8.273  3.0433  0.7074 -1.1834
13920SOL    HW245353   4.354   3.700   8.177 -2.0683  1.0133 -0.2577
13921SOL     OW45354   3.848   7.412   7.441 -0.4783 -0.6298 -0.0560
13921SOL    HW145355   3.859   7.369   7.526 -0.1395  1.2160  0.8894
13921SOL    HW245356   3.813   7.498   7.462 -0.6078 -0.2086 -1.8205
13922SOL     OW45357   3.301   8.500   7.535 -0.0880  0.4176 -0.4263
13922SOL    HW145358   3.215   8.480   7.571  0.0930  2.6799  1.5792
13922SOL    HW245359   3.355   8.425   7.558 -1.4114 -0.9121 -1.4773
13923SOL     OW45360  10.123   4.424  11.030 -0.2217  0.4702 -0.4284
13923SOL    HW145361  10.104   4.429  11.123  0.0691 -0.5919 -0.3015
13923SOL    HW245362  10.053   4.474  10.988 -1.3769 -0.5580  0.2388
13924SOL     OW45363   5.734   0.931   6.730  0.0259  0.2552  0.1236
13924SOL    HW145364   5.804   0.996   6.731 -0.3723  0.6876  0.2263
13924SOL    HW245365   5.685   0.950   6.650 -1.9612  2.1132  1.6726
13925SOL     OW45366   0.403   9.495   5.089  0.1808 -0.2873 -0.4040
13925SOL    HW145367   0.429   9.420   5.035  1.2429 -0.8434  0.8115
13925SOL    HW245368   0.468   9.498   5.159  0.2004  1.8205 -0.4328
13926SOL     OW45369   5.143   2.877   5.555 -0.3482 -0.0485  0.3230
13926SOL    HW145370   5.211   2.938   5.527 -0.8672  1.2974  1.8617
13926SOL    HW245371   5.189   2.795   5.574  0.7083  0.5719  0.4734
13927SOL     OW45372   9.130   3.901  10.515  0.4632  0.0035 -0.9125
13927SOL    HW145373   9.065   3.851  10.564 -0.4841  1.9151 -0.1195
13927SOL    HW245374   9.200   3.838  10.498 -0.7725 -1.6496 -0.2313
13928SOL     OW45375  10.816   6.263   2.759 -0.2141 -0.1067  1.2485
13928SOL    HW145376  10.910   6.253   2.746 -0.1784  0.1038  1.3412
13928SOL    HW245377  10.800   6.219   2.843 -0.1068  0.3301  1.5033
13929SOL     OW45378   6.841   8.399   3.177 -0.3879  0.0037  0.1685
13929SOL    HW145379   6.825   8.348   3.256 -0.3357  2.1667  1.6628
13929SOL    HW245380   6.905   8.465   3.204 -0.5362  0.9389 -1.6246
13930SOL     OW45381   8.433   0.509   9.220  0.1657  0.1812  0.3401
13930SOL    HW145382   8.504   0.568   9.194 -1.0809  1.1049 -1.1576
13930SOL    HW245383   8.477   0.427   9.243  1.8108  1.1424  0.8198
13931SOL     OW45384   1.259   8.161   2.000  0.5523 -1.0478  0.2433
13931SOL    HW145385   1.224   8.135   1.914 -0.7963 -0.8902  0.7309
13931SOL    HW245386   1.323   8.230   1.979 -0.6929 -0.0847 -0.5697
13932SOL     OW45387   0.527   5.877   9.119 -0.3247 -0.1694 -0.1684
13932SOL    HW145388   0.620   5.870   9.141  0.1431  0.6733 -1.7551
13932SOL    HW245389   0.488   5.922   9.194  0.3825 -1.1811  0.8410
13933SOL     OW45390   1.101   6.514   6.145  0.0618 -0.8733 -0.1890
13933SOL    HW145391   1.194   6.501   6.125  1.1127  0.0803  3.3395
13933SOL    HW245392   1.059   6.432   6.119  2.4932 -2.6169  0.9910
13934SOL     OW45393   1.820  10.115   6.417 -0.1183 -0.5093 -0.1252
13934SOL    HW145394   1.753  10.131   6.484 -1.2115  0.8091 -1.4693
13934SOL    HW245395   1.798  10.176   6.347  3.0560  0.7003 -0.2297
13935SOL     OW45396   5.639   2.647   3.195 -1.0023  0.3566 -0.5628
13935SOL    HW145397   5.614   2.601   3.115  0.8850 -0.3246 -0.7943
13935SOL    HW245398   5.631   2.740   3.172  2.2766  0.2857 -2.5958
13936SOL     OW45399   3.294   2.238   1.026 -0.2322 -0.3782  0.1351
13936SOL    HW145400   3.215   2.225   0.973 -1.3722 -0.0221  1.6743
13936SOL    HW245401   3.363   2.193   0.977 -1.3050 -0.4580 -1.4040
13937SOL     OW45402   0.716   1.887   7.615 -0.2598  0.4555  0.1138
13937SOL    HW145403   0.720   1.854   7.705  2.0918  4.1180  1.5594
13937SOL    HW245404   0.678   1.975   7.623 -1.5197  0.2980 -2.7568
13938SOL     OW45405   9.515  10.530   9.130  0.2673  0.8047 -0.1767
13938SOL    HW145406   9.512  10.575   9.046 -0.4301  1.7496  0.3317
13938SOL    HW245407   9.576  10.582   9.183  0.9454  0.0371 -0.1943
13939SOL     OW45408   1.766   9.865  11.000  0.7071  0.9024 -0.2273
13939SOL    HW145409   1.791   9.926  11.069 -3.0181  2.2677  0.1319
13939SOL    HW245410   1.746   9.783  11.046  4.2269 -0.3465 -0.5584
13940SOL     OW45411   6.130   4.675   9.771 -0.6866 -0.2405  0.4158
13940SOL    HW145412   6.155   4.587   9.800 -0.2667 -0.3668 -0.3110
13940SOL    HW245413   6.082   4.661   9.689  2.1650  0.3572 -1.4951
13941SOL     OW45414  10.492   3.864   0.766 -0.0594  0.1973 -0.1674
13941SOL    HW145415  10.403   3.832   0.751 -0.2616  0.0115  1.2668
13941SOL    HW245416  10.497   3.946   0.716 -0.4410 -0.6552 -1.6624
13942SOL     OW45417   6.420   5.823   7.674 -0.1290  0.0451 -0.1865
13942SOL    HW145418   6.515   5.813   7.668 -0.1911  0.0549 -1.3649
13942SOL    HW245419   6.385   5.760   7.612 -1.0303 -1.9321  2.1909
13943SOL     OW45420   8.162  10.847   3.544 -0.3588  0.6145  0.1321
13943SOL    HW145421   8.138  10.867   3.453 -2.7158 -0.3413  0.4661
13943SOL    HW245422   8.122  10.917   3.595  2.0798  1.8938  0.4122
13944SOL     OW45423  10.375   9.876   8.760 -0.4057  0.1278  0.3127
13944SOL    HW145424  10.380   9.845   8.669  0.4928  1.6265 -0.2058
13944SOL    HW245425  10.290   9.846   8.791 -0.8318 -0.2392 -1.1017
13945SOL     OW45426   1.194   6.417  10.014  0.3230 -0.2640 -0.2364
13945SOL    HW145427   1.117   6.361  10.001 -0.7145  0.6477  1.6008
13945SOL    HW245428   1.188   6.445  10.106  3.0578 -0.4540  0.0868
13946SOL     OW45429   9.858   7.866   9.259 -0.0126  0.3839 -0.2440
13946SOL    HW145430   9.904   7.932   9.207 -1.3208  0.2188 -1.6813
13946SOL    HW245431   9.825   7.913   9.335 -0.4756  1.2756 -0.9783
13947SOL     OW45432   6.821   7.733   0.341  0.2934  0.0051  0.2733
13947SOL    HW145433   6.826   7.710   0.248 -0.7606  0.8928 -0.0329
13947SOL    HW245434   6.892   7.683   0.382 -0.6269 -2.1864 -0.6315
13948SOL     OW45435  10.039   3.159   0.116  0.1784 -0.3056 -0.8126
13948SOL    HW145436   9.975   3.228   0.135  1.1959  0.2020  1.0046
13948SOL    HW245437  10.077   3.138   0.201  1.7149 -1.3194 -1.7072
13949SOL     OW45438  10.170   5.048  10.411  0.0864 -0.2352  0.3224
13949SOL    HW145439  10.120   5.033  10.330 -0.9178  0.0607  0.8687
13949SOL    HW245440  10.244   4.987  10.405  0.5839  0.4795 -1.2669
13950SOL     OW45441   0.451   7.471   0.379  0.7948 -0.2282  0.4821
13950SOL    HW145442   0.380   7.528   0.407  0.5993 -0.1480 -0.1505
13950SOL    HW245443   0.525   7.494   0.436  0.8138  0.8799  0.0489
13951SOL     OW45444   8.181   5.791   0.342  0.2269  0.2116 -0.2326
13951SOL    HW145445   8.125   5.717   0.366 -0.9445  1.4304  0.9893
13951SOL    HW245446   8.194   5.782   0.248 -2.1114 -0.0870 -0.5834
13952SOL     OW45447  10.826   5.361   3.708 -0.0717  0.3611 -0.5313
13952SOL    HW145448  10.852   5.270   3.689 -1.1295 -0.2932  0.9465
13952SOL    HW245449  10.872   5.382   3.789 -0.3776  0.9014 -0.4940
13953SOL     OW45450   7.918   2.584   0.110 -0.1190 -0.1635 -0.7915
13953SOL    HW145451   7.863   2.593   0.188  1.3804  1.0641  0.1641
13953SOL    HW245452   7.859   2.605   0.037 -1.0833  0.4551  0.1377
13954SOL     OW45453   4.590   0.577   3.163  0.5154  0.0064  0.4482
13954SOL    HW145454   4.627   0.530   3.238  1.1753 -2.7623 -1.4555
13954SOL    HW245455   4.658   0.639   3.138  1.1530 -0.4895  0.9225
13955SOL     OW45456   0.279   0.635   4.153  0.1975 -0.4910  0.2861
13955SOL    HW145457   0.217   0.615   4.082  1.0377  0.6688 -0.8221
13955SOL    HW245458   0.354   0.577   4.136 -0.2911 -1.4349  1.2511
13956SOL     OW45459   9.922  10.153   2.445 -0.0896 -0.6870  0.2418
13956SOL    HW145460   9.982  10.225   2.426 -1.2798  0.5189  0.8660
13956SOL    HW245461   9.976  10.088   2.489  1.5188 -1.2055 -2.2636
13957SOL     OW45462   6.524   4.316   7.933 -0.4772 -0.0943 -0.3456
13957SOL    HW145463   6.566   4.377   7.993 -0.1785 -1.4741  0.8849
13957SOL    HW245464   6.579   4.318   7.854  0.4200  0.0562  0.2731
13958SOL     OW45465   7.585   6.706   6.648 -0.2450 -0.0106  0.3943
13958SOL    HW145466   7.580   6.624   6.698  1.4283 -1.0473 -1.0017
13958SOL    HW245467   7.664   6.696   6.595 -0.1321  2.4345 -0.0053
13959SOL     OW45468   4.354   7.036   9.614 -0.7602 -0.6946  0.5554
13959SOL    HW145469   4.397   6.969   9.669  0.5388  1.2007  1.9732
13959SOL    HW245470   4.403   7.033   9.532 -1.1884 -1.9385  0.3109
13960SOL     OW45471   2.233   9.530   8.514  0.1750 -0.1567 -0.6901
13960SOL    HW145472   2.156   9.494   8.470 -2.0235  3.5012 -0.2612
13960SOL    HW245473   2.273   9.586   8.447 -0.1054  1.3028  0.3254
13961SOL     OW45474  11.050   9.106   9.331 -0.2304 -0.0460 -0.1561
13961SOL    HW145475  11.047   9.202   9.335 -1.0054 -0.0291 -0.8645
13961SOL    HW245476  11.063   9.087   9.238 -1.1008 -0.6426 -0.1697
13962SOL     OW45477   1.431   0.691   9.965  0.2329  0.2474  0.1790
13962SOL    HW145478   1.420   0.598   9.980  1.3103 -0.1638 -1.2849
13962SOL    HW245479   1.504   0.716  10.021  0.1048  0.1566  0.3862
13963SOL     OW45480   4.341   2.266   5.109  0.3059  0.7077  0.3538
13963SOL    HW145481   4.392   2.291   5.186  1.3083 -0.1136 -0.0152
13963SOL    HW245482   4.356   2.335   5.046  2.5020 -0.3833 -0.4168
13964SOL     OW45483   9.940   5.731   8.919  0.1017 -0.0213 -0.0579
13964SOL    HW145484   9.963   5.654   8.971 -0.5057  0.1323  0.4523
13964SOL    HW245485  10.023   5.761   8.882  0.3971 -0.6887  0.0570
13965SOL     OW45486   6.580  10.427   6.937 -0.6065  0.1968  0.4178
13965SOL    HW145487   6.601  10.500   6.995 -1.1417  2.3565 -1.9379
13965SOL    HW245488   6.665  10.392   6.910 -0.3397  0.1440  1.2926
13966SOL     OW45489  11.093   5.149   0.192 -0.7517 -0.2300 -0.2128
13966SOL    HW145490  11.007   5.191   0.204 -0.2873  0.8052 -0.4361
13966SOL    HW245491  11.156   5.221   0.199  0.0423 -0.8387 -0.9763
13967SOL     OW45492   8.351  10.842   9.288  0.1185  0.3187  0.4819
13967SOL    HW145493   8.412  10.769   9.271  0.2706  0.3931  0.6978
13967SOL    HW245494   8.362  10.900   9.213  0.2547  0.2897  0.4784
13968SOL     OW45495   4.474   0.353   0.539 -0.1771  0.8319  0.1241
13968SOL    HW145496   4.531   0.427   0.561  0.8356  0.3182 -0.6797
13968SOL    HW245497   4.487   0.340   0.445 -0.5278 -0.2079  0.2076
13969SOL     OW45498   8.625   8.744   5.740 -1.1351 -0.4257  0.0443
13969SOL    HW145499   8.711   8.704   5.753 -0.3928  0.5602 -1.4361
13969SOL    HW245500   8.597   8.769   5.827  0.7072  0.4083  0.4643
13970SOL     OW45501   0.728   7.727   2.174  0.0499  0.4876 -0.1411
13970SOL    HW145502   0.731   7.769   2.259  1.3025  0.6314 -0.2246
13970SOL    HW245503   0.696   7.794   2.114  1.9395  1.3667 -0.2579
13971SOL     OW45504   2.515   1.707   0.874  0.4956 -0.1253  0.3085
13971SOL    HW145505   2.549   1.654   0.802  2.7552 -0.8217  1.7797
13971SOL    HW245506   2.492   1.791   0.833  0.9409 -0.7627 -1.3419
13972SOL     OW45507   2.274   0.841   3.557  0.4339  0.2905 -0.0131
13972SOL    HW145508   2.212   0.805   3.493 -1.1515 -1.1840  2.1743
13972SOL    HW245509   2.265   0.936   3.548 -0.7358  0.1145 -1.0647
13973SOL     OW45510   8.923   5.857   7.064  0.4401 -0.3545  0.4920
13973SOL    HW145511   8.906   5.804   6.986  0.7503  3.0664 -2.1475
13973SOL    HW245512   8.840   5.903   7.080  1.1103  0.9263  0.4637
13974SOL     OW45513   8.875   0.285   2.194 -0.4213  0.2809  0.2462
13974SOL    HW145514   8.793   0.240   2.212 -0.8596  0.4912 -1.1112
13974SOL    HW245515   8.854   0.349   2.126  1.1516 -0.7716 -1.3391
13975SOL     OW45516   0.041   3.575   8.853 -0.6688 -0.1725  0.4769
13975SOL    HW145517   0.128   3.612   8.837 -0.1302 -1.3108  0.6560
13975SOL    HW245518  -0.011   3.601   8.777  0.5027 -1.4709 -0.8021
13976SOL     OW45519   0.606   0.657   9.942  0.7003  0.0691 -0.6452
13976SOL    HW145520   0.551   0.640  10.018  1.1129  1.6625  0.0568
13976SOL    HW245521   0.624   0.570   9.905  0.4770 -0.7397  1.0590
13977SOL     OW45522   1.443   3.531  10.848  0.1510 -0.0627 -0.1938
13977SOL    HW145523   1.347   3.533  10.844  0.0900 -0.2261  0.9783
13977SOL    HW245524   1.470   3.618  10.818 -0.3384 -0.1045 -0.7866
13978SOL     OW45525   4.304   3.222   1.640 -0.1857  0.3916 -0.5259
13978SOL    HW145526   4.380   3.253   1.590 -1.0125  1.7044 -1.0247
13978SOL    HW245527   4.231   3.227   1.578 -1.1826  1.7743  0.7028
13979SOL     OW45528   6.147   3.995   4.202  0.2875  0.2993 -0.2145
13979SOL    HW145529   6.201   3.958   4.271  1.6961  0.5896 -1.1267
13979SOL    HW245530   6.068   3.940   4.201  1.1907 -1.0494  0.1733
13980SOL     OW45531   7.772   0.814  10.598 -0.5373 -0.1799  0.8609
13980SOL    HW145532   7.682   0.841  10.617  0.7742  4.1712  1.9612
13980SOL    HW245533   7.795   0.756  10.671 -1.8135  0.4107  1.7736
13981SOL     OW45534   1.413   7.904   6.378  0.4243 -0.3047 -0.4779
13981SOL    HW145535   1.495   7.953   6.369  0.9670 -1.0518  0.2164
13981SOL    HW245536   1.344   7.971   6.372  1.1004  0.3915 -0.6231
13982SOL     OW45537   6.091   0.914  10.824  0.1084 -0.3625  0.0976
13982SOL    HW145538   6.056   0.834  10.864 -1.6365  0.0852 -0.4418
13982SOL    HW245539   6.155   0.947  10.887 -0.5583 -1.1464  1.2194
13983SOL     OW45540   2.712   0.079   2.446  0.0611  0.1749 -0.3056
13983SOL    HW145541   2.636   0.024   2.464  1.0171 -1.3464 -0.7413
13983SOL    HW245542   2.741   0.108   2.533  0.1964 -0.9275  0.0275
13984SOL     OW45543   3.710   3.047   1.251 -0.0392  0.6775 -0.6475
13984SOL    HW145544   3.791   2.998   1.241 -0.0175  0.7430 -0.7936
13984SOL    HW245545   3.683   3.069   1.162 -0.6022  0.0261 -0.6451
13985SOL     OW45546   1.516   3.137   0.426  0.1351  0.0997 -0.0418
13985SOL    HW145547   1.461   3.058   0.434  1.0069 -0.6178 -0.8841
13985SOL    HW245548   1.538   3.141   0.333  0.9244  0.7731  0.1681
13986SOL     OW45549   6.293   4.283   0.469 -0.1560 -0.0194  0.2808
13986SOL    HW145550   6.372   4.264   0.418  0.4428  0.4174  1.0440
13986SOL    HW245551   6.266   4.198   0.504 -0.4120 -0.2774 -0.5129
13987SOL     OW45552   2.376   2.715   4.326 -0.0904 -0.4952  0.1350
13987SOL    HW145553   2.343   2.772   4.395 -0.4769  0.5221 -0.8558
13987SOL    HW245554   2.428   2.774   4.270  1.9553 -1.6921  0.6728
13988SOL     OW45555   1.788   2.612   5.374  0.7087  0.0575  0.2787
13988SOL    HW145556   1.817   2.685   5.320 -0.6932 -0.3426 -1.0724
13988SOL    HW245557   1.841   2.538   5.344  0.1015 -0.1103 -0.3956
13989SOL     OW45558   1.655   7.504   1.500 -0.0410  0.3027  0.2765
13989SOL    HW145559   1.622   7.441   1.563  0.1059  0.5257  0.5785
13989SOL    HW245560   1.742   7.527   1.532 -0.2086  0.8743  0.3247
13990SOL     OW45561   0.521   0.876   8.363  0.6319 -0.8447  0.5731
13990SOL    HW145562   0.576   0.798   8.360 -2.2518 -2.9823 -1.1581
13990SOL    HW245563   0.500   0.888   8.456 -0.3416 -3.2943  0.7253
13991SOL     OW45564   9.774   1.603   6.660  0.9368  0.2420  0.3063
13991SOL    HW145565   9.755   1.566   6.574 -1.9186 -0.4332  1.1073
13991SOL    HW245566   9.780   1.697   6.646 -3.7626  0.6738 -0.1968
13992SOL     OW45567   9.989   4.996   9.402 -0.5997 -0.0977 -0.5038
13992SOL    HW145568   9.999   5.081   9.360  2.2390  1.1067  2.2182
13992SOL    HW245569   9.972   5.016   9.494  0.1124 -2.4643  0.2140
13993SOL     OW45570  10.281   3.719   7.297  0.3993 -0.2712 -0.2101
13993SOL    HW145571  10.198   3.672   7.305  0.9062 -1.0423  0.6957
13993SOL    HW245572  10.315   3.725   7.386  0.5815  1.4308 -0.3573
13994SOL     OW45573  10.124   2.638   5.975 -0.0156 -1.0097 -0.2640
13994SOL    HW145574  10.130   2.609   5.884 -0.1426 -0.4889 -0.4385
13994SOL    HW245575  10.062   2.578   6.016 -2.0344  0.3699 -1.1690
13995SOL     OW45576   6.557   6.059   5.542  0.6954 -0.3151 -0.1535
13995SOL    HW145577   6.597   6.145   5.526  2.4273 -1.2824 -1.5130
13995SOL    HW245578   6.632   5.998   5.542 -0.5144 -1.8654  0.4119
13996SOL     OW45579   8.603   3.476   0.382 -0.4969 -0.4399 -0.7052
13996SOL    HW145580   8.568   3.387   0.387  0.4315 -0.7600  0.8188
13996SOL    HW245581   8.538   3.530   0.427 -1.0724 -0.3255 -1.6522
13997SOL     OW45582   4.538   2.412   5.805 -0.6175 -0.1595 -0.4194
13997SOL    HW145583   4.494   2.389   5.887  1.6492 -1.0338  0.6365
13997SOL    HW245584   4.620   2.453   5.832 -0.2292  0.4173 -2.2897
13998SOL     OW45585   7.107   7.579   3.326  0.0406  0.3574 -0.1179
13998SOL    HW145586   7.054   7.509   3.288  0.6410  0.2348 -0.7324
13998SOL    HW245587   7.169   7.603   3.258  2.0307 -0.7814  1.2031
13999SOL     OW45588   6.915   0.405   9.315  0.4308  0.5454  0.2250
13999SOL    HW145589   6.973   0.338   9.351  1.0194 -0.4476 -2.3403
13999SOL    HW245590   6.966   0.445   9.244 -1.4103  0.7634 -1.0487
14000SOL     OW45591   6.063   5.460   1.588  0.4745  0.4817  0.4181
14000SOL    HW145592   6.021   5.499   1.665  0.4695  1.3465 -0.0086
14000SOL    HW245593   6.081   5.535   1.531  0.7311 -0.1218 -0.2976
14001SOL     OW45594   1.362   4.000   3.816 -0.6065 -0.2947  0.3931
14001SOL    HW145595   1.359   4.060   3.741 -0.2446 -2.0017 -1.0671
14001SOL    HW245596   1.454   4.000   3.843 -0.9312  1.1981  1.6513
14002SOL     OW45597   0.799   6.739   4.921  0.4311  0.0806 -0.3099
14002SOL    HW145598   0.881   6.786   4.907  1.6290 -0.4103  3.7539
14002SOL    HW245599   0.760   6.732   4.834  2.8215  3.6709 -1.9164
14003SOL     OW45600   7.044   2.643  10.972 -0.7609  0.1650  0.0099
14003SOL    HW145601   7.086   2.726  10.995  0.2693 -0.5549  0.7907
14003SOL    HW245602   7.116   2.584  10.951 -1.5163 -0.3337 -1.3013
14004SOL     OW45603   0.438   1.122   3.776 -0.6163 -0.1826  0.2543
14004SOL    HW145604   0.382   1.045   3.789 -0.7000 -0.3409 -0.9041
14004SOL    HW245605   0.418   1.151   3.687 -1.1181  1.6423  0.9324
14005SOL     OW45606   0.192   1.945   8.447  0.3272  0.4080  0.0347
14005SOL    HW145607   0.218   2.007   8.515  1.4067  1.1401 -1.0090
14005SOL    HW245608   0.274   1.917   8.407 -0.1255 -1.7805  0.5118
14006SOL     OW45609   5.949   2.210   1.746 -0.1150 -0.0034  0.5488
14006SOL    HW145610   5.988   2.283   1.794 -0.3612  0.2801  0.3225
14006SOL    HW245611   6.023   2.152   1.727  0.1667  0.4282  0.3021
14007SOL     OW45612   1.519   0.591   8.786  0.1701 -0.0716  0.9525
14007SOL    HW145613   1.568   0.646   8.724 -0.0020 -1.3118 -0.3365
14007SOL    HW245614   1.553   0.616   8.872 -0.3570  2.4813  0.4982
14008SOL     OW45615   0.943   7.587   8.731 -0.7555  0.4096  0.5629
14008SOL    HW145616   0.907   7.499   8.744  0.0327 -0.0564 -0.3376
14008SOL    HW245617   0.899   7.640   8.797  0.3565 -1.0890  2.6421
14009SOL     OW45618   3.936   0.519   2.924 -0.3029  0.2360  0.2324
14009SOL    HW145619   3.898   0.456   2.986 -1.1418  1.0136  0.5309
14009SOL    HW245620   3.861   0.564   2.886  0.2104 -0.0717 -1.2155
14010SOL     OW45621   7.259  10.320   6.993  0.4650 -0.7289  0.5119
14010SOL    HW145622   7.295  10.245   7.041  0.0987 -1.0708  0.2582
14010SOL    HW245623   7.312  10.326   6.914 -0.6844 -1.9264 -0.4141
14011SOL     OW45624   9.953   6.331   0.900  0.1023  0.0419  0.1832
14011SOL    HW145625  10.022   6.356   0.963  1.3497 -1.7084 -0.4015
14011SOL    HW245626   9.893   6.277   0.951  0.4403 -0.3639  0.1492
14012SOL     OW45627   4.509   2.939   2.875 -0.5918 -0.1338 -0.1303
14012SOL    HW145628   4.552   2.980   2.950 -0.4217  0.3961 -0.5147
14012SOL    HW245629   4.571   2.948   2.803 -0.7605 -0.6289 -0.3470
14013SOL     OW45630   4.955   4.144  10.748  0.8226 -0.3663 -0.1316
14013SOL    HW145631   4.868   4.104  10.734  0.7076  0.0527 -0.6562
14013SOL    HW245632   4.938   4.220  10.803  0.8431 -0.2137 -0.3375
14014SOL     OW45633   2.559   6.142   2.412 -0.1426  0.4803 -0.3096
14014SOL    HW145634   2.619   6.105   2.478  1.8430  0.5132 -2.0016
14014SOL    HW245635   2.612   6.150   2.333 -1.4860  3.5822 -1.0448
14015SOL     OW45636   4.761   3.086   9.005  0.6971  0.4266 -0.1477
14015SOL    HW145637   4.718   3.135   8.934 -0.9520  0.1138  0.5840
14015SOL    HW245638   4.729   3.128   9.085 -1.5236 -2.3047  0.5521
14016SOL     OW45639   6.909   6.962   6.063  0.0832 -0.6638 -0.2431
14016SOL    HW145640   6.815   6.947   6.057 -0.1626  1.0384 -1.4352
14016SOL    HW245641   6.945   6.929   5.981  0.2622  0.2146 -0.5360
14017SOL     OW45642   2.790   5.526   1.579 -0.3181  0.1347 -0.3762
14017SOL    HW145643   2.742   5.608   1.576 -0.2972  0.1166 -1.5586
14017SOL    HW245644   2.723   5.458   1.579 -0.3193  0.1358 -0.3056
14018SOL     OW45645   7.108   7.634   6.699  0.2561  0.7097 -0.6546
14018SOL    HW145646   7.144   7.654   6.785 -2.2279 -3.0774  1.5855
14018SOL    HW245647   7.054   7.710   6.677  0.6995  1.6367  1.2603
14019SOL     OW45648  10.482   6.392   3.178 -0.0777 -0.5956 -0.3342
14019SOL    HW145649  10.417   6.366   3.243 -0.8903  1.2607 -0.3270
14019SOL    HW245650  10.565   6.357   3.211 -0.6459 -0.6064  1.1545
14020SOL     OW45651   5.764   6.181   8.383 -0.6350  0.2954  0.6313
14020SOL    HW145652   5.792   6.108   8.437 -0.9961  0.2882  0.8064
14020SOL    HW245653   5.670   6.170   8.373 -0.5863  0.3467  0.0753
14021SOL     OW45654   9.152   3.565   5.750 -0.0686  0.4842  0.0353
14021SOL    HW145655   9.173   3.506   5.821 -0.6622 -0.7499 -0.7699
14021SOL    HW245656   9.115   3.643   5.793 -0.9830 -0.4736  1.0595
14022SOL     OW45657   5.273   7.477   3.323 -0.5754 -0.3548 -0.0126
14022SOL    HW145658   5.248   7.384   3.320 -1.8701  0.0026 -1.0005
14022SOL    HW245659   5.291   7.494   3.415  0.1831 -1.7106  0.1228
14023SOL     OW45660  10.943   0.933  10.726 -0.0574 -0.5215 -0.3283
14023SOL    HW145661  10.997   1.006  10.696  0.7323 -0.8816  0.1931
14023SOL    HW245662  10.853   0.966  10.722  0.2469  0.2744 -0.6629
14024SOL     OW45663   8.075   3.081   9.784  0.5145  0.4393 -0.2209
14024SOL    HW145664   8.077   3.169   9.747 -0.3130  1.0385  1.0832
14024SOL    HW245665   8.161   3.069   9.824  1.2571 -0.0433 -1.8851
14025SOL     OW45666   9.312   5.188   8.143 -0.1831  0.8533 -0.3219
14025SOL    HW145667   9.395   5.194   8.190  1.6480 -1.4140 -2.9737
14025SOL    HW245668   9.306   5.271   8.095  0.1706  1.3245  0.4306
14026SOL     OW45669   2.975   4.785   1.409 -0.0324 -0.3465 -0.5827
14026SOL    HW145670   2.955   4.756   1.498  1.6497 -1.4714 -0.5185
14026SOL    HW245671   2.923   4.727   1.353  0.0323 -0.6168 -0.3650
14027SOL     OW45672  10.855   6.337  10.951 -0.2746  0.1501 -0.6498
14027SOL    HW145673  10.774   6.370  10.990 -0.3146 -0.3174 -0.3263
14027SOL    HW245674  10.834   6.248  10.924  0.4302 -0.3832  0.4404
14028SOL     OW45675   9.781   1.470   0.089 -0.0524  0.7007  0.5862
14028SOL    HW145676   9.780   1.553   0.137 -1.1995  1.0508 -0.0051
14028SOL    HW245677   9.716   1.416   0.134 -2.1426  1.5011 -1.3020
14029SOL     OW45678   3.961   8.352  10.785  0.5932 -0.3110  0.5165
14029SOL    HW145679   4.034   8.291  10.791 -0.6722 -1.8473  1.1375
14029SOL    HW245680   3.931   8.343  10.694  1.0625  0.1982  0.3072
14030SOL     OW45681   6.693   8.419   8.371 -0.0727 -0.4379 -0.0075
14030SOL    HW145682   6.685   8.324   8.365 -0.9794 -0.2910 -2.0044
14030SOL    HW245683   6.644   8.442   8.450 -0.1551 -1.6001  0.2942
14031SOL     OW45684  10.109   5.166   9.182  0.1671 -0.3806 -0.1802
14031SOL    HW145685  10.182   5.220   9.152 -1.3921 -0.0695 -3.8547
14031SOL    HW245686  10.113   5.088   9.128 -2.2468 -0.2975 -0.5889
14032SOL     OW45687   9.156   5.943   5.456 -0.5226 -0.5968  0.3322
14032SOL    HW145688   9.128   6.021   5.407  0.7247 -0.3990 -0.0926
14032SOL    HW245689   9.250   5.954   5.466 -0.5980 -1.1935  1.8326
14033SOL     OW45690   4.637   3.759   6.441  0.0244 -0.5987 -0.0914
14033SOL    HW145691   4.659   3.840   6.395 -0.0065 -1.7316 -2.2542
14033SOL    HW245692   4.613   3.698   6.371 -2.0888 -1.8515  1.6214
14034SOL     OW45693   4.868   2.553   6.085 -0.3889  0.1538  0.0189
14034SOL    HW145694   4.914   2.587   6.008  0.7759  1.9578  1.4314
14034SOL    HW245695   4.905   2.465   6.098  2.0901  1.1982  0.5636
14035SOL     OW45696   7.379   5.138   1.018 -0.0529  0.2170  0.4151
14035SOL    HW145697   7.297   5.110   1.059 -1.1931  1.8855 -0.6127
14035SOL    HW245698   7.363   5.228   0.990  1.4131 -0.0737 -1.6547
14036SOL     OW45699   5.661   2.962   6.070  0.1767  0.0868  0.7173
14036SOL    HW145700   5.732   2.926   6.122  0.7697 -0.5131 -0.4617
14036SOL    HW245701   5.698   3.042   6.031 -0.0789  0.2402  0.7877
14037SOL     OW45702   4.052   1.640   3.694  0.1752 -0.5525 -0.1564
14037SOL    HW145703   4.087   1.587   3.766 -2.6143 -2.4230 -0.0028
14037SOL    HW245704   4.021   1.720   3.737  2.2326  0.2153  0.0015
14038SOL     OW45705  10.438   7.501   6.108  0.3589  0.0220 -0.2378
14038SOL    HW145706  10.459   7.410   6.087  1.4749  0.3805 -0.7647
14038SOL    HW245707  10.449   7.506   6.203  1.2481 -0.1774 -0.3177
14039SOL     OW45708   5.933   4.162   2.811 -0.0927 -1.0703 -0.6262
14039SOL    HW145709   5.933   4.079   2.858  1.2788 -0.3803  0.7092
14039SOL    HW245710   5.900   4.225   2.874 -3.0217 -0.8345 -2.2516
14040SOL     OW45711   2.595   4.542  10.719 -0.7553 -0.1559  0.0380
14040SOL    HW145712   2.565   4.480  10.785 -0.9387 -2.8182 -2.3900
14040SOL    HW245713   2.516   4.587  10.690 -1.0570 -0.7884 -0.1288
14041SOL     OW45714   8.111   6.672   0.349  0.0814  0.4749 -0.0053
14041SOL    HW145715   8.177   6.657   0.416  0.8567 -1.3254 -1.0952
14041SOL    HW245716   8.119   6.597   0.290 -2.2046  0.7811 -0.7887
14042SOL     OW45717   8.319   6.582   2.611 -0.6326  0.2404 -0.0439
14042SOL    HW145718   8.347   6.641   2.541  0.0308 -0.4780 -0.3931
14042SOL    HW245719   8.301   6.640   2.685 -2.8987  1.1803 -1.2426
14043SOL     OW45720   2.637   0.328  10.351  0.0197 -0.4813  0.2528
14043SOL    HW145721   2.690   0.253  10.324 -0.6935 -0.2954 -1.9120
14043SOL    HW245722   2.592   0.299  10.430  0.2669 -2.0952 -0.1636
14044SOL     OW45723   0.303   0.363   7.943  0.0081 -0.2657 -0.0762
14044SOL    HW145724   0.382   0.389   7.895  0.1196 -3.2288 -1.7423
14044SOL    HW245725   0.232   0.410   7.899  0.5649  0.3816 -0.3027
14045SOL     OW45726   1.135   1.033   6.615  0.2542  0.5156 -0.5672
14045SOL    HW145727   1.171   1.017   6.528 -2.2562  2.1393 -2.0286
14045SOL    HW245728   1.089   0.952   6.637  0.8286  0.1280 -0.7621
14046SOL     OW45729   4.164   2.738   3.699 -0.2371 -0.5460  0.1364
14046SOL    HW145730   4.168   2.778   3.786  0.6009  0.0671 -0.1698
14046SOL    HW245731   4.186   2.809   3.639 -0.2207 -1.1082 -0.5359
14047SOL     OW45732   1.051   3.920   5.670 -0.1061 -0.3962 -0.2093
14047SOL    HW145733   1.132   3.933   5.719 -1.1171  1.4168  1.1437
14047SOL    HW245734   1.033   3.827   5.677  0.4787 -0.3983  1.8184
14048SOL     OW45735   6.999   6.014   8.307  0.2791  0.0655  0.3298
14048SOL    HW145736   7.067   5.992   8.371  0.1842  0.3227  0.5226
14048SOL    HW245737   6.917   5.993   8.351  0.1836  0.8704  0.5474
14049SOL     OW45738   6.641   9.434   0.816 -0.3386  0.5757 -0.8425
14049SOL    HW145739   6.570   9.371   0.802 -0.7168  0.7260  0.2919
14049SOL    HW245740   6.721   9.384   0.800 -0.6620  0.0700 -0.9023
14050SOL     OW45741   3.730   6.299  10.654 -0.8124  0.2046  0.4009
14050SOL    HW145742   3.749   6.225  10.596 -2.4933 -0.4258  0.5824
14050SOL    HW245743   3.724   6.260  10.741 -1.0693  0.6640  0.5901
14051SOL     OW45744   6.606   3.525   9.535 -0.1922  0.3552  0.3705
14051SOL    HW145745   6.638   3.549   9.622 -2.2479  1.6479  0.8551
14051SOL    HW245746   6.510   3.530   9.543 -0.4486 -0.1699 -1.7898
14052SOL     OW45747   3.051   9.775   2.830  0.3442 -0.4794 -0.9362
14052SOL    HW145748   3.025   9.683   2.829 -1.0201 -0.1112 -2.0278
14052SOL    HW245749   3.033   9.806   2.741 -0.7919  1.2728 -0.1409
14053SOL     OW45750   8.414   9.887  10.970 -0.1059  0.0909  0.2159
14053SOL    HW145751   8.420   9.969  10.921  1.8917  0.0956  0.3691
14053SOL    HW245752   8.332   9.894  11.019 -0.8992  1.1636 -1.2093
14054SOL     OW45753   0.196   5.220   1.584  0.1683  0.0132  0.3742
14054SOL    HW145754   0.252   5.196   1.511 -0.8856 -0.7921 -0.1935
14054SOL    HW245755   0.161   5.306   1.560 -1.0657 -0.7410 -0.6415
14055SOL     OW45756   6.088   3.255   6.724  0.5466  0.1532 -0.1361
14055SOL    HW145757   6.128   3.341   6.707  0.7605  0.2327  0.7219
14055SOL    HW245758   6.054   3.262   6.813 -1.5063  0.1192 -0.8578
14056SOL     OW45759   9.850  10.640   7.494  0.4436 -0.4523 -0.7333
14056SOL    HW145760   9.850  10.691   7.574  0.6039 -0.6342 -0.6170
14056SOL    HW245761   9.759  10.641   7.465  0.8421  2.1397 -2.1711
14057SOL     OW45762   0.446   1.046   4.110  0.8072 -0.1419  0.4073
14057SOL    HW145763   0.403   1.129   4.091 -1.0226 -0.8361  1.2067
14057SOL    HW245764   0.459   1.046   4.205  2.6481  0.0375  0.1939
14058SOL     OW45765   0.046   3.276   2.365  0.3527 -0.2741  0.1289
14058SOL    HW145766   0.044   3.351   2.425 -0.3510  0.6980 -1.0683
14058SOL    HW245767   0.137   3.270   2.338  0.0243  1.8099 -1.7213
14059SOL     OW45768   1.018   3.389   7.480 -0.0391 -0.1937  0.0180
14059SOL    HW145769   0.990   3.481   7.484  0.3866 -0.0940  1.0098
14059SOL    HW245770   1.106   3.393   7.444 -0.3947 -0.3155 -0.9052
14060SOL     OW45771   0.887   0.755   3.880  0.0111 -0.2423 -0.1905
14060SOL    HW145772   0.974   0.774   3.845  0.2762 -1.8861 -0.4987
14060SOL    HW245773   0.889   0.790   3.969  0.1823  1.7551 -0.9053
14061SOL     OW45774   3.464  10.859   8.258 -0.1927 -0.1332 -0.1811
14061SOL    HW145775   3.556  10.833   8.251  0.2672  1.6779 -1.2108
14061SOL    HW245776   3.436  10.875   8.168 -1.4825 -0.4918  0.1366
14062SOL     OW45777  10.189   5.051   8.503 -0.0624  0.1209 -0.5673
14062SOL    HW145778  10.242   5.025   8.578 -0.3429  1.7343  0.2319
14062SOL    HW245779  10.236   5.018   8.427  0.9710 -0.3016  0.2387
14063SOL     OW45780  10.509  10.838   0.145 -0.4730 -0.0343 -0.2560
14063SOL    HW145781  10.429  10.795   0.114  0.1061 -0.8276 -0.6857
14063SOL    HW245782  10.480  10.925   0.172 -1.7146 -0.7074  0.7520
14064SOL     OW45783   0.207   8.918   1.312  0.1151 -0.3629  0.6048
14064SOL    HW145784   0.261   8.847   1.279 -1.7628 -1.6776  0.1729
14064SOL    HW245785   0.150   8.941   1.239 -0.7870  0.0590  1.4132
14065SOL     OW45786   8.439   5.253  10.520 -0.2407 -0.6244  0.1638
14065SOL    HW145787   8.515   5.197  10.505  0.3587 -0.3052  1.8210
14065SOL    HW245788   8.476   5.337  10.548 -1.1954 -0.4034  0.8158
14066SOL     OW45789   1.506   5.548   9.522  0.0025  0.2184 -0.0876
14066SOL    HW145790   1.515   5.486   9.594 -2.1939 -1.4368 -1.1024
14066SOL    HW245791   1.469   5.496   9.450 -1.0945  2.5120 -1.3009
14067SOL     OW45792   8.369   1.099   9.554  0.0682 -0.0715 -0.0146
14067SOL    HW145793   8.423   1.120   9.630  0.9723 -0.4293 -0.5424
14067SOL    HW245794   8.423   1.041   9.501 -0.9288 -0.6208 -0.4586
14068SOL     OW45795   9.383   6.354   5.862  0.2223  0.2418  0.1644
14068SOL    HW145796   9.434   6.318   5.789  1.0418 -0.8632  1.2305
14068SOL    HW245797   9.430   6.433   5.887  0.7618 -0.1351  0.3767
14069SOL     OW45798   5.094   1.144   5.705 -0.3799 -0.0974  0.0407
14069SOL    HW145799   5.054   1.129   5.620 -2.5200 -1.3945  1.1996
14069SOL    HW245800   5.188   1.154   5.686 -0.6751 -1.2362 -2.3602
14070SOL     OW45801   5.198   5.287   5.404 -0.3536  0.0558  0.5531
14070SOL    HW145802   5.167   5.329   5.323  0.5601 -0.2440  0.0389
14070SOL    HW245803   5.123   5.292   5.463 -0.7769  0.9974 -0.0376
14071SOL     OW45804   7.356   3.320   6.356 -0.6740 -0.3580  0.2231
14071SOL    HW145805   7.441   3.286   6.383 -0.5186 -0.0108  0.1748
14071SOL    HW245806   7.310   3.244   6.320 -1.2431 -1.0702  2.2949
14072SOL     OW45807   6.566   9.324  10.593 -0.1702  0.5863  0.3878
14072SOL    HW145808   6.560   9.347  10.500 -1.4632  2.7211  0.9153
14072SOL    HW245809   6.601   9.403  10.634 -0.6895  0.0865  1.8369
14073SOL     OW45810   7.978   7.035   0.133  0.1953 -0.0976  0.4454
14073SOL    HW145811   8.042   6.971   0.165  0.2861 -0.4810 -0.4744
14073SOL    HW245812   7.910   6.982   0.092  1.6053  0.4185 -2.8150
14074SOL     OW45813   2.922   8.871   1.970 -0.2262  0.7992  0.0282
14074SOL    HW145814   2.950   8.942   1.912  1.4243  0.8176  0.7854
14074SOL    HW245815   2.827   8.873   1.966 -0.1809  1.1945 -2.1927
14075SOL     OW45816   3.465   7.320   2.731 -0.1011 -0.4032  0.0212
14075SOL    HW145817   3.498   7.300   2.644  0.8476 -0.4261  0.3799
14075SOL    HW245818   3.393   7.381   2.716 -1.0541 -1.6766 -0.8858
14076SOL     OW45819   1.828   3.899   4.156  0.6647 -0.0881  0.2300
14076SOL    HW145820   1.922   3.880   4.160  0.3763 -1.8912 -0.5820
14076SOL    HW245821   1.819   3.984   4.199  2.3634 -0.9181  2.4164
14077SOL     OW45822   0.359   3.692   4.578  0.2079  0.0286 -0.0636
14077SOL    HW145823   0.453   3.672   4.582  0.3683  0.9364  1.1624
14077SOL    HW245824   0.327   3.669   4.665 -0.3040  1.6491  0.1935
14078SOL     OW45825   7.783  10.313   2.960  0.1854  0.3916  0.1943
14078SOL    HW145826   7.851  10.353   3.014  0.4584  0.9034 -0.5168
14078SOL    HW245827   7.724  10.385   2.938  0.6124  0.4011 -0.9933
14079SOL     OW45828   2.969   7.838  10.304  0.0639  0.3127 -0.2035
14079SOL    HW145829   2.922   7.918  10.281  0.9803  0.7124 -0.7191
14079SOL    HW245830   3.027   7.822  10.231  0.1345 -0.6501  0.0492
14080SOL     OW45831   9.097   2.656   8.014 -0.2292  0.2706  0.2121
14080SOL    HW145832   9.128   2.566   8.022  4.9253  1.6799 -0.2312
14080SOL    HW245833   9.114   2.695   8.100  1.8463  1.7823 -0.8088
14081SOL     OW45834   7.313   0.843   2.066  0.6548  0.5094 -0.2345
14081SOL    HW145835   7.233   0.827   2.016  0.1467  0.3866  0.5921
14081SOL    HW245836   7.330   0.760   2.111  0.1897  1.0746  1.0417
14082SOL     OW45837   0.897   7.348   8.036 -0.1938 -0.3165 -0.3887
14082SOL    HW145838   0.874   7.343   7.944 -1.2410  0.9624 -0.2264
14082SOL    HW245839   0.989   7.375   8.036 -0.4121  0.4687 -1.0679
14083SOL     OW45840   0.102   1.398   0.150 -0.3039 -0.1464  0.3940
14083SOL    HW145841   0.057   1.345   0.084 -1.3755  0.1763  0.8508
14083SOL    HW245842   0.114   1.483   0.109  1.0169 -0.5816 -0.1753
14084SOL     OW45843   4.083   6.387   5.441  0.4303  0.2283 -0.2985
14084SOL    HW145844   4.107   6.411   5.352 -1.8474 -0.0116 -1.0310
14084SOL    HW245845   4.062   6.470   5.483 -2.9530  0.1139 -1.4523
14085SOL     OW45846   7.275   2.607   2.419  0.0800  0.1749  0.1065
14085SOL    HW145847   7.309   2.651   2.341  1.2786 -0.7149  0.0895
14085SOL    HW245848   7.339   2.626   2.488 -1.0141  1.0196  0.9116
14086SOL     OW45849   0.158   3.555   0.706 -0.2605  0.0209  1.2557
14086SOL    HW145850   0.193   3.643   0.712 -0.1129  0.0467  0.1716
14086SOL    HW245851   0.068   3.563   0.737 -0.3733  0.6298  0.7750
14087SOL     OW45852   6.041   4.130   9.704  0.2138  0.5136 -0.2796
14087SOL    HW145853   5.996   4.211   9.729 -0.9133 -0.4193  0.8819
14087SOL    HW245854   6.056   4.084   9.786  3.0652  0.5975 -0.6607
14088SOL     OW45855  11.036   0.314   9.319 -0.7645 -0.1229  0.4583
14088SOL    HW145856  11.074   0.232   9.290 -2.3381 -0.3070 -1.2623
14088SOL    HW245857  10.994   0.351   9.241 -1.6586  1.4103  1.5938
14089SOL     OW45858   1.299   0.790   4.336  0.1129 -0.5042  0.2664
14089SOL    HW145859   1.235   0.731   4.377  1.8740 -1.7765  1.3242
14089SOL    HW245860   1.284   0.779   4.242 -3.2350  1.6066  0.3826
14090SOL     OW45861   9.208  10.539   7.077  0.4246 -0.1899 -0.2032
14090SOL    HW145862   9.220  10.605   7.008  0.0768 -0.4097 -0.4820
14090SOL    HW245863   9.144  10.478   7.040  0.3116 -0.3678  0.2796
14091SOL     OW45864   5.890   2.017   9.245  0.3684 -0.0492 -0.1320
14091SOL    HW145865   5.984   2.034   9.249  0.1695  0.7577  1.7837
14091SOL    HW245866   5.883   1.933   9.199  1.8984  0.6156 -1.7131
14092SOL     OW45867   4.776   0.821   9.857  0.5095 -0.4098 -0.5589
14092SOL    HW145868   4.796   0.777   9.939 -0.6232  1.7228  0.9597
14092SOL    HW245869   4.860   0.825   9.811  1.4992 -0.3653  1.1575
14093SOL     OW45870  10.179  10.755   4.610 -0.3545  0.5721  0.3642
14093SOL    HW145871  10.257  10.735   4.558 -1.2704 -1.1930 -0.4338
14093SOL    HW245872  10.113  10.779   4.545 -1.0772 -0.1196  0.8146
14094SOL     OW45873   7.582   3.629   1.727 -0.1965  0.0718  0.1383
14094SOL    HW145874   7.537   3.546   1.712  0.5459  0.0045 -2.1560
14094SOL    HW245875   7.564   3.651   1.818 -1.2628 -2.0819  0.4949
14095SOL     OW45876   0.558   2.296   8.705  0.8091 -0.7538 -0.0446
14095SOL    HW145877   0.535   2.389   8.713  0.8815 -0.6506 -0.9465
14095SOL    HW245878   0.538   2.275   8.614 -1.8661 -2.3501  0.7984
14096SOL     OW45879   7.428   3.999   4.514  0.3440  0.1613  0.4534
14096SOL    HW145880   7.377   3.945   4.574  0.8427 -0.1226  0.6288
14096SOL    HW245881   7.437   3.945   4.435  2.6355 -0.9563  1.3619
14097SOL     OW45882   1.427   8.827   2.450  0.1981  0.1108  0.3677
14097SOL    HW145883   1.390   8.783   2.526  0.9280  0.9887  1.2625
14097SOL    HW245884   1.469   8.758   2.399  2.0122 -0.1882  2.1407
14098SOL     OW45885   7.360   6.870   1.078 -0.0818 -0.4305 -0.6188
14098SOL    HW145886   7.315   6.878   1.162  0.1122 -1.0734 -0.4509
14098SOL    HW245887   7.416   6.794   1.088  0.2469 -0.2672 -1.1961
14099SOL     OW45888   0.543   1.302   6.692  0.1219  0.1516 -0.3324
14099SOL    HW145889   0.543   1.231   6.629 -2.3130 -0.2077 -0.0404
14099SOL    HW245890   0.521   1.260   6.776 -2.8525  1.2806 -0.4018
14100SOL     OW45891   3.170   7.449  10.841  0.3679  0.3505 -0.6097
14100SOL    HW145892   3.116   7.444  10.762 -1.2747 -0.3040  0.5095
14100SOL    HW245893   3.139   7.527  10.886  1.8781  1.1975 -0.9854
14101SOL     OW45894   0.520  10.750   1.289 -0.2017  0.4360 -0.5351
14101SOL    HW145895   0.593  10.687   1.287 -0.2044  0.4338 -0.5915
14101SOL    HW245896   0.495  10.755   1.381  1.2014  1.9663 -0.1938
14102SOL     OW45897   0.285   0.189   7.057 -0.2274  0.4308 -0.6204
14102SOL    HW145898   0.328   0.130   7.119 -0.9139 -0.6024 -1.0971
14102SOL    HW245899   0.306   0.277   7.088  0.5321 -0.0646  0.3074
14103SOL     OW45900   1.278   3.319   6.819 -0.2453 -0.2766  0.2218
14103SOL    HW145901   1.303   3.293   6.908 -1.0164  3.1877  1.6177
14103SOL    HW245902   1.361   3.346   6.779 -0.1715  0.2009  0.6838
14104SOL     OW45903  10.459   7.238  10.105 -0.2867 -0.0844 -0.3615
14104SOL    HW145904  10.427   7.315  10.057  1.0225  0.8508  0.2080
14104SOL    HW245905  10.516   7.274  10.173 -1.1383 -1.4557  1.1497
14105SOL     OW45906   3.096   1.811   3.872 -0.2701 -0.6223 -0.1433
14105SOL    HW145907   3.138   1.830   3.788  0.1023 -2.2939 -0.3667
14105SOL    HW245908   3.096   1.895   3.918 -0.2994  0.2813 -1.7213
14106SOL     OW45909  10.300   6.098  10.913 -0.3341 -0.1091 -0.1217
14106SOL    HW145910  10.349   6.180  10.924 -1.1902  0.2896  1.0190
14106SOL    HW245911  10.210   6.127  10.896 -0.5942 -0.8087  0.0409
14107SOL     OW45912   5.875  10.680   0.201 -0.2763  0.0620  0.5869
14107SOL    HW145913   5.796  10.722   0.168 -1.2758 -1.3645  1.0256
14107SOL    HW245914   5.863  10.587   0.180  1.7209 -0.0733 -0.1579
14108SOL     OW45915   7.701   6.775   2.415 -0.2197 -0.1506 -0.0340
14108SOL    HW145916   7.704   6.726   2.497  0.8367 -1.6840 -0.9087
14108SOL    HW245917   7.753   6.853   2.431 -2.5034  1.1254  1.6118
14109SOL     OW45918   1.665   8.513   3.026  0.2152 -0.3510 -0.5534
14109SOL    HW145919   1.742   8.569   3.015  0.3174 -0.7469 -2.0717
14109SOL    HW245920   1.597   8.555   2.973  0.1039 -1.2760 -1.1836
14110SOL     OW45921  10.340  10.874   6.122 -0.0355  0.0229 -0.0255
14110SOL    HW145922  10.331  10.781   6.142  0.4182 -0.1254 -0.4919
14110SOL    HW245923  10.283  10.888   6.047 -0.3960  0.2077  0.2786
14111SOL     OW45924   9.551   8.371   5.041  0.7526 -0.3131  0.6207
14111SOL    HW145925   9.550   8.404   5.130 -2.1633 -0.7186  0.8645
14111SOL    HW245926   9.470   8.405   5.002  1.0661 -1.5681 -1.2873
14112SOL     OW45927   2.317   2.322  10.128  0.4022 -0.1178  0.5959
14112SOL    HW145928   2.272   2.406  10.121  2.0367  0.8664  1.2644
14112SOL    HW245929   2.306   2.282  10.042  2.5162  2.3598 -1.0054
14113SOL     OW45930   8.560   7.519   2.032  0.0742  0.2852  0.3687
14113SOL    HW145931   8.624   7.568   2.083  0.3495 -0.7095  1.0176
14113SOL    HW245932   8.605   7.500   1.949 -0.0675  1.1727  0.0753
14114SOL     OW45933   8.813   5.660   8.219  0.3390  0.1403 -0.1067
14114SOL    HW145934   8.790   5.589   8.279  0.1737  0.8349  0.6721
14114SOL    HW245935   8.852   5.615   8.144  0.8784 -0.7408  0.6636
14115SOL     OW45936   0.405   8.601   6.759 -0.4799 -0.3011 -0.4522
14115SOL    HW145937   0.418   8.531   6.695  1.8220  0.9415 -1.4650
14115SOL    HW245938   0.461   8.577   6.832  0.4181  0.4823 -0.8542
14116SOL     OW45939   4.278   5.866   2.500 -0.3013  0.1147 -0.2008
14116SOL    HW145940   4.213   5.919   2.548 -1.9744 -1.1944 -0.9251
14116SOL    HW245941   4.307   5.923   2.429 -0.8689  0.6425 -0.0214
14117SOL     OW45942   6.267   4.746   5.257  0.8503  0.0629  0.2087
14117SOL    HW145943   6.232   4.776   5.341 -0.0913 -1.9849  0.5912
14117SOL    HW245944   6.354   4.786   5.252  1.2413 -0.3896  2.5231
14118SOL     OW45945   0.339  10.242   6.150 -0.5865  0.0945  0.5335
14118SOL    HW145946   0.388  10.216   6.229  0.2153 -1.1689 -0.3427
14118SOL    HW245947   0.249  10.212   6.167 -0.0519 -1.7556  0.2847
14119SOL     OW45948   9.046   5.224   1.573  0.6509 -0.5915 -0.1709
14119SOL    HW145949   8.964   5.192   1.535  0.5480 -0.5602  0.0237
14119SOL    HW245950   9.026   5.237   1.666  0.6066  0.3219 -0.2997
14120SOL     OW45951   9.928   8.562   8.750 -0.1096  0.4191  0.2954
14120SOL    HW145952  10.008   8.523   8.714 -1.0389  0.2515 -1.7125
14120SOL    HW245953   9.915   8.518   8.833  0.1345 -1.9704 -0.8441
14121SOL     OW45954   7.549   1.381   0.834 -0.5769  0.3604  0.5454
14121SOL    HW145955   7.635   1.342   0.842 -0.6658  0.1014  0.2697
14121SOL    HW245956   7.560   1.471   0.865 -0.1904  0.3509  0.4383
14122SOL     OW45957   9.418   4.332  10.758 -0.1701 -0.3063  0.5469
14122SOL    HW145958   9.437   4.420  10.791  1.2149  0.4954 -2.0792
14122SOL    HW245959   9.401   4.280  10.836 -0.8955  2.2480  2.2025
14123SOL     OW45960  10.493   1.149  10.673  0.0926 -0.1512  0.4305
14123SOL    HW145961  10.511   1.155  10.579 -1.2340 -1.2317  0.0660
14123SOL    HW245962  10.402   1.119  10.677  0.3718 -0.8772  2.0482
14124SOL     OW45963   8.710   5.206  10.520 -0.2010 -0.7417  0.3333
14124SOL    HW145964   8.743   5.295  10.516  1.0843 -1.2085  0.0045
14124SOL    HW245965   8.747   5.170  10.600  1.3107 -1.7135 -0.7446
14125SOL     OW45966  10.298   5.196   1.076  0.1663 -0.4503 -0.1726
14125SOL    HW145967  10.269   5.141   1.149 -0.5366  0.8351  0.5676
14125SOL    HW245968  10.315   5.281   1.117 -1.8689  0.8073 -1.7499
14126SOL     OW45969   1.179   3.330   1.906 -0.6055  0.0358 -0.0165
14126SOL    HW145970   1.206   3.417   1.875 -0.2864 -0.4932 -1.2800
14126SOL    HW245971   1.097   3.313   1.860 -0.4068 -0.5373 -0.1621
14127SOL     OW45972   0.070   5.147  10.805 -0.2008 -0.3358 -0.0744
14127SOL    HW145973   0.145   5.138  10.747 -1.3794 -0.6940 -1.6308
14127SOL    HW245974   0.103   5.194  10.881  1.4838 -0.1209 -0.9016
14128SOL     OW45975   7.505   8.558   4.679  0.0519  0.4089  0.3238
14128SOL    HW145976   7.525   8.540   4.587  2.3462  0.0475  0.8178
14128SOL    HW245977   7.566   8.629   4.703  1.3800 -1.2469  2.1904
14129SOL     OW45978   8.128   1.116   6.218 -0.3993 -0.1469 -0.4027
14129SOL    HW145979   8.177   1.034   6.220  2.9186  1.6520 -0.4266
14129SOL    HW245980   8.119   1.135   6.124  1.3236  0.7909 -0.4127
14130SOL     OW45981  10.990   5.393   6.307 -0.5172  0.1019 -0.1023
14130SOL    HW145982  11.078   5.398   6.343  0.1282 -0.4044 -1.5466
14130SOL    HW245983  10.933   5.386   6.384  0.8801 -2.1745  0.8416
14131SOL     OW45984   6.337   1.197   2.920 -0.0286  0.1270  0.4282
14131SOL    HW145985   6.333   1.243   2.837 -1.2872 -1.1696 -0.2658
14131SOL    HW245986   6.408   1.240   2.968  0.8656  0.7543 -1.3884
14132SOL     OW45987   7.987   2.978   0.555 -0.0085  0.0539  0.1402
14132SOL    HW145988   7.987   2.894   0.510 -0.0368  0.6064 -0.9244
14132SOL    HW245989   7.903   3.017   0.533 -0.0069  0.3460  0.6477
14133SOL     OW45990   1.546   3.374   4.669 -0.1364 -0.2907  0.3144
14133SOL    HW145991   1.548   3.279   4.676 -1.3659 -0.6332 -2.5881
14133SOL    HW245992   1.622   3.396   4.617  0.3843  0.4159  1.3323
14134SOL     OW45993   7.951   1.441   5.938  0.3159 -0.0838 -0.2538
14134SOL    HW145994   7.975   1.350   5.953 -0.1686  0.0563  1.5325
14134SOL    HW245995   8.018   1.492   5.983  0.9289  0.4819 -1.7530
14135SOL     OW45996   4.891   8.774   2.737  0.1362 -0.0547 -0.2217
14135SOL    HW145997   4.813   8.795   2.789  0.3367 -0.6343  0.3136
14135SOL    HW245998   4.918   8.859   2.701  0.7623  0.6033  1.6722
14136SOL     OW45999   5.448   9.307   9.707 -0.3439 -0.0951 -0.2126
14136SOL    HW146000   5.402   9.373   9.759  0.3634 -0.2730  0.6575
14136SOL    HW246001   5.526   9.351   9.675  0.5035 -0.6863  0.9673
14137SOL     OW46002   4.263   0.899  10.255 -0.5117  0.5511 -0.3606
14137SOL    HW146003   4.290   0.881  10.345 -0.4883 -0.5913 -0.5729
14137SOL    HW246004   4.343   0.927  10.211 -0.4543  0.7968 -0.0999
14138SOL     OW46005  10.922   6.303   6.031 -0.4283  0.0085 -0.8158
14138SOL    HW146006  11.017   6.312   6.041 -0.4969  0.2629 -0.3653
14138SOL    HW246007  10.885   6.373   6.086 -0.8458  0.9949 -2.2734
14139SOL     OW46008   3.701   0.523   4.680 -0.2371  0.0127 -0.1575
14139SOL    HW146009   3.770   0.580   4.645 -1.5740  0.4627 -2.3000
14139SOL    HW246010   3.620   0.558   4.642 -1.5219 -1.2070  1.3139
14140SOL     OW46011   9.843  10.939   3.579  0.3676  0.3643  0.4700
14140SOL    HW146012   9.769  10.916   3.636 -0.6959  0.8180 -0.6784
14140SOL    HW246013   9.920  10.904   3.624 -0.2732  1.6102  2.7330
14141SOL     OW46014   2.098   3.860   1.790  0.0202 -0.1919  0.0200
14141SOL    HW146015   2.067   3.861   1.699  1.2937  0.4995 -0.4274
14141SOL    HW246016   2.131   3.948   1.806  1.7406 -0.8722  0.4554
14142SOL     OW46017   7.812   7.613   4.364  0.1819  0.6825  0.4797
14142SOL    HW146018   7.800   7.632   4.457 -0.7478  0.5974  0.3898
14142SOL    HW246019   7.770   7.527   4.351 -1.0752  1.3743 -0.2949
14143SOL     OW46020   7.610   4.804   4.432  0.3494 -0.2405  0.5895
14143SOL    HW146021   7.639   4.724   4.477 -0.8799 -1.7251 -1.1222
14143SOL    HW246022   7.657   4.803   4.349  1.2903  1.5570  1.0451
14144SOL     OW46023   2.156   6.852   3.573 -0.1003  0.5791 -0.0339
14144SOL    HW146024   2.250   6.870   3.581 -0.1457  0.6659  0.3285
14144SOL    HW246025   2.134   6.883   3.485  0.4604 -0.6120 -0.6154
14145SOL     OW46026   5.433   1.938   0.789 -0.4859 -0.5494 -0.2745
14145SOL    HW146027   5.421   1.876   0.862 -0.6357 -1.7830 -1.3070
14145SOL    HW246028   5.520   1.919   0.756 -0.6110 -0.3309 -0.7314
14146SOL     OW46029  10.021   6.716   2.766 -0.3957  0.1611 -0.2001
14146SOL    HW146030   9.955   6.651   2.790 -0.6174  0.6636  0.6056
14146SOL    HW246031   9.982   6.800   2.789  1.2870  0.3703  2.3481
14147SOL     OW46032   7.527   7.154   4.487 -0.2652 -0.6631 -0.3507
14147SOL    HW146033   7.520   7.099   4.565 -0.7415  0.0951  0.1656
14147SOL    HW246034   7.467   7.227   4.505  1.4280  0.7878 -0.3461
14148SOL     OW46035   7.422   9.346   6.133  0.2526  0.4905 -0.3011
14148SOL    HW146036   7.378   9.280   6.080  0.2033  0.9644 -0.8585
14148SOL    HW246037   7.515   9.337   6.111  0.5371 -0.8771  1.2792
14149SOL     OW46038   3.079   5.413   7.226 -0.3337 -0.3830  0.0468
14149SOL    HW146039   3.134   5.404   7.147 -0.5548 -0.1354 -0.1366
14149SOL    HW246040   3.083   5.506   7.247 -0.1292 -0.4776  0.4384
14150SOL     OW46041   8.830   4.374   7.427 -0.0542 -0.4768  0.1080
14150SOL    HW146042   8.809   4.466   7.441  0.0148 -0.1931 -1.5017
14150SOL    HW246043   8.752   4.327   7.456 -0.1443  0.0909  0.8082
14151SOL     OW46044   8.938   3.967   6.484 -0.1931  0.5571 -0.9654
14151SOL    HW146045   9.026   3.989   6.515  0.2862 -0.1621 -1.7605
14151SOL    HW246046   8.884   4.042   6.508  0.0791 -0.0039  1.7714
14152SOL     OW46047   4.401   7.711   7.018 -0.2236 -0.2031 -0.0366
14152SOL    HW146048   4.383   7.656   7.094  0.9227 -0.1730  0.2709
14152SOL    HW246049   4.439   7.651   6.953  0.5070  0.1061  0.0937
14153SOL     OW46050   5.506  10.706   0.553 -0.4239 -0.0740 -1.0020
14153SOL    HW146051   5.559  10.784   0.536 -0.8456  0.2313 -0.9303
14153SOL    HW246052   5.532  10.678   0.641 -1.2667  0.7979 -0.4668
14154SOL     OW46053   4.706   7.015   3.081  0.1396  0.2611 -0.1472
14154SOL    HW146054   4.681   6.935   3.035  0.3942  0.1086 -0.0253
14154SOL    HW246055   4.800   7.004   3.098 -0.2609 -0.4826  1.9192
14155SOL     OW46056   4.254  10.391   0.574  0.2998  0.6015 -0.2988
14155SOL    HW146057   4.271  10.387   0.668 -3.1198 -0.3800  0.4135
14155SOL    HW246058   4.319  10.333   0.535  2.0146  1.3055  1.3709
14156SOL     OW46059   2.688   5.773   0.867  0.2980  0.7933  0.1640
14156SOL    HW146060   2.638   5.845   0.829  1.5364  0.5538 -2.1129
14156SOL    HW246061   2.625   5.702   0.878  0.0520  0.4460 -2.7613
14157SOL     OW46062  10.301   7.284   1.104  0.2895 -0.0821 -0.3614
14157SOL    HW146063  10.346   7.231   1.038  1.1656  0.8526 -0.5538
14157SOL    HW246064  10.256   7.221   1.159  0.4091 -0.9501 -1.2280
14158SOL     OW46065   7.509  10.142   7.653 -0.8499 -0.3142 -0.2531
14158SOL    HW146066   7.557  10.225   7.653  0.6072 -1.0965  0.9714
14158SOL    HW246067   7.442  10.154   7.720 -1.5509  0.3209 -1.0384
14159SOL     OW46068  11.062   2.019   2.096 -0.2959 -0.3117  0.3264
14159SOL    HW146069  11.104   1.997   2.014 -1.4052  0.3201 -0.4434
14159SOL    HW246070  10.980   1.968   2.096 -0.6304  0.2107  0.7169
14160SOL     OW46071   8.279   1.473   0.247 -0.0569 -0.3286 -0.0465
14160SOL    HW146072   8.300   1.386   0.280 -2.1066 -1.1004 -0.6446
14160SOL    HW246073   8.188   1.467   0.220 -0.7846  2.5106  1.4807
14161SOL     OW46074   8.645   0.597   1.245 -0.1561 -0.4475 -0.0201
14161SOL    HW146075   8.700   0.574   1.171 -0.1987  1.6036 -0.7578
14161SOL    HW246076   8.576   0.531   1.246  1.5269 -2.2802  0.1022
14162SOL     OW46077   6.019   7.992   3.450  0.5752 -0.0105 -0.1090
14162SOL    HW146078   6.078   7.952   3.386  0.7017  0.2688 -0.1687
14162SOL    HW246079   5.933   7.955   3.432  0.6231  0.0235 -0.4015
14163SOL     OW46080   6.111   4.067   3.346 -0.8855  0.2093  0.8888
14163SOL    HW146081   6.038   4.123   3.372 -1.0226 -0.0403  1.0314
14163SOL    HW246082   6.183   4.095   3.402 -1.0525 -0.0059  1.2094
14164SOL     OW46083   9.103   0.232   2.653  0.2435  0.5411 -0.3045
14164SOL    HW146084   9.014   0.226   2.619  0.0448  2.3328 -0.1835
14164SOL    HW246085   9.094   0.212   2.747  0.0391  0.3360 -0.3677
14165SOL     OW46086   7.676   6.929   7.597 -0.0762  0.4071 -0.1217
14165SOL    HW146087   7.738   6.955   7.528  1.2832 -1.2231  0.4170
14165SOL    HW246088   7.727   6.931   7.677 -1.0337  0.0919  0.5149
14166SOL     OW46089   0.676   1.022   2.076 -0.0746  0.0658  0.3210
14166SOL    HW146090   0.602   0.961   2.069  0.7556 -1.0226  0.8374
14166SOL    HW246091   0.638   1.107   2.053 -0.9689 -0.8091 -1.7271
14167SOL     OW46092  10.712   6.731   1.228  0.8981 -0.3147  0.6723
14167SOL    HW146093  10.625   6.710   1.261  0.4927 -0.7955 -0.6356
14167SOL    HW246094  10.768   6.729   1.305 -0.2732  0.1616  1.5587
14168SOL     OW46095   9.019   6.299   0.575 -0.8914  0.4630  0.3958
14168SOL    HW146096   9.082   6.285   0.647 -0.7472  0.2579  0.2324
14168SOL    HW246097   9.029   6.221   0.520 -0.9415  0.6612  0.1073
14169SOL     OW46098   9.044   8.750   2.737 -0.3554 -0.3031 -0.1650
14169SOL    HW146099   9.016   8.799   2.815 -2.6953 -1.7936  0.0246
14169SOL    HW246100   8.963   8.718   2.699  0.8966 -1.2780 -2.1361
14170SOL     OW46101   1.413   5.748   4.162  0.3397  0.1184 -0.5645
14170SOL    HW146102   1.441   5.784   4.078 -0.8548  1.5583 -0.3709
14170SOL    HW246103   1.449   5.808   4.228 -1.1084  0.6096 -0.1984
14171SOL     OW46104   8.398   4.518   3.524  0.6333  0.1345 -0.3599
14171SOL    HW146105   8.416   4.432   3.486  0.3915  0.9104 -2.3613
14171SOL    HW246106   8.315   4.544   3.486  0.7074  1.2721  0.2098
14172SOL     OW46107   9.387   0.626   0.173  0.4251 -0.2361  0.9037
14172SOL    HW146108   9.349   0.593   0.255 -2.7223  1.3741  0.2606
14172SOL    HW246109   9.372   0.555   0.110 -2.5442  0.6265  0.4775
14173SOL     OW46110   6.412   2.156   9.013  0.3140  0.1870 -0.4808
14173SOL    HW146111   6.334   2.101   9.019  0.9995 -1.0088 -1.7830
14173SOL    HW246112   6.404   2.201   8.928  0.8386  0.3597 -0.4471
14174SOL     OW46113   6.170  10.058   4.080 -0.1722 -0.0023 -0.0543
14174SOL    HW146114   6.246  10.007   4.108  0.6791  0.7471 -0.9321
14174SOL    HW246115   6.106   9.993   4.051 -0.0607 -0.6639  1.1180
14175SOL     OW46116   4.454   1.004   1.238  0.2950 -0.1564  0.0190
14175SOL    HW146117   4.374   0.971   1.198 -0.6724  2.0761 -0.0222
14175SOL    HW246118   4.513   1.020   1.164  0.5103 -1.0127 -0.0135
14176SOL     OW46119   7.926   3.278   7.097 -0.2826  0.0496 -0.1340
14176SOL    HW146120   7.994   3.252   7.159  1.7795 -0.1133 -2.3218
14176SOL    HW246121   7.911   3.199   7.045 -0.3328  0.7752 -1.2445
14177SOL     OW46122   8.173   1.320  10.400  0.0611 -0.1143  0.5789
14177SOL    HW146123   8.219   1.240  10.427  0.0518 -0.7817 -1.2578
14177SOL    HW246124   8.091   1.318  10.449  2.0548  1.4295  4.4465
14178SOL     OW46125   8.724   0.628   6.668  0.1473  0.2232  0.3000
14178SOL    HW146126   8.773   0.700   6.628  0.2643 -0.3903 -0.6961
14178SOL    HW246127   8.774   0.605   6.746  0.4824  0.7686  0.2523
14179SOL     OW46128   6.834   1.189   0.115  0.2358  0.0533 -0.7183
14179SOL    HW146129   6.850   1.201   0.022  1.0120  2.0259 -0.3750
14179SOL    HW246130   6.918   1.160   0.151 -0.2437 -1.4001 -0.7098
14180SOL     OW46131   0.644  10.842   1.741  0.7762  0.1190  0.0898
14180SOL    HW146132   0.608  10.845   1.653  0.5296 -1.7464  0.0913
14180SOL    HW246133   0.568  10.849   1.799  0.5904 -1.4984  0.1005
14181SOL     OW46134   8.267   3.477   7.645  0.2151  0.2174 -0.1655
14181SOL    HW146135   8.272   3.465   7.550  0.2535  0.2483 -0.1673
14181SOL    HW246136   8.199   3.416   7.673  1.4693 -1.1750  0.0193
14182SOL     OW46137   9.074   7.991   2.208  0.1302  0.5440  0.6017
14182SOL    HW146138   9.115   7.967   2.125 -0.0213 -3.7154  1.5243
14182SOL    HW246139   9.148   8.000   2.269  0.0657  0.2266  0.7266
14183SOL     OW46140   3.492   8.835   2.438  0.4513 -0.1603  0.1157
14183SOL    HW146141   3.441   8.898   2.387  0.5803 -0.2079 -0.0715
14183SOL    HW246142   3.443   8.826   2.520  0.5174  0.3007  0.2065
14184SOL     OW46143   2.032   6.345   8.887 -0.0942 -0.2148  0.3327
14184SOL    HW146144   2.011   6.432   8.920  2.0216 -0.2439  1.9778
14184SOL    HW246145   1.988   6.285   8.948 -1.2900 -0.3480 -0.6164
14185SOL     OW46146   8.025   9.460   0.381  0.0153  0.8469 -0.5606
14185SOL    HW146147   8.052   9.404   0.454 -1.2129  0.7237 -0.1794
14185SOL    HW246148   8.107   9.484   0.338  0.6480 -0.3397 -0.0672
14186SOL     OW46149   3.527   1.744   0.474  0.2427 -0.1978 -0.5695
14186SOL    HW146150   3.545   1.837   0.484 -0.3291 -0.0357 -1.0421
14186SOL    HW246151   3.569   1.703   0.550  1.8875  0.2619 -1.1989
14187SOL     OW46152   4.989   5.750  10.269  0.3210  0.2633  0.4274
14187SOL    HW146153   4.897   5.730  10.251  0.4266  0.2569 -0.1452
14187SOL    HW246154   5.004   5.722  10.359 -0.1162 -0.1595  0.3653
14188SOL     OW46155   0.631   4.401   1.699  0.3655  0.2259  0.1712
14188SOL    HW146156   0.686   4.334   1.740 -0.9052 -0.6036  0.5879
14188SOL    HW246157   0.574   4.352   1.640 -2.6432  0.4194  2.6154
14189SOL     OW46158   7.006   1.410   7.953 -0.3903  0.2658 -0.3071
14189SOL    HW146159   6.996   1.315   7.954  2.0897 -0.0823 -1.1156
14189SOL    HW246160   7.051   1.429   7.871  1.1566  1.8522  0.8079
14190SOL     OW46161   4.298   2.164   1.299 -0.3393  0.0159  0.3099
14190SOL    HW146162   4.219   2.115   1.322 -0.0514  0.3812  2.3046
14190SOL    HW246163   4.284   2.193   1.209 -1.8809 -1.0407  0.1771
14191SOL     OW46164   0.981   6.503  11.014 -0.3172 -0.0628 -0.5325
14191SOL    HW146165   0.937   6.451  11.082  0.1765 -2.3419 -1.8336
14191SOL    HW246166   1.044   6.556  11.062 -0.8292 -0.6903  0.9028
14192SOL     OW46167   2.537   3.064   3.572  0.6335 -0.4957 -0.5242
14192SOL    HW146168   2.584   3.020   3.643  1.0570  0.2652 -0.3246
14192SOL    HW246169   2.452   3.021   3.569  0.1159  0.3198  1.3164
14193SOL     OW46170   5.349   8.359  11.087 -0.4179 -0.1907 -0.2716
14193SOL    HW146171   5.444   8.362  11.077 -0.6206  1.8994 -2.5792
14193SOL    HW246172   5.326   8.268  11.067  1.0848 -0.8411  0.7916
14194SOL     OW46173  10.984   1.020   0.918 -0.8841 -0.4071 -0.0041
14194SOL    HW146174  11.049   1.035   0.986  1.1182 -2.4801 -1.2818
14194SOL    HW246175  10.902   1.053   0.954  0.3570 -0.1113  2.7820
14195SOL     OW46176   3.529   5.889   6.589  0.2694 -0.5928 -0.8761
14195SOL    HW146177   3.544   5.796   6.574  1.6784 -0.8734  1.7947
14195SOL    HW246178   3.440   5.895   6.623  0.3029 -0.9865 -0.7227
14196SOL     OW46179   1.372   6.756   5.334  0.7557 -0.4782 -0.1814
14196SOL    HW146180   1.449   6.731   5.386  0.8876  1.2118  0.4826
14196SOL    HW246181   1.384   6.849   5.317 -0.5419 -0.4647 -1.1514
14197SOL     OW46182   3.599   1.322   7.540  0.5990  0.4068 -0.0049
14197SOL    HW146183   3.558   1.363   7.616  0.2499 -1.7260  1.0421
14197SOL    HW246184   3.530   1.267   7.503  1.5609 -0.7111 -0.1921
14198SOL     OW46185   2.343   9.156   5.772  0.2065 -0.2775 -0.0466
14198SOL    HW146186   2.350   9.130   5.864  1.5082  0.5585  0.1109
14198SOL    HW246187   2.269   9.105   5.739  0.5242 -1.5484  1.1151
14199SOL     OW46188   5.714   3.312   6.123 -0.0801 -0.1122 -0.4116
14199SOL    HW146189   5.716   3.236   6.180  0.5222  0.8586  0.9154
14199SOL    HW246190   5.637   3.361   6.151 -0.3345 -0.1082 -1.1034
14200SOL     OW46191   2.833   1.822   1.051  0.3612 -0.2148  0.7744
14200SOL    HW146192   2.742   1.826   1.020  0.8069 -2.1102 -1.0170
14200SOL    HW246193   2.827   1.776   1.135 -0.3040 -0.7046  0.4736
14201SOL     OW46194   4.677   6.664   2.078 -0.0407  0.4059  0.3512
14201SOL    HW146195   4.757   6.707   2.047 -0.4919  0.7532 -0.3561
14201SOL    HW246196   4.666   6.589   2.020 -1.2220  1.4025 -0.7584
14202SOL     OW46197   1.366   2.093   0.581 -0.0192  0.2488  0.0218
14202SOL    HW146198   1.352   2.169   0.638 -1.1165 -0.2613  0.4606
14202SOL    HW246199   1.460   2.075   0.588  0.0487  0.8311  0.8498
14203SOL     OW46200   0.720  10.051   7.151  0.1337 -1.0642  0.1015
14203SOL    HW146201   0.731  10.126   7.209  0.4809 -0.9063 -0.1592
14203SOL    HW246202   0.627  10.028   7.157 -0.2493  0.1641 -0.7388
14204SOL     OW46203   7.580   7.409   7.069 -0.4565  0.1930 -0.3716
14204SOL    HW146204   7.605   7.337   7.010 -0.3046  0.0861 -0.1785
14204SOL    HW246205   7.522   7.367   7.133  0.2861  0.0739  0.2231
14205SOL     OW46206   2.116   2.681   7.051 -0.5386  0.0957 -0.2234
14205SOL    HW146207   2.186   2.622   7.024 -0.7572 -1.0254  1.4810
14205SOL    HW246208   2.117   2.752   6.987  2.8194  0.6709  0.3299
14206SOL     OW46209   3.029   2.902   4.544 -0.4225  0.2761  0.0729
14206SOL    HW146210   3.074   2.957   4.608 -0.1146 -0.0671  0.1606
14206SOL    HW246211   2.952   2.870   4.591 -1.6212  2.0968 -0.5731
14207SOL     OW46212   8.082   9.698   4.016 -0.0572  0.0189  0.0312
14207SOL    HW146213   8.153   9.709   4.079 -1.6352 -0.4504  1.9906
14207SOL    HW246214   8.053   9.608   4.028 -0.7941  0.1076 -0.9501
14208SOL     OW46215  10.366   8.749   3.345  0.2181  0.0267  0.6653
14208SOL    HW146216  10.438   8.705   3.299  0.2030 -0.5179  1.1654
14208SOL    HW246217  10.408   8.791   3.420  0.1066  0.2302  0.6167
14209SOL     OW46218   1.590   6.650  10.293  0.2733  0.4114 -0.4729
14209SOL    HW146219   1.669   6.654  10.240  1.6728 -0.4067  1.4407
14209SOL    HW246220   1.599   6.720  10.357 -0.5230  0.2624 -0.1758
14210SOL     OW46221   1.695   3.459  10.532  0.3202  0.5887  0.5080
14210SOL    HW146222   1.634   3.428  10.465 -2.7781  0.0191  3.3685
14210SOL    HW246223   1.739   3.380  10.563  0.5952  0.6383  0.2506
14211SOL     OW46224   3.420   3.089   2.140 -0.4903  0.2748 -0.0852
14211SOL    HW146225   3.456   3.031   2.073  0.4812 -1.3003  1.7090
14211SOL    HW246226   3.334   3.114   2.106 -0.7665 -1.8651 -1.1361
14212SOL     OW46227   5.131   9.566   9.048  0.1765  0.5017  0.5096
14212SOL    HW146228   5.171   9.556   9.134  2.1617  0.5790 -0.3513
14212SOL    HW246229   5.068   9.494   9.043  1.2036 -0.4890  1.3936
14213SOL     OW46230   5.103   3.685   1.225 -0.2376  0.6818  0.3473
14213SOL    HW146231   5.061   3.759   1.180  1.9900  1.8625  0.0328
14213SOL    HW246232   5.138   3.724   1.305 -0.9256 -0.5784  1.2880
14214SOL     OW46233   3.599  10.814   3.306  0.0283  0.1991  0.2169
14214SOL    HW146234   3.620  10.780   3.219 -1.0144 -0.0254  0.0461
14214SOL    HW246235   3.650  10.759   3.366 -0.5947 -0.7893 -0.1451
14215SOL     OW46236   2.587   2.168   1.322  0.0633 -0.1901  0.1241
14215SOL    HW146237   2.494   2.157   1.340 -0.3009  0.9108 -0.9622
14215SOL    HW246238   2.619   2.218   1.398 -0.2414 -0.4837  0.4520
14216SOL     OW46239  10.293   9.711   7.326 -0.5825 -0.1779  0.2281
14216SOL    HW146240  10.237   9.788   7.338 -0.3883  0.1849 -1.0641
14216SOL    HW246241  10.381   9.747   7.313  0.1846 -0.7736  3.0975
14217SOL     OW46242   3.225  10.000   8.365  0.6014  0.0975 -0.2862
14217SOL    HW146243   3.218   9.926   8.425  1.1079  1.4577  1.5310
14217SOL    HW246244   3.314   9.994   8.330  0.5941 -0.2273 -0.2515
14218SOL     OW46245   5.537   0.626   3.251  0.2226  0.4505 -0.6947
14218SOL    HW146246   5.596   0.695   3.283  0.7423  0.1653 -1.0222
14218SOL    HW246247   5.456   0.639   3.300  0.6452  0.6878 -0.0484
14219SOL     OW46248   7.644   3.020  11.036 -0.4189 -0.0872 -0.1923
14219SOL    HW146249   7.560   3.008  11.078 -0.1279  0.8601  0.6910
14219SOL    HW246250   7.697   2.946  11.066 -0.2208  0.5651  1.1208
14220SOL     OW46251   9.699   9.760   5.434 -0.5636  0.0352  0.1019
14220SOL    HW146252   9.610   9.789   5.453 -0.7506 -1.2716  1.4123
14220SOL    HW246253   9.688   9.686   5.375 -0.3106  0.1920 -0.1430
14221SOL     OW46254   3.215   5.889   6.669  0.2663  0.5890  0.0891
14221SOL    HW146255   3.208   5.939   6.750  0.0450  1.5932 -0.5352
14221SOL    HW246256   3.181   5.802   6.691 -2.5113  1.6503  0.3757
14222SOL     OW46257   8.332   0.044   4.440 -0.4284  0.2490 -0.2887
14222SOL    HW146258   8.312   0.125   4.393  1.7113  1.1075  0.1867
14222SOL    HW246259   8.251   0.024   4.488 -1.1381  1.8769 -0.7351
14223SOL     OW46260   1.817   0.858   0.152 -0.2582 -0.3122 -0.0836
14223SOL    HW146261   1.828   0.803   0.074  0.4150 -0.8386  0.3681
14223SOL    HW246262   1.906   0.877   0.180 -0.4917 -0.5233  0.8307
14224SOL     OW46263   7.320   9.525   0.052 -0.3219  0.2083 -0.3825
14224SOL    HW146264   7.379   9.495   0.120 -0.4911  1.8135  0.5294
14224SOL    HW246265   7.280   9.445   0.017 -0.3010 -0.6618  1.4645
14225SOL     OW46266   7.197   1.120   7.023 -0.7463 -0.6749  0.5612
14225SOL    HW146267   7.128   1.054   7.018  1.3948 -3.0276  0.0854
14225SOL    HW246268   7.270   1.083   6.972 -0.0334  2.9220 -1.3464
14226SOL     OW46269   7.044   6.495   3.038  0.1805  0.0038 -0.0845
14226SOL    HW146270   7.028   6.541   2.955  0.4465  0.2910  0.0210
14226SOL    HW246271   6.956   6.480   3.074 -0.0034 -1.0411 -0.9007
14227SOL     OW46272   8.956  10.119   3.366  0.0058 -0.2271  0.2847
14227SOL    HW146273   8.865  10.148   3.374  0.1761  0.4110 -0.0451
14227SOL    HW246274   8.986  10.109   3.457 -0.6873 -1.4234  0.4042
14228SOL     OW46275   0.171   1.598   8.273  0.3107 -0.4483 -0.1053
14228SOL    HW146276   0.158   1.601   8.368 -2.2085 -0.9572 -0.3661
14228SOL    HW246277   0.158   1.689   8.245  3.1621  0.1312  0.1855
14229SOL     OW46278   4.886   6.338   3.172  0.1419 -0.0006  0.2453
14229SOL    HW146279   4.819   6.276   3.144  0.9354 -1.4885  1.4791
14229SOL    HW246280   4.874   6.344   3.267 -0.1740  2.0961  0.1110
14230SOL     OW46281   1.207   1.397   1.094  0.4199 -0.2493 -0.5131
14230SOL    HW146282   1.277   1.396   1.028  0.3648 -0.0548 -0.5750
14230SOL    HW246283   1.239   1.457   1.161  0.4555 -0.4124 -0.3827
14231SOL     OW46284   3.837  10.497   0.839  0.0947  0.7592 -0.5464
14231SOL    HW146285   3.851  10.415   0.792  0.3127  0.7769 -0.5158
14231SOL    HW246286   3.824  10.562   0.770  0.7023  0.8376 -0.5958
14232SOL     OW46287   0.066   3.372   6.268 -0.3531  0.4810  0.1215
14232SOL    HW146288   0.009   3.302   6.237  0.3175  0.3298 -0.7944
14232SOL    HW246289   0.045   3.380   6.361  0.2419 -1.5805  0.4722
14233SOL     OW46290   7.427   7.170   3.522 -0.0645  0.2582  0.2188
14233SOL    HW146291   7.345   7.129   3.495  0.5410  0.3140 -1.8164
14233SOL    HW246292   7.411   7.264   3.517  0.2245  0.2716 -0.5524
14234SOL     OW46293   6.237   8.555   0.282  0.1930 -0.1160 -0.4253
14234SOL    HW146294   6.237   8.559   0.187 -1.8354 -0.0730 -0.4569
14234SOL    HW246295   6.330   8.563   0.306  0.5303  3.0438 -2.2318
14235SOL     OW46296   4.847   4.145   3.159  0.0982 -0.1180 -0.3396
14235SOL    HW146297   4.754   4.147   3.137 -0.2662  2.6021  0.9890
14235SOL    HW246298   4.887   4.096   3.087 -2.4979 -3.1449  0.0381
14236SOL     OW46299   5.491   9.492   7.772  0.5069 -0.0269 -0.2627
14236SOL    HW146300   5.476   9.579   7.735  1.0627  0.3891  0.4681
14236SOL    HW246301   5.510   9.508   7.864  0.5349 -0.9327 -0.1036
14237SOL     OW46302   6.556   6.796   2.265 -0.3342 -0.4533  0.5959
14237SOL    HW146303   6.509   6.713   2.253  0.6676 -0.8310 -1.2380
14237SOL    HW246304   6.545   6.817   2.357 -2.1485 -1.6856  0.7156
14238SOL     OW46305   2.689   4.387   8.390 -0.4061 -0.2565 -0.0260
14238SOL    HW146306   2.622   4.318   8.390  1.2392 -1.9414  0.2484
14238SOL    HW246307   2.738   4.372   8.309 -1.3281  2.0170 -1.0768
14239SOL     OW46308   8.967   9.024   8.506 -0.0037 -0.6609  0.0689
14239SOL    HW146309   8.968   8.938   8.464 -0.5519 -0.7577  0.2358
14239SOL    HW246310   8.873   9.044   8.517  0.0768  0.5969 -1.2576
14240SOL     OW46311   8.501   4.301   0.917 -0.3533  0.6886  0.5277
14240SOL    HW146312   8.493   4.227   0.978  0.5405 -0.0202 -0.1933
14240SOL    HW246313   8.411   4.318   0.890 -0.6401  0.2550  1.1614
14241SOL     OW46314   6.349   0.346   0.451  0.0680  0.7723 -0.2644
14241SOL    HW146315   6.317   0.399   0.379  1.0814  2.0341  0.1723
14241SOL    HW246316   6.336   0.401   0.529  0.2666 -0.0083  0.3369
14242SOL     OW46317   3.435   1.565   9.812  0.1737 -0.1842  0.5239
14242SOL    HW146318   3.392   1.618   9.880  2.3561 -1.0526  2.7240
14242SOL    HW246319   3.493   1.627   9.767 -1.6136  0.4969 -0.9701
14243SOL     OW46320  10.890   2.051   5.360  0.3952 -0.2717  0.6202
14243SOL    HW146321  10.817   2.096   5.401 -0.2583 -0.1254 -0.6397
14243SOL    HW246322  10.849   1.984   5.305  1.2693 -1.0635  0.8996
14244SOL     OW46323   6.473  10.005   4.816  0.1186  0.2897  0.1786
14244SOL    HW146324   6.532  10.026   4.743 -0.8794 -1.4537 -1.1916
14244SOL    HW246325   6.525   9.948   4.872  0.9381  1.7446  0.9739
14245SOL     OW46326   2.074   2.956   5.917  0.4931  0.3628  0.0036
14245SOL    HW146327   2.033   2.877   5.882 -2.7857  0.9043  2.1517
14245SOL    HW246328   2.040   3.027   5.864 -0.8819  0.7618  1.3650
14246SOL     OW46329   5.191   2.753   8.195  0.0815 -0.0022 -0.7551
14246SOL    HW146330   5.282   2.743   8.167  0.4102  0.7211  0.0064
14246SOL    HW246331   5.139   2.720   8.121  0.9421  0.5325 -1.6248
14247SOL     OW46332   5.780   5.905   9.861 -0.4137  0.0286  0.2012
14247SOL    HW146333   5.694   5.867   9.876 -0.4339 -0.3125 -0.7073
14247SOL    HW246334   5.770   5.956   9.780  0.7457 -1.7353 -1.1208
14248SOL     OW46335   4.834   7.848   7.827  0.3511  0.2058  0.1023
14248SOL    HW146336   4.830   7.802   7.911  0.3068  0.1317  0.0585
14248SOL    HW246337   4.830   7.941   7.852 -1.4633  0.1641  0.0750
14249SOL     OW46338   1.222   5.995   4.254 -0.1408 -0.0344 -0.0515
14249SOL    HW146339   1.199   6.083   4.282 -0.8043  0.0388 -0.8006
14249SOL    HW246340   1.316   5.999   4.237 -0.5770  1.2332 -2.5116
14250SOL     OW46341   6.435   8.673  10.570  0.1300 -0.1725 -0.0532
14250SOL    HW146342   6.410   8.583  10.590  2.4730 -0.9384 -0.2959
14250SOL    HW246343   6.490   8.700  10.644  1.8943 -0.0363 -1.3427
14251SOL     OW46344   6.613   9.493   2.210 -0.2805 -0.1696  0.1831
14251SOL    HW146345   6.657   9.495   2.295 -0.2816 -0.4848  0.1925
14251SOL    HW246346   6.675   9.450   2.152  0.9479  2.6099 -0.6895
14252SOL     OW46347   4.124   4.348   3.056  0.0756 -0.1314 -0.2303
14252SOL    HW146348   4.055   4.281   3.055 -0.2846  0.2293  0.0712
14252SOL    HW246349   4.117   4.388   3.143  0.5409  0.0385 -0.2683
14253SOL     OW46350   9.968   3.647   4.202 -0.2606 -0.7350 -0.5825
14253SOL    HW146351   9.970   3.731   4.248 -0.6159 -1.5395  0.9609
14253SOL    HW246352   9.916   3.664   4.123  1.7438  1.0788 -1.5972
14254SOL     OW46353   1.890   0.871  10.456  0.2023  0.6388  0.2214
14254SOL    HW146354   1.965   0.916  10.417  1.1642 -1.6153 -0.7323
14254SOL    HW246355   1.817   0.891  10.398  0.8654  0.1091 -0.8235
14255SOL     OW46356  10.531   0.769  10.223  0.0147  0.2635 -0.9529
14255SOL    HW146357  10.470   0.698  10.201  0.5727 -1.1710  1.6339
14255SOL    HW246358  10.567   0.797  10.139 -2.4714 -0.4065 -2.3494
14256SOL     OW46359   1.071   8.844   8.292 -0.0613 -0.0156 -0.3413
14256SOL    HW146360   0.981   8.813   8.290 -0.1891  0.3543 -0.3822
14256SOL    HW246361   1.088   8.866   8.384 -0.3710  0.9353 -0.4953
14257SOL     OW46362   6.057   6.393   4.084  0.1467 -0.2112 -0.2735
14257SOL    HW146363   6.031   6.481   4.058 -0.5067 -0.3215  0.0053
14257SOL    HW246364   5.986   6.336   4.055 -0.0354 -0.4863  0.6504
14258SOL     OW46365   8.256   6.062   0.183 -0.2233  0.7824  0.0726
14258SOL    HW146366   8.282   6.125   0.115 -0.4550 -0.6864 -1.4229
14258SOL    HW246367   8.330   6.003   0.191 -0.3940  0.6501  0.7758
14259SOL     OW46368   8.281  10.466   8.838  0.1003  0.0536  0.0094
14259SOL    HW146369   8.337  10.532   8.879 -0.7360  0.2938  0.7889
14259SOL    HW246370   8.312  10.382   8.872  0.0808  0.1735  0.3203
14260SOL     OW46371   0.354  10.607   3.040 -0.2163  0.0945 -0.5284
14260SOL    HW146372   0.370  10.606   3.134  0.7860  0.6391 -0.6740
14260SOL    HW246373   0.259  10.598   3.031 -0.2464 -0.7648  0.4968
14261SOL     OW46374   6.906   6.259   9.126 -0.3259  0.8876 -0.1379
14261SOL    HW146375   6.866   6.257   9.214 -1.0531 -1.1762 -0.4376
14261SOL    HW246376   6.896   6.349   9.097 -2.1448  1.1278  1.0219
14262SOL     OW46377   9.943   2.737   4.238 -0.1400  0.9416 -0.5855
14262SOL    HW146378   9.907   2.825   4.242 -1.3568  0.5217 -1.3878
14262SOL    HW246379   9.868   2.682   4.214  0.3195 -0.4916  1.0284
14263SOL     OW46380   3.395   7.507   6.762 -0.5287 -0.0350  0.6650
14263SOL    HW146381   3.433   7.433   6.810  0.0523 -0.5408 -0.5140
14263SOL    HW246382   3.358   7.467   6.683  0.0355  0.9644 -0.1225
14264SOL     OW46383   7.358   6.730   5.451 -0.9809 -0.4350 -0.3331
14264SOL    HW146384   7.293   6.665   5.426  1.4501 -2.4189 -1.9501
14264SOL    HW246385   7.442   6.688   5.434  0.7599  2.5012  0.3034
14265SOL     OW46386   9.265   6.087   0.518  0.0234  0.4296  0.0120
14265SOL    HW146387   9.353   6.066   0.550 -0.3786 -1.8154 -0.1782
14265SOL    HW246388   9.280   6.138   0.438  1.1439  0.4824  0.2426
14266SOL     OW46389   0.791   0.022   1.725  0.0957  0.1945  0.2798
14266SOL    HW146390   0.817  -0.065   1.756 -0.6046  0.0257  0.4047
14266SOL    HW246391   0.873   0.071   1.720  1.2930 -1.7299 -4.0188
14267SOL     OW46392   5.834   7.822   9.016  0.6140  0.0550 -0.3173
14267SOL    HW146393   5.816   7.853   9.105  0.1136 -1.4831  0.1560
14267SOL    HW246394   5.747   7.810   8.978  0.8240  0.4327 -0.9359
14268SOL     OW46395   7.953   3.108   0.210  0.3509  0.2499  0.2893
14268SOL    HW146396   8.024   3.044   0.213  0.1776  0.0075 -0.6999
14268SOL    HW246397   7.899   3.087   0.287  0.1371 -0.9760 -0.1764
14269SOL     OW46398  10.616   2.665   4.089 -0.4104 -0.0202  0.5042
14269SOL    HW146399  10.564   2.597   4.132 -0.3080 -0.1555  0.4160
14269SOL    HW246400  10.649   2.623   4.010  1.5360 -0.5898  1.5708
14270SOL     OW46401   9.820   1.879   7.907  0.2113  0.5299  0.0209
14270SOL    HW146402   9.742   1.889   7.853  1.2023  4.4452 -1.0230
14270SOL    HW246403   9.882   1.833   7.851 -0.4464 -0.1291 -0.1767
14271SOL     OW46404   8.712   8.504   9.109 -0.8335  0.8894 -0.5498
14271SOL    HW146405   8.647   8.571   9.128 -0.3026  1.2813 -0.0674
14271SOL    HW246406   8.754   8.488   9.194 -0.9539 -0.0525 -0.6601
14272SOL     OW46407   0.740   8.244   2.992 -0.0207 -0.6979 -0.5743
14272SOL    HW146408   0.719   8.171   3.050  0.6566 -1.7276 -1.5579
14272SOL    HW246409   0.835   8.255   3.000  0.2708 -1.5957 -2.2484
14273SOL     OW46410   6.276   0.612   9.106  0.1126 -0.1030 -0.2435
14273SOL    HW146411   6.228   0.694   9.103  0.4466  0.0829 -0.5989
14273SOL    HW246412   6.275   0.586   9.198  0.3315  0.4926 -0.0724
14274SOL     OW46413   0.588   4.803   5.136 -0.5577  0.3167  0.0204
14274SOL    HW146414   0.572   4.802   5.231 -2.2358 -1.8409 -0.2013
14274SOL    HW246415   0.503   4.826   5.098  0.0620  0.9993 -0.9876
14275SOL     OW46416   0.386   2.303   9.750  0.5590 -0.4657  0.7194
14275SOL    HW146417   0.351   2.289   9.838 -1.0422  0.2908  0.2372
14275SOL    HW246418   0.380   2.217   9.708 -1.2762 -0.2705  0.4908
14276SOL     OW46419   5.152   8.763  11.110 -0.0947  0.5085 -0.5494
14276SOL    HW146420   5.098   8.741  11.034  1.5665 -0.2038 -1.6032
14276SOL    HW246421   5.139   8.691  11.171 -2.1035  1.5029  0.2790
14277SOL     OW46422   9.754  10.588   8.807  0.1982 -0.3856 -0.0354
14277SOL    HW146423   9.819  10.521   8.787 -0.9965 -1.5508 -0.1338
14277SOL    HW246424   9.803  10.655   8.855  1.1895 -1.8676  1.1241
14278SOL     OW46425   0.883   8.010   5.326  0.5864 -0.5074  0.4621
14278SOL    HW146426   0.888   8.090   5.377 -0.1528 -1.2973  1.8355
14278SOL    HW246427   0.839   7.947   5.383 -0.5791 -1.3547 -1.2622
14279SOL     OW46428  10.484   9.554   8.103 -0.7597 -0.2276 -0.9106
14279SOL    HW146429  10.554   9.494   8.080 -1.2185 -1.3500  0.4863
14279SOL    HW246430  10.516   9.640   8.075  1.0972 -0.7302 -0.4599
14280SOL     OW46431   5.692  10.931  10.709  0.0260  0.9509 -0.8684
14280SOL    HW146432   5.717  10.848  10.751 -1.2139  1.5939  1.3195
14280SOL    HW246433   5.775  10.975  10.691  0.6471  0.0471 -0.3103
14281SOL     OW46434  10.906   4.337   8.282  0.1563 -0.1750 -0.2817
14281SOL    HW146435  10.910   4.406   8.348  3.4440 -0.2285 -0.2676
14281SOL    HW246436  10.816   4.306   8.286 -0.4185  1.4732  2.4495
14282SOL     OW46437  10.650   1.128   5.275 -0.4988  0.4295  0.2308
14282SOL    HW146438  10.718   1.081   5.228 -0.8245 -0.9712  1.0871
14282SOL    HW246439  10.612   1.188   5.211 -1.1436 -1.6067 -1.4089
14283SOL     OW46440   0.267   1.384   7.363  0.0100 -0.0061  0.2752
14283SOL    HW146441   0.208   1.355   7.433  0.0557 -0.5850  0.0779
14283SOL    HW246442   0.350   1.342   7.382 -0.3384 -1.2972 -0.8759
14284SOL     OW46443   8.982   5.863   2.551  0.0676 -0.1000 -0.1208
14284SOL    HW146444   8.955   5.899   2.467 -0.3031 -0.9100 -0.3544
14284SOL    HW246445   8.903   5.826   2.588  0.4891 -0.9125 -0.0128
14285SOL     OW46446   1.438  10.839   7.349 -0.3917 -0.5577  0.0245
14285SOL    HW146447   1.482  10.914   7.390 -0.4398 -1.4381  1.7786
14285SOL    HW246448   1.354  10.874   7.319 -0.2132  0.1983  0.3817
14286SOL     OW46449   1.299   4.068   8.033  0.5040  0.3221 -0.0574
14286SOL    HW146450   1.231   4.006   8.006  0.8238 -0.5208  0.9668
14286SOL    HW246451   1.380   4.031   7.999  0.5773  0.7865 -0.4011
14287SOL     OW46452   2.556   3.035   3.886 -0.5631  0.0462  0.3743
14287SOL    HW146453   2.647   3.063   3.893  0.4520 -1.5984 -3.2973
14287SOL    HW246454   2.531   3.011   3.975  1.9979  2.0614  1.7910
14288SOL     OW46455   0.036   8.085   9.466 -0.0444 -1.0005 -1.0373
14288SOL    HW146456  -0.015   8.149   9.517  1.1503 -0.7226 -0.1403
14288SOL    HW246457   0.113   8.134   9.436 -1.1282 -0.8771 -3.9948
14289SOL     OW46458   6.936   5.319   9.979  0.4467 -0.1600 -0.2811
14289SOL    HW146459   6.913   5.266  10.055  0.7810  1.0724  0.7095
14289SOL    HW246460   7.029   5.303   9.966  0.4312 -0.2187 -0.3212
14290SOL     OW46461   3.008   5.388   3.003  0.1101  0.2541 -0.7579
14290SOL    HW146462   3.024   5.295   3.015 -0.2710  0.2675 -0.0673
14290SOL    HW246463   3.019   5.403   2.910 -0.1090 -0.5410 -0.9161
14291SOL     OW46464   6.550  10.787   5.107 -0.5849 -0.3565  0.7283
14291SOL    HW146465   6.497  10.728   5.053  0.1130  1.1902 -1.8262
14291SOL    HW246466   6.613  10.729   5.151  0.3157 -1.5967 -1.9423
14292SOL     OW46467   3.291   9.269   4.438 -0.0021  0.6842  0.2236
14292SOL    HW146468   3.264   9.298   4.525  0.0901  1.7658 -0.0859
14292SOL    HW246469   3.212   9.231   4.400 -0.6442  2.1871 -0.0134
14293SOL     OW46470   9.592   5.857   1.671  0.5326 -0.4836  0.3454
14293SOL    HW146471   9.611   5.815   1.588  0.3473 -1.4166  0.7609
14293SOL    HW246472   9.514   5.910   1.653 -0.9917 -2.5244  0.4477
14294SOL     OW46473   1.039   2.584  10.721 -0.1206  0.1198 -0.2189
14294SOL    HW146474   1.107   2.649  10.702 -0.1389  1.1366  2.7179
14294SOL    HW246475   0.961   2.636  10.740 -0.7266 -0.8775  0.0875
14295SOL     OW46476   4.889   2.887   9.387 -0.2143  0.4612  0.2404
14295SOL    HW146477   4.894   2.877   9.482  0.2157 -2.0065  0.0285
14295SOL    HW246478   4.973   2.853   9.355 -0.6028  0.6542 -1.0491
14296SOL     OW46479   6.724   4.905   2.295 -0.0626 -0.2466  0.1571
14296SOL    HW146480   6.784   4.875   2.226  2.0030  0.8202  1.3767
14296SOL    HW246481   6.753   4.859   2.374 -2.1257 -1.1407  0.4553
14297SOL     OW46482   5.063   3.259   1.220 -0.0561 -0.0197 -0.4012
14297SOL    HW146483   5.125   3.324   1.186 -0.6131  1.0831  0.5902
14297SOL    HW246484   5.114   3.205   1.279  0.1466  0.3684 -0.2151
14298SOL     OW46485   2.285  10.163   2.570  0.0932  0.6845 -0.0158
14298SOL    HW146486   2.194  10.183   2.549 -0.1437 -0.4864 -0.1575
14298SOL    HW246487   2.330  10.247   2.561 -0.8303  1.1295 -0.7073
14299SOL     OW46488   6.308   6.405   5.607 -0.3140 -0.6249 -0.0316
14299SOL    HW146489   6.231   6.433   5.557  0.5038  0.8367 -0.5284
14299SOL    HW246490   6.289   6.434   5.697 -0.0288  0.4409 -0.3026
14300SOL     OW46491   7.487   1.797  10.112 -0.5579  0.2836  0.2855
14300SOL    HW146492   7.411   1.767  10.163 -1.5849  0.0540 -1.3227
14300SOL    HW246493   7.533   1.716  10.088 -1.7264  0.1364 -1.6099
14301SOL     OW46494   8.208   3.676   3.896  0.1443  0.1228  0.4581
14301SOL    HW146495   8.122   3.718   3.889 -0.4144 -0.8350  1.3340
14301SOL    HW246496   8.229   3.648   3.807  0.0054  1.2160  0.0633
14302SOL     OW46497   6.018  10.197   8.175  0.1482  0.4135 -0.2982
14302SOL    HW146498   6.053  10.251   8.105  0.9181  1.5199  0.8884
14302SOL    HW246499   6.094  10.152   8.212 -0.2490 -0.1795 -0.1888
14303SOL     OW46500   4.253   7.499  10.618  0.4299  0.5552  0.4752
14303SOL    HW146501   4.305   7.527  10.693 -0.2334 -0.0884  1.1913
14303SOL    HW246502   4.251   7.404  10.624  0.7825  0.4630 -0.6562
14304SOL     OW46503   0.950  10.648   3.522  0.4953 -0.0050 -0.0551
14304SOL    HW146504   0.972  10.587   3.593  0.8782 -0.5193 -0.5986
14304SOL    HW246505   1.014  10.628   3.453  0.0926  0.4406 -0.5686
14305SOL     OW46506   8.972   8.691   9.383  0.0112  0.0941  0.4655
14305SOL    HW146507   9.062   8.660   9.374  0.2467  0.9626 -0.2074
14305SOL    HW246508   8.961   8.755   9.314 -0.9298  0.4677  0.9436
14306SOL     OW46509  10.665   0.797   1.633 -0.3448 -0.2766  0.1182
14306SOL    HW146510  10.694   0.726   1.576  0.4028 -1.1104  1.4974
14306SOL    HW246511  10.653   0.757   1.719 -0.2044  1.1948  0.8665
14307SOL     OW46512   8.072   9.023   3.094 -0.3106  0.0104 -0.3296
14307SOL    HW146513   8.136   8.982   3.036 -0.2925 -1.4756  0.6747
14307SOL    HW246514   8.007   8.954   3.110 -1.9028  1.3071 -0.8935
14308SOL     OW46515   2.099   7.974   7.668  0.8980 -0.5070  0.4418
14308SOL    HW146516   2.185   7.990   7.708  0.8347 -2.2145  1.3820
14308SOL    HW246517   2.117   7.909   7.599  0.6351  0.6287 -0.7330
14309SOL     OW46518   2.998   3.593   8.584  0.3078  0.8462 -0.3836
14309SOL    HW146519   3.073   3.640   8.548  1.7884 -0.5169  0.7526
14309SOL    HW246520   2.968   3.647   8.657  0.1526  1.4195 -0.8673
14310SOL     OW46521   6.822   9.906   9.037  0.5304 -0.2935  0.2781
14310SOL    HW146522   6.806   9.968   8.966  0.3221  0.7451  1.1923
14310SOL    HW246523   6.910   9.873   9.021 -0.3287 -1.8546 -1.7212
14311SOL     OW46524   4.393   6.971   0.527  0.1630 -0.4782  0.4374
14311SOL    HW146525   4.485   6.998   0.519  0.5695 -2.3314 -2.4298
14311SOL    HW246526   4.393   6.879   0.504 -2.5797 -0.2534 -0.8037
14312SOL     OW46527  10.867   0.530   1.160  0.2078 -0.7347  0.7266
14312SOL    HW146528  10.775   0.525   1.188  0.4022 -0.6510  1.3981
14312SOL    HW246529  10.881   0.451   1.109 -0.9047  0.3816 -1.4415
14313SOL     OW46530   8.682   5.558   5.208  0.0922  0.3440 -0.0200
14313SOL    HW146531   8.758   5.615   5.225  0.3300 -0.6687  2.8594
14313SOL    HW246532   8.613   5.595   5.263 -0.3575 -0.9254  0.2845
14314SOL     OW46533   4.303  10.359   0.855  0.6140 -0.3950  0.0493
14314SOL    HW146534   4.240  10.361   0.928 -0.1945  0.0243 -0.6392
14314SOL    HW246535   4.378  10.409   0.887 -0.3030  0.9819  0.1019
14315SOL     OW46536  10.818   3.144   2.089 -0.1541  0.3142 -0.0047
14315SOL    HW146537  10.891   3.097   2.049  1.8590  0.5050  3.0845
14315SOL    HW246538  10.740   3.099   2.057  1.5285 -3.0615  0.2551
14316SOL     OW46539   3.737   5.866   7.882  0.6691  0.4299  0.2489
14316SOL    HW146540   3.673   5.925   7.922  1.6952  2.6397 -1.1706
14316SOL    HW246541   3.684   5.808   7.827 -0.4034 -0.2528  1.9489
14317SOL     OW46542   5.289   6.547   3.657 -0.1832 -0.0433 -0.0831
14317SOL    HW146543   5.326   6.507   3.735 -1.4458  1.1621  1.2068
14317SOL    HW246544   5.319   6.638   3.660 -0.8242  0.1971 -0.6165
14318SOL     OW46545   6.862  10.540   6.430 -0.1299  0.0963  0.1121
14318SOL    HW146546   6.813  10.618   6.459 -0.0413  0.2127 -0.0467
14318SOL    HW246547   6.874  10.554   6.336  0.6205  0.2974  0.2275
14319SOL     OW46548   2.647   9.029   2.573 -0.0006 -0.4772 -0.2323
14319SOL    HW146549   2.618   9.109   2.528 -2.3604 -0.2498  1.4779
14319SOL    HW246550   2.714   9.060   2.635  0.5231 -0.1756 -0.9368
14320SOL     OW46551   3.218   2.035   7.746 -0.1851 -0.3599  0.1292
14320SOL    HW146552   3.176   2.034   7.832  0.0684 -1.2342  0.2473
14320SOL    HW246553   3.237   2.128   7.730 -0.6328 -0.1442  0.8172
14321SOL     OW46554   9.651   9.140   9.496  0.5766 -0.0753  0.0575
14321SOL    HW146555   9.588   9.209   9.474  2.3706  1.0613 -2.0618
14321SOL    HW246556   9.704   9.178   9.566 -0.0774 -0.4025  0.7426
14322SOL     OW46557   6.188   9.756  10.332  0.0544 -0.1596 -0.0753
14322SOL    HW146558   6.161   9.689  10.396 -0.7858  1.2386  1.1128
14322SOL    HW246559   6.196   9.836  10.384 -0.9772  1.1125 -1.7810
14323SOL     OW46560   9.418   7.958   1.506  0.3324  0.5084 -0.2599
14323SOL    HW146561   9.442   7.937   1.596 -1.9663 -0.1983  0.2566
14323SOL    HW246562   9.484   7.914   1.453 -0.3248 -2.2782  1.0337
14324SOL     OW46563   4.989   1.013   8.646  0.5943  0.1157  0.1749
14324SOL    HW146564   4.953   1.082   8.702  0.9635 -0.0757  0.6519
14324SOL    HW246565   5.003   1.056   8.561  0.7305  0.5970  0.4376
14325SOL     OW46566  10.929   9.887   4.807  0.2851 -0.5262  0.3644
14325SOL    HW146567  10.966   9.940   4.737  0.3552 -0.6981  0.2685
14325SOL    HW246568  10.834   9.901   4.801  0.3066 -0.3819  0.3667
14326SOL     OW46569   6.343   6.716   6.236 -0.0481 -0.3318 -0.3693
14326SOL    HW146570   6.320   6.703   6.328  0.1531 -1.6300 -0.4825
14326SOL    HW246571   6.438   6.729   6.236  0.0439 -0.9778 -0.4452
14327SOL     OW46572  10.822  10.529  10.160  0.5257 -1.0768  0.1669
14327SOL    HW146573  10.811  10.569  10.247 -0.2181 -1.2391  0.1528
14327SOL    HW246574  10.899  10.573  10.123  0.9490 -1.1193  0.9702
14328SOL     OW46575   3.542   2.334   5.216 -0.4656 -0.0465 -0.6756
14328SOL    HW146576   3.504   2.269   5.276 -1.6418  1.0200 -0.2131
14328SOL    HW246577   3.627   2.355   5.255 -0.8934  0.0767  0.2158
14329SOL     OW46578   4.650   9.525   7.117 -0.0635  0.0687  0.6098
14329SOL    HW146579   4.710   9.529   7.042 -0.0318  0.7623  0.6711
14329SOL    HW246580   4.685   9.454   7.171  0.1829 -0.1245  0.2001
14330SOL     OW46581  10.154   4.976   8.014  0.1649  0.0448 -0.0395
14330SOL    HW146582  10.233   4.970   7.960  0.3897  0.5995  0.2167
14330SOL    HW246583  10.097   5.037   7.966  0.2928  0.3994  0.2512
14331SOL     OW46584   9.910   6.641   3.426 -0.0018 -0.1798  0.2392
14331SOL    HW146585   9.898   6.613   3.517  1.5975  1.6130  1.0822
14331SOL    HW246586   9.881   6.732   3.426 -3.8603 -1.1874 -2.0798
14332SOL     OW46587   0.115   5.703   5.734  0.3061 -0.6801  0.1159
14332SOL    HW146588   0.074   5.625   5.772  0.6743 -0.6130  0.6588
14332SOL    HW246589   0.082   5.776   5.787  0.5040 -0.5377  0.0435
14333SOL     OW46590   0.584   8.706   9.455  0.4217  0.6862  0.1488
14333SOL    HW146591   0.549   8.741   9.537  0.7606 -0.6708  0.9032
14333SOL    HW246592   0.577   8.778   9.393 -1.0248  1.3514  1.0321
14334SOL     OW46593   3.109   8.873   7.161 -0.5309 -0.0773  0.8686
14334SOL    HW146594   3.202   8.859   7.176 -0.6384 -1.0278  0.7618
14334SOL    HW246595   3.070   8.864   7.248 -0.5271  0.2567  0.9038
14335SOL     OW46596   4.074   6.046   9.984 -0.5535  0.1453 -0.3553
14335SOL    HW146597   4.102   5.995   9.908  0.0683 -0.0525 -0.0007
14335SOL    HW246598   4.005   5.993  10.025 -1.1852  0.4444 -1.0030
14336SOL     OW46599   7.854   5.746   8.882  0.8329  0.0700 -0.2154
14336SOL    HW146600   7.899   5.672   8.841 -1.2750 -1.6744  0.4687
14336SOL    HW246601   7.778   5.762   8.826 -1.2115 -1.3220  1.9697
14337SOL     OW46602   5.995   0.353   8.314  0.4220 -0.4615  0.3635
14337SOL    HW146603   5.919   0.298   8.334  0.5556 -0.7484  0.0888
14337SOL    HW246604   6.071   0.297   8.332  0.5429 -0.9204 -1.4357
14338SOL     OW46605   4.688   1.948   9.767  0.6625  0.1945  0.3853
14338SOL    HW146606   4.774   1.920   9.799  1.0361 -1.7421 -1.9696
14338SOL    HW246607   4.708   2.002   9.691 -0.2093  0.6167  0.4471
14339SOL     OW46608   0.322   1.710   9.214 -0.3654  0.3829  0.3259
14339SOL    HW146609   0.254   1.704   9.147 -0.4199  0.8126  0.3366
14339SOL    HW246610   0.320   1.626   9.259  0.3039 -0.2784 -0.8274
14340SOL     OW46611  10.782   0.899   3.897  0.7030 -0.3935  0.0422
14340SOL    HW146612  10.784   0.994   3.912 -0.2463 -0.3590  0.0021
14340SOL    HW246613  10.852   0.883   3.834 -0.5830  0.6075 -1.7242
14341SOL     OW46614  10.758   0.895   7.334  0.2013  0.0357 -0.0384
14341SOL    HW146615  10.851   0.918   7.330  0.4974 -1.2028 -0.6203
14341SOL    HW246616  10.729   0.928   7.419  1.1242  0.5952  0.0725
14342SOL     OW46617   7.201   2.677   3.131  0.2059 -0.2448 -0.2114
14342SOL    HW146618   7.120   2.626   3.132  0.0301  0.0005 -0.9768
14342SOL    HW246619   7.226   2.684   3.223  0.4187 -1.9807 -0.1091
14343SOL     OW46620   9.073   9.217   5.675 -0.0357  0.2149 -0.1640
14343SOL    HW146621   9.102   9.202   5.765 -0.6259 -0.5430 -0.0878
14343SOL    HW246622   9.007   9.149   5.659 -1.8346  1.8979 -0.2955
14344SOL     OW46623   0.416   4.389   4.094 -0.2366 -0.1188  0.4524
14344SOL    HW146624   0.358   4.451   4.138 -1.8691 -1.0947 -0.2322
14344SOL    HW246625   0.388   4.391   4.002  1.3521 -0.0653 -0.0572
14345SOL     OW46626   5.820   2.988   6.693 -0.0888 -0.3045 -0.1446
14345SOL    HW146627   5.799   2.917   6.753  2.5054 -1.4241 -0.4431
14345SOL    HW246628   5.828   3.065   6.750  1.7135 -1.2234  0.9361
14346SOL     OW46629   0.738   2.921   1.766  0.2135 -0.1005  0.3162
14346SOL    HW146630   0.783   2.926   1.850 -0.5846 -2.2822  0.9356
14346SOL    HW246631   0.805   2.894   1.704  0.4467 -0.1617  0.5960
14347SOL     OW46632   6.212   7.151   7.108  0.3804  0.1158  1.3590
14347SOL    HW146633   6.126   7.116   7.128  0.5685 -0.6246  0.9146
14347SOL    HW246634   6.209   7.172   7.015  0.4562  0.7549  1.4970
14348SOL     OW46635   6.711   2.588   8.051  0.1289 -0.1080  0.1413
14348SOL    HW146636   6.669   2.513   8.094  1.8310 -1.3332 -0.2265
14348SOL    HW246637   6.683   2.663   8.103 -0.8202 -1.1001  1.1410
14349SOL     OW46638   8.387  10.660   2.578 -0.0427  0.0716 -0.0365
14349SOL    HW146639   8.371  10.574   2.616 -1.5524  0.2711 -0.1615
14349SOL    HW246640   8.480  10.658   2.553  0.3626 -0.9241  1.4111
14350SOL     OW46641   0.637  10.084   3.031 -0.0660  0.2401  0.5357
14350SOL    HW146642   0.558  10.090   3.084 -0.9109 -0.0769 -0.6473
14350SOL    HW246643   0.706  10.057   3.093 -1.4643 -2.3230  1.0840
14351SOL     OW46644   4.118   9.223   6.028 -0.5055 -0.2451 -0.1304
14351SOL    HW146645   4.139   9.275   6.106 -0.0937  0.7005 -0.8517
14351SOL    HW246646   4.048   9.165   6.057  0.9836 -1.3270  1.4870
14352SOL     OW46647   5.873   6.433   0.124 -0.0864 -0.0959 -0.3750
14352SOL    HW146648   5.883   6.396   0.211 -0.7962 -0.7149 -0.5414
14352SOL    HW246649   5.863   6.357   0.066  3.2360  0.1228 -1.4520
14353SOL     OW46650  10.040   6.971   9.842  0.0540 -0.7305 -0.0407
14353SOL    HW146651  10.032   7.066   9.834  2.0907 -0.5965 -0.9715
14353SOL    HW246652   9.979   6.948   9.912  2.1144  1.7184  2.7841
14354SOL     OW46653   2.008  10.431   1.493  0.1867 -0.8210 -0.2922
14354SOL    HW146654   1.925  10.459   1.531 -0.1724 -0.9850 -0.9362
14354SOL    HW246655   2.032  10.502   1.433 -0.2743 -1.4505 -1.2582
14355SOL     OW46656   0.787   6.927  10.620 -0.3384 -0.3005 -0.0589
14355SOL    HW146657   0.731   6.850  10.621  0.4237 -0.8973  2.1890
14355SOL    HW246658   0.750   6.985  10.687 -0.2899  0.8466 -0.9932
14356SOL     OW46659   9.063  10.150   5.948  0.4219 -0.2778  0.3515
14356SOL    HW146660   9.085  10.242   5.965  3.4068 -1.0455  1.3593
14356SOL    HW246661   8.974  10.140   5.982 -0.0972  2.2659 -0.0239
14357SOL     OW46662   7.630   3.471  10.741 -0.5918  0.3216  0.8037
14357SOL    HW146663   7.700   3.407  10.751 -0.6304 -0.1643 -1.5985
14357SOL    HW246664   7.673   3.548  10.703 -1.1508  0.4658  0.4515
14358SOL     OW46665   8.037   8.309   8.206 -0.2816 -0.7165  1.0190
14358SOL    HW146666   7.974   8.266   8.264 -1.9659 -0.0994 -0.2739
14358SOL    HW246667   7.985   8.369   8.154  1.2128 -0.9936 -0.9115
14359SOL     OW46668   8.583   8.313   9.673  0.4044 -0.4890 -0.5271
14359SOL    HW146669   8.540   8.351   9.750  3.7345  0.2116  1.1603
14359SOL    HW246670   8.568   8.377   9.603 -0.8603 -0.0732  0.0981
14360SOL     OW46671   3.490   2.862   2.824  0.1620  0.4788  0.3430
14360SOL    HW146672   3.584   2.857   2.842  0.5330 -0.7575 -1.5439
14360SOL    HW246673   3.452   2.792   2.877  0.5535 -0.0578 -0.0691
14361SOL     OW46674   6.834   7.977   3.491  0.5750 -0.2201  0.7648
14361SOL    HW146675   6.867   7.889   3.471 -0.5591 -0.3243 -0.8675
14361SOL    HW246676   6.776   7.964   3.566 -2.9552 -1.7672 -1.9463
14362SOL     OW46677   2.914   9.019   2.722 -0.1440 -0.0571 -1.1119
14362SOL    HW146678   2.928   8.925   2.736 -0.7678 -0.1954 -1.3694
14362SOL    HW246679   2.989   9.047   2.669  0.9833 -0.0271  0.4312
14363SOL     OW46680   7.009   8.756  10.413  0.3739 -0.1864  0.2939
14363SOL    HW146681   7.046   8.689  10.356  0.4595 -0.1300  0.2828
14363SOL    HW246682   7.080   8.819  10.425 -0.1550  0.6830 -0.9109
14364SOL     OW46683   6.444  10.927   0.710 -0.0052  0.0223 -0.3157
14364SOL    HW146684   6.426  10.886   0.626 -1.3141 -0.6680  0.2660
14364SOL    HW246685   6.397  10.873   0.774 -1.5727  2.2197  0.5198
14365SOL     OW46686   6.794   1.580   4.567  0.1717 -0.2357  0.1491
14365SOL    HW146687   6.857   1.622   4.510 -0.9564  1.2630 -0.0505
14365SOL    HW246688   6.808   1.486   4.554  2.3880  0.0367  0.2013
14366SOL     OW46689   8.528  10.347   5.395 -0.1694 -0.1545 -0.3042
14366SOL    HW146690   8.521  10.389   5.309  1.7138 -0.9547 -0.8966
14366SOL    HW246691   8.521  10.253   5.376 -1.6820 -0.2635  0.6790
14367SOL     OW46692   8.651   7.023   2.380 -0.2132  0.1916 -0.2216
14367SOL    HW146693   8.581   7.051   2.439 -0.7220 -2.3855  0.5415
14367SOL    HW246694   8.707   6.968   2.435  1.8678  1.3324 -1.0912
14368SOL     OW46695   3.966   3.471   8.231 -0.0502 -0.2209  0.3120
14368SOL    HW146696   3.988   3.401   8.292 -2.3390 -1.7133 -0.4339
14368SOL    HW246697   4.009   3.446   8.149 -0.5685 -0.5969  0.1463
14369SOL     OW46698   3.208   6.382   2.753  0.1477 -0.0540 -0.7657
14369SOL    HW146699   3.117   6.412   2.759  0.2949  0.8389 -2.4267
14369SOL    HW246700   3.231   6.358   2.842 -1.1054  1.5538  0.0459
14370SOL     OW46701   0.489   0.047   5.949  0.0144 -0.3284 -0.1831
14370SOL    HW146702   0.481   0.001   6.032 -0.2528 -0.9294 -0.5402
14370SOL    HW246703   0.568   0.012   5.909 -0.2354 -0.5461 -0.4930
14371SOL     OW46704   6.180   3.314   3.728 -0.5970  0.1051 -0.0912
14371SOL    HW146705   6.274   3.328   3.734 -0.5023 -0.5173 -0.0467
14371SOL    HW246706   6.166   3.288   3.637 -0.7548  0.3967 -0.1513
14372SOL     OW46707   3.114   8.523   6.505 -0.0400 -0.4660 -0.4002
14372SOL    HW146708   3.154   8.509   6.419  0.3073 -1.6185 -0.0720
14372SOL    HW246709   3.026   8.486   6.498 -0.0961 -0.3478 -0.3290
14373SOL     OW46710   6.176   6.264   4.618 -0.1256  0.3455 -0.9330
14373SOL    HW146711   6.178   6.306   4.532  0.5348 -0.1802 -1.1869
14373SOL    HW246712   6.226   6.323   4.675 -0.6158  0.7238 -0.8949
14374SOL     OW46713   0.004   8.356   6.703  0.0370  0.2626  0.4477
14374SOL    HW146714  -0.026   8.440   6.738 -0.0988  0.9814 -1.2641
14374SOL    HW246715   0.023   8.302   6.780 -0.1948  1.7464  1.5763
14375SOL     OW46716   4.575   4.388   3.932 -0.4920 -0.2084 -0.3428
14375SOL    HW146717   4.644   4.344   3.981 -0.5859 -0.9605 -0.8730
14375SOL    HW246718   4.606   4.478   3.923  1.2339 -0.8843 -1.9897
14376SOL     OW46719   9.984   0.399   0.350  0.2177  0.8080 -0.0088
14376SOL    HW146720   9.921   0.428   0.415  0.2101 -0.5586  0.6303
14376SOL    HW246721  10.062   0.375   0.400 -0.3637 -1.8596 -0.2495
14377SOL     OW46722  10.646   0.320   1.254 -0.1160  0.2073 -0.1739
14377SOL    HW146723  10.632   0.228   1.275 -3.8178  0.7100  0.3744
14377SOL    HW246724  10.630   0.366   1.336 -0.4237  1.4161 -0.8821
14378SOL     OW46725   3.942   7.497   7.950 -0.3492  0.1491 -0.1214
14378SOL    HW146726   4.007   7.530   7.887  0.1070 -1.8791 -0.7964
14378SOL    HW246727   3.977   7.412   7.976 -1.9094 -0.2202  0.8336
14379SOL     OW46728  10.363   9.785   6.897  0.6210 -0.2546 -0.4848
14379SOL    HW146729  10.305   9.718   6.932  1.5280 -1.1906 -0.7336
14379SOL    HW246730  10.351   9.860   6.955  0.1766 -0.8925  0.2567
14380SOL     OW46731   6.866   1.261   9.688  0.0726 -0.1244  0.4153
14380SOL    HW146732   6.902   1.238   9.603 -0.2823  0.8397 -0.0021
14380SOL    HW246733   6.935   1.240   9.750  1.3385  1.6245 -0.3501
14381SOL     OW46734   0.392   6.915  10.837  0.6040 -0.2849 -0.1865
14381SOL    HW146735   0.463   6.871  10.884  2.3344 -1.0700 -3.2345
14381SOL    HW246736   0.313   6.870  10.867  1.6889 -1.4006  1.1682
14382SOL     OW46737   3.565   4.207   7.877 -0.8106 -0.4982  0.4281
14382SOL    HW146738   3.550   4.273   7.944 -0.0465  0.2874 -0.1469
14382SOL    HW246739   3.541   4.250   7.795  1.2000 -0.3505 -0.1410
14383SOL     OW46740   1.480   8.348   0.952  0.6978  0.9453  0.1504
14383SOL    HW146741   1.390   8.366   0.925  0.7968  0.9493 -0.1822
14383SOL    HW246742   1.529   8.341   0.869  0.8354  0.0610  0.2996
14384SOL     OW46743   2.538   6.446  10.164  0.0470  0.4117  0.2356
14384SOL    HW146744   2.467   6.428  10.102  0.1751 -0.8527  0.4395
14384SOL    HW246745   2.563   6.537  10.145 -1.0785  0.6167 -0.3809
14385SOL     OW46746   2.680   8.901  10.193 -0.2545  0.1917 -0.1972
14385SOL    HW146747   2.743   8.837  10.226 -0.3978  0.9729  1.7280
14385SOL    HW246748   2.655   8.868  10.107  2.1724 -0.5659 -0.7081
14386SOL     OW46749   8.762   2.203   8.588  0.8333  0.4877 -0.0838
14386SOL    HW146750   8.842   2.252   8.610  1.3599 -0.6008  0.4710
14386SOL    HW246751   8.765   2.126   8.644 -0.0921 -0.0816 -0.8009
14387SOL     OW46752   6.470   2.946   1.991  0.4693  0.1577 -0.1252
14387SOL    HW146753   6.423   2.915   2.068  1.3357  1.7660  1.1074
14387SOL    HW246754   6.419   2.912   1.917  0.3952 -2.6215  1.0904
14388SOL     OW46755   7.558   1.181   3.657 -0.1117 -0.4861 -0.5654
14388SOL    HW146756   7.577   1.163   3.565 -0.1304 -1.1668 -0.4458
14388SOL    HW246757   7.471   1.222   3.656 -1.4781 -3.1476 -0.6726
14389SOL     OW46758   0.379   9.682   3.579  0.2787  0.6192  0.0273
14389SOL    HW146759   0.298   9.685   3.629 -0.1442  1.5453 -0.6767
14389SOL    HW246760   0.408   9.773   3.576  1.2350  0.3290  0.0816
14390SOL     OW46761   9.294   4.331   9.399 -0.4280 -0.0087  0.1425
14390SOL    HW146762   9.306   4.388   9.323  0.9638 -0.2537  0.1387
14390SOL    HW246763   9.200   4.324   9.410 -0.6732 -0.3180 -1.8265
14391SOL     OW46764   8.658   4.930   3.191 -0.4109  0.0854  0.6320
14391SOL    HW146765   8.675   4.956   3.100 -1.2359  0.5349  0.6020
14391SOL    HW246766   8.637   5.011   3.236  1.0131  0.0157  1.4836
14392SOL     OW46767  11.008   4.256  10.410  0.2738 -0.8711 -0.0569
14392SOL    HW146768  10.932   4.304  10.442  1.0134 -0.0416  0.4579
14392SOL    HW246769  11.047   4.313  10.344  0.1028 -1.5723 -0.7947
14393SOL     OW46770   2.697   4.136   7.042 -0.3643  0.4656  0.0036
14393SOL    HW146771   2.642   4.130   7.120  0.0852  0.5555  0.3312
14393SOL    HW246772   2.683   4.225   7.009 -0.5810  0.4156 -0.0349
14394SOL     OW46773   3.185   2.599   4.449 -0.7215  0.1393 -0.0099
14394SOL    HW146774   3.116   2.626   4.510 -0.1937  1.0160  0.2093
14394SOL    HW246775   3.159   2.640   4.366  0.3772  1.8886  0.4519
14395SOL     OW46776   8.975  10.091   4.307  0.5218  0.1916 -0.6226
14395SOL    HW146777   8.965  10.002   4.340  0.3702  0.9357  1.4672
14395SOL    HW246778   9.070  10.102   4.297  0.6859  0.3605  0.8828
14396SOL     OW46779   3.994   9.586   6.746 -0.2709 -0.0047  0.1775
14396SOL    HW146780   4.056   9.654   6.721  1.2666 -1.4980 -0.2675
14396SOL    HW246781   3.908   9.622   6.723  0.7172  0.4266 -3.4939
14397SOL     OW46782   0.297   3.470   0.091 -0.0763  0.4232  1.0324
14397SOL    HW146783   0.360   3.398   0.100 -0.0148  0.2369 -0.5836
14397SOL    HW246784   0.226   3.447   0.151  0.7023 -0.1336  1.7632
14398SOL     OW46785   9.982   1.726   7.713  0.0473 -0.0109 -0.7649
14398SOL    HW146786   9.947   1.714   7.624  1.0688 -0.9625 -1.0668
14398SOL    HW246787  10.076   1.739   7.700 -0.0114  1.3965  0.0915
14399SOL     OW46788  10.502   7.065   1.906 -0.3711 -0.6001 -0.1771
14399SOL    HW146789  10.507   6.996   1.840 -0.6917 -1.0983  0.3105
14399SOL    HW246790  10.462   7.022   1.982 -0.0538 -0.0225  0.3194
14400SOL     OW46791   0.415   9.559   6.988 -0.4507 -0.1668  0.1752
14400SOL    HW146792   0.342   9.526   6.935 -1.7170  0.4160  1.4953
14400SOL    HW246793   0.490   9.558   6.929 -1.8285  0.5626 -1.6704
14401SOL     OW46794   1.707   3.204   3.519 -0.0693 -0.4592  0.1133
14401SOL    HW146795   1.635   3.224   3.459  0.8884  1.4219 -0.5127
14401SOL    HW246796   1.786   3.232   3.472  0.8968 -0.7315  1.5047
14402SOL     OW46797   8.984   9.892   6.272 -0.5110 -0.5584 -0.0043
14402SOL    HW146798   8.930   9.960   6.311 -0.3704 -0.9131  0.8424
14402SOL    HW246799   8.965   9.896   6.179  0.9232  1.9179 -0.2901
14403SOL     OW46800   6.814   9.394   6.753  0.3041  0.0165 -0.1704
14403SOL    HW146801   6.749   9.325   6.736  0.5114 -0.3649  0.5502
14403SOL    HW246802   6.768   9.475   6.733 -0.9391 -0.1359  1.8278
14404SOL     OW46803   5.826  10.500   5.539  0.2732  0.4685 -0.0936
14404SOL    HW146804   5.818  10.574   5.479 -0.4142  0.2147 -0.3273
14404SOL    HW246805   5.877  10.435   5.490 -0.2834  0.2629 -0.4073
14405SOL     OW46806   5.492   8.239   3.501  0.4638  0.0383  0.0485
14405SOL    HW146807   5.582   8.254   3.530  1.0464  0.2800 -1.7240
14405SOL    HW246808   5.476   8.309   3.437 -1.3994  0.6715  1.1350
14406SOL     OW46809   1.922   9.321   1.093  0.5460  0.0572 -0.4267
14406SOL    HW146810   1.876   9.343   1.012  0.8102  0.1604 -0.5517
14406SOL    HW246811   2.015   9.331   1.071  0.7154 -1.7774 -0.6629
14407SOL     OW46812  10.982   2.475   6.565  0.0714 -0.2035  0.6326
14407SOL    HW146813  11.037   2.446   6.637 -3.4540 -1.5318  3.0512
14407SOL    HW246814  10.957   2.565   6.589  0.9516  0.3351 -0.3710
14408SOL     OW46815   0.998   0.640   2.645  0.8045 -0.4233 -0.3214
14408SOL    HW146816   0.989   0.704   2.716  0.7305  0.1777 -0.8570
14408SOL    HW246817   1.003   0.694   2.566  1.7946 -1.0384 -0.6932
14409SOL     OW46818   1.261   0.562   1.068 -0.0287  0.1049 -0.2509
14409SOL    HW146819   1.259   0.572   0.973 -0.2162  1.0063 -0.1603
14409SOL    HW246820   1.346   0.523   1.087 -0.5557 -1.4068 -0.8978
14410SOL     OW46821   9.238   5.467  10.264  0.6207 -0.1475 -0.2381
14410SOL    HW146822   9.322   5.470  10.217 -0.1084 -0.7807 -1.6307
14410SOL    HW246823   9.242   5.387  10.315  0.7588 -0.3161 -0.5090
14411SOL     OW46824   6.700   8.604   6.657 -0.4682  0.2243 -0.1529
14411SOL    HW146825   6.630   8.546   6.628 -0.5102 -0.0641  0.5111
14411SOL    HW246826   6.780   8.552   6.647 -0.5115  0.0254  0.4937
14412SOL     OW46827   6.441   8.043   2.628  0.3853  0.4120 -0.1253
14412SOL    HW146828   6.423   7.972   2.690 -2.5502 -0.0877 -1.4063
14412SOL    HW246829   6.479   8.112   2.683  0.1819 -0.8829  1.7688
14413SOL     OW46830   8.521   0.055   8.548  0.8728 -0.7379 -0.3979
14413SOL    HW146831   8.512   0.058   8.452  0.1182 -0.3746 -0.3199
14413SOL    HW246832   8.586   0.121   8.568  0.7386 -0.5348 -0.6267
14414SOL     OW46833   7.271   8.423   0.884 -0.4173  0.5497 -0.3512
14414SOL    HW146834   7.201   8.359   0.873 -0.7909  0.9377 -0.2466
14414SOL    HW246835   7.346   8.384   0.839 -1.3440  1.1888 -2.6421
14415SOL     OW46836   5.925  11.004   3.867 -0.2908  0.1249  0.8439
14415SOL    HW146837   6.010  10.963   3.882 -0.2873 -1.1567 -2.0324
14415SOL    HW246838   5.871  10.935   3.828 -0.7729  2.2983 -2.8049
14416SOL     OW46839   5.811   4.093  10.928 -0.3805 -0.3074  0.2163
14416SOL    HW146840   5.819   4.001  10.903 -0.5690  0.0751 -1.3330
14416SOL    HW246841   5.856   4.098  11.013  1.6291 -1.4012 -0.6936
14417SOL     OW46842   3.389   9.337   8.602  0.7777  0.1652  0.8235
14417SOL    HW146843   3.346   9.392   8.537  0.0333 -0.6975  0.5684
14417SOL    HW246844   3.482   9.341   8.580  0.4010 -1.4398 -1.3550
14418SOL     OW46845   2.875   0.071   6.413  0.1618  0.1736  0.3103
14418SOL    HW146846   2.872   0.115   6.498  1.3622 -0.5351  0.7273
14418SOL    HW246847   2.798   0.105   6.367 -0.6865  0.3414  1.7746
14419SOL     OW46848   2.929   5.332   6.986 -0.2059 -0.8112 -0.1931
14419SOL    HW146849   2.860   5.397   6.998  0.7068 -0.2827  3.3707
14419SOL    HW246850   2.984   5.341   7.064  2.5280 -2.8490 -1.7128
14420SOL     OW46851   0.364   2.943   9.771  0.1686  0.3329 -0.1275
14420SOL    HW146852   0.324   3.016   9.722  1.2255  0.5610 -0.6708
14420SOL    HW246853   0.289   2.895   9.806 -0.6348  0.1822 -1.9331
14421SOL     OW46854   6.141   1.088   5.201 -0.1941  0.0806  0.3201
14421SOL    HW146855   6.141   1.173   5.245  0.8052 -0.9396  2.4153
14421SOL    HW246856   6.202   1.098   5.128 -0.1369  1.1628  0.5002
14422SOL     OW46857   4.846   9.874   9.458  0.0368 -0.3840 -0.2381
14422SOL    HW146858   4.941   9.861   9.460  0.3190  1.4107  1.2262
14422SOL    HW246859   4.832   9.929   9.381  0.2616 -0.2854 -0.2123
14423SOL     OW46860   9.068   4.071   8.894 -0.1172  0.1598 -0.0738
14423SOL    HW146861   9.102   4.051   8.982 -0.0979 -1.4972 -0.4116
14423SOL    HW246862   9.144   4.068   8.837 -0.2603  0.3416 -0.2774
14424SOL     OW46863   4.030   1.904   1.648 -0.6258 -0.2929 -0.0657
14424SOL    HW146864   3.972   1.829   1.656 -1.2906  0.3280  1.2336
14424SOL    HW246865   4.074   1.911   1.733 -1.4519  1.4606  0.2587
14425SOL     OW46866   4.407   1.628   6.751  0.2229 -0.1102 -0.1532
14425SOL    HW146867   4.313   1.614   6.750  0.0845  0.7461 -0.5917
14425SOL    HW246868   4.418   1.721   6.771  1.0723 -0.6831  2.4794
14426SOL     OW46869  10.188   2.301   1.193 -0.0875 -0.0423 -0.2071
14426SOL    HW146870  10.215   2.210   1.207  1.7480  0.6558  1.1168
14426SOL    HW246871  10.206   2.317   1.101 -1.7786 -1.3943 -0.8357
14427SOL     OW46872   6.397   8.388   3.215 -0.2977 -0.1880 -0.3861
14427SOL    HW146873   6.308   8.396   3.249  0.5710  1.3350  1.7171
14427SOL    HW246874   6.413   8.293   3.213 -2.2043 -0.5327 -1.6106
14428SOL     OW46875   4.919  10.829  10.149  0.2944 -0.3384 -0.5810
14428SOL    HW146876   4.839  10.782  10.175  0.5468 -0.5751 -0.2052
14428SOL    HW246877   4.947  10.873  10.230  0.9817 -0.9125 -0.5024
14429SOL     OW46878   3.028   0.410   6.457  0.0271 -0.3501  0.4774
14429SOL    HW146879   3.093   0.468   6.498  0.3916  1.1599 -1.9590
14429SOL    HW246880   2.988   0.363   6.529 -0.1868  2.8671  2.6543
14430SOL     OW46881   4.688  10.949   1.596 -0.2146  0.3350  0.7010
14430SOL    HW146882   4.619  10.933   1.661  0.8482  3.3489  2.8433
14430SOL    HW246883   4.746  10.874   1.603 -1.5417 -0.6848  1.2466
14431SOL     OW46884   9.236  10.143   4.215  0.3211 -0.8165  0.2438
14431SOL    HW146885   9.248  10.048   4.215  2.3894 -0.6026 -0.6731
14431SOL    HW246886   9.324  10.179   4.228 -0.4323  0.9911  0.7408
14432SOL     OW46887   2.354   6.022   7.375 -0.0893 -0.3201 -0.1747
14432SOL    HW146888   2.327   6.036   7.466  3.1119 -2.0178  1.1877
14432SOL    HW246889   2.333   5.931   7.357  2.4678 -1.0571  0.2036
14433SOL     OW46890   7.005   2.872   3.207  0.3371  0.5506  0.4477
14433SOL    HW146891   7.078   2.821   3.172  0.7618  2.1846 -1.2309
14433SOL    HW246892   6.935   2.863   3.142  0.3362  1.8342  0.2371
14434SOL     OW46893  10.765   7.009  10.327  0.0400 -0.6557  0.0524
14434SOL    HW146894  10.854   6.973  10.329  0.3502  0.1175  0.8023
14434SOL    HW246895  10.747   7.023  10.234  1.4183  0.8271 -0.0447
14435SOL     OW46896   9.991   3.129   5.331 -0.0726 -0.5398  0.1353
14435SOL    HW146897  10.029   3.067   5.393  1.0506  0.8890  0.9279
14435SOL    HW246898  10.054   3.132   5.259  1.0054  1.2157  1.0754
14436SOL     OW46899   0.097   5.427  10.600 -0.4279  0.2477  0.1547
14436SOL    HW146900   0.136   5.514  10.602 -0.7498  0.3873  0.8783
14436SOL    HW246901   0.130   5.387  10.520  3.0484 -0.5109  1.7660
14437SOL     OW46902   9.682   6.598   8.669 -0.0397 -0.1032 -0.5580
14437SOL    HW146903   9.678   6.680   8.620  0.0519  0.4192  0.2930
14437SOL    HW246904   9.599   6.595   8.717  0.0876 -0.3598 -0.3543
14438SOL     OW46905   0.803   1.639   3.629  0.0031 -0.0146  0.4251
14438SOL    HW146906   0.803   1.733   3.615 -0.7888  0.1020  1.0724
14438SOL    HW246907   0.713   1.619   3.657  0.4098 -0.8094  1.2334
14439SOL     OW46908   0.277   3.095   5.079  0.3265 -0.1037  0.4202
14439SOL    HW146909   0.257   3.166   5.140 -0.5781 -0.3266  0.3962
14439SOL    HW246910   0.355   3.053   5.115  0.5712  0.5807  0.7066
14440SOL     OW46911   7.698   1.349   5.709  0.0515  0.9988 -0.2398
14440SOL    HW146912   7.792   1.328   5.711 -0.4801 -1.7371  0.6245
14440SOL    HW246913   7.664   1.314   5.791 -2.2387 -1.2766 -1.9652
14441SOL     OW46914  10.431   8.699   2.751  0.1653 -0.1317  0.0131
14441SOL    HW146915  10.384   8.617   2.769 -0.9764  0.1020 -1.6688
14441SOL    HW246916  10.520   8.672   2.728 -0.1979 -0.9062 -0.5052
14442SOL     OW46917   7.386   3.609  10.076  0.1963  0.2684  0.0328
14442SOL    HW146918   7.405   3.516  10.064  1.3751  0.6116 -0.8966
14442SOL    HW246919   7.326   3.612  10.150  0.3610 -1.2084  0.2436
14443SOL     OW46920   1.690   5.483   9.244  0.4317  0.0395  0.2593
14443SOL    HW146921   1.735   5.534   9.311  2.2181 -2.3191  0.9734
14443SOL    HW246922   1.671   5.399   9.286  0.7148 -1.1648 -1.8740
14444SOL     OW46923   3.673  10.127   5.169 -0.3120  0.3662 -1.0406
14444SOL    HW146924   3.745  10.067   5.154  0.2697  1.0976 -1.2358
14444SOL    HW246925   3.712  10.214   5.160 -0.7940  0.8095  0.7433
14445SOL     OW46926   1.653   2.406   1.526 -0.1112 -0.2756 -0.2000
14445SOL    HW146927   1.710   2.480   1.546  0.0430 -0.8021  1.4107
14445SOL    HW246928   1.618   2.426   1.439  0.3031  1.4463 -0.0073
14446SOL     OW46929   8.063   9.605   5.079  0.5213  0.1810 -0.4539
14446SOL    HW146930   8.012   9.646   5.148 -0.0686 -0.6632 -0.3792
14446SOL    HW246931   8.060   9.668   5.006  0.7074  0.8329  0.0908
14447SOL     OW46932   8.585   3.281   3.747  0.4258  0.1809  0.0052
14447SOL    HW146933   8.537   3.307   3.668 -0.7040  0.4751  0.7551
14447SOL    HW246934   8.560   3.346   3.813 -0.4451 -1.3106  1.2161
14448SOL     OW46935   5.052   8.603   4.001  0.2101  0.1112 -0.4708
14448SOL    HW146936   5.022   8.512   4.011  0.2978 -0.0234 -1.3184
14448SOL    HW246937   5.126   8.597   3.941 -0.7164  0.8986 -1.7430
14449SOL     OW46938   8.646   2.837   7.282  0.2004  0.0599  0.7679
14449SOL    HW146939   8.737   2.809   7.278  0.5911  0.8773  2.7345
14449SOL    HW246940   8.640   2.886   7.364 -1.3922  2.2096 -0.5277
14450SOL     OW46941   8.698   9.587   6.647  0.4131  0.3750 -0.4116
14450SOL    HW146942   8.650   9.647   6.589  1.1267  0.3288 -1.0641
14450SOL    HW246943   8.722   9.641   6.722  0.7770  0.8338 -0.8499
14451SOL     OW46944   1.244   0.114   9.963  0.2884 -0.1273 -0.4153
14451SOL    HW146945   1.325   0.093  10.010  0.4505  0.2847 -0.5094
14451SOL    HW246946   1.239   0.048   9.894  0.8882  0.2553 -0.8223
14452SOL     OW46947   5.963  10.929   1.866  0.5986 -0.2830 -0.7662
14452SOL    HW146948   5.868  10.930   1.849  0.7486 -1.7504 -1.8357
14452SOL    HW246949   6.002  10.962   1.786  1.0270 -0.4848 -0.6416
14453SOL     OW46950   9.804   5.903   8.118  0.0959  0.7423 -0.1226
14453SOL    HW146951   9.843   5.943   8.196 -2.1942  0.4314  1.2509
14453SOL    HW246952   9.863   5.831   8.096  2.2993  2.5330 -0.4350
14454SOL     OW46953   0.185   8.279   2.433 -0.2960 -0.2733 -0.1999
14454SOL    HW146954   0.177   8.332   2.512  0.7508  1.7149 -1.3565
14454SOL    HW246955   0.267   8.231   2.444 -0.0621  0.1380 -0.1512
14455SOL     OW46956   0.302   6.209   9.149  0.3091 -0.0912  0.0667
14455SOL    HW146957   0.253   6.128   9.137  0.0938  0.3421 -2.4761
14455SOL    HW246958   0.385   6.181   9.188  0.4080 -1.6112 -1.1519
14456SOL     OW46959   1.841   2.557   3.627  0.6202  0.2592  0.3739
14456SOL    HW146960   1.756   2.576   3.587  0.3275  0.2408  0.9778
14456SOL    HW246961   1.823   2.483   3.686  0.8406  0.8742  1.2306
14457SOL     OW46962   1.914   7.128   4.890  0.2828 -0.2971 -0.4139
14457SOL    HW146963   1.945   7.051   4.937  0.7509 -1.0407 -1.8795
14457SOL    HW246964   1.988   7.153   4.835  0.0257  1.0348 -0.1786
14458SOL     OW46965   7.654  10.027   5.499  0.2922  0.3837 -0.6081
14458SOL    HW146966   7.679  10.027   5.591 -0.2467 -0.2052 -0.4573
14458SOL    HW246967   7.570   9.982   5.496 -0.1061  1.1333 -1.2836
14459SOL     OW46968   4.800   1.669   6.241 -0.1088 -0.2539 -0.3040
14459SOL    HW146969   4.800   1.601   6.309  0.4894 -0.3708 -0.4140
14459SOL    HW246970   4.777   1.623   6.161 -1.1591 -0.0548 -0.1381
14460SOL     OW46971   4.959   1.076   1.377 -0.3758  0.5380 -0.4850
14460SOL    HW146972   4.979   1.020   1.302 -0.0812 -0.9294  0.6629
14460SOL    HW246973   4.868   1.055   1.399 -0.3752  0.7685 -0.2575
14461SOL     OW46974   0.731   3.383   1.386 -0.0214 -0.0506 -0.5751
14461SOL    HW146975   0.756   3.309   1.332 -1.0605 -0.3907 -0.6241
14461SOL    HW246976   0.643   3.360   1.418  0.0972  0.6649  0.2992
14462SOL     OW46977  11.090   8.577   3.862 -0.2296  0.5181 -0.1260
14462SOL    HW146978  11.084   8.495   3.813 -2.3539  0.5177  0.0544
14462SOL    HW246979  11.063   8.554   3.951  1.1237  1.0391  0.4531
14463SOL     OW46980   1.926   8.023   3.714 -0.2306 -0.2370  0.3662
14463SOL    HW146981   2.006   8.075   3.722  0.8292 -1.5933 -0.8064
14463SOL    HW246982   1.950   7.937   3.750 -1.1026 -0.7104 -0.1420
14464SOL     OW46983   6.007   8.140   9.885 -0.6470  0.3538  0.3495
14464SOL    HW146984   6.040   8.116   9.799 -0.8209 -1.2398  0.7067
14464SOL    HW246985   6.083   8.133   9.943 -0.8474  0.0394  0.5750
14465SOL     OW46986   4.366   3.601   6.314  0.2234  0.0247 -0.1182
14465SOL    HW146987   4.298   3.535   6.303  0.7894 -0.5330 -0.3246
14465SOL    HW246988   4.447   3.551   6.321  0.4548  0.5736  1.7458
14466SOL     OW46989   6.100   5.212   0.109 -0.2077 -0.0552 -0.2614
14466SOL    HW146990   6.085   5.293   0.158 -0.1598 -0.5078  0.5165
14466SOL    HW246991   6.057   5.144   0.161  0.5811 -0.6698 -0.3944
14467SOL     OW46992   3.344   1.525   7.254  0.0008  0.1020  0.0382
14467SOL    HW146993   3.394   1.444   7.265  1.4593  1.2792  3.2703
14467SOL    HW246994   3.255   1.496   7.238  0.8025 -2.1086 -0.7630
14468SOL     OW46995   0.626   5.355   6.060 -0.0858  0.0853  0.4865
14468SOL    HW146996   0.560   5.335   6.126 -1.0916  0.3376 -0.4122
14468SOL    HW246997   0.578   5.353   5.977  1.3719 -1.4170 -0.3778
14469SOL     OW46998   2.363  10.301   0.752  0.1232 -0.0563 -0.8900
14469SOL    HW146999   2.449  10.260   0.744  0.5111  0.4094  0.6689
14469SOL    HW247000   2.311  10.258   0.684  1.6633 -0.0782 -2.1302
14470SOL     OW47001   5.252   1.615   8.102  0.0275 -0.0237  0.6208
14470SOL    HW147002   5.209   1.686   8.150  0.3428 -0.3883  1.4670
14470SOL    HW247003   5.205   1.537   8.128 -1.6626  0.0474 -1.8772
14471SOL     OW47004   4.178   7.962   4.458 -0.0605 -0.3089 -0.3880
14471SOL    HW147005   4.261   8.003   4.433  0.3391 -0.5174  0.5708
14471SOL    HW247006   4.112   8.029   4.441  0.3058 -0.1152 -1.0890
14472SOL     OW47007   1.156   0.862   5.391 -0.8072 -0.4284  0.0855
14472SOL    HW147008   1.137   0.871   5.484 -0.2528 -0.2794  0.1869
14472SOL    HW247009   1.097   0.924   5.348 -0.6987 -0.1192  0.3788
14473SOL     OW47010   0.997   3.874   5.059 -0.0335  0.6553  0.2657
14473SOL    HW147011   0.963   3.823   5.132 -0.0854  0.6276  0.2218
14473SOL    HW247012   0.977   3.965   5.082  0.1597  0.6659  0.3987
14474SOL     OW47013   0.457   5.686   1.199  0.0890  0.4890  1.0724
14474SOL    HW147014   0.362   5.684   1.211  0.3084  0.3727  3.3448
14474SOL    HW247015   0.472   5.746   1.126 -1.6778  1.1097  1.1828
14475SOL     OW47016   2.579   5.037   0.291  0.0461  0.0719 -0.4131
14475SOL    HW147017   2.501   4.982   0.294  0.2788 -0.3953 -1.8400
14475SOL    HW247018   2.552   5.115   0.244  0.1402  0.4538  0.1570
14476SOL     OW47019   4.972   5.349   9.130 -0.4986 -0.2916 -0.5976
14476SOL    HW147020   5.060   5.337   9.167 -0.1273  0.0571 -1.3348
14476SOL    HW247021   4.939   5.428   9.173  0.3896  0.7832 -1.7953
14477SOL     OW47022   7.818   5.067   1.487 -0.2195  0.2570 -0.5635
14477SOL    HW147023   7.794   4.982   1.525 -0.0187  0.8020  0.8408
14477SOL    HW247024   7.734   5.108   1.465 -0.3929  0.2293  0.0076
14478SOL     OW47025   5.387  10.091   0.634 -0.0381  0.5130  0.0141
14478SOL    HW147026   5.355  10.015   0.585 -0.9162 -0.0621  1.4157
14478SOL    HW247027   5.479  10.099   0.607 -0.0432 -0.7877 -0.4943
14479SOL     OW47028   5.973   2.851   8.700  0.4075 -0.6348  0.4709
14479SOL    HW147029   6.016   2.932   8.728  1.8339 -0.8199 -1.0043
14479SOL    HW247030   5.941   2.811   8.781 -1.9015  2.1865  1.1082
14480SOL     OW47031   0.140   6.938   8.426 -0.1745  0.0382 -0.3904
14480SOL    HW147032   0.102   6.895   8.502  0.2903 -0.6924 -0.5646
14480SOL    HW247033   0.210   6.993   8.462  0.6174 -0.9643 -0.3599
14481SOL     OW47034   5.681   6.738   4.285  0.2568 -0.2300  0.3609
14481SOL    HW147035   5.611   6.802   4.271 -1.3720 -1.5285  1.9828
14481SOL    HW247036   5.647   6.657   4.246  1.4864 -0.5825 -0.0379
14482SOL     OW47037   1.292  10.264   8.755  0.1920 -0.0520  0.0709
14482SOL    HW147038   1.357  10.252   8.824  0.6804  0.8439 -0.2231
14482SOL    HW247039   1.342  10.260   8.674 -0.2161  0.0412 -0.1898
14483SOL     OW47040   8.114   9.138   5.041 -0.3560 -0.2102 -0.0877
14483SOL    HW147041   8.188   9.113   5.096 -1.6607 -0.0034  1.8656
14483SOL    HW247042   8.136   9.226   5.010  1.3645 -1.1549 -1.7658
14484SOL     OW47043   8.493  10.782   2.959 -0.0494  0.0171  0.3163
14484SOL    HW147044   8.406  10.769   2.922 -0.1653  0.5285  0.4037
14484SOL    HW247045   8.552  10.771   2.885 -0.2938  1.2237 -0.0750
14485SOL     OW47046   3.660   4.704   1.859  0.5595  0.8307 -0.2648
14485SOL    HW147047   3.750   4.716   1.830  0.8626  3.8670  1.6079
14485SOL    HW247048   3.667   4.676   1.950 -0.4726 -2.7868 -1.1095
14486SOL     OW47049   7.203   3.756   1.353 -0.1216 -0.2380 -0.1800
14486SOL    HW147050   7.198   3.666   1.385  0.9127 -0.3771 -0.3770
14486SOL    HW247051   7.255   3.802   1.418 -0.1955  0.0886 -0.3490
14487SOL     OW47052   5.358   4.198   6.916  0.0258  0.3412  0.5935
14487SOL    HW147053   5.441   4.184   6.871  0.8091  4.0114  0.5521
14487SOL    HW247054   5.368   4.154   7.000  0.7381 -1.8289 -0.5499
14488SOL     OW47055   6.527   8.490   7.891  0.1999 -0.0168  0.1625
14488SOL    HW147056   6.525   8.431   7.816  0.3312  0.1676  0.0152
14488SOL    HW247057   6.601   8.459   7.944  0.4182  0.1685 -0.0367
14489SOL     OW47058   8.321   4.075   0.709  0.3357  0.6381 -0.0081
14489SOL    HW147059   8.384   4.025   0.761  1.1873  0.3098 -1.3057
14489SOL    HW247060   8.373   4.113   0.639 -0.7283  1.3573 -0.4348
14490SOL     OW47061   8.190   5.477   4.272  0.0284 -0.3999  0.2631
14490SOL    HW147062   8.132   5.402   4.255  2.5954 -3.0674  2.2950
14490SOL    HW247063   8.211   5.511   4.185 -1.7792 -1.5512 -0.6903
14491SOL     OW47064   5.025   3.276   0.228  0.5879 -0.2930  0.1776
14491SOL    HW147065   5.001   3.315   0.144  1.2826  0.1398  0.1669
14491SOL    HW247066   4.943   3.264   0.274  0.1171 -1.1718 -0.8319
14492SOL     OW47067   4.420   8.339  10.782  0.4964  0.2791  0.0698
14492SOL    HW147068   4.491   8.284  10.751  0.0815 -0.6597  0.7195
14492SOL    HW247069   4.394   8.391  10.706  0.6135 -0.7475 -0.6943
14493SOL     OW47070   5.110   9.161   7.312 -0.2842 -0.4204  0.2811
14493SOL    HW147071   5.075   9.085   7.358  2.5456 -1.1998  1.3911
14493SOL    HW247072   5.161   9.208   7.379  0.8746  0.5161 -1.1841
14494SOL     OW47073   7.153   7.396   2.359  0.1329 -0.8244 -0.4060
14494SOL    HW147074   7.198   7.337   2.419  0.9112  0.1335 -0.0064
14494SOL    HW247075   7.099   7.451   2.414 -0.2402 -0.8673 -0.7258
14495SOL     OW47076   6.109   6.801   2.194  0.0449 -0.4186 -0.4255
14495SOL    HW147077   6.105   6.757   2.109 -0.0756  0.4998 -0.9107
14495SOL    HW247078   6.059   6.745   2.252 -0.3596 -0.7712 -1.1016
14496SOL     OW47079   0.249   2.270   7.869  0.3152 -0.1305  0.0908
14496SOL    HW147080   0.239   2.309   7.782  0.6047 -0.4700 -0.0947
14496SOL    HW247081   0.320   2.319   7.909 -0.0682  0.2784  0.2809
14497SOL     OW47082   0.871   8.220  10.721  0.6875 -0.5178  0.2604
14497SOL    HW147083   0.827   8.167  10.655 -0.1098  0.8994 -0.3953
14497SOL    HW247084   0.806   8.232  10.790  0.9904 -0.7125  0.5806
14498SOL     OW47085   5.821   6.385   3.949 -0.2713 -0.0416 -0.2962
14498SOL    HW147086   5.785   6.305   3.913  2.0856 -1.2629 -0.1569
14498SOL    HW247087   5.764   6.454   3.917 -2.7550 -1.7944  0.0964
14499SOL     OW47088   4.918   4.824   1.633 -0.4436 -0.1237 -0.1488
14499SOL    HW147089   4.968   4.793   1.708  0.0582  1.8071  0.3799
14499SOL    HW247090   4.859   4.752   1.612  2.2994 -2.4155 -0.6368
14500SOL     OW47091   4.585   5.625   2.031 -0.4065  0.2247  0.2984
14500SOL    HW147092   4.554   5.630   1.940  0.4341  0.6808  0.0324
14500SOL    HW247093   4.617   5.535   2.040 -0.6271  0.1341  0.1890
14501SOL     OW47094   3.629   0.489   8.980  0.5959  0.2446 -0.9148
14501SOL    HW147095   3.579   0.503   9.060 -1.6356  0.3530 -2.2465
14501SOL    HW247096   3.710   0.447   9.009 -0.1096  0.3621  1.3798
14502SOL     OW47097   7.725   6.594   3.545 -0.3779 -0.2757 -0.1275
14502SOL    HW147098   7.817   6.620   3.543 -0.3013 -0.1070  2.6957
14502SOL    HW247099   7.678   6.667   3.504  0.3531  1.9569  2.7075
14503SOL     OW47100   0.865   4.178  10.035 -0.0983 -0.3174 -0.3611
14503SOL    HW147101   0.879   4.151   9.945  0.1608 -0.0887 -0.3922
14503SOL    HW247102   0.952   4.176  10.075 -0.0051  0.8243 -0.4726
14504SOL     OW47103   6.611   9.893   3.038  0.4099  0.1772  0.2016
14504SOL    HW147104   6.610   9.823   3.104  0.9900  1.1137  1.2508
14504SOL    HW247105   6.546   9.955   3.070 -0.6310 -0.1989 -1.1112
14505SOL     OW47106   4.943   8.275   7.444  0.0211  0.4052  0.0396
14505SOL    HW147107   4.872   8.223   7.406 -1.8774  2.7812  0.1090
14505SOL    HW247108   5.023   8.230   7.416 -1.4398 -2.3512 -0.1098
14506SOL     OW47109   6.917   0.804  10.949  0.0371 -0.3226 -0.5514
14506SOL    HW147110   6.934   0.846  11.034 -2.0220  1.4786 -0.9248
14506SOL    HW247111   6.838   0.751  10.964  0.1699 -0.6902 -1.1335
14507SOL     OW47112   0.337   3.529   2.908 -0.4304  0.2457 -0.4848
14507SOL    HW147113   0.336   3.443   2.950  0.3731  0.3000 -0.3350
14507SOL    HW247114   0.298   3.588   2.973 -1.5309 -0.1025 -0.8216
14508SOL     OW47115   4.983   3.689   2.139  0.1775 -0.1919  0.1573
14508SOL    HW147116   4.946   3.604   2.116 -0.9102 -0.0006  1.1039
14508SOL    HW247117   4.911   3.751   2.126  0.6359  0.4277  0.5210
14509SOL     OW47118   0.664   1.942   2.134 -0.6637 -0.0855 -0.2330
14509SOL    HW147119   0.662   1.956   2.229  1.7217 -0.2823 -0.1045
14509SOL    HW247120   0.638   2.026   2.097 -1.1279  0.1401  0.5707
14510SOL     OW47121   3.844   0.997   3.529 -0.6146 -0.3053 -0.3494
14510SOL    HW147122   3.883   0.948   3.457 -0.3787 -0.5541 -0.0600
14510SOL    HW247123   3.896   1.077   3.535 -1.1221  0.0722 -0.9476
14511SOL     OW47124   0.713   4.701   3.106  0.3166 -0.2193  0.2209
14511SOL    HW147125   0.621   4.717   3.086 -0.0532 -0.7954  1.3722
14511SOL    HW247126   0.752   4.676   3.022 -0.3986  0.7653 -0.4169
14512SOL     OW47127   7.515   9.989   3.730 -0.3635  0.0447 -0.2844
14512SOL    HW147128   7.440   9.970   3.787 -0.4442  2.6575  0.6373
14512SOL    HW247129   7.503  10.081   3.705  2.8348  0.8067  0.4913
14513SOL     OW47130   3.786   4.777  10.139 -0.1897 -0.8177 -0.0557
14513SOL    HW147131   3.847   4.803  10.070  0.4645 -0.2572  0.7122
14513SOL    HW247132   3.700   4.775  10.096  0.0933  0.2358 -0.7161
14514SOL     OW47133   3.426   3.126   8.556  0.3354  0.6406 -0.0749
14514SOL    HW147134   3.350   3.121   8.613  0.8794  2.2356  0.8581
14514SOL    HW247135   3.476   3.047   8.576 -0.3967  0.2685  0.3092
14515SOL     OW47136   4.637   8.881   2.887  0.1132  0.0553 -0.2311
14515SOL    HW147137   4.642   8.900   2.981  1.3533  2.0758 -0.6424
14515SOL    HW247138   4.599   8.960   2.849  0.0590 -0.5557 -1.4936
14516SOL     OW47139   4.934   4.806   2.875  0.2623  0.4413 -0.0743
14516SOL    HW147140   4.955   4.723   2.832 -0.9185  0.3141 -0.4460
14516SOL    HW247141   4.851   4.833   2.835  0.3763  1.5435  0.4067
14517SOL     OW47142   3.514   5.577   1.257 -0.5932  0.0582 -0.0412
14517SOL    HW147143   3.609   5.574   1.249 -0.5047  2.4378 -0.4554
14517SOL    HW247144   3.495   5.521   1.333  1.2690  0.5503  0.8517
14518SOL     OW47145   4.701   4.001   9.353  0.2517  0.3368 -0.0927
14518SOL    HW147146   4.647   4.039   9.284  0.2775 -1.0465 -0.9142
14518SOL    HW247147   4.701   4.067   9.423 -1.0080  1.1245 -0.7996
14519SOL     OW47148   6.838   0.371   7.691 -0.3664 -0.2750 -0.6250
14519SOL    HW147149   6.840   0.345   7.599  0.0698 -0.1059 -0.6677
14519SOL    HW247150   6.756   0.335   7.725  0.1485 -1.5641 -0.7184
14520SOL     OW47151   1.844   5.516  10.543 -0.7835 -0.0415  0.1492
14520SOL    HW147152   1.936   5.533  10.526 -0.7009 -1.3231 -0.8508
14520SOL    HW247153   1.842   5.487  10.635  0.0669 -1.4968 -0.2493
14521SOL     OW47154   9.287   7.141   6.470 -0.4318 -0.1153  0.0457
14521SOL    HW147155   9.349   7.127   6.542  0.2935  1.5900 -0.2266
14521SOL    HW247156   9.340   7.139   6.391 -1.3788 -3.2261 -0.6697
14522SOL     OW47157   9.920  10.984  10.231  0.1815 -0.0734 -0.1051
14522SOL    HW147158   9.996  10.938  10.265 -0.4507 -0.5329  0.7372
14522SOL    HW247159   9.845  10.935  10.264 -0.4878  0.3576 -0.9230
14523SOL     OW47160   6.941   2.700   2.187 -0.1319 -0.7763  0.1274
14523SOL    HW147161   6.869   2.734   2.134  0.7358  0.4804 -0.3007
14523SOL    HW247162   7.006   2.771   2.188  0.5122 -1.3405  1.6544
14524SOL     OW47163   5.776   0.652   5.277 -0.6006  0.5353 -0.6419
14524SOL    HW147164   5.718   0.591   5.232 -0.7905 -0.0138  0.3218
14524SOL    HW247165   5.838   0.680   5.210 -0.2973 -0.9912 -1.0295
14525SOL     OW47166   4.738   6.586   9.882  0.0824  0.0705  0.1944
14525SOL    HW147167   4.808   6.573   9.946  0.6240 -0.0513 -0.4063
14525SOL    HW247168   4.717   6.498   9.851  0.4433  0.1906 -0.4239
14526SOL     OW47169   6.596   5.915   1.344 -0.1163 -0.0365  0.0810
14526SOL    HW147170   6.679   5.878   1.374 -0.1985  1.2237  2.0363
14526SOL    HW247171   6.530   5.852   1.372  0.0174 -0.0341  0.4047
14527SOL     OW47172   6.966   5.452   5.918 -0.2856 -0.6304  0.1153
14527SOL    HW147173   6.915   5.522   5.877  0.7104 -0.0462 -0.1607
14527SOL    HW247174   6.950   5.464   6.012  0.0456  0.1172  0.0878
14528SOL     OW47175   2.612   1.677  10.386 -0.2541 -0.1210  0.3568
14528SOL    HW147176   2.638   1.590  10.417  1.8613  0.9578  1.8302
14528SOL    HW247177   2.553   1.710  10.453 -1.7881 -0.7059 -0.6465
14529SOL     OW47178   8.908   8.848   0.435  0.5763  0.2373 -0.3198
14529SOL    HW147179   8.931   8.790   0.507  0.0215 -0.8640 -0.9980
14529SOL    HW247180   8.895   8.934   0.476  1.4743 -0.0918  0.6954
14530SOL     OW47181   1.216   6.215   9.008 -0.6218  0.0409  0.3907
14530SOL    HW147182   1.272   6.165   9.067 -0.1651 -0.7029 -0.6480
14530SOL    HW247183   1.258   6.301   9.003 -0.2479 -0.1288  0.5523
14531SOL     OW47184   7.859   6.320  10.045 -0.3776  0.1667 -0.5749
14531SOL    HW147185   7.918   6.280  10.109  0.2414  1.7883 -0.0798
14531SOL    HW247186   7.771   6.300  10.077 -0.2489 -3.1007 -1.8192
14532SOL     OW47187   7.968   2.581   7.384 -0.2897 -0.4088  0.0582
14532SOL    HW147188   7.983   2.675   7.375 -0.8534 -0.2244  0.9948
14532SOL    HW247189   8.056   2.543   7.391 -0.0445 -0.0046 -0.6934
14533SOL     OW47190   4.681   5.876   6.024 -0.0114 -0.0996 -0.3027
14533SOL    HW147191   4.600   5.921   6.047 -0.8951 -2.0752  0.6971
14533SOL    HW247192   4.654   5.806   5.966  0.9853 -0.7236 -0.0449
14534SOL     OW47193   6.907   4.159   0.106 -0.3184  0.5339 -0.1711
14534SOL    HW147194   6.910   4.175   0.012 -0.7644  0.7700 -0.1498
14534SOL    HW247195   6.974   4.217   0.143  0.2350  0.0412 -0.3897
14535SOL     OW47196   7.801   9.237   2.698  0.1428  0.4431 -0.3283
14535SOL    HW147197   7.764   9.155   2.664 -4.2094  1.0551  2.1768
14535SOL    HW247198   7.876   9.209   2.751 -0.9801 -1.9386  0.1494
14536SOL     OW47199   0.937   9.129   3.533  0.3001 -0.0044  0.7729
14536SOL    HW147200   1.007   9.129   3.599  0.5684 -1.4099  0.5230
14536SOL    HW247201   0.978   9.093   3.454 -0.6197 -0.5646  0.5302
14537SOL     OW47202   1.711   1.885   4.358  0.5359  0.1736 -0.1743
14537SOL    HW147203   1.637   1.841   4.317 -0.4845 -0.5400  2.2669
14537SOL    HW247204   1.718   1.969   4.312 -0.1415 -0.7716 -2.1132
14538SOL     OW47205  10.752   5.286   0.650 -0.1817  0.1290  0.5238
14538SOL    HW147206  10.839   5.324   0.653 -0.6944  1.3297  1.8786
14538SOL    HW247207  10.766   5.192   0.642  1.1729  0.4264 -0.9999
14539SOL     OW47208   6.683   5.904  11.031 -0.6939 -0.2505  0.2181
14539SOL    HW147209   6.755   5.961  11.003 -0.0610 -0.2417  1.7319
14539SOL    HW247210   6.666   5.848  10.956 -1.0392  1.6220 -1.1710
14540SOL     OW47211   6.988   1.839   4.561  0.2797  0.6047  0.6774
14540SOL    HW147212   6.899   1.871   4.572 -0.1597  0.4693 -1.8695
14540SOL    HW247213   7.042   1.918   4.564 -0.3706  1.1983 -1.4833
14541SOL     OW47214   0.558   0.552   0.467  0.0494 -0.1436  0.2687
14541SOL    HW147215   0.563   0.623   0.404  0.0541 -0.2793  0.1158
14541SOL    HW247216   0.465   0.546   0.490 -0.1256 -0.8440 -0.5875
14542SOL     OW47217   3.890   4.472   7.543 -0.8271 -0.0583 -0.2181
14542SOL    HW147218   3.843   4.399   7.503  0.6618 -0.5251 -1.1914
14542SOL    HW247219   3.913   4.441   7.630 -0.9831 -0.4064 -0.2990
14543SOL     OW47220   6.663   9.844   5.619  0.0081 -0.8527  0.2266
14543SOL    HW147221   6.682   9.879   5.706 -1.8030 -0.8411  0.6542
14543SOL    HW247222   6.656   9.750   5.632 -1.6719 -0.7322  0.4142
14544SOL     OW47223   6.938   6.642   0.777  0.1184 -0.5406 -0.1391
14544SOL    HW147224   6.941   6.670   0.869  2.3089  0.0102 -0.3328
14544SOL    HW247225   6.918   6.548   0.781 -3.5139  0.0937  0.6739
14545SOL     OW47226   8.984   1.595   0.070 -0.3095 -0.0477 -0.4702
14545SOL    HW147227   8.992   1.533   0.143  1.3965  0.8098  0.1134
14545SOL    HW247228   8.984   1.681   0.112 -0.2376  0.4294 -1.4331
14546SOL     OW47229   9.134   0.977   3.554  0.3391  0.0802 -0.1992
14546SOL    HW147230   9.060   1.031   3.580  0.7343  1.0999 -1.1089
14546SOL    HW247231   9.098   0.889   3.542 -0.5263  0.3658  0.2880
14547SOL     OW47232   2.600   0.577   7.158 -0.3244  0.1204 -0.6420
14547SOL    HW147233   2.615   0.549   7.248  0.7534  2.1931 -0.0982
14547SOL    HW247234   2.544   0.510   7.120 -0.0210 -1.2901  1.2835
14548SOL     OW47235   8.729   5.768   9.909 -0.3771 -0.1748  0.1341
14548SOL    HW147236   8.669   5.774   9.835 -2.2367  0.8016  1.6339
14548SOL    HW247237   8.750   5.858   9.931  0.8712 -0.4820  0.2569
14549SOL     OW47238   6.290   6.737   0.769 -0.0134 -0.1586 -0.2448
14549SOL    HW147239   6.208   6.743   0.720  0.7247  1.6933 -1.3840
14549SOL    HW247240   6.323   6.649   0.751 -2.3560 -1.4835  1.3696
14550SOL     OW47241   9.926   2.198   8.251  0.5011  0.1402 -0.7645
14550SOL    HW147242   9.851   2.243   8.212 -0.1208 -1.5233 -1.5694
14550SOL    HW247243   9.948   2.251   8.328 -2.8689 -0.4505  0.7750
14551SOL     OW47244   3.459   1.113   2.397 -0.1903  0.2555  0.1088
14551SOL    HW147245   3.434   1.071   2.479 -2.4359  1.7815  0.2827
14551SOL    HW247246   3.394   1.082   2.334  0.4424  0.4907 -0.6627
14552SOL     OW47247   4.615  10.611   1.876  0.2963 -0.3458 -0.1180
14552SOL    HW147248   4.568  10.562   1.944  1.4231 -4.0526 -1.7597
14552SOL    HW247249   4.682  10.660   1.925 -0.8220 -0.4898  1.6646
14553SOL     OW47250   7.100  10.568   0.136 -0.1966  0.4131  0.2997
14553SOL    HW147251   7.141  10.482   0.141  1.4620  1.2185  2.4038
14553SOL    HW247252   7.106  10.602   0.225  0.5857  3.2900 -0.7414
14554SOL     OW47253   5.030   0.419   4.427 -0.4103 -0.0830  0.2357
14554SOL    HW147254   4.956   0.373   4.467 -0.6165 -1.5598 -1.7081
14554SOL    HW247255   5.107   0.371   4.458 -0.3892  0.2692  0.7407
14555SOL     OW47256   9.216   4.483   9.825  0.2786 -0.8508 -0.7114
14555SOL    HW147257   9.170   4.566   9.840  0.0309 -0.8889 -1.2412
14555SOL    HW247258   9.184   4.425   9.895  0.8630 -0.3436 -0.0034
14556SOL     OW47259   4.513   8.824   4.221 -0.5978 -0.0609  0.0538
14556SOL    HW147260   4.458   8.861   4.290 -0.3359  3.5345 -1.5013
14556SOL    HW247261   4.500   8.881   4.146  2.6116 -1.1054 -1.4636
14557SOL     OW47262   1.667   7.017   5.492 -0.2900 -0.1926  0.5580
14557SOL    HW147263   1.649   7.051   5.579  1.0349  2.0162  0.0299
14557SOL    HW247264   1.697   7.092   5.441  0.8143 -1.7634 -1.2950
14558SOL     OW47265   2.230   3.610   8.120  0.6914  0.2329 -0.1015
14558SOL    HW147266   2.221   3.618   8.215  0.2143  1.4855 -0.2376
14558SOL    HW247267   2.309   3.557   8.108 -0.4790 -1.9143  1.0056
14559SOL     OW47268   7.790   4.311   3.546  0.4260 -0.4873  0.4564
14559SOL    HW147269   7.787   4.364   3.467  2.4548 -1.7547 -0.5335
14559SOL    HW247270   7.709   4.260   3.544  0.9772 -1.3511 -1.4543
14560SOL     OW47271   1.926   7.242  10.938  0.7464  0.0464  0.6069
14560SOL    HW147272   1.917   7.214  11.029 -0.1554 -0.2481  0.4418
14560SOL    HW247273   1.919   7.161  10.887  0.0979  0.3300  0.2261
14561SOL     OW47274   5.979  10.252   3.073 -0.4269  0.3809 -0.0394
14561SOL    HW147275   5.962  10.206   2.991  0.4565  0.0730 -0.0584
14561SOL    HW247276   5.933  10.201   3.140  0.4359 -0.4821 -0.0796
14562SOL     OW47277   2.873   8.772   8.707 -0.6058  0.3920 -1.0552
14562SOL    HW147278   2.942   8.809   8.761 -2.6813  1.3203  1.1061
14562SOL    HW247279   2.913   8.694   8.667  1.8002  1.1892 -0.3534
14563SOL     OW47280   7.089  10.426  10.954  0.0767  0.8402 -0.6402
14563SOL    HW147281   7.101  10.331  10.963  0.7003  0.8294 -1.5150
14563SOL    HW247282   7.134  10.463  11.030  0.2162  0.4602 -0.5370
14564SOL     OW47283   4.514   1.807   4.322  0.9569 -0.1171 -0.2041
14564SOL    HW147284   4.424   1.826   4.348  0.2543 -1.4856 -1.4770
14564SOL    HW247285   4.563   1.805   4.404 -0.4215 -0.5626  0.6376
14565SOL     OW47286   3.947   6.029  10.301 -0.3400 -0.6721  0.2656
14565SOL    HW147287   3.919   6.100  10.358  0.1427  0.7801 -1.2394
14565SOL    HW247288   3.898   5.953  10.332 -2.3271  0.7297  0.7251
14566SOL     OW47289   8.570   8.071   4.505  0.1695  0.1532 -0.0405
14566SOL    HW147290   8.644   8.012   4.490  0.5743  0.9613 -1.3603
14566SOL    HW247291   8.516   8.025   4.569  1.0054 -1.1705 -0.2444
14567SOL     OW47292   0.387   0.080  10.394  0.2172  0.0955  0.3732
14567SOL    HW147293   0.389   0.040  10.307 -0.0255 -1.2687  0.9675
14567SOL    HW247294   0.309   0.136  10.393  0.4430  0.3985 -0.4146
14568SOL     OW47295   2.011   6.887   8.756 -0.1564  0.5515 -0.0550
14568SOL    HW147296   2.072   6.813   8.759 -1.2970 -0.5378 -2.0693
14568SOL    HW247297   1.925   6.847   8.744 -1.4880  2.0048  3.3614
14569SOL     OW47298   8.705   7.352   8.052 -0.6997  0.5662 -0.3414
14569SOL    HW147299   8.765   7.366   7.979 -1.7179  1.3689 -1.0595
14569SOL    HW247300   8.677   7.440   8.077 -0.0559  0.3308  1.3146
14570SOL     OW47301   2.745   2.245   4.148  0.7010 -0.3335 -0.0468
14570SOL    HW147302   2.840   2.256   4.136  0.1917  1.4731 -4.4134
14570SOL    HW247303   2.722   2.306   4.217  2.6259 -0.5033  0.8084
14571SOL     OW47304   7.541   4.359   2.142  0.6713 -0.1478 -0.4412
14571SOL    HW147305   7.596   4.437   2.149  2.1797 -1.3128  1.7018
14571SOL    HW247306   7.463   4.389   2.094  0.4837  3.0526  1.5588
14572SOL     OW47307   4.250  11.083   5.566 -0.2556  0.3114  0.2662
14572SOL    HW147308   4.265  11.130   5.485  2.8232 -0.1543  0.4122
14572SOL    HW247309   4.202  11.004   5.540  0.0546  0.5200 -0.9990
14573SOL     OW47310   7.447   1.108   5.819 -0.0862 -0.3424  0.4115
14573SOL    HW147311   7.399   1.147   5.746  0.2089 -0.4072  0.1805
14573SOL    HW247312   7.418   1.017   5.821  0.6760 -0.6079 -0.2830
14574SOL     OW47313   5.140   2.591  10.891 -0.0415  0.2333  0.7823
14574SOL    HW147314   5.118   2.591  10.984  0.9221 -0.7678  1.0371
14574SOL    HW247315   5.143   2.499  10.868 -0.8152  0.4892 -0.3918
14575SOL     OW47316   7.656   9.598   6.386 -0.5415  0.0964 -0.0047
14575SOL    HW147317   7.661   9.586   6.291 -1.6671  0.8016 -0.1894
14575SOL    HW247318   7.562   9.593   6.405 -0.1712 -2.6728  1.4794
14576SOL     OW47319   9.076   3.114   9.564 -0.0201  0.5531 -0.3885
14576SOL    HW147320   9.041   3.163   9.489 -1.1721 -0.4932 -0.5692
14576SOL    HW247321   9.141   3.173   9.603 -0.5266  1.7475 -1.2750
14577SOL     OW47322  10.915   6.810   4.338  0.4867 -0.5434 -0.1607
14577SOL    HW147323  10.988   6.861   4.302  1.3842 -1.0936  0.8170
14577SOL    HW247324  10.838   6.867   4.328  1.5367  1.2845  1.4055
14578SOL     OW47325   1.095   3.195   1.265  0.0720  0.0866  0.2561
14578SOL    HW147326   1.103   3.216   1.358  1.0707  0.5277  0.0887
14578SOL    HW247327   1.090   3.280   1.221 -0.0996 -0.1115 -0.1137
14579SOL     OW47328   2.453   1.980   0.263 -0.0113 -0.1822  0.5481
14579SOL    HW147329   2.513   2.054   0.269  0.1840 -0.3690  0.9433
14579SOL    HW247330   2.391   2.005   0.195  0.6151 -0.0539  0.0049
14580SOL     OW47331   3.224  11.024   0.297  0.3855 -0.5799 -0.9945
14580SOL    HW147332   3.264  11.110   0.311  0.8232 -1.0328  0.8175
14580SOL    HW247333   3.229  11.010   0.203 -2.2354  2.5701 -1.8114
14581SOL     OW47334   8.012   4.251   9.901  0.3615 -0.6162  0.2047
14581SOL    HW147335   8.003   4.343   9.876  2.3162 -0.2183  0.8573
14581SOL    HW247336   7.923   4.216   9.891  0.0373  0.6581 -2.6465
14582SOL     OW47337   8.241   2.480   7.796 -0.3680 -0.6987 -0.2125
14582SOL    HW147338   8.233   2.562   7.748  1.3160  0.2062  0.9797
14582SOL    HW247339   8.163   2.430   7.770 -0.7297  0.6979 -2.0012
14583SOL     OW47340   6.718   7.428   3.505 -0.2417  0.1962  0.0160
14583SOL    HW147341   6.647   7.411   3.443 -0.8264  0.9917  0.4519
14583SOL    HW247342   6.777   7.353   3.495 -1.5018 -0.8366  0.1572
14584SOL     OW47343   3.240   7.666   1.225 -0.1934  0.2987 -0.0636
14584SOL    HW147344   3.293   7.734   1.183  0.0482 -0.1445 -0.4837
14584SOL    HW247345   3.202   7.616   1.152 -1.2800  0.6654  0.2257
14585SOL     OW47346   8.392   6.085   1.527 -0.0736 -0.3625  0.3791
14585SOL    HW147347   8.433   6.047   1.605 -0.4849 -1.1856  0.1971
14585SOL    HW247348   8.373   6.176   1.552  0.9481 -0.2491  0.8046
14586SOL     OW47349  10.706   0.411   5.046 -0.5143  0.3174  0.4215
14586SOL    HW147350  10.784   0.464   5.028 -0.1956 -0.6794 -1.4432
14586SOL    HW247351  10.694   0.418   5.140  0.5669  2.2100  0.4815
14587SOL     OW47352  10.619   1.776   1.466  0.2807  0.5802  0.1735
14587SOL    HW147353  10.693   1.742   1.516 -0.1423  0.0043  0.4076
14587SOL    HW247354  10.589   1.852   1.516 -2.0017 -1.6415  2.4644
14588SOL     OW47355   6.713   6.609   9.287 -0.1459  0.0334 -0.4759
14588SOL    HW147356   6.765   6.576   9.213 -0.2785  0.6005 -0.8231
14588SOL    HW247357   6.628   6.628   9.250 -0.0988  0.6835 -0.2534
14589SOL     OW47358   6.300   4.497   8.150 -0.1162 -0.1277  0.3322
14589SOL    HW147359   6.246   4.571   8.123 -0.8230 -0.7997 -0.1320
14589SOL    HW247360   6.260   4.421   8.107  0.0360 -0.9171  1.5399
14590SOL     OW47361   4.745  10.810   4.185  0.4403  0.1231 -0.1774
14590SOL    HW147362   4.720  10.889   4.233 -0.9318 -0.7029  0.5563
14590SOL    HW247363   4.796  10.841   4.111  0.7786  1.6125  0.6387
14591SOL     OW47364   8.752   0.454   0.041  0.1601  0.1491  0.6078
14591SOL    HW147365   8.754   0.521  -0.027 -0.5340  0.6709  1.0927
14591SOL    HW247366   8.659   0.442   0.061  0.3828  0.7806  2.2121
14592SOL     OW47367   9.271   2.504   3.645 -0.3932  0.0858  0.2596
14592SOL    HW147368   9.305   2.504   3.735 -0.1239 -1.3734  0.1993
14592SOL    HW247369   9.247   2.412   3.630  0.5472  0.0980 -1.5011
14593SOL     OW47370   4.426   7.056   0.924 -0.3191 -0.2906 -0.6216
14593SOL    HW147371   4.331   7.059   0.914 -0.3012  0.5775 -0.5868
14593SOL    HW247372   4.460   7.090   0.841 -0.1227  3.1968  0.7153
14594SOL     OW47373   0.985   5.983  10.767  0.2652  0.1129  0.0626
14594SOL    HW147374   1.038   5.966  10.845 -2.7479  0.4111  2.3756
14594SOL    HW247375   0.999   6.076  10.749 -0.0297  0.3706  1.1151
14595SOL     OW47376   3.431  10.094   2.569 -0.2603  0.8091  0.6984
14595SOL    HW147377   3.385  10.011   2.557 -2.3404  1.8785  0.9375
14595SOL    HW247378   3.507  10.071   2.623 -1.9423 -0.6176  2.6151
14596SOL     OW47379   4.542   4.333   9.898 -0.6214  0.7091 -0.3851
14596SOL    HW147380   4.617   4.392   9.905 -0.6328  0.6882 -0.0581
14596SOL    HW247381   4.505   4.352   9.812 -1.7598  2.5629  0.4529
14597SOL     OW47382   3.754   2.679   0.455 -0.0625  0.1372  0.6515
14597SOL    HW147383   3.712   2.754   0.497 -0.6436  0.3920 -0.3578
14597SOL    HW247384   3.697   2.605   0.476  1.4032 -0.4068  3.1070
14598SOL     OW47385   2.934  10.556   4.969  0.1511  0.3588  0.4064
14598SOL    HW147386   2.895  10.484   5.018  0.2223  0.8455  1.1904
14598SOL    HW247387   2.982  10.607   5.034 -0.3148  1.4106 -0.0409
14599SOL     OW47388   0.845   8.978  11.111  0.3902  0.2845 -0.0778
14599SOL    HW147389   0.902   9.052  11.133  0.8570 -0.3642  0.9583
14599SOL    HW247390   0.844   8.977  11.015  1.0317  1.1256 -0.1120
14600SOL     OW47391   4.326   2.447   1.623  0.1402 -0.1613  0.0238
14600SOL    HW147392   4.373   2.427   1.704 -0.2950 -0.0794  0.3014
14600SOL    HW247393   4.240   2.478   1.652 -0.0251 -0.1437 -0.4695
14601SOL     OW47394   4.148   4.657   5.260 -0.6381  0.2681  0.2349
14601SOL    HW147395   4.163   4.716   5.186 -0.2721 -0.6091 -0.4043
14601SOL    HW247396   4.189   4.701   5.335  1.4751 -0.1251 -0.6364
14602SOL     OW47397   7.470   4.228   1.265 -0.2034  0.5564 -0.2064
14602SOL    HW147398   7.402   4.162   1.277  0.0011  0.4942  0.6671
14602SOL    HW247399   7.451   4.266   1.179 -1.6080  0.8326  0.1959
14603SOL     OW47400   7.957   1.281   9.716 -0.3731  0.6179 -1.0152
14603SOL    HW147401   7.911   1.355   9.756  0.9045  0.1612  1.5323
14603SOL    HW247402   8.049   1.308   9.713  0.0318 -0.6245 -0.5182
14604SOL     OW47403   6.763   2.497   7.761  0.6189 -0.3937  0.3155
14604SOL    HW147404   6.766   2.494   7.856  3.2310 -2.2437  0.2859
14604SOL    HW247405   6.823   2.568   7.737 -1.6808  1.5546 -0.0147
14605SOL     OW47406   0.325   3.780   9.694  0.1250 -0.2966  0.2470
14605SOL    HW147407   0.234   3.782   9.725  0.3000  0.5353  0.7407
14605SOL    HW247408   0.375   3.750   9.769  0.7279  3.0490  1.3596
14606SOL     OW47409   4.649   6.951   8.413 -0.0315 -0.0455  0.0145
14606SOL    HW147410   4.631   7.044   8.408  1.5466  0.3816  1.3804
14606SOL    HW247411   4.744   6.945   8.426  0.0166 -1.8714 -0.7970
14607SOL     OW47412   1.404   7.546   1.002 -0.2360  0.3503  0.5571
14607SOL    HW147413   1.404   7.551   1.097  0.1196 -1.4698  0.6944
14607SOL    HW247414   1.344   7.475   0.981  0.1863  0.2843 -0.5293
14608SOL     OW47415   9.459   8.911   9.468 -0.1129  0.3250  0.0505
14608SOL    HW147416   9.519   8.984   9.482  0.1382  1.0182 -3.6978
14608SOL    HW247417   9.442   8.876   9.556  1.3001  3.6185  1.7829
14609SOL     OW47418   2.659   6.013   6.884  0.6399 -0.2446 -0.1737
14609SOL    HW147419   2.603   5.982   6.955 -0.0391 -0.0307 -0.6042
14609SOL    HW247420   2.679   6.104   6.908 -0.1117  0.0303 -0.5633
14610SOL     OW47421   3.460   2.736   9.545 -0.1339 -0.1881  0.1298
14610SOL    HW147422   3.461   2.832   9.540 -1.9655 -0.1467 -0.0180
14610SOL    HW247423   3.464   2.717   9.638  3.2676 -0.1198  0.1334
14611SOL     OW47424  11.075   5.007   6.866  0.2752  0.0443 -0.0730
14611SOL    HW147425  11.029   4.937   6.820  0.7321 -1.1687  1.2638
14611SOL    HW247426  11.055   4.993   6.958 -0.1701  2.0883  0.2005
14612SOL     OW47427   2.371  10.550   5.406 -0.1532  0.7994 -0.0467
14612SOL    HW147428   2.293  10.572   5.457 -0.8858 -1.9123  0.1427
14612SOL    HW247429   2.420  10.489   5.462 -0.4261 -1.3946 -2.0324
14613SOL     OW47430   5.846   4.049   3.663  0.6111  0.5044  0.4133
14613SOL    HW147431   5.927   4.098   3.651  0.2526  1.0008  0.0053
14613SOL    HW247432   5.872   3.973   3.715  1.1329  1.2270  1.2423
14614SOL     OW47433   1.060   8.235   3.605  0.1374  0.3643 -0.2818
14614SOL    HW147434   1.083   8.144   3.586 -0.4304 -0.0805  1.0364
14614SOL    HW247435   1.126   8.286   3.559  2.8759 -0.8177  2.0065
14615SOL     OW47436   5.514   5.849   7.077 -0.0903 -0.6168  0.0676
14615SOL    HW147437   5.588   5.796   7.110 -0.9873 -2.1430 -0.2576
14615SOL    HW247438   5.501   5.817   6.987 -1.2819 -0.5419  0.2004
14616SOL     OW47439   4.198   0.446   4.672 -0.5980 -0.0502 -0.2532
14616SOL    HW147440   4.224   0.384   4.604  1.0257  0.5094 -0.1956
14616SOL    HW247441   4.279   0.492   4.695 -1.3875  0.7682  1.0515
14617SOL     OW47442  10.131   3.847   8.588  0.0742 -0.1081 -0.3532
14617SOL    HW147443  10.144   3.752   8.581 -0.5588 -0.2155 -0.1230
14617SOL    HW247444  10.110   3.861   8.680  0.2934  0.2799 -0.3590
14618SOL     OW47445   2.970   1.718  10.167  0.2134 -0.3567  0.4302
14618SOL    HW147446   2.971   1.622  10.162  2.1473 -0.3313 -0.6905
14618SOL    HW247447   2.978   1.747  10.076  0.5205  0.8652  0.8272
14619SOL     OW47448   8.596   6.908  10.417  0.1033  0.0262  0.1476
14619SOL    HW147449   8.530   6.882  10.353  0.8088  0.9497 -1.0029
14619SOL    HW247450   8.563   6.876  10.501 -0.0856 -2.5970 -0.8616
14620SOL     OW47451   2.533   3.483   4.010  0.1248 -0.2682 -0.6273
14620SOL    HW147452   2.518   3.520   4.097  0.1786 -0.1197 -0.6800
14620SOL    HW247453   2.470   3.412   4.003 -1.0765  0.8135 -1.1370
14621SOL     OW47454   6.702  10.436   5.444  0.8737  0.1745  0.0784
14621SOL    HW147455   6.615  10.407   5.416  0.7016 -0.1747  0.9564
14621SOL    HW247456   6.730  10.370   5.508  1.9284  0.1044 -0.4333
14622SOL     OW47457   7.774   0.553   6.342 -0.2613 -0.2856  0.5426
14622SOL    HW147458   7.800   0.645   6.338  0.6720 -0.4295  2.1885
14622SOL    HW247459   7.814   0.521   6.423 -1.9241 -1.7205  0.8558
14623SOL     OW47460  10.057   5.334   6.029  0.0099 -0.0800 -0.1316
14623SOL    HW147461  10.112   5.315   6.105 -0.9653 -2.8107  0.0333
14623SOL    HW247462  10.012   5.416   6.051 -1.3971 -1.5139  3.0167
14624SOL     OW47463   6.723   1.803   9.295 -0.2891  0.4159 -0.0874
14624SOL    HW147464   6.724   1.762   9.381 -2.1715 -0.5891 -0.4897
14624SOL    HW247465   6.805   1.775   9.254 -0.1663 -0.5057  0.7552
14625SOL     OW47466   5.001   7.857   1.446 -0.0656 -0.2077  0.1896
14625SOL    HW147467   4.930   7.919   1.456  0.3482  0.3141 -0.0255
14625SOL    HW247468   5.067   7.885   1.510 -1.0138 -2.1272  2.1022
14626SOL     OW47469   1.744   9.299   9.918  0.4233  0.0753  0.0851
14626SOL    HW147470   1.776   9.212   9.939 -0.0861 -0.1533 -0.0731
14626SOL    HW247471   1.661   9.284   9.872 -0.7330  0.6873  1.8653
14627SOL     OW47472   2.727  10.453   9.411 -0.0386 -0.1581 -0.4752
14627SOL    HW147473   2.782  10.380   9.438  0.6159  0.9452  1.3902
14627SOL    HW247474   2.788  10.521   9.385 -0.4646  1.0438  1.5080
14628SOL     OW47475   3.203   3.508   1.127  0.1754  0.3559 -0.0366
14628SOL    HW147476   3.294   3.478   1.123  0.1408  0.2271  0.1368
14628SOL    HW247477   3.152   3.432   1.097  0.1846  0.7283 -1.0172
14629SOL     OW47478   9.490   6.781   1.073  0.2603  0.0008 -0.4920
14629SOL    HW147479   9.525   6.859   1.029  0.7019 -0.0793 -0.2865
14629SOL    HW247480   9.410   6.761   1.025  0.1823  0.5389 -0.5956
14630SOL     OW47481  10.242   4.351  10.403  0.0738 -0.1745 -0.6111
14630SOL    HW147482  10.274   4.264  10.428 -0.2304  0.1381  1.0063
14630SOL    HW247483  10.310   4.411  10.434 -1.2094  0.3733  1.4008
14631SOL     OW47484   0.356   8.935   9.056 -0.0527  0.5841 -0.4192
14631SOL    HW147485   0.347   8.847   9.019  2.0843  0.3901 -0.6174
14631SOL    HW247486   0.280   8.945   9.114  0.7812 -2.3051  1.3650
14632SOL     OW47487   5.667   7.267  10.461 -0.5030 -0.4883 -0.9351
14632SOL    HW147488   5.582   7.311  10.465 -0.3785 -0.3270  1.5518
14632SOL    HW247489   5.646   7.173  10.458 -0.7668 -0.4168 -1.3181
14633SOL     OW47490   5.547   5.646   3.074  0.2891 -0.2509  0.1903
14633SOL    HW147491   5.609   5.595   3.021  0.4488  0.4588 -0.3252
14633SOL    HW247492   5.552   5.607   3.161  2.8573  0.8953  0.6691
14634SOL     OW47493   2.596   8.062   4.706  0.6443  0.2369 -0.0068
14634SOL    HW147494   2.545   8.084   4.784  2.1260  1.8639  0.5793
14634SOL    HW247495   2.676   8.114   4.715  1.5450 -0.7477 -1.8436
14635SOL     OW47496   2.061   5.359   2.967 -0.2203 -0.2232  0.2794
14635SOL    HW147497   2.019   5.327   2.887  1.1000 -0.1647 -0.4530
14635SOL    HW247498   2.120   5.429   2.938 -1.4489  1.4651  1.5963
14636SOL     OW47499   4.204   8.271   8.741 -0.0813  0.6883 -0.5174
14636SOL    HW147500   4.232   8.207   8.676  0.9049  1.3099 -0.7130
14636SOL    HW247501   4.165   8.218   8.811 -0.0230 -0.0672 -1.0519
14637SOL     OW47502   6.456   1.255   2.546 -0.1867  0.0365 -0.2602
14637SOL    HW147503   6.374   1.289   2.583 -0.7111 -0.4658 -0.9275
14637SOL    HW247504   6.524   1.313   2.581 -0.7132 -0.1059  1.0557
14638SOL     OW47505   3.533  10.790   8.785  0.3425  0.0519  0.1000
14638SOL    HW147506   3.501  10.857   8.724  0.9095 -1.0522 -1.4754
14638SOL    HW247507   3.487  10.808   8.866 -2.2405  0.1702 -1.3026
14639SOL     OW47508   3.218   8.585   3.686  0.4659 -0.4180 -0.0935
14639SOL    HW147509   3.264   8.535   3.619  0.0084 -0.0209 -0.7149
14639SOL    HW247510   3.127   8.557   3.679 -0.1362  1.6939 -1.6270
14640SOL     OW47511   7.900   4.960   7.991  0.2495 -0.4431  0.0527
14640SOL    HW147512   7.854   4.893   7.941 -2.6073  1.5144 -0.2257
14640SOL    HW247513   7.962   4.998   7.929  0.3504 -1.3850 -0.4304
14641SOL     OW47514   4.084   2.333   5.297 -0.5441  0.7003  0.2359
14641SOL    HW147515   4.126   2.343   5.212  0.2001 -2.8652  0.0435
14641SOL    HW247516   4.154   2.306   5.356 -1.5191  0.4829  1.3298
14642SOL     OW47517   8.650   4.237   3.019 -0.1523 -0.3282 -0.0574
14642SOL    HW147518   8.630   4.182   3.095  1.5798  0.7635  1.2514
14642SOL    HW247519   8.617   4.324   3.043 -0.3017 -0.1390 -0.9091
14643SOL     OW47520   7.216   7.001   3.546  0.1406  0.2905  0.5313
14643SOL    HW147521   7.130   6.997   3.505  1.1689  0.0322 -1.7988
14643SOL    HW247522   7.226   6.916   3.590  0.5684 -1.3214 -2.3681
14644SOL     OW47523   8.018   3.817  10.830  0.4105  0.1999  0.7929
14644SOL    HW147524   7.942   3.784  10.877 -0.1657 -1.4279 -1.1727
14644SOL    HW247525   8.091   3.803  10.891 -0.5027 -0.5227  1.7583
14645SOL     OW47526   9.086   0.791   5.759  0.1061 -0.2644 -0.0477
14645SOL    HW147527   9.128   0.847   5.825  0.1299  1.1014 -1.1788
14645SOL    HW247528   9.047   0.852   5.697  0.9333 -1.4856 -1.8457
14646SOL     OW47529   5.176   4.476   4.618  0.0423  0.5295 -0.4671
14646SOL    HW147530   5.151   4.567   4.602 -0.5215  0.1688 -1.7394
14646SOL    HW247531   5.267   4.481   4.648  0.3679  1.4475 -1.5476
14647SOL     OW47532   3.943   7.520   6.411 -0.7707 -0.9013  0.4087
14647SOL    HW147533   4.014   7.550   6.467 -2.0492  0.3997  1.4274
14647SOL    HW247534   3.956   7.567   6.329 -0.2151 -1.0136  0.4277
14648SOL     OW47535   7.699  10.669   7.139  0.2039  0.2701  0.5827
14648SOL    HW147536   7.648  10.702   7.213 -1.3322 -1.0422  0.1574
14648SOL    HW247537   7.636  10.663   7.067  1.2994 -0.0406 -0.3733
14649SOL     OW47538   4.683  10.225   9.418 -0.1496 -0.0772  0.2262
14649SOL    HW147539   4.779  10.227   9.422 -0.1325  2.3178  0.3524
14649SOL    HW247540   4.663  10.210   9.326  0.4742  2.7106 -0.4566
14650SOL     OW47541   6.084   1.574   9.374  0.0316 -0.5064 -0.4635
14650SOL    HW147542   6.114   1.617   9.455 -0.0108  0.5515 -0.9885
14650SOL    HW247543   6.134   1.617   9.304 -0.4124 -0.9459 -1.0601
14651SOL     OW47544   4.731   9.081  10.052 -0.2873 -0.0695 -0.1934
14651SOL    HW147545   4.660   9.143  10.069  1.0084  1.7973 -1.2886
14651SOL    HW247546   4.706   9.038   9.971 -0.0626  0.8133 -0.7492
14652SOL     OW47547   8.423   1.009   9.177 -0.1513 -0.0416  0.5601
14652SOL    HW147548   8.516   0.999   9.158 -0.2716  1.3097 -0.9197
14652SOL    HW247549   8.401   0.933   9.231  1.9807  0.0664  1.6743
14653SOL     OW47550   3.661  10.536   5.365 -0.2238 -0.1902 -0.5657
14653SOL    HW147551   3.717  10.563   5.438  0.2561 -0.8230 -0.6953
14653SOL    HW247552   3.626  10.451   5.391  0.3093 -0.6309 -1.2573
14654SOL     OW47553   1.103   7.471   0.070  0.0494 -0.1988 -0.0365
14654SOL    HW147554   1.041   7.416   0.022 -0.0922  0.0260 -0.1130
14654SOL    HW247555   1.077   7.463   0.162 -0.7078  0.6550 -0.1584
14655SOL     OW47556   4.043   3.861   1.654  0.5792  0.7921  0.8392
14655SOL    HW147557   4.033   3.929   1.587 -1.0152 -0.3493 -0.1520
14655SOL    HW247558   3.960   3.814   1.653  2.1900 -2.2862  0.2679
14656SOL     OW47559   7.152   8.604  10.875  0.6126  0.8955 -0.1333
14656SOL    HW147560   7.179   8.539  10.939  2.4695  1.9415  0.2092
14656SOL    HW247561   7.218   8.673  10.881 -0.2997  1.9758 -1.7368
14657SOL     OW47562   8.210   4.729   8.638 -0.4748 -0.3166  0.8258
14657SOL    HW147563   8.275   4.744   8.569 -0.3380  1.1813  1.2384
14657SOL    HW247564   8.130   4.706   8.591 -0.7659  2.0595  0.0055
14658SOL     OW47565   4.155   5.834   3.619 -0.2677  0.3091  0.2004
14658SOL    HW147566   4.102   5.758   3.645  0.4538 -0.6960 -1.1586
14658SOL    HW247567   4.106   5.873   3.547 -0.6638  1.2009  0.9344
14659SOL     OW47568   0.026   7.019   7.222 -0.2216  0.6126 -0.1047
14659SOL    HW147569   0.106   6.982   7.183 -1.6894 -0.7234 -2.0267
14659SOL    HW247570  -0.043   6.959   7.195 -1.8311  1.4345  1.9794
14660SOL     OW47571   6.281   1.708   9.232 -0.4299 -0.5154 -0.0067
14660SOL    HW147572   6.309   1.629   9.185  3.0946  0.4285  0.2475
14660SOL    HW247573   6.352   1.770   9.218 -2.8797  2.5362  0.1661
14661SOL     OW47574   6.363   2.366   4.409  0.2181 -0.0627  0.0822
14661SOL    HW147575   6.299   2.298   4.430  2.4259 -2.0154  1.0141
14661SOL    HW247576   6.444   2.318   4.392  1.2616  2.2153 -1.9722
14662SOL     OW47577   7.792   3.413   6.280  0.1309 -0.3702 -0.2843
14662SOL    HW147578   7.826   3.431   6.192 -0.4193  0.1502 -0.3983
14662SOL    HW247579   7.842   3.470   6.338 -0.3096  0.1517 -0.4104
14663SOL     OW47580   8.746   7.254   0.533  0.0642  0.2290 -0.4365
14663SOL    HW147581   8.674   7.308   0.568  0.2994  0.0502  0.3566
14663SOL    HW247582   8.724   7.241   0.441 -0.0963  1.5258 -0.6054
14664SOL     OW47583   5.315   8.977   7.253 -0.0997  0.6923  0.1893
14664SOL    HW147584   5.261   8.914   7.204 -0.1976  0.1192  1.0097
14664SOL    HW247585   5.253   9.045   7.280 -0.0672  0.9490 -0.3868
14665SOL     OW47586   9.548   6.294   9.024 -0.0515 -0.3892  0.1771
14665SOL    HW147587   9.474   6.333   8.977 -0.8468 -0.2502  1.4942
14665SOL    HW247588   9.548   6.202   8.997  1.2539  0.2168 -2.2176
14666SOL     OW47589   9.982   0.243   8.815  0.6445 -0.0840  0.5123
14666SOL    HW147590   9.983   0.188   8.893 -0.1583  0.0934  0.6505
14666SOL    HW247591   9.928   0.195   8.752 -0.9816  1.0370  1.0077
14667SOL     OW47592   8.895   8.213   1.210  0.1611  0.2249  0.7289
14667SOL    HW147593   8.836   8.212   1.285 -0.8500 -1.0602 -0.0410
14667SOL    HW247594   8.862   8.144   1.153  1.4044  0.6224 -0.5186
14668SOL     OW47595   0.207   8.739   0.525 -0.2899  0.3722 -0.9812
14668SOL    HW147596   0.154   8.751   0.604 -0.8486 -1.5686 -0.9931
14668SOL    HW247597   0.243   8.825   0.506  0.5592  0.7603  1.8771
14669SOL     OW47598   1.638   2.660  10.978  0.8910  0.2348  0.0979
14669SOL    HW147599   1.632   2.703  10.893 -1.3823 -0.4732 -0.1640
14669SOL    HW247600   1.720   2.610  10.974  0.3389 -0.6330 -2.1043
14670SOL     OW47601   8.233   8.383   8.858  0.1220 -0.0307 -0.2360
14670SOL    HW147602   8.212   8.377   8.764 -1.0972 -1.1988  0.0856
14670SOL    HW247603   8.282   8.303   8.877 -0.1134 -0.0643  0.2371
14671SOL     OW47604  10.747  10.485   3.744 -0.2060  0.6596  0.7404
14671SOL    HW147605  10.808  10.417   3.715  0.9243  2.1305 -0.5413
14671SOL    HW247606  10.781  10.512   3.829  0.6778  1.1002  0.2713
14672SOL     OW47607   8.698   3.322   9.950 -0.0317  0.2041 -0.3888
14672SOL    HW147608   8.748   3.403   9.957  2.3595 -1.1023 -1.1695
14672SOL    HW247609   8.629   3.341   9.885 -0.1107  1.8406  0.1371
14673SOL     OW47610   8.888   6.831   5.792  0.0165  0.0608  0.1974
14673SOL    HW147611   8.967   6.777   5.795  0.2415  0.3863  0.1983
14673SOL    HW247612   8.818   6.774   5.825  0.2497 -0.2297  0.1900
14674SOL     OW47613   5.079   4.760   2.187  0.4631  0.4353 -0.3102
14674SOL    HW147614   5.154   4.703   2.169 -0.0553 -0.0020 -1.1756
14674SOL    HW247615   5.089   4.833   2.127  0.1651  0.3409 -0.4770
14675SOL     OW47616  10.322   2.675   0.411  0.3614 -0.1280 -0.0177
14675SOL    HW147617  10.261   2.607   0.381  2.0064 -2.2079  1.0683
14675SOL    HW247618  10.293   2.754   0.366 -0.9062 -1.7883 -2.3667
14676SOL     OW47619   9.612  10.584   8.291  0.2602 -0.4250  0.0495
14676SOL    HW147620   9.625  10.590   8.386  0.2731  0.1628  0.0157
14676SOL    HW247621   9.662  10.507   8.265  0.8107 -0.2130  0.4325
14677SOL     OW47622   7.491   2.875   7.893 -0.1944  0.4390 -0.1920
14677SOL    HW147623   7.533   2.789   7.892  1.7349  1.3207  0.5823
14677SOL    HW247624   7.504   2.909   7.804 -1.3373 -0.1972 -0.6296
14678SOL     OW47625   7.033   9.189   5.270  0.1297 -0.2197  0.1512
14678SOL    HW147626   6.944   9.162   5.295 -0.5213  0.1654 -1.6164
14678SOL    HW247627   7.083   9.107   5.267 -0.4509 -0.5804  0.0720
14679SOL     OW47628   4.170   8.177  10.735  0.0841  0.2993  0.1216
14679SOL    HW147629   4.202   8.138  10.653 -0.7285  1.6993 -0.8862
14679SOL    HW247630   4.247   8.220  10.772 -0.2178  2.6405 -1.7065
14680SOL     OW47631   6.202  10.424   2.694 -0.3953 -0.3769 -0.0242
14680SOL    HW147632   6.190  10.415   2.789  1.5117 -2.1248  0.1300
14680SOL    HW247633   6.204  10.519   2.679 -0.7219 -0.0669  1.6777
14681SOL     OW47634   7.948   9.595   1.761  0.3305  0.6427 -0.3963
14681SOL    HW147635   7.874   9.560   1.810  0.2285  0.8926 -0.3671
14681SOL    HW247636   7.987   9.519   1.718  1.1326  0.2394  0.9950
14682SOL     OW47637   5.169   9.735   6.312  0.0434 -0.6684 -0.3195
14682SOL    HW147638   5.151   9.823   6.280  0.5087 -0.6023 -0.4168
14682SOL    HW247639   5.130   9.677   6.247  0.8298 -0.5333 -0.9206
14683SOL     OW47640   9.293  10.628   3.620  0.1572  0.1080 -0.3769
14683SOL    HW147641   9.234  10.677   3.563 -0.9841 -1.8811 -0.9573
14683SOL    HW247642   9.235  10.586   3.684  1.1931  0.1929  0.6458
14684SOL     OW47643   5.093   7.590   1.065 -0.4223  0.3621  0.1719
14684SOL    HW147644   5.002   7.617   1.076 -1.0954 -1.4873 -0.4653
14684SOL    HW247645   5.113   7.610   0.974  0.1862  1.7476  0.5883
14685SOL     OW47646   1.034   7.131  10.817 -0.2086 -0.0648 -0.2785
14685SOL    HW147647   1.044   7.044  10.856  0.6896  0.0130 -0.3214
14685SOL    HW247648   1.115   7.145  10.767 -1.6182 -0.4492 -2.8126
14686SOL     OW47649   6.205   5.040   8.114  0.1522  0.0698  0.7179
14686SOL    HW147650   6.113   5.059   8.129  0.2983 -0.0933  1.9717
14686SOL    HW247651   6.236   5.004   8.198  1.3733  0.2217  0.3532
14687SOL     OW47652   5.415   4.821   1.244 -0.6954 -0.2672 -0.3795
14687SOL    HW147653   5.329   4.779   1.240 -0.7015 -0.4225  0.9719
14687SOL    HW247654   5.458   4.793   1.163 -1.9166 -0.1410 -1.1148
14688SOL     OW47655   6.248   5.191   9.992  0.2635  0.0121 -0.2231
14688SOL    HW147656   6.317   5.142   9.948 -2.3265 -1.8814 -2.5155
14688SOL    HW247657   6.222   5.257   9.928  0.8498  1.6986  1.2042
14689SOL     OW47658   3.689  10.070   7.808  0.1700 -0.3615  0.4370
14689SOL    HW147659   3.622  10.014   7.848  0.0424 -0.4878  0.0481
14689SOL    HW247660   3.764  10.064   7.867  0.9998 -2.7364 -0.7274
14690SOL     OW47661   4.791   4.398   9.124 -0.3341 -0.2204 -0.1164
14690SOL    HW147662   4.847   4.338   9.174 -0.3649  0.0889  0.2971
14690SOL    HW247663   4.762   4.347   9.048  2.4876  0.3650 -1.7097
14691SOL     OW47664   6.849   4.536   2.101  0.0969  0.2435 -0.0536
14691SOL    HW147665   6.844   4.512   2.193 -0.1361 -1.9976 -0.5778
14691SOL    HW247666   6.943   4.539   2.082  0.1396 -0.9189 -0.0878
14692SOL     OW47667   6.404   2.464   0.525  0.1336  0.5838 -1.0381
14692SOL    HW147668   6.417   2.479   0.432 -1.0433  1.9617 -1.0188
14692SOL    HW247669   6.350   2.386   0.530  1.0079 -0.0687 -1.4444
14693SOL     OW47670   1.471  10.987   7.652 -0.1077  0.3966 -0.2624
14693SOL    HW147671   1.436  11.050   7.715 -0.7125  0.5115 -0.7066
14693SOL    HW247672   1.450  10.901   7.691 -1.8600  0.4454 -1.0144
14694SOL     OW47673   6.246   0.517   9.384 -0.5873  0.6958  0.4571
14694SOL    HW147674   6.184   0.457   9.426 -2.2480  2.8381  1.2536
14694SOL    HW247675   6.296   0.555   9.456 -0.7865  1.5697  0.1419
14695SOL     OW47676   2.047  10.094   3.411  0.0568 -0.7076  0.7652
14695SOL    HW147677   2.001  10.173   3.381  0.6780 -0.7043 -0.2134
14695SOL    HW247678   2.037  10.032   3.339 -0.2185 -1.4506  1.4318
14696SOL     OW47679   0.548   4.810   5.411  0.2234 -0.2270 -0.2507
14696SOL    HW147680   0.473   4.869   5.408  1.6969  1.6978 -2.0087
14696SOL    HW247681   0.613   4.856   5.464  1.6333  0.1442 -2.1822
14697SOL     OW47682   6.526   2.290   1.329 -0.0305  0.2086  0.7675
14697SOL    HW147683   6.473   2.366   1.305  0.9349  0.4356 -0.7514
14697SOL    HW247684   6.596   2.326   1.384 -0.4332  0.1712  1.3154
14698SOL     OW47685   2.826   8.026   5.219 -0.2370  0.5809 -0.1643
14698SOL    HW147686   2.736   8.054   5.202  0.3698  2.5847 -0.3565
14698SOL    HW247687   2.867   8.101   5.263 -0.0445 -2.0539  4.9738
14699SOL     OW47688  10.292   4.283   1.128  0.1217 -0.1553  0.3642
14699SOL    HW147689  10.359   4.214   1.121 -0.4096 -0.6149 -0.3193
14699SOL    HW247690  10.301   4.333   1.048 -1.0568 -0.8850 -0.2562
14700SOL     OW47691   2.121   1.045   5.864  0.8251  0.2551  0.0633
14700SOL    HW147692   2.171   0.979   5.815 -1.3453 -0.6576 -1.0364
14700SOL    HW247693   2.184   1.116   5.879  2.3445 -0.6604 -1.5621
14701SOL     OW47694   5.623   7.571  10.246  0.0851 -0.0926  0.1633
14701SOL    HW147695   5.581   7.563  10.332 -0.6799  0.0354 -0.1861
14701SOL    HW247696   5.636   7.665  10.235  0.6724 -0.1446  0.3563
14702SOL     OW47697   6.758   6.320   3.757 -0.8362  0.4461 -0.1194
14702SOL    HW147698   6.795   6.250   3.810  0.1544  1.2360  0.2580
14702SOL    HW247699   6.757   6.285   3.668 -0.7908 -0.2106  0.1340
14703SOL     OW47700  11.090   3.593   4.650  0.3184  0.5584 -0.7508
14703SOL    HW147701  11.126   3.558   4.569  0.3431  0.7989 -0.8436
14703SOL    HW247702  10.995   3.591   4.637  0.3536  2.1090 -1.4306
14704SOL     OW47703   7.684   0.816   9.205  0.3811 -0.8174  0.4355
14704SOL    HW147704   7.604   0.810   9.153  1.3132 -1.4598 -1.0031
14704SOL    HW247705   7.655   0.843   9.292 -1.3287 -0.5267 -0.1938
14705SOL     OW47706   7.097   8.558   1.310  0.3151 -0.1847  0.1744
14705SOL    HW147707   7.114   8.636   1.362  0.4284  0.7926 -1.2747
14705SOL    HW247708   7.005   8.564   1.286  0.4808 -0.1564 -0.4745
14706SOL     OW47709   1.653   8.282   7.640  0.2720 -0.1051 -0.0771
14706SOL    HW147710   1.565   8.249   7.624 -0.7928  1.7130  1.5490
14706SOL    HW247711   1.694   8.215   7.695 -2.3173  1.5398  4.3727
14707SOL     OW47712   2.815   3.446  10.565 -0.4897 -0.0944  0.2509
14707SOL    HW147713   2.854   3.532  10.580 -1.1148  0.4967 -1.2880
14707SOL    HW247714   2.724   3.464  10.542 -0.6344 -1.1734 -0.1016
14708SOL     OW47715   0.579   9.396   8.373 -0.2150  0.5448  0.3756
14708SOL    HW147716   0.638   9.370   8.443 -0.3788  1.4683  0.8659
14708SOL    HW247717   0.559   9.314   8.327  0.4390  0.0392  0.9778
14709SOL     OW47718  10.638   6.951   5.306  0.3289  0.1633  0.3993
14709SOL    HW147719  10.670   7.030   5.262  1.0416  0.3023  1.1487
14709SOL    HW247720  10.611   6.894   5.234  0.1281  0.9505 -0.1643
14710SOL     OW47721   5.729   3.024   4.559 -0.3074  0.0591  0.3339
14710SOL    HW147722   5.733   2.945   4.614 -0.7555 -0.3994 -0.2798
14710SOL    HW247723   5.734   2.991   4.470 -1.2610  0.6580  0.0431
14711SOL     OW47724   1.841   1.941   6.743  0.0187 -0.3099 -0.5788
14711SOL    HW147725   1.785   1.864   6.749 -1.3921  0.7155 -0.0817
14711SOL    HW247726   1.795   1.999   6.682  0.1845  0.8300  0.3545
14712SOL     OW47727   6.206   9.996   8.298 -0.1309  0.2189  0.6021
14712SOL    HW147728   6.146   9.931   8.336  0.9691 -1.4426 -0.3780
14712SOL    HW247729   6.232  10.051   8.372 -0.1601 -1.2126  1.7130
14713SOL     OW47730   8.992   6.226   8.802  0.0900  0.2407 -0.2564
14713SOL    HW147731   9.022   6.235   8.711 -0.9132 -1.1005 -0.7643
14713SOL    HW247732   8.988   6.315   8.835  2.9026  0.6282 -0.6891
14714SOL     OW47733   2.053   9.059   7.451 -0.1534  0.0829  0.7304
14714SOL    HW147734   2.018   9.117   7.384  0.8325  0.3484  0.4335
14714SOL    HW247735   2.018   8.973   7.428 -0.3546  0.2859  0.2532
14715SOL     OW47736   1.277   6.323   2.530 -0.3822 -0.1774  0.1389
14715SOL    HW147737   1.209   6.257   2.540  2.3487 -3.1661  0.7114
14715SOL    HW247738   1.260   6.386   2.599 -1.6850 -1.6776  1.2664
14716SOL     OW47739   1.058   1.210   3.837 -0.2250  0.3917  0.0770
14716SOL    HW147740   1.147   1.217   3.871 -0.9159 -0.1701  2.0815
14716SOL    HW247741   1.035   1.301   3.815  1.0811  0.4529 -1.2182
14717SOL     OW47742   7.251   5.595  10.893 -0.0314 -0.0829  0.2586
14717SOL    HW147743   7.211   5.524  10.843  0.0053 -1.2305  1.7788
14717SOL    HW247744   7.178   5.653  10.916 -0.0126  0.6014 -1.2719
14718SOL     OW47745   6.681  10.695   6.108  0.5926 -0.0673  0.1410
14718SOL    HW147746   6.593  10.731   6.120  0.4657 -1.0818  2.8323
14718SOL    HW247747   6.738  10.772   6.104 -0.0406  0.5659  2.2281
14719SOL     OW47748   4.762   8.799   0.571 -0.4484  0.4050  0.1765
14719SOL    HW147749   4.838   8.857   0.573  0.6837 -1.0163  2.2125
14719SOL    HW247750   4.791   8.725   0.518 -1.3720  0.9925 -1.1936
14720SOL     OW47751   7.643   2.397   0.577 -0.0397 -0.0929 -0.0713
14720SOL    HW147752   7.585   2.473   0.577  0.3635  0.2339  0.8509
14720SOL    HW247753   7.586   2.323   0.556 -1.0600  0.0602  1.9091
14721SOL     OW47754   8.602   7.323   5.638 -0.1721 -0.2282  0.2273
14721SOL    HW147755   8.660   7.399   5.647  0.6033 -0.6471 -0.9439
14721SOL    HW247756   8.514   7.359   5.649  0.2370  0.6780  0.6308
14722SOL     OW47757   6.370   7.581   9.079  0.6679 -0.2083 -0.3058
14722SOL    HW147758   6.287   7.593   9.126  0.4936 -0.7032 -0.4802
14722SOL    HW247759   6.374   7.487   9.061 -0.2637  0.1975 -3.0878
14723SOL     OW47760   6.808   7.476   0.633  0.0447  0.8376  0.0780
14723SOL    HW147761   6.876   7.521   0.584  0.2724  0.3967 -0.0193
14723SOL    HW247762   6.849   7.393   0.660 -0.2124  0.8910  0.6458
14724SOL     OW47763   5.055   3.236   8.896 -0.0713 -0.0648  0.7891
14724SOL    HW147764   5.006   3.163   8.935 -1.3365  0.5567  0.4013
14724SOL    HW247765   5.028   3.313   8.947  0.8892  0.2223  0.8899
14725SOL     OW47766   8.679   5.181   9.843  0.3306  0.4564  0.0923
14725SOL    HW147767   8.612   5.114   9.858  0.3337 -0.6099 -3.6842
14725SOL    HW247768   8.760   5.131   9.832  0.3368  0.9309 -2.7826
14726SOL     OW47769  10.674   0.504   9.935 -0.0654 -0.5638 -0.2907
14726SOL    HW147770  10.687   0.571   9.868 -0.7426 -2.6859 -2.7185
14726SOL    HW247771  10.761   0.466   9.947 -0.4309 -2.5124 -2.7788
14727SOL     OW47772   6.086   4.671   2.037 -0.2249  0.1281 -0.2919
14727SOL    HW147773   6.128   4.616   1.971 -0.3160  0.8248 -0.9584
14727SOL    HW247774   6.156   4.695   2.098 -0.6073 -2.4987  1.3064
14728SOL     OW47775   0.357   1.121   0.737 -0.6802 -0.7142  0.1890
14728SOL    HW147776   0.370   1.198   0.682 -0.4624 -1.4253 -0.7801
14728SOL    HW247777   0.292   1.148   0.801 -2.3168 -0.3961 -1.5285
14729SOL     OW47778   5.139   2.397   3.474  0.1148 -0.6124 -0.3850
14729SOL    HW147779   5.165   2.405   3.566  2.1301 -0.3946 -0.9296
14729SOL    HW247780   5.094   2.312   3.469  1.5928 -1.4899  0.4714
14730SOL     OW47781   1.485   6.308  10.544  0.4693  0.3857 -0.3155
14730SOL    HW147782   1.521   6.359  10.617 -0.1511 -1.4054  1.3465
14730SOL    HW247783   1.402   6.351  10.524  0.6956  0.9641 -0.0459
14731SOL     OW47784   5.403   8.869   5.515  0.0870 -0.2978 -0.1840
14731SOL    HW147785   5.465   8.938   5.538  1.8944 -1.8536 -0.1537
14731SOL    HW247786   5.317   8.907   5.535  1.0494  1.5813  0.6919
14732SOL     OW47787   3.347   2.247   8.294  0.1604 -0.4028 -0.3574
14732SOL    HW147788   3.341   2.215   8.384 -2.2496 -0.4610 -0.4906
14732SOL    HW247789   3.291   2.325   8.293  1.1344  0.3155 -1.5312
14733SOL     OW47790   1.728   7.546   7.540  0.5689  0.0424 -0.2816
14733SOL    HW147791   1.771   7.601   7.474 -0.7566 -1.2139 -2.2992
14733SOL    HW247792   1.671   7.607   7.587 -1.4977  0.4356 -3.0149
14734SOL     OW47793   9.260   2.087   8.535 -0.6578 -0.2274  0.1949
14734SOL    HW147794   9.254   2.048   8.448 -0.6664 -0.0531  0.1163
14734SOL    HW247795   9.313   2.025   8.585 -0.1229 -0.0305 -0.1109
14735SOL     OW47796   1.103   4.683   3.377  0.3771 -0.0711 -0.5177
14735SOL    HW147797   1.049   4.708   3.302  0.0012 -3.3585 -1.5183
14735SOL    HW247798   1.193   4.695   3.347  0.2232  0.3665 -0.8087
14736SOL     OW47799   2.561   5.650   2.743  0.0436  0.1377  0.7965
14736SOL    HW147800   2.511   5.569   2.731  0.1424  0.1882  0.0281
14736SOL    HW247801   2.616   5.656   2.665 -0.9977  1.6941  0.1360
14737SOL     OW47802   1.867   6.941  10.931  0.0243  0.1683  0.0100
14737SOL    HW147803   1.796   6.904  10.984  0.5720 -1.9377 -0.6305
14737SOL    HW247804   1.944   6.938  10.989  0.0709  0.3272 -0.0437
14738SOL     OW47805   5.834   0.132   3.985 -0.2546 -0.3260  0.6142
14738SOL    HW147806   5.900   0.192   3.950 -0.5415  0.4157  1.3112
14738SOL    HW247807   5.854   0.048   3.943  1.5882 -0.3130  1.3518
14739SOL     OW47808   2.860   1.836   8.184 -0.3032  0.1582 -0.7578
14739SOL    HW147809   2.913   1.844   8.264  1.5488  3.3432 -2.1197
14739SOL    HW247810   2.886   1.752   8.146  0.4512 -0.3667  0.8309
14740SOL     OW47811   6.001   5.772   9.933  0.1590 -0.6800 -0.0460
14740SOL    HW147812   5.931   5.835   9.913  1.5271  1.4139  1.3074
14740SOL    HW247813   5.993   5.757  10.027  0.4685 -1.7949 -0.1926
14741SOL     OW47814   5.593   9.394   4.055  0.7742 -0.0367  0.2337
14741SOL    HW147815   5.579   9.485   4.081  1.2522  0.2980 -0.6178
14741SOL    HW247816   5.685   9.377   4.077  0.3467 -0.7531  1.6004
14742SOL     OW47817   6.272   9.372   5.890 -0.3583  0.4526 -0.5916
14742SOL    HW147818   6.210   9.352   5.960  0.2002  1.1415  0.1180
14742SOL    HW247819   6.238   9.453   5.851  1.4812  2.4150  1.5756
14743SOL     OW47820   4.050   2.375   7.691  0.4942 -0.1899 -0.0478
14743SOL    HW147821   4.027   2.285   7.714  1.2149 -1.0416 -2.4617
14743SOL    HW247822   3.965   2.419   7.682  0.1203  0.2010  3.7297
14744SOL     OW47823   6.819   5.920   3.353 -0.5098 -1.1380 -0.2299
14744SOL    HW147824   6.803   5.828   3.373  1.9623 -1.2642  1.6785
14744SOL    HW247825   6.913   5.924   3.334 -0.7243  0.8733 -1.1205
14745SOL     OW47826   4.981   6.488  10.329 -0.0280 -0.0626 -0.3897
14745SOL    HW147827   4.977   6.458  10.419 -0.9425 -1.0767 -0.7446
14745SOL    HW247828   5.049   6.433  10.289 -0.1196 -0.1052 -0.4881
14746SOL     OW47829   7.320   3.834   5.773  0.3137 -0.3083  0.4833
14746SOL    HW147830   7.341   3.839   5.680 -1.0815 -0.9230  0.1234
14746SOL    HW247831   7.283   3.747   5.786  1.3177 -0.5842  1.8111
14747SOL     OW47832   8.165   0.174   2.424 -0.6379 -0.0044 -0.5963
14747SOL    HW147833   8.144   0.247   2.481 -3.7163 -2.5504  1.9287
14747SOL    HW247834   8.246   0.138   2.461 -0.7302  0.3957  0.0184
14748SOL     OW47835   9.547   5.456   4.631  0.1865  0.1167 -0.4054
14748SOL    HW147836   9.591   5.422   4.553  0.8045  0.3764 -0.1764
14748SOL    HW247837   9.575   5.547   4.637 -0.3071  0.2571 -0.1944
14749SOL     OW47838   1.616   2.169   1.184  0.0200 -0.2585 -0.2701
14749SOL    HW147839   1.542   2.135   1.134  0.2664 -0.0699 -0.7662
14749SOL    HW247840   1.688   2.108   1.164 -0.0086 -0.4657  0.2418
14750SOL     OW47841   3.928   7.212   2.294  0.0782  0.3807 -0.3149
14750SOL    HW147842   4.017   7.220   2.261  0.2496  0.3304  0.1284
14750SOL    HW247843   3.898   7.302   2.307  0.7010  0.3910  1.2101
14751SOL     OW47844   6.670   9.464   0.161  0.6136 -0.7725 -0.7649
14751SOL    HW147845   6.686   9.470   0.067  0.3595 -2.2291 -0.9221
14751SOL    HW247846   6.740   9.515   0.201 -1.3322  3.0984 -1.8186
14752SOL     OW47847   0.314   0.979   7.728  0.7711  0.6058  0.8780
14752SOL    HW147848   0.366   0.905   7.697  0.3310  0.3407  0.7524
14752SOL    HW247849   0.239   0.938   7.772 -2.4927  0.7459 -3.8302
14753SOL     OW47850   5.777  11.106  10.314 -0.1869  0.3030  0.6226
14753SOL    HW147851   5.856  11.111  10.367 -0.3938 -0.2863  0.9944
14753SOL    HW247852   5.734  11.190  10.326 -0.1597  0.2253  1.2754
14754SOL     OW47853   1.934  10.006   7.512  0.0737  0.3006  0.4734
14754SOL    HW147854   1.844  10.011   7.479 -0.3383 -0.7157  1.3897
14754SOL    HW247855   1.940   9.920   7.554  1.6817  0.0774 -0.1440
14755SOL     OW47856   3.687   4.980   4.142  0.4225 -0.1620  0.2883
14755SOL    HW147857   3.732   4.954   4.062 -0.8641 -1.5653 -0.0232
14755SOL    HW247858   3.757   4.991   4.206  1.4520  0.7353 -0.9473
14756SOL     OW47859  10.278  10.409   9.791 -0.1570  0.4694  0.2841
14756SOL    HW147860  10.328  10.484   9.759 -0.8874  1.1879  0.8222
14756SOL    HW247861  10.340  10.362   9.847  0.5677  0.1808 -0.7260
14757SOL     OW47862  10.659   0.612   3.360  0.5015  0.7316  0.1893
14757SOL    HW147863  10.671   0.632   3.267 -1.2802  0.0766 -0.2193
14757SOL    HW247864  10.662   0.516   3.364 -2.7555  0.5252  0.2020
14758SOL     OW47865   2.119   5.424   9.679 -0.1118  0.3797  0.1914
14758SOL    HW147866   2.176   5.443   9.753  2.1396  2.4946 -1.9095
14758SOL    HW247867   2.140   5.334   9.654  0.3556  0.2419  1.0557
14759SOL     OW47868   0.680   7.307   7.114 -0.0209 -0.1270 -0.2065
14759SOL    HW147869   0.621   7.298   7.189  2.5620  1.6313  2.2658
14759SOL    HW247870   0.640   7.374   7.060 -1.7991 -1.2088 -0.3190
14760SOL     OW47871   8.891   7.861   4.211  0.0439 -0.1043  0.3615
14760SOL    HW147872   8.977   7.848   4.172  0.1631 -0.2831  0.6825
14760SOL    HW247873   8.832   7.811   4.155  0.2316 -0.4624  0.4816
14761SOL     OW47874   7.821  10.608   0.700  0.1162  0.2718  0.1522
14761SOL    HW147875   7.788  10.677   0.758 -0.0394  0.5556 -0.2696
14761SOL    HW247876   7.772  10.530   0.726 -1.1702  0.7685 -0.7079
14762SOL     OW47877   3.626   6.930   2.201 -0.4648 -0.6476 -0.1144
14762SOL    HW147878   3.679   6.860   2.239 -0.7669 -1.6054 -1.3954
14762SOL    HW247879   3.552   6.885   2.160 -1.0779  0.4844 -0.2938
14763SOL     OW47880   8.518   6.541   8.064 -0.2443  0.3442  0.0684
14763SOL    HW147881   8.540   6.490   7.985  0.2652 -1.1110  1.1049
14763SOL    HW247882   8.587   6.607   8.071  0.8970 -0.8441  0.4048
14764SOL     OW47883   0.514  10.069   4.414  0.6027  0.1866  0.3064
14764SOL    HW147884   0.531   9.976   4.401  0.2245  0.0939  0.4712
14764SOL    HW247885   0.505  10.105   4.326  0.2523 -0.0261  0.2553
14765SOL     OW47886   1.312  10.771  10.740  0.6253 -0.4155  0.5239
14765SOL    HW147887   1.273  10.854  10.714  1.9232 -0.2484 -1.0827
14765SOL    HW247888   1.391  10.795  10.788  1.0456 -0.7114 -0.0087
14766SOL     OW47889   6.244   1.946   8.945 -0.3378 -0.2148  0.4668
14766SOL    HW147890   6.194   1.867   8.924 -1.6137 -0.0530  2.5933
14766SOL    HW247891   6.320   1.942   8.888 -1.9496 -1.3183 -1.7697
14767SOL     OW47892  10.140   3.593   3.934 -0.1112 -0.2695 -0.4380
14767SOL    HW147893  10.208   3.660   3.933 -0.4770  0.1040 -0.4378
14767SOL    HW247894  10.060   3.641   3.954 -0.3510 -0.7305 -0.2856
14768SOL     OW47895   6.989   1.101   3.274 -0.3393 -0.5065 -0.3453
14768SOL    HW147896   6.999   1.169   3.341 -0.2062 -0.6024 -0.2690
14768SOL    HW247897   7.045   1.130   3.202 -0.1260 -0.6371 -0.2330
14769SOL     OW47898   4.270  10.329   0.242  0.1577 -0.1710  0.4341
14769SOL    HW147899   4.206  10.345   0.173  1.0329  0.9470 -0.1318
14769SOL    HW247900   4.272  10.233   0.250 -1.2711 -0.2504  0.1974
14770SOL     OW47901   3.662   8.911   7.163  0.1764 -0.0891  0.4001
14770SOL    HW147902   3.660   8.848   7.235 -0.3871  1.3105  1.6613
14770SOL    HW247903   3.752   8.943   7.162  0.5082 -0.9882 -0.3507
14771SOL     OW47904   1.461   4.089   4.203  0.7130  0.1777 -0.3462
14771SOL    HW147905   1.487   4.049   4.286 -0.4307 -0.8826 -0.4678
14771SOL    HW247906   1.431   4.015   4.149  2.7850  0.6492 -2.2595
14772SOL     OW47907   7.238   9.072   4.944  0.3495 -0.1383  0.4896
14772SOL    HW147908   7.171   9.014   4.980 -0.1418 -1.6032 -2.4989
14772SOL    HW247909   7.320   9.023   4.957  0.1817 -0.6283 -0.1921
14773SOL     OW47910   1.089   7.742   8.576  0.0929 -0.1037 -0.4922
14773SOL    HW147911   1.046   7.684   8.637  0.6593 -1.3309 -1.2215
14773SOL    HW247912   1.101   7.690   8.497 -1.8990  1.8344 -2.2241
14774SOL     OW47913   9.561   8.167   2.435 -0.8913  0.2378 -0.4756
14774SOL    HW147914   9.606   8.189   2.517 -0.4492 -1.4066 -0.2358
14774SOL    HW247915   9.625   8.186   2.367  0.1581 -1.8408 -0.1516
14775SOL     OW47916   8.446  10.376   5.075  0.2482  0.6523  0.2746
14775SOL    HW147917   8.360  10.418   5.077  0.2997  0.7490  1.6047
14775SOL    HW247918   8.490  10.415   4.999 -0.5347  1.3066  0.1373
14776SOL     OW47919  10.407   9.252   4.606 -0.6834 -0.0652  0.0481
14776SOL    HW147920  10.389   9.158   4.609  0.3759 -0.3564 -1.6298
14776SOL    HW247921  10.371   9.281   4.522 -0.0831  0.8092  0.0778
14777SOL     OW47922   3.306  10.656   3.182 -0.2050  0.2592 -0.4731
14777SOL    HW147923   3.300  10.674   3.276  1.4004 -0.6110 -0.1731
14777SOL    HW247924   3.334  10.738   3.143  0.7989  0.1661  0.0421
14778SOL     OW47925   2.921   3.897   4.901  0.6995 -0.0120 -0.0341
14778SOL    HW147926   2.874   3.913   4.820  0.1622  0.4337  0.3647
14778SOL    HW247927   2.854   3.870   4.963  0.6732  2.2244  1.0046
14779SOL     OW47928   9.809   7.104   4.458 -0.4012  0.8034 -0.3833
14779SOL    HW147929   9.892   7.104   4.410 -0.4303  0.2034 -0.4427
14779SOL    HW247930   9.759   7.175   4.419  0.0170  1.0533 -0.4671
14780SOL     OW47931   4.177  11.042   3.409 -0.2228 -0.3346  0.3644
14780SOL    HW147932   4.251  11.081   3.458  0.0588 -1.0085  0.4891
14780SOL    HW247933   4.144  10.974   3.468  0.1525 -1.1950 -0.3974
14781SOL     OW47934   8.651   7.181   0.262  0.4116  0.0800 -0.2270
14781SOL    HW147935   8.584   7.164   0.196  0.9364 -0.2281 -0.6923
14781SOL    HW247936   8.662   7.097   0.306 -1.7597  0.8602  2.0308
14782SOL     OW47937   0.665   7.804   8.474 -0.5022  0.0911 -0.1973
14782SOL    HW147938   0.701   7.722   8.508 -0.2224  0.6933  1.0197
14782SOL    HW247939   0.732   7.869   8.493 -0.8249  0.6414 -0.9367
14783SOL     OW47940   7.495   9.208   8.690  0.8636  0.3882  1.0407
14783SOL    HW147941   7.468   9.145   8.757 -1.5517  1.5170  1.2562
14783SOL    HW247942   7.539   9.278   8.738  0.8624  0.2828  1.1950
14784SOL     OW47943   6.027   4.106   1.919  0.3446 -0.3002  0.5469
14784SOL    HW147944   6.115   4.143   1.929  0.0233  0.2063  1.7631
14784SOL    HW247945   5.973   4.180   1.892  0.1489 -0.4243  0.5947
14785SOL     OW47946   8.580   8.587   7.625  0.0169  0.5937  0.6857
14785SOL    HW147947   8.529   8.535   7.563  0.6511  0.7018  0.0670
14785SOL    HW247948   8.599   8.527   7.697  2.5922 -0.7456 -0.9875
14786SOL     OW47949   6.575   9.054  10.657  0.3226  0.0476 -0.0731
14786SOL    HW147950   6.494   9.033  10.609 -0.5062  0.7676  0.9767
14786SOL    HW247951   6.575   9.149  10.663 -0.1868 -0.0370  2.2808
14787SOL     OW47952   0.557   9.747  10.701  0.1762  0.0085 -0.7361
14787SOL    HW147953   0.478   9.727  10.750 -0.3129  0.7831 -1.1917
14787SOL    HW247954   0.600   9.662  10.689 -0.7851 -0.4765 -0.8391
14788SOL     OW47955   2.811   7.884   9.193 -0.4673 -0.4190 -0.4040
14788SOL    HW147956   2.840   7.862   9.105 -0.7358 -0.5523 -0.4574
14788SOL    HW247957   2.733   7.938   9.180  1.0985  2.0246 -0.3468
14789SOL     OW47958   9.740   3.524   0.937  0.7374  0.1749  0.3742
14789SOL    HW147959   9.726   3.519   0.842 -2.3574  1.3840  0.6353
14789SOL    HW247960   9.706   3.440   0.970 -1.1397  0.9567  0.5756
14790SOL     OW47961   6.495   9.673  11.014 -0.0052  0.1468  0.2219
14790SOL    HW147962   6.500   9.670  11.110 -2.7994  2.0828  0.5758
14790SOL    HW247963   6.429   9.608  10.991  0.6901 -0.3480 -0.4390
14791SOL     OW47964   2.464  10.991   9.044 -1.1192 -0.4210  0.0017
14791SOL    HW147965   2.547  11.006   9.089 -1.3432 -0.6560  0.5072
14791SOL    HW247966   2.399  11.032   9.100 -1.2045  1.0535 -1.1293
14792SOL     OW47967   9.766   4.375  10.827  0.2399 -0.5063  0.0938
14792SOL    HW147968   9.764   4.430  10.749 -0.4059  0.2322  0.6077
14792SOL    HW247969   9.806   4.293  10.799  3.6803  1.0960 -0.1308
14793SOL     OW47970   1.732   0.231   5.508  0.3618  0.4175  0.5153
14793SOL    HW147971   1.741   0.326   5.501  0.3988  0.3039 -1.7099
14793SOL    HW247972   1.637   0.217   5.517  0.4440  0.6756  2.1417
14794SOL     OW47973   5.734   9.784  10.725  0.8241 -0.0668 -0.1325
14794SOL    HW147974   5.787   9.800  10.803  1.3453 -0.6126 -0.3638
14794SOL    HW247975   5.710   9.871  10.693 -0.1322  0.1539  1.1202
14795SOL     OW47976   8.450   3.852  10.186 -1.0193 -0.0781  0.5505
14795SOL    HW147977   8.411   3.839  10.272 -0.5237 -0.5961  0.7033
14795SOL    HW247978   8.376   3.865  10.127 -1.3699  0.0497  1.0138
14796SOL     OW47979   6.455   3.688   7.347 -0.2339 -0.4351  0.2034
14796SOL    HW147980   6.536   3.638   7.343 -0.3405 -0.6662  0.8277
14796SOL    HW247981   6.388   3.627   7.317 -0.4073 -0.7807  1.2441
14797SOL     OW47982   5.374   1.208   3.408 -0.2045 -0.2399  0.5543
14797SOL    HW147983   5.363   1.231   3.316  1.7785 -0.1587  0.2890
14797SOL    HW247984   5.342   1.284   3.457 -1.1191 -0.2232 -0.0635
14798SOL     OW47985   8.707   0.912   6.610  0.5171  0.0153 -0.9513
14798SOL    HW147986   8.779   0.964   6.573 -1.7554  2.7080 -1.8841
14798SOL    HW247987   8.628   0.949   6.571 -1.5883 -1.2903  1.7635
14799SOL     OW47988   5.642   5.164  10.948  0.1170 -0.4976 -0.4569
14799SOL    HW147989   5.561   5.166  10.999  0.1698  0.2273 -0.3937
14799SOL    HW247990   5.709   5.134  11.010 -0.1342 -1.2806 -0.5593
14800SOL     OW47991   0.594  10.389   1.862 -0.7086 -0.2942 -0.2219
14800SOL    HW147992   0.548  10.349   1.788 -1.7088  0.9044 -0.2848
14800SOL    HW247993   0.525  10.409   1.925 -0.0987  0.3754  0.2489
14801SOL     OW47994   4.988   2.917  10.381  0.2901  0.2598 -0.6080
14801SOL    HW147995   5.043   2.855  10.335  0.4279 -0.0582 -0.0206
14801SOL    HW247996   4.952   2.868  10.455  2.1323  1.4088  1.1670
14802SOL     OW47997   1.910  10.587   8.788 -0.6159 -0.0923 -0.0948
14802SOL    HW147998   2.003  10.603   8.773 -1.4210  2.1889 -4.2739
14802SOL    HW247999   1.884  10.652   8.853  0.3051  0.8783 -0.6772
14803SOL     OW48000   4.906   9.478  10.024 -0.1019 -0.0621 -0.1555
14803SOL    HW148001   4.826   9.479   9.972  0.4329 -0.1461 -0.9915
14803SOL    HW248002   4.921   9.385  10.043 -1.4604  0.0833  2.0199
14804SOL     OW48003   5.550   0.987   0.792  0.1005 -0.1507 -0.5046
14804SOL    HW148004   5.461   0.995   0.760 -0.2900 -0.7157  0.3949
14804SOL    HW248005   5.573   0.895   0.776 -0.5008 -0.7509  1.7225
14805SOL     OW48006   9.980  10.373   0.640  0.0728 -0.3262 -0.1952
14805SOL    HW148007   9.895  10.378   0.684  0.1067 -0.8741 -0.0596
14805SOL    HW248008   9.961  10.392   0.549  0.0655  1.2758  0.1008
14806SOL     OW48009   9.549   9.017   8.620 -0.0483  1.1915 -0.5177
14806SOL    HW148010   9.623   9.045   8.567  1.6409  2.0977  2.0883
14806SOL    HW248011   9.529   9.092   8.676  2.2989 -1.2795  4.2196
14807SOL     OW48012   7.385   3.592   2.295 -0.6367  0.2289 -0.3181
14807SOL    HW148013   7.443   3.515   2.298 -1.0123 -0.0479  2.4983
14807SOL    HW248014   7.445   3.666   2.298 -0.3427  0.0076 -0.6149
14808SOL     OW48015   4.183   3.138   9.050  0.2081 -0.0451  0.1237
14808SOL    HW148016   4.087   3.132   9.045  0.3080 -0.9887 -1.7282
14808SOL    HW248017   4.213   3.050   9.026  1.5563 -0.1901  2.1139
14809SOL     OW48018  10.164   4.866  10.034  0.4074  0.2904 -0.1150
14809SOL    HW148019  10.205   4.825   9.957  0.4420 -0.1471  0.1323
14809SOL    HW248020  10.168   4.799  10.102 -1.1843  0.0520 -0.2237
14810SOL     OW48021   1.456   3.784   4.615  0.0187  0.1813  0.0159
14810SOL    HW148022   1.389   3.717   4.604 -0.3763  0.5404  0.2268
14810SOL    HW248023   1.512   3.750   4.686 -0.1165  0.0253  0.0475
14811SOL     OW48024   4.500  10.380   9.209  0.0124 -0.7450 -0.2907
14811SOL    HW148025   4.516  10.419   9.295  0.8380 -0.2615 -0.6540
14811SOL    HW248026   4.408  10.352   9.212 -1.0841  2.4598 -0.4546
14812SOL     OW48027   0.707   7.078   8.816  0.6679  0.4793  0.0061
14812SOL    HW148028   0.753   7.016   8.872 -0.8486 -0.8830 -0.1536
14812SOL    HW248029   0.643   7.120   8.874  1.4186  1.6649  0.0247
14813SOL     OW48030  10.005   9.808  10.579  0.0888 -0.2317 -0.0757
14813SOL    HW148031  10.025   9.886  10.526 -0.9140  1.1057  1.4159
14813SOL    HW248032   9.909   9.804  10.579  0.1244 -1.3336  0.0806
14814SOL     OW48033   1.964  10.418   1.807 -0.2696  0.0740  0.3193
14814SOL    HW148034   1.988  10.503   1.843  1.7056 -0.1435 -0.3482
14814SOL    HW248035   2.036  10.360   1.833  0.1407 -0.5781 -2.0560
14815SOL     OW48036   7.654   0.006   5.824 -0.2281 -0.4880 -0.0883
14815SOL    HW148037   7.621   0.084   5.869 -2.5447 -1.4564 -0.0044
14815SOL    HW248038   7.748   0.022   5.816 -0.3978  1.6312  1.2687
14816SOL     OW48039  10.445  11.089   8.037  0.1871 -0.2871  0.2317
14816SOL    HW148040  10.462  11.146   7.962 -0.7218 -1.3967 -0.8543
14816SOL    HW248041  10.377  11.028   8.006  1.5720 -2.3878  1.1274
14817SOL     OW48042   5.151  10.938   4.232 -0.2975 -0.3796  0.2244
14817SOL    HW148043   5.212  10.935   4.306 -0.6873 -1.7678  0.5206
14817SOL    HW248044   5.206  10.955   4.156  0.4075 -1.1540  0.5474
14818SOL     OW48045   6.915   1.323   1.921 -0.0200  0.3553  0.1409
14818SOL    HW148046   6.895   1.298   1.831  0.3883 -2.6858  0.7934
14818SOL    HW248047   7.009   1.308   1.930 -0.1446  0.1464  1.2004
14819SOL     OW48048  10.441   1.439   7.586  0.5340  0.6038  0.4764
14819SOL    HW148049  10.347   1.425   7.575  0.8033 -1.2118  0.1775
14819SOL    HW248050  10.451   1.468   7.677 -0.2449 -0.0521  0.7780
14820SOL     OW48051  10.682   2.360   5.136  0.3962  0.0052  0.5513
14820SOL    HW148052  10.707   2.404   5.055  1.0487 -0.9524  0.2221
14820SOL    HW248053  10.761   2.362   5.190  0.0557  0.3643  1.0559
14821SOL     OW48054   4.027   5.283   0.066  0.0900  0.0290  1.1224
14821SOL    HW148055   4.030   5.375   0.041 -0.8883 -0.1876  0.1254
14821SOL    HW248056   4.024   5.283   0.161 -1.3509  1.0754  1.0934
14822SOL     OW48057   2.026   8.394   1.532  0.1732  0.7208  0.2040
14822SOL    HW148058   1.942   8.367   1.493  1.3554 -0.3553 -1.7572
14822SOL    HW248059   2.006   8.477   1.576 -1.2850  2.3114 -3.0644
14823SOL     OW48060  10.181   3.775   6.472 -0.2882 -0.3038 -0.6375
14823SOL    HW148061  10.140   3.844   6.420 -0.6241 -0.6717 -0.8708
14823SOL    HW248062  10.220   3.716   6.407  0.5778  0.0210 -0.4157
14824SOL     OW48063  10.372   1.458   6.101  0.0688  0.2700 -0.2555
14824SOL    HW148064  10.303   1.513   6.137  0.7758  0.4642  0.8711
14824SOL    HW248065  10.449   1.515   6.096  0.3502 -0.1433 -0.7644
14825SOL     OW48066   8.841   9.504   0.905  0.5418  0.5435  0.2618
14825SOL    HW148067   8.830   9.456   0.987 -0.3085 -0.8031 -0.5814
14825SOL    HW248068   8.870   9.437   0.843 -3.0420  0.4499 -1.5718
14826SOL     OW48069   0.237   7.458   2.248 -0.4683  0.2980 -0.7363
14826SOL    HW148070   0.239   7.484   2.156 -1.5539  1.6522 -0.4066
14826SOL    HW248071   0.303   7.389   2.255  1.3074  1.7495 -2.0508
14827SOL     OW48072   2.492   5.559   0.895  0.2921  0.1409 -0.2815
14827SOL    HW148073   2.488   5.496   0.822 -0.2434  0.4902 -0.5693
14827SOL    HW248074   2.463   5.509   0.971  3.3395 -0.9612  0.2674
14828SOL     OW48075   8.506   3.685   5.909 -0.4701  0.0770 -0.2846
14828SOL    HW148076   8.431   3.740   5.931  0.4003  0.7090  1.2616
14828SOL    HW248077   8.496   3.608   5.965  0.9897  1.0263  1.3842
14829SOL     OW48078   2.892  10.214   5.370 -0.2292 -0.5811 -0.5079
14829SOL    HW148079   2.826  10.269   5.414 -2.0739 -0.3554 -3.3443
14829SOL    HW248080   2.963  10.275   5.349  1.2490 -0.8934  2.8900
14830SOL     OW48081   2.133   2.503   4.449  0.3947 -0.0697  0.0901
14830SOL    HW148082   2.086   2.422   4.430  0.8876 -0.5632  0.9041
14830SOL    HW248083   2.143   2.503   4.545  0.4225  0.9367  0.0924
14831SOL     OW48084  10.264   5.073   0.409  0.0138  0.4214  0.1843
14831SOL    HW148085  10.258   5.021   0.328 -0.1642  1.2208 -0.3281
14831SOL    HW248086  10.318   5.020   0.467  0.8499  0.2031 -0.7598
14832SOL     OW48087   4.414   8.594   2.384  0.2989  0.2598 -0.1536
14832SOL    HW148088   4.455   8.548   2.458 -0.3140 -0.0011  0.0373
14832SOL    HW248089   4.443   8.546   2.307 -2.8128 -2.5733  0.2021
14833SOL     OW48090   8.178   2.574   8.340  0.2279 -0.2031  0.3723
14833SOL    HW148091   8.165   2.654   8.391 -0.5443 -0.2024  0.1856
14833SOL    HW248092   8.177   2.602   8.249  1.9531 -0.1578  0.3320
14834SOL     OW48093   3.654   8.040   3.306  0.2058 -0.1354 -0.0264
14834SOL    HW148094   3.604   7.982   3.363  0.3033 -0.1687  0.0244
14834SOL    HW248095   3.587   8.089   3.257  0.1171  0.1940  0.4173
14835SOL     OW48096   9.874   8.557   1.323 -0.0567 -0.4630 -0.1365
14835SOL    HW148097   9.822   8.526   1.248 -0.1796 -0.2998 -0.1195
14835SOL    HW248098   9.809   8.585   1.387  0.0489 -0.5690  0.0190
14836SOL     OW48099   4.519  11.058   9.550 -0.4251  0.1550  0.5946
14836SOL    HW148100   4.450  11.035   9.613 -1.2339 -0.5025 -0.5022
14836SOL    HW248101   4.491  11.141   9.512 -1.5061 -0.9027 -1.0392
14837SOL     OW48102   8.839   8.207   7.805 -0.9084 -0.5658  0.3262
14837SOL    HW148103   8.867   8.149   7.734 -2.6141 -1.4081  0.2821
14837SOL    HW248104   8.791   8.151   7.865 -0.7014  0.4082  1.4444
14838SOL     OW48105   5.628   9.396   2.321 -0.5174 -0.0878 -0.4123
14838SOL    HW148106   5.689   9.357   2.258  0.8238  1.0836  0.1034
14838SOL    HW248107   5.630   9.490   2.302 -1.9796  0.0170 -0.2012
14839SOL     OW48108  11.071   1.157   3.017 -0.5346 -0.6452  0.6573
14839SOL    HW148109  11.071   1.134   3.109 -0.1427 -0.5230  0.6865
14839SOL    HW248110  11.041   1.248   3.015 -0.9542 -0.7832  0.6307
14840SOL     OW48111   4.715   1.055   7.698  0.3933  0.4717  0.0904
14840SOL    HW148112   4.639   1.007   7.667  0.6466 -0.0765  0.3042
14840SOL    HW248113   4.751   1.098   7.620  0.2754  0.1559 -0.1359
14841SOL     OW48114   5.535   1.462   2.118  0.5938 -0.1260  0.0360
14841SOL    HW148115   5.469   1.393   2.117  0.2747  0.1646 -0.8907
14841SOL    HW248116   5.503   1.525   2.182 -0.0901  0.0604 -0.4758
14842SOL     OW48117   7.632   8.390   2.788 -0.0739 -0.1967  0.5812
14842SOL    HW148118   7.593   8.308   2.757  1.3616 -0.8375  0.3983
14842SOL    HW248119   7.694   8.363   2.856 -0.4925  0.8704  1.4275
14843SOL     OW48120   8.566   6.423   8.340  0.0313 -0.0936 -0.0513
14843SOL    HW148121   8.504   6.351   8.343 -0.9811  0.7777  0.4687
14843SOL    HW248122   8.512   6.502   8.335  1.1083  0.6421 -0.4968
14844SOL     OW48123   0.437  10.114   5.890  0.0781  0.0815 -0.3607
14844SOL    HW148124   0.424  10.191   5.835 -0.2061  0.5447  0.3447
14844SOL    HW248125   0.433  10.147   5.980 -0.8633 -0.8735 -0.0263
14845SOL     OW48126   9.566   2.627   8.754 -0.9767 -0.2748  0.0413
14845SOL    HW148127   9.484   2.580   8.772 -0.4873 -0.5551  1.6947
14845SOL    HW248128   9.550   2.716   8.787 -0.6445 -0.2914  0.2401
14846SOL     OW48129   8.206   4.932   4.796 -0.4173 -0.0705  0.6542
14846SOL    HW148130   8.112   4.946   4.790 -0.3592  0.5461  1.0544
14846SOL    HW248131   8.221   4.905   4.886 -0.2210 -0.2687  0.5641
14847SOL     OW48132   1.553  10.942   3.031 -0.3725 -0.7336  0.5441
14847SOL    HW148133   1.510  10.889   2.964 -1.0751  0.6726 -0.1591
14847SOL    HW248134   1.483  10.994   3.070  0.4799  0.7188  0.2037
14848SOL     OW48135   5.330   4.028   0.329 -0.2109 -1.1302 -0.1038
14848SOL    HW148136   5.344   3.978   0.409  0.1213 -1.7729 -0.5566
14848SOL    HW248137   5.414   4.026   0.284 -0.1492 -0.0242 -0.0597
14849SOL     OW48138   9.590   4.400   3.870  0.3455 -0.4377 -0.0379
14849SOL    HW148139   9.539   4.437   3.798  0.4838  0.1909  0.1782
14849SOL    HW248140   9.587   4.306   3.856  0.3391 -0.3260 -0.8453
14850SOL     OW48141   0.383   9.933  10.040  0.2379 -0.1208  0.2171
14850SOL    HW148142   0.427  10.007  10.082  0.3651 -0.6456  1.0352
14850SOL    HW248143   0.291   9.960  10.034  0.6131  0.9106 -1.3552
14851SOL     OW48144   0.350   7.195   0.109  0.7397 -0.3167  0.1391
14851SOL    HW148145   0.410   7.270   0.111  1.0547 -0.5778  1.8574
14851SOL    HW248146   0.405   7.121   0.083  0.2415  0.1345 -2.5044
14852SOL     OW48147   9.952   9.151   4.741 -0.0862  0.2653 -0.0558
14852SOL    HW148148   9.873   9.141   4.688 -1.1069 -0.4105  1.5017
14852SOL    HW248149  10.018   9.100   4.694 -0.0328  2.2063 -2.2780
14853SOL     OW48150   4.121   9.441   4.352  0.1357 -0.2554 -0.5007
14853SOL    HW148151   4.206   9.418   4.391 -1.0314 -1.5227  1.4257
14853SOL    HW248152   4.080   9.357   4.332 -1.1192  0.3151 -0.4165
14854SOL     OW48153   9.302   8.301   2.398 -0.8919  0.2288  0.0625
14854SOL    HW148154   9.368   8.241   2.431  0.4602  1.8510  0.4484
14854SOL    HW248155   9.256   8.332   2.475 -1.5362 -0.2404 -0.1267
14855SOL     OW48156   7.180   2.047   8.791 -0.4981  0.1260 -0.5190
14855SOL    HW148157   7.227   1.997   8.857  0.3468  0.2047 -1.0473
14855SOL    HW248158   7.087   2.032   8.811 -0.2882 -1.9468 -0.8643
14856SOL     OW48159   3.232   0.165   2.761  0.0868  0.2184 -0.0069
14856SOL    HW148160   3.240   0.168   2.856  0.8762  0.0533 -0.0576
14856SOL    HW248161   3.235   0.072   2.740  1.1955  0.2989 -0.2766
14857SOL     OW48162   4.191   3.565   4.496 -0.1079  0.1989  0.4628
14857SOL    HW148163   4.145   3.613   4.428 -0.0188 -0.3567  0.0028
14857SOL    HW248164   4.256   3.512   4.449  1.0608  1.0209  1.0938
14858SOL     OW48165   8.942   5.480   4.931 -0.2737 -0.0600 -0.5332
14858SOL    HW148166   8.862   5.484   4.879 -0.1206  0.9478 -0.7211
14858SOL    HW248167   9.007   5.526   4.878  0.2571 -0.2846 -0.0887
14859SOL     OW48168   5.750  10.950   8.936  0.0154  0.5590 -0.4375
14859SOL    HW148169   5.750  10.868   8.886  0.6558  0.1934  0.1541
14859SOL    HW248170   5.800  10.930   9.015 -1.0934  1.0985  0.4197
14860SOL     OW48171   0.034   2.994   1.346 -0.6792 -0.2941  0.6001
14860SOL    HW148172   0.125   2.989   1.377  0.3343  1.2030 -1.8163
14860SOL    HW248173   0.026   2.921   1.285 -0.8536 -0.0108  0.2812
14861SOL     OW48174   0.565   6.364   8.879 -0.2452  0.1961  0.2360
14861SOL    HW148175   0.613   6.326   8.952 -1.4168 -0.8453  0.4947
14861SOL    HW248176   0.498   6.419   8.920 -0.5416  0.0696 -0.0728
14862SOL     OW48177   5.866   3.342  10.307  0.2013 -0.4997 -0.6638
14862SOL    HW148178   5.909   3.277  10.252  0.4192  0.2254 -1.3634
14862SOL    HW248179   5.777   3.308  10.320  0.6227 -1.4373 -0.1612
14863SOL     OW48180   4.394   0.198   9.570  0.3372 -0.1721  0.4101
14863SOL    HW148181   4.445   0.185   9.650  0.6926  0.8327  0.3520
14863SOL    HW248182   4.321   0.253   9.597  0.3968  0.0753  0.0656
14864SOL     OW48183   7.846   3.099   4.822 -0.5452  0.0275  0.3206
14864SOL    HW148184   7.880   3.188   4.827 -0.9638  0.3612 -1.7778
14864SOL    HW248185   7.778   3.103   4.754 -0.4784 -1.9188  0.0841
14865SOL     OW48186   7.494   3.529   4.940 -0.5504  0.0750 -0.0839
14865SOL    HW148187   7.475   3.485   4.857  0.0146 -1.1408  0.4014
14865SOL    HW248188   7.421   3.506   4.997  1.0921 -2.7627  1.0850
14866SOL     OW48189   1.213   1.322   2.957  0.3026  0.8107  0.3628
14866SOL    HW148190   1.199   1.230   2.938 -0.6574  1.2255 -1.1615
14866SOL    HW248191   1.214   1.328   3.052 -0.3360 -0.6629  0.4870
14867SOL     OW48192   4.276  10.004   9.061  0.2992 -0.1133 -0.3234
14867SOL    HW148193   4.330  10.071   9.018 -0.4170  0.2258 -0.7119
14867SOL    HW248194   4.306   9.921   9.022  0.2928  0.1058 -0.8087
14868SOL     OW48195   8.529   6.426   6.792  0.5244  0.2679  0.0294
14868SOL    HW148196   8.439   6.426   6.757  0.4292 -1.8166  0.1415
14868SOL    HW248197   8.517   6.416   6.887  0.8690  2.7570  0.4152
14869SOL     OW48198   7.259   7.119   4.888 -0.3927 -0.3933 -0.5881
14869SOL    HW148199   7.211   7.162   4.818 -3.0292  1.2584  1.9697
14869SOL    HW248200   7.326   7.182   4.913 -0.5063 -0.2636 -0.6061
14870SOL     OW48201  10.859   7.397   0.972  0.1999  0.4740 -0.5396
14870SOL    HW148202  10.886   7.306   0.962 -0.9281 -0.1418  1.5784
14870SOL    HW248203  10.774   7.401   0.927 -0.1019  0.2756  0.0042
14871SOL     OW48204   7.514   6.223   0.130 -0.2732 -0.8582 -0.0480
14871SOL    HW148205   7.423   6.238   0.104  0.0311 -1.2951 -1.4011
14871SOL    HW248206   7.522   6.269   0.214 -2.0100 -1.6606  0.6090
14872SOL     OW48207   5.358   1.420   6.231 -0.1627  0.0139 -0.0595
14872SOL    HW148208   5.415   1.495   6.216 -0.7262 -0.0432 -3.2067
14872SOL    HW248209   5.411   1.343   6.209 -0.3912 -0.3121  0.4985
14873SOL     OW48210   3.145   7.657   3.116  0.1577  0.3697  0.2658
14873SOL    HW148211   3.132   7.566   3.144 -0.1031  0.1380 -0.5695
14873SOL    HW248212   3.233   7.658   3.079 -0.6086 -0.1004 -1.7196
14874SOL     OW48213   6.740   0.661   2.168 -0.2395  0.0910 -0.5908
14874SOL    HW148214   6.672   0.594   2.175 -0.4203  0.2186 -1.1090
14874SOL    HW248215   6.815   0.623   2.213 -0.4026 -0.3801 -0.7080
14875SOL     OW48216   7.509   3.881   9.091 -0.3315 -0.3822  0.3193
14875SOL    HW148217   7.486   3.803   9.142 -0.8994 -1.3776 -1.3727
14875SOL    HW248218   7.446   3.881   9.019  0.2091  1.1779 -0.1812
14876SOL     OW48219   3.840   1.463   8.138  0.3850  0.0079  0.3515
14876SOL    HW148220   3.923   1.457   8.090  0.2357  0.7714 -0.0010
14876SOL    HW248221   3.865   1.496   8.224  0.5178 -0.3103  0.4351
14877SOL     OW48222   9.320   2.643   4.045 -0.1788 -0.6745  0.2994
14877SOL    HW148223   9.257   2.583   4.004 -2.4774  0.9960  1.2027
14877SOL    HW248224   9.337   2.605   4.131  1.2988 -1.9146 -0.4910
14878SOL     OW48225   0.031  10.490  10.388 -0.2107  0.5431  0.4503
14878SOL    HW148226  -0.039  10.467  10.448  0.6764  0.3292  1.4208
14878SOL    HW248227   0.109  10.499  10.443  0.2369  2.2350 -0.3877
14879SOL     OW48228  10.733   7.498   4.191 -0.2369 -0.0533 -0.1852
14879SOL    HW148229  10.691   7.501   4.105 -1.2734 -0.6703  0.2841
14879SOL    HW248230  10.691   7.425   4.236  1.5746 -0.9248  0.2011
14880SOL     OW48231   6.742   9.472   4.323 -0.3934  0.1721 -0.6186
14880SOL    HW148232   6.769   9.503   4.409 -0.9752  1.2537 -0.7996
14880SOL    HW248233   6.816   9.420   4.292 -1.2326 -2.6040  1.6280
14881SOL     OW48234   2.900  10.727   9.690 -0.0054 -0.3505 -0.7499
14881SOL    HW148235   2.916  10.700   9.600  0.2956 -0.3431 -0.6997
14881SOL    HW248236   2.805  10.723   9.700  0.0560 -2.3286 -0.4582
14882SOL     OW48237   5.609   1.614  10.028 -0.1915  0.9467  0.0878
14882SOL    HW148238   5.695   1.579  10.006 -0.4557 -0.3742  0.9858
14882SOL    HW248239   5.558   1.606   9.947 -0.0147 -0.0640  0.0650
14883SOL     OW48240   1.437  10.454   3.310  0.1901 -0.1388 -0.3673
14883SOL    HW148241   1.436  10.456   3.214  0.9929 -2.0566 -0.4625
14883SOL    HW248242   1.348  10.476   3.336 -0.1513 -0.0569 -1.5686
14884SOL     OW48243   1.307   8.459  10.658  0.3162  0.5095 -0.5774
14884SOL    HW148244   1.282   8.473  10.749  0.3822  1.1996 -0.6636
14884SOL    HW248245   1.260   8.380  10.632  1.2439 -0.4041  0.4179
14885SOL     OW48246   0.760   8.513   0.089  0.1294 -0.0313  0.3289
14885SOL    HW148247   0.757   8.468   0.004  0.2548  2.3675 -1.0301
14885SOL    HW248248   0.676   8.559   0.095  0.7500  1.0870  0.7580
14886SOL     OW48249   0.141   6.499   4.331  0.3854 -0.6280  0.1493
14886SOL    HW148250   0.214   6.461   4.380  1.2514  0.8256  0.0658
14886SOL    HW248251   0.107   6.428   4.277  1.3243 -1.4970  0.6838
14887SOL     OW48252   5.206   7.413   3.829 -0.2381 -0.3527 -0.4483
14887SOL    HW148253   5.231   7.383   3.916  0.7618  1.8821  0.1072
14887SOL    HW248254   5.111   7.422   3.833 -0.0104  2.6996  1.5725
14888SOL     OW48255  10.457   4.732   1.004 -0.0248  0.1988 -0.2609
14888SOL    HW148256  10.438   4.740   1.098  0.5676  2.2778 -0.2588
14888SOL    HW248257  10.479   4.821   0.977 -0.8654 -0.2229 -2.5471
14889SOL     OW48258   7.652  10.697   1.619  0.2990 -0.6871 -0.2357
14889SOL    HW148259   7.577  10.648   1.654 -2.1438  3.8084  1.6956
14889SOL    HW248260   7.726  10.667   1.671 -1.1574 -1.8389  1.3039
14890SOL     OW48261   5.946   5.426   1.164 -0.1982  0.1174 -0.1194
14890SOL    HW148262   5.924   5.333   1.167 -1.0232  0.1225 -2.9730
14890SOL    HW248263   5.875   5.468   1.213 -0.0197 -0.7062  0.8796
14891SOL     OW48264   7.964   4.987   4.140 -0.6928  0.0239  0.0351
14891SOL    HW148265   7.995   4.919   4.199  1.5401  1.8219  1.0949
14891SOL    HW248266   7.926   4.940   4.066  0.3389 -2.3395  0.9252
14892SOL     OW48267   8.136  10.001  10.453  0.3240  0.3788  0.0622
14892SOL    HW148268   8.087  10.083  10.442  1.0867  0.7301 -0.8286
14892SOL    HW248269   8.100   9.963  10.533  1.1393  2.4212  1.4868
14893SOL     OW48270   1.335   2.994   3.355 -0.3042  0.7471  0.3508
14893SOL    HW148271   1.320   3.032   3.269 -0.2508 -0.7932 -0.3700
14893SOL    HW248272   1.247   2.978   3.390 -0.3341  1.9160  0.8634
14894SOL     OW48273   1.833   1.753  10.884  0.3882  0.2864 -0.0223
14894SOL    HW148274   1.766   1.800  10.933  0.8666 -0.2107  1.1723
14894SOL    HW248275   1.857   1.679  10.941  1.0218 -0.2816 -0.9885
14895SOL     OW48276   2.219   7.051   3.787  0.0477  0.2089  0.0317
14895SOL    HW148277   2.164   7.012   3.719 -0.4837 -0.8976  1.0652
14895SOL    HW248278   2.173   7.034   3.868  0.4618  1.9006  0.6596
14896SOL     OW48279   6.638   2.820   7.419 -0.2543  0.1323 -0.0536
14896SOL    HW148280   6.593   2.769   7.352  0.1969 -1.0083  0.4896
14896SOL    HW248281   6.634   2.765   7.498  1.1661  0.4704  0.2796
14897SOL     OW48282   3.196  10.356   5.018 -0.1598 -0.2467  0.3686
14897SOL    HW148283   3.255  10.321   4.951 -1.1330  0.1875 -0.7521
14897SOL    HW248284   3.122  10.296   5.019 -2.0182  1.7885 -1.8234
14898SOL     OW48285   7.596   3.854   2.121  0.1265  0.2258 -0.0145
14898SOL    HW148286   7.516   3.903   2.142  1.3865  3.1503 -1.4274
14898SOL    HW248287   7.657   3.878   2.191  0.9388  1.2072 -1.0257
14899SOL     OW48288   7.451   6.968  10.925 -0.2649  0.0705  0.5365
14899SOL    HW148289   7.416   6.934  10.842  0.5697 -1.1671  0.6516
14899SOL    HW248290   7.379   7.017  10.964 -0.9603 -0.0982 -0.4968
14900SOL     OW48291   8.916   8.881  10.325 -0.4872  0.3358  0.0500
14900SOL    HW148292   8.843   8.892  10.385 -1.9775  1.5858 -1.8670
14900SOL    HW248293   8.899   8.798  10.281  1.3779 -1.3152  2.2623
14901SOL     OW48294   2.762   0.816   1.454  0.6019  0.3174  0.2035
14901SOL    HW148295   2.699   0.844   1.387  2.7929  1.7750 -1.3872
14901SOL    HW248296   2.750   0.721   1.459  1.8830 -0.3148 -4.1556
14902SOL     OW48297   2.268  10.967   5.695 -0.2441  0.9323 -0.1679
14902SOL    HW148298   2.350  10.955   5.648  0.7216  2.4178  1.0761
14902SOL    HW248299   2.201  10.932   5.635  1.1587  0.6513 -1.6374
14903SOL     OW48300   0.515   5.245   6.800 -0.1448  0.1629  0.1432
14903SOL    HW148301   0.521   5.341   6.808  0.0409  0.0760  1.2640
14903SOL    HW248302   0.429   5.224   6.835  0.0559 -0.1255  0.4728
14904SOL     OW48303  10.183   8.079   1.692  0.3033 -0.4316 -0.0422
14904SOL    HW148304  10.175   8.163   1.738 -2.4010 -0.5676 -0.1044
14904SOL    HW248305  10.255   8.092   1.631  1.0891  1.2433  1.1452
14905SOL     OW48306   6.544   9.615   8.455 -0.1561  0.5817 -0.1409
14905SOL    HW148307   6.493   9.695   8.454  2.4076  2.4326  2.2603
14905SOL    HW248308   6.621   9.635   8.401 -0.7071 -1.3426 -1.8100
14906SOL     OW48309   5.894   4.867   9.741 -0.3667 -0.5993 -1.0601
14906SOL    HW148310   5.952   4.892   9.670 -2.3022  1.0401 -2.1724
14906SOL    HW248311   5.874   4.774   9.725  1.8841 -1.2110 -0.6131
14907SOL     OW48312   8.391   5.968   3.710  0.1455 -0.2423 -0.3842
14907SOL    HW148313   8.358   5.972   3.620  1.0411 -0.2797 -0.7231
14907SOL    HW248314   8.417   5.877   3.723 -1.1127 -0.5233  0.3430
14908SOL     OW48315   2.499   4.583   1.659 -0.4828 -0.3570 -0.7112
14908SOL    HW148316   2.499   4.591   1.563 -3.9541  1.0934 -0.7420
14908SOL    HW248317   2.490   4.673   1.690  2.5100 -0.5790  1.2010
14909SOL     OW48318   7.894   6.849   0.339 -0.2144  0.1226  0.4575
14909SOL    HW148319   7.963   6.782   0.334  0.5113  0.9022 -0.1389
14909SOL    HW248320   7.814   6.804   0.310  0.0934 -0.7101  0.8794
14910SOL     OW48321   6.751   0.690   8.098 -0.5239  0.5433  0.0213
14910SOL    HW148322   6.819   0.651   8.044 -0.3129  2.8670 -1.5583
14910SOL    HW248323   6.791   0.697   8.185 -0.2965 -1.8502  0.1584
14911SOL     OW48324   9.192   7.397   9.410  0.0226 -0.3410  0.8507
14911SOL    HW148325   9.217   7.345   9.333 -1.4964 -1.0406  0.7876
14911SOL    HW248326   9.172   7.331   9.477  0.4677  0.2425  1.5656
14912SOL     OW48327   3.384   0.350   2.001 -0.5684  0.1315  0.4181
14912SOL    HW148328   3.337   0.428   2.029 -1.0119 -0.4865  1.4611
14912SOL    HW248329   3.317   0.294   1.962 -0.1042  0.6108 -1.1405
14913SOL     OW48330   9.208   5.965   3.254  0.1763  0.2201 -0.4997
14913SOL    HW148331   9.273   5.992   3.189  0.3560 -1.3603 -1.0118
14913SOL    HW248332   9.250   5.984   3.338  0.2849  1.4925 -0.8213
14914SOL     OW48333   5.400   7.415   4.752 -0.2441  0.7924  0.0984
14914SOL    HW148334   5.467   7.398   4.685 -0.3111  0.1484  0.1848
14914SOL    HW248335   5.331   7.352   4.733  0.0969  0.0459  1.2579
14915SOL     OW48336   4.593  10.156   1.566  0.0712  0.7208  0.0750
14915SOL    HW148337   4.577  10.122   1.654  0.1898  1.4802  0.4011
14915SOL    HW248338   4.685  10.136   1.549 -0.7895 -2.7702 -1.4095
14916SOL     OW48339   5.929   0.087   0.719 -0.7805  0.1782 -0.4069
14916SOL    HW148340   5.835   0.106   0.727 -0.7163 -0.1576  1.4102
14916SOL    HW248341   5.970   0.173   0.711 -1.0090  0.5716  1.9381
14917SOL     OW48342   4.559  10.685   5.630 -0.3842 -0.0249 -0.7622
14917SOL    HW148343   4.548  10.621   5.699  0.2367  2.2374  1.5886
14917SOL    HW248344   4.471  10.720   5.615 -0.4074  0.0125 -0.5455
14918SOL     OW48345   9.146   7.039  10.766  0.0148  0.3901 -0.3493
14918SOL    HW148346   9.070   7.063  10.714  1.1780  2.1600 -1.3503
14918SOL    HW248347   9.215   7.100  10.738  1.8120 -1.1306  0.5100
14919SOL     OW48348   0.958  11.036   0.038 -0.0069  0.2654  0.0866
14919SOL    HW148349   0.865  11.022   0.018 -0.1955 -0.0838  1.1438
14919SOL    HW248350   0.957  11.091   0.117  0.6842  0.0238  0.2640
14920SOL     OW48351   3.862   7.257   6.468  0.2251  0.0529  0.1867
14920SOL    HW148352   3.880   7.348   6.447 -0.9005  0.1263 -0.5278
14920SOL    HW248353   3.948   7.215   6.468  0.5336  0.5387 -2.2575
14921SOL     OW48354   2.486   0.973   2.276 -0.2356 -0.0731 -0.1067
14921SOL    HW148355   2.562   0.917   2.265  0.0154  0.4157 -0.9183
14921SOL    HW248356   2.448   0.980   2.189 -0.5705  0.5863  0.0860
14922SOL     OW48357   7.266  11.027   0.953  0.0137 -0.0516  0.1607
14922SOL    HW148358   7.186  10.976   0.940 -0.2441  0.3093  0.3543
14922SOL    HW248359   7.247  11.113   0.915  0.7884 -0.3919 -1.0805
14923SOL     OW48360   2.712   4.324   0.168 -0.3080 -0.0350  0.0889
14923SOL    HW148361   2.749   4.237   0.182 -1.4150 -0.8061 -1.4808
14923SOL    HW248362   2.778   4.384   0.204  1.9735 -1.3800 -1.5646
14924SOL     OW48363  10.040   3.602  11.066 -0.6249  0.0067 -0.1868
14924SOL    HW148364  10.089   3.667  11.117 -2.2340  1.0175  0.1417
14924SOL    HW248365   9.965   3.650  11.031 -0.6578 -1.1666 -1.8358
14925SOL     OW48366   8.716   8.114   0.433  0.3417  0.4290  0.3695
14925SOL    HW148367   8.752   8.046   0.376  0.1189  0.1819  0.5181
14925SOL    HW248368   8.792   8.154   0.474  0.4507 -0.4154  1.0500
14926SOL     OW48369   1.641  10.588   8.953 -0.1288 -0.5293 -0.3944
14926SOL    HW148370   1.594  10.612   9.033 -0.2395 -0.7166 -0.4014
14926SOL    HW248371   1.617  10.496   8.939  0.1729 -0.6019 -0.4434
14927SOL     OW48372  11.074   6.009   6.424  0.3831  0.5679 -0.0217
14927SOL    HW148373  11.056   5.963   6.506  0.1994 -0.9215 -0.8554
14927SOL    HW248374  11.167   5.994   6.407  0.2688  0.2943 -0.4191
14928SOL     OW48375   2.445   9.060   3.326  0.2950  0.0851 -0.3480
14928SOL    HW148376   2.523   9.010   3.351  1.4134  2.2079  0.6261
14928SOL    HW248377   2.374   9.021   3.377  1.4688  0.5576  1.7702
14929SOL     OW48378   1.622   9.412   1.323 -0.5157  0.1312 -0.0651
14929SOL    HW148379   1.674   9.467   1.265 -1.9587  1.5701 -0.0572
14929SOL    HW248380   1.615   9.328   1.278  1.3432  0.0686 -0.2940
14930SOL     OW48381   3.251   3.242   0.301  0.2263  0.0912  0.5888
14930SOL    HW148382   3.227   3.151   0.320  2.0823 -0.5009  0.3381
14930SOL    HW248383   3.185   3.271   0.237  0.2492 -1.4696 -0.2120
14931SOL     OW48384   6.413   6.551   0.494 -0.0186 -0.1612 -0.4709
14931SOL    HW148385   6.398   6.501   0.414  2.6335  2.4125 -2.7964
14931SOL    HW248386   6.507   6.549   0.508  0.1411  3.2176 -0.1592
14932SOL     OW48387   9.759   7.841   3.844 -0.2211  0.2985  0.5724
14932SOL    HW148388   9.796   7.912   3.792 -1.4611  0.3877 -0.2481
14932SOL    HW248389   9.688   7.807   3.789 -1.5177  0.3160  2.1794
14933SOL     OW48390   9.645  10.035   5.719  0.6511  0.8661 -0.1146
14933SOL    HW148391   9.687   9.961   5.763 -0.7031  0.5988  0.7946
14933SOL    HW248392   9.714  10.073   5.664  2.0137  0.3451  1.1744
14934SOL     OW48393   7.231   3.317   8.944  0.1466  0.4943 -0.0752
14934SOL    HW148394   7.200   3.280   9.027 -0.7078  0.1149 -0.5403
14934SOL    HW248395   7.153   3.359   8.906  0.0445 -0.8697 -1.4880
14935SOL     OW48396   8.350   5.633   6.608 -0.7682  0.0289  0.4143
14935SOL    HW148397   8.264   5.647   6.648 -1.4951 -1.3296 -0.5828
14935SOL    HW248398   8.347   5.681   6.525  0.3016  1.8606  1.3858
14936SOL     OW48399   6.854   5.594   0.037 -0.2144 -0.2270 -0.4941
14936SOL    HW148400   6.872   5.506   0.003  0.3459 -0.1120 -0.5202
14936SOL    HW248401   6.759   5.598   0.047 -0.3101 -0.5708 -1.2165
14937SOL     OW48402  11.007   2.888  10.508  0.2820 -0.7138  0.1314
14937SOL    HW148403  10.912   2.877  10.509  0.1417  0.4270  0.1739
14937SOL    HW248404  11.040   2.805  10.473 -0.7019 -1.2609  0.4626
14938SOL     OW48405   9.861  10.421  10.089 -0.2404  0.1164 -0.3723
14938SOL    HW148406   9.902  10.365  10.022 -2.2707 -1.5676 -0.3499
14938SOL    HW248407   9.791  10.466  10.042 -0.8446 -0.0675  0.3313
14939SOL     OW48408   5.734   0.014  11.028 -0.0398  0.5755  0.2573
14939SOL    HW148409   5.680   0.093  11.019 -1.8986 -0.8158 -2.2737
14939SOL    HW248410   5.804   0.025  10.964 -1.1095 -0.3306 -1.1376
14940SOL     OW48411   7.979   5.396   5.617  0.3439  0.0209 -0.1806
14940SOL    HW148412   7.997   5.334   5.687  0.9884  1.1113  0.6698
14940SOL    HW248413   7.906   5.358   5.568 -0.3391 -0.6230  1.2808
14941SOL     OW48414   5.864   0.576   1.748  0.2873  0.0120 -0.3003
14941SOL    HW148415   5.935   0.588   1.811  0.5549 -1.6139 -0.2497
14941SOL    HW248416   5.824   0.493   1.772 -0.0996 -0.2700 -1.8038
14942SOL     OW48417   0.065   2.857   9.492  0.0125  0.3047 -0.1180
14942SOL    HW148418  -0.010   2.899   9.534 -0.7426 -1.4156  0.3424
14942SOL    HW248419   0.077   2.775   9.540  1.6009  0.0981 -0.8017
14943SOL     OW48420   9.675   9.418   5.931 -0.1835 -0.0123 -0.1855
14943SOL    HW148421   9.719   9.465   5.860 -0.4556  2.2844  1.0804
14943SOL    HW248422   9.627   9.486   5.979 -0.1507 -1.4875  2.0896
14944SOL     OW48423   7.072   8.285   5.213  0.7607  0.5912 -0.3854
14944SOL    HW148424   7.088   8.244   5.298  1.2881  1.1018 -0.2341
14944SOL    HW248425   6.984   8.324   5.222  0.2864 -0.4178 -0.5101
14945SOL     OW48426   6.961   7.984   0.909 -0.2728  0.0998  0.1109
14945SOL    HW148427   6.896   7.931   0.862 -0.3923 -0.9563  1.4381
14945SOL    HW248428   6.910   8.027   0.978 -0.1575  1.8937 -0.8575
14946SOL     OW48429   7.164   3.577   6.958 -0.3347 -0.2293 -0.0782
14946SOL    HW148430   7.154   3.582   6.863  0.4556  0.8964 -0.1151
14946SOL    HW248431   7.074   3.576   6.991 -0.6294  0.8913 -0.7809
14947SOL     OW48432  10.257   3.645   9.706  0.0097  0.0326 -0.1791
14947SOL    HW148433  10.270   3.566   9.654  2.6613  0.3604 -0.1962
14947SOL    HW248434  10.188   3.623   9.768  1.5203 -2.8168  0.6948
14948SOL     OW48435   4.778   8.831   6.625  0.4159 -0.0635 -0.1669
14948SOL    HW148436   4.853   8.820   6.567  1.9020 -0.6148  1.7634
14948SOL    HW248437   4.798   8.910   6.675 -1.2241  0.8700 -0.8864
14949SOL     OW48438   8.548   6.637   9.635  0.2272  0.3069  0.3471
14949SOL    HW148439   8.558   6.618   9.728 -2.0296 -1.0077  0.3847
14949SOL    HW248440   8.530   6.731   9.632 -0.4803  0.2143  1.3181
14950SOL     OW48441   8.682   0.495   5.822 -0.3277  0.1430  0.6302
14950SOL    HW148442   8.766   0.533   5.797 -1.1608  2.5075  1.2381
14950SOL    HW248443   8.624   0.514   5.749 -0.6065 -0.6359  0.6336
14951SOL     OW48444   0.642   0.036   1.478  0.3430  0.2669  0.3614
14951SOL    HW148445   0.550   0.055   1.497  0.0385  0.9807 -1.6856
14951SOL    HW248446   0.688   0.062   1.558 -1.1565  0.4100  1.2236
14952SOL     OW48447   3.267   1.355   9.772  0.1220  0.6225 -0.6643
14952SOL    HW148448   3.218   1.373   9.692  1.3334  0.4664 -1.4685
14952SOL    HW248449   3.317   1.435   9.788  0.6274  0.3106 -0.6340
14953SOL     OW48450   3.470   5.968   7.888 -0.7342  0.6062  0.5445
14953SOL    HW148451   3.495   6.058   7.870  0.7292  0.1710  0.2511
14953SOL    HW248452   3.432   5.936   7.806  0.9797  0.2553 -0.1593
14954SOL     OW48453   7.494  10.948   8.319  0.3950 -0.0276  0.4181
14954SOL    HW148454   7.513  10.873   8.262 -1.6000  0.0219 -0.3944
14954SOL    HW248455   7.444  10.911   8.391  1.6355  0.1590  1.4201
14955SOL     OW48456   5.714   1.287   3.960  0.8497  0.1053  0.6526
14955SOL    HW148457   5.799   1.251   3.934  0.9114  1.0502 -0.5332
14955SOL    HW248458   5.733   1.378   3.982  0.2322  0.1758  0.8922
14956SOL     OW48459   2.170   0.724   2.126  0.3830  0.0105 -0.0328
14956SOL    HW148460   2.172   0.815   2.155  0.4359  0.2255 -0.6888
14956SOL    HW248461   2.208   0.675   2.199  0.8266  0.5728  0.1234
14957SOL     OW48462   2.148   2.553  10.150 -0.6858 -0.2962  0.0795
14957SOL    HW148463   2.159   2.604  10.070  2.1920  0.9171  1.1205
14957SOL    HW248464   2.167   2.615  10.221  0.5629 -2.2076  1.5251
14958SOL     OW48465   7.432   0.803   0.341  0.6199  0.6615  0.0574
14958SOL    HW148466   7.438   0.708   0.330  0.2939  0.4046  1.7681
14958SOL    HW248467   7.445   0.839   0.253 -1.0577 -1.0336 -0.9475
14959SOL     OW48468  10.867   1.287   8.059  0.4177 -0.0417  0.1744
14959SOL    HW148469  10.790   1.272   8.004  0.2584 -0.2728  0.4573
14959SOL    HW248470  10.925   1.213   8.041  0.6266  0.1942 -0.1275
14960SOL     OW48471   6.547   1.794   2.355  0.3426 -0.0303 -0.5211
14960SOL    HW148472   6.460   1.775   2.390  0.7914 -0.0024  0.6339
14960SOL    HW248473   6.548   1.889   2.343  0.7695  0.1836  1.0396
14961SOL     OW48474   2.528   9.014   2.226 -0.3532  0.2641  0.2135
14961SOL    HW148475   2.469   9.031   2.299 -2.2785  0.0775 -1.1925
14961SOL    HW248476   2.532   9.097   2.178  1.2240  0.5049  0.7226
14962SOL     OW48477  10.598   9.401   1.809 -0.0918  0.3723  0.0284
14962SOL    HW148478  10.683   9.366   1.785 -1.0992 -2.2059 -0.1089
14962SOL    HW248479  10.552   9.412   1.726 -1.2714 -2.2171  0.2588
14963SOL     OW48480   2.059   4.541   8.274  0.4859  0.3723 -0.4468
14963SOL    HW148481   2.041   4.618   8.327 -0.0352  0.0203 -0.1012
14963SOL    HW248482   2.118   4.488   8.328 -1.1927 -0.6750  0.4408
14964SOL     OW48483   0.738   1.919   6.004  0.0059 -0.1089  0.6373
14964SOL    HW148484   0.828   1.901   6.031  0.7746  2.6437  0.1902
14964SOL    HW248485   0.688   1.917   6.085  0.3385 -2.0613  0.8452
14965SOL     OW48486   7.118   1.935   6.966  0.5879 -0.0506 -0.2800
14965SOL    HW148487   7.088   1.867   7.026  2.1660  0.1663  0.8170
14965SOL    HW248488   7.048   1.944   6.902 -2.1599  1.1555  2.6624
14966SOL     OW48489   7.001   0.688   6.501 -0.0995 -0.3234  0.8090
14966SOL    HW148490   6.967   0.599   6.504 -1.4216  0.0995 -0.2655
14966SOL    HW248491   7.065   0.692   6.572 -0.3540 -1.9784  1.1756
14967SOL     OW48492   5.237   4.728   3.316 -0.2323  0.4381 -0.1753
14967SOL    HW148493   5.170   4.794   3.297  0.9418  1.2702 -1.7174
14967SOL    HW248494   5.212   4.654   3.261 -0.1228  0.5934 -0.4380
14968SOL     OW48495   9.142   8.827   5.485  0.2184 -0.4213 -0.0655
14968SOL    HW148496   9.049   8.807   5.470  0.1739  0.0746 -0.4874
14968SOL    HW248497   9.150   8.839   5.579 -0.5521  1.4606 -0.1920
14969SOL     OW48498   4.215   4.278   9.411 -0.2427  0.1355 -0.3296
14969SOL    HW148499   4.308   4.287   9.391 -0.5142  1.7145 -1.0514
14969SOL    HW248500   4.210   4.290   9.506  0.1316  2.0635 -0.5013
14970SOL     OW48501   8.810   2.824   6.933 -0.2166 -0.8250 -0.7738
14970SOL    HW148502   8.764   2.771   6.868  0.5428 -2.9285  0.3208
14970SOL    HW248503   8.897   2.785   6.939  1.5414  2.4575 -2.1125
14971SOL     OW48504   8.113   4.942   3.800  0.4204 -0.2916 -0.1963
14971SOL    HW148505   8.030   4.924   3.844  1.2870 -2.2836  0.7624
14971SOL    HW248506   8.088   4.981   3.716 -1.4996 -1.0673 -0.0321
14972SOL     OW48507   4.045   6.423   5.020 -0.4722  0.0219 -0.0556
14972SOL    HW148508   4.067   6.467   4.938  0.4438 -0.4997 -0.1075
14972SOL    HW248509   4.095   6.470   5.086 -1.5435  0.7156  0.2788
14973SOL     OW48510   4.037   4.448   3.614 -0.4149  0.1088 -0.6113
14973SOL    HW148511   4.026   4.540   3.639  1.8645  0.7220 -1.5986
14973SOL    HW248512   3.961   4.404   3.653 -1.0541  2.2199  0.7513
14974SOL     OW48513   7.526   0.238   2.536  0.2340 -0.1580  0.2607
14974SOL    HW148514   7.466   0.165   2.521  0.8524 -0.4929 -0.7354
14974SOL    HW248515   7.585   0.207   2.605 -0.0424 -0.2622  0.4509
14975SOL     OW48516  10.246   8.747   0.449 -0.4239 -0.3878  0.2170
14975SOL    HW148517  10.208   8.832   0.472 -2.2127 -1.3011  0.8698
14975SOL    HW248518  10.304   8.726   0.522 -0.3901  0.0395  0.3126
14976SOL     OW48519   7.507   6.159   0.484 -0.4741  0.7448  0.1255
14976SOL    HW148520   7.549   6.128   0.564 -1.4838  1.2322  0.8655
14976SOL    HW248521   7.435   6.099   0.469 -0.1143  0.4821 -0.5947
14977SOL     OW48522   1.938   0.511   9.238  0.0248  0.3522 -0.2953
14977SOL    HW148523   1.934   0.536   9.330  2.2029  0.2230 -0.1119
14977SOL    HW248524   2.026   0.534   9.210 -0.1581 -0.7779 -2.0139
14978SOL     OW48525   1.837   1.588   7.999 -0.1673 -0.8022  0.3009
14978SOL    HW148526   1.891   1.534   8.056  1.7610  0.5814 -0.0832
14978SOL    HW248527   1.875   1.576   7.912 -0.7054 -0.0481 -0.0492
14979SOL     OW48528   9.553   7.579   7.523 -0.2622 -0.4750  0.1966
14979SOL    HW148529   9.566   7.488   7.548 -0.6924 -0.7168 -0.4320
14979SOL    HW248530   9.541   7.625   7.606  1.0177 -0.8075  0.5853
14980SOL     OW48531   0.471   0.676   2.453 -0.1076  0.2631 -0.7311
14980SOL    HW148532   0.448   0.598   2.403 -0.7907 -1.1191  1.5556
14980SOL    HW248533   0.415   0.672   2.531  1.5093  1.7746  0.6086
14981SOL     OW48534   5.929   1.469   2.314 -0.7006  0.5398  0.3852
14981SOL    HW148535   5.906   1.376   2.307  1.0686 -0.0051  1.2686
14981SOL    HW248536   6.000   1.472   2.378 -0.7074  2.5161  0.3737
14982SOL     OW48537   4.593   5.200   9.085 -0.3146 -0.3142 -0.7366
14982SOL    HW148538   4.612   5.292   9.106  0.4343 -0.1003 -2.1872
14982SOL    HW248539   4.675   5.154   9.104 -0.8035 -0.7663  0.3433
14983SOL     OW48540  10.963   9.856  10.737 -0.2541 -0.2112 -0.1784
14983SOL    HW148541  10.894   9.839  10.673 -1.1307  1.5128  0.2514
14983SOL    HW248542  10.946   9.794  10.808 -0.8624 -0.3396 -0.4365
14984SOL     OW48543   2.923   9.148   7.699 -0.3997 -0.1932 -0.1882
14984SOL    HW148544   2.845   9.204   7.707 -0.0821  0.4273 -1.1916
14984SOL    HW248545   2.996   9.205   7.723 -0.3608 -1.2908  2.5909
14985SOL     OW48546   9.535   5.323   0.038 -0.4653 -0.1552 -0.5559
14985SOL    HW148547   9.476   5.348   0.109  0.3360  1.7848 -0.4958
14985SOL    HW248548   9.483   5.334  -0.042 -0.6507  0.0283 -0.4101
14986SOL     OW48549   1.253   2.457   2.268 -0.2451 -0.0640  0.0172
14986SOL    HW148550   1.334   2.506   2.255 -1.4466  1.4997 -2.4242
14986SOL    HW248551   1.262   2.380   2.212  0.5300 -1.2976  1.7516
14987SOL     OW48552   7.373   4.182   5.381 -0.1834  0.6772  0.2900
14987SOL    HW148553   7.457   4.191   5.336 -0.1989  2.2215  0.4950
14987SOL    HW248554   7.338   4.098   5.352  2.1881 -0.8676  1.5262
14988SOL     OW48555   1.375   3.871   4.065 -0.3804 -0.2841  0.2613
14988SOL    HW148556   1.388   3.778   4.051 -2.4555 -0.3799 -1.6174
14988SOL    HW248557   1.330   3.901   3.987 -2.2572  1.7304  1.9727
14989SOL     OW48558   5.274   9.822   6.557  0.2773 -0.4633  0.2411
14989SOL    HW148559   5.370   9.822   6.562  0.4651 -0.1625 -2.2467
14989SOL    HW248560   5.253   9.749   6.499 -0.8365  0.8288 -1.0599
14990SOL     OW48561   3.788   5.375   5.844  0.3090 -0.6890  0.0271
14990SOL    HW148562   3.738   5.296   5.863 -2.7293  0.0452 -3.6385
14990SOL    HW248563   3.724   5.446   5.851  2.1240  1.0294 -0.0274
14991SOL     OW48564   2.056   0.738   7.406  0.1400  0.0273  0.1009
14991SOL    HW148565   2.122   0.764   7.342  0.1357  0.3051  0.2092
14991SOL    HW248566   2.097   0.666   7.455  0.0668 -0.3197 -0.3408
14992SOL     OW48567   6.080   9.332   1.571 -0.4881 -0.0922  0.4140
14992SOL    HW148568   6.153   9.316   1.630  0.5663  0.5097 -0.6715
14992SOL    HW248569   6.054   9.422   1.589  0.7336  0.5727 -0.9141
14993SOL     OW48570   9.745  10.332   9.708  0.2657  0.3493 -0.0792
14993SOL    HW148571   9.719  10.240   9.711  1.6102 -0.1184 -1.5218
14993SOL    HW248572   9.719  10.361   9.621  1.3923  0.8381 -0.2657
14994SOL     OW48573   1.531   8.136   3.794  1.1755 -0.1860 -0.2075
14994SOL    HW148574   1.470   8.091   3.735  2.3578  1.7974 -3.2026
14994SOL    HW248575   1.475   8.184   3.854 -0.2505  0.4123 -1.9277
14995SOL     OW48576   4.582   6.857   1.707 -0.5066  0.1589 -0.4970
14995SOL    HW148577   4.535   6.873   1.625  0.6573  0.8942 -1.0524
14995SOL    HW248578   4.672   6.887   1.689 -0.6681  2.1945  1.6580
14996SOL     OW48579   2.922   9.630  10.066 -0.4888  0.8032 -0.2897
14996SOL    HW148580   2.939   9.640  10.160 -3.2178  0.7829  0.2935
14996SOL    HW248581   2.892   9.540  10.056 -0.7266  0.9647 -1.0947
14997SOL     OW48582   0.417   2.845   8.954 -0.1586  0.1881 -0.2818
14997SOL    HW148583   0.446   2.754   8.944  0.4836  0.3046  0.4297
14997SOL    HW248584   0.470   2.893   8.891  0.6046  0.2762  0.4111
14998SOL     OW48585   3.310   5.175  10.601 -0.4923  0.2534  0.0091
14998SOL    HW148586   3.283   5.224  10.679 -1.2209  1.3713 -0.9169
14998SOL    HW248587   3.311   5.240  10.531  1.1298 -0.5231 -0.7321
14999SOL     OW48588   5.340  10.143   2.700 -0.7591 -0.5464  0.6176
14999SOL    HW148589   5.365  10.106   2.615  0.5870 -1.2307  1.2736
14999SOL    HW248590   5.359  10.073   2.763 -2.9179 -0.5132  1.3859
15000SOL     OW48591   7.502   4.810  11.049  0.3443  0.8444  0.1325
15000SOL    HW148592   7.470   4.895  11.081  0.2095  1.5854 -1.8544
15000SOL    HW248593   7.471   4.805  10.959 -4.4304 -3.7275  1.5134
15001SOL     OW48594   4.033   0.229   6.287  0.1289 -0.0883 -0.7831
15001SOL    HW148595   3.983   0.304   6.255  0.4510  1.3560  1.8507
15001SOL    HW248596   4.123   0.245   6.258  0.1218  0.3324 -0.5742
15002SOL     OW48597   1.328   3.509  10.586 -0.1507  0.0717  0.4643
15002SOL    HW148598   1.385   3.575  10.627  1.1484 -0.5108 -0.3353
15002SOL    HW248599   1.314   3.541  10.497 -1.1683  0.2386  0.6661
15003SOL     OW48600   3.724   1.085   3.276  0.1728  0.3005  0.8514
15003SOL    HW148601   3.765   1.075   3.362 -0.6238  2.3104  1.5311
15003SOL    HW248602   3.732   1.178   3.257 -0.4931  0.0426 -0.8508
15004SOL     OW48603   9.924   7.521   5.169  0.5373  0.6107  0.1863
15004SOL    HW148604   9.892   7.555   5.085 -0.1260 -2.3451 -0.9043
15004SOL    HW248605   9.921   7.596   5.228  1.2166  2.8976 -2.4278
15005SOL     OW48606  11.062   3.277   9.179 -0.0817 -0.0613  0.0776
15005SOL    HW148607  11.079   3.183   9.184 -0.7431 -0.1838  0.0846
15005SOL    HW248608  10.988   3.291   9.238  0.2091  0.5186  0.3178
15006SOL     OW48609   4.529   8.033   5.258  0.0478 -0.5938  0.1630
15006SOL    HW148610   4.517   8.062   5.349  0.8952  0.5666 -0.0636
15006SOL    HW248611   4.565   7.945   5.265 -0.1268 -0.6095  0.9487
15007SOL     OW48612   4.778   6.777   4.047 -0.1268 -0.1757 -0.6208
15007SOL    HW148613   4.695   6.820   4.068  0.6987  1.5302 -0.7159
15007SOL    HW248614   4.752   6.695   4.005 -1.7600  0.1719 -0.3574
15008SOL     OW48615  10.789   9.270  10.071 -0.0395 -0.5070  0.4131
15008SOL    HW148616  10.791   9.255  10.165 -1.4972 -2.0586  0.2433
15008SOL    HW248617  10.704   9.310  10.054  0.4754  0.3780 -0.1864
15009SOL     OW48618   6.108   9.504   9.703  0.6479 -0.1142 -0.2430
15009SOL    HW148619   6.108   9.600   9.708 -1.1320 -0.1103  0.4116
15009SOL    HW248620   6.106   9.476   9.795 -0.2812 -0.7351 -0.4386
15010SOL     OW48621   8.601   3.197   2.968  0.1396 -0.4602 -0.3306
15010SOL    HW148622   8.612   3.164   3.057  1.6284 -0.3376 -0.4378
15010SOL    HW248623   8.513   3.234   2.966  1.0306  2.1327  1.9738
15011SOL     OW48624   8.782   8.218   6.145  0.8671 -0.1813 -0.3148
15011SOL    HW148625   8.860   8.204   6.199  0.4565  3.5543  1.6019
15011SOL    HW248626   8.710   8.188   6.200  0.7374 -0.4679 -0.6422
15012SOL     OW48627   7.181   0.185   7.995  0.1768  0.0478  0.2000
15012SOL    HW148628   7.195   0.090   7.988  1.7785  0.3581 -1.9172
15012SOL    HW248629   7.087   0.196   7.980 -0.0824 -1.2152  0.7344
15013SOL     OW48630   6.462   1.831   7.354 -0.5382  0.0793  0.3826
15013SOL    HW148631   6.424   1.780   7.426  0.3177  0.5692  1.2155
15013SOL    HW248632   6.499   1.909   7.398 -0.0844  0.4310 -0.6055
15014SOL     OW48633   6.680   3.076   7.905 -0.2833  0.0585 -0.1291
15014SOL    HW148634   6.733   3.145   7.866 -1.8754  0.7525 -1.1583
15014SOL    HW248635   6.736   3.038   7.972  0.7419  2.2070  0.3278
15015SOL     OW48636   7.824   7.434   3.178  0.0280 -0.1950  0.1431
15015SOL    HW148637   7.835   7.409   3.270 -3.2647 -0.2297  0.6204
15015SOL    HW248638   7.815   7.529   3.180  0.9160 -0.0910 -0.2940
15016SOL     OW48639   8.210   9.614   2.296  0.1211 -0.3392  0.2355
15016SOL    HW148640   8.151   9.611   2.221  0.6395  2.0989 -0.3427
15016SOL    HW248641   8.298   9.622   2.258  0.3030  2.2344  0.9968
15017SOL     OW48642   6.415   2.475   4.986  0.1477 -0.5000  0.5003
15017SOL    HW148643   6.419   2.442   4.897 -1.3819 -2.2164  1.0048
15017SOL    HW248644   6.354   2.548   4.982 -2.1641 -2.3148  0.5387
15018SOL     OW48645   9.721   0.417   5.084  0.8457  0.2338  0.4377
15018SOL    HW148646   9.653   0.472   5.043  1.9036  0.6745 -0.7887
15018SOL    HW248647   9.786   0.480   5.116  1.3602 -0.2375  0.3318
15019SOL     OW48648   7.088   6.684   3.867  0.0455 -0.2234 -0.5404
15019SOL    HW148649   7.020   6.645   3.923 -1.2426  2.2005 -0.2645
15019SOL    HW248650   7.170   6.664   3.912 -0.7278 -0.8092  0.6667
15020SOL     OW48651  10.904   7.310   3.886 -0.1721  0.0218 -0.5248
15020SOL    HW148652  10.990   7.273   3.906 -0.6935  0.1444  2.3930
15020SOL    HW248653  10.856   7.305   3.968 -1.7707  3.1411 -1.1032
15021SOL     OW48654   7.707   9.547   3.549 -0.0826  0.1859  0.0264
15021SOL    HW148655   7.765   9.474   3.570  0.4671  0.1220 -1.5473
15021SOL    HW248656   7.735   9.618   3.606  0.4951 -0.3306  0.3979
15022SOL     OW48657  10.058   8.679   1.167  0.3509 -0.2180 -0.2622
15022SOL    HW148658  10.132   8.686   1.227  0.2894  2.3226 -0.3614
15022SOL    HW248659   9.989   8.636   1.218  0.8343  0.4049  0.9495
15023SOL     OW48660   2.246   3.413   4.453 -0.3039  0.3999 -0.7607
15023SOL    HW148661   2.303   3.459   4.514  0.2020  1.1944 -1.8054
15023SOL    HW248662   2.266   3.320   4.467  0.2144  0.6037 -0.1199
15024SOL     OW48663  10.066   0.744   0.466 -0.2894 -0.1103  0.2371
15024SOL    HW148664  10.106   0.666   0.506 -0.8706 -0.6061 -0.1262
15024SOL    HW248665  10.130   0.814   0.481  0.0011 -0.5312  1.0502
15025SOL     OW48666   5.547   2.662   4.309 -0.2565  0.1020  0.1760
15025SOL    HW148667   5.603   2.625   4.242  0.5347  0.4442  0.6354
15025SOL    HW248668   5.562   2.608   4.386  0.4415  0.9647  0.6732
15026SOL     OW48669   3.047   0.948   6.618  0.1966  0.2445  0.3347
15026SOL    HW148670   3.081   1.009   6.553 -0.3612  0.2552  0.0480
15026SOL    HW248671   3.033   0.866   6.571 -0.0640  0.2075  0.4679
15027SOL     OW48672   1.295   1.376   9.538 -0.0797 -0.0627  0.1853
15027SOL    HW148673   1.357   1.385   9.465 -0.2292  1.8340  0.2456
15027SOL    HW248674   1.216   1.341   9.497 -0.1331  0.9006 -0.5819
15028SOL     OW48675   1.203   8.891   3.572  0.6676 -0.3381 -0.2595
15028SOL    HW148676   1.251   8.967   3.541 -0.5368 -0.0468 -1.5092
15028SOL    HW248677   1.147   8.925   3.642  0.4275 -0.1337 -0.5441
15029SOL     OW48678   3.741   2.202   7.964 -0.4598  0.5842 -0.2006
15029SOL    HW148679   3.710   2.121   7.925  1.0651 -0.7390  1.1445
15029SOL    HW248680   3.833   2.207   7.938 -0.4508  1.7111  0.0159
15030SOL     OW48681   0.670   8.011   4.366 -0.1501 -0.0255 -0.1032
15030SOL    HW148682   0.676   8.093   4.316  2.8658  0.9530  1.5784
15030SOL    HW248683   0.731   7.952   4.323 -0.0006 -0.2975  0.4708
15031SOL     OW48684   7.384   6.581   2.802  0.1005 -0.2853 -0.4677
15031SOL    HW148685   7.464   6.586   2.855 -0.0841  1.5352 -0.2832
15031SOL    HW248686   7.411   6.609   2.715 -0.4744  1.3507 -0.1685
15032SOL     OW48687  10.381   4.125   5.817  0.4280 -0.1859  0.0615
15032SOL    HW148688  10.308   4.131   5.878  1.7026  1.8313  1.5194
15032SOL    HW248689  10.456   4.101   5.872  1.0995 -1.0516 -1.1969
15033SOL     OW48690   3.247   8.643   0.071 -0.2707  0.4607 -0.0031
15033SOL    HW148691   3.259   8.735   0.049 -0.4288  0.5385  0.2219
15033SOL    HW248692   3.273   8.595  -0.008 -0.1409  0.6949 -0.1033
15034SOL     OW48693   8.351   7.077   8.102 -0.6709  0.1460 -0.3283
15034SOL    HW148694   8.440   7.105   8.125 -0.7728 -0.2804  0.6056
15034SOL    HW248695   8.356   6.981   8.101 -1.4651  0.0738  1.1655
15035SOL     OW48696   1.715   4.035   9.314 -0.4186  0.5907  0.7200
15035SOL    HW148697   1.708   4.127   9.288  0.2317  0.5102  0.2318
15035SOL    HW248698   1.648   4.024   9.381 -1.9324  0.8916 -0.6812
15036SOL     OW48699   1.238   9.985   5.626 -0.0734 -0.3017 -0.5592
15036SOL    HW148700   1.192  10.027   5.553 -0.9910  0.2847  0.3435
15036SOL    HW248701   1.253  10.055   5.689  0.1885 -0.9259  0.0810
15037SOL     OW48702   7.540   6.872   9.921  0.3426 -0.7682  0.1277
15037SOL    HW148703   7.565   6.931   9.850  0.2098  0.9509  1.4592
15037SOL    HW248704   7.447   6.888   9.934 -0.1157 -2.5818 -0.6420
15038SOL     OW48705   6.591   6.077   0.645  0.4120  0.3804  0.0254
15038SOL    HW148706   6.624   6.143   0.585  1.0700 -1.2844 -1.5252
15038SOL    HW248707   6.565   6.004   0.589 -1.4443 -0.2463  1.5730
15039SOL     OW48708   9.454   5.203  10.587  0.1526  0.1670 -0.3924
15039SOL    HW148709   9.445   5.290  10.626 -0.7783 -0.4329  0.8186
15039SOL    HW248710   9.544   5.200  10.556  1.2522  0.4517  2.4738
15040SOL     OW48711  10.431   7.481   0.357  0.0042 -0.7712  0.2416
15040SOL    HW148712  10.437   7.440   0.271  0.9026 -1.2118  0.5069
15040SOL    HW248713  10.346   7.526   0.356 -0.0438 -0.8641 -0.8252
15041SOL     OW48714   0.425   9.239   6.557 -0.0297  0.1034  0.3461
15041SOL    HW148715   0.361   9.173   6.531 -1.4347  1.3353  0.5984
15041SOL    HW248716   0.390   9.321   6.523  1.3290  0.8395  0.6608
15042SOL     OW48717  10.233   7.501   5.570  0.0869  0.5183 -0.0783
15042SOL    HW148718  10.304   7.440   5.547  0.3965  0.9652 -0.3176
15042SOL    HW248719  10.239   7.570   5.505 -0.8905  0.3180 -0.3905
15043SOL     OW48720   3.867   8.627   2.976  0.2669 -0.2255  0.3861
15043SOL    HW148721   3.852   8.550   3.031  0.4593 -0.9045 -0.5085
15043SOL    HW248722   3.899   8.593   2.893  0.6791  0.8418  0.0870
15044SOL     OW48723  10.280   9.666   7.903 -0.4081 -0.1679 -0.6330
15044SOL    HW148724  10.304   9.589   7.853 -0.2893  0.5563 -1.7320
15044SOL    HW248725  10.208   9.637   7.960  0.4304 -1.3678 -0.1523
15045SOL     OW48726   4.749  10.364   8.538  0.3760  0.4276  0.0246
15045SOL    HW148727   4.670  10.372   8.592 -0.9575  0.4480 -1.8275
15045SOL    HW248728   4.820  10.392   8.595 -0.9985  0.7924  1.6418
15046SOL     OW48729   3.769   5.618   1.766 -0.1477  0.4966 -0.4014
15046SOL    HW148730   3.811   5.563   1.700  0.7110  0.8622 -0.1725
15046SOL    HW248731   3.797   5.707   1.743  0.4860  0.5913  0.6825
15047SOL     OW48732   7.120   2.352   1.628  0.0364 -0.3696  0.4441
15047SOL    HW148733   7.195   2.409   1.644 -0.7995  0.9399 -0.1999
15047SOL    HW248734   7.052   2.384   1.687  0.1996 -2.0562  1.6124
15048SOL     OW48735   0.674   7.301   2.736 -0.5664 -0.2347  0.1261
15048SOL    HW148736   0.719   7.350   2.667  2.1462 -0.4794  1.5509
15048SOL    HW248737   0.606   7.252   2.691  0.2956  0.5399 -2.1697
15049SOL     OW48738  10.020   9.290   8.175 -0.3609  0.0864 -0.3232
15049SOL    HW148739   9.927   9.308   8.180  0.2362  4.1120 -0.4437
15049SOL    HW248740  10.056   9.328   8.256  1.2738 -0.6604 -0.6566
15050SOL     OW48741   3.538   2.133   1.934 -0.2545  0.0052  0.2253
15050SOL    HW148742   3.473   2.199   1.959 -0.1347  0.0072  0.5444
15050SOL    HW248743   3.500   2.050   1.961 -0.2836 -0.0273  0.0814
15051SOL     OW48744  10.848  10.561   4.321  0.5032 -0.2014  0.6373
15051SOL    HW148745  10.858  10.537   4.413  0.8902  0.9719  0.9180
15051SOL    HW248746  10.856  10.657   4.320 -0.2171 -0.1327 -0.5213
15052SOL     OW48747  10.092   0.964   1.236  0.2908 -0.0633  0.3396
15052SOL    HW148748  10.027   1.027   1.205  0.2040 -0.6106 -0.6186
15052SOL    HW248749  10.168   1.018   1.260  0.4683  0.3708 -1.1075
15053SOL     OW48750   8.589   9.699   3.022  0.0854  0.0876  0.4986
15053SOL    HW148751   8.598   9.791   3.046  2.1762 -0.3184  1.5002
15053SOL    HW248752   8.678   9.668   3.009 -0.5409 -1.8792  0.4929
15054SOL     OW48753   9.115   9.488  10.924 -0.1429  0.2266  0.2225
15054SOL    HW148754   9.155   9.514  11.008 -0.7204  1.1965  0.2139
15054SOL    HW248755   9.034   9.539  10.920 -0.2504 -0.0197 -0.8075
15055SOL     OW48756   8.059   0.623   2.042  0.0006  0.2158 -0.1089
15055SOL    HW148757   8.003   0.642   2.117 -0.8965  2.0799 -1.1935
15055SOL    HW248758   8.049   0.698   1.984  0.7849 -1.0843 -2.0475
15056SOL     OW48759   6.749   6.108   3.547 -0.2844  0.0257  0.2497
15056SOL    HW148760   6.804   6.100   3.470 -1.0091  0.4306 -0.3181
15056SOL    HW248761   6.775   6.034   3.603 -0.7971 -1.1555 -1.0373
15057SOL     OW48762  10.792   9.640   0.866 -0.3278 -0.2698  0.7324
15057SOL    HW148763  10.882   9.619   0.840 -1.1035 -1.3106 -1.4055
15057SOL    HW248764  10.798   9.724   0.910  1.8556 -0.9673  1.9028
15058SOL     OW48765   9.429   0.274   7.830 -0.7435 -0.0632 -0.0639
15058SOL    HW148766   9.393   0.362   7.824 -0.4982 -0.0354 -1.6283
15058SOL    HW248767   9.421   0.239   7.741 -1.1954 -1.7677  0.6104
15059SOL     OW48768   6.852  10.161   5.873 -0.5023 -0.3923 -0.8574
15059SOL    HW148769   6.810  10.238   5.911 -1.1935 -1.4212  0.5851
15059SOL    HW248770   6.912  10.130   5.941  1.3449  0.0480 -2.2286
15060SOL     OW48771   7.053   1.416   4.434  0.3221 -0.0508  0.5021
15060SOL    HW148772   7.123   1.400   4.371  0.1440 -1.9273  0.7283
15060SOL    HW248773   7.079   1.497   4.478  1.7163 -0.0400 -0.2696
15061SOL     OW48774  11.019  10.188   8.503  0.0337 -0.0367 -0.2133
15061SOL    HW148775  10.975  10.162   8.584  0.0158  0.3644 -0.0925
15061SOL    HW248776  11.111  10.197   8.527  0.5596 -2.6801 -0.8662
15062SOL     OW48777   1.733   6.023  10.261 -0.5386  0.4483  0.2036
15062SOL    HW148778   1.675   5.979  10.324  0.0919 -1.9204 -0.7652
15062SOL    HW248779   1.674   6.066  10.200 -1.2763 -0.4743  0.2379
15063SOL     OW48780   8.901   9.906   7.049 -0.0670  0.0966 -0.5747
15063SOL    HW148781   8.984   9.866   7.023 -0.0031  0.2458 -0.6006
15063SOL    HW248782   8.883   9.871   7.136 -0.2462 -0.3541 -0.7908
15064SOL     OW48783  10.008   9.980   9.089  0.0322 -0.3707 -0.7691
15064SOL    HW148784   9.975  10.005   9.003 -2.0631  0.5458  0.2340
15064SOL    HW248785  10.094   9.943   9.071 -0.0515  0.4001 -3.1733
15065SOL     OW48786   0.986   3.389   3.264  0.1473 -0.3639  0.6870
15065SOL    HW148787   0.905   3.398   3.215  1.4058  1.2811 -1.2741
15065SOL    HW248788   1.015   3.479   3.279  0.5533 -0.8507  3.2994
15066SOL     OW48789   0.041   0.085   9.745  0.2686  0.5706  0.6561
15066SOL    HW148790   0.120   0.072   9.798  0.0739 -0.9081  0.6115
15066SOL    HW248791   0.070   0.141   9.673  0.8123  1.6239  1.6607
15067SOL     OW48792   5.263   6.530   1.843 -0.5406 -0.0576  0.0742
15067SOL    HW148793   5.326   6.492   1.782 -2.9490 -1.1321 -1.8916
15067SOL    HW248794   5.295   6.503   1.930  1.9490 -0.0660 -0.7663
15068SOL     OW48795   2.687  10.845  10.371 -0.1731  0.2030 -0.0904
15068SOL    HW148796   2.610  10.853  10.315 -1.3170  1.8154  1.5921
15068SOL    HW248797   2.725  10.933  10.372  0.1368  0.0709  1.2140
15069SOL     OW48798   5.545   6.408   3.751  0.1871  0.1499 -0.6479
15069SOL    HW148799   5.599   6.470   3.703 -1.0243  1.8851  0.1136
15069SOL    HW248800   5.563   6.323   3.711  1.9347  0.9710 -1.7011
15070SOL     OW48801   8.748   0.541   0.336 -0.2358  0.2210 -0.3646
15070SOL    HW148802   8.697   0.461   0.350 -1.4243  1.1313  0.8121
15070SOL    HW248803   8.773   0.538   0.244 -1.4108 -0.8550 -0.6737
15071SOL     OW48804   8.245   1.373   6.280 -0.1338  0.4700  0.5292
15071SOL    HW148805   8.198   1.305   6.233  0.8952  0.1818 -0.1128
15071SOL    HW248806   8.267   1.438   6.213  1.3912  0.0337  0.5539
15072SOL     OW48807   3.275   6.966   7.916 -0.2999 -0.3864 -0.0675
15072SOL    HW148808   3.270   7.047   7.967  1.0106 -0.4463  0.2090
15072SOL    HW248809   3.206   6.974   7.851  0.5032  1.4728 -0.7617
15073SOL     OW48810   7.465   8.382   6.868 -0.1308  0.0156  0.0666
15073SOL    HW148811   7.516   8.446   6.917  0.7603  0.1282 -0.9453
15073SOL    HW248812   7.402   8.434   6.818 -0.5264 -0.0397  0.5006
15074SOL     OW48813   5.988   8.659   3.362  0.3176  0.4085  0.3664
15074SOL    HW148814   5.999   8.753   3.375  0.2854  0.5293 -0.4257
15074SOL    HW248815   6.000   8.647   3.268 -0.1189 -0.3182  0.3992
15075SOL     OW48816   5.218  10.108   9.194  0.2162  0.2048 -0.1238
15075SOL    HW148817   5.229  10.104   9.289  0.0099 -1.2328 -0.1424
15075SOL    HW248818   5.125  10.090   9.180  0.3860 -0.2989 -0.6294
15076SOL     OW48819   3.077   0.272  10.185 -0.0075 -0.0959 -0.2099
15076SOL    HW148820   2.987   0.240  10.193  0.4408 -1.6515 -0.9448
15076SOL    HW248821   3.073   0.337  10.115 -0.4595 -0.6577 -0.7231
15077SOL     OW48822   4.142   4.146   5.728 -1.0299  0.3529 -0.4572
15077SOL    HW148823   4.187   4.192   5.657 -1.0941  0.5351 -0.3807
15077SOL    HW248824   4.204   4.077   5.755 -0.8740  0.4843 -0.4772
15078SOL     OW48825   1.839   0.583  10.106  0.3375 -0.1538  0.0710
15078SOL    HW148826   1.773   0.519  10.081  1.8156 -2.2317  1.1480
15078SOL    HW248827   1.889   0.599  10.026 -0.2691 -0.0621 -0.2949
15079SOL     OW48828  10.265   5.933   7.904  0.1681 -0.1561  0.1217
15079SOL    HW148829  10.172   5.953   7.897 -0.3067 -2.3326 -0.3596
15079SOL    HW248830  10.279   5.914   7.997 -0.0026 -0.4128  0.0955
15080SOL     OW48831  10.896   2.460   2.409  0.5857 -0.0023 -0.1034
15080SOL    HW148832  10.836   2.460   2.335 -0.9228 -0.7502  1.0581
15080SOL    HW248833  10.862   2.529   2.467  0.2751 -1.0232  0.9749
15081SOL     OW48834   8.450   0.844   0.006  0.2792 -0.2570  0.2638
15081SOL    HW148835   8.481   0.900   0.078 -0.8333  2.6316 -1.3318
15081SOL    HW248836   8.355   0.841   0.017  0.2972 -1.7970  0.2144
15082SOL     OW48837   4.235   2.884  10.517  0.0967 -0.2479  0.1106
15082SOL    HW148838   4.298   2.831  10.468 -0.5353 -1.0357  0.1258
15082SOL    HW248839   4.181   2.820  10.564  0.8567  0.4757  2.0710
15083SOL     OW48840   8.327   9.847   2.412  0.4206  0.1821 -0.3153
15083SOL    HW148841   8.407   9.806   2.447  1.7229  1.2217 -1.9321
15083SOL    HW248842   8.279   9.775   2.372  0.4529 -0.4888  0.8093
15084SOL     OW48843  11.036   2.986   6.791  0.0516 -0.0713  0.3774
15084SOL    HW148844  11.098   3.055   6.813 -1.7245  1.4013  0.9825
15084SOL    HW248845  11.058   2.914   6.851 -0.2793  1.2800  2.1792
15085SOL     OW48846   8.803   9.504   1.385  0.4979  0.1836 -0.1847
15085SOL    HW148847   8.825   9.459   1.467 -2.3193 -1.7596 -0.3290
15085SOL    HW248848   8.738   9.569   1.410  0.3103  0.2089 -0.7288
15086SOL     OW48849   9.822   7.928   1.939  0.0995  0.2356  0.2643
15086SOL    HW148850   9.886   7.888   1.999 -0.1682 -0.2363  0.2416
15086SOL    HW248851   9.853   7.904   1.852  1.2667  2.0784  0.1208
15087SOL     OW48852   5.533   5.867   4.849  0.1107 -0.2011  0.2116
15087SOL    HW148853   5.586   5.880   4.771  0.8033  2.0500  0.9816
15087SOL    HW248854   5.465   5.805   4.822 -0.3325  1.3092 -2.5009
15088SOL     OW48855   6.120   7.602   1.051 -0.2272  0.0307  0.1272
15088SOL    HW148856   6.207   7.569   1.074 -0.8274 -1.6803  0.1102
15088SOL    HW248857   6.132   7.697   1.043  1.6118 -0.1470  0.1898
15089SOL     OW48858   7.559   4.248   7.294  0.5329  0.2272  0.0816
15089SOL    HW148859   7.583   4.337   7.319  1.7299  0.2098 -0.8890
15089SOL    HW248860   7.507   4.215   7.367  0.0122  1.7381  0.4266
15090SOL     OW48861   3.548   1.938   0.001 -0.3007 -0.0889 -0.1942
15090SOL    HW148862   3.465   1.985   0.011 -0.4370 -0.7388  2.4156
15090SOL    HW248863   3.546   1.870   0.068  1.7578 -1.0482 -1.0100
15091SOL     OW48864   4.092  10.642   0.956 -0.1209  0.1267 -0.6931
15091SOL    HW148865   4.000  10.629   0.931 -0.1093 -1.2878 -0.0721
15091SOL    HW248866   4.137  10.657   0.873 -0.4572 -2.1337 -1.3576
15092SOL     OW48867   6.800  10.064   8.814 -0.3693  0.0406 -0.1812
15092SOL    HW148868   6.855  10.064   8.736  0.3256  0.0704  0.3030
15092SOL    HW248869   6.793  10.157   8.839 -3.0746  0.4223 -1.9064
15093SOL     OW48870   5.512   3.595   1.188  0.7978  0.0378  0.5533
15093SOL    HW148871   5.597   3.561   1.159  1.1067 -0.4679  1.9754
15093SOL    HW248872   5.529   3.687   1.209  0.8198  0.1237  0.1682
15094SOL     OW48873   7.131   6.684   9.833 -0.0400 -0.2832 -0.5144
15094SOL    HW148874   7.082   6.603   9.823 -0.2745 -0.2680  0.4264
15094SOL    HW248875   7.118   6.730   9.750 -1.8355 -0.1677 -0.2053
15095SOL     OW48876   0.738   7.474   9.724  0.2234 -0.2663 -0.2454
15095SOL    HW148877   0.730   7.395   9.777 -1.4004  0.4737  0.6977
15095SOL    HW248878   0.759   7.543   9.787  1.4409  0.1077 -1.0322
15096SOL     OW48879   5.326   6.890   8.404  0.0898  0.0529  0.2035
15096SOL    HW148880   5.394   6.845   8.453 -1.0228 -1.4018  0.5023
15096SOL    HW248881   5.257   6.824   8.394  0.4132  0.0694 -3.7114
15097SOL     OW48882   7.189  10.653  10.067 -0.4059  0.1477  0.7378
15097SOL    HW148883   7.252  10.682  10.133  2.2187  0.8464 -1.9057
15097SOL    HW248884   7.196  10.557  10.069 -1.1884  0.0900  2.1679
15098SOL     OW48885   1.003   4.156   3.413 -0.4702  0.1760  0.5656
15098SOL    HW148886   0.941   4.134   3.343  1.1955 -0.1196 -0.8888
15098SOL    HW248887   1.060   4.222   3.375  1.9732 -1.6817  0.7406
15099SOL     OW48888   0.580   7.280   0.700 -0.1494 -0.2714  0.3201
15099SOL    HW148889   0.603   7.351   0.759 -1.6587 -0.3379  1.0400
15099SOL    HW248890   0.661   7.260   0.653  0.7034  0.7947  1.2902
15100SOL     OW48891   1.584   0.016   9.608  0.1852 -0.8053  0.5944
15100SOL    HW148892   1.627  -0.039   9.543 -2.6998 -1.3677 -1.0383
15100SOL    HW248893   1.561  -0.043   9.679 -0.4731 -1.1600  0.0999
15101SOL     OW48894   7.094   4.053   4.044  0.2432 -0.5290 -0.2859
15101SOL    HW148895   6.999   4.046   4.051  0.0602  1.4655 -0.2331
15101SOL    HW248896   7.127   3.970   4.079 -1.4388 -0.6741  1.0707
15102SOL     OW48897   9.618   2.083   8.471  0.1128 -0.2885 -0.4337
15102SOL    HW148898   9.656   2.061   8.555 -1.9184 -1.9862  0.1142
15102SOL    HW248899   9.671   2.034   8.407 -0.4314 -1.7769  0.2087
15103SOL     OW48900   9.483   1.904   7.112 -0.2934 -0.2830  0.0476
15103SOL    HW148901   9.505   1.970   7.047  0.6566  0.4299  1.0505
15103SOL    HW248902   9.562   1.849   7.118 -1.2314 -1.8483 -1.1209
15104SOL     OW48903   6.007   5.025   7.867 -0.1616 -0.2946  0.8454
15104SOL    HW148904   6.002   5.096   7.803  1.4119 -0.0369  0.9578
15104SOL    HW248905   5.986   5.066   7.951 -1.9118 -0.5657  0.5750
15105SOL     OW48906   6.817   8.122   1.096  0.6901  0.0312 -0.1864
15105SOL    HW148907   6.800   8.167   1.013  0.5801  2.2161  0.9548
15105SOL    HW248908   6.731   8.114   1.137  0.8065 -0.6015 -0.0605
15106SOL     OW48909   4.071   3.381   4.771 -0.3906 -0.1847 -0.4433
15106SOL    HW148910   4.136   3.328   4.726 -0.7035 -1.5055  0.5983
15106SOL    HW248911   3.989   3.334   4.760 -0.6216 -0.1058  0.7458
15107SOL     OW48912   9.206  10.728  10.658 -0.3922 -0.0530  0.2504
15107SOL    HW148913   9.215  10.741  10.563 -0.9868 -0.3429  0.1498
15107SOL    HW248914   9.158  10.806  10.687 -1.4221 -0.6038  0.0900
15108SOL     OW48915   1.731   1.093   8.897 -0.3800  0.3326 -0.2121
15108SOL    HW148916   1.637   1.075   8.885 -0.4507 -0.0678  0.8944
15108SOL    HW248917   1.773   1.008   8.885 -0.4404 -0.0702  2.0728
15109SOL     OW48918   8.351   0.066   5.579  0.5258 -0.5061  0.4773
15109SOL    HW148919   8.316  -0.012   5.622 -0.4914 -0.5990 -0.4722
15109SOL    HW248920   8.349   0.133   5.647 -3.2192 -0.0234  0.1213
15110SOL     OW48921   4.003   6.543   2.892 -0.0972 -0.3199  0.3300
15110SOL    HW148922   4.042   6.584   2.970 -0.6107 -0.0971  0.4754
15110SOL    HW248923   4.008   6.610   2.824  0.0765 -0.4086  0.2549
15111SOL     OW48924   6.093   9.660   4.496 -1.0944  0.6049  0.1320
15111SOL    HW148925   6.013   9.659   4.444 -0.7911 -0.8944 -0.3529
15111SOL    HW248926   6.081   9.590   4.560  0.8994 -1.5756 -1.7109
15112SOL     OW48927   2.542  11.032   5.500 -0.1638 -0.2986  0.4326
15112SOL    HW148928   2.508  11.113   5.538 -0.0005 -0.3513  0.6957
15112SOL    HW248929   2.516  11.036   5.408 -1.9552 -0.9196  0.8778
15113SOL     OW48930   8.157   2.353   0.892  0.2049  0.3865  0.4033
15113SOL    HW148931   8.119   2.265   0.901  1.7499 -0.3729 -0.1760
15113SOL    HW248932   8.081   2.412   0.893 -1.0752 -1.0999 -1.5034
15114SOL     OW48933   1.052   6.664   1.662 -0.1395  0.5206 -0.6158
15114SOL    HW148934   1.022   6.745   1.620  0.2742  1.9490  1.6411
15114SOL    HW248935   0.984   6.643   1.726  0.3030 -0.2667 -0.3844
15115SOL     OW48936   8.870   6.858   6.523 -0.0807 -0.0676 -0.6454
15115SOL    HW148937   8.886   6.853   6.617  1.7194 -0.7429 -0.9573
15115SOL    HW248938   8.941   6.913   6.489  1.1295 -2.3311 -1.9893
15116SOL     OW48939   0.502   6.722   3.267 -0.5409 -0.0814  0.0015
15116SOL    HW148940   0.583   6.710   3.316 -1.3376 -1.3110  1.1237
15116SOL    HW248941   0.520   6.793   3.206  1.8457 -1.2847 -0.8321
15117SOL     OW48942  10.845   8.300   3.475  0.6610  0.4305  0.0537
15117SOL    HW148943  10.915   8.320   3.414  1.2531 -2.7502 -0.4884
15117SOL    HW248944  10.819   8.210   3.453 -1.8868  0.6095  1.8721
15118SOL     OW48945   6.407   3.188   0.490  0.5403  0.3786 -0.2535
15118SOL    HW148946   6.362   3.130   0.552  0.2411 -0.3356 -1.1076
15118SOL    HW248947   6.454   3.250   0.544 -0.4275  0.3195  0.6809
15119SOL     OW48948   3.084  10.744   9.181 -0.0940  0.0905  0.1330
15119SOL    HW148949   2.996  10.771   9.153 -0.2701 -0.9936 -0.4246
15119SOL    HW248950   3.130  10.725   9.099  0.8383  1.1246  0.3904
15120SOL     OW48951   6.756   7.703  10.499  0.0879  0.0057 -0.0691
15120SOL    HW148952   6.812   7.653  10.438  0.3117  0.9073 -0.6245
15120SOL    HW248953   6.801   7.787  10.509 -0.3052  0.1205  0.8204
15121SOL     OW48954   2.732   8.640   5.985  0.2525  0.9543  0.0775
15121SOL    HW148955   2.657   8.639   6.044 -0.2379  0.3045 -0.5386
15121SOL    HW248956   2.759   8.732   5.983 -1.5677  1.5106 -0.9602
15122SOL     OW48957  10.461   9.071  10.706  0.5579  0.2572 -0.3396
15122SOL    HW148958  10.466   8.999  10.643  0.1895 -1.6161  1.6689
15122SOL    HW248959  10.511   9.041  10.781  0.2100  2.0373  0.6553
15123SOL     OW48960   8.965   4.900   8.449 -0.0964 -0.1133  0.0286
15123SOL    HW148961   8.954   4.967   8.516 -1.4709  0.3594 -0.6338
15123SOL    HW248962   9.014   4.944   8.380  2.9666 -1.1244  1.4012
15124SOL     OW48963   4.541  10.622   9.666  0.2355 -0.0905 -0.0398
15124SOL    HW148964   4.521  10.543   9.616 -0.2019  0.3829 -0.6286
15124SOL    HW248965   4.610  10.666   9.615  1.1613 -0.5459  0.7707
15125SOL     OW48966   2.662  10.966   2.783  0.0456 -0.1800  0.1290
15125SOL    HW148967   2.746  10.937   2.748  0.6122 -0.9486  1.9998
15125SOL    HW248968   2.684  11.015   2.862 -1.2746 -1.4831  1.3713
15126SOL     OW48969   2.203   8.657   0.009  0.2680 -0.1499 -0.6676
15126SOL    HW148970   2.185   8.751   0.017  1.3364  0.1361 -1.3486
15126SOL    HW248971   2.289   8.646   0.050 -0.5115 -1.1182  0.7972
15127SOL     OW48972   2.204  10.681   8.778 -0.2624  0.2355 -0.0797
15127SOL    HW148973   2.232  10.751   8.836  0.5246 -0.2260  0.1237
15127SOL    HW248974   2.279  10.621   8.776 -1.2683 -1.0753  0.4967
15128SOL     OW48975   2.086   7.229   0.672 -0.1087 -0.0748  0.3188
15128SOL    HW148976   2.035   7.268   0.601  0.5644  0.8842  0.3275
15128SOL    HW248977   2.168   7.202   0.630 -0.2314 -0.7224  0.4862
15129SOL     OW48978   9.832   7.557   6.412 -0.1966 -0.0044 -0.1525
15129SOL    HW148979   9.892   7.562   6.338  0.4333 -1.5328  0.2103
15129SOL    HW248980   9.776   7.481   6.393  1.0103 -1.4302  1.6125
15130SOL     OW48981   6.659   7.656   2.798  0.2010 -0.2346 -0.2289
15130SOL    HW148982   6.677   7.726   2.860 -1.1609 -0.3310  0.3196
15130SOL    HW248983   6.743   7.638   2.756  1.1297 -0.0832  1.4819
15131SOL     OW48984   0.369   8.300   4.515  0.5887 -0.3018 -0.2316
15131SOL    HW148985   0.417   8.333   4.439 -0.8421  0.0980 -1.0071
15131SOL    HW248986   0.312   8.232   4.478  0.6413 -0.8469  0.6757
15132SOL     OW48987   3.864   4.172   9.605 -0.1907 -0.2234 -0.0858
15132SOL    HW148988   3.806   4.143   9.534 -0.4340  1.6874 -0.7167
15132SOL    HW248989   3.946   4.126   9.590 -0.7845 -1.1368 -0.6007
15133SOL     OW48990   9.950   0.786   7.495  0.3639  0.1084  0.0080
15133SOL    HW148991  10.036   0.814   7.526 -0.0773  0.6510  0.7548
15133SOL    HW248992   9.946   0.693   7.518  0.8998 -0.0145 -0.3759
15134SOL     OW48993   8.828   5.131   0.453  0.1274  0.5078 -0.2015
15134SOL    HW148994   8.735   5.122   0.473 -0.2592 -0.5199 -2.2322
15134SOL    HW248995   8.849   5.221   0.479 -1.2796  0.5766  0.8057
15135SOL     OW48996   4.047  10.788   8.347 -0.4086  0.3219  0.5931
15135SOL    HW148997   3.977  10.813   8.406 -0.2505  3.0857 -0.2342
15135SOL    HW248998   4.107  10.862   8.348 -1.1402  1.2763 -4.0665
15136SOL     OW48999   5.811   5.354   2.487 -0.3139  0.2352 -0.1376
15136SOL    HW149000   5.796   5.364   2.393  1.7820  2.5485 -0.3233
15136SOL    HW249001   5.745   5.409   2.528 -0.8576 -0.3199 -0.2461
15137SOL     OW49002   6.656   0.084  10.031 -0.2741  0.0371  0.0608
15137SOL    HW149003   6.668  -0.011  10.035 -1.3432 -0.1448 -0.7955
15137SOL    HW249004   6.598   0.098   9.956 -1.6898  1.2057  1.3123
15138SOL     OW49005   0.840   6.221   9.368 -0.0294  0.3254 -0.3508
15138SOL    HW149006   0.925   6.260   9.347 -0.2853  0.8843 -0.3628
15138SOL    HW249007   0.789   6.293   9.403  0.3941 -0.5616  2.3167
15139SOL     OW49008   6.342   1.630   0.580  0.3026  0.3118 -0.3418
15139SOL    HW149009   6.343   1.725   0.585 -0.8051  0.3413 -0.4082
15139SOL    HW249010   6.382   1.610   0.495  1.0167  0.6836 -0.0990
15140SOL     OW49011  10.295   1.296   2.891 -0.3102 -0.1160 -0.1224
15140SOL    HW149012  10.356   1.236   2.848 -0.9427 -1.3331  0.6512
15140SOL    HW249013  10.208   1.260   2.873 -0.8019  1.3473 -0.8175
15141SOL     OW49014  10.743   6.588  10.685 -0.1998  0.2536 -0.2079
15141SOL    HW149015  10.795   6.507  10.687  0.3548  0.6067  0.4165
15141SOL    HW249016  10.657   6.561  10.653  0.5292 -0.2540 -1.8525
15142SOL     OW49017   3.178   4.851   8.837 -0.2072  0.1569 -0.4476
15142SOL    HW149018   3.097   4.866   8.789  0.0105 -1.5640 -1.4524
15142SOL    HW249019   3.246   4.856   8.769  0.2108 -1.2763 -0.1743
15143SOL     OW49020   7.977   0.687   9.284  0.1953 -0.5004 -0.5677
15143SOL    HW149021   8.004   0.598   9.307  1.9240 -0.2290 -1.3548
15143SOL    HW249022   7.978   0.735   9.367 -0.9086 -1.2243 -0.1159
15144SOL     OW49023   0.426   0.749   7.592  0.1831 -0.0149  0.3940
15144SOL    HW149024   0.495   0.771   7.530  1.3611 -1.5754  1.0782
15144SOL    HW249025   0.433   0.654   7.603 -0.8342  0.0529  1.9140
15145SOL     OW49026  10.815   8.303   0.794 -0.4473  0.5653 -0.3429
15145SOL    HW149027  10.833   8.330   0.885 -0.6473 -0.6214  0.0666
15145SOL    HW249028  10.847   8.213   0.789 -0.3792  0.6373 -1.4832
15146SOL     OW49029  10.907   6.378   1.579  0.7071  0.0140 -0.4426
15146SOL    HW149030  10.859   6.297   1.594 -0.0263  0.0625 -2.2955
15146SOL    HW249031  10.873   6.439   1.645  0.6137 -0.8969  0.3699
15147SOL     OW49032   6.684   8.720   1.829 -0.4825  0.6161 -0.0329
15147SOL    HW149033   6.770   8.754   1.805 -0.6550  1.6815  0.7592
15147SOL    HW249034   6.693   8.625   1.824  0.6500  0.7207 -0.2576
15148SOL     OW49035   0.565   6.248   8.397 -0.3271  0.0842  0.1965
15148SOL    HW149036   0.555   6.343   8.408 -1.6547  0.1657 -1.3017
15148SOL    HW249037   0.483   6.211   8.430 -0.3709 -0.4252 -0.4652
15149SOL     OW49038   4.060   1.802   4.266 -0.8333 -0.2340  0.0782
15149SOL    HW149039   4.085   1.887   4.229 -2.3851  0.8561  1.4000
15149SOL    HW249040   3.964   1.803   4.265 -0.9016 -1.0825  2.0379
15150SOL     OW49041   1.064   0.487   2.925 -0.4013  0.1329  0.1363
15150SOL    HW149042   1.124   0.426   2.968  0.1487  0.4256 -0.2069
15150SOL    HW249043   1.110   0.570   2.925  0.6972 -0.3207 -3.1153
15151SOL     OW49044   5.269   0.516   3.631  0.0006 -0.5100  0.4232
15151SOL    HW149045   5.234   0.571   3.701 -0.5208  0.1456 -0.3435
15151SOL    HW249046   5.313   0.578   3.572  0.5619 -1.0752  0.2327
15152SOL     OW49047   7.246   7.883   7.428 -0.0603  0.3858  0.1990
15152SOL    HW149048   7.268   7.800   7.471  0.1357  0.2592 -0.1407
15152SOL    HW249049   7.303   7.886   7.351 -0.1086  0.8097  0.1758
15153SOL     OW49050   5.200   5.998   0.298 -0.0314  0.0872 -0.1429
15153SOL    HW149051   5.173   5.987   0.207 -1.1987  0.0097  0.1901
15153SOL    HW249052   5.294   5.979   0.299 -0.5172 -2.8549 -0.8370
15154SOL     OW49053   2.943   3.112   0.997  0.8009 -0.2467  0.2706
15154SOL    HW149054   2.891   3.057   1.057  0.2375  0.0042  0.0247
15154SOL    HW249055   2.933   3.201   1.032 -0.4860  0.0750 -0.8188
15155SOL     OW49056   1.940  10.629   0.419  0.2978 -0.5819 -0.0099
15155SOL    HW149057   2.026  10.590   0.435  0.5384 -0.4848 -0.9839
15155SOL    HW249058   1.945  10.715   0.459  0.1693 -1.0810  1.1307
15156SOL     OW49059   1.335   9.559   1.527 -0.3394 -0.7221  0.8352
15156SOL    HW149060   1.392   9.483   1.537  0.1547 -0.3892  0.6183
15156SOL    HW249061   1.387   9.620   1.474  0.0399  0.5467  2.5862
15157SOL     OW49062  11.087   5.120   1.292  0.1528  0.2577  0.1874
15157SOL    HW149063  11.049   5.203   1.266 -1.3874 -0.1750  0.9484
15157SOL    HW249064  11.163   5.143   1.346 -0.3631  1.1556  0.5375
15158SOL     OW49065   4.882   4.125   2.597  0.1297 -0.3147 -0.0433
15158SOL    HW149066   4.836   4.208   2.583 -0.6317 -0.7073  0.0985
15158SOL    HW249067   4.873   4.108   2.690  0.7369 -0.2989  0.0198
15159SOL     OW49068   5.259   8.695   8.477 -0.0760  0.0807 -0.2816
15159SOL    HW149069   5.337   8.684   8.422 -0.0554 -1.6639  0.0444
15159SOL    HW249070   5.189   8.651   8.429 -0.2627 -0.6671  0.6664
15160SOL     OW49071   4.487   1.691   1.786 -0.3024 -0.2146 -0.0505
15160SOL    HW149072   4.549   1.634   1.740 -0.2937 -2.6589  2.6521
15160SOL    HW249073   4.542   1.742   1.845 -0.4904  1.4190 -1.2247
15161SOL     OW49074   0.737   6.638   5.317  0.2620  0.4108  0.0179
15161SOL    HW149075   0.814   6.629   5.373 -0.5059  0.9306  1.2204
15161SOL    HW249076   0.689   6.556   5.330 -0.3038  0.8412  0.7774
15162SOL     OW49077   7.787   1.069   4.623 -0.8900 -0.2284 -0.2269
15162SOL    HW149078   7.757   1.158   4.602 -0.1898  0.6360  2.1386
15162SOL    HW249079   7.847   1.081   4.697  0.3150 -2.5487 -0.7343
15163SOL     OW49080  10.956   3.588   2.622 -0.5244  0.0254 -0.4179
15163SOL    HW149081  10.998   3.593   2.708  2.2707  0.4509 -1.6852
15163SOL    HW249082  11.009   3.524   2.574 -3.0327 -1.4654 -1.3628
15164SOL     OW49083   3.418   0.462   1.065  0.1056 -0.0087  0.2759
15164SOL    HW149084   3.359   0.528   1.103 -0.2510 -0.1949  0.0578
15164SOL    HW249085   3.462   0.423   1.140 -0.7511 -0.5248  0.5249
15165SOL     OW49086   0.213   1.541   5.109  0.4598 -0.3896  0.1219
15165SOL    HW149087   0.150   1.611   5.098  0.2492 -0.8073 -1.6005
15165SOL    HW249088   0.286   1.563   5.051  0.5966 -1.3491 -0.1009
15166SOL     OW49089  10.015   4.420   0.193  0.2363 -0.4283 -0.1735
15166SOL    HW149090  10.070   4.373   0.255 -0.0545  0.1176  0.5082
15166SOL    HW249091   9.925   4.402   0.222  0.1016 -0.0702 -0.3681
15167SOL     OW49092   6.512   4.516   6.907  0.5863  0.9866 -0.0224
15167SOL    HW149093   6.539   4.492   6.996 -0.9549  0.1413  0.2604
15167SOL    HW249094   6.416   4.511   6.909  0.3900  2.9524 -1.1920
15168SOL     OW49095   5.147   1.821   9.508  0.0177 -0.2496  0.0986
15168SOL    HW149096   5.187   1.908   9.513  0.4472 -0.4318 -0.0730
15168SOL    HW249097   5.188   1.771   9.579  0.0133 -0.4042 -0.0061
15169SOL     OW49098   7.288   5.406   1.584  0.2859  0.1946 -0.4836
15169SOL    HW149099   7.254   5.363   1.506  1.7637 -1.1230 -0.4656
15169SOL    HW249100   7.345   5.340   1.624 -0.3888  0.8423  1.6878
15170SOL     OW49101   0.651   9.101   9.885 -0.1311  0.3716  0.1047
15170SOL    HW149102   0.581   9.162   9.908  1.0322  2.0133 -0.4999
15170SOL    HW249103   0.632   9.075   9.795 -2.0126 -2.2516  1.1266
15171SOL     OW49104  10.600   2.334   2.311  0.0858 -0.0880  0.2886
15171SOL    HW149105  10.583   2.406   2.372  1.3151  0.0111  0.5453
15171SOL    HW249106  10.515   2.294   2.296 -1.1966  3.0780 -1.9682
15172SOL     OW49107   2.456   3.266   3.754 -0.1488  0.7280 -0.3284
15172SOL    HW149108   2.469   3.173   3.735  0.4720  0.8218 -0.3865
15172SOL    HW249109   2.410   3.267   3.838 -1.8435  0.3384 -1.2153
15173SOL     OW49110  10.827   2.175   8.807 -0.0263 -0.5079 -0.1272
15173SOL    HW149111  10.776   2.165   8.726  0.1669 -3.3825  0.0153
15173SOL    HW249112  10.902   2.227   8.782 -1.2421  0.8318 -1.1694
15174SOL     OW49113   5.825   7.858   2.009  0.0635 -0.5556  0.1098
15174SOL    HW149114   5.771   7.813   2.074 -1.5161  1.0901  0.0018
15174SOL    HW249115   5.802   7.816   1.926  0.8832 -1.5658  0.3702
15175SOL     OW49116   6.262   5.051   7.221 -0.1567 -0.4092  0.5081
15175SOL    HW149117   6.339   5.103   7.197 -0.5937 -0.1469 -0.3660
15175SOL    HW249118   6.297   4.979   7.272  0.9420 -1.4046 -1.5256
15176SOL     OW49119   2.040   9.799   6.546  0.2400  0.4427 -0.0333
15176SOL    HW149120   2.002   9.745   6.615 -1.7524  1.2126 -0.4698
15176SOL    HW249121   2.120   9.834   6.585  0.4513 -1.0903  0.9971
15177SOL     OW49122   6.599   1.073   0.004  0.3236 -0.5251 -0.4654
15177SOL    HW149123   6.667   1.097   0.067 -1.3312  0.6512  0.9731
15177SOL    HW249124   6.567   0.988   0.034 -1.4030  0.6271  1.2601
15178SOL     OW49125   0.135   9.437   3.396  0.2797 -0.2628  0.3373
15178SOL    HW149126   0.058   9.443   3.340  0.6508 -0.2634 -0.1823
15178SOL    HW249127   0.116   9.363   3.454 -2.0185  2.3336  3.2457
15179SOL     OW49128   6.882   3.627   4.787  0.2638 -0.1093 -0.0407
15179SOL    HW149129   6.937   3.569   4.735 -1.8844 -0.5144 -2.0682
15179SOL    HW249130   6.907   3.715   4.760  0.2817 -0.2656 -0.5333
15180SOL     OW49131   6.928   3.053   8.980  0.2954  0.1398  0.6353
15180SOL    HW149132   6.867   3.094   9.041 -0.1477  0.4095  0.0278
15180SOL    HW249133   6.900   3.084   8.894 -0.0616 -1.4228  0.1475
15181SOL     OW49134   4.626   0.234   1.759 -0.3984  0.1459  0.0590
15181SOL    HW149135   4.687   0.306   1.774 -1.4457  0.6112  2.5465
15181SOL    HW249136   4.603   0.203   1.847 -0.5791 -2.7499 -0.9158
15182SOL     OW49137   0.462   6.734   9.353  0.0554  0.1845 -0.3674
15182SOL    HW149138   0.444   6.774   9.268  0.6739  1.5661  0.1184
15182SOL    HW249139   0.476   6.641   9.334 -0.8565  0.2842 -1.6205
15183SOL     OW49140   4.064   1.938   4.810  0.1406 -0.0703 -0.0644
15183SOL    HW149141   4.057   1.846   4.786  1.2574 -0.1388 -0.1912
15183SOL    HW249142   4.109   1.938   4.895 -1.4826  0.2892  0.8241
15184SOL     OW49143   3.548   7.937   6.519 -1.2220 -0.3010 -0.1277
15184SOL    HW149144   3.572   7.885   6.596 -1.9483  0.8689  0.9344
15184SOL    HW249145   3.456   7.913   6.502 -1.2492 -0.1147 -0.2460
15185SOL     OW49146   0.684   6.611   3.632  0.4015  0.4351 -0.3674
15185SOL    HW149147   0.596   6.632   3.602  1.1048  3.3212 -0.6666
15185SOL    HW249148   0.738   6.615   3.553  0.8924 -1.0896 -0.1530
15186SOL     OW49149   9.138   7.190   6.908  0.0583 -1.1215 -0.5159
15186SOL    HW149150   9.055   7.216   6.869 -0.0912 -0.9624 -0.1065
15186SOL    HW249151   9.117   7.173   7.000  0.5701 -0.6021 -0.2960
15187SOL     OW49152   7.235   7.694   3.111  0.0566  0.1999 -0.0528
15187SOL    HW149153   7.284   7.750   3.170  2.8315 -1.5830 -0.4490
15187SOL    HW249154   7.302   7.638   3.071 -2.4071 -3.0046 -0.0735
15188SOL     OW49155   0.577   5.974   0.997  0.2357 -0.0496 -0.0198
15188SOL    HW149156   0.664   5.935   1.007  0.0602 -0.2404  0.8485
15188SOL    HW249157   0.588   6.039   0.928  0.5458 -1.6035 -1.5130
15189SOL     OW49158   3.104   4.722   0.579 -0.4116 -0.4153 -0.0592
15189SOL    HW149159   3.196   4.708   0.555  0.0590  1.0859  0.7078
15189SOL    HW249160   3.064   4.755   0.498 -0.3638 -1.3715 -0.4844
15190SOL     OW49161   3.331  10.086  10.584 -0.3189  0.2343  0.3323
15190SOL    HW149162   3.298  10.008  10.539 -0.5012 -0.0863  0.9964
15190SOL    HW249163   3.252  10.128  10.620  0.0365 -1.9359  4.1817
15191SOL     OW49164   2.906   6.554   0.241 -0.3663  0.2431  0.2446
15191SOL    HW149165   2.860   6.510   0.170  1.0439 -1.8718  0.5432
15191SOL    HW249166   2.993   6.573   0.205 -0.7749  2.4836  0.2837
15192SOL     OW49167   5.678   8.357   8.751  0.1581 -0.2354 -0.2720
15192SOL    HW149168   5.715   8.317   8.673  0.2169 -1.2820  0.2792
15192SOL    HW249169   5.603   8.407   8.719  0.1075 -0.7551 -0.9896
15193SOL     OW49170   1.862   5.034  10.616 -0.0760 -0.1873  0.1536
15193SOL    HW149171   1.951   5.030  10.581  0.1281 -1.0819  0.7537
15193SOL    HW249172   1.874   5.047  10.710 -0.6021  0.6301  0.1183
15194SOL     OW49173   3.535  10.898   3.014  0.1406 -0.0696 -0.1742
15194SOL    HW149174   3.593  10.822   3.010 -0.1059 -0.2062 -1.8941
15194SOL    HW249175   3.594  10.974   3.013  0.4284 -0.1574  2.3132
15195SOL     OW49176   7.317   4.229   9.648  0.2870  0.4187  0.3458
15195SOL    HW149177   7.301   4.199   9.737  0.5227  0.2210  0.3215
15195SOL    HW249178   7.394   4.180   9.619 -0.8506 -0.8845 -0.6197
15196SOL     OW49179   5.664   0.442   8.845  0.4552  0.1363  0.2087
15196SOL    HW149180   5.666   0.383   8.920 -1.6614 -0.1864  0.0802
15196SOL    HW249181   5.679   0.529   8.882 -0.2215 -0.0591  0.9629
15197SOL     OW49182  10.430   1.623   4.532  0.8453 -0.0424  0.3781
15197SOL    HW149183  10.389   1.703   4.566  1.9837 -0.5068  3.0946
15197SOL    HW249184  10.507   1.653   4.486 -1.2733  0.6876 -3.0279
15198SOL     OW49185   6.163   7.786   5.243  0.5579  0.1990  0.0461
15198SOL    HW149186   6.159   7.778   5.148  1.6277 -0.0169  0.0047
15198SOL    HW249187   6.243   7.835   5.260 -0.9724  2.6410  0.7466
15199SOL     OW49188   9.424  10.306   8.199 -0.0801 -0.1849 -0.2632
15199SOL    HW149189   9.369  10.385   8.200  0.3056  0.1582 -2.2547
15199SOL    HW249190   9.510  10.336   8.171  0.3123 -1.1979 -0.1973
15200SOL     OW49191   4.604   0.015   0.766 -0.3973  0.5903 -0.0444
15200SOL    HW149192   4.653   0.024   0.848 -0.8675 -0.6084  0.3993
15200SOL    HW249193   4.671   0.008   0.699  0.0356  0.1132  0.4245
15201SOL     OW49194   2.816   2.764   8.555  0.9934 -0.5046 -0.1854
15201SOL    HW149195   2.793   2.675   8.527  1.3783 -0.8343  0.5225
15201SOL    HW249196   2.902   2.781   8.517  0.9068 -0.4186 -0.3463
15202SOL     OW49197   2.973   5.008   1.275 -0.2764 -0.0988  0.5102
15202SOL    HW149198   3.060   5.004   1.236 -1.3711 -0.4806 -2.1144
15202SOL    HW249199   2.971   4.936   1.337  1.2422 -0.1517  0.5365
15203SOL     OW49200   5.887   9.891   5.494  0.8413 -0.4688  0.1405
15203SOL    HW149201   5.821   9.908   5.561 -0.5491 -1.1796 -0.9998
15203SOL    HW249202   5.846   9.829   5.434  2.7990 -1.4725 -0.2498
15204SOL     OW49203   9.630   7.284   9.713 -0.1380 -0.1566 -0.6851
15204SOL    HW149204   9.694   7.349   9.741 -1.8484  1.8133 -1.0804
15204SOL    HW249205   9.669   7.243   9.636  1.5795 -0.6536  0.4018
15205SOL     OW49206   8.130   3.584   1.740  0.2435 -0.0065 -0.2654
15205SOL    HW149207   8.100   3.533   1.665 -0.5836  0.0807 -0.0050
15205SOL    HW249208   8.074   3.661   1.741  0.9860  0.5457 -0.2080
15206SOL     OW49209   9.530   5.688   7.024 -0.1798  0.2923 -0.0709
15206SOL    HW149210   9.464   5.738   6.975  0.8102  0.7057 -1.0222
15206SOL    HW249211   9.583   5.755   7.068  0.4492  0.0343 -0.4252
15207SOL     OW49212   3.901   8.917   5.984 -0.0560  0.4602 -0.2371
15207SOL    HW149213   3.905   8.986   5.917  3.0514  0.0472 -0.6568
15207SOL    HW249214   3.982   8.867   5.971 -1.3566 -2.2258  1.1917
15208SOL     OW49215   3.951   4.703   2.205 -0.0856  0.5023 -0.1910
15208SOL    HW149216   3.961   4.755   2.125  0.2379 -0.5880 -0.8915
15208SOL    HW249217   4.030   4.649   2.208  0.4464  1.3190  1.4861
15209SOL     OW49218   2.914  10.637  10.907  0.3236 -0.4276  0.8886
15209SOL    HW149219   2.912  10.562  10.848  0.1548 -0.8590  1.4376
15209SOL    HW249220   3.002  10.636  10.945  0.1398 -0.6848  1.3178
15210SOL     OW49221   5.230   4.125   8.698 -0.1789  0.2729 -0.0819
15210SOL    HW149222   5.142   4.148   8.671  0.4025  0.8878 -1.5470
15210SOL    HW249223   5.237   4.031   8.684 -0.6191  0.2138  0.1051
15211SOL     OW49224   5.993   9.252   5.781 -0.0016 -0.4646 -0.1746
15211SOL    HW149225   6.054   9.262   5.708 -0.7000  0.8213 -0.6264
15211SOL    HW249226   5.906   9.250   5.739 -0.2916 -2.8426  0.4010
15212SOL     OW49227   5.749   0.212   4.496  0.7069  0.1873 -0.2076
15212SOL    HW149228   5.824   0.154   4.503  0.9947  0.7033  1.2780
15212SOL    HW249229   5.680   0.158   4.457  1.8179 -0.2853 -1.6319
15213SOL     OW49230  11.060   8.016   4.325 -0.4305  0.2643 -0.2446
15213SOL    HW149231  11.120   7.991   4.395 -0.5176 -0.4018 -0.4089
15213SOL    HW249232  11.089   8.104   4.299  0.5791 -0.1177 -0.4401
15214SOL     OW49233   1.836   8.280   2.796  0.0328  0.0681  0.1303
15214SOL    HW149234   1.901   8.344   2.823 -0.0992  0.6174 -0.8010
15214SOL    HW249235   1.764   8.333   2.759 -0.9698 -0.5165  1.1938
15215SOL     OW49236  10.869   8.542   6.555  0.3037  0.4498  0.0456
15215SOL    HW149237  10.945   8.546   6.613  0.0994  1.4573  0.2669
15215SOL    HW249238  10.847   8.634   6.539 -1.6071  0.1882  0.9592
15216SOL     OW49239   6.283   8.195   0.304 -0.6257 -0.0025  0.6915
15216SOL    HW149240   6.360   8.142   0.286 -2.7382 -3.4918  0.8959
15216SOL    HW249241   6.301   8.238   0.387  1.1204 -0.6591  0.6763
15217SOL     OW49242  10.629  10.438   4.698  0.7410  0.1464 -0.7614
15217SOL    HW149243  10.599  10.360   4.650  4.1449 -1.2647 -0.9207
15217SOL    HW249244  10.612  10.417   4.790  1.3659 -0.7291 -0.8249
15218SOL     OW49245   9.840   2.422   0.650 -0.3760  0.3001 -0.2969
15218SOL    HW149246   9.807   2.499   0.604  1.2625  0.9863 -0.3953
15218SOL    HW249247   9.784   2.350   0.620  0.3088  0.8086 -3.0412
15219SOL     OW49248   4.222   1.848   8.361 -0.4003  0.1154 -0.2963
15219SOL    HW149249   4.152   1.836   8.425  0.3390  2.1639  0.9997
15219SOL    HW249250   4.285   1.780   8.382 -0.4828  0.3407  0.7523
15220SOL     OW49251   0.617   7.391   9.135  0.5390  0.0089 -0.1515
15220SOL    HW149252   0.536   7.427   9.171 -0.5408 -1.8465 -0.5862
15220SOL    HW249253   0.684   7.456   9.156 -1.2986  2.3673 -1.1364
15221SOL     OW49254   5.559  10.599   1.296 -0.1498 -0.2472  0.4116
15221SOL    HW149255   5.531  10.644   1.376 -1.9485  1.0763 -0.8801
15221SOL    HW249256   5.482  10.547   1.270  0.1761 -0.1509 -0.7953
15222SOL     OW49257   7.439   1.029  10.429  0.0225  0.0950 -0.3724
15222SOL    HW149258   7.464   0.965  10.362 -1.3888 -0.3511 -0.5147
15222SOL    HW249259   7.352   1.059  10.403  0.2208  1.3125  0.2668
15223SOL     OW49260   2.181   4.416   7.272  0.3337 -0.4130  0.9572
15223SOL    HW149261   2.219   4.402   7.359 -0.9896 -0.1693  1.5925
15223SOL    HW249262   2.215   4.501   7.244 -0.5959  0.3184  1.9919
15224SOL     OW49263   6.008   3.940   9.925  0.3168  0.2332  0.7889
15224SOL    HW149264   5.915   3.920   9.933  0.3181 -0.0133  0.2096
15224SOL    HW249265   6.050   3.855   9.921  0.4452  0.3367 -0.3081
15225SOL     OW49266   7.623   3.508   8.470  0.0883  0.6636  0.4547
15225SOL    HW149267   7.714   3.521   8.496  0.2043  1.2511 -0.2140
15225SOL    HW249268   7.579   3.590   8.494 -0.1311  0.6124  0.2327
15226SOL     OW49269   9.967   2.447   9.639  0.1974 -0.4757 -0.2608
15226SOL    HW149270  10.003   2.506   9.705 -0.5757 -0.2541 -0.0339
15226SOL    HW249271  10.037   2.439   9.574  0.3322  0.6196 -0.2617
15227SOL     OW49272   3.415   9.705   8.883 -0.3732  0.3724  0.0360
15227SOL    HW149273   3.359   9.630   8.863  1.8162 -1.2435 -0.3425
15227SOL    HW249274   3.477   9.672   8.948  2.0977  1.1198 -1.8127
15228SOL     OW49275   3.994   9.843   3.410 -0.1243  0.1011 -0.0131
15228SOL    HW149276   4.006   9.749   3.421 -1.4716  0.0085  1.0107
15228SOL    HW249277   3.975   9.876   3.499 -0.4612  1.1989 -0.4678
15229SOL     OW49278   7.500   9.275   1.093  0.4688  0.1272  0.0128
15229SOL    HW149279   7.456   9.358   1.076 -1.3693 -0.3087  2.2437
15229SOL    HW249280   7.468   9.217   1.023  0.1044  0.7266 -0.3294
15230SOL     OW49281   4.755   6.521   5.401 -0.1978  0.1333 -0.1310
15230SOL    HW149282   4.801   6.442   5.430 -0.7290 -0.5873 -1.1643
15230SOL    HW249283   4.699   6.545   5.475  1.4783  0.7821  0.9877
15231SOL     OW49284   8.404   4.428   7.293  0.1492  0.0202  0.2806
15231SOL    HW149285   8.484   4.468   7.259 -0.0616  0.4765  0.3137
15231SOL    HW249286   8.419   4.334   7.286  0.7875  0.1018  0.5179
15232SOL     OW49287   3.397   6.785   0.327  0.0212  0.2074  0.0410
15232SOL    HW149288   3.348   6.844   0.385 -0.4469  0.2776 -0.4257
15232SOL    HW249289   3.420   6.839   0.252 -0.4475 -0.2144 -0.4087
15233SOL     OW49290   9.004  10.819   7.864  0.2411 -0.0210 -0.3347
15233SOL    HW149291   9.033  10.844   7.776  0.2512 -0.7656 -0.5561
15233SOL    HW249292   8.978  10.901   7.905 -0.5820  0.2415 -1.3386
15234SOL     OW49293   4.046   3.373   7.170  0.1184 -0.7862 -0.0634
15234SOL    HW149294   4.075   3.464   7.169  2.1000 -1.3642 -1.0304
15234SOL    HW249295   4.055   3.345   7.261  0.0899 -0.2085  0.1193
15235SOL     OW49296   5.000   9.908  11.007  0.7891 -0.1242  0.3872
15235SOL    HW149297   4.905   9.912  10.995  0.8064 -1.6528 -0.5708
15235SOL    HW249298   5.026   9.829  10.960  2.3041 -0.7641  2.1933
15236SOL     OW49299   8.072   2.713   6.446 -0.6101  0.5708 -0.1442
15236SOL    HW149300   8.091   2.806   6.441 -0.2929  0.4614 -1.2456
15236SOL    HW249301   8.081   2.691   6.539 -0.0202  1.4927  0.0269
15237SOL     OW49302   0.360   4.314   6.977  0.1615  0.2298  0.1235
15237SOL    HW149303   0.426   4.286   6.913  0.1771  0.7331 -0.0868
15237SOL    HW249304   0.277   4.305   6.930 -0.0230 -1.3004  0.6948
15238SOL     OW49305   5.868   1.436   9.172 -0.0499 -0.0903 -0.3922
15238SOL    HW149306   5.936   1.414   9.109 -0.3434 -0.6307 -0.5364
15238SOL    HW249307   5.911   1.430   9.257 -0.1950 -1.7108 -0.3877
15239SOL     OW49308   8.178  10.043   2.494  0.3368  0.5188 -0.0695
15239SOL    HW149309   8.241   9.981   2.457  0.4366  0.0614  0.8283
15239SOL    HW249310   8.101  10.036   2.437  0.8000  0.4924 -0.7045
15240SOL     OW49311   9.499   1.859   1.199  0.0693 -0.1806 -0.0287
15240SOL    HW149312   9.523   1.869   1.107  1.9976  0.7505  0.5140
15240SOL    HW249313   9.432   1.790   1.199  0.6414 -0.8188 -2.0250
15241SOL     OW49314  10.276  10.571   4.419 -0.0136  0.3132 -0.1158
15241SOL    HW149315  10.343  10.592   4.354  0.2692  1.4888  0.5286
15241SOL    HW249316  10.197  10.614   4.387 -0.0019  0.4667  0.0665
15242SOL     OW49317   1.702   3.551   0.838  0.1531  0.3868 -0.1407
15242SOL    HW149318   1.732   3.619   0.779  2.6927 -0.4305  0.0801
15242SOL    HW249319   1.771   3.543   0.903 -0.1893 -2.1715  0.0156
15243SOL     OW49320   3.504   8.049   2.331 -0.5103 -0.0621  0.0730
15243SOL    HW149321   3.459   8.045   2.247 -1.3082  0.9974  0.4225
15243SOL    HW249322   3.473   7.971   2.378  0.1490 -0.8030 -0.6958
15244SOL     OW49323   3.513   9.651   0.779  0.2953 -0.0935  0.0096
15244SOL    HW149324   3.519   9.745   0.795 -0.0776 -0.0126 -0.3087
15244SOL    HW249325   3.492   9.644   0.686 -0.6380 -0.4632  0.2453
15245SOL     OW49326   0.957   1.545   6.480 -0.2364 -0.4208  0.1926
15245SOL    HW149327   0.868   1.521   6.506  0.0624 -0.6545  1.0246
15245SOL    HW249328   0.985   1.474   6.421 -0.3164 -0.7587  0.5578
15246SOL     OW49329   8.536   1.379   2.474 -0.1720 -0.5265  0.0260
15246SOL    HW149330   8.583   1.349   2.552 -0.2209  3.6556  1.9530
15246SOL    HW249331   8.604   1.387   2.407  1.1290  1.0859  1.4255
15247SOL     OW49332   1.396  10.893   3.517 -0.0544 -0.4829 -0.2302
15247SOL    HW149333   1.448  10.839   3.576  0.8459  0.1833 -0.3977
15247SOL    HW249334   1.356  10.831   3.457  1.4643 -0.9430 -0.8152
15248SOL     OW49335   8.678   4.737   0.509 -0.5264 -0.1406 -0.4326
15248SOL    HW149336   8.615   4.726   0.580  0.9252 -2.9473  0.5846
15248SOL    HW249337   8.666   4.660   0.454  0.5863  0.3401 -1.4056
15249SOL     OW49338   9.723   8.907   4.888 -0.3722 -0.1090  0.7810
15249SOL    HW149339   9.679   8.859   4.958  0.5907 -2.5729 -0.1961
15249SOL    HW249340   9.801   8.856   4.869 -0.3745  0.6950 -1.7843
15250SOL     OW49341   2.664  10.653   3.345  0.2473  0.3493  0.5703
15250SOL    HW149342   2.604  10.664   3.419 -0.0232 -0.5815  0.4995
15250SOL    HW249343   2.673  10.558   3.335 -0.1191  0.4565 -0.9211
15251SOL     OW49344   3.298   6.966   7.237 -0.1112  0.2423  0.2173
15251SOL    HW149345   3.302   6.995   7.328  0.9841  0.9353 -0.0441
15251SOL    HW249346   3.214   6.920   7.231 -0.5112  0.7780  1.3948
15252SOL     OW49347   9.734   4.581   0.170 -0.6176  0.2987  0.3951
15252SOL    HW149348   9.727   4.526   0.248 -2.0057 -0.4134 -0.1992
15252SOL    HW249349   9.714   4.523   0.097  1.0752  0.8480 -0.5732
15253SOL     OW49350   1.675   1.789   1.661  0.2879 -0.4279 -0.0973
15253SOL    HW149351   1.666   1.779   1.566 -0.7688 -1.1600  0.0718
15253SOL    HW249352   1.629   1.870   1.681 -1.2860 -1.3198  0.0359
15254SOL     OW49353   9.036   6.638   2.768  0.1379 -0.4617  0.1472
15254SOL    HW149354   9.043   6.582   2.845 -0.0366  0.2845  0.7228
15254SOL    HW249355   9.120   6.627   2.723 -0.0151 -1.4130  0.0798
15255SOL     OW49356   8.248   5.382  10.395  0.4193  0.0044  0.2222
15255SOL    HW149357   8.295   5.458  10.428  2.0331 -0.5692 -0.6618
15255SOL    HW249358   8.292   5.307  10.434  1.2929 -0.6121 -1.7869
15256SOL     OW49359   2.755   6.886   7.367 -0.1806 -0.2202  0.1975
15256SOL    HW149360   2.721   6.800   7.392 -0.0904 -0.1895  0.4298
15256SOL    HW249361   2.727   6.944   7.438 -0.7282  0.0541 -0.2356
15257SOL     OW49362   5.114   9.164   9.352 -0.6309  0.0795  0.0822
15257SOL    HW149363   5.088   9.132   9.438  0.1424  1.1520  0.7468
15257SOL    HW249364   5.180   9.231   9.371 -0.3203  0.2034 -1.3560
15258SOL     OW49365   4.301   1.287   7.432 -0.5384  0.0826  0.7121
15258SOL    HW149366   4.374   1.347   7.446 -1.2005  0.9178  0.6910
15258SOL    HW249367   4.236   1.338   7.384 -0.7002 -0.9774 -0.2355
15259SOL     OW49368   5.386   9.003  10.275  0.3232 -0.2670  0.3314
15259SOL    HW149369   5.413   8.913  10.256 -1.6992 -1.6859  3.3929
15259SOL    HW249370   5.450   9.034  10.339  0.4296  0.1331  0.0360
15260SOL     OW49371   4.543   9.259   0.813  0.0881  0.5248 -0.1839
15260SOL    HW149372   4.532   9.296   0.901 -1.1610  0.8168 -0.4577
15260SOL    HW249373   4.484   9.184   0.811  0.1753  0.4690 -0.7543
15261SOL     OW49374   1.750   2.961   9.666  0.3803  0.2159  0.8356
15261SOL    HW149375   1.751   2.910   9.747  2.6526  0.5013  1.0512
15261SOL    HW249376   1.792   3.044   9.689 -2.3868  1.9170  0.2577
15262SOL     OW49377   2.099   1.739   3.816 -0.4056  0.0281 -0.3690
15262SOL    HW149378   2.152   1.716   3.892 -0.5561 -2.7398 -0.9970
15262SOL    HW249379   2.014   1.765   3.853 -0.4801 -1.2831  0.4479
15263SOL     OW49380   7.455   4.626   3.911  0.0268 -0.1690 -0.6540
15263SOL    HW149381   7.379   4.610   3.855  0.5890 -0.8849 -1.2263
15263SOL    HW249382   7.517   4.558   3.887  0.5154 -0.1176  0.4263
15264SOL     OW49383   1.610   0.710   3.593 -0.1972  0.1644  0.2437
15264SOL    HW149384   1.675   0.737   3.529  0.4276  1.8398  1.5388
15264SOL    HW249385   1.545   0.662   3.542  0.2849  1.4274 -1.6412
15265SOL     OW49386   4.207   8.721   3.713 -0.3916  0.4163 -0.4740
15265SOL    HW149387   4.135   8.670   3.750  1.0119 -0.6231  0.9589
15265SOL    HW249388   4.181   8.812   3.728 -2.1365  0.1363 -1.4862
15266SOL     OW49389   0.828  10.075   9.715  0.3082 -0.3646 -0.4288
15266SOL    HW149390   0.902  10.046   9.662  0.6478 -0.3129  0.0058
15266SOL    HW249391   0.854  10.055   9.805  0.2413  0.6335 -0.1816
15267SOL     OW49392   1.447   9.865   1.828 -0.1086 -0.1428  0.1287
15267SOL    HW149393   1.444   9.842   1.921  0.7193 -0.8566 -0.0036
15267SOL    HW249394   1.496   9.794   1.787  2.4606  1.7183 -0.3360
15268SOL     OW49395   1.258  10.665   8.257 -0.0275  0.1665 -0.5487
15268SOL    HW149396   1.307  10.583   8.252 -1.7160 -0.9418  0.3167
15268SOL    HW249397   1.175  10.647   8.212 -0.2051  1.5993 -0.8598
15269SOL     OW49398   2.839   8.734   9.943 -0.0499  0.3335 -0.0278
15269SOL    HW149399   2.877   8.815   9.909  3.3688 -0.1653  2.1709
15269SOL    HW249400   2.747   8.740   9.918  0.8737  2.7373 -3.8629
15270SOL     OW49401   3.826   4.173   4.056 -0.5489  0.0410 -0.0381
15270SOL    HW149402   3.914   4.138   4.064 -0.6241  0.2770  2.5490
15270SOL    HW249403   3.824   4.215   3.970  1.7264 -0.2853 -0.2904
15271SOL     OW49404   2.553   0.150   0.662  0.0127  0.1932  0.4441
15271SOL    HW149405   2.543   0.075   0.604 -1.5271 -1.2691  2.4910
15271SOL    HW249406   2.598   0.216   0.608 -1.4833 -0.9829 -2.4285
15272SOL     OW49407   5.094   1.910   2.498 -0.1376 -0.2396  0.1356
15272SOL    HW149408   5.049   1.860   2.430  1.0704  0.3752 -1.1679
15272SOL    HW249409   5.043   1.991   2.505 -0.2110 -0.2664 -0.0846
15273SOL     OW49410  10.939   4.245   6.324 -0.2833  0.1173 -0.2943
15273SOL    HW149411  10.855   4.208   6.300 -0.0083  0.3084 -1.6079
15273SOL    HW249412  10.924   4.340   6.326 -0.3231  0.1053  0.4273
15274SOL     OW49413  10.172   6.733  10.283 -0.0519  0.0858  0.3563
15274SOL    HW149414  10.258   6.706  10.252 -0.2256 -2.2510  1.7199
15274SOL    HW249415  10.189   6.779  10.365 -0.0815 -0.1771  0.5103
15275SOL     OW49416   2.823   2.782   7.848  0.0282  0.0745  0.3590
15275SOL    HW149417   2.777   2.699   7.832 -1.7387  0.8333  1.1811
15275SOL    HW249418   2.914   2.756   7.865 -0.2798 -1.5937 -0.2945
15276SOL     OW49419   8.531   9.875   8.557 -0.0403  1.0986  0.6360
15276SOL    HW149420   8.524   9.874   8.461  2.1422 -0.2918  0.4249
15276SOL    HW249421   8.500   9.789   8.584 -0.8095  1.5492  1.2283
15277SOL     OW49422   1.066   8.126   6.057 -0.1832  0.0704  0.4203
15277SOL    HW149423   1.043   8.047   6.104 -1.8380 -0.2308 -0.7859
15277SOL    HW249424   1.029   8.197   6.109  0.7302  0.0296  1.1576
15278SOL     OW49425  10.313   0.662   6.618 -0.9826 -0.0544  0.5469
15278SOL    HW149426  10.365   0.719   6.560 -0.1410 -1.0031  0.3319
15278SOL    HW249427  10.255   0.614   6.558 -1.6680  0.5320  0.7249
15279SOL     OW49428   8.209   8.545   4.419 -0.0550 -0.6237  0.1705
15279SOL    HW149429   8.135   8.530   4.477 -0.6688 -0.2106 -0.4884
15279SOL    HW249430   8.199   8.481   4.349 -0.9902  0.7654 -1.0342
15280SOL     OW49431   5.001   5.826   0.421  0.8019 -0.5437  0.4590
15280SOL    HW149432   4.947   5.848   0.345  0.1580 -2.5002  0.2916
15280SOL    HW249433   5.085   5.868   0.403  0.5946 -0.7739 -1.2420
15281SOL     OW49434   3.620   9.992   4.805  0.2157 -0.6989 -0.3095
15281SOL    HW149435   3.589   9.931   4.738  0.5098  0.7256 -1.8128
15281SOL    HW249436   3.610  10.079   4.765 -0.6185  0.3096  1.9173
15282SOL     OW49437   6.027   1.051   2.997  0.0858 -0.7514 -0.0224
15282SOL    HW149438   5.949   1.086   2.955 -0.1804 -0.5882  0.5911
15282SOL    HW249439   6.088   1.125   3.001  0.5107 -1.0408 -1.0595
15283SOL     OW49440   7.910   6.181   5.310 -0.6612 -0.1447 -0.3335
15283SOL    HW149441   7.996   6.219   5.326 -0.0993 -1.1393 -0.8788
15283SOL    HW249442   7.854   6.255   5.290  0.6087  0.3593 -2.2950
15284SOL     OW49443   7.748   2.310   0.841  0.2578  0.2018  0.2052
15284SOL    HW149444   7.719   2.400   0.853  0.5468  0.5403 -1.4249
15284SOL    HW249445   7.691   2.275   0.773 -0.4567 -1.1577  1.4598
15285SOL     OW49446   6.677   5.460   9.069  0.0980  0.4511 -0.9035
15285SOL    HW149447   6.765   5.499   9.069  0.1765  0.3033  0.0694
15285SOL    HW249448   6.661   5.438   9.161 -0.6268 -0.2784 -1.1942
15286SOL     OW49449   5.960   9.177   7.582 -0.7436  0.6913  0.5707
15286SOL    HW149450   6.050   9.146   7.589 -0.8484 -0.0627 -0.9468
15286SOL    HW249451   5.966   9.258   7.532 -1.0950 -0.8585 -2.1720
15287SOL     OW49452   9.156   6.610   3.492 -0.4103 -0.2941 -0.4499
15287SOL    HW149453   9.128   6.554   3.420  0.9607 -2.9280  0.9017
15287SOL    HW249454   9.167   6.696   3.452 -1.4502 -1.2122 -2.9494
15288SOL     OW49455   0.689   3.315   1.904 -0.2489 -0.0338  0.0341
15288SOL    HW149456   0.618   3.378   1.893 -1.2587 -0.5216  2.8819
15288SOL    HW249457   0.644   3.231   1.918  1.0128 -1.0043 -1.4425
15289SOL     OW49458   8.646   4.097   0.717 -0.0743  0.2114  0.4063
15289SOL    HW149459   8.718   4.092   0.655 -0.3262 -2.1154  0.1957
15289SOL    HW249460   8.645   4.188   0.746  0.7747  1.1034 -2.1064
15290SOL     OW49461  10.685   8.700   9.438 -0.5197  0.6269  0.4856
15290SOL    HW149462  10.593   8.702   9.414 -0.6726  1.3077  1.0761
15290SOL    HW249463  10.724   8.774   9.390 -0.2080  0.1143 -0.0531
15291SOL     OW49464  10.104   1.220   9.017  0.1018 -0.2109 -0.3770
15291SOL    HW149465  10.128   1.307   9.047  1.3367 -0.5151 -0.4010
15291SOL    HW249466  10.173   1.163   9.052  0.4322 -0.8892 -2.0177
15292SOL     OW49467   2.973   7.922   9.953 -0.2804  0.5284 -0.0048
15292SOL    HW149468   2.943   7.834   9.975 -0.1140  1.0221  2.5797
15292SOL    HW249469   3.064   7.911   9.926 -0.2641 -0.1158  0.3018
15293SOL     OW49470  10.180   2.503   2.254  0.0970  0.2847 -0.0328
15293SOL    HW149471  10.120   2.524   2.325 -0.3872  1.3083 -0.7171
15293SOL    HW249472  10.264   2.541   2.281  0.4044 -0.9545  0.8230
15294SOL     OW49473   1.123  10.973   4.344  0.2640 -0.1244 -0.0622
15294SOL    HW149474   1.152  10.906   4.405 -1.1316 -1.6002 -0.9392
15294SOL    HW249475   1.174  10.956   4.264 -0.7501 -0.7748 -0.5914
15295SOL     OW49476   9.657   8.225   3.208  0.0972  0.3304 -0.6410
15295SOL    HW149477   9.665   8.141   3.252 -0.9509  0.5058 -0.0949
15295SOL    HW249478   9.722   8.221   3.138  0.2095 -0.8454 -0.4909
15296SOL     OW49479   9.740   1.184   5.705 -0.0892 -0.3328  0.6030
15296SOL    HW149480   9.789   1.267   5.708 -0.5953 -0.0455  1.0242
15296SOL    HW249481   9.650   1.210   5.688 -0.0925 -0.8708 -0.2979
15297SOL     OW49482   9.635   1.673   6.321  0.4916  0.1573  0.3764
15297SOL    HW149483   9.544   1.672   6.290  0.5151 -0.3725  0.3132
15297SOL    HW249484   9.683   1.625   6.255  0.8922  0.7893  0.2042
15298SOL     OW49485   7.727   0.433   4.291  0.1681 -0.0231 -0.0040
15298SOL    HW149486   7.678   0.490   4.350  2.5359  2.2309 -0.0558
15298SOL    HW249487   7.700   0.460   4.203  0.0733 -0.1310 -0.0079
15299SOL     OW49488  10.357   8.982   7.192  0.2045 -0.0024 -0.4578
15299SOL    HW149489  10.312   9.065   7.178  0.4706  0.2268  0.0154
15299SOL    HW249490  10.435   8.987   7.137  1.0066  0.7027  0.7056
15300SOL     OW49491  10.400   3.540   0.711 -0.0382 -0.7009 -0.5776
15300SOL    HW149492  10.401   3.506   0.800 -0.3552 -2.1443 -1.1030
15300SOL    HW249493  10.463   3.612   0.712 -0.1183 -0.6264  0.8236
15301SOL     OW49494   8.413  10.463   4.078 -0.5844 -0.3725  0.1651
15301SOL    HW149495   8.453  10.550   4.077 -1.7123  0.1649  0.2823
15301SOL    HW249496   8.349  10.467   4.149 -0.9635 -1.1569 -0.1202
15302SOL     OW49497   9.560   2.196  10.625 -0.3336  0.4206  0.3743
15302SOL    HW149498   9.550   2.262  10.556  0.6806  1.7903  1.4626
15302SOL    HW249499   9.471   2.172  10.648 -0.6944 -0.4428 -1.7176
15303SOL     OW49500   0.828   4.863  10.989 -0.2394  0.2563  0.7601
15303SOL    HW149501   0.847   4.830  10.901  0.4243 -0.5807  1.2129
15303SOL    HW249502   0.838   4.958  10.981  2.2601  0.0329  0.4810
15304SOL     OW49503  10.142   8.188   5.273 -0.0701  0.3815 -0.2869
15304SOL    HW149504  10.047   8.176   5.282 -0.1662  0.4291 -1.1079
15304SOL    HW249505  10.176   8.099   5.259  0.4964 -0.1705  3.5891
15305SOL     OW49506   7.069   2.526   8.392 -0.6550  0.1004 -0.1149
15305SOL    HW149507   7.110   2.557   8.473  1.8976 -3.2511  0.0945
15305SOL    HW249508   6.978   2.508   8.417  0.1374 -1.1616  2.2153
15306SOL     OW49509   2.405   2.486   2.230  0.0745 -0.0337  0.0553
15306SOL    HW149510   2.500   2.498   2.242 -0.0979  2.6620 -0.6139
15306SOL    HW249511   2.384   2.539   2.154 -1.6730 -2.4748 -1.2979
15307SOL     OW49512   9.031   2.546   7.634  0.2960  0.6423 -0.1129
15307SOL    HW149513   8.949   2.551   7.683 -1.1410 -1.1590 -2.1824
15307SOL    HW249514   9.085   2.616   7.672 -3.2859  4.1241 -0.7837
15308SOL     OW49515   4.617   6.748   2.631  0.2810 -0.0210  0.3785
15308SOL    HW149516   4.631   6.656   2.656  0.8879 -0.4922 -1.5408
15308SOL    HW249517   4.595   6.745   2.538  0.9602  1.8206  0.1115
15309SOL     OW49518   9.161   2.397   9.999  0.2078  0.1654  0.2026
15309SOL    HW149519   9.225   2.456   9.959 -0.1379  0.1239 -0.4098
15309SOL    HW249520   9.103   2.455  10.049  0.7468  0.1983  0.8164
15310SOL     OW49521   0.604   0.729   6.249 -0.0529 -0.3953 -0.2248
15310SOL    HW149522   0.532   0.685   6.295 -1.2043 -0.0224 -1.6025
15310SOL    HW249523   0.650   0.776   6.318 -1.1096 -0.6698  0.7150
15311SOL     OW49524   5.480   9.557   8.076 -0.2090 -0.5970  0.0421
15311SOL    HW149525   5.448   9.494   8.140  0.1827 -0.9741 -0.1221
15311SOL    HW249526   5.572   9.571   8.099  0.3411 -1.8192 -1.2542
15312SOL     OW49527   0.510   1.825   1.717 -0.0315  0.6336 -0.1452
15312SOL    HW149528   0.514   1.799   1.809  0.2019  0.9413 -0.0681
15312SOL    HW249529   0.531   1.745   1.669 -0.4073  0.4067  0.0586
15313SOL     OW49530   6.049   2.645   5.564  0.3026 -0.3886  0.4922
15313SOL    HW149531   6.076   2.568   5.514  0.5665  0.1472 -0.2150
15313SOL    HW249532   6.061   2.620   5.655 -0.3884 -1.4617  0.3073
15314SOL     OW49533   1.524  10.996   3.911  0.5983  0.3192 -0.3506
15314SOL    HW149534   1.553  11.032   3.995  1.1420 -0.7865 -0.0422
15314SOL    HW249535   1.435  11.029   3.900  0.2214 -0.1764  1.0572
15315SOL     OW49536   4.027   8.536   8.979 -0.0732 -0.3951  0.0029
15315SOL    HW149537   3.954   8.598   8.973  0.6267  0.2948 -3.7605
15315SOL    HW249538   3.991   8.453   8.949  0.0763 -0.6884  0.6314
15316SOL     OW49539   7.445   4.385   0.834  0.1451  0.1832 -0.1505
15316SOL    HW149540   7.411   4.331   0.763  0.9529 -0.0300 -0.3908
15316SOL    HW249541   7.395   4.358   0.911 -0.1028 -0.2429 -0.4570
15317SOL     OW49542   0.182   4.093   6.615  0.0738 -0.4726  0.1165
15317SOL    HW149543   0.182   4.002   6.585  2.0280 -1.2479  2.1850
15317SOL    HW249544   0.113   4.096   6.681  0.0412 -0.4746  0.0824
15318SOL     OW49545   6.252   8.843  10.495 -0.0091 -0.8224 -0.3575
15318SOL    HW149546   6.212   8.828  10.409  0.0111  1.1206 -0.7540
15318SOL    HW249547   6.332   8.791  10.494 -0.1331 -1.0209 -1.4292
15319SOL     OW49548   9.356  10.037   8.685 -0.3330  0.0574  0.2503
15319SOL    HW149549   9.412  10.040   8.763  2.6015 -3.6384 -1.3913
15319SOL    HW249550   9.408  10.078   8.616 -0.8965 -0.8166 -0.7188
15320SOL     OW49551   5.758   6.683   2.683 -0.2168 -0.3188 -0.8324
15320SOL    HW149552   5.688   6.744   2.708  0.6186 -0.2692  1.6173
15320SOL    HW249553   5.833   6.739   2.662  0.5264 -0.4062  1.3419
15321SOL     OW49554   9.214   3.766   7.051 -0.1504  0.1582 -0.0671
15321SOL    HW149555   9.147   3.743   7.116 -0.1163  0.8887  0.2487
15321SOL    HW249556   9.165   3.782   6.970 -0.2318 -0.4071 -0.1322
15322SOL     OW49557   7.572   7.134   3.293  0.3724 -0.2452 -0.5944
15322SOL    HW149558   7.653   7.185   3.293  0.2099  0.0236 -1.3603
15322SOL    HW249559   7.533   7.152   3.379  0.8759  0.0167 -0.4146
15323SOL     OW49560   0.101   9.132   2.247 -0.0135 -0.0214 -0.4704
15323SOL    HW149561   0.008   9.149   2.266 -0.2847  0.6188 -2.2318
15323SOL    HW249562   0.119   9.180   2.167  1.6925 -0.6756 -0.5270
15324SOL     OW49563   0.564   2.671   5.304 -0.0696  0.4411 -0.5364
15324SOL    HW149564   0.569   2.715   5.219  2.3481  0.8063 -0.2742
15324SOL    HW249565   0.539   2.581   5.283 -0.3864  0.7480 -1.5399
15325SOL     OW49566   4.044   9.863   1.626  0.1606  0.1921  0.1940
15325SOL    HW149567   4.061   9.958   1.632 -0.6507  0.3865 -0.4337
15325SOL    HW249568   4.126   9.823   1.655  1.1450  1.0882 -1.1952
15326SOL     OW49569   6.821   9.129   2.619  0.3721  0.2415 -0.1935
15326SOL    HW149570   6.824   9.159   2.528 -0.7954 -0.5398 -0.5016
15326SOL    HW249571   6.799   9.207   2.669 -0.1984  0.4245 -0.7186
15327SOL     OW49572  10.246  10.635   3.784  0.0769  0.2128  0.1249
15327SOL    HW149573  10.259  10.541   3.794  3.0797  0.4100 -1.0570
15327SOL    HW249574  10.305  10.675   3.848 -1.8708  1.3599  1.3022
15328SOL     OW49575   2.058   2.884  10.514  0.0730 -0.2626  0.1598
15328SOL    HW149576   2.133   2.853  10.464  0.7482  1.2078  0.2149
15328SOL    HW249577   2.006   2.805  10.532  1.9690 -1.4273  0.7672
15329SOL     OW49578   9.349   0.282   8.709 -0.1799 -0.2247  0.0458
15329SOL    HW149579   9.429   0.253   8.752  1.2375 -1.6323 -3.1925
15329SOL    HW249580   9.285   0.213   8.728  0.3341 -0.6811  0.1304
15330SOL     OW49581  10.251   8.426   5.342 -0.4589 -0.1383  0.4575
15330SOL    HW149582  10.225   8.427   5.434 -1.2361 -0.0767  0.2460
15330SOL    HW249583  10.222   8.341   5.309 -0.0037 -0.2441  0.3116
15331SOL     OW49584   4.309   6.737  10.009  0.4743  0.1038  0.6307
15331SOL    HW149585   4.403   6.725   9.994  0.3396  0.9827 -1.1608
15331SOL    HW249586   4.304   6.785  10.092  1.6259  0.3584  0.5748
15332SOL     OW49587  10.517   3.259   2.220 -0.5111 -0.0683  0.6360
15332SOL    HW149588  10.507   3.197   2.148  1.2766 -0.8644  1.0135
15332SOL    HW249589  10.588   3.317   2.193 -0.7363  0.4706  1.1770
15333SOL     OW49590   1.425   5.580   6.417  0.0383  0.1990  0.1211
15333SOL    HW149591   1.438   5.646   6.348  1.3456  0.5799  0.6984
15333SOL    HW249592   1.414   5.498   6.369 -1.0242  0.7350 -0.5881
15334SOL     OW49593   4.832   0.721   4.529  0.0172 -0.0735  0.0404
15334SOL    HW149594   4.742   0.715   4.562  0.3046 -1.7046  0.6101
15334SOL    HW249595   4.871   0.636   4.551  1.4661  0.3271 -0.8824
15335SOL     OW49596   0.066   5.845   8.685 -0.3085  0.2040  0.2780
15335SOL    HW149597   0.003   5.895   8.634 -2.0178 -0.0682  2.0054
15335SOL    HW249598   0.147   5.896   8.681 -0.5045  0.4549 -2.1685
15336SOL     OW49599  10.997  10.213   0.161 -0.3909 -0.2535  0.0425
15336SOL    HW149600  11.055  10.255   0.225  2.4148 -1.1774 -1.6747
15336SOL    HW249601  10.990  10.277   0.090  0.5280 -1.0109 -0.7730
15337SOL     OW49602   6.396   2.913  10.607 -0.2044 -0.3848  0.2643
15337SOL    HW149603   6.383   2.964  10.686  0.3649 -0.1567  0.2176
15337SOL    HW249604   6.317   2.927  10.555 -0.2275  0.1119  0.4335
15338SOL     OW49605   1.290   7.062   9.899 -0.1706  0.4651  0.3185
15338SOL    HW149606   1.339   7.143   9.909  0.8086 -0.0521 -0.0906
15338SOL    HW249607   1.336   6.999   9.955 -0.0348 -0.1548 -0.4511
15339SOL     OW49608   1.682  10.132   8.706  0.3843  0.0160  0.2286
15339SOL    HW149609   1.757  10.171   8.751  1.6484 -0.7043 -1.1968
15339SOL    HW249610   1.685  10.040   8.729  1.1955 -0.4156 -1.4603
15340SOL     OW49611   5.305   8.491   8.137  0.3708 -0.9894  0.3875
15340SOL    HW149612   5.292   8.396   8.135 -0.1873 -0.9200  0.4570
15340SOL    HW249613   5.217   8.526   8.155  1.0889 -0.6127  4.1204
15341SOL     OW49614   4.443   8.910   5.034  0.2187 -0.0581  0.3404
15341SOL    HW149615   4.440   8.998   4.996 -0.5560 -0.2631 -0.0789
15341SOL    HW249616   4.355   8.876   5.023  0.5395 -0.9318  0.4224
15342SOL     OW49617   8.147   7.638   3.337  0.0227 -0.3728  0.0149
15342SOL    HW149618   8.181   7.719   3.375 -0.2231 -0.4897  0.4857
15342SOL    HW249619   8.106   7.592   3.410 -2.9797  0.6995 -0.8350
15343SOL     OW49620   0.745   8.468   1.951  0.0413 -0.7192  0.8674
15343SOL    HW149621   0.746   8.372   1.952 -0.9180 -0.8574 -2.0760
15343SOL    HW249622   0.834   8.493   1.976 -0.0399 -2.2928  2.9370
15344SOL     OW49623  10.356   6.453   9.179  0.8011  0.9609 -0.1116
15344SOL    HW149624  10.332   6.454   9.086 -1.2989 -1.0914  0.3293
15344SOL    HW249625  10.400   6.537   9.193  0.1899  1.8030 -2.6962
15345SOL     OW49626   0.781   4.613   2.843 -0.2092 -0.1226 -0.1686
15345SOL    HW149627   0.783   4.652   2.755  1.1573  1.8588  0.6551
15345SOL    HW249628   0.729   4.534   2.833 -0.1755  0.0907 -2.7426
15346SOL     OW49629   6.494   9.889   5.196  0.2720  0.4645  0.3510
15346SOL    HW149630   6.436   9.875   5.121  0.0634 -1.2005  0.8026
15346SOL    HW249631   6.582   9.871   5.162  0.1800 -0.2623  0.4819
15347SOL     OW49632   3.039   8.384   9.488  0.3102 -0.5874  0.4114
15347SOL    HW149633   3.108   8.406   9.551 -0.5119  0.6022  0.9412
15347SOL    HW249634   2.957   8.403   9.534 -0.3204 -0.1551 -0.8379
15348SOL     OW49635   4.611   4.626   7.166  0.3040  0.3567  0.0030
15348SOL    HW149636   4.603   4.630   7.261 -1.1246 -0.9768 -0.0413
15348SOL    HW249637   4.646   4.712   7.142  0.8400  0.6613  1.7226
15349SOL     OW49638   2.318   0.366   3.516  0.2485 -0.4370  0.2134
15349SOL    HW149639   2.292   0.407   3.433 -1.1439  0.8703  1.2560
15349SOL    HW249640   2.314   0.436   3.580  2.4637 -1.1497  1.2252
15350SOL     OW49641   1.753   2.763   9.273 -0.6524 -0.0613 -0.0018
15350SOL    HW149642   1.710   2.817   9.339  0.3608 -0.3932  0.9694
15350SOL    HW249643   1.682   2.734   9.216 -1.4408  0.8817  0.4708
15351SOL     OW49644  10.966  10.107   2.960  0.1717  0.0630 -0.1435
15351SOL    HW149645  10.897  10.108   3.026  0.3576 -0.2020  0.0598
15351SOL    HW249646  11.045  10.130   3.009  0.4068 -0.6778 -0.1527
15352SOL     OW49647   9.103   9.659  10.457 -0.2107 -0.3466 -0.2543
15352SOL    HW149648   9.098   9.616  10.543 -0.6137 -2.6923 -1.3762
15352SOL    HW249649   9.090   9.588  10.394  1.2268  1.1177 -2.3125
15353SOL     OW49650   9.298   9.843   9.357 -0.0475 -0.0393  0.1548
15353SOL    HW149651   9.346   9.810   9.433  0.9269 -0.1830 -0.5051
15353SOL    HW249652   9.342   9.925   9.334 -1.1028  0.6293  0.4743
15354SOL     OW49653   3.223   3.686   1.904  0.6154 -0.3238  0.0994
15354SOL    HW149654   3.252   3.721   1.819  1.1822  0.7554  0.7068
15354SOL    HW249655   3.128   3.702   1.905  1.0070  2.7457  0.9445
15355SOL     OW49656   9.421   9.427   7.716 -0.5807  0.0731  0.1690
15355SOL    HW149657   9.424   9.343   7.671  0.5166 -0.6018  1.4448
15355SOL    HW249658   9.332   9.431   7.752 -1.1368  0.1703 -1.1318
15356SOL     OW49659   6.552   8.539   2.036 -0.0556  0.1803  0.4632
15356SOL    HW149660   6.536   8.571   2.125  0.6707 -0.7172  0.9259
15356SOL    HW249661   6.607   8.606   1.996  0.6363  0.0107  1.1025
15357SOL     OW49662   0.943   5.575   1.378  0.5967 -0.2566  0.2881
15357SOL    HW149663   0.936   5.670   1.386 -0.7293 -0.3733  0.8112
15357SOL    HW249664   0.912   5.556   1.289  1.4776 -0.1627 -0.0506
15358SOL     OW49665   9.485   3.071   4.118  0.0896  0.0469  0.4872
15358SOL    HW149666   9.531   3.017   4.181 -0.6951 -0.1309  0.9170
15358SOL    HW249667   9.428   3.010   4.071 -0.6378  0.4602  0.8255
15359SOL     OW49668   9.122   8.932   7.593  0.0803  0.0666 -0.3160
15359SOL    HW149669   9.189   8.906   7.529 -0.1797 -2.5298  0.3540
15359SOL    HW249670   9.165   8.922   7.678 -0.7923 -0.4928  0.0715
15360SOL     OW49671   8.286   6.576   4.438  0.2746 -0.5887 -0.3580
15360SOL    HW149672   8.260   6.505   4.380 -1.7316  0.3068 -0.6275
15360SOL    HW249673   8.256   6.656   4.395  3.4948  0.6399 -0.6516
15361SOL     OW49674   1.510   4.686   8.907  0.8324  0.4800  0.3671
15361SOL    HW149675   1.425   4.652   8.880  0.2845  1.1377  1.2048
15361SOL    HW249676   1.526   4.644   8.992  1.5248  0.0666  0.0361
15362SOL     OW49677   9.406   8.578   4.239  0.2490  0.4625  0.0909
15362SOL    HW149678   9.476   8.574   4.173 -0.9478 -2.2027 -1.1530
15362SOL    HW249679   9.406   8.491   4.279 -1.8031  0.6506  0.6137
15363SOL     OW49680   7.851   0.124  10.776  0.3251 -0.1982  0.3972
15363SOL    HW149681   7.923   0.172  10.734  0.7478 -1.7742 -0.7804
15363SOL    HW249682   7.893   0.049  10.817 -0.3847  0.1246  1.7931
15364SOL     OW49683   5.913   7.909   1.265  0.0224 -0.1028  0.2639
15364SOL    HW149684   5.885   7.827   1.225  0.8091 -0.5345  0.5879
15364SOL    HW249685   5.999   7.890   1.303 -0.6110  0.3122  2.0225
15365SOL     OW49686  11.074   2.511   0.512  0.4654 -0.2958  0.4125
15365SOL    HW149687  11.115   2.509   0.598  1.6108 -1.0070 -0.1315
15365SOL    HW249688  11.067   2.419   0.486 -0.2093 -0.1089 -0.0964
15366SOL     OW49689   0.018   5.013   0.973 -0.3152  0.2221 -0.3030
15366SOL    HW149690   0.060   5.077   1.031 -0.6923  0.6301 -0.4748
15366SOL    HW249691  -0.002   4.939   1.030  0.4229  0.1169 -0.1704
15367SOL     OW49692   4.454   3.744   7.742  0.2222 -0.4974 -0.0430
15367SOL    HW149693   4.491   3.693   7.814  2.4786  0.1786 -0.6417
15367SOL    HW249694   4.365   3.712   7.734  0.1722 -1.2273  2.4579
15368SOL     OW49695  10.330   3.931   8.814 -0.1496 -0.9654 -0.3292
15368SOL    HW149696  10.313   4.025   8.823  0.8350 -0.7983 -0.1228
15368SOL    HW249697  10.245   3.890   8.828 -0.3301 -0.1883  0.9875
15369SOL     OW49698  10.471   1.975   4.408  0.4725  0.3772  0.4268
15369SOL    HW149699  10.400   1.918   4.436  0.2084  0.0333 -0.8766
15369SOL    HW249700  10.439   2.063   4.427 -1.3068  0.3884 -2.1384
15370SOL     OW49701   4.403   8.693   8.215 -0.1768  0.1071  1.0251
15370SOL    HW149702   4.376   8.609   8.178  1.0252  0.0692  0.1728
15370SOL    HW249703   4.331   8.718   8.274 -1.4299 -0.5960 -0.1413
15371SOL     OW49704   3.905   3.265   4.127  0.3625 -0.4416  0.3220
15371SOL    HW149705   3.884   3.286   4.036  1.4934 -1.5363 -0.2191
15371SOL    HW249706   3.850   3.190   4.148  0.9838 -0.9610  0.1247
15372SOL     OW49707   2.922   1.389   0.232 -0.1663  0.3591  0.3678
15372SOL    HW149708   2.876   1.390   0.316 -1.1923 -0.5493 -0.1620
15372SOL    HW249709   2.988   1.321   0.241 -0.5108  0.0141  0.3331
15373SOL     OW49710   6.993   7.604   0.494 -0.0751 -0.1884 -0.6330
15373SOL    HW149711   7.053   7.651   0.552  0.6591 -1.9747  0.1443
15373SOL    HW249712   7.043   7.593   0.413 -0.0859  0.0133 -0.6671
15374SOL     OW49713   8.757   7.388   4.300 -0.1540  0.1326 -0.5751
15374SOL    HW149714   8.698   7.430   4.238 -2.0144  3.4852  3.0154
15374SOL    HW249715   8.833   7.445   4.304  0.0607 -0.1873  0.0419
15375SOL     OW49716   5.449   4.202   1.879 -0.2191  0.3568 -0.4884
15375SOL    HW149717   5.430   4.164   1.793 -1.3275 -0.2735  0.0084
15375SOL    HW249718   5.458   4.127   1.937 -0.3261  0.7978  0.1087
15376SOL     OW49719   7.801   5.559   3.631 -0.0670  0.4418 -0.1925
15376SOL    HW149720   7.730   5.597   3.683 -1.5401 -0.6838 -1.2699
15376SOL    HW249721   7.804   5.613   3.552  1.1970  1.2797  0.4057
15377SOL     OW49722   4.717  10.609   1.330 -0.3275 -0.1221 -0.4549
15377SOL    HW149723   4.699  10.603   1.424  1.4717 -1.7751 -0.1433
15377SOL    HW249724   4.663  10.681   1.299 -2.0135 -0.4266  1.5872
15378SOL     OW49725   6.701  10.512   3.910 -0.2024 -0.5021 -0.1088
15378SOL    HW149726   6.612  10.540   3.889  0.4285 -0.1898 -2.5571
15378SOL    HW249727   6.702  10.419   3.889 -0.0015 -0.5719  0.1971
15379SOL     OW49728   6.711   1.507   6.124 -0.6636  0.0702 -0.3224
15379SOL    HW149729   6.679   1.561   6.197  3.1150 -0.4753  1.9946
15379SOL    HW249730   6.656   1.429   6.127 -2.6129  1.3720 -0.1478
15380SOL     OW49731   5.056   8.579   8.260 -0.2360  0.1272 -0.1151
15380SOL    HW149732   5.015   8.591   8.175  0.0321  1.7093 -0.0397
15380SOL    HW249733   4.990   8.531   8.311  0.0015 -1.7704 -1.4771
15381SOL     OW49734   4.558   7.940   0.831 -0.3883 -0.0436 -1.2304
15381SOL    HW149735   4.639   7.977   0.797  1.1767 -0.7628  1.4190
15381SOL    HW249736   4.504   8.016   0.853  0.9550  0.5869  0.0303
15382SOL     OW49737   2.542   6.048  10.189 -0.4484  0.2375 -0.5480
15382SOL    HW149738   2.548   6.005  10.104 -0.1803  1.3663 -1.1151
15382SOL    HW249739   2.592   5.991  10.248 -0.2133 -0.2966 -1.2418
15383SOL     OW49740   8.647   7.662   4.370 -0.0304  0.7288 -0.3834
15383SOL    HW149741   8.553   7.677   4.380 -0.1464 -0.1853  0.0519
15383SOL    HW249742   8.656   7.626   4.282 -0.2740 -0.4740  0.0683
15384SOL     OW49743   3.682  10.070   3.834  0.2307 -0.4085 -0.4359
15384SOL    HW149744   3.752  10.048   3.772  0.8256  2.2739 -0.8436
15384SOL    HW249745   3.700  10.015   3.910  0.3429 -2.7239 -2.0252
15385SOL     OW49746   9.655   7.690   9.169  0.1033  0.1296 -0.6918
15385SOL    HW149747   9.728   7.742   9.201  1.4407 -1.2693 -1.3703
15385SOL    HW249748   9.577   7.734   9.204  1.0008  3.5044 -2.4784
15386SOL     OW49749   2.590   4.623   9.109  0.7698  0.1342 -0.8967
15386SOL    HW149750   2.503   4.639   9.144  1.1172  2.0792 -0.7919
15386SOL    HW249751   2.630   4.560   9.169 -0.3496 -0.3484 -0.6428
15387SOL     OW49752   4.660   8.220   2.534  0.1688 -0.0807  0.2743
15387SOL    HW149753   4.607   8.144   2.559  0.3881 -1.1134 -2.1284
15387SOL    HW249754   4.617   8.294   2.577 -1.6654 -1.2060  0.5137
15388SOL     OW49755   7.038   5.884   9.739  0.3089 -0.0427  0.1373
15388SOL    HW149756   7.130   5.872   9.763  0.0460 -1.5952  0.4535
15388SOL    HW249757   7.016   5.806   9.689 -1.0768 -0.1127  0.8119
15389SOL     OW49758   8.717   9.983   0.626  0.5871  0.1764  0.3632
15389SOL    HW149759   8.703   9.899   0.670  0.8880 -0.3908 -0.5698
15389SOL    HW249760   8.649   9.985   0.558  1.0270  0.3390 -0.0834
15390SOL     OW49761   8.264   0.858   4.362 -0.7482 -0.6042 -0.9386
15390SOL    HW149762   8.285   0.939   4.315 -0.0952 -0.2179 -0.0138
15390SOL    HW249763   8.173   0.869   4.389  0.1892  1.2628  1.8834
15391SOL     OW49764   1.744   5.603   2.436  0.0305 -0.4693  0.1968
15391SOL    HW149765   1.723   5.685   2.391 -1.5983 -0.0335  1.6136
15391SOL    HW249766   1.764   5.541   2.366 -1.6968  0.3511 -1.1052
15392SOL     OW49767   8.432   9.577   9.227  0.0736  0.0458 -0.4113
15392SOL    HW149768   8.513   9.539   9.261 -0.0962 -0.5506 -0.6809
15392SOL    HW249769   8.390   9.507   9.178 -1.4763 -0.2107  1.1745
15393SOL     OW49770   9.719   9.322  10.801 -0.1206 -0.1745 -0.4886
15393SOL    HW149771   9.714   9.237  10.844 -1.7862 -0.5856 -1.4227
15393SOL    HW249772   9.752   9.381  10.868  2.2425 -1.7397 -0.1453
15394SOL     OW49773   5.876   6.784   1.949  0.6600  0.3265 -0.6087
15394SOL    HW149774   5.867   6.874   1.917  1.1092  0.7356  0.3829
15394SOL    HW249775   5.787   6.750   1.948 -0.5641  2.5829  4.0391
15395SOL     OW49776   3.528  10.999   9.240 -0.0318 -0.0648 -1.1889
15395SOL    HW149777   3.486  11.053   9.172 -0.7201 -0.3276 -0.9859
15395SOL    HW249778   3.603  11.051   9.269 -0.0291  0.2761 -1.7899
15396SOL     OW49779   8.634   4.774   2.900 -0.3405 -0.1012 -0.5290
15396SOL    HW149780   8.604   4.862   2.876 -0.4637  0.1850  0.5982
15396SOL    HW249781   8.657   4.782   2.993  0.3347 -1.0844 -0.6006
15397SOL     OW49782   0.179   7.216   1.148 -0.0486  0.3413  0.0008
15397SOL    HW149783   0.260   7.166   1.153 -0.0027  0.4532  0.3938
15397SOL    HW249784   0.129   7.174   1.077  2.0000  2.6786 -3.0877
15398SOL     OW49785   4.248   4.742   5.482  0.4797  0.9047 -0.4432
15398SOL    HW149786   4.196   4.733   5.561 -0.3358  0.0542 -1.0683
15398SOL    HW249787   4.335   4.711   5.507  0.8851  2.8115  0.7479
15399SOL     OW49788   6.679   6.531   0.514 -0.3072  0.2430  0.0290
15399SOL    HW149789   6.676   6.436   0.501 -1.0913  0.4233 -1.2650
15399SOL    HW249790   6.772   6.551   0.517 -0.1100 -0.3720 -1.3832
15400SOL     OW49791   0.348   3.332   1.268 -0.6559  0.4497  0.2560
15400SOL    HW149792   0.388   3.405   1.221 -1.4556  0.7517  0.0096
15400SOL    HW249793   0.407   3.314   1.341 -0.1226  0.9211 -0.0516
15401SOL     OW49794   0.506  10.664   2.131  0.3950  0.3656  0.5471
15401SOL    HW149795   0.486  10.710   2.212 -1.5131 -0.0257  0.3558
15401SOL    HW249796   0.586  10.615   2.149  0.1928  0.5685  2.0625
15402SOL     OW49797  10.206   8.469  10.607 -0.4035 -0.0783  0.1506
15402SOL    HW149798  10.129   8.439  10.559  0.1104  0.0874 -0.8028
15402SOL    HW249799  10.242   8.389  10.646  0.8150 -0.7507 -2.1676
15403SOL     OW49800   7.436   2.786   8.160 -0.0847  0.2993 -0.1779
15403SOL    HW149801   7.482   2.780   8.076 -1.2492 -1.3841 -0.7262
15403SOL    HW249802   7.472   2.715   8.212  0.6513  1.3526  0.8009
15404SOL     OW49803   6.373   7.331  10.631  0.0633  0.0972 -0.1545
15404SOL    HW149804   6.430   7.384  10.575 -0.1122  1.0042  0.5024
15404SOL    HW249805   6.284   7.359  10.610 -0.2245 -1.5894 -1.4597
15405SOL     OW49806   1.228   6.281   2.224  0.7217  0.3396  0.4442
15405SOL    HW149807   1.227   6.294   2.319  0.6494 -2.2430  0.8589
15405SOL    HW249808   1.136   6.287   2.198  0.5476 -0.5654  0.8177
15406SOL     OW49809   2.146   7.082   2.218 -0.2318  0.3436  0.2838
15406SOL    HW149810   2.194   7.159   2.186  1.7150 -0.2744  1.5450
15406SOL    HW249811   2.102   7.111   2.297  0.5653  0.1768  0.8018
15407SOL     OW49812   5.608   4.400   6.108 -0.1116  0.5089 -0.4525
15407SOL    HW149813   5.654   4.323   6.140  2.1713  2.0265  0.2193
15407SOL    HW249814   5.629   4.403   6.014  0.9329  0.9860 -0.2227
15408SOL     OW49815   6.864   3.903   7.751 -0.1672  0.5773 -0.0394
15408SOL    HW149816   6.882   3.962   7.824 -1.1705  0.6370  0.1638
15408SOL    HW249817   6.783   3.858   7.774  0.4396 -0.7334 -0.2949
15409SOL     OW49818   2.281   5.140   0.420 -0.6416  0.5903 -0.0031
15409SOL    HW149819   2.330   5.165   0.342 -1.0115 -2.3763 -1.3039
15409SOL    HW249820   2.347   5.099   0.477 -1.0981 -1.0642 -0.6325
15410SOL     OW49821   5.484   4.635   0.231  0.2597  0.0686  0.4419
15410SOL    HW149822   5.560   4.651   0.174 -0.8414 -2.0173 -1.7933
15410SOL    HW249823   5.467   4.719   0.273  2.8583  0.9700 -0.1482
15411SOL     OW49824   1.011   5.304   1.714  0.4457  0.1738 -0.1457
15411SOL    HW149825   1.043   5.377   1.766 -0.3634  1.4999 -1.4340
15411SOL    HW249826   0.971   5.245   1.777 -1.4320  2.2316  0.7024
15412SOL     OW49827   8.879   8.760   9.077 -0.1061  0.1880 -0.3253
15412SOL    HW149828   8.818   8.688   9.094  1.6801 -1.4099 -0.4031
15412SOL    HW249829   8.941   8.725   9.013  0.7352  1.8470 -0.4688
15413SOL     OW49830   5.152  10.591   0.352  0.1443 -0.5530 -0.6196
15413SOL    HW149831   5.129  10.500   0.337 -0.8534 -0.0789 -2.2476
15413SOL    HW249832   5.233  10.604   0.302  1.0876 -0.8483  0.7428
15414SOL     OW49833   0.955   1.757  10.427  0.1632 -0.1245  0.3309
15414SOL    HW149834   0.983   1.762  10.518 -0.1910  0.0902  0.4293
15414SOL    HW249835   1.036   1.748  10.377  0.4543  1.0765  0.5570
15415SOL     OW49836   8.368   6.331   1.647 -0.7009  0.1868 -0.9444
15415SOL    HW149837   8.456   6.293   1.640 -1.2148 -1.2891  0.0886
15415SOL    HW249838   8.367   6.401   1.582  1.7623  1.2766  0.0770
15416SOL     OW49839   9.576   1.296   5.221  0.0581  0.1346 -0.1156
15416SOL    HW149840   9.605   1.226   5.163  1.2590  1.3330 -1.0403
15416SOL    HW249841   9.522   1.352   5.165 -0.1778  0.4092  0.3769
15417SOL     OW49842   9.642   7.659   3.225 -0.1110  0.2202  0.3814
15417SOL    HW149843   9.588   7.737   3.210  0.9379  0.6415 -1.4762
15417SOL    HW249844   9.729   7.684   3.194  0.4918 -1.3561  0.7423
15418SOL     OW49845  10.959   1.219   9.154 -0.0504 -0.2239  1.0070
15418SOL    HW149846  10.881   1.186   9.109 -0.7544  1.4271  0.9794
15418SOL    HW249847  11.020   1.240   9.083 -0.9113  1.7495  0.7969
15419SOL     OW49848   7.842   6.964   8.408 -0.5717  0.0939  0.1810
15419SOL    HW149849   7.904   6.906   8.452 -0.5403 -0.6602 -0.8138
15419SOL    HW249850   7.773   6.905   8.376 -0.0052  0.4442 -1.7663
15420SOL     OW49851   3.288  10.391   5.957  0.5529  0.2044  0.0246
15420SOL    HW149852   3.224  10.414   6.024  1.3002 -0.2830  0.9293
15420SOL    HW249853   3.238  10.339   5.894 -0.0996  0.4243  0.3494
15421SOL     OW49854   5.571   4.574   5.803 -0.2331  0.1976 -0.3300
15421SOL    HW149855   5.619   4.491   5.806 -0.1498  0.2680  0.2968
15421SOL    HW249856   5.493   4.558   5.856  0.3305  0.8625  0.7175
15422SOL     OW49857   1.978   8.886   2.850  0.7064 -0.4156  0.0828
15422SOL    HW149858   2.012   8.899   2.762  0.3037  0.0004 -0.0182
15422SOL    HW249859   1.971   8.974   2.886  1.6806 -0.6470  0.8491
15423SOL     OW49860  10.688   0.332   3.350 -0.4103  0.3036 -0.4878
15423SOL    HW149861  10.684   0.244   3.388 -0.9671  0.7157  0.4289
15423SOL    HW249862  10.709   0.317   3.257 -0.8158 -0.8119 -0.4095
15424SOL     OW49863   2.119   7.291   5.026 -0.0647  0.3275  0.0862
15424SOL    HW149864   2.211   7.270   5.013  0.0076  1.3526 -1.2693
15424SOL    HW249865   2.102   7.268   5.118  1.4113 -0.2663  0.2390
15425SOL     OW49866   3.474  10.650   7.992  0.4940 -0.2404  0.1991
15425SOL    HW149867   3.427  10.732   8.000  0.0490 -0.5860  1.3318
15425SOL    HW249868   3.436  10.607   7.915 -0.2150  0.0059  0.4145
15426SOL     OW49869   7.026   6.111   9.551  0.1272  0.7118  0.0527
15426SOL    HW149870   7.099   6.172   9.557 -0.0970  1.2372 -1.9037
15426SOL    HW249871   7.038   6.067   9.467 -0.8101 -0.5298  0.5283
15427SOL     OW49872   1.620   0.524   0.273  0.5241  0.4459  0.3498
15427SOL    HW149873   1.660   0.534   0.187  0.4299  2.1742  0.4772
15427SOL    HW249874   1.641   0.605   0.319  1.3248 -0.7992  2.2992
15428SOL     OW49875   5.495   4.003   5.236 -0.1272 -0.3995 -0.3089
15428SOL    HW149876   5.447   4.074   5.193  0.0092 -0.1472 -0.0479
15428SOL    HW249877   5.582   4.039   5.252  0.0779 -0.7787 -0.5711
15429SOL     OW49878   1.060  10.550   8.466  0.0885 -0.3851 -0.1406
15429SOL    HW149879   1.007  10.619   8.425  0.3458  0.5161  0.9961
15429SOL    HW249880   1.077  10.488   8.395 -0.1094  0.7415 -1.2149
15430SOL     OW49881   0.138   4.272   5.192  0.1999  0.4859  0.0389
15430SOL    HW149882   0.210   4.261   5.254 -0.4331 -0.1786  0.6828
15430SOL    HW249883   0.101   4.358   5.213 -0.1516  0.1694  0.7603
15431SOL     OW49884   7.253   4.405   2.329 -0.1626 -0.2654  0.2808
15431SOL    HW149885   7.192   4.351   2.380 -0.4608 -0.7883 -0.6036
15431SOL    HW249886   7.203   4.429   2.250  0.9589 -1.2444 -0.7646
15432SOL     OW49887   8.882   9.015   9.755 -0.0017 -0.1015 -0.1297
15432SOL    HW149888   8.926   8.964   9.688  0.3890 -1.4486  1.0880
15432SOL    HW249889   8.902   8.969   9.837 -0.4242  1.5013  0.9133
15433SOL     OW49890   6.218   7.820   7.655 -0.0529 -0.2538 -0.1318
15433SOL    HW149891   6.252   7.812   7.744 -0.6362  0.4118  0.1591
15433SOL    HW249892   6.248   7.740   7.611  1.6397  0.1810  0.1733
15434SOL     OW49893   7.184   8.955   5.231  0.1995  0.0892 -0.5136
15434SOL    HW149894   7.280   8.953   5.235  0.1288 -1.4764  1.9731
15434SOL    HW249895   7.157   8.863   5.232 -1.3629  0.5071 -0.9777
15435SOL     OW49896   0.247   1.897   2.565 -0.1394 -0.3336  0.0108
15435SOL    HW149897   0.203   1.870   2.485 -1.0833  0.5203  0.2181
15435SOL    HW249898   0.340   1.905   2.540 -0.7126  2.4534 -1.7589
15436SOL     OW49899   2.843   5.174   8.495  0.7172  0.0028  0.0606
15436SOL    HW149900   2.758   5.204   8.527  0.6978 -0.9339  0.9328
15436SOL    HW249901   2.834   5.079   8.487  1.8259 -0.1696  0.6307
15437SOL     OW49902   1.799   9.124   0.748  0.3123  0.3966 -0.2941
15437SOL    HW149903   1.725   9.133   0.808  1.9685 -0.1136  1.9482
15437SOL    HW249904   1.785   9.039   0.705 -0.4335  0.3176  0.0935
15438SOL     OW49905   9.081   3.826   4.158 -0.1187  0.2396 -0.2273
15438SOL    HW149906   9.089   3.747   4.211 -0.3663  1.0333  1.0389
15438SOL    HW249907   8.993   3.822   4.121  0.3888 -0.7862 -1.3931
15439SOL     OW49908   8.549   3.411   7.574 -0.1648 -0.6830 -0.2385
15439SOL    HW149909   8.623   3.379   7.625 -0.1988  0.3611  0.5108
15439SOL    HW249910   8.488   3.446   7.640 -1.1077 -1.0947 -0.8724
15440SOL     OW49911   2.544   2.558   6.254  0.1874 -0.3231 -0.4867
15440SOL    HW149912   2.535   2.494   6.184 -0.1695 -2.7176  1.5948
15440SOL    HW249913   2.639   2.561   6.271  0.3466  0.7798 -1.4753
15441SOL     OW49914   5.583   2.910   5.246 -0.4167  0.3294 -0.8602
15441SOL    HW149915   5.675   2.933   5.259 -0.5186  0.6781 -0.7290
15441SOL    HW249916   5.539   2.995   5.240 -0.7768  0.1628 -0.5888
15442SOL     OW49917   3.514   0.303   2.988  0.3566  0.2946 -0.0491
15442SOL    HW149918   3.609   0.295   2.996  0.4769  2.5153  1.8987
15442SOL    HW249919   3.478   0.233   3.042  0.7633 -1.5318 -1.9942
15443SOL     OW49920   5.633   0.188   4.846 -0.2502 -0.1446 -0.7856
15443SOL    HW149921   5.655   0.267   4.798 -0.2612 -0.4268 -1.2635
15443SOL    HW249922   5.576   0.138   4.786 -0.3071 -0.4765 -0.4636
15444SOL     OW49923   8.661   4.061   6.019  0.5687  0.3631  0.1793
15444SOL    HW149924   8.621   4.076   6.104  0.4052  1.0607 -0.0136
15444SOL    HW249925   8.591   4.079   5.956  0.0667 -2.1384 -0.0736
15445SOL     OW49926   4.763   1.207   6.092 -0.0809 -0.0521  0.3212
15445SOL    HW149927   4.685   1.261   6.080 -1.1378 -1.5969  0.0804
15445SOL    HW249928   4.810   1.215   6.010 -0.3565  0.2818  0.1911
15446SOL     OW49929   6.779   0.658   2.645  0.0072  0.0094  0.5819
15446SOL    HW149930   6.765   0.735   2.700  0.4201 -0.8752  1.9969
15446SOL    HW249931   6.820   0.594   2.704 -2.5082 -2.1709  0.1596
15447SOL     OW49932   4.967   7.279   7.706  0.2928  0.5478 -0.5111
15447SOL    HW149933   5.054   7.244   7.686 -0.3603 -1.5112  0.0206
15447SOL    HW249934   4.978   7.323   7.791  1.0962  1.5541 -1.1141
15448SOL     OW49935   0.987  10.324   9.473  0.1912 -0.0160 -0.2612
15448SOL    HW149936   0.953  10.265   9.406 -0.6264  2.2841 -2.0204
15448SOL    HW249937   0.913  10.336   9.533 -0.4407  0.9443 -1.1898
15449SOL     OW49938  10.532   1.542   0.336  0.2313 -0.3721 -0.2080
15449SOL    HW149939  10.616   1.556   0.380 -0.0173  0.0248  0.1346
15449SOL    HW249940  10.475   1.505   0.403 -0.4396  1.1300  0.0901
15450SOL     OW49941   9.383  10.192   0.253  0.3178 -0.3691  0.1032
15450SOL    HW149942   9.359  10.158   0.339 -0.6798 -2.4087 -0.8997
15450SOL    HW249943   9.299  10.207   0.209  0.8119  0.6530 -0.5201
15451SOL     OW49944   9.269   3.727   4.405 -0.0936  0.1935  0.0659
15451SOL    HW149945   9.323   3.726   4.484 -0.3742  2.2649  0.3426
15451SOL    HW249946   9.198   3.787   4.426  0.3141  1.5235 -2.0603
15452SOL     OW49947   5.607   0.452   7.751 -0.4221  0.0685 -0.2100
15452SOL    HW149948   5.556   0.436   7.830  0.7266  0.9603  0.7672
15452SOL    HW249949   5.550   0.503   7.695 -0.9357  0.2556  0.4679
15453SOL     OW49950   7.779   8.198   7.532 -0.0561  0.8278 -0.2692
15453SOL    HW149951   7.873   8.178   7.525 -0.7688 -3.0211 -0.8062
15453SOL    HW249952   7.764   8.265   7.465  1.7290 -1.1161 -2.7977
15454SOL     OW49953   9.537   8.736   9.261 -0.4534 -0.4725 -0.1495
15454SOL    HW149954   9.515   8.813   9.313 -0.1602 -1.0099  0.8010
15454SOL    HW249955   9.465   8.727   9.199 -0.6591  0.3639 -0.0407
15455SOL     OW49956   4.199  10.776   3.828  0.2281 -0.7580  0.0333
15455SOL    HW149957   4.243  10.698   3.862  0.8666  0.3249  1.8888
15455SOL    HW249958   4.111  10.771   3.864  0.3838 -0.4566  0.4666
15456SOL     OW49959   6.189   6.527   2.527 -0.4207  0.4635  0.0629
15456SOL    HW149960   6.158   6.444   2.566 -0.0482 -0.8766 -2.3267
15456SOL    HW249961   6.117   6.554   2.470 -0.0047  1.1357 -0.1439
15457SOL     OW49962  10.315   5.336   9.111 -0.4097 -0.6874  0.4384
15457SOL    HW149963  10.300   5.406   9.175 -2.0708 -1.4168  0.9074
15457SOL    HW249964  10.337   5.382   9.030 -0.3845  0.3430  1.0118
15458SOL     OW49965   8.301   8.007   5.683 -0.0596  0.1552  0.7359
15458SOL    HW149966   8.243   8.079   5.657  0.7957  0.9604  1.0330
15458SOL    HW249967   8.241   7.935   5.702 -0.9402  0.8187  0.5697
15459SOL     OW49968   6.650   7.595   9.644  0.1258 -0.6056  0.2232
15459SOL    HW149969   6.731   7.549   9.623  0.5388  0.1802  0.0399
15459SOL    HW249970   6.647   7.668   9.582 -0.6642 -0.5590  0.3044
15460SOL     OW49971  10.902   7.623   4.352 -0.6217  0.1743  0.0320
15460SOL    HW149972  10.961   7.555   4.383 -1.0262  0.2134  0.9077
15460SOL    HW249973  10.855   7.583   4.279 -1.3858 -0.7404  1.0059
15461SOL     OW49974   7.774   1.866  10.156 -0.2659 -0.6384  0.9499
15461SOL    HW149975   7.734   1.881  10.071 -0.5523  1.9743  1.4620
15461SOL    HW249976   7.732   1.786  10.189 -1.4669 -0.6779 -0.5711
15462SOL     OW49977   0.817   1.312   7.100 -0.3975 -0.0527  0.0996
15462SOL    HW149978   0.853   1.225   7.119 -0.9998 -0.1212  1.0182
15462SOL    HW249979   0.851   1.367   7.170  1.4919  0.9200 -1.4832
15463SOL     OW49980   1.639   3.703   2.673  0.2029 -0.2503 -0.3285
15463SOL    HW149981   1.574   3.692   2.605 -0.7199  0.7021  0.3629
15463SOL    HW249982   1.673   3.792   2.661 -0.5131  0.2201  0.8639
15464SOL     OW49983  10.756   4.784  10.926 -0.4865 -0.2474  0.0135
15464SOL    HW149984  10.700   4.761  11.000  0.7610 -0.7747  0.8170
15464SOL    HW249985  10.761   4.879  10.928 -3.0613  0.0080 -1.3817
15465SOL     OW49986   2.241  11.009   3.490  0.0417 -0.7793  0.5205
15465SOL    HW149987   2.239  11.066   3.413  0.8401 -0.7444  0.5152
15465SOL    HW249988   2.155  10.967   3.490 -0.8064  0.8441  0.8553
15466SOL     OW49989   7.467   5.485   3.117 -0.1618  0.3462  0.5900
15466SOL    HW149990   7.466   5.466   3.211  0.3663 -0.5439  0.4283
15466SOL    HW249991   7.544   5.542   3.105 -0.7803  1.2593  0.8244
15467SOL     OW49992   2.044   2.307  10.810  0.1445 -0.0939  0.2125
15467SOL    HW149993   2.013   2.240  10.871 -1.0343  0.7720  0.6035
15467SOL    HW249994   1.999   2.387  10.837  0.3013  0.5136 -1.2277
15468SOL     OW49995  10.121  10.302   6.310 -0.1426  0.3143  0.2150
15468SOL    HW149996  10.041  10.338   6.346 -1.0066 -0.1815 -1.1487
15468SOL    HW249997  10.106  10.207   6.308 -0.3016  0.3509 -1.7885
15469SOL     OW49998   2.050   3.510   8.829  0.0011 -0.2262  0.2897
15469SOL    HW149999   1.978   3.483   8.772 -0.7641  3.0146 -0.4733
15469SOL    HW250000   2.120   3.534   8.770  0.1290  0.7379  0.8181
15470SOL     OW50001  11.071   3.756   2.894 -0.2651  0.6808 -0.1502
15470SOL    HW150002  10.985   3.798   2.892 -1.5525 -1.6942  1.1175
15470SOL    HW250003  11.084   3.732   2.985  0.8843 -0.6100 -0.6166
15471SOL     OW50004  10.826  10.958   1.582  0.7716  0.7045  0.5222
15471SOL    HW150005  10.915  10.922   1.588  1.2895  2.0141  1.1053
15471SOL    HW250006  10.839  11.052   1.574 -0.5960  1.0672  2.1229
15472SOL     OW50007   5.718   4.453   0.651 -0.1475  0.0147  0.3410
15472SOL    HW150008   5.680   4.539   0.634 -0.9892 -0.1489  1.2976
15472SOL    HW250009   5.644   4.392   0.646  0.4289 -0.6503 -0.2602
15473SOL     OW50010  10.068   5.452   7.703  0.4269  0.1940 -0.1871
15473SOL    HW150011  10.063   5.397   7.780  1.2170  0.8855  0.3738
15473SOL    HW250012  10.100   5.537   7.735 -0.4300  0.8789 -1.0741
15474SOL     OW50013   6.570   2.573   5.766  0.5716 -0.0152 -0.4829
15474SOL    HW150014   6.613   2.634   5.827  0.5725  0.9567 -1.4120
15474SOL    HW250015   6.486   2.614   5.746  0.3549 -0.5750 -0.7452
15475SOL     OW50016   5.505   7.780   0.539  0.4553 -0.2903 -0.5722
15475SOL    HW150017   5.504   7.693   0.498 -0.3633 -0.1091 -0.9508
15475SOL    HW250018   5.543   7.838   0.473  2.1379 -0.5477  0.1153
15476SOL     OW50019   0.156   4.035  11.069  0.0088  0.1735 -0.0850
15476SOL    HW150020   0.106   3.959  11.043 -2.4998  0.3847  3.4009
15476SOL    HW250021   0.127   4.105  11.011  0.5942 -0.9251 -1.7680
15477SOL     OW50022   9.390   8.269   2.758 -0.2708  0.0812 -0.1862
15477SOL    HW150023   9.481   8.297   2.750 -0.2364  0.8097  1.9953
15477SOL    HW250024   9.389   8.181   2.720  1.1702  0.3361 -0.8849
15478SOL     OW50025   9.069   8.666   9.877  0.2687 -0.7091 -0.5519
15478SOL    HW150026   9.046   8.742   9.930 -0.6658 -0.2746 -1.5248
15478SOL    HW250027   9.162   8.651   9.895 -0.4073 -1.7678  2.6403
15479SOL     OW50028   4.721   7.667   0.589 -0.1708 -0.1560  0.0749
15479SOL    HW150029   4.632   7.698   0.569  0.3968  0.1289 -2.2585
15479SOL    HW250030   4.777   7.739   0.563  0.8699 -1.0914 -0.3190
15480SOL     OW50031   1.149   3.839   8.083  0.2032  0.4333  0.0671
15480SOL    HW150032   1.228   3.786   8.070 -0.6644 -1.1111  0.7043
15480SOL    HW250033   1.135   3.836   8.178 -1.2326 -0.3105 -0.1405
15481SOL     OW50034   1.455   7.101   6.798  0.2802 -0.4907 -0.0965
15481SOL    HW150035   1.496   7.108   6.712 -0.7501 -2.1001 -0.7643
15481SOL    HW250036   1.407   7.183   6.808 -0.3658 -0.6725 -1.4856
15482SOL     OW50037   2.954   3.297   9.128 -0.0500  0.3318 -0.7999
15482SOL    HW150038   2.905   3.250   9.195  2.1005  0.3416  0.8871
15482SOL    HW250039   2.932   3.389   9.141 -0.5151  0.2351 -0.8855
15483SOL     OW50040   1.832   9.520   4.520  0.2684  0.2807 -0.5502
15483SOL    HW150041   1.824   9.475   4.604 -0.7372  0.7252 -0.3973
15483SOL    HW250042   1.743   9.544   4.497  0.5191  0.0922 -1.7921
15484SOL     OW50043   5.294   4.184   5.383  0.0131 -0.6499 -0.1551
15484SOL    HW150044   5.230   4.253   5.399  1.0074 -0.1469  2.1570
15484SOL    HW250045   5.271   4.148   5.298 -1.8544  1.0892 -0.4502
15485SOL     OW50046   3.268   6.573   3.629 -0.1957  0.3878 -0.1337
15485SOL    HW150047   3.257   6.505   3.563  1.5642  0.8931 -0.9968
15485SOL    HW250048   3.363   6.576   3.645 -0.4841  0.9297  1.7339
15486SOL     OW50049  10.258  11.109   7.245  0.0220 -0.3748 -0.1415
15486SOL    HW150050  10.228  11.043   7.182  0.5205 -0.2645 -0.5018
15486SOL    HW250051  10.249  11.067   7.330 -1.3706 -0.2667 -0.2112
15487SOL     OW50052   9.190   6.210   6.033  0.0549  0.0337  0.0668
15487SOL    HW150053   9.241   6.132   6.053  0.9228  0.9946  1.7688
15487SOL    HW250054   9.253   6.271   5.994 -0.1603  0.6098  0.6103
15488SOL     OW50055   4.481   0.135   2.604  0.5991 -0.2600  0.2477
15488SOL    HW150056   4.405   0.086   2.635 -1.3449  3.1474  1.5002
15488SOL    HW250057   4.472   0.135   2.509 -0.6058 -0.5091  0.3468
15489SOL     OW50058   6.111   7.959   2.098 -0.3372  0.3864 -0.4082
15489SOL    HW150059   6.042   8.018   2.127  0.1649  1.1031 -0.6247
15489SOL    HW250060   6.073   7.872   2.103 -0.7300  0.6114  1.0405
15490SOL     OW50061   4.163   4.214  10.389 -0.2222 -0.7342 -0.2109
15490SOL    HW150062   4.176   4.213  10.484 -0.7653  1.8782 -0.0482
15490SOL    HW250063   4.236   4.163  10.354  1.4046  0.3135  1.4986
15491SOL     OW50064   7.266   3.678   1.874 -0.0858  0.0931 -0.0825
15491SOL    HW150065   7.321   3.661   1.950  1.8609 -0.1922 -1.4599
15491SOL    HW250066   7.252   3.592   1.835 -0.9218  0.2528 -0.1598
15492SOL     OW50067   5.097   1.107  10.118 -0.0741  0.2189  0.0340
15492SOL    HW150068   5.137   1.098  10.031 -0.4157  0.3661 -0.1399
15492SOL    HW250069   5.150   1.173  10.162  0.7546 -0.6074  0.3261
15493SOL     OW50070   9.147   4.845   3.377 -0.2584 -0.2392 -0.2262
15493SOL    HW150071   9.126   4.884   3.292 -1.7342  0.3687  0.3788
15493SOL    HW250072   9.068   4.858   3.429  1.2121  0.9764  1.8327
15494SOL     OW50073  11.003   1.217   8.595 -0.2197 -0.3771  0.0233
15494SOL    HW150074  11.076   1.267   8.632  1.0029 -3.2874  1.9225
15494SOL    HW250075  11.035   1.188   8.509 -0.1696  0.3803 -0.2257
15495SOL     OW50076   2.216   6.620   7.954 -0.2397  0.4650  0.3404
15495SOL    HW150077   2.208   6.603   8.048 -2.0911 -1.0886 -0.0230
15495SOL    HW250078   2.132   6.660   7.930  0.0509  0.4621 -0.7250
15496SOL     OW50079   9.808   8.134   9.878 -0.1695 -0.4980  0.1780
15496SOL    HW150080   9.737   8.070   9.875  0.6741 -1.4232 -1.2709
15496SOL    HW250081   9.863   8.112   9.803  1.3529  0.5420  0.9406
15497SOL     OW50082   0.159   4.522   9.870  0.5819 -0.3913  0.2152
15497SOL    HW150083   0.146   4.428   9.888  1.2196 -1.0681 -2.4218
15497SOL    HW250084   0.254   4.534   9.876  0.4696  0.2429  0.9890
15498SOL     OW50085   4.362   9.518   8.727 -0.4906 -0.1256  0.4492
15498SOL    HW150086   4.416   9.595   8.745 -0.9972 -0.1420  2.2531
15498SOL    HW250087   4.287   9.528   8.786 -1.0412 -1.5132  0.0065
15499SOL     OW50088   1.456   8.450   2.544  0.5321  0.0771 -0.3575
15499SOL    HW150089   1.475   8.407   2.628  0.4954 -0.7705 -0.7676
15499SOL    HW250090   1.363   8.470   2.548  0.2664 -1.0163 -0.6378
15500SOL     OW50091  10.526   5.515   3.910  0.1580  0.3825 -0.0101
15500SOL    HW150092  10.513   5.432   3.864 -2.5839  1.1424 -0.7995
15500SOL    HW250093  10.553   5.576   3.841  0.0262  0.6334  0.1611
15501SOL     OW50094   6.299   9.318   2.015 -0.4691 -0.2693 -0.3797
15501SOL    HW150095   6.219   9.321   2.067  1.1358  0.0688  2.3186
15501SOL    HW250096   6.270   9.311   1.924 -3.5574  2.0256  0.2834
15502SOL     OW50097   6.477   8.747   5.006 -0.6100  0.5002  0.2098
15502SOL    HW150098   6.393   8.760   4.961 -0.8652 -0.6389  0.3253
15502SOL    HW250099   6.532   8.706   4.940 -0.5502  0.0776  0.5246
15503SOL     OW50100   5.683  11.012  10.001 -0.0691 -0.0695  0.3447
15503SOL    HW150101   5.598  11.055   9.995 -0.1996 -0.3547  0.1448
15503SOL    HW250102   5.741  11.066   9.947 -0.0577  0.2770  0.6950
15504SOL     OW50103   2.783   6.007   6.041 -0.1254  0.2810 -0.3458
15504SOL    HW150104   2.805   6.007   6.134  1.8199  2.0204 -0.7317
15504SOL    HW250105   2.772   5.915   6.019 -0.1697 -0.1980  1.4944
15505SOL     OW50106   0.630   4.154  10.207  0.3899  0.3081 -0.4813
15505SOL    HW150107   0.649   4.060  10.205 -0.6944  0.0293  0.9791
15505SOL    HW250108   0.713   4.196  10.182  0.9386 -1.0171 -0.9615
15506SOL     OW50109   3.951   8.186   3.470  0.1686  0.0869 -0.0987
15506SOL    HW150110   3.862   8.156   3.453  0.8619 -2.1618 -0.1120
15506SOL    HW250111   3.953   8.202   3.564 -0.1753 -0.1284 -0.0519
15507SOL     OW50112   5.427   4.182   3.778  0.2739  0.1977 -0.2285
15507SOL    HW150113   5.410   4.164   3.686 -0.9168 -1.1004  0.2115
15507SOL    HW250114   5.341   4.193   3.817  0.7881  2.0560  0.5240
15508SOL     OW50115   3.322   1.129   6.726  0.1362 -0.5377  0.2822
15508SOL    HW150116   3.322   1.149   6.819  2.0539 -0.5489  0.3184
15508SOL    HW250117   3.291   1.039   6.720 -3.4059  0.5284  0.5612
15509SOL     OW50118   1.545   9.702   7.135  0.0333 -0.0551  0.5408
15509SOL    HW150119   1.501   9.764   7.077 -0.3399  0.1550  1.0465
15509SOL    HW250120   1.558   9.624   7.081  0.5329  0.4627 -0.1100
15510SOL     OW50121  10.280   1.497   3.080 -0.0548 -0.5254 -0.0449
15510SOL    HW150122  10.188   1.501   3.053  0.1778 -2.2212 -1.2520
15510SOL    HW250123  10.322   1.440   3.015  2.2516  1.5786 -0.5363
15511SOL     OW50124   0.623   2.766  11.069 -0.1845 -0.2678  0.4411
15511SOL    HW150125   0.588   2.803  11.150  0.2355  0.3346  0.3571
15511SOL    HW250126   0.558   2.702  11.041 -1.0138  0.5245  0.5130
15512SOL     OW50127   6.661   5.407  10.115 -0.6099  0.1870  0.2289
15512SOL    HW150128   6.691   5.316  10.125 -0.1443  0.1384 -1.3651
15512SOL    HW250129   6.566   5.402  10.128 -0.5663 -0.4957  0.3617
15513SOL     OW50130   9.359   1.653   4.251  0.3848  0.0635 -0.8538
15513SOL    HW150131   9.348   1.617   4.339 -1.5120  0.0908 -1.0589
15513SOL    HW250132   9.442   1.615   4.221  1.4801  0.6541  1.2036
15514SOL     OW50133   3.013   2.427   4.687  0.2740 -0.3376 -0.3792
15514SOL    HW150134   3.025   2.333   4.671  0.1105 -0.5235  0.5350
15514SOL    HW250135   3.102   2.462   4.689  0.4655 -0.8155  1.1502
15515SOL     OW50136   2.025   4.248   2.119 -0.0714  0.2684 -0.5793
15515SOL    HW150137   2.100   4.213   2.070  1.2287 -0.0181  1.5159
15515SOL    HW250138   1.992   4.319   2.064 -0.1020 -1.4250 -2.9086
15516SOL     OW50139   7.518   4.730   1.401  0.1041 -0.0646  0.1929
15516SOL    HW150140   7.603   4.756   1.436  0.2713  0.6354 -0.6873
15516SOL    HW250141   7.514   4.635   1.415  1.1834 -0.1631 -0.0791
15517SOL     OW50142   5.092  10.900   0.955 -0.4389 -0.0142  0.1169
15517SOL    HW150143   5.116  10.808   0.963 -0.8702 -0.1896 -0.4997
15517SOL    HW250144   5.029  10.902   0.883 -1.2041  0.6211  0.7868
15518SOL     OW50145   0.314   3.697   8.879  0.7999 -0.3532  0.1473
15518SOL    HW150146   0.377   3.759   8.842  0.1487  0.1924 -0.0846
15518SOL    HW250147   0.313   3.624   8.818  0.3598  0.1650 -0.4912
15519SOL     OW50148   2.036   6.186  11.108 -0.2568 -0.1733  0.3179
15519SOL    HW150149   1.987   6.266  11.124  0.8044  0.3648  0.9479
15519SOL    HW250150   1.985   6.141  11.040 -2.3491 -0.3032  1.8574
15520SOL     OW50151  10.234   2.955   8.178 -0.4450 -0.4227  0.0015
15520SOL    HW150152  10.279   2.911   8.106  1.4126 -0.6863  1.2301
15520SOL    HW250153  10.259   2.904   8.256 -1.4022  0.5438  0.9734
15521SOL     OW50154   8.591   2.465   3.491  0.3467 -0.1196  0.5318
15521SOL    HW150155   8.504   2.471   3.532  0.4739  1.6277  0.6523
15521SOL    HW250156   8.612   2.556   3.469  3.1545 -0.1306  2.5984
15522SOL     OW50157   8.794   4.874   0.993  0.0700  0.7561 -0.0760
15522SOL    HW150158   8.872   4.874   0.937  0.7608  2.8203  0.7926
15522SOL    HW250159   8.760   4.963   0.986 -0.6734  0.6325  1.6106
15523SOL     OW50160   8.200   4.494  10.523  0.1189 -0.5898 -0.1428
15523SOL    HW150161   8.278   4.500  10.468 -0.7320 -0.5757 -1.3795
15523SOL    HW250162   8.232   4.508  10.612  1.2462  1.6651 -0.8203
15524SOL     OW50163   3.226   8.425  10.438  0.3729 -0.5805 -0.0656
15524SOL    HW150164   3.283   8.430  10.361  0.7181  0.1540  0.2277
15524SOL    HW250165   3.243   8.506  10.486 -1.7937  0.2307 -0.5599
15525SOL     OW50166  10.850   5.475   0.115  0.4563  0.2086 -0.1210
15525SOL    HW150167  10.928   5.420   0.119  1.1243  1.0709 -0.8574
15525SOL    HW250168  10.798   5.448   0.190  1.4714 -0.3824  0.3949
15526SOL     OW50169   8.106   7.447   4.617  0.6027  0.4579 -0.0698
15526SOL    HW150170   8.189   7.478   4.654 -0.0240 -0.2005  2.0762
15526SOL    HW250171   8.127   7.363   4.577  1.2425  1.0089 -0.9269
15527SOL     OW50172   7.213   4.734   6.618 -0.3402 -0.4227 -0.0358
15527SOL    HW150173   7.200   4.768   6.706  0.5890 -0.0398 -0.0362
15527SOL    HW250174   7.303   4.704   6.617 -0.7836 -1.8181 -0.4075
15528SOL     OW50175  10.336   6.567   0.372 -0.4096  0.3388 -0.2284
15528SOL    HW150176  10.315   6.561   0.278 -1.3838  0.1311 -0.0062
15528SOL    HW250177  10.410   6.508   0.383 -0.3530  0.2798 -0.8538
15529SOL     OW50178   3.186   9.095   6.376 -0.3336  0.2660 -0.2982
15529SOL    HW150179   3.174   9.139   6.460  1.1303  1.5788 -0.7284
15529SOL    HW250180   3.153   9.007   6.391 -2.0365  1.0670  1.0214
15530SOL     OW50181   7.416   1.628   4.436  0.5112  0.0126 -0.2550
15530SOL    HW150182   7.439   1.721   4.427 -0.4168  0.2119 -0.7163
15530SOL    HW250183   7.330   1.629   4.479  0.8554 -0.6681  0.4685
15531SOL     OW50184   7.115   2.887   2.645 -0.4842 -0.6434 -0.4595
15531SOL    HW150185   7.074   2.931   2.571 -0.6734 -0.9630 -0.5485
15531SOL    HW250186   7.064   2.807   2.657 -0.3863 -0.6492 -0.0553
15532SOL     OW50187   4.004   6.111   3.894 -0.5073 -0.0773  0.3951
15532SOL    HW150188   4.023   6.133   3.985 -1.4057 -0.9509  0.8119
15532SOL    HW250189   4.024   6.018   3.887 -0.3497  0.0085 -0.3293
15533SOL     OW50190   3.304   7.793   1.848  0.4619  0.2390 -0.3566
15533SOL    HW150191   3.388   7.838   1.831 -0.1198  1.4299 -0.1963
15533SOL    HW250192   3.238   7.854   1.815 -0.4483  0.2659  1.4105
15534SOL     OW50193   5.630   5.811   2.423 -0.3692  0.3101 -0.0484
15534SOL    HW150194   5.687   5.881   2.453  0.0056  0.3094 -0.7395
15534SOL    HW250195   5.678   5.770   2.352 -1.3722  0.5355 -0.8819
15535SOL     OW50196   3.315   3.769   9.958 -0.4722  0.5364  0.1207
15535SOL    HW150197   3.399   3.751  10.000  0.2429  0.4513 -1.2792
15535SOL    HW250198   3.282   3.683   9.933 -0.8499  0.5923  0.4244
15536SOL     OW50199  10.854   0.691  11.067  0.1749  0.0262  0.1065
15536SOL    HW150200  10.948   0.706  11.079  0.3726  0.6841 -1.9071
15536SOL    HW250201  10.821   0.678  11.156  2.3209 -1.2309  0.8042
15537SOL     OW50202   5.379   5.462   4.519  0.2452 -0.1173  0.0986
15537SOL    HW150203   5.328   5.520   4.461 -0.1029  0.2400  0.7537
15537SOL    HW250204   5.372   5.502   4.605  2.3447  0.4177  0.0835
15538SOL     OW50205   9.677  10.423   4.553  0.7791 -0.6607  0.3261
15538SOL    HW150206   9.757  10.408   4.603  1.7879  0.2594 -0.9306
15538SOL    HW250207   9.692  10.378   4.470  0.6777  0.8051 -0.5261
15539SOL     OW50208   1.126   4.820   6.677  0.1792  0.1417 -0.0116
15539SOL    HW150209   1.102   4.903   6.636 -1.2604 -0.2928 -0.0944
15539SOL    HW250210   1.124   4.838   6.771  2.5874  0.8946 -0.0311
15540SOL     OW50211   5.568   6.252   7.975  0.0859 -0.4268 -0.3535
15540SOL    HW150212   5.551   6.297   7.892 -0.6182  1.3274  0.6870
15540SOL    HW250213   5.633   6.307   8.019 -1.7615  0.3786  1.5225
15541SOL     OW50214   4.517   7.274   8.564  0.0675 -0.0962 -0.7539
15541SOL    HW150215   4.601   7.271   8.519  1.0260 -1.4982  1.0349
15541SOL    HW250216   4.527   7.215   8.638 -1.9411  1.0029  0.4670
15542SOL     OW50217   4.441   4.006   7.675 -0.0496  0.4628 -0.4916
15542SOL    HW150218   4.531   4.035   7.685  0.1339 -0.2170 -0.1399
15542SOL    HW250219   4.438   3.921   7.717 -0.8111  0.3911 -0.6737
15543SOL     OW50220   5.276   2.175  10.308  0.3641 -0.3826 -0.1919
15543SOL    HW150221   5.306   2.087  10.284 -0.2816 -0.7343  0.2799
15543SOL    HW250222   5.243   2.165  10.397  1.8970  0.7175  0.5490
15544SOL     OW50223   7.428   9.851   3.104 -0.0561 -0.2524  0.1927
15544SOL    HW150224   7.497   9.867   3.169  0.8109 -0.4775 -0.6504
15544SOL    HW250225   7.473   9.808   3.031 -0.8673  0.6314 -0.8607
15545SOL     OW50226   0.918   0.847   2.779 -0.5787  0.0955 -0.6077
15545SOL    HW150227   0.926   0.887   2.692 -2.2386  0.2866 -0.7195
15545SOL    HW250228   0.837   0.796   2.774 -0.0468 -0.8975  0.4592
15546SOL     OW50229   7.421   6.090   5.924 -0.3083 -0.3400 -0.6213
15546SOL    HW150230   7.397   6.045   6.005 -0.9080 -0.6583 -0.9729
15546SOL    HW250231   7.510   6.121   5.940 -1.0804  1.2918  0.9067
15547SOL     OW50232   9.166   4.699   8.849 -0.2088 -0.0960 -0.1551
15547SOL    HW150233   9.118   4.776   8.819 -1.5313 -0.9091 -0.2288
15547SOL    HW250234   9.138   4.629   8.789 -1.0258 -1.2052  1.4366
15548SOL     OW50235   2.162   4.503   2.133 -0.0739 -0.2638  0.0904
15548SOL    HW150236   2.126   4.432   2.187 -0.6318  1.0658  1.5511
15548SOL    HW250237   2.093   4.569   2.132  0.8840  0.7576 -0.2378
15549SOL     OW50238   4.136   1.623   6.663  0.3773  0.1453  0.0673
15549SOL    HW150239   4.204   1.624   6.595  0.1803  1.6670 -0.1457
15549SOL    HW250240   4.075   1.692   6.636  0.0966  0.5268  1.5928
15550SOL     OW50241   4.495  10.148  10.514 -0.1704  0.2393 -0.5999
15550SOL    HW150242   4.589  10.165  10.509 -0.0100 -0.6203 -0.7223
15550SOL    HW250243   4.489  10.054  10.533 -1.0160  0.0880 -1.5465
15551SOL     OW50244   8.137   7.665   7.060 -0.4028 -0.4640  0.2491
15551SOL    HW150245   8.070   7.597   7.057 -0.7456 -0.1703  1.0561
15551SOL    HW250246   8.153   7.687   6.968 -2.2449  0.2888  0.0726
15552SOL     OW50247   0.357   8.979   0.326 -0.3201 -0.0238  0.0199
15552SOL    HW150248   0.427   9.030   0.284  0.4154  0.6993  2.0164
15552SOL    HW250249   0.303   8.949   0.253  1.2704  0.5811 -1.4903
15553SOL     OW50250   3.105   9.836  10.031 -0.1122 -0.6275  0.0616
15553SOL    HW150251   3.094   9.861   9.940  2.3190 -0.7858 -0.3459
15553SOL    HW250252   3.051   9.758  10.042  0.6183 -1.4154 -1.6526
15554SOL     OW50253   8.307   1.982   5.126  0.2145  0.2459 -0.5836
15554SOL    HW150254   8.220   1.993   5.165 -0.0234 -1.7350 -0.4674
15554SOL    HW250255   8.298   1.904   5.071  2.5187 -1.4529  1.2690
15555SOL     OW50256   5.580   6.844   4.561  0.6916  0.1993 -0.6255
15555SOL    HW150257   5.486   6.833   4.576  0.9343  0.0220  0.9600
15555SOL    HW250258   5.590   6.839   4.466 -0.8648 -0.0575 -0.8029
15556SOL     OW50259   8.949   3.414   7.913 -0.9122 -0.2318 -0.4923
15556SOL    HW150260   9.026   3.362   7.893 -1.0501 -0.5059 -0.3143
15556SOL    HW250261   8.935   3.468   7.835  0.4631  1.0778  0.1235
15557SOL     OW50262   3.595   7.408   0.754  1.0379  0.2175  0.4020
15557SOL    HW150263   3.603   7.336   0.816 -1.4887 -0.8623 -0.3580
15557SOL    HW250264   3.611   7.367   0.669  0.0703  0.6259  0.0099
15558SOL     OW50265   2.663  10.471  10.353  0.1829 -0.7729  0.0162
15558SOL    HW150266   2.740  10.523  10.332  0.0952 -0.3160  0.7909
15558SOL    HW250267   2.644  10.422  10.272  1.7074 -1.4644  0.0478
15559SOL     OW50268   2.996   1.715   7.340 -0.7516  0.2678 -0.1155
15559SOL    HW150269   2.907   1.749   7.346 -1.7127 -1.8345 -1.4174
15559SOL    HW250270   2.992   1.627   7.377  0.0666 -0.9578 -2.6780
15560SOL     OW50271   6.606   9.562   6.570 -0.1881 -0.1736 -0.1772
15560SOL    HW150272   6.660   9.624   6.618  0.9938 -1.2922 -0.0082
15560SOL    HW250273   6.519   9.570   6.609  0.6257 -0.7215  1.8626
15561SOL     OW50274   2.132   6.586  11.028  0.0091  0.0905 -0.0028
15561SOL    HW150275   2.146   6.523  10.958 -1.0347  0.3392 -0.4700
15561SOL    HW250276   2.041   6.614  11.016  0.0161  0.6150  1.0661
15562SOL     OW50277  10.404   6.485   8.583  0.1152 -0.6319 -0.0107
15562SOL    HW150278  10.309   6.486   8.598 -0.1111  0.5156 -1.3366
15562SOL    HW250279  10.432   6.575   8.599  0.3112  0.0071 -3.3445
15563SOL     OW50280   7.689  10.155   2.739 -0.1949  0.2307  0.2909
15563SOL    HW150281   7.709  10.177   2.648  1.1581  1.9450  0.9468
15563SOL    HW250282   7.745  10.212   2.790 -0.9461 -0.6837  2.2285
15564SOL     OW50283   8.320   5.960   2.239 -0.4634 -0.1093  0.3809
15564SOL    HW150284   8.355   5.961   2.150 -1.1323  0.2347  0.1172
15564SOL    HW250285   8.295   6.050   2.257 -1.0124 -0.3089  0.6467
15565SOL     OW50286   8.398   4.977   3.491  0.4513 -0.3190  0.1165
15565SOL    HW150287   8.439   4.893   3.512 -0.2855 -0.7327 -0.0758
15565SOL    HW250288   8.395   5.023   3.575 -1.8308 -1.6761  0.8827
15566SOL     OW50289   1.790  10.933   6.338  0.0391 -0.7359  0.7603
15566SOL    HW150290   1.818  11.007   6.284 -1.0789 -1.8120 -1.4229
15566SOL    HW250291   1.864  10.917   6.398  2.0741 -0.4901 -1.5453
15567SOL     OW50292   1.624  10.697  10.461 -0.4583  0.0218 -0.2370
15567SOL    HW150293   1.562  10.741  10.403 -0.9647  1.4669  1.3054
15567SOL    HW250294   1.675  10.769  10.500  0.3700 -0.9511  0.5208
15568SOL     OW50295   6.180   8.554   0.814  0.2802  0.2648 -0.3787
15568SOL    HW150296   6.274   8.548   0.828  0.0970 -0.3143  0.6978
15568SOL    HW250297   6.143   8.563   0.902 -0.7175 -0.1754 -0.7353
15569SOL     OW50298   0.528   9.992   1.463  0.2096 -0.4689 -0.1110
15569SOL    HW150299   0.622   9.972   1.456  0.0651 -1.5495  0.7970
15569SOL    HW250300   0.511  10.053   1.391  1.6682 -0.0342 -0.1188
15570SOL     OW50301   7.162   8.413   4.810  0.0252 -0.2108 -0.0269
15570SOL    HW150302   7.207   8.354   4.748  0.6150  0.7672 -0.5509
15570SOL    HW250303   7.188   8.380   4.896 -0.0817 -1.0391 -0.2972
15571SOL     OW50304   4.913   7.486   0.075  0.5013  0.0931  0.8086
15571SOL    HW150305   4.988   7.489   0.134  0.9174  1.5950  0.2557
15571SOL    HW250306   4.934   7.416   0.013  0.9613 -0.2003  1.2944
15572SOL     OW50307   2.156  10.701   3.348  0.3720 -0.4256 -0.0861
15572SOL    HW150308   2.215  10.640   3.392  0.7441  0.4031  0.5758
15572SOL    HW250309   2.207  10.735   3.274  0.5604 -0.0730  0.2037
15573SOL     OW50310   0.990   0.370   2.619 -0.8456  0.2747 -0.2515
15573SOL    HW150311   0.902   0.332   2.628 -0.6785 -0.2084 -0.5988
15573SOL    HW250312   0.976   0.464   2.620 -1.3593  0.2004 -0.2242
15574SOL     OW50313   6.839  10.946  10.353  0.1359  0.0893 -0.1031
15574SOL    HW150314   6.810  10.935  10.262  1.0556 -3.1856 -0.1294
15574SOL    HW250315   6.904  11.016  10.349 -0.4926  0.6308 -1.8016
15575SOL     OW50316   3.548   4.136  10.171  0.0893 -0.1702  0.2294
15575SOL    HW150317   3.454   4.146  10.155  0.1320  0.3771  0.2777
15575SOL    HW250318   3.578   4.225  10.191  0.6211 -0.3375  0.1947
15576SOL     OW50319   7.364  10.828   3.965 -0.3525 -0.3639 -0.1808
15576SOL    HW150320   7.340  10.859   4.053 -1.7482 -2.1363  0.1087
15576SOL    HW250321   7.335  10.737   3.962  0.3076 -0.5643 -2.2513
15577SOL     OW50322   4.786   6.359   7.316  0.7080  0.7263 -0.0206
15577SOL    HW150323   4.814   6.365   7.225 -1.7945 -0.2269 -0.9463
15577SOL    HW250324   4.742   6.442   7.334  1.0156  0.8313  0.2586
15578SOL     OW50325   7.300   2.248   2.032  0.4470 -0.5123 -0.2804
15578SOL    HW150326   7.328   2.238   2.123  0.9580 -1.7156 -0.5422
15578SOL    HW250327   7.291   2.158   2.000  0.0616 -0.1069 -1.3507
15579SOL     OW50328   5.409  11.058   0.825  0.5800 -0.2452  0.0318
15579SOL    HW150329   5.368  11.095   0.747  1.1706  2.3230  0.8438
15579SOL    HW250330   5.406  11.128   0.890  0.5096 -2.1431  2.2106
15580SOL     OW50331   5.383   3.709   3.870 -0.2520  0.1030 -0.5115
15580SOL    HW150332   5.469   3.745   3.888 -0.4101  0.0704  0.3566
15580SOL    HW250333   5.398   3.616   3.853 -0.3436 -0.3988  1.9208
15581SOL     OW50334   2.129   7.561   2.177  0.1685  0.7426  0.7810
15581SOL    HW150335   2.079   7.548   2.258  1.6847 -2.9859  1.3327
15581SOL    HW250336   2.220   7.570   2.207  0.4440  2.4270 -0.4212
15582SOL     OW50337   7.754  10.611  10.444 -0.3326 -0.2664  0.1940
15582SOL    HW150338   7.784  10.585  10.357  0.7772  0.0163  0.4824
15582SOL    HW250339   7.673  10.560  10.457 -0.2634 -0.6606 -0.8041
15583SOL     OW50340   8.534   4.506   3.120 -0.0470  0.2579 -0.5066
15583SOL    HW150341   8.494   4.591   3.138 -1.2322 -0.0422 -1.5935
15583SOL    HW250342   8.460   4.446   3.109  0.6279 -0.2336 -3.0090
15584SOL     OW50343   4.944   8.947   4.370 -0.2061 -0.4935 -0.6214
15584SOL    HW150344   4.900   8.864   4.388 -0.8169  0.2084  1.4007
15584SOL    HW250345   4.953   8.989   4.455  1.0913  1.0523 -1.4480
15585SOL     OW50346   6.006   5.542   2.497 -0.7185  0.4710  0.2092
15585SOL    HW150347   6.073   5.503   2.552 -0.5574  1.2080  0.5486
15585SOL    HW250348   5.940   5.474   2.487  0.3618 -0.4793 -0.6496
15586SOL     OW50349   0.614   5.277   3.875  0.1523 -0.3584 -0.4006
15586SOL    HW150350   0.523   5.294   3.851  0.7604  2.8824 -0.9688
15586SOL    HW250351   0.648   5.219   3.807 -0.9745  0.0031 -1.2855
15587SOL     OW50352   3.329   8.262   1.192 -0.0348  0.4311 -0.1076
15587SOL    HW150353   3.328   8.353   1.163 -0.2939 -0.3235 -2.7035
15587SOL    HW250354   3.422   8.240   1.197  0.0538  0.9884  1.2253
15588SOL     OW50355   4.395   2.275   2.117  0.7285  0.5435  0.4073
15588SOL    HW150356   4.302   2.294   2.105  1.0926  1.1366 -2.0230
15588SOL    HW250357   4.438   2.361   2.116  1.3341  0.2888  1.6733
15589SOL     OW50358   6.634   2.188   4.655 -0.6596  0.0809 -0.1790
15589SOL    HW150359   6.587   2.166   4.735 -0.6340  0.9472  0.0827
15589SOL    HW250360   6.656   2.104   4.617  0.6520 -0.3961  1.5035
15590SOL     OW50361   6.970   2.263   7.286 -0.7702 -0.5249  0.2637
15590SOL    HW150362   7.038   2.315   7.243 -2.2773  1.4970  0.1398
15590SOL    HW250363   6.986   2.173   7.258  1.3241  0.0141 -0.4022
15591SOL     OW50364   7.467   2.360   7.730 -0.2065 -0.2891  0.4929
15591SOL    HW150365   7.524   2.299   7.776 -0.7695 -2.2673 -1.2206
15591SOL    HW250366   7.386   2.361   7.781 -0.2454 -1.1462  0.4609
15592SOL     OW50367   4.381   1.258   5.132  0.2752 -0.2935 -0.0206
15592SOL    HW150368   4.340   1.343   5.150 -1.8177 -0.7906 -2.0156
15592SOL    HW250369   4.454   1.279   5.074  0.3134  0.2349  0.2136
15593SOL     OW50370   9.003   3.819   7.764  0.1134 -0.2484 -0.2925
15593SOL    HW150371   9.050   3.762   7.702  0.7487 -0.0964  0.0453
15593SOL    HW250372   9.034   3.907   7.743  0.3382 -0.1984  0.2430
15594SOL     OW50373   5.967  10.453   1.316  0.2488 -0.3093  0.3179
15594SOL    HW150374   5.892  10.453   1.256 -0.1708 -0.5775  0.8295
15594SOL    HW250375   5.955  10.373   1.368  1.0424 -0.4986  0.2210
15595SOL     OW50376   3.982   3.712  10.914 -0.5588 -0.3441 -0.2588
15595SOL    HW150377   3.900   3.743  10.876 -0.2622  0.2383 -0.4436
15595SOL    HW250378   4.025   3.664  10.843 -0.1693  0.4366 -0.5683
15596SOL     OW50379   1.907   2.759   4.609  0.1075 -0.3174  0.1181
15596SOL    HW150380   1.946   2.679   4.644  0.0965  0.6646  2.5516
15596SOL    HW250381   1.961   2.830   4.642  0.2129  0.7460 -2.1295
15597SOL     OW50382   8.533   5.925   7.628 -0.5041 -0.1294 -0.6701
15597SOL    HW150383   8.609   5.929   7.570  1.1771 -0.4256  1.3896
15597SOL    HW250384   8.567   5.890   7.710 -2.6256  0.9782  0.7790
15598SOL     OW50385   1.494   1.048   2.472 -0.2725  0.2125 -0.1275
15598SOL    HW150386   1.466   1.134   2.504  0.6159  1.0792 -1.5448
15598SOL    HW250387   1.425   0.988   2.502 -0.2714  1.1706  1.9793
15599SOL     OW50388   9.896   3.862   0.567  0.4283  0.4099  0.0357
15599SOL    HW150389   9.970   3.880   0.624 -0.2917  0.7613  0.8875
15599SOL    HW250390   9.822   3.851   0.626 -0.0850 -0.5779 -0.7634
15600SOL     OW50391   0.547   8.942   8.568  0.3841  0.1559  0.2067
15600SOL    HW150392   0.523   8.888   8.493 -1.2252  0.3063  0.5852
15600SOL    HW250393   0.552   8.881   8.641 -1.4666  0.4685  0.6416
15601SOL     OW50394   6.668   1.016   0.972  0.1364  0.2704 -0.1548
15601SOL    HW150395   6.760   1.005   0.950  0.2425  0.9640 -0.0756
15601SOL    HW250396   6.662   0.993   1.065  0.2377  0.2544 -0.1525
15602SOL     OW50397   1.727   1.536   2.941 -0.2300 -0.0926  0.1016
15602SOL    HW150398   1.784   1.575   2.874 -1.2178  1.9842  0.3694
15602SOL    HW250399   1.716   1.607   3.005 -1.9320 -0.9395  0.7844
15603SOL     OW50400   5.981   9.824   5.871 -0.4591  0.1434  0.1762
15603SOL    HW150401   6.050   9.873   5.915  1.3783 -3.6316  1.8966
15603SOL    HW250402   6.011   9.815   5.781  1.0611 -0.9113  0.7536
15604SOL     OW50403   2.031   3.792   2.298 -0.4222  0.6280  0.3107
15604SOL    HW150404   1.978   3.741   2.236  1.4871 -0.8098 -0.2270
15604SOL    HW250405   2.061   3.727   2.362  0.2850  1.4924  0.8681
15605SOL     OW50406   1.489   1.721   6.188  0.3880  0.5577  0.0680
15605SOL    HW150407   1.531   1.672   6.118  0.6279 -0.3777  0.8419
15605SOL    HW250408   1.472   1.807   6.151  3.0051  0.9866 -0.2810
15606SOL     OW50409   2.761  10.762   0.369  0.1386  0.5283 -0.8978
15606SOL    HW150410   2.852  10.759   0.340 -0.0750 -0.2072 -1.5052
15606SOL    HW250411   2.711  10.726   0.296 -0.4891 -0.6118  0.0588
15607SOL     OW50412   7.122   1.262   5.004  0.0072 -0.0641  0.2063
15607SOL    HW150413   7.140   1.181   5.052  0.2932 -0.3862 -0.4371
15607SOL    HW250414   7.189   1.265   4.936 -0.1373  0.6071  0.0877
15608SOL     OW50415   3.175   0.634   4.397  0.4090  0.1570 -0.5359
15608SOL    HW150416   3.217   0.700   4.451 -0.2484  1.3490 -1.4056
15608SOL    HW250417   3.182   0.669   4.308 -0.2176 -0.8054 -0.9787
15609SOL     OW50418   8.800   9.515  10.686 -0.0282 -0.3688 -0.2914
15609SOL    HW150419   8.891   9.488  10.691  0.3327  0.9007  0.4578
15609SOL    HW250420   8.767   9.474  10.606  1.7630  0.7900 -1.6997
15610SOL     OW50421   8.175   9.944   6.138 -0.7348 -0.5216 -0.4733
15610SOL    HW150422   8.190   9.850   6.153  0.2248 -0.6679 -2.0921
15610SOL    HW250423   8.092   9.948   6.091 -1.0005 -0.5017 -0.0145
15611SOL     OW50424   8.077   3.895   3.496  0.0395 -0.0122  0.6892
15611SOL    HW150425   8.094   3.845   3.416  2.3113  2.0032 -0.2181
15611SOL    HW250426   7.984   3.883   3.512  0.2135 -3.4615 -0.1228
15612SOL     OW50427   5.082   6.746   9.201 -0.5478  0.4240 -0.0316
15612SOL    HW150428   5.020   6.815   9.228  0.8613  1.5337  0.4836
15612SOL    HW250429   5.080   6.748   9.106  0.0493  1.7466 -0.0354
15613SOL     OW50430   5.600   8.753   1.403 -0.2285 -0.0206  0.2440
15613SOL    HW150431   5.512   8.770   1.435 -0.5700 -0.6998 -0.2995
15613SOL    HW250432   5.658   8.798   1.465 -0.7722 -2.2964  2.5566
15614SOL     OW50433   1.761   9.998   7.080 -0.9368 -0.3752 -0.4170
15614SOL    HW150434   1.849  10.026   7.056 -1.0334 -0.8497 -1.3503
15614SOL    HW250435   1.717  10.078   7.107 -0.3335 -0.0783 -0.2904
15615SOL     OW50436   5.303  11.046   6.582  0.5391  0.6003  0.8063
15615SOL    HW150437   5.352  10.998   6.516  0.2545  1.4775 -0.0600
15615SOL    HW250438   5.314  10.994   6.662 -0.1886 -1.1700 -0.1956
15616SOL     OW50439   8.685   1.744   2.545  0.4571 -0.1846 -0.0453
15616SOL    HW150440   8.590   1.752   2.555  0.3727 -0.6123 -0.4363
15616SOL    HW250441   8.696   1.703   2.459  1.0721  1.6492 -0.8869
15617SOL     OW50442   5.028   5.012   4.120  0.4032 -0.2270  1.2383
15617SOL    HW150443   4.957   5.041   4.063  0.4774 -1.8296  0.2592
15617SOL    HW250444   4.986   4.987   4.202  0.2911  2.0948  1.9587
15618SOL     OW50445   4.451   0.501   4.576 -0.2814  0.2014  0.4606
15618SOL    HW150446   4.481   0.591   4.587  0.7923 -0.2354  1.3025
15618SOL    HW250447   4.517   0.460   4.520 -0.2532 -0.3053  0.8551
15619SOL     OW50448  10.531   9.054   2.063 -0.2930 -0.1091  0.3769
15619SOL    HW150449  10.595   9.001   2.015  1.2608  0.4819  1.6929
15619SOL    HW250450  10.583   9.125   2.101 -2.1192  1.7862 -0.4536
15620SOL     OW50451   5.397  10.777   2.781 -0.2995 -0.7739 -0.0653
15620SOL    HW150452   5.432  10.728   2.855 -0.1184 -1.1889 -0.4239
15620SOL    HW250453   5.469  10.833   2.754 -0.8477  0.5397  1.0459
15621SOL     OW50454   8.539   3.658   0.877 -0.2262 -0.2090 -0.3310
15621SOL    HW150455   8.492   3.653   0.793 -1.6382 -0.3218  0.4346
15621SOL    HW250456   8.523   3.573   0.918  0.9423 -0.3687 -0.1749
15622SOL     OW50457   2.790   9.999   5.195 -0.4658 -0.2528  0.0650
15622SOL    HW150458   2.756   9.926   5.247 -2.0503  0.1997 -0.2902
15622SOL    HW250459   2.814  10.065   5.260 -0.5458 -0.4560  0.3036
15623SOL     OW50460   6.948   6.676   3.268  0.0579  0.4063  0.0198
15623SOL    HW150461   7.013   6.682   3.338  0.3940 -1.5217 -0.0879
15623SOL    HW250462   6.990   6.626   3.200 -1.1152  0.1871 -0.5761
15624SOL     OW50463   8.946   6.548   3.093  0.0054 -0.3523 -0.6288
15624SOL    HW150464   8.989   6.479   3.044  0.5706 -0.6678  0.2961
15624SOL    HW250465   8.855   6.545   3.063 -0.2022 -2.1186  0.0720
15625SOL     OW50466   1.789   7.222   5.337 -0.1055 -0.6633 -0.6413
15625SOL    HW150467   1.882   7.245   5.340 -0.9973  4.2462 -1.7887
15625SOL    HW250468   1.767   7.222   5.244 -1.9735  3.2174 -0.4150
15626SOL     OW50469   4.035   3.680   8.699 -0.2469  0.1890 -0.0629
15626SOL    HW150470   3.972   3.636   8.641 -0.0806  1.1562 -1.0186
15626SOL    HW250471   4.116   3.683   8.648  0.5579 -0.8809  1.0832
15627SOL     OW50472   0.738   9.824   5.061 -0.2149 -0.1809 -0.0335
15627SOL    HW150473   0.691   9.885   5.005 -0.0356 -0.7268 -0.7980
15627SOL    HW250474   0.729   9.739   5.017 -0.1238 -0.6380  0.7942
15628SOL     OW50475   4.448   2.037   7.803  0.0402 -0.5226 -0.3436
15628SOL    HW150476   4.365   2.043   7.851  0.6544 -0.3252  0.7344
15628SOL    HW250477   4.472   1.944   7.810  0.2338 -0.4546 -0.0645
15629SOL     OW50478   2.629   2.237   9.834  0.2915 -0.1164  0.4827
15629SOL    HW150479   2.554   2.200   9.880 -0.0647 -1.2482 -0.9570
15629SOL    HW250480   2.680   2.161   9.805  0.7164  0.5706 -0.6487
15630SOL     OW50481   3.340  10.427   7.176  0.0890  0.1571 -0.0921
15630SOL    HW150482   3.245  10.436   7.173  0.1073  0.2614 -3.0184
15630SOL    HW250483   3.357  10.334   7.160  0.4602  0.3768 -1.0981
15631SOL     OW50484   8.924  10.424   5.444  0.0250 -0.2631  0.4168
15631SOL    HW150485   8.912  10.369   5.366 -0.8463  0.1077  0.2842
15631SOL    HW250486   8.985  10.492   5.415 -1.5112  0.8084 -0.4467
15632SOL     OW50487   3.159   1.439   1.039 -0.0769 -0.0540 -0.4685
15632SOL    HW150488   3.196   1.453   1.126  0.8552 -0.0842 -0.8438
15632SOL    HW250489   3.077   1.487   1.039  0.4698  0.9010  0.0493
15633SOL     OW50490   0.974   8.320   5.153  0.1720 -0.2103 -0.3902
15633SOL    HW150491   0.960   8.405   5.111 -1.8052 -0.4511 -0.3259
15633SOL    HW250492   0.993   8.260   5.081  0.6858  0.1137 -0.5282
15634SOL     OW50493   9.574   7.617   1.610 -0.7704 -0.1697  0.1381
15634SOL    HW150494   9.541   7.531   1.584  0.2644 -0.3613 -0.6376
15634SOL    HW250495   9.602   7.606   1.701 -1.6981 -0.3240  0.4152
15635SOL     OW50496   8.221   2.123   8.476 -0.1585 -0.1158  0.0408
15635SOL    HW150497   8.166   2.199   8.498 -0.3840  0.2725 -1.7366
15635SOL    HW250498   8.310   2.157   8.477 -0.2479  0.1574 -0.6128
15636SOL     OW50499  10.679   4.285  10.814  0.2869  0.2524  0.1248
15636SOL    HW150500  10.719   4.244  10.890  1.4969  1.3828  0.1349
15636SOL    HW250501  10.603   4.331  10.849  1.5240  1.8013  0.9259
15637SOL     OW50502   4.743   0.122   3.952  0.1307  0.1604 -0.6011
15637SOL    HW150503   4.782   0.037   3.975 -2.2230 -0.7085  0.5403
15637SOL    HW250504   4.801   0.157   3.884  2.2784 -1.4381  0.2605
15638SOL     OW50505   4.167   1.216   3.702 -0.0646  0.3375 -0.3550
15638SOL    HW150506   4.214   1.185   3.624 -0.4487  0.0814 -0.4915
15638SOL    HW250507   4.203   1.165   3.774 -0.2889 -0.0235 -0.4932
15639SOL     OW50508   4.820   4.421   7.425 -0.5161 -0.0977  0.2114
15639SOL    HW150509   4.846   4.503   7.467  0.4106 -0.8165  1.0891
15639SOL    HW250510   4.759   4.381   7.486 -3.3960  1.2731 -1.5480
15640SOL     OW50511   9.990   5.473   6.911 -0.0150 -0.5411  0.1643
15640SOL    HW150512   9.992   5.441   7.001  2.1422 -2.8694 -0.5743
15640SOL    HW250513   9.924   5.419   6.868 -0.4375 -0.0151  0.1414
15641SOL     OW50514   6.030  10.351   3.758 -0.1327 -0.1583 -0.1192
15641SOL    HW150515   6.022  10.270   3.707 -1.2887 -0.6164  0.7682
15641SOL    HW250516   6.087  10.328   3.831  1.3478  0.4459 -1.0146
15642SOL     OW50517  10.766   5.851   1.117 -0.0075 -0.1329  0.4120
15642SOL    HW150518  10.811   5.935   1.111  2.6829 -1.5446 -0.6396
15642SOL    HW250519  10.763   5.819   1.027 -1.6089 -0.9212  0.7016
15643SOL     OW50520   9.465  10.171   8.442 -0.0286 -0.0449 -0.2596
15643SOL    HW150521   9.541  10.114   8.430 -0.0522 -0.2416  0.4699
15643SOL    HW250522   9.437  10.194   8.353  0.5310 -0.4394 -0.5386
15644SOL     OW50523   3.289   3.828   3.038 -0.4109  0.1748 -0.2774
15644SOL    HW150524   3.261   3.741   3.066 -2.2882  1.1765  1.2048
15644SOL    HW250525   3.302   3.877   3.119  3.6117  0.5155 -0.9413
15645SOL     OW50526   7.125   2.689   6.154  0.2800  0.1281  0.3512
15645SOL    HW150527   7.182   2.726   6.086 -0.7113  0.2889 -0.4275
15645SOL    HW250528   7.165   2.716   6.236  1.6254 -0.2404 -0.1543
15646SOL     OW50529   6.427   1.924   4.503  0.2526 -0.3627 -0.3558
15646SOL    HW150530   6.370   2.000   4.489 -0.8147 -1.1814 -0.6481
15646SOL    HW250531   6.437   1.919   4.598  0.3964  0.1855 -0.3374
15647SOL     OW50532   3.795   0.120   9.962 -0.0249 -0.0397 -0.3526
15647SOL    HW150533   3.766   0.029   9.956 -0.3626  0.1417 -1.7593
15647SOL    HW250534   3.718   0.168   9.991  0.4121 -0.2976  1.3904
15648SOL     OW50535   3.216   1.079   2.912  0.8315  0.0385  0.2357
15648SOL    HW150536   3.292   1.113   2.961 -0.1102  0.3246  1.5702
15648SOL    HW250537   3.254   1.028   2.841  2.2795  1.1861  0.1349
15649SOL     OW50538   5.331   7.020   2.750  0.1640  0.1444 -0.2266
15649SOL    HW150539   5.344   6.925   2.747  1.3843  0.1107  2.5464
15649SOL    HW250540   5.343   7.049   2.660  1.1728 -2.1742 -0.9202
15650SOL     OW50541   3.073   7.355  10.560 -0.6825  0.7375 -0.3066
15650SOL    HW150542   3.140   7.301  10.519 -0.9894  1.0627 -1.2725
15650SOL    HW250543   3.087   7.443  10.523 -0.0136  1.4172  1.4303
15651SOL     OW50544   2.599   0.099   5.906  0.4452  0.0789 -0.5639
15651SOL    HW150545   2.504   0.097   5.895  0.3106  0.0164  0.4776
15651SOL    HW250546   2.625   0.186   5.878  0.1002  0.0514 -0.9785
15652SOL     OW50547   5.186   5.190   9.915  0.5179 -0.6517  0.0498
15652SOL    HW150548   5.091   5.186   9.914  0.3841  0.7104  1.8623
15652SOL    HW250549   5.214   5.111   9.869 -1.4676 -0.6046 -1.3564
15653SOL     OW50550   7.846  10.298   4.553  0.4722  0.2548 -0.1330
15653SOL    HW150551   7.832  10.307   4.459 -0.4273  0.9289  0.0428
15653SOL    HW250552   7.873  10.385   4.582  1.7093 -0.1834  0.1021
15654SOL     OW50553   8.493  10.172   8.936 -1.1655  0.3676 -0.1042
15654SOL    HW150554   8.446  10.124   9.003 -0.3251  0.6899  0.7372
15654SOL    HW250555   8.453  10.144   8.853 -0.7151 -1.7579  0.3375
15655SOL     OW50556   5.612   4.839   7.490  0.3410  0.5385 -0.0198
15655SOL    HW150557   5.654   4.869   7.409  1.2014  0.3043  0.3274
15655SOL    HW250558   5.672   4.773   7.525 -0.0314  0.6216  0.7944
15656SOL     OW50559   8.168   3.571   7.101 -0.0026  0.3371 -0.2504
15656SOL    HW150560   8.119   3.594   7.180  0.3393  0.6365 -0.1212
15656SOL    HW250561   8.213   3.652   7.077  1.1782 -0.1609  0.1812
15657SOL     OW50562   7.865   0.567   9.706 -0.0239 -0.0801  0.8502
15657SOL    HW150563   7.877   0.637   9.769 -0.7971 -1.2515  2.3536
15657SOL    HW250564   7.952   0.528   9.697  0.3409  0.8415  0.2472
15658SOL     OW50565  10.130   5.048   2.824 -0.0746 -0.2623  0.3297
15658SOL    HW150566  10.150   5.073   2.914  2.0692 -0.8576  0.0675
15658SOL    HW250567  10.161   5.121   2.771 -0.5232 -0.2946  0.0146
15659SOL     OW50568   9.717   2.402   6.530  0.3565 -0.3688  0.0757
15659SOL    HW150569   9.797   2.386   6.479  0.1506 -1.2405  0.0086
15659SOL    HW250570   9.746   2.453   6.605  1.2744 -1.9393  0.8607
15660SOL     OW50571   9.241   3.916   2.408 -0.2480  0.9011 -0.4348
15660SOL    HW150572   9.208   3.974   2.339  1.4466  2.0799 -0.3108
15660SOL    HW250573   9.189   3.836   2.399 -0.3237  1.1602 -2.8241
15661SOL     OW50574   3.215   6.604   9.757  0.1365  0.3207  0.1434
15661SOL    HW150575   3.132   6.620   9.800  0.5233  0.1296  0.9922
15661SOL    HW250576   3.198   6.617   9.664 -1.6232 -2.7245 -0.0938
15662SOL     OW50577   5.387   9.296   8.901 -0.8725  0.0582 -0.4419
15662SOL    HW150578   5.432   9.213   8.886 -0.7884 -0.1417  0.8186
15662SOL    HW250579   5.296   9.277   8.880 -1.3195 -1.1002  2.1199
15663SOL     OW50580   3.549  10.193   1.997 -0.4787  0.2152 -0.7933
15663SOL    HW150581   3.614  10.172   2.064 -0.9999  1.2363  0.0634
15663SOL    HW250582   3.575  10.142   1.921 -0.4920 -1.8749  0.5244
15664SOL     OW50583   1.109  10.157   7.072  0.0030  0.5459 -0.0573
15664SOL    HW150584   1.105  10.253   7.062  0.6427  0.6248  0.3663
15664SOL    HW250585   1.139  10.144   7.162 -2.2629 -0.1020  0.6665
15665SOL     OW50586   0.122   7.465   6.362 -0.2549  0.2573 -0.4336
15665SOL    HW150587   0.038   7.434   6.327  0.6022 -0.5478 -1.8443
15665SOL    HW250588   0.135   7.551   6.322  0.3133 -0.2875 -1.4389
15666SOL     OW50589   5.219   0.661   1.118 -0.1347  0.3494  0.5691
15666SOL    HW150590   5.304   0.675   1.160  0.5433 -0.6465 -0.4012
15666SOL    HW250591   5.211   0.733   1.056  0.0580  0.3919  0.5919
15667SOL     OW50592   7.935   4.379   5.807  0.3083  1.4998  0.4288
15667SOL    HW150593   7.922   4.288   5.832  1.3358  1.3078  0.3081
15667SOL    HW250594   7.997   4.376   5.734 -0.1505  2.2540 -0.0137
15668SOL     OW50595   7.622   9.732   0.357  0.0763  0.2606 -0.9763
15668SOL    HW150596   7.548   9.744   0.417 -1.1197 -0.5860 -2.2022
15668SOL    HW250597   7.636   9.818   0.318  0.8035  0.7971  0.3953
15669SOL     OW50598  10.463   2.974  10.224  0.0094 -0.4880  0.1089
15669SOL    HW150599  10.505   3.060  10.229  1.3664 -1.1803  1.3547
15669SOL    HW250600  10.492   2.937  10.141 -1.0668  0.4708 -0.7233
15670SOL     OW50601   3.733   0.574   3.279 -0.2998  0.0958 -0.1610
15670SOL    HW150602   3.682   0.653   3.259 -0.8190 -0.0411  0.5964
15670SOL    HW250603   3.816   0.608   3.312 -0.4870  0.3309  0.0797
15671SOL     OW50604   9.685   4.947   8.969  0.3340 -0.0281 -0.3131
15671SOL    HW150605   9.599   4.938   8.927 -0.1495  2.1769  0.0832
15671SOL    HW250606   9.736   5.000   8.907  0.8364  0.1306  0.2346
15672SOL     OW50607   4.550   0.795   1.513 -0.0234  0.3382 -0.2078
15672SOL    HW150608   4.518   0.884   1.498  1.1651  0.8019 -0.1283
15672SOL    HW250609   4.527   0.748   1.433 -2.1261  0.2487  0.4050
15673SOL     OW50610  10.321  10.674   5.421  0.6035 -0.0210 -0.2484
15673SOL    HW150611  10.278  10.724   5.351  1.4975 -0.8434 -1.4231
15673SOL    HW250612  10.322  10.584   5.390  2.2278 -0.1939  0.1954
15674SOL     OW50613   7.286   7.477   0.684 -0.5119  0.6188  0.0096
15674SOL    HW150614   7.375   7.496   0.714 -0.4828 -0.2357  0.5064
15674SOL    HW250615   7.254   7.560   0.650  0.8630  0.6903 -1.1880
15675SOL     OW50616   4.379  10.288  10.264 -0.4121  0.7843 -0.1985
15675SOL    HW150617   4.366  10.340  10.185  0.9266  1.5921  0.0810
15675SOL    HW250618   4.428  10.211  10.235 -0.9854  0.4702 -0.3461
15676SOL     OW50619   9.771   4.218   4.625  0.2753  0.1663  0.1111
15676SOL    HW150620   9.710   4.283   4.659 -0.0374 -0.2718  0.3993
15676SOL    HW250621   9.744   4.136   4.667  0.0197 -0.3436 -1.0138
15677SOL     OW50622   7.933   2.007   1.608  0.2157 -0.2667 -0.3023
15677SOL    HW150623   7.874   1.932   1.610  0.6607 -0.6560 -1.1530
15677SOL    HW250624   8.012   1.977   1.650 -1.0254  1.0797  3.3700
15678SOL     OW50625  10.413   8.217  10.371 -0.2118  0.0196  0.1966
15678SOL    HW150626  10.359   8.242  10.295  0.6981  0.8373 -0.2072
15678SOL    HW250627  10.366   8.143  10.410 -1.0281 -0.0236 -0.8019
15679SOL     OW50628   2.563   2.320   1.773  0.2235 -0.3003  0.7458
15679SOL    HW150629   2.629   2.299   1.707  1.4788  0.4752  1.7112
15679SOL    HW250630   2.612   2.326   1.855 -1.0461  0.3217  1.4907
15680SOL     OW50631   3.074   6.736   3.684  0.2173 -0.0712  0.5045
15680SOL    HW150632   3.141   6.676   3.654 -1.1050 -2.4013  1.9169
15680SOL    HW250633   3.053   6.707   3.773 -1.0666  1.9911  0.9516
15681SOL     OW50634   8.777   7.369   6.248 -0.2715 -0.1890  0.5406
15681SOL    HW150635   8.742   7.280   6.249 -1.2017  0.1225 -0.8828
15681SOL    HW250636   8.792   7.390   6.340 -1.5884 -1.2295  1.0309
15682SOL     OW50637   2.878   3.561   7.221 -0.2155  0.2835 -0.1862
15682SOL    HW150638   2.909   3.613   7.146 -0.2159  0.0304 -0.3642
15682SOL    HW250639   2.788   3.588   7.233  0.1402  1.2106  0.4943
15683SOL     OW50640   2.068   3.028   1.005 -0.2239  0.0548  0.3117
15683SOL    HW150641   1.984   2.986   0.988  0.9584 -1.8740 -1.3202
15683SOL    HW250642   2.091   3.001   1.094 -1.0750  0.1503  0.5651
15684SOL     OW50643   2.930   6.448   9.789  0.0266  0.4391 -0.0684
15684SOL    HW150644   2.930   6.398   9.708 -0.6924 -0.2262  0.3367
15684SOL    HW250645   2.925   6.383   9.858 -0.6033  1.0380  0.4733
15685SOL     OW50646   7.030   1.711   0.872  0.0090  0.2960  0.7200
15685SOL    HW150647   7.063   1.678   0.956 -0.9807  1.3864  1.5880
15685SOL    HW250648   6.965   1.777   0.897 -0.7463  0.2177 -0.9240
15686SOL     OW50649   5.610   6.371   2.728  0.0036 -0.4835  0.1059
15686SOL    HW150650   5.630   6.284   2.763  0.3728 -0.3350  0.2776
15686SOL    HW250651   5.643   6.431   2.794 -1.1846 -0.2139  0.4767
15687SOL     OW50652   2.975   9.144   8.511 -0.4574 -0.2308  0.0738
15687SOL    HW150653   2.906   9.084   8.484 -1.2683 -0.1736  1.8456
15687SOL    HW250654   2.932   9.230   8.515 -0.0458 -0.0292  0.2708
15688SOL     OW50655   8.273   2.110   1.295  0.1523 -0.7991  0.1070
15688SOL    HW150656   8.343   2.089   1.232  0.2475  0.5395 -0.2529
15688SOL    HW250657   8.259   2.028   1.343  2.3024 -0.9775  0.5158
15689SOL     OW50658   8.548  10.828   4.985 -0.0538 -0.2050  0.4221
15689SOL    HW150659   8.507  10.908   4.949 -2.8504 -0.7197  2.1426
15689SOL    HW250660   8.529  10.761   4.919  0.3525  0.0752  0.0075
15690SOL     OW50661   7.801   4.327   4.037  0.4445  0.2235 -0.0065
15690SOL    HW150662   7.710   4.353   4.020 -0.0575 -1.3826  0.1136
15690SOL    HW250663   7.825   4.376   4.116 -0.5120  0.2092  0.3064
15691SOL     OW50664  10.866   3.810   0.082  0.3540  0.1659 -0.2082
15691SOL    HW150665  10.864   3.829  -0.011 -0.0985  1.6982  0.0764
15691SOL    HW250666  10.959   3.810   0.105  0.5205 -1.1874 -0.8140
15692SOL     OW50667   3.784   8.637   6.689 -0.1978 -0.1404 -0.0811
15692SOL    HW150668   3.796   8.671   6.600 -1.0753  1.9880  0.5601
15692SOL    HW250669   3.833   8.698   6.744 -0.0811 -1.1541  0.9658
15693SOL     OW50670   1.375   4.082   1.304 -0.1909  0.0132  0.1626
15693SOL    HW150671   1.403   4.160   1.256 -1.8443  0.4102 -0.2191
15693SOL    HW250672   1.288   4.105   1.339 -0.2581 -1.2910  0.9173
15694SOL     OW50673   4.838   8.118   3.258 -0.5879 -0.3384 -0.9432
15694SOL    HW150674   4.896   8.048   3.229 -1.8948 -2.8265  1.8793
15694SOL    HW250675   4.889   8.167   3.322 -0.7079 -0.8944 -0.4065
15695SOL     OW50676   0.539   1.224   9.119 -0.1409 -0.0171 -0.0219
15695SOL    HW150677   0.630   1.254   9.123 -0.1069 -0.2237  1.4475
15695SOL    HW250678   0.541   1.137   9.159 -0.7072 -0.8156 -1.6379
15696SOL     OW50679   8.194   7.977   3.655  0.0952 -0.6502 -0.0914
15696SOL    HW150680   8.204   8.069   3.676  0.4935 -0.5277 -0.7988
15696SOL    HW250681   8.267   7.934   3.700 -0.8728 -0.8235  1.3886
15697SOL     OW50682   8.336   7.607   3.684  0.1164  0.0435 -0.6660
15697SOL    HW150683   8.375   7.520   3.671 -2.3263 -1.4639  1.2470
15697SOL    HW250684   8.411   7.667   3.682  2.0979 -2.2695 -0.5642
15698SOL     OW50685   8.157   8.308   0.916 -0.2628 -0.5600 -0.7848
15698SOL    HW150686   8.205   8.347   0.842  1.6300  1.8721  1.5307
15698SOL    HW250687   8.214   8.238   0.948  1.2246  1.3169  0.9961
15699SOL     OW50688   7.926   1.446   9.254 -0.0396 -0.5588  0.1021
15699SOL    HW150689   7.899   1.455   9.163 -0.0015 -2.5836 -0.1606
15699SOL    HW250690   8.022   1.444   9.251 -0.0365 -2.2882 -0.0758
15700SOL     OW50691   0.752   9.823  10.887  0.5865 -0.4350 -0.4126
15700SOL    HW150692   0.732   9.911  10.918 -0.4432 -0.8710  0.2151
15700SOL    HW250693   0.691   9.809  10.814 -2.2316 -2.0978  2.0670
15701SOL     OW50694   4.279   8.662   4.857 -0.0116  0.2597 -0.5830
15701SOL    HW150695   4.240   8.583   4.893  0.8006  0.2407  0.2789
15701SOL    HW250696   4.350   8.631   4.801  1.5958  0.3881  1.2845
15702SOL     OW50697   1.939   9.086   8.445 -0.0256  0.6261 -0.3782
15702SOL    HW150698   1.889   9.133   8.512  1.5123  1.0404  0.5273
15702SOL    HW250699   1.936   9.144   8.368 -1.8117  0.1428 -0.7102
15703SOL     OW50700   4.105   0.991   0.425  0.6440 -0.2483  0.3844
15703SOL    HW150701   4.137   1.003   0.515 -2.1950  1.0652  1.3488
15703SOL    HW250702   4.078   1.078   0.398 -2.4018 -1.2452 -0.1129
15704SOL     OW50703   2.422   8.385   4.522  0.2370  0.1598 -0.6264
15704SOL    HW150704   2.467   8.342   4.449  1.6039  0.1222  0.2064
15704SOL    HW250705   2.488   8.390   4.591 -1.4639 -1.3387  1.2539
15705SOL     OW50706   3.775   6.805   2.448 -0.0187 -0.0223  0.4075
15705SOL    HW150707   3.734   6.862   2.513  0.7275  1.0272 -0.0124
15705SOL    HW250708   3.709   6.737   2.431 -0.3622 -0.1308  1.9802
15706SOL     OW50709   4.767   9.219   7.134 -0.3880 -0.0873 -0.5013
15706SOL    HW150710   4.690   9.173   7.166 -1.8750  1.2374 -1.9554
15706SOL    HW250711   4.770   9.200   7.040  1.9727 -1.2937 -0.2764
15707SOL     OW50712   5.698   9.408   3.015 -0.1913 -0.0290  0.1612
15707SOL    HW150713   5.654   9.382   3.095  0.6735 -1.1913  0.2872
15707SOL    HW250714   5.704   9.328   2.963 -1.3919  0.8401 -1.4189
15708SOL     OW50715   2.433   7.554   1.745  0.6719 -0.2512 -1.0956
15708SOL    HW150716   2.365   7.621   1.751  1.6238  0.7994 -1.7765
15708SOL    HW250717   2.499   7.591   1.688  0.9056 -2.0785 -2.0910
15709SOL     OW50718  10.274   4.862   6.794 -0.1744 -0.2889  0.3341
15709SOL    HW150719  10.251   4.882   6.704 -0.9428 -2.1481  0.0771
15709SOL    HW250720  10.369   4.878   6.798  0.3121 -2.2391 -1.4468
15710SOL     OW50721   9.329   7.648   5.532  0.2306  0.2292  0.2370
15710SOL    HW150722   9.365   7.709   5.468  2.7919 -0.6941  0.6716
15710SOL    HW250723   9.360   7.681   5.617  3.0453 -2.3273  0.3915
15711SOL     OW50724   7.560   9.134   5.333  0.0916  0.0415  0.2325
15711SOL    HW150725   7.577   9.128   5.239  1.8879 -1.6588  0.5879
15711SOL    HW250726   7.608   9.212   5.361  0.4582 -0.0567 -0.1067
15712SOL     OW50727   5.370   5.058  10.975 -0.6849  0.1471 -0.2061
15712SOL    HW150728   5.427   4.990  10.938 -1.1857 -0.0303 -0.6727
15712SOL    HW250729   5.317   5.012  11.040  0.3103  0.4931  0.8760
15713SOL     OW50730   5.367  10.939   3.877 -0.5900  0.3663 -0.1085
15713SOL    HW150731   5.433  10.944   3.808  0.5040 -1.2223  0.7440
15713SOL    HW250732   5.311  10.865   3.850  0.0500 -0.4838  0.8266
15714SOL     OW50733   7.958   8.402   5.487 -0.2799 -0.1053  0.7985
15714SOL    HW150734   7.888   8.414   5.551 -0.6827  0.2033  0.3017
15714SOL    HW250735   7.989   8.490   5.467 -1.4615 -0.0233 -0.8708
15715SOL     OW50736   1.626   3.016   7.569  0.1303  0.0665  0.3120
15715SOL    HW150737   1.541   3.018   7.526 -0.1995 -1.0210  0.8766
15715SOL    HW250738   1.677   3.084   7.525 -0.4694 -0.4267 -1.2179
15716SOL     OW50739   0.388   7.280   1.536 -0.4014 -0.1171 -0.3448
15716SOL    HW150740   0.378   7.348   1.470 -2.2745 -1.0163 -1.0752
15716SOL    HW250741   0.308   7.285   1.589  0.4221 -0.3474  0.9703
15717SOL     OW50742   9.209   7.257   2.271  0.1016  0.6485 -0.1510
15717SOL    HW150743   9.135   7.265   2.212  0.7523  1.3065 -0.9029
15717SOL    HW250744   9.202   7.332   2.330 -0.2422  0.2927  0.2703
15718SOL     OW50745   9.158   8.093   8.387  0.1455  0.2166 -0.3772
15718SOL    HW150746   9.175   8.137   8.470 -0.4680  0.5746 -0.4327
15718SOL    HW250747   9.209   8.142   8.323  0.4480  0.0734 -0.2463
15719SOL     OW50748   8.161   9.952   1.509 -0.6155  0.0974 -0.1813
15719SOL    HW150749   8.145   9.858   1.500  0.5193  0.0331 -2.0975
15719SOL    HW250750   8.113   9.992   1.436  0.9009  0.7107 -0.9043
15720SOL     OW50751   4.705   5.677   9.185  0.2018  0.0133  0.2091
15720SOL    HW150752   4.686   5.763   9.222 -1.1072 -0.5856  1.0000
15720SOL    HW250753   4.619   5.637   9.171  0.6441 -0.0850 -2.8296
15721SOL     OW50754   8.742   3.416   2.433 -0.1957 -0.0284 -0.1741
15721SOL    HW150755   8.757   3.322   2.443  0.6204  0.1320  0.2493
15721SOL    HW250756   8.656   3.431   2.470 -1.0304 -0.8414 -1.6942
15722SOL     OW50757  10.513   7.616   1.572  0.3759 -0.5107  0.3249
15722SOL    HW150758  10.608   7.609   1.562  0.3027 -2.0156  0.4555
15722SOL    HW250759  10.499   7.618   1.666  0.3528  1.6651  0.3324
15723SOL     OW50760   6.478   8.185   6.635 -0.0610  0.5323  0.1752
15723SOL    HW150761   6.416   8.126   6.591  0.7106  1.1441 -1.8894
15723SOL    HW250762   6.489   8.148   6.722 -0.9224 -1.3841 -0.4601
15724SOL     OW50763   9.809   2.708   2.123 -0.4164  0.1907 -0.3238
15724SOL    HW150764   9.776   2.643   2.185 -0.2577  0.0926 -0.3430
15724SOL    HW250765   9.829   2.658   2.044  2.3549 -0.2282  0.5360
15725SOL     OW50766  10.763   2.152   5.590  0.2660 -0.1971  0.2954
15725SOL    HW150767  10.855   2.125   5.594  0.3292 -0.0270  0.0726
15725SOL    HW250768  10.715   2.084   5.637  0.6127  0.2115  1.2616
15726SOL     OW50769   9.652   2.921   2.213  0.4725 -0.2528  0.1168
15726SOL    HW150770   9.707   2.998   2.205 -1.9239  1.6654  0.8683
15726SOL    HW250771   9.713   2.848   2.216  2.8401  1.5668 -0.7875
15727SOL     OW50772   6.816   8.879   5.244 -0.5552  0.1304 -0.1532
15727SOL    HW150773   6.770   8.864   5.326 -0.4213  0.6272  0.0157
15727SOL    HW250774   6.786   8.964   5.214  0.4399  0.5890  0.0999
15728SOL     OW50775   3.231   9.152   3.554 -0.4113 -0.2470  0.3557
15728SOL    HW150776   3.136   9.147   3.567 -0.6401  0.8015 -0.7060
15728SOL    HW250777   3.257   9.063   3.531 -1.1619 -0.5192  0.5130
15729SOL     OW50778   0.338   8.815   2.280  0.1432 -0.5599 -0.1301
15729SOL    HW150779   0.310   8.897   2.240 -1.1748  0.3244  2.3215
15729SOL    HW250780   0.408   8.840   2.340  1.1702 -1.5882 -0.8724
15730SOL     OW50781   6.501   4.639   7.819 -0.0923  0.3934 -0.5097
15730SOL    HW150782   6.589   4.604   7.833 -0.6946 -1.1259 -0.3460
15730SOL    HW250783   6.473   4.666   7.906  0.0452  0.4532 -0.4836
15731SOL     OW50784   5.640   7.922   0.335 -0.1440 -0.1538 -0.0795
15731SOL    HW150785   5.618   7.863   0.262 -1.5170  2.3101 -1.8092
15731SOL    HW250786   5.611   8.008   0.305 -0.5949  1.0219  3.3505
15732SOL     OW50787   4.439   8.304   7.101  0.3576  0.1093  0.3282
15732SOL    HW150788   4.430   8.220   7.056 -0.3503 -0.0560  0.7584
15732SOL    HW250789   4.362   8.309   7.158  1.5651  0.0056  2.0281
15733SOL     OW50790   6.496   1.289   1.431 -0.1985  0.2109  0.0462
15733SOL    HW150791   6.549   1.243   1.496 -0.9198 -0.6154  0.0701
15733SOL    HW250792   6.546   1.369   1.411  0.7872 -0.2928  0.4407
15734SOL     OW50793   6.679   3.259   2.440 -0.2641 -0.1409 -0.3976
15734SOL    HW150794   6.609   3.320   2.417  2.2600  3.2121 -0.1194
15734SOL    HW250795   6.745   3.272   2.372  0.5373 -2.3863 -0.1041
15735SOL     OW50796   5.767   6.766   6.182 -0.0707  0.0180 -0.8332
15735SOL    HW150797   5.798   6.706   6.250 -0.3532  2.1008  1.2568
15735SOL    HW250798   5.838   6.829   6.172 -0.0391 -0.2379 -2.5450
15736SOL     OW50799   8.232   1.373  11.058 -0.0708 -0.0015 -0.4020
15736SOL    HW150800   8.243   1.445  10.995 -3.0172  1.0658  0.1510
15736SOL    HW250801   8.264   1.409  11.141  1.6834 -0.6147 -0.7693
15737SOL     OW50802   7.528   3.257   8.557  0.5526 -0.3041 -0.2620
15737SOL    HW150803   7.548   3.350   8.546 -0.1904 -0.1261 -0.1439
15737SOL    HW250804   7.473   3.253   8.635 -1.9479 -0.4707 -1.9192
15738SOL     OW50805   1.330  10.754   2.957 -0.4371 -0.0426  0.1454
15738SOL    HW150806   1.296  10.794   3.037 -0.0842 -1.4127  1.0187
15738SOL    HW250807   1.340  10.827   2.896  0.2299  1.2074  1.6673
15739SOL     OW50808  10.767   3.302   3.393  0.6625 -0.2875 -0.2566
15739SOL    HW150809  10.746   3.265   3.479  0.2665  1.1141  0.2677
15739SOL    HW250810  10.855   3.268   3.374  0.9774 -0.1964  0.9466
15740SOL     OW50811   1.944   0.940   7.059 -0.0324 -0.1120  0.6119
15740SOL    HW150812   1.974   1.006   6.997 -1.4865 -2.1151 -2.4612
15740SOL    HW250813   2.022   0.891   7.083  0.4521  0.2416 -0.2191
15741SOL     OW50814   0.772   6.106   4.169  0.3499  0.5412  0.9490
15741SOL    HW150815   0.768   6.202   4.173 -4.2186  0.5559  1.3905
15741SOL    HW250816   0.745   6.085   4.079 -0.2691 -0.3299  1.3286
15742SOL     OW50817  10.299   8.761   4.768  0.2983  0.3000  0.1819
15742SOL    HW150818  10.223   8.710   4.796  0.5474 -0.2544 -0.1406
15742SOL    HW250819  10.304   8.832   4.832 -0.1027 -0.0308  0.5947
15743SOL     OW50820   5.351  10.208  10.932  0.0494  0.1088  0.1119
15743SOL    HW150821   5.282  10.238  10.991 -0.9216  0.4777 -1.1830
15743SOL    HW250822   5.305  10.163  10.861  1.0849  0.9190 -1.1110
15744SOL     OW50823   1.595   7.056   6.352 -0.2126  0.1378  0.3550
15744SOL    HW150824   1.605   7.114   6.276  0.5034 -1.3196 -0.7297
15744SOL    HW250825   1.505   7.023   6.345  0.5077 -1.7148 -1.2416
15745SOL     OW50826   2.552  10.251   1.072  0.1468 -0.4783  0.1403
15745SOL    HW150827   2.578  10.178   1.015  0.6480 -0.3688  0.2320
15745SOL    HW250828   2.623  10.260   1.135 -0.2456 -0.3691  0.5726
15746SOL     OW50829   6.345   3.885   8.286 -0.1710  0.1538  0.6245
15746SOL    HW150830   6.400   3.882   8.208 -0.1346  0.2544  0.6472
15746SOL    HW250831   6.375   3.812   8.339 -0.2533  0.0312  0.5058
15747SOL     OW50832   3.294  11.049   6.108  0.9283 -0.3719  0.1817
15747SOL    HW150833   3.285  10.953   6.109  0.9392 -0.4109 -1.2364
15747SOL    HW250834   3.210  11.081   6.141  0.3426 -0.8699 -0.7625
15748SOL     OW50835   2.546   3.362   1.745  0.0167  0.0402 -0.2832
15748SOL    HW150836   2.472   3.303   1.726  0.8605 -0.7509 -1.2235
15748SOL    HW250837   2.570   3.343   1.835  1.1190 -2.0454 -0.9684
15749SOL     OW50838   6.826   8.990   9.102 -0.4931  0.3452 -0.1818
15749SOL    HW150839   6.811   8.900   9.132 -1.5691  0.7968  0.6980
15749SOL    HW250840   6.790   9.044   9.172  0.4800  1.4755 -0.5297
15750SOL     OW50841   3.822   6.538  10.337 -0.0685 -0.0503 -0.4510
15750SOL    HW150842   3.837   6.455  10.292 -0.1014 -0.6226  0.5549
15750SOL    HW250843   3.902   6.588  10.323  0.6082 -0.8968  0.2736
15751SOL     OW50844   7.507   9.687   0.833 -0.7828  0.7028 -0.4451
15751SOL    HW150845   7.513   9.755   0.766  1.1151 -0.2594 -1.3537
15751SOL    HW250846   7.549   9.725   0.910 -2.0213  1.4389 -0.1149
15752SOL     OW50847   9.735  10.615   3.741  0.0722  0.4947 -0.5576
15752SOL    HW150848   9.806  10.606   3.677  0.9207 -1.3878  0.5693
15752SOL    HW250849   9.727  10.709   3.755  3.1480  0.7660  0.0976
15753SOL     OW50850   3.149  10.144   6.312  0.2727  0.1356  0.3621
15753SOL    HW150851   3.067  10.097   6.295 -0.3495  1.3520 -0.1797
15753SOL    HW250852   3.217  10.080   6.296 -0.5700 -0.9600  0.9891
15754SOL     OW50853   0.496   0.185   2.689 -0.3198 -0.1086  0.0446
15754SOL    HW150854   0.512   0.113   2.749 -0.7379 -0.6060 -0.4303
15754SOL    HW250855   0.420   0.158   2.638 -0.7336  0.8486  0.1346
15755SOL     OW50856   0.991  10.965   3.944  0.0376 -0.1180  0.0179
15755SOL    HW150857   1.036  10.940   3.864 -0.1528 -1.6493  0.3457
15755SOL    HW250858   0.920  10.901   3.953 -0.7595  0.8198  0.7327
15756SOL     OW50859   9.350   5.247   6.538  0.2378 -0.3513  0.0758
15756SOL    HW150860   9.367   5.153   6.536  1.3355 -0.2761  2.2928
15756SOL    HW250861   9.300   5.265   6.458 -1.1366 -3.0110  0.2528
15757SOL     OW50862   3.256   8.101  10.152  0.0401  0.2622  0.1490
15757SOL    HW150863   3.339   8.090  10.106  0.4253 -0.1323  0.9186
15757SOL    HW250864   3.192   8.118  10.083  0.8734  1.2934 -0.4034
15758SOL     OW50865   9.771   0.766   1.593  0.4015  0.4468 -0.7339
15758SOL    HW150866   9.800   0.852   1.563 -1.2607  1.4452  0.3401
15758SOL    HW250867   9.677   0.776   1.607  0.2978 -1.3310  0.1711
15759SOL     OW50868  10.379   4.735   7.871 -0.0159 -0.6958  0.2953
15759SOL    HW150869  10.423   4.810   7.910 -0.4440 -1.4758  2.4244
15759SOL    HW250870  10.451   4.675   7.848  0.2767  0.0023 -0.6678
15760SOL     OW50871   0.349   0.545  10.878  0.5011  0.3431 -0.1654
15760SOL    HW150872   0.375   0.484  10.809 -0.6025  0.9902 -1.2185
15760SOL    HW250873   0.420   0.609  10.882 -0.2302  1.3544 -2.0653
15761SOL     OW50874   0.626  10.622   4.176 -0.0485  0.1194 -1.0209
15761SOL    HW150875   0.557  10.605   4.112 -0.3993 -2.5895 -0.0420
15761SOL    HW250876   0.580  10.630   4.259  0.6640  0.5654 -0.6592
15762SOL     OW50877   6.324   1.004  10.992 -0.3721 -0.0170 -0.0911
15762SOL    HW150878   6.360   0.942  10.929  0.5611  1.0330 -0.6001
15762SOL    HW250879   6.399   1.035  11.042 -1.0791 -0.8455  1.6131
15763SOL     OW50880   1.564  11.016   6.530 -0.6970  0.2960  0.0119
15763SOL    HW150881   1.596  11.025   6.441  0.0926 -0.9208  0.1470
15763SOL    HW250882   1.608  11.085   6.579  1.6324 -1.1635  0.1412
15764SOL     OW50883   2.374   5.908   9.125  0.0006  0.8568 -0.2091
15764SOL    HW150884   2.318   5.986   9.125  3.0580  3.2731  0.8141
15764SOL    HW250885   2.343   5.856   9.199 -0.7783  2.1888  0.4410
15765SOL     OW50886   4.525   1.855   2.989  0.9042 -0.3492 -0.2011
15765SOL    HW150887   4.552   1.818   2.905  0.2504 -0.4612 -0.3708
15765SOL    HW250888   4.588   1.822   3.052  1.7895  0.2524 -0.7448
15766SOL     OW50889   9.590  10.683   9.717  0.0366 -0.1182 -0.3251
15766SOL    HW150890   9.633  10.617   9.771 -0.3110 -0.1527 -0.0810
15766SOL    HW250891   9.515  10.711   9.770 -0.0034  0.2344 -0.5658
15767SOL     OW50892   9.432   9.466   9.931  0.1153 -0.0270  0.1828
15767SOL    HW150893   9.385   9.406   9.989 -0.3930  0.5795  0.4161
15767SOL    HW250894   9.464   9.411   9.860 -1.2317 -0.4124 -0.1497
15768SOL     OW50895   9.254   4.304   0.652 -0.1805  0.0255 -0.3318
15768SOL    HW150896   9.347   4.299   0.672 -0.0332 -0.7884 -1.1894
15768SOL    HW250897   9.238   4.397   0.635  0.5316  0.1224 -0.4837
15769SOL     OW50898   1.808   6.152   1.751 -0.2786  0.1712  0.2132
15769SOL    HW150899   1.785   6.234   1.707  1.0279 -0.4058 -1.6301
15769SOL    HW250900   1.753   6.086   1.709  0.6737 -0.3166 -0.3019
15770SOL     OW50901   8.435   0.298   2.815  0.3409  0.4620 -0.6814
15770SOL    HW150902   8.470   0.291   2.904 -0.6315 -0.4605 -0.3597
15770SOL    HW250903   8.481   0.229   2.767 -1.2627 -1.0433 -0.1556
15771SOL     OW50904   6.025  10.393   6.049  0.3274  0.1551 -0.1818
15771SOL    HW150905   6.016  10.300   6.027  0.6353  0.1874 -0.4467
15771SOL    HW250906   6.065  10.432   5.971 -0.3091  0.6097 -0.2967
15772SOL     OW50907   4.829   7.700  10.591 -0.2447  0.5060  0.2807
15772SOL    HW150908   4.912   7.747  10.580 -0.4167  0.4974 -1.3794
15772SOL    HW250909   4.836   7.625  10.532 -1.5284  0.6461 -0.0791
15773SOL     OW50910   3.911   9.017   1.603  0.3886  0.0757  0.2957
15773SOL    HW150911   3.968   9.092   1.617  0.8682  0.0899 -1.4753
15773SOL    HW250912   3.826   9.055   1.582  0.6257  0.1505 -0.5778
15774SOL     OW50913   1.155   1.613   4.753  0.3600 -0.3217 -0.8238
15774SOL    HW150914   1.225   1.549   4.736  0.2017 -0.1203 -2.4143
15774SOL    HW250915   1.077   1.560   4.766  0.4042 -0.4904 -1.2241
15775SOL     OW50916   5.525  10.562  10.329  0.5480 -0.4337 -0.1283
15775SOL    HW150917   5.590  10.584  10.395  0.1587  0.6908 -0.0983
15775SOL    HW250918   5.535  10.630  10.262 -0.3673 -0.4297 -0.2740
15776SOL     OW50919   9.292  11.064   1.418  0.1477  0.4715 -0.5251
15776SOL    HW150920   9.198  11.083   1.412 -0.4331 -1.5784  0.8634
15776SOL    HW250921   9.327  11.136   1.469 -1.1039  0.2590  0.7273
15777SOL     OW50922  10.404   4.769   8.302  0.2550 -0.1975  0.0799
15777SOL    HW150923  10.401   4.861   8.328  1.4948 -1.0726  4.0340
15777SOL    HW250924  10.491   4.740   8.329  0.3563 -2.3143 -2.1822
15778SOL     OW50925   5.385   0.730   9.565  0.2057 -0.1216 -0.3389
15778SOL    HW150926   5.303   0.703   9.607  0.6540 -0.4422  0.3512
15778SOL    HW250927   5.427   0.647   9.540  0.7098  0.0026  0.0785
15779SOL     OW50928  10.161   8.807   6.311 -0.1145  0.9669 -0.0687
15779SOL    HW150929  10.158   8.840   6.221  0.2891  0.3078 -0.3318
15779SOL    HW250930  10.204   8.876   6.361  1.5238  0.4836 -0.7710
15780SOL     OW50931   6.066   2.806   7.460  0.0586 -0.4804  0.0254
15780SOL    HW150932   6.121   2.751   7.404  1.2827 -0.0948  0.8031
15780SOL    HW250933   6.021   2.865   7.400  1.7484  0.2762 -0.5539
15781SOL     OW50934   9.575   8.280   4.671  0.3221 -0.5408 -0.2854
15781SOL    HW150935   9.594   8.258   4.762 -0.2703  0.2604  0.0525
15781SOL    HW250936   9.633   8.355   4.653 -0.6033  0.2495 -0.0749
15782SOL     OW50937   1.782   5.334   4.381  0.1001 -0.1872 -0.1733
15782SOL    HW150938   1.862   5.381   4.361  0.1654 -0.0578  0.3869
15782SOL    HW250939   1.810   5.256   4.428 -0.0034 -0.8237 -1.1257
15783SOL     OW50940   0.071   6.423   4.795 -0.1354 -0.0841 -0.0138
15783SOL    HW150941   0.033   6.511   4.796 -0.2360 -0.0932 -1.6154
15783SOL    HW250942   0.112   6.414   4.882 -0.4952  1.3653  0.3302
15784SOL     OW50943   0.829   1.383   9.262 -0.7532 -0.2724  0.3608
15784SOL    HW150944   0.754   1.435   9.234 -1.7613 -1.6041  0.4590
15784SOL    HW250945   0.838   1.315   9.195  2.1053  1.3841 -1.1370
15785SOL     OW50946   5.233  10.713   2.128  0.2007 -0.0152 -0.3048
15785SOL    HW150947   5.263  10.804   2.135  0.3933 -0.1426  0.6867
15785SOL    HW250948   5.306  10.661   2.163 -0.8937 -0.3735  1.5993
15786SOL     OW50949   8.485   8.091   8.940  0.1171  0.2962  0.6667
15786SOL    HW150950   8.500   8.065   9.031 -0.1531  2.1450  1.2636
15786SOL    HW250951   8.557   8.150   8.919 -0.1340  0.3287 -0.1400
15787SOL     OW50952   5.130   9.348   0.259  0.3765  0.0901  0.0764
15787SOL    HW150953   5.096   9.432   0.292  0.3538  0.1514 -0.1003
15787SOL    HW250954   5.074   9.282   0.300 -1.0091  0.2657 -1.4377
15788SOL     OW50955   6.175  10.577   1.079  0.0828 -0.1056  0.2813
15788SOL    HW150956   6.145  10.504   1.026 -0.2507  0.1933  0.0523
15788SOL    HW250957   6.219  10.536   1.154  3.5484 -0.6036 -1.8004
15789SOL     OW50958   1.759   7.437   8.130  0.4575 -0.3579  0.0958
15789SOL    HW150959   1.800   7.444   8.044  0.7007 -0.9204  0.1595
15789SOL    HW250960   1.667   7.416   8.110 -0.5095  3.4106 -0.1241
15790SOL     OW50961   3.003   8.351   7.988 -0.2389  0.0940  0.5788
15790SOL    HW150962   3.091   8.325   8.015 -0.1832  0.2376  0.5358
15790SOL    HW250963   2.977   8.285   7.925 -0.8958 -1.0102  1.9596
15791SOL     OW50964   3.988   3.621   2.668  0.6674 -0.4998 -0.3368
15791SOL    HW150965   4.065   3.636   2.722 -0.7098  2.0110  1.1256
15791SOL    HW250966   3.926   3.575   2.725 -0.4247  1.2534 -0.0359
15792SOL     OW50967   6.579   5.979   0.326 -0.0462  0.3217 -0.3436
15792SOL    HW150968   6.543   5.914   0.386  0.2558 -0.8053 -1.3317
15792SOL    HW250969   6.649   5.933   0.280  0.2415  1.3817 -1.0178
15793SOL     OW50970   4.804   5.236  10.777 -0.3103 -0.0414  0.1167
15793SOL    HW150971   4.846   5.322  10.784 -1.2700  0.5403 -0.9533
15793SOL    HW250972   4.721   5.245  10.824 -0.9929  0.0320 -1.0517
15794SOL     OW50973   9.954   6.955   7.616  0.0454 -0.2517  0.4760
15794SOL    HW150974   9.863   6.926   7.614  0.4007 -1.4939 -2.1938
15794SOL    HW250975   9.952   7.043   7.578 -0.0907 -0.1659  0.6854
15795SOL     OW50976   4.792   5.806   7.426  0.6810 -0.0364  0.2692
15795SOL    HW150977   4.793   5.740   7.495  0.4035  0.2545  0.5569
15795SOL    HW250978   4.709   5.853   7.439 -0.1970 -1.0571 -1.2947
15796SOL     OW50979   0.300   6.670   4.748 -0.1812 -0.1978 -0.0786
15796SOL    HW150980   0.255   6.655   4.665 -0.1246 -2.9953  0.3170
15796SOL    HW250981   0.233   6.710   4.804 -0.7811 -0.0564 -0.8799
15797SOL     OW50982   0.292   8.045   8.663  0.6987 -0.4480  0.1561
15797SOL    HW150983   0.295   7.990   8.742  2.3171 -2.1083 -0.9925
15797SOL    HW250984   0.312   7.985   8.591  2.8533  1.6774 -1.1521
15798SOL     OW50985   7.710   6.488   2.050  0.1220 -0.3070 -0.1830
15798SOL    HW150986   7.665   6.447   1.975  3.2641 -2.3803 -1.1040
15798SOL    HW250987   7.685   6.435   2.125 -2.6127  1.4633  0.3351
15799SOL     OW50988   4.168   6.757   3.629  0.2427  0.7530  0.3840
15799SOL    HW150989   4.179   6.843   3.587  0.2466  0.6326  0.1413
15799SOL    HW250990   4.204   6.695   3.567  1.4404  0.6847  1.1174
15800SOL     OW50991   0.460   3.128   6.579 -0.0431  0.6555  0.7357
15800SOL    HW150992   0.488   3.056   6.522  0.5128  0.9270  0.6659
15800SOL    HW250993   0.467   3.092   6.668 -0.9361  0.2231  0.6412
15801SOL     OW50994   4.213  10.975   2.220 -0.1522 -0.1724 -0.8920
15801SOL    HW150995   4.173  11.032   2.154  0.6149 -1.2671 -2.3669
15801SOL    HW250996   4.282  10.929   2.173  0.3190 -1.1280  0.6587
15802SOL     OW50997  10.601   5.048   2.681 -0.0516  0.6914  0.8522
15802SOL    HW150998  10.594   5.126   2.626  0.4683  0.0734 -0.1188
15802SOL    HW250999  10.678   5.063   2.735  0.4570  0.5690  0.1762
15803SOL     OW51000   7.888   3.256   3.231  0.3489 -0.1263 -0.1134
15803SOL    HW151001   7.921   3.187   3.289 -1.6587 -0.3634  0.8150
15803SOL    HW251002   7.797   3.232   3.214  1.0763 -0.7367 -4.3891
15804SOL     OW51003  10.313   9.945   0.166 -0.8117  0.1676  0.2811
15804SOL    HW151004  10.241   9.977   0.111 -0.9544  3.0446  1.9220
15804SOL    HW251005  10.280   9.953   0.255  0.6957 -0.8544  0.9705
15805SOL     OW51006   4.331   6.828   8.769 -0.7694 -0.0843  0.1683
15805SOL    HW151007   4.412   6.825   8.820  0.3947  0.3356 -1.5648
15805SOL    HW251008   4.285   6.905   8.801  1.0611  1.5735 -0.9403
15806SOL     OW51009   5.670   1.552   1.257 -0.2196 -0.7001 -0.0483
15806SOL    HW151010   5.728   1.506   1.318  0.1719  0.9040  0.8483
15806SOL    HW251011   5.730   1.597   1.197 -0.5910 -0.9127 -0.5928
15807SOL     OW51012   5.333   0.283   9.382 -0.3114 -0.2654 -0.0444
15807SOL    HW151013   5.297   0.254   9.466  1.4264  1.1510  1.2426
15807SOL    HW251014   5.264   0.260   9.318 -1.6569 -1.4209  1.7080
15808SOL     OW51015   1.340   8.401   6.815 -0.3758 -0.2786 -0.1873
15808SOL    HW151016   1.298   8.484   6.793  0.8278  0.3359 -0.2256
15808SOL    HW251017   1.271   8.350   6.857 -1.2496  0.5672 -0.5462
15809SOL     OW51018   7.488   0.695   1.778 -0.5109 -0.0092  0.4665
15809SOL    HW151019   7.464   0.647   1.699 -0.4047  0.6182  0.0492
15809SOL    HW251020   7.431   0.772   1.778  1.0262  1.1624 -0.1917
15810SOL     OW51021   1.624   6.122   8.432 -0.2280  0.0888  1.1958
15810SOL    HW151022   1.580   6.207   8.440  0.3872  0.4616  0.7072
15810SOL    HW251023   1.555   6.062   8.403 -0.5288  0.5508  0.9469
15811SOL     OW51024   1.173  10.902   8.321 -0.2033 -0.6565  0.2556
15811SOL    HW151025   1.185  10.808   8.309 -0.4096 -1.1539  3.1393
15811SOL    HW251026   1.096  10.910   8.377  0.8146  1.0745  1.5300
15812SOL     OW51027   9.991   2.098  10.641  0.2034  0.2098 -0.2895
15812SOL    HW151028   9.957   2.052  10.565  2.4402 -0.8739 -0.7327
15812SOL    HW251029  10.082   2.119  10.618  1.0363 -0.3690  2.1275
15813SOL     OW51030   0.525   8.212   2.207  0.0605  0.5962 -0.0860
15813SOL    HW151031   0.520   8.180   2.297 -0.9512  1.6534  0.2574
15813SOL    HW251032   0.557   8.302   2.215  0.1286  0.6413 -0.8039
15814SOL     OW51033   7.062   7.259   4.599 -0.3013  0.3280  0.0854
15814SOL    HW151034   7.109   7.323   4.546  0.7887 -1.2742 -0.9517
15814SOL    HW251035   6.976   7.251   4.557 -0.4317  1.0629  0.2024
15815SOL     OW51036   0.634   2.546   7.314 -0.0670 -0.2242 -0.3171
15815SOL    HW151037   0.616   2.455   7.290 -2.1623  0.4584 -1.6007
15815SOL    HW251038   0.686   2.580   7.241 -1.1652  0.1763 -0.9330
15816SOL     OW51039   1.459   9.149   8.036  0.5796  0.1312 -0.3499
15816SOL    HW151040   1.408   9.128   8.114  1.1093  0.3429  0.0579
15816SOL    HW251041   1.437   9.080   7.973  0.4509 -0.2633  0.1270
15817SOL     OW51042   5.961   7.066   2.485 -0.0876  0.4269  0.2845
15817SOL    HW151043   5.907   7.069   2.405  0.2821  1.3478  0.0682
15817SOL    HW251044   5.963   6.973   2.507 -1.8798  0.3711  0.3779
15818SOL     OW51045   5.357   8.907   5.901 -0.2973  0.5977 -0.8220
15818SOL    HW151046   5.452   8.903   5.885 -0.3163  0.9646 -1.0420
15818SOL    HW251047   5.320   8.934   5.817 -0.4756  1.7079 -0.4124
15819SOL     OW51048   2.433   9.693   2.559 -0.2278  0.0322 -0.4751
15819SOL    HW151049   2.340   9.674   2.546 -0.0836 -0.0476 -1.4983
15819SOL    HW251050   2.434   9.776   2.606 -0.8271 -1.0673  1.5957
15820SOL     OW51051   3.401   2.934   4.957 -0.3905 -0.3216  0.2512
15820SOL    HW151052   3.346   2.856   4.947 -0.0063 -0.4448 -1.2088
15820SOL    HW251053   3.490   2.901   4.944 -0.2587  0.4153 -0.8320
15821SOL     OW51054   4.626   8.566   3.664 -0.2651  0.4098  0.0188
15821SOL    HW151055   4.539   8.557   3.625  0.8814  0.3528 -2.7781
15821SOL    HW251056   4.670   8.483   3.644  1.2630  1.4149 -1.0539
15822SOL     OW51057   4.334   0.838   4.225  0.2985 -0.0262 -0.1630
15822SOL    HW151058   4.354   0.859   4.317  0.8991  0.7972 -0.4746
15822SOL    HW251059   4.309   0.921   4.186  0.5959 -0.2693 -0.8936
15823SOL     OW51060   1.451   5.773   9.639 -0.0602  0.3167  0.2922
15823SOL    HW151061   1.537   5.764   9.681 -0.3043  0.5017  0.8438
15823SOL    HW251062   1.454   5.712   9.566  0.1827 -0.4236  0.9004
15824SOL     OW51063   4.037   0.160   8.883 -0.0273 -0.3844 -0.1750
15824SOL    HW151064   4.045   0.094   8.951  0.5109 -0.3864 -0.2333
15824SOL    HW251065   4.105   0.137   8.819  1.7702  1.5224  0.9004
15825SOL     OW51066   9.136   8.434   9.518  0.6480 -0.1072  0.1990
15825SOL    HW151067   9.210   8.397   9.566 -0.5699 -2.2899  0.5707
15825SOL    HW251068   9.166   8.519   9.486  3.2489 -0.9009  0.3759
15826SOL     OW51069  10.566   0.004   9.132  0.5561 -0.7668  0.4320
15826SOL    HW151070  10.496  -0.059   9.147  0.6172 -1.0644 -0.4510
15826SOL    HW251071  10.572   0.054   9.213  0.4784 -1.8694  1.1375
15827SOL     OW51072   9.923   2.579   3.614  0.3484 -0.2853  0.4244
15827SOL    HW151073   9.945   2.486   3.623 -2.1324 -1.3534 -2.6017
15827SOL    HW251074   9.850   2.592   3.674  0.5409 -0.3331  0.6730
15828SOL     OW51075   3.527   9.755   6.030 -0.3133  0.4533  0.0570
15828SOL    HW151076   3.617   9.727   6.016 -1.2730 -2.0571 -1.6759
15828SOL    HW251077   3.488   9.687   6.085 -1.3867  1.0999  0.1307
15829SOL     OW51078   5.165   4.295   2.628 -0.6853 -0.4287  0.1690
15829SOL    HW151079   5.196   4.365   2.570  0.2409 -1.4717 -0.6565
15829SOL    HW251080   5.091   4.256   2.581 -0.4398 -0.7677  0.0622
15830SOL     OW51081   7.938   1.803   9.763 -0.5719  0.6570  0.1776
15830SOL    HW151082   7.917   1.855   9.685 -1.1484  1.1013  0.6273
15830SOL    HW251083   7.976   1.866   9.824  0.8017  0.1361 -0.0861
15831SOL     OW51084   9.355   1.879   2.511  0.8511  0.3057 -0.8842
15831SOL    HW151085   9.448   1.856   2.502  0.8571 -0.3007  0.4371
15831SOL    HW251086   9.351   1.930   2.592  0.1698  1.2116 -1.4754
15832SOL     OW51087   6.233   8.072   2.984  0.0579 -0.2005 -0.0764
15832SOL    HW151088   6.138   8.069   2.992 -0.2305  4.0491  0.3035
15832SOL    HW251089   6.251   8.041   2.896 -1.8087  0.1494 -0.6181
15833SOL     OW51090   6.921   4.682   7.398  0.1876 -0.2810  0.0336
15833SOL    HW151091   6.928   4.638   7.483 -0.9090 -0.2055  0.1759
15833SOL    HW251092   7.011   4.694   7.371  0.5520 -2.0884  0.2737
15834SOL     OW51093   9.068   0.714   3.872  0.6510 -0.3586 -0.1020
15834SOL    HW151094   9.078   0.638   3.929 -2.0008  0.6097  1.8841
15834SOL    HW251095   9.001   0.688   3.808  0.3225  0.0343  0.0783
15835SOL     OW51096   1.076   4.220   0.393 -0.1603  0.1132 -0.2132
15835SOL    HW151097   1.085   4.307   0.355  1.2171  0.1838  0.2366
15835SOL    HW251098   0.986   4.194   0.372 -0.7973  1.8665  0.1435
15836SOL     OW51099   5.170   1.661  10.693  0.0206 -0.5910 -0.1130
15836SOL    HW151100   5.248   1.682  10.744 -0.3650 -1.6115  0.9485
15836SOL    HW251101   5.100   1.652  10.758 -1.6575  2.8027 -1.1855
15837SOL     OW51102   5.712   5.293   3.330  0.8049 -0.2175  0.6344
15837SOL    HW151103   5.634   5.259   3.287  1.4373  0.2177 -0.9184
15837SOL    HW251104   5.774   5.220   3.330  1.3240  0.2123 -0.5464
15838SOL     OW51105   7.878  10.734   7.702  0.5175 -0.5057 -0.3357
15838SOL    HW151106   7.941  10.803   7.684 -1.3605  1.6175  0.7821
15838SOL    HW251107   7.901  10.702   7.789 -0.1117  0.5380  0.2368
15839SOL     OW51108   1.154   5.748   0.715 -0.0962 -0.2607 -0.3604
15839SOL    HW151109   1.247   5.736   0.699 -0.2600 -0.0944 -1.5535
15839SOL    HW251110   1.112   5.718   0.634 -0.9268  1.7906 -0.7464
15840SOL     OW51111   3.986   1.749   4.540  0.2376  0.1196 -0.5021
15840SOL    HW151112   3.934   1.674   4.512 -0.6995  0.2981  0.6642
15840SOL    HW251113   4.018   1.788   4.458 -1.4589 -0.0100 -1.2666
15841SOL     OW51114   8.968   3.729  10.297  0.1525 -0.1202  0.0101
15841SOL    HW151115   8.930   3.759  10.214  0.4607 -0.1498 -0.1399
15841SOL    HW251116   9.053   3.694  10.274 -0.5539 -1.9655  0.0405
15842SOL     OW51117   8.309   6.028   4.431 -0.0062 -0.4591  0.3141
15842SOL    HW151118   8.236   5.978   4.394 -1.4113  1.9415 -0.3625
15842SOL    HW251119   8.376   6.027   4.363 -0.2317 -0.9477  0.0911
15843SOL     OW51120   7.357   4.788   4.105  0.0597  0.3365  0.1279
15843SOL    HW151121   7.365   4.718   4.170 -0.1023  0.1163 -0.0852
15843SOL    HW251122   7.380   4.746   4.022  1.0118  0.8017  0.1437
15844SOL     OW51123   8.619   9.130   4.030 -0.2255 -0.0823 -0.1623
15844SOL    HW151124   8.525   9.138   4.049 -0.0067  0.3785  0.7941
15844SOL    HW251125   8.662   9.170   4.105  0.7332  0.8926 -1.1974
15845SOL     OW51126   6.455   0.016   9.223 -0.0343  0.1938 -0.4026
15845SOL    HW151127   6.433   0.107   9.244 -0.9268 -0.3588  1.3066
15845SOL    HW251128   6.536   0.022   9.171 -0.0294  1.9449 -0.2615
15846SOL     OW51129   5.329   8.038   0.155  0.1206  0.1390 -0.2464
15846SOL    HW151130   5.396   8.020   0.089 -1.0133 -0.7409 -1.1844
15846SOL    HW251131   5.330   7.961   0.212  0.9320  0.7921  0.6843
15847SOL     OW51132   2.220   7.676   9.486 -0.2655  0.5190  0.1944
15847SOL    HW151133   2.220   7.666   9.581  0.6161  1.1915  0.2786
15847SOL    HW251134   2.226   7.587   9.452 -0.0892  0.3076  0.7741
15848SOL     OW51135   2.115   9.165  10.000 -0.0968 -0.0059  0.0763
15848SOL    HW151136   2.076   9.083   9.972  0.1725  0.7256 -2.6961
15848SOL    HW251137   2.139   9.150  10.092 -1.2511 -2.5260  0.0428
15849SOL     OW51138  10.714   4.114   6.278  0.6093 -0.2957  0.3475
15849SOL    HW151139  10.707   4.087   6.186  0.4779  0.4089  0.1486
15849SOL    HW251140  10.675   4.041   6.327  1.3941 -1.0345 -0.0949
15850SOL     OW51141   5.974   8.504   2.670  0.0270  0.0306 -0.0212
15850SOL    HW151142   5.970   8.436   2.602  1.4624 -1.4004  1.2443
15850SOL    HW251143   5.913   8.474   2.738  0.5819  0.0607  0.4951
15851SOL     OW51144   5.797   0.674   7.827  0.3061  0.6228 -0.2612
15851SOL    HW151145   5.806   0.732   7.751 -0.4824  0.6882 -0.3076
15851SOL    HW251146   5.749   0.598   7.793  1.8983 -0.3789 -0.3705
15852SOL     OW51147   2.878   3.193   7.022  0.5355 -0.0819  0.0096
15852SOL    HW151148   2.954   3.231   6.980  0.4422  0.5964  0.4413
15852SOL    HW251149   2.914   3.133   7.088  0.6863 -0.0942 -0.0849
15853SOL     OW51150   2.061   7.246   5.342 -0.3111  0.3207 -0.2068
15853SOL    HW151151   2.122   7.173   5.348 -1.0500 -0.3134 -0.3125
15853SOL    HW251152   2.117   7.324   5.349  0.3318 -0.2475  1.4041
15854SOL     OW51153   8.273   1.482  10.608 -0.0002  0.2820  0.2777
15854SOL    HW151154   8.349   1.440  10.568  0.8180  1.0959  0.9193
15854SOL    HW251155   8.213   1.411  10.628 -0.1093 -0.2296 -1.6668
15855SOL     OW51156   3.202   6.621   8.284 -0.3362 -0.3269  0.0559
15855SOL    HW151157   3.167   6.542   8.324  1.7511 -1.2038  0.2829
15855SOL    HW251158   3.175   6.616   8.192 -0.6217 -1.0546  0.1757
15856SOL     OW51159   8.110   6.745   9.878 -0.3336 -0.4497 -0.1817
15856SOL    HW151160   8.064   6.825   9.852 -1.4034 -0.3155  1.8921
15856SOL    HW251161   8.041   6.689   9.915  0.8843 -0.9961  1.3396
15857SOL     OW51162   7.945  10.219   7.286  0.2915 -0.3077 -0.0482
15857SOL    HW151163   7.861  10.175   7.299  0.3858 -0.3745  0.3487
15857SOL    HW251164   7.924  10.294   7.230 -0.3079  0.5168  1.2011
15858SOL     OW51165   9.102   2.149   8.235  0.1909  0.3419  0.6422
15858SOL    HW151166   9.013   2.161   8.267 -0.7845  1.6410 -2.2015
15858SOL    HW251167   9.111   2.055   8.220 -1.0092  0.2929  0.1935
15859SOL     OW51168   6.520   2.775   0.451 -0.2596  0.5151  0.3821
15859SOL    HW151169   6.607   2.809   0.471  0.6614 -1.2221 -0.4930
15859SOL    HW251170   6.478   2.766   0.536  0.4300  1.3363  0.8215
15860SOL     OW51171   5.358   7.856   3.688 -0.0409 -0.7368 -0.1079
15860SOL    HW151172   5.421   7.818   3.749  1.7429 -0.1769 -1.5171
15860SOL    HW251173   5.287   7.792   3.683  0.4397 -1.4379  1.4345
15861SOL     OW51174   7.281   7.784   2.793  0.2936 -0.1871  0.2285
15861SOL    HW151175   7.193   7.780   2.830 -0.3958  1.1154 -1.1420
15861SOL    HW251176   7.310   7.693   2.790 -2.2274 -1.0337 -1.9900
15862SOL     OW51177  10.516   1.941   5.291  0.4103  0.2851 -0.0887
15862SOL    HW151178  10.431   1.898   5.292 -0.4029  1.6071 -2.7215
15862SOL    HW251179  10.557   1.910   5.210  0.6520  2.7551 -0.9939
15863SOL     OW51180   5.269   8.365   9.262 -0.5324 -0.5122  0.3126
15863SOL    HW151181   5.333   8.304   9.225  0.0905 -0.4422  1.2098
15863SOL    HW251182   5.251   8.427   9.192  1.0782 -0.0205  0.2952
15864SOL     OW51183   7.106   3.499   3.716  0.0621 -0.0281  0.4370
15864SOL    HW151184   7.165   3.483   3.790  0.7911  0.6067  0.0042
15864SOL    HW251185   7.127   3.429   3.654  0.9422  0.6619 -0.0599
15865SOL     OW51186   1.009   8.516   0.540 -0.1283  0.1510 -0.3132
15865SOL    HW151187   0.963   8.600   0.540  0.7827  0.6978 -1.7103
15865SOL    HW251188   0.967   8.467   0.469  0.2648 -0.0289 -0.4198
15866SOL     OW51189   4.782   9.013   0.930 -0.4949 -0.1346 -0.5215
15866SOL    HW151190   4.837   9.034   0.854 -1.2631  1.7863 -0.6158
15866SOL    HW251191   4.704   8.972   0.893  0.1067 -1.3223 -0.5305
15867SOL     OW51192   7.072   7.628   8.876  0.6565  0.3455  0.5817
15867SOL    HW151193   7.018   7.584   8.941 -2.1554  4.0714  1.0484
15867SOL    HW251194   7.158   7.637   8.918  0.2453 -1.2484  1.8705
15868SOL     OW51195   5.476   3.452   3.859 -0.0052 -0.2739  0.2867
15868SOL    HW151196   5.470   3.392   3.933  0.4521 -0.5950  0.0683
15868SOL    HW251197   5.551   3.421   3.809  0.7935  0.9995  0.6319
15869SOL     OW51198   5.097   1.326   9.269  0.3087 -1.0223  0.0828
15869SOL    HW151199   5.029   1.265   9.240 -0.4680  0.0205 -0.3560
15869SOL    HW251200   5.156   1.334   9.194  0.8133 -1.7508  0.3850
15870SOL     OW51201   2.635   9.795  10.759  0.0446 -0.6026 -0.0175
15870SOL    HW151202   2.721   9.755  10.773  0.5764  0.4786 -0.0990
15870SOL    HW251203   2.654   9.888  10.744 -1.4018  0.6056  4.3754
15871SOL     OW51204   7.600   4.861   3.839  0.1402  0.3547  0.3385
15871SOL    HW151205   7.545   4.920   3.788  0.7725  0.0598 -0.7348
15871SOL    HW251206   7.549   4.781   3.847  0.6967 -0.2334 -1.4140
15872SOL     OW51207   0.376   5.104  11.011 -0.8688 -0.0309 -0.2902
15872SOL    HW151208   0.296   5.155  11.027 -0.8723 -0.4574  1.1859
15872SOL    HW251209   0.353   5.014  11.036 -0.5097 -0.5471 -1.7485
15873SOL     OW51210  10.243   8.642   7.332 -0.1128  0.0878  0.1958
15873SOL    HW151211  10.192   8.563   7.316  0.0891  0.3068 -1.9363
15873SOL    HW251212  10.185   8.699   7.383  0.3899 -2.0433  3.3533
15874SOL     OW51213   4.898   7.352   5.996 -0.5723 -0.4467 -0.3083
15874SOL    HW151214   4.860   7.440   5.992  0.4443 -0.0312 -1.2678
15874SOL    HW251215   4.861   7.307   5.920  1.1339  0.1068 -1.5216
15875SOL     OW51216   6.597   6.594   8.946 -0.0222 -0.5545 -0.1383
15875SOL    HW151217   6.619   6.647   8.869  2.2421  0.2166  0.9575
15875SOL    HW251218   6.538   6.649   8.997  1.9066  0.8432  0.7369
15876SOL     OW51219   4.056   9.446   2.342  0.0677  0.2754 -0.2119
15876SOL    HW151220   3.970   9.448   2.300  0.6462 -0.6098 -1.5021
15876SOL    HW251221   4.085   9.355   2.333  1.5928  0.7862 -0.7981
15877SOL     OW51222   8.590   7.609   8.098 -0.6213  0.2565  0.3470
15877SOL    HW151223   8.509   7.589   8.052  0.0922  1.9768 -1.8572
15877SOL    HW251224   8.633   7.674   8.043  3.1756 -1.9060  0.4342
15878SOL     OW51225   4.504   7.609   4.549 -0.0496 -0.6017  0.4163
15878SOL    HW151226   4.586   7.577   4.512  0.3942  0.3028  0.5978
15878SOL    HW251227   4.522   7.621   4.642  0.4916  2.2013  0.0348
15879SOL     OW51228   3.100   5.154   3.111  0.2111  0.5339 -0.4120
15879SOL    HW151229   3.153   5.075   3.125 -1.8197 -1.2130 -1.9565
15879SOL    HW251230   3.079   5.184   3.200 -0.1186 -1.5279  0.2661
15880SOL     OW51231   9.299   6.171  10.347 -0.6887  0.0157 -0.2991
15880SOL    HW151232   9.204   6.163  10.358 -0.5717  0.2210  1.1140
15880SOL    HW251233   9.334   6.159  10.435  0.6580 -0.7098 -0.9086
15881SOL     OW51234   5.138   5.504   3.686  0.3392  0.2777  0.3067
15881SOL    HW151235   5.138   5.551   3.770  0.8622 -0.3770  0.6792
15881SOL    HW251236   5.221   5.529   3.645  0.2721  0.2729  0.1682
15882SOL     OW51237   6.354  10.976   9.634  0.3491 -0.2328  0.3694
15882SOL    HW151238   6.445  11.002   9.648  0.2433  0.0610  0.5132
15882SOL    HW251239   6.317  10.967   9.722  0.2973 -0.5581  0.3153
15883SOL     OW51240   6.385   7.576   8.414  0.4571 -0.7432 -0.0690
15883SOL    HW151241   6.346   7.499   8.454 -0.1043 -1.8335 -2.4989
15883SOL    HW251242   6.323   7.646   8.430 -0.0388 -1.2866  0.4224
15884SOL     OW51243   6.365   9.810   8.775  0.8178  0.0609 -0.1765
15884SOL    HW151244   6.300   9.799   8.844  0.6344 -0.3667 -0.4145
15884SOL    HW251245   6.449   9.811   8.821  0.6183  1.5235  0.2331
15885SOL     OW51246   8.209   1.475   8.996  0.6022 -0.1654 -0.5545
15885SOL    HW151247   8.218   1.398   9.054  0.5836  1.4172  1.6725
15885SOL    HW251248   8.202   1.437   8.908  0.6421 -2.7103  0.4312
15886SOL     OW51249   4.363   7.534   7.233 -0.2514  0.0883  0.2831
15886SOL    HW151250   4.421   7.550   7.308  0.1522 -0.7658  0.1652
15886SOL    HW251251   4.275   7.545   7.268 -0.0647 -0.2522  0.8750
15887SOL     OW51252   1.320   9.778   7.242  0.3219 -0.1455 -0.8967
15887SOL    HW151253   1.399   9.742   7.201  0.4672 -0.0476 -0.7060
15887SOL    HW251254   1.252   9.767   7.176  0.4966 -0.2232 -1.0669
15888SOL     OW51255  10.883   1.399   1.958 -0.3875  0.3386 -0.5835
15888SOL    HW151256  10.920   1.451   1.886 -1.4003  0.4399 -1.0416
15888SOL    HW251257  10.841   1.463   2.015 -1.5605  0.0553 -1.1030
15889SOL     OW51258   1.762   8.246   2.227  0.2874  0.6213 -0.4371
15889SOL    HW151259   1.787   8.269   2.316  1.9911 -0.3055 -0.6359
15889SOL    HW251260   1.667   8.243   2.229  0.2180  2.1430  0.9427
15890SOL     OW51261   1.807   9.176   6.172  0.0079 -0.2026  0.3584
15890SOL    HW151262   1.772   9.243   6.230 -0.3457 -0.8798  0.9390
15890SOL    HW251263   1.735   9.113   6.162 -0.3157  0.4142 -1.6386
15891SOL     OW51264   5.494   0.386   7.993  0.0434  0.4250  0.4620
15891SOL    HW151265   5.427   0.395   8.060 -2.3649  0.3697 -1.7505
15891SOL    HW251266   5.536   0.302   8.011 -1.2911 -0.0887  1.2908
15892SOL     OW51267   0.073   2.222   5.335 -0.3105 -0.4873  0.5676
15892SOL    HW151268   0.074   2.276   5.256  0.8720 -0.9541  0.2288
15892SOL    HW251269   0.112   2.278   5.403 -0.4867 -0.3938  0.5907
15893SOL     OW51270   4.258   7.066   6.890 -1.1871  0.2487 -0.3591
15893SOL    HW151271   4.263   7.054   6.985 -3.4881  0.0106 -0.2106
15893SOL    HW251272   4.168   7.097   6.874 -0.6133  1.0595 -2.3885
15894SOL     OW51273   9.427   8.743   0.127  0.1660 -0.1938 -0.2843
15894SOL    HW151274   9.502   8.778   0.078  0.2807  1.9749  1.2967
15894SOL    HW251275   9.465   8.686   0.193  0.9295  3.4277  2.6972
15895SOL     OW51276   7.819   7.807   0.691  0.0630  0.0162 -0.0085
15895SOL    HW151277   7.851   7.816   0.601 -0.5733 -2.3376 -0.5440
15895SOL    HW251278   7.753   7.737   0.686  1.8345 -2.0764  2.6744
15896SOL     OW51279  10.347  10.713   7.749  0.9497  0.7548  0.1483
15896SOL    HW151280  10.376  10.630   7.787  0.1078  0.5939  0.4625
15896SOL    HW251281  10.348  10.698   7.655 -0.3832 -0.0417  0.2345
15897SOL     OW51282   8.304   5.761   4.186 -0.1930 -0.2456 -0.1906
15897SOL    HW151283   8.247   5.825   4.228 -0.4290 -0.5530 -0.0376
15897SOL    HW251284   8.251   5.723   4.116 -0.1827 -0.5386 -0.0425
15898SOL     OW51285  11.050   5.430   5.727  0.3681 -0.2184 -0.1117
15898SOL    HW151286  11.136   5.389   5.718 -0.0179 -1.3601  1.1122
15898SOL    HW251287  11.004   5.376   5.791 -0.8519  1.0472  0.1339
15899SOL     OW51288   9.019   6.145   6.230  0.5050  0.1057 -0.5313
15899SOL    HW151289   9.083   6.190   6.174  0.3127 -0.2347 -1.0350
15899SOL    HW251290   9.072   6.106   6.300  0.5874  1.8709  0.4528
15900SOL     OW51291   7.341   6.811   7.380  0.2103 -0.4339  0.1840
15900SOL    HW151292   7.400   6.876   7.342 -1.3657  0.6815 -0.4417
15900SOL    HW251293   7.281   6.788   7.309 -1.2015 -0.2134  1.2497
15901SOL     OW51294   0.070   4.419   6.537  0.0165  0.4400 -0.0538
15901SOL    HW151295   0.054   4.328   6.512  0.6697  0.0697  0.8431
15901SOL    HW251296   0.044   4.469   6.460  1.2379 -0.6181 -1.2028
15902SOL     OW51297   5.691   6.543   2.262 -0.1397  0.2058  0.8282
15902SOL    HW151298   5.727   6.503   2.341  1.2095  1.6068  0.9698
15902SOL    HW251299   5.710   6.479   2.193 -0.5657 -0.6452  1.4767
15903SOL     OW51300   9.050   4.250   4.597 -0.1457  0.0004  0.3347
15903SOL    HW151301   9.041   4.336   4.638  1.4867 -0.4333  1.7176
15903SOL    HW251302   8.960   4.226   4.573 -0.6520  2.0399 -0.0686
15904SOL     OW51303   6.183   8.636   6.488 -0.4434 -0.0515  0.3046
15904SOL    HW151304   6.149   8.657   6.575  0.9947  1.0284  0.6490
15904SOL    HW251305   6.278   8.641   6.498 -0.2608  1.1273 -1.5680
15905SOL     OW51306   5.095   2.049   8.252 -0.1195  0.1638 -0.3123
15905SOL    HW151307   5.106   2.144   8.261 -0.0156  0.1539 -0.3417
15905SOL    HW251308   5.064   2.021   8.339  1.8830 -0.0800  0.3607
15906SOL     OW51309   1.088  10.086  10.881 -0.9305  0.2981  0.6214
15906SOL    HW151310   1.049  10.029  10.947 -3.0167  0.9509 -0.0030
15906SOL    HW251311   1.057  10.173  10.903 -0.9540  0.6434 -0.7290
15907SOL     OW51312   0.726   0.533   1.794 -0.2158 -0.1998 -0.5369
15907SOL    HW151313   0.819   0.536   1.815 -0.3599  0.7050  0.0517
15907SOL    HW251314   0.717   0.462   1.731  0.9984  0.2734 -1.2770
15908SOL     OW51315   5.462   0.059   4.638 -0.1896 -0.2343  0.1424
15908SOL    HW151316   5.423  -0.019   4.678  1.7740 -1.6420 -0.5204
15908SOL    HW251317   5.451   0.046   4.544 -0.0352  0.3892  0.0307
15909SOL     OW51318   3.489   7.045  10.208  0.2260  0.5298 -0.2443
15909SOL    HW151319   3.402   7.005  10.215  0.0665  1.0954  1.3190
15909SOL    HW251320   3.471   7.134  10.177  0.2931  0.5087 -0.3446
15910SOL     OW51321   6.395   9.989   0.097  0.1539 -0.4479 -0.3637
15910SOL    HW151322   6.475   9.986   0.148  0.9683 -0.4822 -1.6077
15910SOL    HW251323   6.375  10.083   0.088 -0.5409 -0.4639  0.8174
15911SOL     OW51324   3.072   4.612  10.872 -0.0977 -0.2781  0.3581
15911SOL    HW151325   3.044   4.703  10.863  0.7216  0.0394  0.8452
15911SOL    HW251326   3.168   4.617  10.876  0.0774 -1.3062 -1.2544
15912SOL     OW51327   4.306   5.122  10.484  0.6223 -0.4625 -0.5352
15912SOL    HW151328   4.264   5.207  10.498 -1.8347 -1.5263 -0.8897
15912SOL    HW251329   4.375   5.139  10.420 -2.0321  0.7684 -3.3208
15913SOL     OW51330   3.312   3.354   8.441  0.4562 -0.1895 -0.5634
15913SOL    HW151331   3.346   3.276   8.485  0.7098 -0.0385 -0.4891
15913SOL    HW251332   3.225   3.366   8.477  1.2516  0.8864  1.1546
15914SOL     OW51333   7.168  10.525   3.124  0.5745  0.3454  0.1209
15914SOL    HW151334   7.231  10.457   3.148  0.3617  0.6942  1.8551
15914SOL    HW251335   7.089  10.477   3.099  0.2838 -0.1036  1.7499
15915SOL     OW51336  10.695   1.194   3.577  0.3204 -0.0698  0.7307
15915SOL    HW151337  10.766   1.228   3.522 -0.8432 -0.6491 -1.2321
15915SOL    HW251338  10.657   1.123   3.525 -2.0051  0.5355  1.5005
15916SOL     OW51339   8.305   8.218   8.627 -0.4791 -0.0699  0.0043
15916SOL    HW151340   8.244   8.183   8.562  1.1934 -0.1932 -1.5849
15916SOL    HW251341   8.352   8.287   8.581  3.0418 -2.2836 -0.0752
15917SOL     OW51342   0.640   9.306   6.722 -0.0889 -0.3587 -0.7011
15917SOL    HW151343   0.576   9.295   6.653 -1.9643  0.3551  0.8482
15917SOL    HW251344   0.716   9.255   6.693 -1.5576 -1.7345 -2.3091
15918SOL     OW51345   5.286   1.021   1.673  0.5572 -0.5253 -0.7438
15918SOL    HW151346   5.358   1.018   1.736  1.1371 -1.5534 -1.4300
15918SOL    HW251347   5.321   0.980   1.594 -0.2990  0.3289 -1.6006
15919SOL     OW51348   1.584   8.256  10.736 -0.0313  0.1516 -0.6306
15919SOL    HW151349   1.564   8.169  10.701 -0.4404 -0.2466  0.5399
15919SOL    HW251350   1.563   8.316  10.665 -1.7148 -0.5519 -0.7775
15920SOL     OW51351   6.648  10.815   0.881  0.1263 -0.0498  0.5492
15920SOL    HW151352   6.608  10.878   0.821 -1.5130  0.3044  1.9344
15920SOL    HW251353   6.704  10.868   0.937  0.3513 -0.1401  0.4123
15921SOL     OW51354   2.269   0.221   7.385  0.2499  0.0071  0.1171
15921SOL    HW151355   2.304   0.137   7.357  2.4086  0.7390  0.4835
15921SOL    HW251356   2.248   0.208   7.478 -0.6727 -0.4793 -0.1448
15922SOL     OW51357   6.831  10.782   7.916  0.1988 -1.1187  0.5316
15922SOL    HW151358   6.767  10.711   7.926  0.0978 -1.0031  0.7041
15922SOL    HW251359   6.851  10.809   8.006 -1.2945  0.4469  0.4254
15923SOL     OW51360   4.226   5.398   6.057  0.0056  0.1724  0.1457
15923SOL    HW151361   4.299   5.449   6.091 -0.4138  0.8072  0.1025
15923SOL    HW251362   4.153   5.417   6.116 -0.1931 -0.2572  0.0420
15924SOL     OW51363   5.165   2.431   9.637  0.2339  0.6065 -0.1458
15924SOL    HW151364   5.101   2.389   9.579 -0.1250  1.5709 -0.4839
15924SOL    HW251365   5.164   2.378   9.717  0.1548 -0.2884 -0.7308
15925SOL     OW51366   7.941   7.012   5.559  0.4311  0.0900 -0.4205
15925SOL    HW151367   7.893   6.974   5.486  1.2760  0.2860 -1.0911
15925SOL    HW251368   8.033   6.997   5.538  0.6833 -0.4355  0.9223
15926SOL     OW51369   5.025   8.177   2.137 -0.3885  0.5586 -0.7560
15926SOL    HW151370   4.980   8.098   2.108  0.0573 -0.0909  0.2570
15926SOL    HW251371   4.972   8.249   2.103 -1.4383 -0.1759 -0.7274
15927SOL     OW51372   6.474   1.262  10.613 -0.0707  0.1723 -0.2076
15927SOL    HW151373   6.392   1.267  10.663 -0.1385 -0.8173 -0.2128
15927SOL    HW251374   6.538   1.228  10.675  0.3360  0.8855 -0.2218
15928SOL     OW51375   0.014   6.795   9.601  0.0291 -0.4631  0.2449
15928SOL    HW151376   0.072   6.749   9.540 -0.8048 -1.8703  0.4702
15928SOL    HW251377   0.036   6.887   9.589  0.3212 -0.7424 -1.7408
15929SOL     OW51378  10.768   0.281   8.304 -0.2173  0.7879 -0.3001
15929SOL    HW151379  10.703   0.211   8.310  0.1333  0.5561  0.9741
15929SOL    HW251380  10.716   0.360   8.284 -0.8501  0.5295  0.2857
15930SOL     OW51381   3.831   1.800   7.617  0.5469  0.5309 -0.1655
15930SOL    HW151382   3.820   1.836   7.529  2.9451  1.6439 -0.1112
15930SOL    HW251383   3.902   1.736   7.608 -0.3763 -0.6565  0.6728
15931SOL     OW51384   4.473   0.126   1.176  0.3493 -0.6180  0.1307
15931SOL    HW151385   4.475   0.041   1.132 -0.4769 -0.2902 -0.5577
15931SOL    HW251386   4.540   0.178   1.131 -0.7602 -0.1572 -1.0319
15932SOL     OW51387   4.226   6.683   1.759  0.0259 -0.1963  0.0494
15932SOL    HW151388   4.315   6.652   1.741 -0.0717  0.0286 -0.8816
15932SOL    HW251389   4.175   6.655   1.683 -0.4864  0.5237  0.1183
15933SOL     OW51390   4.951   4.094   5.518 -0.0419 -0.6156  0.3143
15933SOL    HW151391   4.897   4.108   5.440  2.3902  1.4501 -1.1253
15933SOL    HW251392   4.979   4.002   5.512 -2.4565 -1.4448  0.5887
15934SOL     OW51393   2.183   6.999   6.729  0.1153  0.8836  0.0937
15934SOL    HW151394   2.138   6.921   6.697  2.3017 -0.4473  0.0679
15934SOL    HW251395   2.130   7.027   6.805 -0.7363 -0.5867  0.0903
15935SOL     OW51396   2.743   5.968   3.597 -0.1172 -0.5323  0.0394
15935SOL    HW151397   2.809   6.003   3.537  1.0485 -1.5281  0.6959
15935SOL    HW251398   2.684   6.042   3.613  1.1181  0.5447 -0.1664
15936SOL     OW51399  10.738   7.428  10.198 -0.1916 -0.1699 -0.0611
15936SOL    HW151400  10.796   7.498  10.228 -2.8225  2.5815 -0.8763
15936SOL    HW251401  10.674   7.419  10.268 -2.0107  0.9744 -1.4880
15937SOL     OW51402   0.482   3.731   1.088  0.0975 -0.4652 -0.3359
15937SOL    HW151403   0.405   3.785   1.069 -0.1177 -1.6103 -3.3003
15937SOL    HW251404   0.544   3.752   1.017  1.7792 -0.9185  0.9380
15938SOL     OW51405   4.657   3.704   4.621  0.4378 -0.0366  0.0658
15938SOL    HW151406   4.741   3.706   4.668  0.8346 -0.3175 -0.6218
15938SOL    HW251407   4.641   3.796   4.597 -0.7248  0.4440  2.3719
15939SOL     OW51408   4.672   1.444   4.240  0.3229  0.8534 -0.5657
15939SOL    HW151409   4.614   1.516   4.214 -0.8197 -0.2748 -1.2675
15939SOL    HW251410   4.703   1.407   4.157 -2.3019 -1.9381 -0.5091
15940SOL     OW51411   4.443   0.952   9.257 -0.1271  0.0682  0.8934
15940SOL    HW151412   4.378   0.903   9.206  1.1569 -0.9485  0.1616
15940SOL    HW251413   4.396   1.031   9.286 -1.6418 -0.5717  0.3158
15941SOL     OW51414   7.753   5.529  10.305  0.0374 -0.7829 -0.2900
15941SOL    HW151415   7.690   5.532  10.377  0.9746 -0.8009  0.5620
15941SOL    HW251416   7.837   5.547  10.347  0.3990  0.9053 -1.6593
15942SOL     OW51417   7.791  10.520   9.398 -0.2758 -0.7594 -0.6324
15942SOL    HW151418   7.699  10.540   9.418 -0.4118 -1.0840 -0.9281
15942SOL    HW251419   7.835  10.605   9.404 -0.8300 -0.3756 -1.7874
15943SOL     OW51420   6.770   5.543  10.673 -0.9297  0.0126 -0.7066
15943SOL    HW151421   6.718   5.568  10.597 -2.2999  0.1498  0.2327
15943SOL    HW251422   6.768   5.448  10.674 -1.5313  0.0235 -0.4496
15944SOL     OW51423   4.194   5.818   5.762  0.8258  0.6438 -0.1371
15944SOL    HW151424   4.247   5.843   5.686 -0.4126  0.3961 -1.1271
15944SOL    HW251425   4.217   5.727   5.779  0.0141  0.2063 -1.2283
15945SOL     OW51426   4.328   0.324   1.368  0.5026  0.2304 -0.5007
15945SOL    HW151427   4.246   0.356   1.332 -0.2153 -1.2984 -0.3159
15945SOL    HW251428   4.355   0.255   1.307  0.1022 -1.2822  0.9722
15946SOL     OW51429   2.576   0.384   1.823 -0.4714  0.2797  0.0840
15946SOL    HW151430   2.635   0.378   1.747  0.3667  0.0043  0.7400
15946SOL    HW251431   2.526   0.464   1.809 -1.5091 -0.6001 -1.5868
15947SOL     OW51432   5.226   3.110   6.983  0.3074  0.1482 -0.2608
15947SOL    HW151433   5.231   3.053   7.060  2.1916 -0.2549 -0.6171
15947SOL    HW251434   5.133   3.126   6.970 -0.1835 -1.6295  0.7604
15948SOL     OW51435   3.498   9.380   6.767 -0.2490  0.2304 -0.2840
15948SOL    HW151436   3.540   9.443   6.826  0.1216  0.3697 -0.6950
15948SOL    HW251437   3.418   9.424   6.739 -0.5194  0.0894  0.2549
15949SOL     OW51438   5.938   7.024  10.420 -0.4012  0.3538  0.7042
15949SOL    HW151439   5.884   6.951  10.389 -0.0262  1.1220 -1.9859
15949SOL    HW251440   6.008   6.982  10.469 -0.4054 -1.1089 -0.4621
15950SOL     OW51441   2.611   6.779   3.853 -0.4745  0.0299  0.1050
15950SOL    HW151442   2.544   6.744   3.911 -0.2970  0.4030  0.5386
15950SOL    HW251443   2.563   6.835   3.792 -0.5051  0.6563  0.6977
15951SOL     OW51444   8.298   7.748   5.409  0.3200 -0.4104 -0.4101
15951SOL    HW151445   8.305   7.741   5.504  2.2565  0.3995 -0.4377
15951SOL    HW251446   8.296   7.658   5.378  0.0921 -0.6814  0.3721
15952SOL     OW51447  10.075   3.859   8.876 -0.0176  0.0327 -0.1323
15952SOL    HW151448   9.982   3.880   8.875 -0.0286  0.1444  1.1512
15952SOL    HW251449  10.090   3.820   8.963  1.0292 -0.4510 -0.5110
15953SOL     OW51450   7.214   8.399   2.661  0.4775  0.2485  0.2301
15953SOL    HW151451   7.231   8.478   2.712  0.6580 -0.3763  1.1729
15953SOL    HW251452   7.139   8.359   2.703  1.1242 -0.6941  0.5290
15954SOL     OW51453   1.807   7.708  10.083  0.0240 -0.5961 -0.5012
15954SOL    HW151454   1.858   7.683  10.006  2.1603  0.9586  0.3189
15954SOL    HW251455   1.740   7.767  10.049  0.5675 -0.3947 -1.2439
15955SOL     OW51456   5.475   7.745   8.703 -0.1799  0.4873  0.5357
15955SOL    HW151457   5.559   7.712   8.672  0.0737  1.2065  0.4482
15955SOL    HW251458   5.497   7.805   8.774 -0.6310  0.5274  0.6461
15956SOL     OW51459   7.455   4.771  10.788 -0.0677 -0.1198 -0.6470
15956SOL    HW151460   7.471   4.849  10.735  0.9749  0.6815  0.7784
15956SOL    HW251461   7.372   4.736  10.754 -0.2015  1.1933 -1.7897
15957SOL     OW51462   9.127  10.160  10.407  0.9115  0.0268 -0.1140
15957SOL    HW151463   9.223  10.163  10.404  0.9948 -1.7449 -2.3944
15957SOL    HW251464   9.105  10.075  10.369 -1.5887  1.0517 -1.1851
15958SOL     OW51465   3.609   1.316   8.381 -0.0560  0.2552 -0.1366
15958SOL    HW151466   3.681   1.290   8.439 -1.8225 -0.5024  1.8601
15958SOL    HW251467   3.611   1.252   8.310  0.1515 -0.8732  0.8594
15959SOL     OW51468   3.952   6.190   8.257  0.1183  0.4618 -0.3939
15959SOL    HW151469   3.945   6.216   8.349 -1.4969  0.0444 -0.3605
15959SOL    HW251470   3.866   6.153   8.236 -0.2140  2.3044 -2.6212
15960SOL     OW51471   1.335   2.069  10.745  0.5039 -0.1393 -0.4827
15960SOL    HW151472   1.352   2.047  10.837  2.7227 -2.0803 -1.2553
15960SOL    HW251473   1.240   2.059  10.735  0.2962 -0.4765  1.4396
15961SOL     OW51474   1.040   5.487   7.420  0.6836 -0.3845  0.2636
15961SOL    HW151475   1.025   5.575   7.456  1.4702  0.1134 -0.5647
15961SOL    HW251476   0.960   5.438   7.442  0.9276  0.0095  2.2281
15962SOL     OW51477   8.744   5.376   8.342 -0.3006 -0.0701  0.1575
15962SOL    HW151478   8.730   5.303   8.403 -0.9781  0.1022  0.2157
15962SOL    HW251479   8.774   5.448   8.398 -2.1514  0.4823  0.5167
15963SOL     OW51480  11.014   9.254   2.468 -0.2740  0.2264 -0.2805
15963SOL    HW151481  10.942   9.313   2.490 -1.0259 -0.6652 -0.2711
15963SOL    HW251482  10.981   9.203   2.394  0.6663  0.3662 -0.8100
15964SOL     OW51483   6.124   0.842   3.679 -0.0337  0.5406 -0.2320
15964SOL    HW151484   6.182   0.884   3.743 -2.3180  0.7296  1.8487
15964SOL    HW251485   6.091   0.764   3.724 -0.4667 -0.2318 -1.8197
15965SOL     OW51486   2.530   9.373   0.174 -0.4199  0.3859 -0.2226
15965SOL    HW151487   2.568   9.358   0.261 -1.2659  4.5160  1.0720
15965SOL    HW251488   2.435   9.364   0.188 -0.5607  1.0694 -0.7066
15966SOL     OW51489   8.814   2.243   7.113 -0.1397 -0.4707  0.5114
15966SOL    HW151490   8.804   2.230   7.019 -1.0293 -0.8471  0.6428
15966SOL    HW251491   8.824   2.155   7.149 -0.5605 -0.3930  0.8369
15967SOL     OW51492   1.723   7.052   8.209 -0.2832  0.1591  0.1904
15967SOL    HW151493   1.784   7.115   8.246 -0.6730  0.4767  0.2991
15967SOL    HW251494   1.767   7.019   8.131  0.2136  0.0590  0.5059
15968SOL     OW51495   7.709   7.656  10.712  0.1083 -0.9382 -0.3729
15968SOL    HW151496   7.688   7.748  10.729  1.5638 -0.9665  2.1247
15968SOL    HW251497   7.791   7.658  10.663 -0.7928 -0.9386 -1.9469
15969SOL     OW51498   5.041  10.936   7.557  0.0276 -0.3547 -0.5241
15969SOL    HW151499   5.024  11.008   7.617  1.0067  0.1763 -0.8608
15969SOL    HW251500   5.117  10.891   7.594  0.1512 -0.4990 -0.9397
15970SOL     OW51501   1.843   3.257   6.060 -0.2266  0.3003 -0.3655
15970SOL    HW151502   1.901   3.230   5.989 -0.4939 -0.0333 -0.4578
15970SOL    HW251503   1.795   3.332   6.025 -0.8098 -0.2437 -0.7700
15971SOL     OW51504   2.803   5.706   8.653  0.1901 -0.3884 -0.3084
15971SOL    HW151505   2.831   5.677   8.567 -1.1759 -1.6628 -0.3541
15971SOL    HW251506   2.755   5.787   8.636 -0.5898 -0.9480 -0.8326
15972SOL     OW51507  11.007   5.919   5.761  0.3317  0.2237  0.1503
15972SOL    HW151508  10.963   5.839   5.790 -0.2502  0.2295 -0.7034
15972SOL    HW251509  10.966   5.941   5.677 -1.2404  2.7498  1.4427
15973SOL     OW51510   1.692   8.796   0.036 -0.0299 -0.1173 -0.2886
15973SOL    HW151511   1.708   8.702   0.042 -1.5821 -0.4082 -0.2061
15973SOL    HW251512   1.660   8.821   0.122 -1.2062  0.1303 -0.7681
15974SOL     OW51513   7.599   9.666   5.118 -0.2389 -0.0277  0.6204
15974SOL    HW151514   7.603   9.629   5.206  0.1682 -1.1753  0.1312
15974SOL    HW251515   7.631   9.756   5.129  2.6312 -1.0297  1.1782
15975SOL     OW51516   3.868   8.662   1.910  0.7364  0.0256 -0.3085
15975SOL    HW151517   3.786   8.682   1.955  0.2834 -1.7354 -0.2800
15975SOL    HW251518   3.844   8.655   1.818  0.9286 -0.0989 -0.3485
15976SOL     OW51519   3.311   7.710   0.752 -1.0185  0.0290 -0.3061
15976SOL    HW151520   3.265   7.704   0.668 -2.7171  1.3033  0.4890
15976SOL    HW251521   3.253   7.762   0.808  0.7478  0.4489  1.2174
15977SOL     OW51522   7.799  10.056  10.740 -0.2602  0.5855  0.4438
15977SOL    HW151523   7.845  10.050  10.824 -1.3696  1.1648  1.1201
15977SOL    HW251524   7.819  10.144  10.708  0.9495  0.0305 -0.4002
15978SOL     OW51525   8.516   0.935  10.373  0.3845 -0.2536 -0.0444
15978SOL    HW151526   8.495   0.942  10.467 -1.7459  0.1413 -0.4983
15978SOL    HW251527   8.515   0.841  10.356 -1.1786 -0.2737 -0.0211
15979SOL     OW51528   8.222  10.195   9.775  0.5417 -0.4105  0.1935
15979SOL    HW151529   8.248  10.253   9.703 -2.1996 -0.8607 -1.3314
15979SOL    HW251530   8.226  10.107   9.738  0.3476 -0.7778  1.0141
15980SOL     OW51531   0.261   6.068   8.838  0.2135  0.3718  0.2887
15980SOL    HW151532   0.320   5.994   8.853 -0.5295  0.0341  1.7340
15980SOL    HW251533   0.257   6.113   8.923 -1.1155  0.7490  0.0487
15981SOL     OW51534   1.090  10.362  10.480 -0.0733  0.1558 -0.1303
15981SOL    HW151535   1.060  10.391  10.565  0.4526  0.5123 -0.0640
15981SOL    HW251536   1.021  10.302  10.449 -1.6511  2.1568 -0.6974
15982SOL     OW51537   5.999   5.208   2.662 -0.5977  0.1267  0.1049
15982SOL    HW151538   5.962   5.250   2.584  0.4742  0.9964  0.0522
15982SOL    HW251539   5.959   5.255   2.736  1.7189  2.3480  0.0529
15983SOL     OW51540   4.622   9.479   6.423  0.2493 -0.3310 -0.4212
15983SOL    HW151541   4.692   9.421   6.452  1.0284  0.8749  0.2076
15983SOL    HW251542   4.599   9.448   6.336 -0.2423 -2.3425  0.3770
15984SOL     OW51543  10.271   9.502   9.178  0.2160 -0.3206 -0.2839
15984SOL    HW151544  10.272   9.530   9.087 -1.8135 -1.9642 -0.8758
15984SOL    HW251545  10.286   9.408   9.175  1.9740 -0.1610  1.2777
15985SOL     OW51546   5.927   8.786   1.460 -0.1815  0.2963 -0.3369
15985SOL    HW151547   5.884   8.863   1.497  0.2686 -0.0174  0.8691
15985SOL    HW251548   5.918   8.718   1.527  0.9086 -0.1977 -0.6707
15986SOL     OW51549   6.206   7.846   4.124 -0.1018  0.1700 -0.1168
15986SOL    HW151550   6.207   7.753   4.145  1.2283  0.5727  1.8818
15986SOL    HW251551   6.272   7.856   4.055 -0.2723 -0.3489 -0.3584
15987SOL     OW51552   1.565   9.595   4.437  0.4542  0.5865  0.0561
15987SOL    HW151553   1.482   9.620   4.398  0.2259  0.0842  0.2027
15987SOL    HW251554   1.631   9.635   4.381  0.1416 -0.3644 -1.0350
15988SOL     OW51555   5.735   0.198   7.655  0.5341  0.4921 -0.1212
15988SOL    HW151556   5.673   0.214   7.584 -0.7409  0.5311  0.9603
15988SOL    HW251557   5.732   0.277   7.708  1.3753  0.4176  0.0520
15989SOL     OW51558   7.743  11.026   5.042  0.9695  0.4496 -0.1546
15989SOL    HW151559   7.723  11.032   4.949  3.0309  0.3393 -0.6497
15989SOL    HW251560   7.797  11.103   5.060  1.9461 -0.3709  0.5645
15990SOL     OW51561   8.403  10.121   1.796  0.3592 -0.1882  0.0706
15990SOL    HW151562   8.336  10.153   1.857 -0.8889 -1.7980 -0.3724
15990SOL    HW251563   8.474  10.185   1.802  0.1979 -0.1812  3.0242
15991SOL     OW51564   0.404   1.404  10.625  0.1656  0.2516  0.9216
15991SOL    HW151565   0.376   1.481  10.673 -0.2948 -0.5236  1.9470
15991SOL    HW251566   0.363   1.413  10.538  1.1324  1.7442  0.5909
15992SOL     OW51567   5.420   5.184   4.513 -0.0471  0.5219 -0.0274
15992SOL    HW151568   5.410   5.279   4.523 -1.6088  0.5164 -1.1712
15992SOL    HW251569   5.456   5.172   4.426 -0.6524  0.0427 -0.2193
15993SOL     OW51570   8.497  10.090   2.323  0.3109  0.2632  0.5018
15993SOL    HW151571   8.515  10.182   2.343 -0.7738  0.2800  1.5148
15993SOL    HW251572   8.447  10.058   2.399  0.7460 -1.1924  0.2128
15994SOL     OW51573  10.270   7.793   2.081  0.1356  0.2471  0.6637
15994SOL    HW151574  10.328   7.722   2.109  0.2563  0.8154  1.9022
15994SOL    HW251575  10.323   7.845   2.021 -0.0255 -0.8150 -0.4481
15995SOL     OW51576   7.655   2.562   0.931 -0.6188 -0.3631 -0.1337
15995SOL    HW151577   7.682   2.588   1.019 -1.6409  2.0387 -0.4460
15995SOL    HW251578   7.566   2.596   0.922 -1.2986 -2.3190 -1.4110
15996SOL     OW51579   2.384   1.287   3.756  0.0217 -0.1962  0.8712
15996SOL    HW151580   2.381   1.242   3.671  1.9830 -0.5056  0.9133
15996SOL    HW251581   2.326   1.235   3.812  0.3386 -1.2476  0.2646
15997SOL     OW51582   8.456   4.558   6.376  0.7079  0.0561  0.2598
15997SOL    HW151583   8.426   4.562   6.467 -1.1155  0.5259 -0.3163
15997SOL    HW251584   8.445   4.647   6.344  2.0858  0.0727 -0.2260
15998SOL     OW51585   5.452   7.760   1.865  0.1309  0.2829 -0.0368
15998SOL    HW151586   5.413   7.747   1.952 -1.9143 -0.4556 -1.0059
15998SOL    HW251587   5.497   7.844   1.872 -0.4349  0.4959  1.5970
15999SOL     OW51588   1.728   8.154   3.586  0.2820  0.0342  0.3832
15999SOL    HW151589   1.814   8.116   3.605  0.1106 -0.7521 -0.3605
15999SOL    HW251590   1.682   8.153   3.670  0.5116 -0.8139  0.5030
16000SOL     OW51591   3.651   8.766   2.835 -0.1120 -0.9307 -0.4877
16000SOL    HW151592   3.699   8.716   2.900  3.4646 -0.0733 -2.1953
16000SOL    HW251593   3.713   8.777   2.763 -2.6933  1.0176 -2.6202
16001SOL     OW51594   9.739   3.200   2.427 -0.2508  0.3548  0.0956
16001SOL    HW151595   9.813   3.247   2.466  0.5170 -1.5487  1.0719
16001SOL    HW251596   9.770   3.176   2.340  0.2634 -0.3303  0.4552
16002SOL     OW51597   8.987   8.646   8.122 -0.1997 -0.1536 -0.5565
16002SOL    HW151598   9.045   8.588   8.171  0.1107  1.2760  0.8827
16002SOL    HW251599   8.907   8.596   8.110 -0.0666 -0.7784  0.9346
16003SOL     OW51600  10.525  10.055   5.753  0.1303  0.1638 -0.4692
16003SOL    HW151601  10.462  10.093   5.691 -0.7288  0.2233  0.4155
16003SOL    HW251602  10.501  10.093   5.837  0.4764 -0.8678  0.1115
16004SOL     OW51603   1.772   1.992   5.356  0.0318  0.0797 -0.2174
16004SOL    HW151604   1.827   1.951   5.289  0.4873  1.3799 -0.6603
16004SOL    HW251605   1.732   1.918   5.402  1.6877 -0.9056 -0.2634
16005SOL     OW51606   0.913   8.538   1.070  0.1277 -0.2193 -0.1843
16005SOL    HW151607   0.906   8.562   0.977 -1.5723  0.7485  0.1477
16005SOL    HW251608   0.925   8.443   1.069 -1.5530 -0.4624 -1.3828
16006SOL     OW51609   8.427   6.996   1.401 -0.1865  0.3390  0.0713
16006SOL    HW151610   8.422   7.058   1.327 -0.2894  0.2331 -0.0109
16006SOL    HW251611   8.336   6.986   1.429 -0.0718  0.9104  0.6581
16007SOL     OW51612   1.391   9.092   0.544 -0.3357  0.7628 -0.4485
16007SOL    HW151613   1.421   9.107   0.455 -2.0795  0.1885 -1.1671
16007SOL    HW251614   1.298   9.075   0.536 -0.2831 -0.7429  1.3336
16008SOL     OW51615   9.807   3.578   2.603  0.0019 -0.2747 -0.5201
16008SOL    HW151616   9.850   3.500   2.567  0.4220 -0.1128 -0.3831
16008SOL    HW251617   9.869   3.649   2.585  0.7150 -0.3407  1.3995
16009SOL     OW51618   5.846   6.354   9.081  0.2183  0.1952  0.3668
16009SOL    HW151619   5.816   6.272   9.043 -0.9913  1.6850 -2.2057
16009SOL    HW251620   5.767   6.408   9.088  1.1706  1.6306  0.6303
16010SOL     OW51621   7.421   8.240   3.179 -0.0958  0.1447  0.2297
16010SOL    HW151622   7.399   8.332   3.160 -0.0415  0.3320  1.0480
16010SOL    HW251623   7.340   8.203   3.215  0.1462  0.1208  0.7584
16011SOL     OW51624   5.135   6.709   1.002 -0.5756 -0.3325 -0.0161
16011SOL    HW151625   5.137   6.627   0.953 -0.9821 -0.2206 -0.2264
16011SOL    HW251626   5.203   6.700   1.068 -0.3815 -0.6991 -0.2661
16012SOL     OW51627   6.226   0.558   3.137  0.3651 -0.0663  0.1078
16012SOL    HW151628   6.170   0.628   3.103 -0.9424 -0.7587  0.7820
16012SOL    HW251629   6.185   0.531   3.218  1.1043 -1.3152  0.0907
16013SOL     OW51630   1.017   5.816   3.588 -0.1899  0.1882  0.3164
16013SOL    HW151631   1.094   5.765   3.614 -1.5464 -2.2396 -0.0658
16013SOL    HW251632   1.011   5.804   3.494 -0.6952  0.8761  0.2581
16014SOL     OW51633   5.707   6.706   4.795  0.9083  0.4561  0.4277
16014SOL    HW151634   5.775   6.773   4.807  0.5848  0.6646  1.1207
16014SOL    HW251635   5.626   6.756   4.784  0.9278  0.2210 -0.9073
16015SOL     OW51636   0.820   1.447   5.213 -0.3234  0.3857  0.2514
16015SOL    HW151637   0.842   1.539   5.195  0.7543 -0.1932 -1.7763
16015SOL    HW251638   0.743   1.451   5.269  1.0810  2.5288  2.2404
16016SOL     OW51639   1.817   7.814   3.171  0.6145  0.6882  0.1352
16016SOL    HW151640   1.886   7.752   3.195 -0.2925 -0.2400  0.4302
16016SOL    HW251641   1.777   7.839   3.253 -2.7450 -2.7925 -0.1352
16017SOL     OW51642   2.686   2.481   6.014  0.1505  0.3421 -0.4941
16017SOL    HW151643   2.691   2.391   6.047  0.4261  1.0582  1.5638
16017SOL    HW251644   2.680   2.471   5.919 -0.1889 -1.8516 -0.3017
16018SOL     OW51645   0.971  10.525   1.987 -0.1566  0.7413 -0.3006
16018SOL    HW151646   0.926  10.572   1.916  3.3651  1.4181 -2.3076
16018SOL    HW251647   0.963  10.584   2.062 -3.4014  0.3090 -0.1311
16019SOL     OW51648   6.669  10.294   4.253  0.1365  0.4663  0.0261
16019SOL    HW151649   6.580  10.324   4.233 -0.1989 -0.3250  0.3014
16019SOL    HW251650   6.679  10.213   4.204 -0.1111 -0.6266  1.7119
16020SOL     OW51651   3.743   9.311   6.717 -0.2471 -0.5009  0.1318
16020SOL    HW151652   3.658   9.354   6.723 -1.4513 -2.7969  0.6133
16020SOL    HW251653   3.731   9.244   6.650  1.5433 -0.1496 -0.5817
16021SOL     OW51654   9.307   5.527   2.209 -0.2227  0.6255 -0.2091
16021SOL    HW151655   9.240   5.562   2.267  1.3859 -0.5493  2.5777
16021SOL    HW251656   9.362   5.602   2.187  0.8551  0.7235  2.3872
16022SOL     OW51657  10.415   1.318   5.565 -0.2743 -0.2379  0.1065
16022SOL    HW151658  10.367   1.385   5.515  0.6990 -0.8655 -1.7558
16022SOL    HW251659  10.410   1.239   5.512 -0.1488 -1.2797  1.5708
16023SOL     OW51660   1.144   8.640   2.913  0.3064 -0.0704 -0.2755
16023SOL    HW151661   1.125   8.710   2.975 -1.6933  0.0439 -0.9456
16023SOL    HW251662   1.213   8.589   2.955 -0.6547  0.2701  1.8416
16024SOL     OW51663   2.724   1.807   9.918  0.4731  0.1945  0.2083
16024SOL    HW151664   2.758   1.868   9.983 -1.3903 -0.4110  1.8548
16024SOL    HW251665   2.794   1.741   9.909  0.9254  0.4815  1.3396
16025SOL     OW51666   8.672   1.692   3.468  0.1618  0.3195 -0.0376
16025SOL    HW151667   8.692   1.772   3.516 -1.3967  0.7987 -0.1501
16025SOL    HW251668   8.695   1.712   3.377  1.7747 -0.1146  0.2344
16026SOL     OW51669   9.217   1.292  10.773  0.0588  0.7217  0.2157
16026SOL    HW151670   9.274   1.285  10.849  0.8222 -0.8938 -0.4592
16026SOL    HW251671   9.148   1.353  10.800  0.6779  0.7068  1.9539
16027SOL     OW51672   7.954  10.051   0.536 -0.3299  0.4271 -0.0203
16027SOL    HW151673   7.929  10.143   0.530  0.4840  0.5702 -3.4492
16027SOL    HW251674   7.969  10.024   0.445  3.9714 -1.7897  1.0300
16028SOL     OW51675   0.599   0.725   1.319 -0.0955  0.2968  0.3547
16028SOL    HW151676   0.617   0.754   1.408  0.9861  1.8844 -0.3226
16028SOL    HW251677   0.586   0.807   1.270 -0.3645 -0.5289 -1.0049
16029SOL     OW51678   1.834   7.130   0.350 -0.2426 -0.1657  0.1642
16029SOL    HW151679   1.786   7.095   0.425  0.0992 -0.9755  0.0133
16029SOL    HW251680   1.914   7.167   0.387  0.9565 -2.4523  0.0271
16030SOL     OW51681   9.600   1.331   0.242  0.3126  0.1562  0.2624
16030SOL    HW151682   9.518   1.293   0.212  0.9383 -1.0416  0.0428
16030SOL    HW251683   9.658   1.257   0.258  1.5383  0.9975 -0.0848
16031SOL     OW51684   9.355  10.444   7.584 -0.0238 -0.2034  0.2241
16031SOL    HW151685   9.344  10.473   7.494  0.8851  2.0035  0.7526
16031SOL    HW251686   9.434  10.390   7.583  0.6843  0.8093 -0.1340
16032SOL     OW51687   4.037   6.603   3.825  0.5821  0.4583  0.1971
16032SOL    HW151688   4.077   6.516   3.820 -2.4884 -1.0562 -0.6869
16032SOL    HW251689   4.073   6.651   3.751  2.7168  0.1790  0.9977
16033SOL     OW51690   2.870   6.522   5.634 -0.0511  0.6925  0.3990
16033SOL    HW151691   2.807   6.589   5.661 -0.4932  0.8827 -0.9870
16033SOL    HW251692   2.849   6.506   5.542 -0.0252 -1.4437  0.7207
16034SOL     OW51693   8.714   6.857   2.850  0.5783 -0.2248  0.1655
16034SOL    HW151694   8.701   6.835   2.758  0.8846 -0.0344  0.0750
16034SOL    HW251695   8.653   6.929   2.866 -0.1476 -0.8736  0.3623
16035SOL     OW51696   8.213   3.211   7.875  0.1671  0.3939  0.0574
16035SOL    HW151697   8.149   3.241   7.811  0.2313 -1.4517 -0.9320
16035SOL    HW251698   8.278   3.162   7.823  2.7710  2.6721  0.9039
16036SOL     OW51699   9.958   1.393  10.230 -0.5214 -0.6419  0.1627
16036SOL    HW151700  10.004   1.458  10.177  1.7365 -0.4667  2.1867
16036SOL    HW251701   9.984   1.309  10.193  0.8588 -0.5142  0.7859
16037SOL     OW51702   2.571  10.738   0.921 -0.2942  0.6432 -0.1631
16037SOL    HW151703   2.585  10.646   0.900 -1.2013  0.3710  0.3529
16037SOL    HW251704   2.658  10.774   0.936  0.0106 -0.3017  0.3398
16038SOL     OW51705   4.078   8.023   6.603  0.2765 -0.2830  0.1039
16038SOL    HW151706   4.136   7.948   6.617 -1.9757 -2.4851 -1.4512
16038SOL    HW251707   4.019   8.021   6.678 -0.0598 -0.3671 -0.1595
16039SOL     OW51708   6.602  10.689   8.697  0.2612  0.4209  0.5254
16039SOL    HW151709   6.654  10.651   8.767  0.1914 -1.6606 -0.4910
16039SOL    HW251710   6.560  10.765   8.737  1.2164  0.0355  2.3603
16040SOL     OW51711   9.984   6.650   1.907 -0.9664  0.9291  0.1816
16040SOL    HW151712   9.960   6.569   1.862 -0.9478  0.8809  0.2579
16040SOL    HW251713  10.012   6.622   1.994  1.8267  0.6856 -0.7081
16041SOL     OW51714   9.778   0.150   5.128 -0.5510 -0.3709  0.2636
16041SOL    HW151715   9.853   0.145   5.186 -0.4381 -1.5033  0.0350
16041SOL    HW251716   9.715   0.206   5.174 -0.1716 -0.6657  1.1359
16042SOL     OW51717   7.373   6.722  10.176  0.4792  0.3103 -0.4809
16042SOL    HW151718   7.468   6.714  10.166  0.6021  1.6910 -0.5920
16042SOL    HW251719   7.358   6.816  10.185 -0.9290  0.1425 -0.9269
16043SOL     OW51720   9.349   0.894   9.647 -0.9211 -0.1835  0.4610
16043SOL    HW151721   9.343   0.827   9.715 -0.9241 -3.6665 -2.6137
16043SOL    HW251722   9.443   0.901   9.628 -0.9520  0.4628  0.5148
16044SOL     OW51723   6.543   4.964   9.124  0.4997  0.2815  0.1186
16044SOL    HW151724   6.611   4.928   9.067 -1.2807 -2.9404 -0.1709
16044SOL    HW251725   6.487   5.015   9.066 -0.8335 -2.3022 -0.9679
16045SOL     OW51726   7.708   2.627   9.990 -0.3136 -0.2447  0.1665
16045SOL    HW151727   7.706   2.712   9.947 -1.3124  0.2901  1.2179
16045SOL    HW251728   7.798   2.597   9.980  0.2827  1.3290  0.5321
16046SOL     OW51729   4.294   7.329   2.035 -0.0200  0.5023  0.0263
16046SOL    HW151730   4.380   7.303   2.068  0.3726 -0.3555 -1.5674
16046SOL    HW251731   4.310   7.362   1.947 -1.2837  0.6469 -0.1784
16047SOL     OW51732   8.417   5.713   3.810 -0.8843 -0.3757  0.2719
16047SOL    HW151733   8.483   5.650   3.838  0.9019  0.8089 -1.0814
16047SOL    HW251734   8.346   5.659   3.776  0.5588 -1.6937 -0.8069
16048SOL     OW51735   6.962   7.098   8.654  0.2278 -0.2183  0.2152
16048SOL    HW151736   6.935   7.128   8.567  0.9308 -0.1978  0.0026
16048SOL    HW251737   6.879   7.079   8.699 -0.1620  0.3191 -0.2575
16049SOL     OW51738   1.656   6.339   4.884 -0.3022 -0.3494 -0.1228
16049SOL    HW151739   1.605   6.368   4.959 -1.2332 -1.2435 -0.3823
16049SOL    HW251740   1.747   6.343   4.913 -0.6524 -0.7738  1.0899
16050SOL     OW51741   0.789   1.789   7.391  0.0884  0.5514  0.0159
16050SOL    HW151742   0.881   1.768   7.409 -0.2483 -0.4624  0.5952
16050SOL    HW251743   0.753   1.814   7.476 -0.6983 -1.1103  0.1995
16051SOL     OW51744   8.417   4.438   0.547 -0.4166 -0.2048  0.2558
16051SOL    HW151745   8.337   4.398   0.513 -1.0077  0.4943  0.7790
16051SOL    HW251746   8.470   4.364   0.577 -0.3455 -0.7546 -1.1514
16052SOL     OW51747   4.756   6.708   3.143  0.4192 -0.3620 -0.2258
16052SOL    HW151748   4.709   6.676   3.220 -1.1365  0.3971 -0.8343
16052SOL    HW251749   4.707   6.672   3.069  1.1103  0.0237 -0.8775
16053SOL     OW51750   4.115  10.296   2.579 -0.2906  0.0051  0.1556
16053SOL    HW151751   4.174  10.262   2.512  0.5626  1.9228 -0.1266
16053SOL    HW251752   4.027  10.281   2.543  0.0837 -0.8118 -0.4540
16054SOL     OW51753   0.387   0.410   1.706 -0.0933  0.1052 -0.2812
16054SOL    HW151754   0.447   0.403   1.632 -0.0885  0.4097 -0.3074
16054SOL    HW251755   0.308   0.365   1.677 -0.4910  1.1568 -0.8886
16055SOL     OW51756   6.679   9.147   6.705 -0.1108  0.1895 -0.8723
16055SOL    HW151757   6.707   9.056   6.693 -1.3520 -0.2414 -0.6501
16055SOL    HW251758   6.590   9.149   6.669 -0.2128  1.2416 -0.5824
16056SOL     OW51759   1.330   9.279   6.626 -0.1404 -0.5677  0.1886
16056SOL    HW151760   1.313   9.229   6.706  0.3860 -2.9292 -1.0974
16056SOL    HW251761   1.425   9.288   6.623 -0.1093 -1.0406 -0.4650
16057SOL     OW51762   1.541   9.035   5.142  0.3380  0.1449 -0.2955
16057SOL    HW151763   1.509   9.038   5.053  0.4932 -0.8404 -0.4041
16057SOL    HW251764   1.582   9.120   5.157 -0.2542  0.5466 -0.9357
16058SOL     OW51765   4.228   1.615   2.545  0.4807 -0.5808  0.3843
16058SOL    HW151766   4.190   1.693   2.586 -1.4921 -0.6235 -1.2306
16058SOL    HW251767   4.319   1.615   2.575 -0.1449  0.8248  2.5799
16059SOL     OW51768   7.991   4.791   9.295  0.2810 -0.0305 -0.1788
16059SOL    HW151769   8.074   4.837   9.282  0.4945 -0.7003 -1.3411
16059SOL    HW251770   7.924   4.850   9.261  0.0555  1.1834  2.1598
16060SOL     OW51771   3.338   3.435   1.627  0.4241 -0.2012 -0.1428
16060SOL    HW151772   3.426   3.470   1.608  1.4152 -1.7127  1.3296
16060SOL    HW251773   3.292   3.508   1.668  1.2986  0.3820 -0.1647
16061SOL     OW51774   4.224   0.171   4.850  0.5223  0.1069 -0.1828
16061SOL    HW151775   4.242   0.263   4.830 -1.8473  0.5690 -0.3965
16061SOL    HW251776   4.212   0.130   4.764  2.3185 -0.6437 -0.1386
16062SOL     OW51777   6.359   3.792   2.130  0.2601  0.8713  0.1074
16062SOL    HW151778   6.446   3.790   2.169 -0.1735 -1.5812  1.0928
16062SOL    HW251779   6.364   3.731   2.056 -1.2018 -1.3058  1.6908
16063SOL     OW51780   7.447   0.771   3.508  0.3321  0.1542 -0.0330
16063SOL    HW151781   7.413   0.860   3.506 -0.2349 -0.0780 -1.2307
16063SOL    HW251782   7.451   0.744   3.416 -0.0357 -1.2512  0.3364
16064SOL     OW51783   8.916   9.430   8.299  0.0570 -0.5277 -0.0239
16064SOL    HW151784   8.982   9.365   8.277 -0.3361 -0.2255 -2.3654
16064SOL    HW251785   8.833   9.389   8.272 -0.2730  0.6027 -0.7863
16065SOL     OW51786   1.399   3.777   6.162  0.3270 -0.0744 -0.3016
16065SOL    HW151787   1.443   3.807   6.083  1.9439  1.5502  1.1235
16065SOL    HW251788   1.320   3.830   6.167  1.7982  2.1667  0.7507
16066SOL     OW51789   7.486   4.881   9.576 -0.1917 -0.2207  0.0317
16066SOL    HW151790   7.570   4.925   9.569 -0.2312 -0.0667  0.5067
16066SOL    HW251791   7.489   4.835   9.660 -0.0271 -1.3940 -0.5823
16067SOL     OW51792   2.366   1.832   3.775  0.5102  0.0297  0.1668
16067SOL    HW151793   2.391   1.751   3.730  1.0444  0.2885 -0.0020
16067SOL    HW251794   2.270   1.835   3.765  0.5218 -0.3954 -0.1343
16068SOL     OW51795   1.049   8.283   0.188 -0.0164  0.1091 -0.4992
16068SOL    HW151796   1.082   8.231   0.261  0.8845  1.1001 -0.1788
16068SOL    HW251797   0.988   8.225   0.142 -0.2155 -0.6936  0.7454
16069SOL     OW51798   1.699   1.072   8.183 -0.2530  0.0695  0.3503
16069SOL    HW151799   1.651   0.989   8.178  0.7592 -0.6124  1.3484
16069SOL    HW251800   1.754   1.072   8.104  0.1495 -0.4906  0.6208
16070SOL     OW51801   1.124   4.790   5.860 -0.5883 -0.1061 -0.2806
16070SOL    HW151802   1.122   4.827   5.948 -0.1767 -0.3919 -0.1521
16070SOL    HW251803   1.061   4.843   5.811  0.0399  0.8294 -0.1142
16071SOL     OW51804   4.933   9.022  11.001  0.0275  0.2481 -1.0451
16071SOL    HW151805   4.912   9.105  10.958 -1.5322  0.2956 -0.2353
16071SOL    HW251806   4.875   8.958  10.961  1.2201 -0.4849 -1.6646
16072SOL     OW51807   0.833   7.616   7.823 -0.7001 -0.4763  0.0331
16072SOL    HW151808   0.883   7.538   7.800  1.5524  0.8185  0.1541
16072SOL    HW251809   0.828   7.666   7.741  0.3618  0.4904  0.5248
16073SOL     OW51810   8.566   4.040   8.452 -0.0745  0.1145  0.0833
16073SOL    HW151811   8.591   4.121   8.406  0.6161 -0.1857 -0.0799
16073SOL    HW251812   8.606   4.049   8.538  1.1306 -0.6339 -0.3776
16074SOL     OW51813   4.968   0.797   6.345 -0.1051  0.7791 -0.0274
16074SOL    HW151814   4.948   0.883   6.380 -0.0760  0.3532  1.0571
16074SOL    HW251815   5.047   0.769   6.391  0.0165  0.2616 -0.5305
16075SOL     OW51816   7.564   1.712   1.660 -0.4221 -0.3444  0.0089
16075SOL    HW151817   7.649   1.698   1.618  0.2848  1.0097  0.9168
16075SOL    HW251818   7.541   1.803   1.638 -1.4740 -0.5850  0.0597
16076SOL     OW51819   7.195   2.708   5.700  0.2739 -0.6718 -0.5918
16076SOL    HW151820   7.100   2.719   5.694  0.2671 -1.0671 -1.4454
16076SOL    HW251821   7.211   2.677   5.789 -0.1552  1.5496  0.3438
16077SOL     OW51822   3.445   6.203   4.589 -0.8657 -0.1867  0.5255
16077SOL    HW151823   3.466   6.188   4.497 -1.7669  0.1334  0.2581
16077SOL    HW251824   3.526   6.236   4.627  0.2258 -2.5086  0.3894
16078SOL     OW51825   1.605   5.746   4.560 -0.7095  0.2406  0.2293
16078SOL    HW151826   1.542   5.775   4.626 -1.9831 -0.7968 -0.4905
16078SOL    HW251827   1.602   5.651   4.565  1.5633  0.1449  0.8384
16079SOL     OW51828   2.908   3.449   2.422 -0.2306  0.3603  0.6746
16079SOL    HW151829   2.841   3.420   2.360 -0.7622 -0.4791  1.6061
16079SOL    HW251830   2.877   3.416   2.507  0.4787  1.4746  1.3812
16080SOL     OW51831   8.339   8.067  10.009 -0.3490 -0.0579  0.0784
16080SOL    HW151832   8.325   8.153   9.969 -0.6977 -0.0586  0.1988
16080SOL    HW251833   8.323   8.004   9.939  2.0434  0.0158 -0.6467
16081SOL     OW51834  10.804   5.334   7.243  0.0585 -0.1850  0.2022
16081SOL    HW151835  10.839   5.326   7.154  1.7831 -1.1605  0.9085
16081SOL    HW251836  10.754   5.416   7.242  2.7534  1.6152 -0.8463
16082SOL     OW51837   1.654   2.368   6.102 -0.4446 -0.1574  0.1522
16082SOL    HW151838   1.636   2.416   6.183 -0.7349  1.0866 -0.6260
16082SOL    HW251839   1.711   2.427   6.052  1.9123 -1.9787  0.5076
16083SOL     OW51840  11.036   9.466   3.882 -0.7629 -0.7533  0.3449
16083SOL    HW151841  11.078   9.522   3.947 -1.8154  0.6954 -0.1821
16083SOL    HW251842  10.945   9.458   3.911 -0.8478 -1.4532 -0.0812
16084SOL     OW51843   4.878   3.168   2.001  0.5787 -0.0846 -0.1987
16084SOL    HW151844   4.927   3.166   2.084 -0.5142 -0.6311  0.4570
16084SOL    HW251845   4.850   3.259   1.992  2.4167  0.4456 -1.0333
16085SOL     OW51846   1.675   5.302   6.106  0.2898 -0.2531 -0.2050
16085SOL    HW151847   1.590   5.342   6.123 -0.8027 -2.5948  0.2558
16085SOL    HW251848   1.660   5.244   6.031  0.7437 -2.6066  1.3991
16086SOL     OW51849   1.311   3.465   6.437  0.2922  0.3984 -0.2600
16086SOL    HW151850   1.286   3.553   6.408  1.1016  1.1016  1.0604
16086SOL    HW251851   1.231   3.429   6.475 -0.6983 -0.4149 -2.9117
16087SOL     OW51852   1.500   0.238   3.048 -0.3232 -0.7095  0.0791
16087SOL    HW151853   1.526   0.191   3.127 -1.8201 -0.0495  0.9879
16087SOL    HW251854   1.582   0.274   3.014  0.2397 -0.3731  1.7313
16088SOL     OW51855   7.649   8.975   2.659 -0.7953  0.0587 -0.3312
16088SOL    HW151856   7.555   8.988   2.649 -0.9012 -0.6429 -0.2714
16088SOL    HW251857   7.668   8.896   2.609 -0.4859 -0.6320  0.8270
16089SOL     OW51858  10.169   0.121  11.001  0.0451 -0.2041  0.6138
16089SOL    HW151859  10.247   0.071  10.976  0.3590  0.7029 -0.2801
16089SOL    HW251860  10.203   0.195  11.051 -0.2742 -0.0004  0.5341
16090SOL     OW51861   8.282   1.089  11.005  0.6490 -0.1103  0.1341
16090SOL    HW151862   8.236   1.166  11.038  0.1840 -0.1945 -0.2926
16090SOL    HW251863   8.326   1.052  11.081  1.7279  1.1562  0.1593
16091SOL     OW51864   8.200   1.304   7.771 -0.4926 -0.2627  0.3108
16091SOL    HW151865   8.189   1.334   7.681  1.3624  0.6259  0.3501
16091SOL    HW251866   8.176   1.380   7.825  0.7265  0.0056  0.4936
16092SOL     OW51867   0.695   3.694   6.922 -0.2399  0.4154 -0.4656
16092SOL    HW151868   0.731   3.770   6.876 -0.0726 -0.2473 -1.4831
16092SOL    HW251869   0.600   3.701   6.909 -0.2844  0.8209  0.0531
16093SOL     OW51870  10.810   6.153   9.465  0.0914 -0.1672 -0.5475
16093SOL    HW151871  10.874   6.206   9.512  0.5353 -1.8142  0.8117
16093SOL    HW251872  10.763   6.215   9.409 -1.2944  2.2115  2.8954
16094SOL     OW51873   2.993  10.667   8.174 -0.4779 -0.5255 -0.3237
16094SOL    HW151874   3.030  10.636   8.257  0.1105 -0.3290 -0.5131
16094SOL    HW251875   3.032  10.611   8.107  1.3825  1.2278 -0.7840
16095SOL     OW51876   8.319   1.670   2.050  0.4068 -0.0432 -0.5253
16095SOL    HW151877   8.389   1.729   2.078  0.2394  0.3487 -0.9301
16095SOL    HW251878   8.247   1.687   2.112  0.5144 -0.1400 -0.3725
16096SOL     OW51879  10.488   1.740   6.141  0.7156  0.0069  0.1851
16096SOL    HW151880  10.570   1.772   6.177  0.3440  0.5421  0.5797
16096SOL    HW251881  10.487   1.772   6.051 -0.3083  2.4610  0.9786
16097SOL     OW51882   4.017   5.787   5.096  0.2752  0.4810  0.4499
16097SOL    HW151883   3.922   5.789   5.085  0.3825 -0.1820 -0.7882
16097SOL    HW251884   4.031   5.815   5.187 -1.1296 -0.0021  0.8465
16098SOL     OW51885   8.321   9.769   1.944 -0.2029  0.2792  0.1765
16098SOL    HW151886   8.230   9.794   1.930 -0.2665 -0.7098 -1.4985
16098SOL    HW251887   8.354   9.748   1.856  1.5630  0.3612  0.7723
16099SOL     OW51888   3.867   4.273   6.832 -0.5010  0.1988  0.6120
16099SOL    HW151889   3.957   4.240   6.840  0.1706  1.1299 -2.0275
16099SOL    HW251890   3.816   4.197   6.806 -0.2109 -0.0302  0.6970
16100SOL     OW51891   2.424   8.534   2.685 -0.0134 -0.1036 -0.4940
16100SOL    HW151892   2.369   8.570   2.754 -0.1275 -1.6517  0.2812
16100SOL    HW251893   2.463   8.610   2.642  0.2202  0.9148  1.4122
16101SOL     OW51894   4.400   0.903   4.473  0.2020  0.3485  0.2956
16101SOL    HW151895   4.489   0.875   4.494  0.6616 -0.2816 -2.1734
16101SOL    HW251896   4.364   0.934   4.556  2.6900  0.5564  1.3726
16102SOL     OW51897   0.509  10.395   2.840  0.1071  0.0081  0.2212
16102SOL    HW151898   0.460  10.457   2.894 -0.8250  0.7806 -1.4591
16102SOL    HW251899   0.450  10.320   2.829  0.8588 -0.8141  1.4266
16103SOL     OW51900   7.551   5.635   2.333  0.7284 -0.5001  0.3738
16103SOL    HW151901   7.507   5.665   2.253  0.9358 -0.2981  0.3389
16103SOL    HW251902   7.582   5.714   2.376  2.0799 -0.7045 -0.1766
16104SOL     OW51903   3.991   9.641   8.028 -0.0387 -0.3456 -0.5727
16104SOL    HW151904   4.082   9.668   8.046  0.4744 -1.3178 -1.5827
16104SOL    HW251905   3.981   9.654   7.934 -1.6201  1.6077 -0.1924
16105SOL     OW51906   3.882   9.381  10.555 -0.2190 -0.2391 -0.0385
16105SOL    HW151907   3.944   9.312  10.576  0.0375 -0.4679 -1.4204
16105SOL    HW251908   3.827   9.389  10.633  2.0340  0.5507  1.5729
16106SOL     OW51909   4.297   6.970   7.725  0.3985  0.5964 -0.0915
16106SOL    HW151910   4.266   6.928   7.806 -0.3677  0.0533 -0.6488
16106SOL    HW251911   4.231   7.036   7.705  0.6826  0.8584 -0.1817
16107SOL     OW51912   1.474   4.697   7.474  0.1249 -0.3153  0.1824
16107SOL    HW151913   1.486   4.767   7.409 -0.3685  0.0554  0.4812
16107SOL    HW251914   1.553   4.701   7.528 -0.1686  0.4144  0.5690
16108SOL     OW51915   9.200   3.217   5.212  0.6060  0.0904 -0.0535
16108SOL    HW151916   9.275   3.276   5.201  0.1920  0.7479  0.5356
16108SOL    HW251917   9.220   3.168   5.292  0.8803 -0.4659 -0.4608
16109SOL     OW51918   6.031   7.224   6.772 -0.5501 -0.0590 -0.4222
16109SOL    HW151919   5.975   7.225   6.694 -0.6088  0.3644 -0.3814
16109SOL    HW251920   6.109   7.273   6.745 -0.7059  0.3578 -0.1204
16110SOL     OW51921   7.445   1.472  10.440 -0.2542  0.0691 -0.0140
16110SOL    HW151922   7.495   1.538  10.488 -0.7289 -0.3753  1.1339
16110SOL    HW251923   7.353   1.495  10.457 -0.4294 -1.0874  0.7327
16111SOL     OW51924   4.180   7.828   0.490  0.0426 -0.3224  0.0421
16111SOL    HW151925   4.211   7.830   0.400 -0.3254 -1.4760 -0.1307
16111SOL    HW251926   4.230   7.897   0.535 -1.8215  2.3231 -1.6638
16112SOL     OW51927   9.524   1.261  10.547 -0.3550 -0.0944  0.0215
16112SOL    HW151928   9.556   1.245  10.458 -0.8988 -0.8296 -0.0416
16112SOL    HW251929   9.480   1.180  10.573 -2.1251  0.8461  0.1275
16113SOL     OW51930   9.181   1.137   8.518  0.5640 -0.1947 -0.0908
16113SOL    HW151931   9.212   1.049   8.536  0.2137 -0.2876  0.0748
16113SOL    HW251932   9.160   1.173   8.604  1.2809  0.2721 -0.1025
16114SOL     OW51933   4.041   4.452   1.000  0.1770 -0.1198 -0.2384
16114SOL    HW151934   3.973   4.441   0.933 -0.7062  1.6866  0.2794
16114SOL    HW251935   4.081   4.366   1.008 -2.6442 -1.5494  0.0375
16115SOL     OW51936   9.080   0.156   7.354  0.2429  0.1197 -0.4192
16115SOL    HW151937   9.091   0.171   7.448  1.5130  1.0485 -0.6837
16115SOL    HW251938   9.159   0.108   7.328 -1.0592 -2.0159 -0.6658
16116SOL     OW51939   7.748   7.932   3.816 -0.6042 -0.2608 -0.1040
16116SOL    HW151940   7.713   7.848   3.785 -1.7895  0.5413 -1.0476
16116SOL    HW251941   7.708   7.944   3.902 -3.1837  0.8442 -1.3418
16117SOL     OW51942   3.692   7.701   3.548 -0.3652 -0.6981  0.5130
16117SOL    HW151943   3.718   7.636   3.482  1.0837  0.3615 -0.0185
16117SOL    HW251944   3.760   7.695   3.615  0.7866  1.3783 -0.3669
16118SOL     OW51945   8.543   0.990   7.763 -0.2128 -0.5106 -0.0941
16118SOL    HW151946   8.531   1.024   7.852  1.4729 -1.9962  0.7724
16118SOL    HW251947   8.454   0.981   7.729 -0.9354 -0.3933  1.6293
16119SOL     OW51948   0.884   6.284   8.090 -0.1514 -0.0592 -0.3042
16119SOL    HW151949   0.873   6.376   8.066  0.5349  0.0282 -0.3082
16119SOL    HW251950   0.968   6.259   8.050 -0.1924 -0.6042 -0.0595
16120SOL     OW51951   0.814   0.148  10.898 -0.4308  0.2027 -0.0915
16120SOL    HW151952   0.856   0.185  10.976  2.3307 -1.6630 -0.5369
16120SOL    HW251953   0.780   0.064  10.926  0.9953 -0.6961 -0.9024
16121SOL     OW51954   8.203   7.485  10.614  0.2559 -0.4965  0.0678
16121SOL    HW151955   8.235   7.463  10.702  1.5863 -0.2389 -0.3305
16121SOL    HW251956   8.179   7.401  10.576 -0.7311 -0.5667  0.8243
16122SOL     OW51957   7.167   8.062  10.639  0.0859 -0.2299 -0.5876
16122SOL    HW151958   7.188   8.135  10.697  0.1620 -0.6454 -0.0861
16122SOL    HW251959   7.192   8.092  10.552  0.1357  0.3323 -0.3807
16123SOL     OW51960   7.400   1.508   7.357 -0.4048  0.1062  0.1519
16123SOL    HW151961   7.318   1.472   7.391 -0.8983  0.6900 -0.3893
16123SOL    HW251962   7.384   1.520   7.263  0.0938  0.7675  0.1455
16124SOL     OW51963   9.363  10.923   5.211 -0.5246 -0.2016  0.6416
16124SOL    HW151964   9.277  10.916   5.169 -1.0938 -0.7029  1.8398
16124SOL    HW251965   9.394  10.832   5.213  1.0284  0.1843 -1.6947
16125SOL     OW51966   9.528   7.707   9.673  0.0450 -0.1564 -0.4899
16125SOL    HW151967   9.444   7.664   9.654 -1.3269  2.2366 -0.2530
16125SOL    HW251968   9.578   7.641   9.721 -2.4978 -1.0490  1.1523
16126SOL     OW51969   0.449   3.990   3.102 -0.4596 -0.4524 -0.2378
16126SOL    HW151970   0.355   3.978   3.109 -0.4325 -1.4411 -1.2716
16126SOL    HW251971   0.471   4.053   3.170 -2.1294  1.1494 -1.0916
16127SOL     OW51972   3.293   9.457   3.268  0.3521  0.3870 -0.1151
16127SOL    HW151973   3.337   9.532   3.308  1.4657 -0.5044  0.3638
16127SOL    HW251974   3.362   9.411   3.220 -0.6690  0.6451 -1.9224
16128SOL     OW51975   1.562   9.365   0.593  0.1638 -0.1535  0.4864
16128SOL    HW151976   1.482   9.328   0.630 -1.0856  0.6810 -1.2230
16128SOL    HW251977   1.581   9.440   0.650  0.2943 -0.9181  1.4701
16129SOL     OW51978   4.516   0.223   3.302 -0.4097 -0.6389  0.3502
16129SOL    HW151979   4.611   0.207   3.302 -0.5359 -1.8414 -2.5538
16129SOL    HW251980   4.491   0.212   3.394  2.0697 -1.4138  1.0330
16130SOL     OW51981   8.392   5.250   4.621 -0.0993 -0.0356  0.1108
16130SOL    HW151982   8.330   5.231   4.552 -0.2693  0.6292  0.0751
16130SOL    HW251983   8.364   5.335   4.656 -0.2096 -0.5134  1.2069
16131SOL     OW51984   1.080   4.287   3.726  0.1604 -0.0341  0.0666
16131SOL    HW151985   1.074   4.279   3.822  0.2894  2.0425  0.2973
16131SOL    HW251986   0.998   4.250   3.694  0.4675 -1.5448  0.8793
16132SOL     OW51987   4.252   2.391   3.508  0.8640 -0.3250  0.6612
16132SOL    HW151988   4.298   2.312   3.481 -1.4030 -1.5727  0.1886
16132SOL    HW251989   4.246   2.444   3.429 -0.1475 -1.0439  0.2372
16133SOL     OW51990  10.538   7.902   5.289  0.1636  0.1906  0.1762
16133SOL    HW151991  10.520   7.995   5.275 -0.1530  0.2347  0.8197
16133SOL    HW251992  10.534   7.891   5.384  0.5537 -0.4119  0.1299
16134SOL     OW51993  10.139   5.344  10.385  0.5262 -0.0063 -0.3486
16134SOL    HW151994  10.161   5.354  10.293  2.9751 -1.4976 -0.0120
16134SOL    HW251995  10.103   5.255  10.393 -2.9090  1.2095 -0.2922
16135SOL     OW51996   0.097   5.152   8.319  0.0132  0.1371 -0.6134
16135SOL    HW151997   0.133   5.104   8.394  1.3384  1.6791 -0.1825
16135SOL    HW251998   0.174   5.191   8.278 -1.0318  2.5209 -0.4482
16136SOL     OW51999  10.431   5.260   2.252  0.3710  0.1092 -0.0523
16136SOL    HW152000  10.477   5.330   2.205 -2.2158  2.3699  0.4911
16136SOL    HW252001  10.394   5.205   2.182  0.2563  0.8405 -0.5796
16137SOL     OW52002   1.323   2.622   3.046  0.2796  0.0640  0.2014
16137SOL    HW152003   1.247   2.608   2.991  0.1516  0.7671  0.1934
16137SOL    HW252004   1.394   2.642   2.985  1.0231 -2.7054  0.0337
16138SOL     OW52005   7.486   3.474   6.140  0.0605 -0.4251  0.1960
16138SOL    HW152006   7.548   3.415   6.098 -0.2036 -0.9747  0.5638
16138SOL    HW252007   7.450   3.423   6.213  0.3292  0.4232  0.9383
16139SOL     OW52008   8.663   8.292   4.631 -0.0793  0.5344 -0.6076
16139SOL    HW152009   8.608   8.218   4.608 -1.1126 -0.1209  3.2378
16139SOL    HW252010   8.606   8.368   4.622 -0.6009  0.2438  0.1404
16140SOL     OW52011   4.921   5.555  10.520 -0.1364 -0.0892  0.6631
16140SOL    HW152012   4.934   5.522  10.609 -2.2787  0.8171  1.3979
16140SOL    HW252013   4.830   5.534  10.500 -0.1637  1.1219 -0.6920
16141SOL     OW52014   1.822   6.317  10.814  0.2490 -0.1162 -0.4663
16141SOL    HW152015   1.809   6.223  10.822  1.1509 -0.1202  1.9330
16141SOL    HW252016   1.739   6.351  10.782 -1.1112 -1.4759  1.4105
16142SOL     OW52017   4.037   9.630   2.684 -0.2012  0.0595  0.1133
16142SOL    HW152018   4.095   9.677   2.744  0.0254 -0.9253  0.6842
16142SOL    HW252019   4.082   9.547   2.667 -0.5024  0.1119 -1.0242
16143SOL     OW52020   2.379   2.720   2.803 -0.3141 -0.5072 -0.1935
16143SOL    HW152021   2.349   2.635   2.837  0.0802  0.2496  2.2576
16143SOL    HW252022   2.462   2.735   2.848 -0.2563  1.0796 -0.7799
16144SOL     OW52023   0.592   5.583   8.643  0.4505 -0.0464 -0.0144
16144SOL    HW152024   0.664   5.521   8.634  0.6443 -0.1930  1.9905
16144SOL    HW252025   0.606   5.624   8.729  1.0544  3.7405 -1.7049
16145SOL     OW52026   4.818   4.845   6.485 -0.2981  0.0181 -0.2588
16145SOL    HW152027   4.878   4.781   6.525 -0.5125 -0.2316 -0.3356
16145SOL    HW252028   4.734   4.827   6.525 -0.5038 -0.1902 -0.7726
16146SOL     OW52029   8.579   4.519  10.842 -0.0471  0.5175  0.5744
16146SOL    HW152030   8.663   4.473  10.849 -0.1411  0.4859  1.5606
16146SOL    HW252031   8.602   4.604  10.804  0.3591  0.3229  0.3767
16147SOL     OW52032   0.120   0.306   3.791 -0.1712 -0.5609  0.1671
16147SOL    HW152033   0.182   0.331   3.723 -0.2996 -0.9942 -0.1159
16147SOL    HW252034   0.162   0.234   3.837 -1.0166 -1.8071 -0.9182
16148SOL     OW52035   0.976   7.737   6.776  0.0926  0.6628 -0.5336
16148SOL    HW152036   0.969   7.642   6.768  0.7733  0.7424 -2.7652
16148SOL    HW252037   0.910   7.771   6.715  0.2423  1.6185 -0.1744
16149SOL     OW52038   4.141   4.488   5.012 -0.2193 -0.5105  0.2162
16149SOL    HW152039   4.104   4.506   5.098  0.3776  1.3441  0.1435
16149SOL    HW252040   4.236   4.490   5.026 -0.1067 -2.1581 -0.1502
16150SOL     OW52041   4.625   9.054   6.565 -0.0742  0.5673  0.0186
16150SOL    HW152042   4.641   8.960   6.571 -0.1828  0.5594  0.1831
16150SOL    HW252043   4.577   9.076   6.645  0.4412  0.8636  0.2511
16151SOL     OW52044   1.474   1.489  10.690  0.2417  0.5423  0.5270
16151SOL    HW152045   1.438   1.491  10.601  0.3864 -1.0046  0.4118
16151SOL    HW252046   1.491   1.581  10.710  0.5002  0.9046 -1.1594
16152SOL     OW52047   1.678  10.732   4.881 -0.0459  0.5044 -0.2616
16152SOL    HW152048   1.747  10.760   4.940  0.1688 -1.3002  0.3829
16152SOL    HW252049   1.617  10.683   4.936  1.9281 -4.3810 -1.8948
16153SOL     OW52050   4.140   4.174   7.226  0.3281  0.7172  0.0510
16153SOL    HW152051   4.120   4.119   7.303  1.1826  2.7952  1.8472
16153SOL    HW252052   4.056   4.214   7.204  0.2076  0.6418  0.3582
16154SOL     OW52053   3.064   8.399  10.802 -0.3391 -0.1391 -0.0185
16154SOL    HW152054   3.097   8.441  10.723  3.3144 -2.4165  0.0954
16154SOL    HW252055   3.052   8.471  10.864  2.0352  1.1822 -0.9598
16155SOL     OW52056   4.843   2.749  10.142  0.1250 -0.0017  0.0840
16155SOL    HW152057   4.876   2.831  10.178  1.5892 -0.2381 -0.6445
16155SOL    HW252058   4.837   2.764  10.048 -3.3742  0.5056  0.2494
16156SOL     OW52059   2.079   0.576   0.940  0.1624 -0.3010  0.1468
16156SOL    HW152060   2.103   0.668   0.944 -1.2684  0.1234 -0.3626
16156SOL    HW252061   1.986   0.576   0.917  0.3331 -1.8895 -0.7323
16157SOL     OW52062   3.714   3.181   3.092  0.3151 -0.3327 -0.0216
16157SOL    HW152063   3.656   3.256   3.104 -1.6240 -1.1788 -2.9640
16157SOL    HW252064   3.706   3.160   2.999  4.0349 -1.6453 -0.2046
16158SOL     OW52065  10.603   8.165   3.219  0.0656  0.1647  0.1752
16158SOL    HW152066  10.595   8.218   3.140  1.2214  2.0537  1.2415
16158SOL    HW252067  10.687   8.119   3.209  0.7469  1.2364  0.7156
16159SOL     OW52068   4.695   4.099   1.568 -0.1930 -0.6466 -0.2011
16159SOL    HW152069   4.726   4.044   1.496  0.8328 -1.9970  1.1828
16159SOL    HW252070   4.762   4.166   1.579  1.0674 -2.0349  1.1348
16160SOL     OW52071   8.127   3.048   7.065  0.1926  0.0911  0.0127
16160SOL    HW152072   8.075   3.049   6.985  0.8280  0.2301 -0.4012
16160SOL    HW252073   8.184   3.125   7.059  0.9694 -0.4596  0.1036
16161SOL     OW52074   1.425   3.179   9.332 -0.3220  0.9805 -0.3592
16161SOL    HW152075   1.435   3.128   9.413 -1.6958  1.5627  0.2182
16161SOL    HW252076   1.405   3.114   9.265  1.7239  0.3888 -0.4526
16162SOL     OW52077   9.540   4.956   0.898  0.3390 -0.6444  0.3942
16162SOL    HW152078   9.486   4.890   0.940  0.1374  0.0080  1.1899
16162SOL    HW252079   9.629   4.919   0.901  0.0852 -1.3060 -0.0732
16163SOL     OW52080   8.197  10.432   4.552 -0.5944  0.0677  0.5884
16163SOL    HW152081   8.244  10.361   4.596  0.1731 -1.1878 -2.0291
16163SOL    HW252082   8.193  10.404   4.460  1.6285  4.3163 -1.0563
16164SOL     OW52083   2.462  10.370   4.852 -0.0406 -0.5479  0.4823
16164SOL    HW152084   2.426  10.459   4.854  0.0940 -0.4247 -1.2509
16164SOL    HW252085   2.387  10.313   4.839 -0.0781 -0.6639  1.1747
16165SOL     OW52086   8.147   9.743   0.510  0.3730 -0.6378  0.0348
16165SOL    HW152087   8.061   9.707   0.532 -0.4739  2.1899  1.9436
16165SOL    HW252088   8.208   9.671   0.523 -1.3978 -1.9523  1.4976
16166SOL     OW52089   3.887  10.106   0.006  0.0585  0.0825 -0.0892
16166SOL    HW152090   3.914  10.101  -0.085  1.7699  0.8257  0.3470
16166SOL    HW252091   3.849  10.020   0.024  1.4235 -0.7422 -0.9787
16167SOL     OW52092   7.324   5.873   9.778 -0.2240  0.2357  0.3859
16167SOL    HW152093   7.406   5.848   9.821 -0.6099  1.7660  2.1279
16167SOL    HW252094   7.352   5.924   9.702  0.4330  0.2269  0.6170
16168SOL     OW52095   7.535   3.218  10.561  0.4761  0.0112 -0.5349
16168SOL    HW152096   7.564   3.306  10.540  1.8906 -0.4161 -0.4555
16168SOL    HW252097   7.603   3.183  10.619 -1.4184 -0.1741  1.7120
16169SOL     OW52098   9.963  10.588   5.939 -0.2789 -0.2553 -0.5931
16169SOL    HW152099   9.937  10.509   5.893 -1.7981  0.8394 -1.7022
16169SOL    HW252100  10.022  10.633   5.878  0.0392 -0.2029 -0.2504
16170SOL     OW52101   0.194  11.012  10.245 -0.1237 -0.4349  0.4378
16170SOL    HW152102   0.111  10.997  10.198 -0.0022 -2.0793  0.7014
16170SOL    HW252103   0.171  11.004  10.338  0.3829 -1.2357  0.5015
16171SOL     OW52104   6.815   8.227   3.405  0.4619 -0.1476  0.2757
16171SOL    HW152105   6.723   8.243   3.428  1.0169  1.3633  1.6501
16171SOL    HW252106   6.835   8.142   3.444  0.3440  0.7099  2.3303
16172SOL     OW52107   4.907   4.236   0.477  0.2463 -0.1271  0.1430
16172SOL    HW152108   4.966   4.290   0.424  0.2418  1.3321  1.5314
16172SOL    HW252109   4.876   4.295   0.546 -1.7152 -1.2535  0.3059
16173SOL     OW52110   5.283   9.139   5.201  0.0334 -0.1682 -0.1012
16173SOL    HW152111   5.276   9.080   5.126 -0.0176  1.4188 -1.4117
16173SOL    HW252112   5.208   9.198   5.192  1.1075  1.2725  0.0529
16174SOL     OW52113   3.199   7.898   6.202  0.3256  0.0315 -0.0113
16174SOL    HW152114   3.134   7.929   6.264  1.0025  1.2984  0.1032
16174SOL    HW252115   3.149   7.846   6.138 -0.6294  0.1749  0.6064
16175SOL     OW52116   0.660   0.717   4.232 -0.3950 -0.1839  0.2669
16175SOL    HW152117   0.657   0.798   4.282  1.0622  0.3830 -0.4973
16175SOL    HW252118   0.741   0.674   4.261 -0.2578 -0.5181 -0.5775
16176SOL     OW52119   7.948   4.309   2.158  0.1333 -0.4840  0.3206
16176SOL    HW152120   7.925   4.359   2.079  0.6192  0.3827  0.7099
16176SOL    HW252121   7.905   4.357   2.229  0.1893 -0.9241  0.6556
16177SOL     OW52122   6.144   7.776   4.616 -0.2857  0.3086 -0.5632
16177SOL    HW152123   6.237   7.760   4.603 -0.4490  0.2584 -1.7905
16177SOL    HW252124   6.138   7.868   4.641  0.0682  0.4153 -0.8674
16178SOL     OW52125   8.049   8.200   6.717  0.6245 -0.0713  0.2602
16178SOL    HW152126   8.064   8.238   6.630  1.8834 -0.4154  0.3052
16178SOL    HW252127   8.133   8.209   6.762 -0.0536  0.2153  1.4975
16179SOL     OW52128   3.371   7.283   6.497  0.1821  0.7786  0.3236
16179SOL    HW152129   3.353   7.222   6.569 -0.5846 -0.7261 -1.0849
16179SOL    HW252130   3.452   7.251   6.458  0.6865  1.6906  0.5871
16180SOL     OW52131   0.604   6.323   0.457  0.1462 -0.5156 -0.4802
16180SOL    HW152132   0.519   6.343   0.494  0.4231  0.6910 -0.4431
16180SOL    HW252133   0.608   6.228   0.453 -0.8991 -0.5922  0.2086
16181SOL     OW52134   5.040   4.977  10.725 -0.0565 -0.3152  0.1989
16181SOL    HW152135   5.066   4.900  10.775  1.0030 -0.3322 -0.3316
16181SOL    HW252136   5.073   4.960  10.636 -1.4139 -0.0463 -0.3726
16182SOL     OW52137   7.529   7.955   5.708  0.3716 -0.0296 -0.0728
16182SOL    HW152138   7.504   8.048   5.705 -0.3472 -0.1549  1.2340
16182SOL    HW252139   7.538   7.936   5.801  0.4094 -1.3059 -0.3208
16183SOL     OW52140   7.593   7.262  10.138  0.0620 -0.6226  0.1718
16183SOL    HW152141   7.619   7.199  10.205  0.3811 -1.9180 -1.1035
16183SOL    HW252142   7.675   7.285  10.094 -0.2394 -0.4069 -0.2823
16184SOL     OW52143   0.080   6.223  10.038 -0.7171 -0.2816  0.0100
16184SOL    HW152144   0.015   6.203  10.106 -0.5095  1.5705  0.8320
16184SOL    HW252145   0.083   6.144   9.984 -3.6716 -0.4542 -0.1054
16185SOL     OW52146   9.153   0.463  10.278  0.6927  0.0148  0.3565
16185SOL    HW152147   9.080   0.419  10.236 -0.7959 -0.3878  3.1782
16185SOL    HW252148   9.225   0.400  10.274 -0.1130 -0.9318  0.4926
16186SOL     OW52149   9.114   8.590   3.913  0.3783  0.1367 -0.4540
16186SOL    HW152150   9.046   8.599   3.846  0.1823 -0.3319 -0.3214
16186SOL    HW252151   9.167   8.516   3.884 -1.2864 -1.8299  1.2346
16187SOL     OW52152   0.888   8.973   1.484 -0.6710  0.2771 -0.1274
16187SOL    HW152153   0.824   8.909   1.515 -0.4157  0.0475 -0.0773
16187SOL    HW252154   0.944   8.925   1.424  2.8086 -1.0418  3.7205
16188SOL     OW52155   4.247   2.522  10.487 -0.0646  0.0704  0.3397
16188SOL    HW152156   4.285   2.435  10.498 -1.6083 -0.9258 -1.5554
16188SOL    HW252157   4.321   2.578  10.464  0.5867 -1.3700 -1.2802
16189SOL     OW52158   8.583   9.260   4.645 -0.4129  0.0508 -0.3356
16189SOL    HW152159   8.584   9.222   4.733  1.0454 -1.0176 -0.7744
16189SOL    HW252160   8.673   9.292   4.631 -0.7323  0.5920 -1.2870
16190SOL     OW52161   8.853  10.237   5.219  0.2192  0.4057  0.1076
16190SOL    HW152162   8.853  10.145   5.191  0.2749 -0.2409  2.0895
16190SOL    HW252163   8.854  10.287   5.137 -0.8905 -1.3365 -1.0286
16191SOL     OW52164  10.225   0.295   0.469 -0.3705  0.8497  0.0567
16191SOL    HW152165  10.245   0.278   0.561  2.0404 -0.6066 -0.6374
16191SOL    HW252166  10.298   0.347   0.438 -1.0902  1.2096 -1.0776
16192SOL     OW52167   7.560   8.667   8.838  0.4847  0.2445  0.1546
16192SOL    HW152168   7.542   8.752   8.877  1.3024 -0.1495  1.4285
16192SOL    HW252169   7.640   8.680   8.786  0.5100  0.2926  0.2067
16193SOL     OW52170   8.488   1.136   2.700 -0.3775  0.5426  0.0643
16193SOL    HW152171   8.492   1.126   2.795 -0.0759 -2.7211 -0.1975
16193SOL    HW252172   8.573   1.105   2.669 -0.8739  0.5055 -1.3348
16194SOL     OW52173   6.722   5.959   6.336 -0.2164  0.1610 -0.0724
16194SOL    HW152174   6.702   5.942   6.428  0.3235  2.5035  0.5396
16194SOL    HW252175   6.703   6.052   6.324  2.3500  0.5777 -1.6119
16195SOL     OW52176   0.025   8.939   7.258 -0.2931  0.0758  0.0094
16195SOL    HW152177  -0.032   8.965   7.330 -1.5527  0.8768 -1.2152
16195SOL    HW252178  -0.023   8.868   7.214  0.3304 -0.2253 -0.1986
16196SOL     OW52179   3.266   9.019   9.945 -0.0815 -0.1360  0.0452
16196SOL    HW152180   3.217   9.097   9.918 -2.9648 -1.6673  0.4743
16196SOL    HW252181   3.330   9.006   9.875 -2.2280  0.3435 -2.1387
16197SOL     OW52182   2.132   8.499   9.803 -0.2444 -0.0585 -0.6254
16197SOL    HW152183   2.040   8.475   9.813 -0.3879  0.1500 -1.3906
16197SOL    HW252184   2.177   8.415   9.789 -0.7438  0.0497 -3.2609
16198SOL     OW52185   1.234   1.077   8.145 -0.6113 -0.3719 -0.1171
16198SOL    HW152186   1.301   1.060   8.079  0.7162  0.5200  0.9327
16198SOL    HW252187   1.154   1.040   8.109  0.7682 -2.9980 -0.6983
16199SOL     OW52188   4.390  10.937   0.729  0.2353 -0.0158  0.6851
16199SOL    HW152189   4.391  10.943   0.633  0.3456  1.1285  0.7345
16199SOL    HW252190   4.456  11.001   0.757  0.7850 -0.9235  1.5089
16200SOL     OW52191   5.350   7.549   6.471 -0.1805  0.3160  0.2018
16200SOL    HW152192   5.414   7.606   6.429 -2.2512  2.8985  0.3108
16200SOL    HW252193   5.276   7.606   6.491 -2.3832 -2.4175  0.4551
16201SOL     OW52194   9.304   6.595  10.866 -0.0846  0.0883 -0.2299
16201SOL    HW152195   9.279   6.633  10.951 -1.3218  0.1377 -0.5882
16201SOL    HW252196   9.238   6.628  10.805 -0.6837 -1.8991 -0.7326
16202SOL     OW52197   6.898   0.067   2.298  0.5468  0.2806  0.6066
16202SOL    HW152198   6.888   0.056   2.393 -1.6406  0.2773  0.4267
16202SOL    HW252199   6.973   0.126   2.288 -0.1027  1.4587  2.3970
16203SOL     OW52200   3.510   7.831  10.688 -0.0285 -0.1270  1.5286
16203SOL    HW152201   3.503   7.923  10.660  0.3947 -1.1259 -2.4105
16203SOL    HW252202   3.604   7.817  10.700  0.3407 -0.7697 -1.3158
16204SOL     OW52203   6.604   8.774  10.146 -0.4987  0.2851 -0.6844
16204SOL    HW152204   6.642   8.802  10.062  0.5344  2.3398  0.3763
16204SOL    HW252205   6.661   8.814  10.212 -2.4531  0.4489  1.0130
16205SOL     OW52206  10.598   5.692   9.014 -0.3824  0.0307 -0.3269
16205SOL    HW152207  10.633   5.608   9.042 -0.7464  0.2702  0.9300
16205SOL    HW252208  10.504   5.676   9.000 -0.0589 -0.3054 -2.4179
16206SOL     OW52209   6.943   4.128  10.927  0.4147  0.0792 -0.4491
16206SOL    HW152210   7.015   4.146  10.867  0.4551  1.1369 -0.0941
16206SOL    HW252211   6.952   4.035  10.949  0.4696 -0.3020 -1.9777
16207SOL     OW52212   0.708   5.630   1.644  0.0047 -0.1576 -0.3864
16207SOL    HW152213   0.731   5.561   1.582  1.4852  0.6786 -0.8082
16207SOL    HW252214   0.659   5.693   1.592  0.1587 -0.0549 -0.4060
16208SOL     OW52215   1.658   5.361  10.267 -0.6738  0.2479 -0.2251
16208SOL    HW152216   1.701   5.307  10.202 -0.5831  0.2374 -0.1561
16208SOL    HW252217   1.683   5.323  10.351 -1.9119 -0.5996 -0.2194
16209SOL     OW52218   9.185   5.224   8.975  0.1823 -0.1716 -0.1476
16209SOL    HW152219   9.258   5.285   8.977  0.8760 -0.9949  0.8997
16209SOL    HW252220   9.224   5.140   8.951 -0.6004 -0.4035 -0.6404
16210SOL     OW52221   1.763   7.555  10.630 -0.2271  0.0067 -0.2664
16210SOL    HW152222   1.725   7.607  10.559  0.5449 -1.4573 -1.8266
16210SOL    HW252223   1.744   7.464  10.606  0.5265 -0.5549  1.1364
16211SOL     OW52224   7.129   7.168   7.389 -0.0715 -0.4029 -0.1438
16211SOL    HW152225   7.055   7.174   7.329 -0.1589  3.0977  0.1339
16211SOL    HW252226   7.201   7.138   7.334 -1.1981 -1.9169 -0.8589
16212SOL     OW52227   9.699   3.668   4.350  0.9312 -0.2702  0.1288
16212SOL    HW152228   9.627   3.700   4.295 -0.6178 -2.3395  0.8182
16212SOL    HW252229   9.759   3.743   4.357 -0.6093  1.1997 -1.3486
16213SOL     OW52230   7.019   4.501   4.829  0.1282  0.0177 -0.7630
16213SOL    HW152231   7.001   4.424   4.883  2.9279  0.3915  0.8847
16213SOL    HW252232   7.002   4.576   4.886  2.9033  0.4290 -0.3517
16214SOL     OW52233   5.590   2.458   2.974 -0.1329 -0.6419 -0.3900
16214SOL    HW152234   5.630   2.505   2.901 -0.9255 -0.6302 -0.8326
16214SOL    HW252235   5.635   2.374   2.976  0.6953 -0.2089 -0.1440
16215SOL     OW52236   3.501   3.664   8.856  0.4436  0.0757  0.1383
16215SOL    HW152237   3.559   3.590   8.875  0.1854 -0.2539 -0.3580
16215SOL    HW252238   3.413   3.628   8.861  0.3676 -0.2259 -2.4316
16216SOL     OW52239   9.554   3.531   8.801  0.7976 -0.2494 -0.0989
16216SOL    HW152240   9.515   3.512   8.716  0.1657 -4.4307  0.8964
16216SOL    HW252241   9.640   3.567   8.780  1.4666 -2.9440 -2.6502
16217SOL     OW52242   7.619   8.844  10.505  0.0378  0.2251  1.0912
16217SOL    HW152243   7.556   8.793  10.453 -1.4005  2.0176  0.9983
16217SOL    HW252244   7.672   8.889  10.440  1.9138 -1.7457  1.1550
16218SOL     OW52245   7.247   1.272   6.416 -0.3634 -0.0208 -0.6917
16218SOL    HW152246   7.198   1.353   6.406 -0.8554 -0.2599 -0.2666
16218SOL    HW252247   7.189   1.214   6.464  0.5591 -0.1190  0.3463
16219SOL     OW52248   4.868   1.967   1.937 -0.1961 -0.1162  0.2632
16219SOL    HW152249   4.956   1.943   1.966 -1.2545 -1.5596  2.5623
16219SOL    HW252250   4.844   2.042   1.991  0.3574  1.6914 -1.8646
16220SOL     OW52251   9.028   3.439   7.623 -0.1624  0.4753 -0.1452
16220SOL    HW152252   9.045   3.450   7.529 -0.7121  1.1697 -0.1716
16220SOL    HW252253   9.111   3.462   7.665 -0.0344  0.5619 -0.4437
16221SOL     OW52254   6.538   8.365   5.945  0.1029 -0.6941  0.7058
16221SOL    HW152255   6.577   8.452   5.939  1.8767 -1.5228 -1.2864
16221SOL    HW252256   6.558   8.336   6.034  2.0129 -0.1110  0.5275
16222SOL     OW52257   9.100   0.778   6.993  0.1955  0.0543  0.5961
16222SOL    HW152258   9.180   0.764   6.943  0.3117  1.6365  0.2681
16222SOL    HW252259   9.130   0.806   7.079  0.0003  0.0578  0.6632
16223SOL     OW52260   2.617   1.937   2.128 -0.3252  0.4842  0.0217
16223SOL    HW152261   2.675   1.894   2.066 -2.5236 -1.4362 -0.8192
16223SOL    HW252262   2.573   1.866   2.175 -1.3988  1.8531  1.2194
16224SOL     OW52263  10.722   2.103   9.120 -0.3294  0.9148  0.2046
16224SOL    HW152264  10.746   2.190   9.153 -0.8659  2.3993 -2.9405
16224SOL    HW252265  10.803   2.068   9.085 -0.4027  0.7592  0.1918
16225SOL     OW52266   3.066   9.274   7.967 -0.3223 -0.3959 -0.0861
16225SOL    HW152267   3.087   9.367   7.958 -0.8984 -0.4250 -2.7322
16225SOL    HW252268   2.974   9.272   7.994 -0.4649 -0.1755 -0.5474
16226SOL     OW52269   9.682   3.900   5.145  0.1284 -0.7076  0.2662
16226SOL    HW152270   9.632   3.823   5.120  1.0983 -0.8879 -1.3159
16226SOL    HW252271   9.756   3.866   5.195  0.8300 -0.8871 -0.8625
16227SOL     OW52272   8.502   2.489   2.940 -0.0558  0.4108  0.9995
16227SOL    HW152273   8.496   2.461   2.849  0.9305 -0.7435  1.2606
16227SOL    HW252274   8.480   2.582   2.939 -0.5711  0.2865 -0.3341
16228SOL     OW52275   6.226   1.033   8.809  0.4824 -0.0927  0.0751
16228SOL    HW152276   6.141   1.077   8.813  0.1216 -0.8384  1.4156
16228SOL    HW252277   6.216   0.967   8.742  0.3035  0.3994 -0.3912
16229SOL     OW52278   1.834   8.508   2.142  0.1982  0.3979 -0.4088
16229SOL    HW152279   1.781   8.539   2.068 -0.0109  2.3688  0.5158
16229SOL    HW252280   1.805   8.417   2.155 -1.7798  0.9062 -0.9646
16230SOL     OW52281   1.781   0.708   3.075 -0.0639 -0.3040  0.4792
16230SOL    HW152282   1.774   0.636   3.138  0.7340 -0.5295  0.3198
16230SOL    HW252283   1.831   0.672   3.002 -0.5030  0.1248 -0.0438
16231SOL     OW52284  10.881  10.396   1.619  0.2934 -0.0011 -0.9383
16231SOL    HW152285  10.800  10.446   1.630  0.9927  1.0120 -0.3144
16231SOL    HW252286  10.852  10.305   1.612 -0.8877  0.3249 -0.4722
16232SOL     OW52287   5.066   6.101   7.771  0.2558  0.4679 -0.0484
16232SOL    HW152288   5.020   6.029   7.814 -0.4018 -0.0735 -1.5922
16232SOL    HW252289   5.135   6.125   7.832 -1.2626  0.4448  1.7868
16233SOL     OW52290   2.523   7.368   8.880  0.1256  0.2842  0.2749
16233SOL    HW152291   2.436   7.333   8.860  1.3473 -2.0638 -1.3755
16233SOL    HW252292   2.527   7.450   8.831 -0.7374 -0.1551 -0.5582
16234SOL     OW52293   6.465   4.995   4.212  0.1909 -0.4904  0.2373
16234SOL    HW152294   6.491   4.967   4.124  1.5307  2.2823 -0.3730
16234SOL    HW252295   6.378   5.032   4.200  0.5280  0.2371 -0.0393
16235SOL     OW52296   4.287   7.175   8.464 -0.2743  0.1393  0.4838
16235SOL    HW152297   4.359   7.232   8.493 -0.1253  0.5400 -0.6292
16235SOL    HW252298   4.238   7.228   8.402 -1.0533 -0.4187  0.6121
16236SOL     OW52299   4.521   1.535   2.542  0.2714  0.3654 -0.1095
16236SOL    HW152300   4.542   1.442   2.551  0.2175  0.1713 -1.7389
16236SOL    HW252301   4.538   1.555   2.450  0.2300  1.9636  0.2036
16237SOL     OW52302   2.170   2.323   9.258  0.3366 -0.8101 -0.4173
16237SOL    HW152303   2.127   2.261   9.318 -0.5376 -0.1111 -0.3016
16237SOL    HW252304   2.109   2.329   9.184 -0.4273  1.1959  0.3296
16238SOL     OW52305   7.159   3.259   6.725  0.2793 -0.1591 -0.9458
16238SOL    HW152306   7.136   3.230   6.813 -0.1342  0.6908 -0.7610
16238SOL    HW252307   7.235   3.316   6.738 -0.1021  0.3939 -1.0578
16239SOL     OW52308   2.333   2.703   7.272 -0.1052 -0.4287  0.5228
16239SOL    HW152309   2.427   2.713   7.283  0.1183 -2.8066  1.4664
16239SOL    HW252310   2.323   2.651   7.192 -0.7489  1.1056 -0.4424
16240SOL     OW52311   5.008   2.360   8.867  0.4320 -0.4756 -0.0695
16240SOL    HW152312   4.940   2.323   8.924 -0.2534 -0.0220 -0.5674
16240SOL    HW252313   4.960   2.421   8.811  1.0741 -0.9907 -1.2004
16241SOL     OW52314   2.577   3.787   5.800 -0.2597  0.2357  0.1037
16241SOL    HW152315   2.556   3.791   5.707 -0.1197  1.2014  0.1027
16241SOL    HW252316   2.668   3.759   5.803 -0.3590 -0.1064 -0.0361
16242SOL     OW52317  10.488   8.533   1.446  0.0874 -0.2273  0.3709
16242SOL    HW152318  10.582   8.535   1.460 -0.0163 -0.0488  1.0839
16242SOL    HW252319  10.450   8.565   1.528 -0.5889 -0.1395  0.0373
16243SOL     OW52320   3.145   8.908   4.477  0.1967  0.7749 -0.5018
16243SOL    HW152321   3.141   8.994   4.520  0.7422  0.8058 -0.5118
16243SOL    HW252322   3.058   8.871   4.491  0.0743  1.1719 -0.1727
16244SOL     OW52323   5.169   6.838   8.725 -0.1863 -0.5095  0.0317
16244SOL    HW152324   5.131   6.769   8.670  0.5995  1.1424 -2.7950
16244SOL    HW252325   5.109   6.911   8.717  1.0557  0.4885 -0.4805
16245SOL     OW52326   2.171   3.529   7.861  0.0134 -0.0530 -0.0420
16245SOL    HW152327   2.158   3.559   7.951 -1.2973  0.6186 -0.4305
16245SOL    HW252328   2.254   3.568   7.835  1.2035 -1.5211  1.3572
16246SOL     OW52329   7.061  10.409   5.439  0.3851  0.1324 -0.1430
16246SOL    HW152330   7.054  10.504   5.447  0.6968  0.0634  1.1489
16246SOL    HW252331   7.147  10.394   5.400  1.4097  0.3277  1.9191
16247SOL     OW52332   4.259   7.835   1.570 -0.7111  0.5191 -0.4439
16247SOL    HW152333   4.322   7.860   1.503 -0.8306  1.7214 -0.1456
16247SOL    HW252334   4.182   7.889   1.551 -2.2061 -1.8922 -1.6354
16248SOL     OW52335   0.202   9.179   1.408  0.1667 -0.2765 -0.2595
16248SOL    HW152336   0.185   9.085   1.401 -1.7138 -0.0305  0.4617
16248SOL    HW252337   0.214   9.207   1.317 -0.8011 -0.9598 -0.6186
16249SOL     OW52338   3.089   5.818   7.865 -0.3937 -0.4274  0.0857
16249SOL    HW152339   3.147   5.750   7.899 -2.0823 -2.2763 -0.5702
16249SOL    HW252340   3.032   5.840   7.939 -0.9082 -0.9084 -0.1691
16250SOL     OW52341   3.768   8.105   1.802  0.1401  0.7964  0.3830
16250SOL    HW152342   3.791   8.014   1.817  2.1756  1.2853  0.5846
16250SOL    HW252343   3.757   8.112   1.707 -1.1578  0.1333  0.4654
16251SOL     OW52344   4.393   6.410   1.538  0.0761 -1.0094 -0.4647
16251SOL    HW152345   4.306   6.447   1.553  0.4149 -0.4924  0.2953
16251SOL    HW252346   4.414   6.364   1.620 -0.5537 -3.3813 -1.5565
16252SOL     OW52347   5.719   6.248   6.133 -0.2348  0.3093 -0.1288
16252SOL    HW152348   5.735   6.284   6.221  0.2410 -1.6043  0.6125
16252SOL    HW252349   5.773   6.302   6.075 -0.9363  1.9213  0.6566
16253SOL     OW52350   7.546   1.656   0.972 -0.1185 -0.0759 -0.3090
16253SOL    HW152351   7.466   1.605   0.958 -0.2719 -0.0979  0.6083
16253SOL    HW252352   7.516   1.742   1.000  0.1155 -0.9985  3.3069
16254SOL     OW52353   5.304   1.495   0.384 -0.1005  0.5072 -0.4285
16254SOL    HW152354   5.385   1.486   0.333 -0.3438 -0.9701 -0.6159
16254SOL    HW252355   5.260   1.570   0.346  0.0715 -0.1171 -1.9321
16255SOL     OW52356   7.231   2.049   4.026  0.1482  0.4484  0.0956
16255SOL    HW152357   7.167   2.046   4.097 -2.4471  0.1246 -2.0958
16255SOL    HW252358   7.272   1.963   4.027  0.7892  0.7460  1.6988
16256SOL     OW52359   1.538   0.772   4.654  0.2721  0.1456  0.2083
16256SOL    HW152360   1.495   0.840   4.602  1.1252  0.7780  0.3163
16256SOL    HW252361   1.537   0.807   4.744 -1.0651 -0.8703  0.6301
16257SOL     OW52362  10.559   3.070   8.590  0.1894  0.2518  0.0086
16257SOL    HW152363  10.566   3.134   8.660 -1.3442  0.0202  0.3972
16257SOL    HW252364  10.611   2.995   8.621 -1.6270 -0.4270  1.5984
16258SOL     OW52365   7.543   7.306   9.544  0.3305 -0.2780 -0.1865
16258SOL    HW152366   7.570   7.290   9.454  1.4276  2.1748 -0.3786
16258SOL    HW252367   7.626   7.312   9.593 -0.2410 -1.4179  0.9919
16259SOL     OW52368   9.916  11.002   2.195  0.4896 -0.2363  0.3567
16259SOL    HW152369   9.963  11.085   2.189 -2.1557  1.2983 -1.0352
16259SOL    HW252370   9.904  10.988   2.289  0.3485  1.3467  0.6020
16260SOL     OW52371   9.827   2.206   5.096  0.2352  0.5676 -0.0274
16260SOL    HW152372   9.827   2.110   5.094  0.4762  0.5261  1.3760
16260SOL    HW252373   9.914   2.231   5.065  0.7639  0.2714  1.1741
16261SOL     OW52374   1.909   5.174   5.096 -0.6338  0.5137  0.2191
16261SOL    HW152375   1.953   5.089   5.104 -1.1084  0.4097  2.1739
16261SOL    HW252376   1.872   5.173   5.008  1.5647 -0.1994 -0.7819
16262SOL     OW52377   8.608   0.126   4.843 -0.1680  0.3493  0.2942
16262SOL    HW152378   8.530   0.071   4.838 -0.7594  1.1714  0.4147
16262SOL    HW252379   8.619   0.162   4.755  0.1810  0.1012  0.2320
16263SOL     OW52380   1.910   9.780   0.848  0.1310 -0.2759  0.3455
16263SOL    HW152381   1.986   9.801   0.902  1.6307 -0.1320 -1.6888
16263SOL    HW252382   1.940   9.711   0.789 -1.4025 -0.3996 -0.3479
16264SOL     OW52383  10.818   6.254   2.331  0.5778 -0.3856  0.3432
16264SOL    HW152384  10.745   6.223   2.384 -0.5215 -0.3593 -1.0785
16264SOL    HW252385  10.781   6.264   2.243  2.3314 -0.5089 -0.4597
16265SOL     OW52386   9.710  10.919   7.302  0.0025  0.2452  0.8845
16265SOL    HW152387   9.623  10.926   7.340 -1.3376 -1.3927 -1.6048
16265SOL    HW252388   9.738  10.829   7.321  1.2284  0.7703  1.7257
16266SOL     OW52389   2.941   2.674   9.953 -0.0808  0.0220 -0.7817
16266SOL    HW152390   2.905   2.587   9.970 -0.3240 -0.0669 -1.6699
16266SOL    HW252391   2.973   2.705  10.038  0.6239 -1.2096 -0.5892
16267SOL     OW52392   1.175   3.689   9.336  0.4913 -0.3768  0.2457
16267SOL    HW152393   1.209   3.634   9.407  0.3565 -0.8811 -0.0761
16267SOL    HW252394   1.165   3.629   9.262 -2.3479 -0.5613  0.6848
16268SOL     OW52395   0.256   0.249   9.289  0.0672  0.1437 -0.4393
16268SOL    HW152396   0.291   0.165   9.320  0.7283  0.9120  1.0161
16268SOL    HW252397   0.286   0.312   9.354 -1.7041  1.2900 -0.6846
16269SOL     OW52398   4.319   1.102   3.505 -0.0988  0.1615  0.4066
16269SOL    HW152399   4.296   1.009   3.499 -0.6192  0.3880 -1.6694
16269SOL    HW252400   4.304   1.136   3.417  1.4823  1.9067  0.7571
16270SOL     OW52401   7.381   4.027   3.938 -0.0596 -0.7979  0.2565
16270SOL    HW152402   7.338   3.977   3.868 -0.9829 -0.1933  0.3814
16270SOL    HW252403   7.310   4.073   3.982  0.8596  2.1477 -1.0328
16271SOL     OW52404   8.499   4.364  10.540  0.5975 -0.2147  0.0818
16271SOL    HW152405   8.476   4.427  10.472  0.7610  1.2913  1.3448
16271SOL    HW252406   8.451   4.285  10.518 -1.7760  1.1961 -0.1450
16272SOL     OW52407   3.477  10.388   8.167 -0.2303  0.6058 -0.1383
16272SOL    HW152408   3.481  10.466   8.110 -1.9058  1.0153  0.2459
16272SOL    HW252409   3.565  10.380   8.203 -0.1130  2.5567  0.1010
16273SOL     OW52410   6.850  10.758   1.305  0.0590 -0.7635 -0.9377
16273SOL    HW152411   6.869  10.675   1.348  0.0935 -0.8947 -1.2041
16273SOL    HW252412   6.881  10.824   1.366 -0.0974 -0.9440 -0.6620
16274SOL     OW52413   0.689   0.578   6.030  0.2964 -0.4213  0.0849
16274SOL    HW152414   0.753   0.518   6.069  0.9597  0.5962  0.5987
16274SOL    HW252415   0.660   0.633   6.104  0.2032  0.3332 -0.5006
16275SOL     OW52416   1.261   5.029   2.323  0.6071  0.1922  0.4402
16275SOL    HW152417   1.325   5.079   2.274  0.3395  0.7927  0.6881
16275SOL    HW252418   1.177   5.069   2.301  0.4343  0.1605  1.0074
16276SOL     OW52419  10.057   7.529   8.818 -0.0495 -0.0995 -0.1474
16276SOL    HW152420  10.076   7.585   8.742  0.3462  0.2150  0.1783
16276SOL    HW252421   9.986   7.574   8.864  1.1109  0.8345  0.8123
16277SOL     OW52422   0.069   1.759   9.363  0.0957  0.1252  0.3878
16277SOL    HW152423   0.081   1.674   9.319 -0.5031  0.0324  0.4058
16277SOL    HW252424   0.128   1.754   9.439  0.1886 -0.2109  0.2972
16278SOL     OW52425   6.600   6.475  10.695 -0.4276  1.2557 -0.0386
16278SOL    HW152426   6.597   6.395  10.643  0.0812  0.5565  0.9915
16278SOL    HW252427   6.692   6.499  10.698 -0.4611  1.3327  0.4882
16279SOL     OW52428   3.088   4.360   6.540  0.1634  0.3962  0.0503
16279SOL    HW152429   3.086   4.444   6.496  0.2862 -0.8371 -2.4964
16279SOL    HW252430   3.001   4.322   6.525  0.2248 -0.0998  0.8482
16280SOL     OW52431   2.066   8.471   5.337 -0.0619  0.1349 -0.3456
16280SOL    HW152432   2.071   8.395   5.396 -0.7725 -0.7105 -1.3280
16280SOL    HW252433   2.062   8.546   5.396 -1.2781 -0.7154  0.7279
16281SOL     OW52434   8.408   3.748  10.755  0.1992 -0.8944 -0.2120
16281SOL    HW152435   8.394   3.654  10.746 -0.2823 -0.8771  0.2910
16281SOL    HW252436   8.338   3.777  10.814  1.1053 -0.4352  0.6704
16282SOL     OW52437   1.708   1.119   6.242 -0.1596  0.2409 -0.3317
16282SOL    HW152438   1.662   1.112   6.159  1.3871 -1.8368 -1.1097
16282SOL    HW252439   1.641   1.105   6.308 -0.8625 -1.6954 -1.3914
16283SOL     OW52440   9.435   3.287   6.781 -0.4119 -0.2344 -0.4923
16283SOL    HW152441   9.398   3.352   6.841  0.5198 -1.0368  1.0368
16283SOL    HW252442   9.366   3.222   6.770  0.0461 -1.1046  1.3685
16284SOL     OW52443   5.441   8.004   3.380  0.3793  0.1300 -0.2497
16284SOL    HW152444   5.350   8.011   3.352  0.0660 -2.2532 -0.0149
16284SOL    HW252445   5.453   8.077   3.441 -0.8755  1.4229 -1.4905
16285SOL     OW52446   6.487   5.522   9.672  0.6487 -0.3053 -0.3814
16285SOL    HW152447   6.555   5.565   9.620  0.9033  0.7669  0.7906
16285SOL    HW252448   6.409   5.577   9.660  0.5903 -0.2981  0.0126
16286SOL     OW52449   5.927   3.355   4.280  1.0678  0.1355 -0.3518
16286SOL    HW152450   6.020   3.354   4.258  1.1952  1.7249 -0.0002
16286SOL    HW252451   5.924   3.325   4.371  0.9889 -2.0308 -1.0220
16287SOL     OW52452   5.765   0.769   5.777  0.0704 -0.1932  0.0191
16287SOL    HW152453   5.698   0.787   5.843 -1.0551 -0.3376 -1.0507
16287SOL    HW252454   5.749   0.679   5.750  0.8859 -0.3269 -0.0481
16288SOL     OW52455   7.303   4.368   6.750 -0.2975  0.3267 -0.8081
16288SOL    HW152456   7.274   4.453   6.785  3.1742  0.5156  2.1641
16288SOL    HW252457   7.360   4.391   6.676 -0.2237  0.5035 -0.6966
16289SOL     OW52458   0.163   1.436   1.297 -0.0926  0.5127  0.3062
16289SOL    HW152459   0.253   1.453   1.322 -0.0121  0.7354 -0.1276
16289SOL    HW252460   0.137   1.360   1.350  0.0828  0.9502  1.0244
16290SOL     OW52461   0.944   1.045   9.398  0.4127  0.3323 -0.2371
16290SOL    HW152462   0.988   1.121   9.436 -0.3722  2.2644 -2.9173
16290SOL    HW252463   0.853   1.072   9.389  0.1397 -0.8916 -1.3668
16291SOL     OW52464   8.815  10.299   4.187 -0.2327 -0.2571 -0.2273
16291SOL    HW152465   8.867  10.227   4.221  0.9236  0.2332 -0.8901
16291SOL    HW252466   8.797  10.355   4.263 -0.3812 -0.7785  0.1227
16292SOL     OW52467   1.802   8.274   1.869  0.0943 -0.0820  0.6483
16292SOL    HW152468   1.760   8.235   1.946  0.0986  1.0928  1.2757
16292SOL    HW252469   1.810   8.367   1.891  2.9887 -0.2127  0.5377
16293SOL     OW52470   1.962  10.873   6.541  0.2476  0.2505 -0.1398
16293SOL    HW152471   1.917  10.803   6.587  0.3751 -0.2678 -0.7985
16293SOL    HW252472   2.049  10.838   6.522  1.0246  1.2820  1.2527
16294SOL     OW52473   2.183   1.909   0.751  0.0862  0.3355 -0.3917
16294SOL    HW152474   2.162   1.878   0.839 -0.8577  0.0917 -0.6948
16294SOL    HW252475   2.279   1.913   0.749  0.0839  1.5345  1.0376
16295SOL     OW52476   7.575   9.983   0.264 -0.5580  0.7650  0.2424
16295SOL    HW152477   7.489   9.990   0.222 -0.7980  3.9540  1.0239
16295SOL    HW252478   7.634  10.031   0.206  0.4826 -0.3247  0.3554
16296SOL     OW52479   9.642   6.904   1.579  0.5803 -0.2020  0.0341
16296SOL    HW152480   9.600   6.819   1.576 -0.0845  0.0930  0.5668
16296SOL    HW252481   9.722   6.890   1.629  0.0880 -0.3639  0.7909
16297SOL     OW52482   7.713   8.668   5.748  0.0067  0.0622 -0.0282
16297SOL    HW152483   7.685   8.733   5.813  1.0491 -0.1039  0.6122
16297SOL    HW252484   7.662   8.689   5.669 -3.2922 -1.3776  1.5460
16298SOL     OW52485   5.284   6.459   0.015 -0.2463 -0.7915 -0.3024
16298SOL    HW152486   5.280   6.555   0.016 -2.0204 -0.8260 -1.4078
16298SOL    HW252487   5.378   6.440   0.024 -0.0088  0.9698  2.0106
16299SOL     OW52488   4.188   8.033   5.745  0.2523  0.1651  0.4589
16299SOL    HW152489   4.184   7.962   5.681  0.0026 -0.6552  1.3647
16299SOL    HW252490   4.212   8.110   5.694 -1.5189 -0.1300 -0.9110
16300SOL     OW52491   1.487  10.541   1.180 -0.1144  0.1982 -0.2874
16300SOL    HW152492   1.461  10.630   1.157  0.2014 -0.2706 -2.8548
16300SOL    HW252493   1.580  10.548   1.201  0.0957  0.4065 -1.2212
16301SOL     OW52494   6.950   0.513   6.953 -0.1071  0.8310 -0.0057
16301SOL    HW152495   7.009   0.539   7.024  0.2686  2.1694 -0.7686
16301SOL    HW252496   6.862   0.537   6.985  0.0354  1.2140  0.1019
16302SOL     OW52497   0.127   5.219  10.100  0.4267 -0.5806  0.3058
16302SOL    HW152498   0.218   5.243  10.114  0.0420  0.6660  0.8665
16302SOL    HW252499   0.130   5.134  10.057  1.8281 -1.0017  1.1855
16303SOL     OW52500   3.252   5.767   0.850 -0.2314 -0.2332  0.3032
16303SOL    HW152501   3.161   5.736   0.851 -0.9964  1.8693  1.5955
16303SOL    HW252502   3.245   5.861   0.837  1.6926  0.1570  1.6806
16304SOL     OW52503   4.045   9.796   1.203  0.1562  0.0734  0.4348
16304SOL    HW152504   3.974   9.835   1.151  0.3084  0.3348  0.4219
16304SOL    HW252505   4.030   9.702   1.196 -0.7459  0.1418  1.2113
16305SOL     OW52506   5.214   7.124   9.629 -0.1857  0.1552  0.0040
16305SOL    HW152507   5.298   7.094   9.594  0.8064  1.6925  0.9393
16305SOL    HW252508   5.176   7.046   9.670  0.6000 -0.6506 -0.7432
16306SOL     OW52509   3.523   9.419   1.535 -0.3785  0.0834 -0.2051
16306SOL    HW152510   3.530   9.359   1.461 -0.6199 -0.4396  0.1890
16306SOL    HW252511   3.450   9.477   1.512  0.0237  0.3920 -0.7028
16307SOL     OW52512   5.245   5.677  10.435  0.2836 -0.1746 -0.1089
16307SOL    HW152513   5.230   5.616  10.507  0.2636  0.8038  0.7428
16307SOL    HW252514   5.290   5.751  10.476 -0.1211  0.5884 -1.0165
16308SOL     OW52515   2.050   5.204   0.972 -0.2387 -0.0812  0.7026
16308SOL    HW152516   2.073   5.276   1.031  1.2364  2.0870 -2.2075
16308SOL    HW252517   1.973   5.235   0.925  0.4070 -0.3500 -0.5881
16309SOL     OW52518   2.674   6.398   1.640  0.2382  0.3044 -0.1623
16309SOL    HW152519   2.734   6.472   1.638  0.5792  0.0339 -0.0150
16309SOL    HW252520   2.713   6.337   1.703  1.5523 -1.3358 -2.4000
16310SOL     OW52521   7.414   8.496   3.362 -0.6244  0.0951  0.4785
16310SOL    HW152522   7.331   8.452   3.384 -0.2727  0.3992  2.6076
16310SOL    HW252523   7.458   8.506   3.446  1.1861  0.7622 -0.5158
16311SOL     OW52524   8.161   4.338   0.460 -0.7592 -0.3089 -0.1501
16311SOL    HW152525   8.138   4.388   0.381 -0.6712  1.6626  1.0219
16311SOL    HW252526   8.103   4.262   0.458 -0.4963 -0.5221 -2.2888
16312SOL     OW52527   5.194   7.018   1.285 -0.1640  0.0788 -0.4485
16312SOL    HW152528   5.103   6.999   1.310  0.5397 -0.1686  2.3491
16312SOL    HW252529   5.202   7.113   1.294  0.1761 -0.0446  0.7773
16313SOL     OW52530  10.565   7.916   1.276 -0.8292  0.0406 -0.0353
16313SOL    HW152531  10.606   7.982   1.332 -2.4670  0.8065  0.2982
16313SOL    HW252532  10.531   7.965   1.202 -2.5638 -0.3121  0.4889
16314SOL     OW52533   1.402   2.661   9.602  0.0916  0.4753  0.3733
16314SOL    HW152534   1.414   2.572   9.637 -1.6782  0.1345  0.2041
16314SOL    HW252535   1.347   2.705   9.667  2.4637  2.1246  1.4052
16315SOL     OW52536   8.093   5.747   4.717 -0.2987 -0.5814 -0.0249
16315SOL    HW152537   8.017   5.752   4.659  0.8751  1.3449 -1.5197
16315SOL    HW252538   8.118   5.838   4.732  1.9879 -1.1586  0.0626
16316SOL     OW52539   0.941   9.632   2.680 -0.5860 -0.4321  0.0566
16316SOL    HW152540   0.956   9.714   2.633 -0.7011  0.4472  1.5006
16316SOL    HW252541   1.025   9.612   2.721 -1.0531  0.0085  1.2679
16317SOL     OW52542   8.710  10.702   7.820  0.0927  0.4204  0.0621
16317SOL    HW152543   8.660  10.742   7.891 -1.3696  1.5583 -1.5287
16317SOL    HW252544   8.736  10.776   7.765  2.3788 -0.2870  0.0828
16318SOL     OW52545   6.213   2.501   8.394  0.2187 -0.1986 -0.6121
16318SOL    HW152546   6.186   2.539   8.477 -0.9881  0.9209 -1.4835
16318SOL    HW252547   6.138   2.448   8.366  0.0177  0.6211 -1.6790
16319SOL     OW52548   7.209   7.968   8.188  0.6276  0.1536 -0.4562
16319SOL    HW152549   7.276   8.034   8.201  1.6183 -0.9905  0.3818
16319SOL    HW252550   7.128   8.009   8.218  1.7190 -0.0591  3.1985
16320SOL     OW52551   7.755   0.603   2.621  0.2800  0.3404 -0.1406
16320SOL    HW152552   7.800   0.685   2.601 -0.9945  0.6949 -1.6781
16320SOL    HW252553   7.817   0.535   2.594  0.7473  0.7971 -0.2407
16321SOL     OW52554  10.675   4.490  10.376  0.1893 -0.3694 -0.2811
16321SOL    HW152555  10.762   4.525  10.394  0.2099 -0.6772  0.2463
16321SOL    HW252556  10.639   4.548  10.310  0.3859  0.3981  0.2686
16322SOL     OW52557   4.988   5.465   7.657  0.5211 -0.3840  0.3541
16322SOL    HW152558   4.963   5.404   7.587  0.5106  0.7413 -0.6465
16322SOL    HW252559   5.024   5.409   7.725  2.6544 -1.3574 -1.4538
16323SOL     OW52560   6.467   5.129   0.391 -0.0990  0.0940  0.4280
16323SOL    HW152561   6.384   5.084   0.375  0.3632 -0.3919 -0.7133
16323SOL    HW252562   6.505   5.082   0.465 -0.8833  0.4053  1.0479
16324SOL     OW52563   4.664   6.203   5.504  0.1706  0.5046 -0.1556
16324SOL    HW152564   4.667   6.135   5.571 -0.2099 -0.8956 -1.4929
16324SOL    HW252565   4.751   6.242   5.505  0.2512  0.3242  0.9633
16325SOL     OW52566   7.779   4.530   9.062  0.3189  0.1989 -0.1294
16325SOL    HW152567   7.726   4.477   9.003 -0.4231  0.2714  0.4539
16325SOL    HW252568   7.861   4.546   9.014 -0.8065  1.4903 -1.7327
16326SOL     OW52569   4.818   0.634   8.868 -0.1018  0.4636  0.2935
16326SOL    HW152570   4.856   0.677   8.791 -0.4346  3.6973  1.7767
16326SOL    HW252571   4.744   0.585   8.833 -0.7527  2.4873 -1.4345
16327SOL     OW52572   4.510   6.315   9.477  0.2175 -0.1766 -0.1394
16327SOL    HW152573   4.426   6.360   9.485  0.2040 -0.1401 -0.5130
16327SOL    HW252574   4.523   6.303   9.383 -0.0774 -1.5134 -0.0225
16328SOL     OW52575  10.757   0.200   3.744  0.0027 -0.1002 -0.0707
16328SOL    HW152576  10.777   0.162   3.658  0.2634  0.0453 -0.0745
16328SOL    HW252577  10.832   0.256   3.764 -0.7184  1.0387 -0.4274
16329SOL     OW52578   1.781   9.953   8.098 -0.9733 -0.6216 -0.1656
16329SOL    HW152579   1.796   9.862   8.072 -2.9241 -0.9460 -0.3072
16329SOL    HW252580   1.765   9.999   8.015  0.7310  0.0639 -0.1722
16330SOL     OW52581   8.365   1.317   5.496 -0.6563 -0.0388 -0.2283
16330SOL    HW152582   8.295   1.336   5.434 -1.1005  1.0048  0.5546
16330SOL    HW252583   8.322   1.269   5.566 -0.5198  0.2761  0.0747
16331SOL     OW52584   6.212   4.842   7.830 -0.0122 -0.1573 -0.9231
16331SOL    HW152585   6.291   4.893   7.815 -0.3009 -0.0962 -2.4394
16331SOL    HW252586   6.142   4.907   7.836  0.0050 -0.2225  0.2173
16332SOL     OW52587   6.806   1.664   8.307  0.2382  0.0330 -0.1754
16332SOL    HW152588   6.882   1.644   8.362 -2.3807 -2.8523  2.8656
16332SOL    HW252589   6.830   1.631   8.220  2.5303 -0.5978  0.6179
16333SOL     OW52590   6.979  10.355   6.605  0.3275 -0.2845  0.0319
16333SOL    HW152591   6.925  10.399   6.540  0.9398  1.4016  0.5972
16333SOL    HW252592   6.941  10.268   6.614 -0.7753  0.0266 -1.3498
16334SOL     OW52593   7.468   0.243   1.551  0.9522 -0.2240 -0.3328
16334SOL    HW152594   7.543   0.242   1.491  1.3107  0.6178  0.0903
16334SOL    HW252595   7.467   0.332   1.586  0.9820 -0.8097  1.1937
16335SOL     OW52596   4.647   1.335   9.530  0.6005  0.1085 -0.2307
16335SOL    HW152597   4.666   1.423   9.560  0.1764  0.0716  0.1577
16335SOL    HW252598   4.708   1.279   9.579  0.6599  0.1564 -0.2507
16336SOL     OW52599   5.698  11.019   1.424  0.1512 -0.0578 -0.2044
16336SOL    HW152600   5.613  10.980   1.405 -0.1374  0.2258  0.5005
16336SOL    HW252601   5.683  11.113   1.423  0.2780 -0.0213  0.7235
16337SOL     OW52602   2.225   3.268   7.938 -0.3504  0.1635 -0.0438
16337SOL    HW152603   2.250   3.296   8.025  0.2223 -1.6295  0.4240
16337SOL    HW252604   2.227   3.348   7.885  3.1506  0.7564  0.7087
16338SOL     OW52605   1.781   8.360   5.481 -0.5146 -0.0628  0.4235
16338SOL    HW152606   1.719   8.288   5.472 -3.0229  1.9563  0.6200
16338SOL    HW252607   1.795   8.391   5.391  0.6735 -0.8248  0.3234
16339SOL     OW52608   4.126   9.712   0.114  0.1440 -0.0737 -0.3593
16339SOL    HW152609   4.170   9.633   0.147  0.1527 -0.4408 -1.2175
16339SOL    HW252610   4.056   9.678   0.058 -1.1523  0.4958  0.8574
16340SOL     OW52611   4.684  11.062   1.894  0.0137 -0.3575  0.0453
16340SOL    HW152612   4.663  10.981   1.939  0.5569 -0.7476 -0.3794
16340SOL    HW252613   4.638  11.130   1.943 -1.2647 -1.0250 -0.1712
16341SOL     OW52614   9.744   4.658   9.856 -0.4403 -0.8196 -0.1173
16341SOL    HW152615   9.731   4.666   9.950  1.0401  1.4849 -0.0134
16341SOL    HW252616   9.690   4.728   9.818  1.8588  0.8445 -0.5782
16342SOL     OW52617   6.105   7.056   8.484 -0.2472  0.6500 -0.5277
16342SOL    HW152618   6.148   6.978   8.521  1.8293  2.1603  0.4398
16342SOL    HW252619   6.021   7.024   8.451 -0.3217 -1.6260  1.6194
16343SOL     OW52620   2.310   7.245  10.759 -0.1182  0.2938  0.4812
16343SOL    HW152621   2.278   7.188  10.829 -0.9358 -1.4034 -1.1876
16343SOL    HW252622   2.251   7.321  10.761 -2.5262 -1.4302 -0.6533
16344SOL     OW52623   5.569   2.197   7.594 -0.2804 -0.1857 -0.1552
16344SOL    HW152624   5.605   2.168   7.678 -1.8075 -0.6460  0.3796
16344SOL    HW252625   5.533   2.284   7.613  1.6210  0.8459 -1.0078
16345SOL     OW52626   3.804   0.944   9.695 -0.0292  0.0323  0.0652
16345SOL    HW152627   3.734   1.010   9.697  1.2612  1.4191  1.6993
16345SOL    HW252628   3.793   0.901   9.610 -1.4714  1.7377 -0.6736
16346SOL     OW52629   8.897   3.127   8.259 -0.0580 -0.5327 -0.9397
16346SOL    HW152630   8.871   3.219   8.253 -1.5936 -0.9213 -0.7741
16346SOL    HW252631   8.904   3.098   8.168 -1.3640 -0.6983 -1.0054
16347SOL     OW52632   3.057   0.080   9.919 -0.1640 -0.1058  0.5660
16347SOL    HW152633   2.981   0.115   9.873  0.7208  2.3920  0.8618
16347SOL    HW252634   3.030   0.076  10.010  0.6630  2.9585  1.0453
16348SOL     OW52635   5.762   5.605   7.755  0.2594 -1.1506  0.0306
16348SOL    HW152636   5.849   5.602   7.794 -0.1758 -0.2262  1.1452
16348SOL    HW252637   5.703   5.591   7.830 -0.5891 -0.0331 -0.4095
16349SOL     OW52638   2.130   2.977   0.147  1.0161 -0.5883 -0.0023
16349SOL    HW152639   2.054   2.982   0.203  0.5871 -0.6947 -0.5640
16349SOL    HW252640   2.188   2.913   0.189  1.3780  0.4251  1.0986
16350SOL     OW52641   1.614  10.178  10.317  0.4288 -0.5439 -0.7696
16350SOL    HW152642   1.535  10.157  10.367 -0.4903 -1.8467 -2.6402
16350SOL    HW252643   1.585  10.241  10.251  1.6152  1.1361  0.2213
16351SOL     OW52644   8.011   2.946  10.646 -0.6149 -0.1183  0.6670
16351SOL    HW152645   8.056   3.007  10.705 -1.3391  1.2286 -0.1011
16351SOL    HW252646   8.060   2.951  10.564  0.4461 -2.0559  1.1278
16352SOL     OW52647   6.650   0.301   3.626  0.2028  0.7958 -0.3176
16352SOL    HW152648   6.609   0.216   3.611 -0.4573  1.0492  0.0152
16352SOL    HW252649   6.687   0.294   3.714  0.3218  0.7890 -0.3677
16353SOL     OW52650   4.896   3.720   4.736 -0.2281 -0.1849 -0.1883
16353SOL    HW152651   4.972   3.678   4.778  0.6439  0.0989 -1.4094
16353SOL    HW252652   4.916   3.814   4.738 -0.0319 -0.1784 -1.4238
16354SOL     OW52653   4.059   9.172   0.159 -0.2264  0.6520  0.5883
16354SOL    HW152654   4.031   9.084   0.184  1.0582  0.4329  1.4095
16354SOL    HW252655   3.999   9.199   0.091 -0.0194 -1.2925 -0.4282
16355SOL     OW52656   6.783   8.983   1.563 -0.0827  0.5426  0.3043
16355SOL    HW152657   6.718   8.978   1.493  1.5211  0.3786 -1.2460
16355SOL    HW252658   6.799   8.892   1.587  2.7298  0.1360 -2.4813
16356SOL     OW52659   7.692   4.108  10.646  0.2312  0.1127  0.5272
16356SOL    HW152660   7.672   4.016  10.661  1.0929 -0.1062  0.3612
16356SOL    HW252661   7.784   4.118  10.670  0.3299  0.7821 -0.0737
16357SOL     OW52662   0.530   3.502   3.844  0.2006  0.2104  0.1352
16357SOL    HW152663   0.564   3.589   3.866  0.2113 -0.2199  1.9851
16357SOL    HW252664   0.607   3.452   3.819  0.5951  0.0425  1.5640
16358SOL     OW52665   6.998   4.724   1.474  0.5669  0.3168 -0.5822
16358SOL    HW152666   7.017   4.741   1.381 -0.2724  0.8789 -0.6655
16358SOL    HW252667   7.005   4.629   1.482  0.4583  0.2384 -1.2747
16359SOL     OW52668   0.982   1.928   6.104 -0.1562  0.2727 -0.1466
16359SOL    HW152669   1.015   1.872   6.174 -1.6478  0.6627  0.9322
16359SOL    HW252670   1.039   2.005   6.105  0.8496 -0.4547 -0.4934
16360SOL     OW52671   8.858   0.532   3.084 -0.4610 -0.6431 -0.1623
16360SOL    HW152672   8.827   0.587   3.012 -1.1412  0.7783  1.1620
16360SOL    HW252673   8.912   0.591   3.137  0.1935 -1.7154  0.3863
16361SOL     OW52674   0.979   7.665   7.207  0.5839 -0.2127  0.0396
16361SOL    HW152675   0.983   7.716   7.126  1.2842 -1.6167 -0.8349
16361SOL    HW252676   0.889   7.675   7.237  0.2546  0.1493 -1.0224
16362SOL     OW52677  10.986   9.936   5.093  0.3440 -0.1746  0.1215
16362SOL    HW152678  10.918   9.923   5.027 -1.6037  0.0772  1.9646
16362SOL    HW252679  11.063   9.890   5.058 -0.3865  0.4861 -2.5600
16363SOL     OW52680   8.544   6.161   2.203 -0.0179 -0.1125  0.0480
16363SOL    HW152681   8.550   6.236   2.261  2.5486  0.9920 -1.4871
16363SOL    HW252682   8.597   6.093   2.245 -1.5012 -0.8084  0.9179
16364SOL     OW52683   8.487  10.763  10.453  0.0910 -0.3719 -0.4523
16364SOL    HW152684   8.418  10.822  10.482 -0.7946 -1.9513  0.7928
16364SOL    HW252685   8.544  10.818  10.399 -1.1195  1.4037 -0.0106
16365SOL     OW52686   9.071   7.432   2.053 -0.4148 -0.1854 -0.0531
16365SOL    HW152687   9.020   7.473   2.124 -0.6933  0.2568 -0.5000
16365SOL    HW252688   9.150   7.485   2.047 -0.7890  0.3170 -0.6527
16366SOL     OW52689   7.730   0.351   1.307  0.4272  0.5386  0.1436
16366SOL    HW152690   7.710   0.257   1.308 -0.7456  0.6873 -1.9370
16366SOL    HW252691   7.820   0.357   1.338  0.8025 -1.3780 -0.4468
16367SOL     OW52692  10.828   1.405   0.886 -0.1968 -0.0776 -0.6244
16367SOL    HW152693  10.766   1.449   0.943  0.9506 -0.3994  0.9461
16367SOL    HW252694  10.791   1.414   0.798 -2.0322  0.4143  0.1553
16368SOL     OW52695   8.550  10.506   4.861 -0.5099 -0.3374  0.3705
16368SOL    HW152696   8.552  10.441   4.791 -0.5608  0.4118 -0.3275
16368SOL    HW252697   8.641  10.515   4.888 -0.6463 -1.7384  1.4665
16369SOL     OW52698   0.653   2.963   8.811 -0.4872 -0.6957 -0.3292
16369SOL    HW152699   0.653   3.025   8.884 -4.7779  0.2415 -0.8475
16369SOL    HW252700   0.681   3.016   8.736 -0.7016 -0.3342 -0.1598
16370SOL     OW52701   9.049   7.652   8.252 -0.2253  0.1092 -0.0914
16370SOL    HW152702   9.070   7.715   8.320  1.1841 -2.6665  2.2534
16370SOL    HW252703   8.957   7.628   8.268 -1.1955  2.3553 -1.8125
16371SOL     OW52704   4.501   0.168   4.664  0.2326  0.0565 -0.0919
16371SOL    HW152705   4.477   0.237   4.603 -2.3982  0.3709  1.1335
16371SOL    HW252706   4.483   0.087   4.617 -1.4706  0.2961  0.0626
16372SOL     OW52707  10.428   5.549   3.225  0.5342  0.3289 -0.3374
16372SOL    HW152708  10.510   5.588   3.195  0.1500  0.8805 -0.6835
16372SOL    HW252709  10.366   5.621   3.225 -0.1632 -0.2614 -0.8806
16373SOL     OW52710   7.922   4.565   1.953  0.1911  0.2061 -0.0314
16373SOL    HW152711   7.932   4.474   1.923 -0.7852 -0.2574  0.9337
16373SOL    HW252712   8.000   4.610   1.921  0.8971 -1.0746 -0.1989
16374SOL     OW52713   6.965   7.426   6.442  0.0244 -0.2699 -0.1599
16374SOL    HW152714   6.933   7.492   6.504  2.2486  0.6080  0.1590
16374SOL    HW252715   6.944   7.342   6.484 -1.5168  0.2278  0.1310
16375SOL     OW52716   3.494   9.833   5.737 -0.0110  0.0441  0.2929
16375SOL    HW152717   3.577   9.848   5.692  0.1796  0.0753  0.6524
16375SOL    HW252718   3.519   9.799   5.823 -0.3936 -1.4439 -0.1449
16376SOL     OW52719   4.148  10.041   9.507 -0.1344 -0.2383 -0.2496
16376SOL    HW152720   4.145   9.965   9.449 -0.3164  0.3504 -1.0221
16376SOL    HW252721   4.193  10.109   9.457  1.4673 -0.3046  1.0148
16377SOL     OW52722   8.229   2.162   7.649  0.7131 -0.3830 -0.2258
16377SOL    HW152723   8.314   2.178   7.689  0.5150 -0.1602  0.1027
16377SOL    HW252724   8.166   2.173   7.720  0.4022 -0.4630 -0.4878
16378SOL     OW52725   4.774   5.478   4.448 -0.0724  0.6461 -0.0575
16378SOL    HW152726   4.786   5.458   4.355 -0.6867  0.7952 -0.1689
16378SOL    HW252727   4.863   5.472   4.485  0.0002 -0.8020 -0.3732
16379SOL     OW52728   6.060   4.543  10.365  0.3432  0.1837 -0.0263
16379SOL    HW152729   6.008   4.575  10.291 -1.0656  0.3543  0.9954
16379SOL    HW252730   6.001   4.485  10.413  0.9675  0.6393  1.3645
16380SOL     OW52731   5.807   3.382  10.951  0.7219  0.2217  0.1400
16380SOL    HW152732   5.892   3.357  10.914 -0.2407  1.3984 -3.2753
16380SOL    HW252733   5.773   3.301  10.990  2.9664 -0.4948  0.7299
16381SOL     OW52734   6.847   1.451   2.819 -0.4766 -0.3459  0.0863
16381SOL    HW152735   6.826   1.487   2.733 -0.7456 -0.1647  0.2241
16381SOL    HW252736   6.818   1.519   2.880 -1.7547 -1.1377  0.3917
16382SOL     OW52737   3.302   4.863   3.352 -0.1000  0.5652  0.2425
16382SOL    HW152738   3.264   4.863   3.265 -0.4136 -1.3228  0.3507
16382SOL    HW252739   3.379   4.920   3.344  0.3548 -0.2142 -1.4959
16383SOL     OW52740   6.973   9.700   8.636  0.4155  0.1456 -0.8598
16383SOL    HW152741   6.984   9.791   8.612  0.2577  0.0980 -1.1200
16383SOL    HW252742   6.881   9.693   8.662 -0.0397 -0.2994 -2.4693
16384SOL     OW52743   7.806   1.015   6.771 -0.2268 -0.0155 -0.0659
16384SOL    HW152744   7.786   1.045   6.682 -1.1211 -1.6265 -0.4474
16384SOL    HW252745   7.725   0.972   6.800  0.7704 -1.4455  0.6733
16385SOL     OW52746   2.331   0.089   5.863 -0.3801  0.2006  0.3439
16385SOL    HW152747   2.265   0.155   5.844 -0.4669 -0.3477 -1.4013
16385SOL    HW252748   2.309   0.015   5.807  1.1466 -0.3561  0.4199
16386SOL     OW52749   0.511  10.036   3.275 -0.5099 -0.1123  0.2104
16386SOL    HW152750   0.419  10.009   3.278 -0.0839 -2.0908 -1.7464
16386SOL    HW252751   0.556   9.973   3.332 -0.0726 -0.7291 -0.7950
16387SOL     OW52752   6.983   5.172   9.287  0.4229  0.2352 -0.6436
16387SOL    HW152753   6.890   5.151   9.289  0.2791  0.6148 -2.2251
16387SOL    HW252754   7.027   5.087   9.294 -0.0486 -0.0182 -0.7157
16388SOL     OW52755   4.822   2.906   7.662 -0.7541 -0.1260  0.0229
16388SOL    HW152756   4.794   2.816   7.643 -1.3090 -0.2521  1.3195
16388SOL    HW252757   4.842   2.943   7.576 -0.9393 -1.3500 -0.5780
16389SOL     OW52758   4.935   4.236   1.084  0.4091  0.0825 -0.2174
16389SOL    HW152759   4.919   4.300   1.154  1.9646  0.3051 -0.0162
16389SOL    HW252760   5.009   4.273   1.036 -0.1887 -0.4232 -1.5639
16390SOL     OW52761  11.029   9.658   5.950 -0.1666  0.4586  0.2735
16390SOL    HW152762  10.994   9.721   5.887  0.2936  1.9031  1.4065
16390SOL    HW252763  11.034   9.706   6.032  2.5497 -0.2896  0.6384
16391SOL     OW52764   4.898   8.676   4.649  0.1186 -0.0883 -0.0843
16391SOL    HW152765   4.963   8.613   4.679 -1.3137 -0.7029  1.8886
16391SOL    HW252766   4.868   8.719   4.729 -0.7118  1.3711 -1.1416
16392SOL     OW52767   0.937   9.589   0.192 -0.4315  0.2779 -0.0158
16392SOL    HW152768   0.867   9.529   0.216  0.0412 -0.1259  0.3875
16392SOL    HW252769   0.897   9.650   0.131 -0.7726 -0.8417 -0.9540
16393SOL     OW52770   8.472   9.651   2.142 -0.4618 -0.0761  0.8558
16393SOL    HW152771   8.530   9.727   2.155  1.1299 -1.1844  0.5984
16393SOL    HW252772   8.415   9.676   2.070  0.8707  0.4338 -0.0577
16394SOL     OW52773   9.837   0.878   3.195 -0.0062  0.5331  0.1127
16394SOL    HW152774   9.902   0.810   3.208  0.1861  0.6002 -0.4834
16394SOL    HW252775   9.867   0.926   3.118 -2.1447 -1.1006 -1.8575
16395SOL     OW52776   5.785   0.293  10.271  0.3216 -0.2192  0.7184
16395SOL    HW152777   5.799   0.367  10.212 -0.5050  1.8067  2.8874
16395SOL    HW252778   5.690   0.278  10.268  0.4411 -0.9680  0.5613
16396SOL     OW52779   6.390   4.520   2.835  0.0926  0.6292 -0.9345
16396SOL    HW152780   6.450   4.487   2.768  1.1444 -2.7061  1.4099
16396SOL    HW252781   6.442   4.579   2.888  0.2872  0.5265 -1.0108
16397SOL     OW52782   3.935   9.012   5.698 -0.1055 -0.0496  0.1366
16397SOL    HW152783   3.970   8.923   5.688  2.5652  0.7762  1.1349
16397SOL    HW252784   3.999   9.068   5.654 -1.9623  1.3901 -0.8468
16398SOL     OW52785   2.339  10.633   2.633 -0.5081 -0.4508 -0.4941
16398SOL    HW152786   2.320  10.608   2.723  1.8167 -1.4629 -0.1966
16398SOL    HW252787   2.255  10.630   2.588 -1.5443 -1.0248  1.3859
16399SOL     OW52788   0.366   2.651   4.989  0.0474 -0.5203 -0.7315
16399SOL    HW152789   0.316   2.610   5.060  0.7013  0.9384  0.6293
16399SOL    HW252790   0.304   2.710   4.947  0.2081  0.1704 -0.0114
16400SOL     OW52791   6.964   6.272   7.230 -0.2418  0.6037 -0.0676
16400SOL    HW152792   6.972   6.290   7.136 -0.1437 -2.9594 -0.8854
16400SOL    HW252793   7.030   6.205   7.247 -3.2776 -2.2712  1.4258
16401SOL     OW52794   4.975   8.036  11.058  0.0495 -0.6996  0.2467
16401SOL    HW152795   4.883   8.038  11.087  0.1670  0.3630  0.5931
16401SOL    HW252796   5.014   7.964  11.108 -0.7473 -1.6323 -0.4326
16402SOL     OW52797   8.165  10.695   4.594 -0.1360 -0.3070  0.0402
16402SOL    HW152798   8.253  10.717   4.625  0.5718 -0.7438 -1.5519
16402SOL    HW252799   8.167  10.600   4.583 -0.8258 -0.3197  0.0123
16403SOL     OW52800   7.293   4.775   6.346 -0.5939  0.3497 -0.0030
16403SOL    HW152801   7.238   4.762   6.423 -1.4643  3.1201 -0.0700
16403SOL    HW252802   7.233   4.770   6.272  0.1789 -1.9402 -0.5619
16404SOL     OW52803   5.054   5.714   7.653  0.2942 -0.2022 -0.1297
16404SOL    HW152804   5.070   5.621   7.672 -1.8711 -0.4709  0.6564
16404SOL    HW252805   5.033   5.752   7.739  0.4414  0.8715 -0.5548
16405SOL     OW52806   8.603   2.598   6.549  0.3202 -0.8063 -1.1262
16405SOL    HW152807   8.616   2.520   6.602 -1.6205  0.7390  1.9131
16405SOL    HW252808   8.672   2.658   6.577  1.1947 -1.0038 -2.7251
16406SOL     OW52809   7.666   5.199   5.541  0.2678  0.1049 -0.5386
16406SOL    HW152810   7.587   5.182   5.489 -0.6288  0.7872  0.5599
16406SOL    HW252811   7.713   5.116   5.541 -0.6026 -0.4012 -0.9593
16407SOL     OW52812   6.419  10.417   4.249  0.2197 -0.1271 -0.4615
16407SOL    HW152813   6.348  10.367   4.289 -1.0116  1.3771 -0.6544
16407SOL    HW252814   6.448  10.476   4.319  0.0715  0.4777 -0.9080
16408SOL     OW52815  10.697   7.277   5.288 -0.4139 -0.1517 -0.2358
16408SOL    HW152816  10.642   7.329   5.229 -0.2269 -1.9092 -2.0656
16408SOL    HW252817  10.640   7.254   5.361 -1.3739  0.1262 -0.8764
16409SOL     OW52818   4.212   2.889   1.567  0.7258  0.0713  0.2599
16409SOL    HW152819   4.269   2.963   1.546  1.5390 -0.3109  1.0248
16409SOL    HW252820   4.130   2.929   1.596  0.3397  0.6270 -1.4589
16410SOL     OW52821   1.004   5.301   4.822 -0.4011  0.7825  0.1936
16410SOL    HW152822   1.023   5.253   4.903  1.4172  1.3293  0.1282
16410SOL    HW252823   0.909   5.292   4.811 -0.4809 -0.5076  1.6076
16411SOL     OW52824   7.519   2.107   5.144  0.0658  0.1003  0.1412
16411SOL    HW152825   7.546   2.095   5.053  0.0985 -0.3178  0.2019
16411SOL    HW252826   7.600   2.122   5.192  0.1692 -0.8080  0.2701
16412SOL     OW52827   1.493   1.494   5.303  0.2384 -0.5093  0.3364
16412SOL    HW152828   1.463   1.457   5.220 -0.0039 -0.6194  0.4700
16412SOL    HW252829   1.580   1.528   5.285 -0.4171  0.8509 -0.3537
16413SOL     OW52830   8.459   7.126   0.001  0.1336  0.0800 -0.2415
16413SOL    HW152831   8.474   7.116  -0.093  1.2687  1.3653 -0.2388
16413SOL    HW252832   8.430   7.217   0.011  0.1689  0.0005  0.6622
16414SOL     OW52833   1.745   4.206   3.481  0.2506 -0.3510  0.2581
16414SOL    HW152834   1.801   4.263   3.534  0.0277  1.1133 -0.9941
16414SOL    HW252835   1.803   4.171   3.413 -0.0374  0.1138 -0.2438
16415SOL     OW52836   6.768   7.101   4.911 -0.3349  0.1061  0.0408
16415SOL    HW152837   6.683   7.070   4.882 -0.3131  1.3312 -1.4941
16415SOL    HW252838   6.749   7.175   4.968 -0.3033 -0.2708  0.5491
16416SOL     OW52839   2.934   6.178   1.284  0.6005 -0.0336  0.3673
16416SOL    HW152840   2.954   6.155   1.375 -1.5114  1.8579  1.4126
16416SOL    HW252841   2.897   6.266   1.290 -0.8316 -0.3999 -2.1826
16417SOL     OW52842   5.909   3.237   7.968 -0.2050 -0.5131  0.2524
16417SOL    HW152843   5.998   3.270   7.964  0.7770 -2.8934  0.5825
16417SOL    HW252844   5.888   3.211   7.878 -0.7293  0.3917  0.1043
16418SOL     OW52845   2.291   4.402   7.531  0.0696  0.4010 -0.4060
16418SOL    HW152846   2.328   4.332   7.585  1.1049 -0.0785 -1.7030
16418SOL    HW252847   2.206   4.422   7.573  1.6170  1.4155  2.5749
16419SOL     OW52848   1.300   5.437   1.726 -0.1270  0.3344  0.2368
16419SOL    HW152849   1.238   5.477   1.664  0.7510 -1.0415 -1.6560
16419SOL    HW252850   1.345   5.511   1.766  1.2846  1.3955 -2.9510
16420SOL     OW52851  10.384   3.180  10.954 -0.0685  0.1596 -0.1195
16420SOL    HW152852  10.409   3.257  11.006 -0.1249 -0.0287  0.1866
16420SOL    HW252853  10.378   3.213  10.865 -1.6602  0.9028  0.2152
16421SOL     OW52854   7.617   8.539   4.414  0.4812  0.6828 -0.0218
16421SOL    HW152855   7.626   8.564   4.322 -1.2264 -2.6402 -1.2548
16421SOL    HW252856   7.682   8.470   4.427 -1.0396 -0.7463  0.3763
16422SOL     OW52857   4.664   8.205   5.096 -0.2009 -0.3286  0.1250
16422SOL    HW152858   4.742   8.150   5.086 -0.0670 -0.1224  0.0223
16422SOL    HW252859   4.598   8.147   5.133  0.5585 -0.0425  2.0266
16423SOL     OW52860  11.011   7.601   3.824  0.3008 -0.2870 -0.5939
16423SOL    HW152861  10.941   7.537   3.833 -1.4458  1.5841 -0.0229
16423SOL    HW252862  11.072   7.580   3.895 -1.7942  0.4637  1.5914
16424SOL     OW52863   8.369   1.800   8.806  0.3317  0.3429 -0.0152
16424SOL    HW152864   8.431   1.873   8.808  0.1318  0.5289 -0.4352
16424SOL    HW252865   8.418   1.726   8.840  0.8616  0.4309 -0.5742
16425SOL     OW52866   8.534   2.066   2.277  0.0406  0.0555  0.1235
16425SOL    HW152867   8.545   2.015   2.357 -0.0868 -0.8515 -0.4239
16425SOL    HW252868   8.460   2.024   2.232  0.0285  0.6344 -0.4031
16426SOL     OW52869   2.740   3.439   9.449 -0.9149 -0.1084  0.5829
16426SOL    HW152870   2.797   3.512   9.473 -0.3854  0.2803 -1.6113
16426SOL    HW252871   2.799   3.364   9.440 -1.1050 -0.2546  0.5421
16427SOL     OW52872  10.779   5.560  10.641  0.3179 -0.2517 -0.4701
16427SOL    HW152873  10.842   5.620  10.601  1.5534 -1.9205 -1.1452
16427SOL    HW252874  10.694   5.591  10.612  0.9936  0.5542 -1.6536
16428SOL     OW52875   6.820  11.076   8.294 -0.2178  0.1854 -0.3329
16428SOL    HW152876   6.826  11.001   8.235  0.1361 -0.1887  0.1671
16428SOL    HW252877   6.773  11.043   8.371 -0.0348  0.4657 -0.0976
16429SOL     OW52878   0.718   7.461   4.525 -0.8055  0.4095  0.1244
16429SOL    HW152879   0.755   7.374   4.539 -1.2922 -0.1419 -1.6743
16429SOL    HW252880   0.735   7.508   4.606  0.5272 -0.9815  0.7045
16430SOL     OW52881   0.936   5.860   7.175 -0.0809 -0.5283  0.2046
16430SOL    HW152882   1.006   5.909   7.131  0.3445  0.3171  1.7379
16430SOL    HW252883   0.943   5.771   7.140  2.4175 -0.7153  0.9860
16431SOL     OW52884   9.261   1.913   0.756 -0.2490  0.1326 -0.3974
16431SOL    HW152885   9.328   1.895   0.690 -0.9786  0.1510 -1.1750
16431SOL    HW252886   9.287   1.996   0.795  1.0183 -0.6152  0.4419
16432SOL     OW52887   8.414   9.852   4.753  0.2208 -0.1730  0.7090
16432SOL    HW152888   8.406   9.777   4.811  0.5756  1.3140  2.7791
16432SOL    HW252889   8.439   9.814   4.668 -3.1178 -2.6968  0.6347
16433SOL     OW52890   5.302   2.368   5.393  0.0980 -0.0851 -0.1891
16433SOL    HW152891   5.281   2.448   5.347 -0.3080  0.4586  0.9042
16433SOL    HW252892   5.398   2.366   5.395  0.1082  0.5967  0.1482
16434SOL     OW52893   3.473   1.575   7.675 -0.0276  0.5166  0.4441
16434SOL    HW152894   3.400   1.514   7.667  0.6394 -0.1946 -0.4254
16434SOL    HW252895   3.432   1.657   7.703 -1.0310 -0.1142  0.8987
16435SOL     OW52896   2.858   4.500   8.544  0.3158  0.2375 -0.5564
16435SOL    HW152897   2.939   4.521   8.498  0.1038  1.1069 -0.5521
16435SOL    HW252898   2.806   4.450   8.481  1.4632 -1.6804 -0.0402
16436SOL     OW52899  10.424   1.258   7.125  0.7979  0.4858  0.2054
16436SOL    HW152900  10.474   1.304   7.057  1.3034 -0.2863  0.0317
16436SOL    HW252901  10.462   1.169   7.126  0.8546  0.5047  1.5514
16437SOL     OW52902  10.833   0.492   3.597  0.0319  0.2833 -0.1940
16437SOL    HW152903  10.802   0.420   3.542 -2.1130  1.4817 -0.6661
16437SOL    HW252904  10.893   0.541   3.540 -0.7794  0.4944 -0.8955
16438SOL     OW52905   8.807   2.648   4.733  0.3738 -0.2587  0.0410
16438SOL    HW152906   8.879   2.621   4.677  1.9158 -0.4923  1.9991
16438SOL    HW252907   8.728   2.619   4.688  1.6694 -3.3239 -0.4808
16439SOL     OW52908  10.735   0.974   7.882 -0.1318  0.3054 -0.3450
16439SOL    HW152909  10.688   1.050   7.916 -0.5471  0.7501 -1.8472
16439SOL    HW252910  10.825   0.985   7.914 -0.3139  1.1433 -0.0912
16440SOL     OW52911  10.115   9.019   0.438  0.1512  0.5727  0.2469
16440SOL    HW152912  10.044   8.978   0.388  0.9978  1.3253 -1.6776
16440SOL    HW252913  10.151   9.086   0.379  1.5022  1.2349  1.7270
16441SOL     OW52914   1.020   4.014   4.675 -0.0217 -0.0163  0.0728
16441SOL    HW152915   1.011   4.108   4.660 -0.6990  0.2815  2.0694
16441SOL    HW252916   1.063   3.981   4.596 -0.9236  1.7496 -1.2182
16442SOL     OW52917   2.564   2.147   4.706  0.0193 -0.6366 -0.4026
16442SOL    HW152918   2.550   2.236   4.737 -1.3732 -0.0138 -2.6140
16442SOL    HW252919   2.629   2.111   4.767  0.3315  1.7208  0.7942
16443SOL     OW52920   9.884   9.674   9.921  0.0588  0.7493  0.3827
16443SOL    HW152921   9.969   9.704   9.889  0.7931 -0.8399  0.7466
16443SOL    HW252922   9.863   9.597   9.867 -0.6376  0.4908  0.9949
16444SOL     OW52923   3.514   1.393   2.476  0.3779 -0.4562  0.3198
16444SOL    HW152924   3.506   1.302   2.446  0.0337 -0.2242 -0.3173
16444SOL    HW252925   3.431   1.411   2.520  0.7051 -0.6542  1.0198
16445SOL     OW52926   0.979   2.263   3.430  0.2576 -0.0577  0.3305
16445SOL    HW152927   0.892   2.225   3.420 -0.0754  0.6359  0.4907
16445SOL    HW252928   1.035   2.209   3.374 -0.3750 -0.1868 -0.2020
16446SOL     OW52929  10.816   0.632  10.281  0.0628 -0.0366 -0.0535
16446SOL    HW152930  10.835   0.609  10.190  0.0092 -0.8944  0.1450
16446SOL    HW252931  10.798   0.726  10.279  0.1042 -0.0419 -0.9209
16447SOL     OW52932   5.662   2.030   2.455 -0.2120  0.7310 -0.3507
16447SOL    HW152933   5.604   1.954   2.456 -1.0293  1.2697 -1.9567
16447SOL    HW252934   5.709   2.022   2.372  0.5712  1.3528  0.0225
16448SOL     OW52935   0.522   5.708  10.919 -0.0078 -0.4189  0.3701
16448SOL    HW152936   0.594   5.771  10.914 -0.4845  0.1069 -0.1162
16448SOL    HW252937   0.455   5.753  10.971 -0.1667 -0.7158  0.4252
16449SOL     OW52938  10.949   7.466   5.089  0.1317 -0.4736  0.4752
16449SOL    HW152939  10.969   7.393   5.148  0.7692 -0.5095  0.2178
16449SOL    HW252940  10.953   7.543   5.146 -1.4712 -0.7048  0.9533
16450SOL     OW52941   5.383   5.186   3.593 -0.4583  0.2746 -0.4605
16450SOL    HW152942   5.441   5.118   3.558  0.3611 -0.5555  2.2889
16450SOL    HW252943   5.443   5.255   3.622 -0.7986 -0.3777  1.9735
16451SOL     OW52944   8.107   9.150   2.467 -0.6013 -0.2424 -0.1114
16451SOL    HW152945   8.152   9.095   2.403 -0.5956 -0.6502  0.2311
16451SOL    HW252946   8.148   9.236   2.459  0.3447 -0.6472  0.3047
16452SOL     OW52947   0.309   8.798   5.980  0.0732 -0.1186 -0.5328
16452SOL    HW152948   0.239   8.791   6.044  0.3846  0.6427 -0.0853
16452SOL    HW252949   0.388   8.770   6.027  0.2367  0.0519 -0.6995
16453SOL     OW52950  11.054   9.390   6.728 -0.1851  0.0511 -0.4561
16453SOL    HW152951  11.037   9.326   6.797  0.0565 -1.3830 -1.6847
16453SOL    HW252952  11.065   9.338   6.649  2.2419  1.4629 -1.1268
16454SOL     OW52953   2.154   0.132   8.141 -0.4611  0.2473  0.2611
16454SOL    HW152954   2.174   0.198   8.075 -0.7416 -1.1946 -1.3442
16454SOL    HW252955   2.129   0.054   8.090  0.4461 -1.2935  2.0425
16455SOL     OW52956   1.755   1.921   9.031 -0.9486 -1.1572  0.4414
16455SOL    HW152957   1.824   1.855   9.025 -0.5162 -0.6532 -0.3435
16455SOL    HW252958   1.693   1.898   8.961  0.0122  0.1488 -0.9015
16456SOL     OW52959   4.253   9.544   0.781 -0.0498  0.1675  0.2292
16456SOL    HW152960   4.319   9.533   0.850  0.5750 -3.0346 -0.7141
16456SOL    HW252961   4.302   9.579   0.706 -0.4010  2.0291  0.8072
16457SOL     OW52962   2.989   4.402  11.038  0.2661 -0.1412 -0.6301
16457SOL    HW152963   3.015   4.469  10.975  2.4084 -0.4683 -0.1764
16457SOL    HW252964   3.050   4.412  11.111 -2.0846  0.1628  1.4274
16458SOL     OW52965   3.097   8.077   8.428 -0.0988  0.5724 -0.1723
16458SOL    HW152966   3.071   7.992   8.464 -2.4045  0.5914 -1.6022
16458SOL    HW252967   3.128   8.057   8.340  0.1479  1.1362 -0.2187
16459SOL     OW52968   7.472   0.037  10.615  0.1772  0.2282  0.1021
16459SOL    HW152969   7.561   0.043  10.582 -0.1819 -0.8403 -1.1383
16459SOL    HW252970   7.461  -0.056  10.639 -0.7788  0.2117 -0.3380
16460SOL     OW52971   7.084   9.224   2.679  0.5985  0.3053  0.1610
16460SOL    HW152972   7.144   9.299   2.673 -0.6809  1.3423 -0.1963
16460SOL    HW252973   7.069   9.199   2.588  0.2719  0.2354  0.2347
16461SOL     OW52974   5.513  10.043   8.102  0.3532  0.3507 -0.7407
16461SOL    HW152975   5.576  10.068   8.033  0.0624  0.7091 -0.8792
16461SOL    HW252976   5.568  10.023   8.178  0.5821  2.3951 -0.3023
16462SOL     OW52977   6.867   5.023   6.037 -0.0977  0.4463  0.5211
16462SOL    HW152978   6.825   5.047   6.120  1.3432  0.8885  1.1435
16462SOL    HW252979   6.853   4.929   6.029 -0.5505  0.4623  1.0900
16463SOL     OW52980   9.785   3.160   8.203  0.3545  0.3982 -0.2893
16463SOL    HW152981   9.862   3.119   8.165  0.8384 -0.2304  1.2854
16463SOL    HW252982   9.765   3.108   8.280 -0.5172  1.6688  0.3902
16464SOL     OW52983   3.236  10.918   7.455  0.1210 -0.2352  0.1897
16464SOL    HW152984   3.309  10.923   7.516 -0.5193 -2.2730  1.2117
16464SOL    HW252985   3.245  10.833   7.413 -0.4287  0.4191 -1.3130
16465SOL     OW52986   3.568   4.196   5.567  0.7299  0.0115  0.4590
16465SOL    HW152987   3.534   4.200   5.477  0.9471 -0.9746  0.3234
16465SOL    HW252988   3.587   4.287   5.589  1.7517  0.1711 -0.9174
16466SOL     OW52989   9.812   3.906   8.905 -0.5035  0.2871  0.0862
16466SOL    HW152990   9.720   3.881   8.912 -0.2151 -1.2506 -0.8704
16466SOL    HW252991   9.824   3.926   8.812  0.0159  0.9516  0.2907
16467SOL     OW52992   5.861   0.567   3.769  0.4256  0.0747  0.0761
16467SOL    HW152993   5.805   0.566   3.692  1.4604  0.2624 -0.6989
16467SOL    HW252994   5.812   0.618   3.834 -0.5247 -0.2339 -0.3899
16468SOL     OW52995   8.114   2.228   6.346 -0.1487 -0.1543  0.2541
16468SOL    HW152996   8.188   2.235   6.406  0.5804 -0.1173 -0.6148
16468SOL    HW252997   8.117   2.310   6.295 -2.0757  0.8147  1.6040
16469SOL     OW52998   5.844   3.746   8.144  0.0399 -0.4278 -0.3483
16469SOL    HW152999   5.886   3.660   8.150  1.2515  0.0072 -1.8156
16469SOL    HW253000   5.915   3.809   8.161 -0.8883  0.3071  0.9819
16470SOL     OW53001   4.334   9.677   8.267 -0.6904 -0.0261 -0.2885
16470SOL    HW153002   4.296   9.746   8.213  0.3149  1.8158  1.2136
16470SOL    HW253003   4.304   9.596   8.227 -2.5860  1.2680 -1.6885
16471SOL     OW53004   4.782   0.162   9.426 -0.0299 -0.1891  0.1130
16471SOL    HW153005   4.731   0.228   9.379  1.1042 -0.3844 -1.4872
16471SOL    HW253006   4.748   0.079   9.393 -0.5458 -0.3940  1.1293
16472SOL     OW53007   5.331   0.826   4.593  0.3989 -0.0635 -0.1236
16472SOL    HW153008   5.289   0.854   4.675  0.9357 -1.0337  0.4863
16472SOL    HW253009   5.298   0.888   4.528  0.8142  1.4134  1.0170
16473SOL     OW53010   7.463   2.321   3.010 -0.1395 -0.6631  0.1714
16473SOL    HW153011   7.378   2.329   3.054  0.3150 -3.0254  1.6157
16473SOL    HW253012   7.488   2.230   3.021  2.1893 -0.2496 -1.0310
16474SOL     OW53013   6.514   4.529   9.756  0.1348  0.0884 -0.5966
16474SOL    HW153014   6.586   4.560   9.810  0.0692 -0.3811 -0.2353
16474SOL    HW253015   6.522   4.579   9.675 -0.0202  1.0992 -0.0008
16475SOL     OW53016   9.302   8.954   9.980  0.0543  0.2410 -0.0268
16475SOL    HW153017   9.228   8.959  10.041  1.0324 -0.2711  1.2559
16475SOL    HW253018   9.262   8.952   9.893 -1.3727  1.6153  0.5516
16476SOL     OW53019   3.356   8.425   7.870  0.5659 -0.3862  0.1502
16476SOL    HW153020   3.341   8.477   7.950  1.0628 -2.0298  1.3636
16476SOL    HW253021   3.305   8.346   7.883 -0.0925 -0.2799 -1.6280
16477SOL     OW53022   1.096   4.299  10.799  0.5898  0.5127 -0.6660
16477SOL    HW153023   1.066   4.212  10.772  0.8755 -0.0238  0.6826
16477SOL    HW253024   1.033   4.359  10.760 -0.6437 -0.4147 -0.1815
16478SOL     OW53025   0.981   0.757   9.713  0.6482  0.7726 -0.1188
16478SOL    HW153026   1.073   0.747   9.739  0.5684  1.4909  0.4725
16478SOL    HW253027   0.934   0.693   9.766  0.8476  0.1467 -0.6900
16479SOL     OW53028   2.058   6.525   1.722 -0.4432  0.0583 -0.0181
16479SOL    HW153029   2.038   6.453   1.662  2.3279 -0.3451 -0.6243
16479SOL    HW253030   2.126   6.490   1.780  0.4383  1.9172  0.1750
16480SOL     OW53031   9.271   9.014   7.338 -0.0842 -0.3072  0.2183
16480SOL    HW153032   9.363   9.023   7.364 -0.6070  1.1097  1.6858
16480SOL    HW253033   9.232   9.099   7.357 -1.3998 -0.4253 -1.7507
16481SOL     OW53034  10.314  10.721   0.810 -0.2938  0.0013 -0.2158
16481SOL    HW153035  10.287  10.762   0.727 -0.7696 -1.9869 -1.1202
16481SOL    HW253036  10.245  10.658   0.828  1.0171 -1.3015  0.3969
16482SOL     OW53037   3.734  10.672   7.331  0.0306  0.1964  0.2450
16482SOL    HW153038   3.639  10.676   7.325  0.1053  0.2750 -1.0705
16482SOL    HW253039   3.762  10.630   7.250  1.2651  2.4490 -0.5737
16483SOL     OW53040   0.187   4.045   3.745  0.1789  0.9194 -0.4302
16483SOL    HW153041   0.141   3.981   3.690 -0.1773  0.6921  0.1287
16483SOL    HW253042   0.214   4.113   3.683  2.1345 -0.6072 -1.3478
16484SOL     OW53043   0.188   7.982   0.729 -0.1582 -0.2103  0.8260
16484SOL    HW153044   0.229   7.935   0.657 -0.1478 -0.4906  1.0116
16484SOL    HW253045   0.147   8.058   0.689  1.1993  0.5022  0.7346
16485SOL     OW53046   2.680   2.019   8.130 -0.5929  0.1740  0.2148
16485SOL    HW153047   2.729   2.101   8.135 -0.2586 -0.0509  0.6999
16485SOL    HW253048   2.746   1.950   8.142 -0.9325 -0.1523  0.2410
16486SOL     OW53049   8.068   5.412   2.398  0.0632  0.1616 -0.2598
16486SOL    HW153050   8.057   5.435   2.305  0.5138  1.7223  0.0547
16486SOL    HW253051   8.132   5.476   2.431  0.0225 -0.4763  1.0985
16487SOL     OW53052   9.950   6.827   6.979 -0.2945 -0.1006  0.7323
16487SOL    HW153053   9.965   6.859   6.890 -1.9182  0.0770  0.4958
16487SOL    HW253054   9.983   6.737   6.979 -0.0143 -0.0020  0.0466
16488SOL     OW53055   2.105  11.055  10.392  0.3144 -0.4863  0.6612
16488SOL    HW153056   2.073  11.063  10.302  0.6174 -0.3083  0.5638
16488SOL    HW253057   2.092  11.142  10.430 -0.7299 -0.8248  1.1109
16489SOL     OW53058   3.053   2.601   9.700  0.3594  0.3478 -0.4675
16489SOL    HW153059   2.978   2.586   9.641  1.1490  0.0360 -1.4172
16489SOL    HW253060   3.014   2.639   9.778 -0.7205  0.8295 -1.2134
16490SOL     OW53061   5.513   8.818   2.747  0.7003  0.1552  0.3591
16490SOL    HW153062   5.591   8.810   2.693  0.9910  1.0769  0.6231
16490SOL    HW253063   5.450   8.758   2.708  1.5955 -0.7183  0.2414
16491SOL     OW53064   5.356   4.239   6.049  0.3530 -0.2795  0.5966
16491SOL    HW153065   5.426   4.302   6.062  0.2803 -0.2437  0.8311
16491SOL    HW253066   5.282   4.275   6.098  0.8697 -1.4826  2.3579
16492SOL     OW53067   1.832   0.842   8.889 -0.0057 -0.2056 -0.0957
16492SOL    HW153068   1.867   0.803   8.808  0.2444 -0.7715  0.2783
16492SOL    HW253069   1.903   0.832   8.952 -1.1196 -2.1888  0.9425
16493SOL     OW53070   8.289   3.403   2.703  0.5258 -0.3653 -0.3571
16493SOL    HW153071   8.362   3.453   2.666  0.7965 -0.3877  0.1423
16493SOL    HW253072   8.211   3.444   2.667  0.7232  0.7626  0.4774
16494SOL     OW53073   0.997   0.826   3.366  0.2565  0.4056  0.0562
16494SOL    HW153074   1.030   0.886   3.434  1.3795 -1.1526  0.9394
16494SOL    HW253075   0.964   0.751   3.415  0.5545 -0.4946 -1.0906
16495SOL     OW53076   7.204   5.453   2.995 -0.1442 -0.0125  0.3844
16495SOL    HW153077   7.275   5.513   3.020 -1.5250  1.6559  0.4849
16495SOL    HW253078   7.197   5.463   2.900  0.8404 -1.4909  0.1143
16496SOL     OW53079   6.011   4.344   3.726  0.5561 -0.3811 -0.5881
16496SOL    HW153080   6.022   4.293   3.807 -1.0962 -1.5380 -1.0597
16496SOL    HW253081   6.036   4.433   3.751 -0.2314 -0.6381  1.3074
16497SOL     OW53082   6.261   4.378  10.278  0.1940  0.2897 -0.2289
16497SOL    HW153083   6.176   4.412  10.303  0.2432 -0.3538  0.8634
16497SOL    HW253084   6.323   4.447  10.302  0.1917 -0.1314  1.0474
16498SOL     OW53085   1.013   6.405   4.202 -0.3835 -0.1643  0.2603
16498SOL    HW153086   1.053   6.394   4.115  0.1812 -1.6282  0.6876
16498SOL    HW253087   0.924   6.433   4.184 -0.1296  0.0282 -0.7766
16499SOL     OW53088   7.879   9.576   9.801  0.8437  0.4602 -0.0824
16499SOL    HW153089   7.932   9.535   9.732 -0.2299 -2.0396  0.4596
16499SOL    HW253090   7.788   9.563   9.773  0.4281  1.3401  0.7936
16500SOL     OW53091   2.508  10.403   6.647  0.5246 -0.6915  0.9176
16500SOL    HW153092   2.511  10.325   6.703  0.6609 -0.6383  0.9851
16500SOL    HW253093   2.515  10.368   6.558 -2.1175 -0.9771  0.7624
16501SOL     OW53094   1.606   5.106   7.696 -0.2764 -0.0766  0.2094
16501SOL    HW153095   1.532   5.153   7.735 -0.4640  0.0760 -0.3230
16501SOL    HW253096   1.567   5.049   7.630 -0.0449 -0.9634  0.8176
16502SOL     OW53097   1.926   6.605   8.512 -0.6120 -0.0913  0.6057
16502SOL    HW153098   1.999   6.549   8.536 -0.5790 -1.6163 -2.5814
16502SOL    HW253099   1.848   6.559   8.544 -0.4846 -1.2470 -0.6868
16503SOL     OW53100   7.191  10.868   2.192 -0.2205 -0.2916 -0.3953
16503SOL    HW153101   7.180  10.891   2.284 -1.9513  0.3030 -0.6974
16503SOL    HW253102   7.246  10.791   2.192 -0.8100 -0.7406  1.1977
16504SOL     OW53103   8.598   8.098   4.150 -0.1797  0.0547  0.0483
16504SOL    HW153104   8.593   8.171   4.212 -0.6089 -0.0830  0.1739
16504SOL    HW253105   8.692   8.080   4.143 -0.0333  0.9522 -0.3823
16505SOL     OW53106   0.156   2.926   8.744 -0.2011 -0.0861 -0.4226
16505SOL    HW153107   0.165   2.846   8.796  1.5275 -1.1453 -2.2356
16505SOL    HW253108   0.102   2.983   8.798 -0.6997 -2.1100  1.3496
16506SOL     OW53109   3.347   9.296   9.015 -0.0646 -0.5443  0.1817
16506SOL    HW153110   3.298   9.373   8.987  2.4945  1.0637 -0.2292
16506SOL    HW253111   3.337   9.294   9.110 -0.4463  0.0867  0.1535
16507SOL     OW53112   1.249  10.725   4.487 -0.1361 -0.4001 -0.2598
16507SOL    HW153113   1.294  10.747   4.568 -0.5455 -0.2466 -0.0673
16507SOL    HW253114   1.307  10.664   4.442 -0.1985 -1.0194  0.4655
16508SOL     OW53115   7.321  10.300   8.612  0.2448 -0.4799  0.0268
16508SOL    HW153116   7.305  10.334   8.700 -0.8597 -3.0968  0.9362
16508SOL    HW253117   7.238  10.310   8.566 -0.5904 -3.0137  0.7851
16509SOL     OW53118   7.671   1.792   0.072  0.6448  0.0366  0.3071
16509SOL    HW153119   7.634   1.879   0.084 -0.7764 -0.6073  0.8306
16509SOL    HW253120   7.664   1.751   0.158  1.2770 -0.6216  0.0617
16510SOL     OW53121   6.375   4.102   8.017 -0.3977  0.4708  0.0915
16510SOL    HW153122   6.424   4.184   8.017 -1.8648  1.4015  0.4397
16510SOL    HW253123   6.336   4.097   7.930 -2.0285  1.2907  0.7127
16511SOL     OW53124   7.249   0.234   8.239 -0.3996 -0.0103 -0.8681
16511SOL    HW153125   7.208   0.316   8.265  1.5228  1.0132 -0.8513
16511SOL    HW253126   7.225   0.223   8.147 -0.6704  0.5655 -0.8695
16512SOL     OW53127  10.479   7.482   2.615 -0.2884  0.4146 -0.8677
16512SOL    HW153128  10.572   7.458   2.608 -0.4875 -1.5102  1.6562
16512SOL    HW253129  10.432   7.406   2.580 -1.0051  2.1250 -3.8884
16513SOL     OW53130   9.654   0.867   8.285 -0.0501  0.3647 -0.5559
16513SOL    HW153131   9.721   0.800   8.271 -0.6129 -0.3323  0.0140
16513SOL    HW253132   9.624   0.890   8.197 -0.0261 -0.3245 -0.7461
16514SOL     OW53133   8.269   2.486  10.094  0.1256  0.5181  0.0491
16514SOL    HW153134   8.263   2.516  10.003 -1.0284  0.2806  0.0273
16514SOL    HW253135   8.363   2.475  10.110  0.4962  2.5698 -0.4375
16515SOL     OW53136   8.522   9.467  10.785  0.2130 -0.2153  0.5130
16515SOL    HW153137   8.541   9.441  10.875  0.4044  1.7665  1.1035
16515SOL    HW253138   8.602   9.510  10.756  0.5702 -1.8314 -1.0546
16516SOL     OW53139   9.020   9.591   7.174  0.0043 -0.6374  0.1654
16516SOL    HW153140   8.970   9.515   7.143 -0.7305  0.5242 -1.7048
16516SOL    HW253141   9.096   9.595   7.116 -2.1160  2.4122 -2.7627
16517SOL     OW53142   8.033  10.044   9.390 -0.1233 -0.1246 -0.4205
16517SOL    HW153143   8.119  10.031   9.432 -0.1305  1.5020  0.1470
16517SOL    HW253144   8.004  10.130   9.420 -2.0386 -0.7049 -0.4895
16518SOL     OW53145   7.898   7.764   8.711 -0.1416  0.1296  0.3412
16518SOL    HW153146   7.843   7.789   8.637 -1.5205  2.1342  1.9057
16518SOL    HW253147   7.853   7.690   8.751  0.4564 -0.7738 -0.5934
16519SOL     OW53148   5.078   5.112   1.683  0.3973  0.0417 -0.2130
16519SOL    HW153149   5.041   5.194   1.650 -0.2418 -0.8402 -1.8274
16519SOL    HW253150   5.007   5.071   1.732 -0.0827 -0.5956 -1.3905
16520SOL     OW53151   6.832   4.149   2.935 -0.1987 -0.4179 -0.1721
16520SOL    HW153152   6.824   4.223   2.876  0.0596 -1.2581 -1.2961
16520SOL    HW253153   6.835   4.072   2.878 -0.2638 -1.2881  0.9433
16521SOL     OW53154   4.870   9.147   3.754 -0.2012  0.1096 -0.1693
16521SOL    HW153155   4.902   9.057   3.747 -1.4408 -0.3061 -0.9440
16521SOL    HW253156   4.817   9.160   3.675  0.1523  1.6140 -0.2023
16522SOL     OW53157   5.703   0.733   3.931  0.2036 -0.4424 -0.0559
16522SOL    HW153158   5.720   0.827   3.933  0.9528 -0.4723 -2.4533
16522SOL    HW253159   5.609   0.726   3.913  0.5864 -0.0563 -2.5380
16523SOL     OW53160   0.873   1.321   4.136 -0.0002  0.1133 -0.6810
16523SOL    HW153161   0.966   1.329   4.158 -0.0081 -0.0176 -0.6013
16523SOL    HW253162   0.853   1.228   4.147 -0.0313  0.0642 -1.1512
16524SOL     OW53163   4.551  10.138  10.887 -0.4357 -0.8144  0.2556
16524SOL    HW153164   4.554  10.180  10.973 -1.6032  0.8228 -0.4394
16524SOL    HW253165   4.509  10.203  10.830 -4.3006 -3.5753 -0.4847
16525SOL     OW53166   1.123   8.372   7.928  0.4307 -0.0863 -0.1874
16525SOL    HW153167   1.176   8.429   7.984 -1.3917  1.4481  0.0405
16525SOL    HW253168   1.044   8.354   7.980 -0.5067 -0.0824 -1.5638
16526SOL     OW53169  10.674   2.876   2.745  0.2579 -0.4041  0.0042
16526SOL    HW153170  10.652   2.965   2.717 -0.0648 -0.4669  0.0637
16526SOL    HW253171  10.652   2.873   2.838 -1.7445 -1.1869 -0.4467
16527SOL     OW53172   3.828   1.259   5.986 -0.1783 -0.0242  0.0634
16527SOL    HW153173   3.811   1.303   5.903  0.7103 -0.0626 -0.1500
16527SOL    HW253174   3.799   1.321   6.052  0.5059  0.6409 -0.2477
16528SOL     OW53175   6.347   7.440   7.214  0.1081 -0.5073 -0.1219
16528SOL    HW153176   6.345   7.535   7.199 -0.5919 -0.3235  0.9831
16528SOL    HW253177   6.284   7.404   7.152  0.3076 -0.2469 -0.4802
16529SOL     OW53178   8.608   1.975   1.868 -0.2975  0.3932 -0.2629
16529SOL    HW153179   8.638   2.053   1.915  0.3099  0.7921 -1.2789
16529SOL    HW253180   8.581   1.915   1.937  1.6918  0.4917  0.6877
16530SOL     OW53181   5.775   2.738  10.786  0.1900 -0.0844  0.1959
16530SOL    HW153182   5.715   2.803  10.822 -0.2608 -0.1111 -0.4856
16530SOL    HW253183   5.766   2.747  10.691  0.7497 -0.5662  0.0903
16531SOL     OW53184   1.132   0.471   4.407  0.1801 -0.0621  0.5235
16531SOL    HW153185   1.150   0.403   4.342 -0.2035 -0.9482  1.3238
16531SOL    HW253186   1.165   0.435   4.489 -0.1123  0.6853  0.9805
16532SOL     OW53187   2.330   0.096   6.745  0.2246  0.2369  0.3563
16532SOL    HW153188   2.256   0.094   6.806  0.3472  0.1017  0.5021
16532SOL    HW253189   2.349   0.189   6.734 -0.8216  0.3455 -0.7287
16533SOL     OW53190   2.247   7.676   9.082 -0.4798 -0.0795  0.1019
16533SOL    HW153191   2.261   7.761   9.041  0.2934 -0.2012  0.1021
16533SOL    HW253192   2.327   7.660   9.131 -0.7726 -0.6409  0.3987
16534SOL     OW53193   6.254   1.192   3.785 -0.2824 -0.3747 -0.8833
16534SOL    HW153194   6.289   1.194   3.874  0.3552  2.2459 -1.0921
16534SOL    HW253195   6.317   1.142   3.734 -0.1104 -0.9921 -0.0692
16535SOL     OW53196   8.357   5.886   0.859  0.0246  0.3565  0.6859
16535SOL    HW153197   8.326   5.877   0.769 -1.6636 -0.5191  1.3133
16535SOL    HW253198   8.328   5.805   0.903 -1.1449  1.7035  2.5458
16536SOL     OW53199   8.576   2.215   4.627  0.4849 -0.1878 -0.1494
16536SOL    HW153200   8.487   2.250   4.622  0.6124  0.3424  1.0616
16536SOL    HW253201   8.632   2.292   4.635  0.9275 -0.5739  0.6146
16537SOL     OW53202   2.855   5.691   4.207  0.1969  0.0314 -0.2452
16537SOL    HW153203   2.825   5.715   4.120 -0.5064 -1.2899 -0.3857
16537SOL    HW253204   2.947   5.719   4.209  0.7930 -1.5976 -2.1033
16538SOL     OW53205   3.797   6.009   4.225  0.0073  0.3658  0.3516
16538SOL    HW153206   3.836   6.090   4.257  0.7624  0.5089 -0.8680
16538SOL    HW253207   3.872   5.951   4.211 -0.2834  0.3378 -1.1905
16539SOL     OW53208   0.573   0.580   7.297  0.1300 -0.2131 -0.1940
16539SOL    HW153209   0.481   0.606   7.296  0.3011  0.4946  0.8532
16539SOL    HW253210   0.577   0.508   7.359  0.2831 -0.2378 -0.2316
16540SOL     OW53211   7.080   2.651   5.433 -0.2334  0.4086 -0.5075
16540SOL    HW153212   6.998   2.608   5.459 -0.1244  1.0882  1.0324
16540SOL    HW253213   7.141   2.631   5.504  0.4087  1.4376 -0.7535
16541SOL     OW53214   1.646   7.096   3.957  0.1147 -0.1692 -0.2821
16541SOL    HW153215   1.605   7.079   4.042  0.6131 -2.1266 -0.3849
16541SOL    HW253216   1.572   7.100   3.896 -0.0985 -1.3933 -0.1262
16542SOL     OW53217   2.512   8.101   2.170 -0.1351 -0.0590 -0.0675
16542SOL    HW153218   2.441   8.148   2.125 -0.0849  0.5036  0.4193
16542SOL    HW253219   2.478   8.088   2.259  0.5276  0.5789  0.2878
16543SOL     OW53220   4.306   4.381   6.379  0.6181  0.0533  0.1924
16543SOL    HW153221   4.305   4.346   6.468 -0.2345 -1.0003 -0.2057
16543SOL    HW253222   4.348   4.313   6.327  0.4568  0.3497 -0.3335
16544SOL     OW53223   1.422   1.742   7.319  0.2568 -0.2276  0.4181
16544SOL    HW153224   1.453   1.789   7.396  1.7162  0.1305 -0.3468
16544SOL    HW253225   1.462   1.789   7.245 -0.0100 -1.3666 -0.4724
16545SOL     OW53226  10.502   6.124  10.262 -0.0817  0.2925 -0.2028
16545SOL    HW153227  10.492   6.096  10.353  2.1713  1.5093  0.5098
16545SOL    HW253228  10.583   6.083  10.233  0.9327  2.3701 -0.5523
16546SOL     OW53229   9.093   7.336   4.045 -0.0944  0.3148 -0.1167
16546SOL    HW153230   9.127   7.307   4.130 -0.9682 -1.9478 -0.4647
16546SOL    HW253231   9.172   7.359   3.995  0.4560  1.3195  1.1434
16547SOL     OW53232   9.848   4.821   1.171 -0.0051  0.0782 -0.3595
16547SOL    HW153233   9.920   4.764   1.199 -0.4503 -0.4873 -0.3655
16547SOL    HW253234   9.820   4.864   1.251 -0.7187 -0.9100 -0.0585
16548SOL     OW53235   2.954   2.122   1.527  1.3588  0.2837  0.1543
16548SOL    HW153236   2.919   2.045   1.482  1.3600  1.3102 -1.6841
16548SOL    HW253237   3.049   2.114   1.517  1.3147  1.0639 -1.0124
16549SOL     OW53238   9.641   4.742  10.879  0.4061  0.4061 -0.0206
16549SOL    HW153239   9.723   4.720  10.924  0.4661  0.2841 -0.1878
16549SOL    HW253240   9.616   4.827  10.915  1.1910  0.9696 -0.7570
16550SOL     OW53241   6.462   7.503   7.853 -0.0080 -0.1584 -0.1419
16550SOL    HW153242   6.538   7.447   7.868 -0.7230 -1.6756 -1.7861
16550SOL    HW253243   6.444   7.542   7.938  0.4882 -2.5448  1.1577
16551SOL     OW53244   5.220   6.267   1.723  0.3952 -0.1327 -0.3302
16551SOL    HW153245   5.194   6.200   1.660  1.6716 -0.5277 -0.4668
16551SOL    HW253246   5.142   6.280   1.778 -0.1341 -1.1225 -0.8213
16552SOL     OW53247  10.444   2.561   2.341 -0.0482  0.2305 -0.0731
16552SOL    HW153248  10.394   2.548   2.422  1.0861 -3.4476  0.2188
16552SOL    HW253249  10.530   2.589   2.371  0.5822 -1.7753  0.1768
16553SOL     OW53250   0.536   9.253   0.247  0.3239 -0.0346 -0.2898
16553SOL    HW153251   0.603   9.320   0.265  3.2851 -3.0910  1.3783
16553SOL    HW253252   0.586   9.179   0.212 -2.6549 -1.6739 -1.4028
16554SOL     OW53253   0.231  11.107   5.358  0.2798  0.0608 -0.5821
16554SOL    HW153254   0.198  11.041   5.419 -1.0840 -0.0282 -1.3822
16554SOL    HW253255   0.318  11.129   5.391  0.6225 -1.8694 -0.0982
16555SOL     OW53256   1.200   2.875   4.508 -0.0622 -0.2384  0.5728
16555SOL    HW153257   1.168   2.830   4.586 -0.5201  1.4698  1.4181
16555SOL    HW253258   1.153   2.959   4.508  0.6796  0.2137 -0.9837
16556SOL     OW53259   2.631   2.103  10.661  0.6405 -0.0811 -0.2524
16556SOL    HW153260   2.696   2.082  10.594  1.8550 -0.7874  1.0943
16556SOL    HW253261   2.546   2.086  10.619  1.2695  0.9551 -2.0876
16557SOL     OW53262   6.824   4.322   7.891 -0.3747 -0.2650  0.1034
16557SOL    HW153263   6.810   4.288   7.803  0.2077 -1.0138  0.2911
16557SOL    HW253264   6.869   4.252   7.937 -1.2143 -0.1223  1.1817
16558SOL     OW53265   9.354   6.981   6.993  0.1150  0.4200  0.3455
16558SOL    HW153266   9.267   7.009   7.021 -0.5393 -2.0648  1.0008
16558SOL    HW253267   9.411   7.054   7.018 -1.7206  2.0801 -0.0361
16559SOL     OW53268   9.247   4.312   8.274  0.4215 -0.2593 -0.0465
16559SOL    HW153269   9.264   4.342   8.364 -1.2934  1.6725 -0.2941
16559SOL    HW253270   9.330   4.325   8.228  1.0366 -0.3165  1.0157
16560SOL     OW53271   5.344   8.791   1.800 -0.0265 -0.3028  0.6610
16560SOL    HW153272   5.270   8.772   1.857 -0.0736  0.4572  0.8543
16560SOL    HW253273   5.343   8.719   1.736 -1.4366  0.1254  0.1546
16561SOL     OW53274   2.211   2.302   8.213  0.3309 -0.0516  0.0354
16561SOL    HW153275   2.251   2.340   8.291 -0.2101 -0.0045  0.2935
16561SOL    HW253276   2.249   2.214   8.207  1.6266  0.5337 -0.5971
16562SOL     OW53277   1.546   1.458   4.177 -0.1359 -0.2442  0.2885
16562SOL    HW153278   1.472   1.398   4.183 -0.9820  0.6666 -0.5835
16562SOL    HW253279   1.589   1.452   4.263 -3.0348  1.4592  2.0261
16563SOL     OW53280   1.648   1.778   8.114 -0.1587  0.6420 -0.0435
16563SOL    HW153281   1.560   1.748   8.091  0.0928  0.4032 -0.6963
16563SOL    HW253282   1.707   1.714   8.075  0.4060  2.0836 -1.7201
16564SOL     OW53283   0.296   8.996   6.536  0.6867  0.1278 -0.1513
16564SOL    HW153284   0.315   8.903   6.530  0.5860  0.0246  0.9275
16564SOL    HW253285   0.342   9.025   6.615  2.7366  1.5186 -1.7318
16565SOL     OW53286  10.256   5.320   4.248 -0.4446 -0.3536  0.2489
16565SOL    HW153287  10.233   5.228   4.240 -2.6979  0.2541 -1.3366
16565SOL    HW253288  10.273   5.333   4.342 -3.7605 -1.6435  1.1678
16566SOL     OW53289   9.673   0.780   1.074 -0.0758  0.3473 -0.3958
16566SOL    HW153290   9.635   0.854   1.121 -0.0247  0.6542 -0.8418
16566SOL    HW253291   9.717   0.729   1.143 -0.3058  0.6034 -0.0552
16567SOL     OW53292   0.741   8.021   3.841  0.0619 -0.2324  0.2249
16567SOL    HW153293   0.675   8.079   3.879 -1.3400 -0.2143 -2.0717
16567SOL    HW253294   0.779   8.071   3.770  0.4353 -1.3160 -0.3651
16568SOL     OW53295   9.912   9.533   3.450  0.1239 -0.4931  0.1636
16568SOL    HW153296   9.916   9.621   3.414 -1.0172 -1.0154 -1.3634
16568SOL    HW253297   9.944   9.477   3.379  1.1107 -1.3067  1.2101
16569SOL     OW53298   9.281  11.028   7.885  0.7871  0.7556 -0.3063
16569SOL    HW153299   9.218  10.967   7.924  2.2789 -2.5442 -2.5825
16569SOL    HW253300   9.230  11.075   7.819  0.3292 -0.8735 -1.1696
16570SOL     OW53301   7.039   3.206   6.462  0.0083 -0.5138 -0.2754
16570SOL    HW153302   7.109   3.227   6.523 -1.1861 -4.5134  2.9744
16570SOL    HW253303   7.081   3.158   6.391  1.1231  2.2694 -1.6534
16571SOL     OW53304   6.331   3.501   9.511  0.2830 -0.1225 -0.0244
16571SOL    HW153305   6.357   3.493   9.419  1.9077 -2.7361  0.5528
16571SOL    HW253306   6.281   3.421   9.529 -0.8131  0.7803  1.1614
16572SOL     OW53307  10.394   1.355   2.030 -0.4028 -0.0248  0.2294
16572SOL    HW153308  10.318   1.306   1.999 -0.7659  0.2381  0.6990
16572SOL    HW253309  10.412   1.319   2.116  2.3791 -2.8015 -1.3053
16573SOL     OW53310   0.272   9.787   8.860 -0.8856 -0.1218  0.1699
16573SOL    HW153311   0.206   9.841   8.817  0.1049 -0.5427 -1.9787
16573SOL    HW253312   0.269   9.815   8.952 -1.3479  2.6511 -0.5919
16574SOL     OW53313   6.357  10.545   2.962 -0.5697  0.1518 -0.1203
16574SOL    HW153314   6.350  10.549   3.057  0.0470 -1.4062  0.0259
16574SOL    HW253315   6.350  10.636   2.933  0.7587  0.8209  1.5073
16575SOL     OW53316  10.449   6.917   4.485 -0.3934 -0.3102  0.4322
16575SOL    HW153317  10.523   6.954   4.437 -1.1522  1.1531  0.3270
16575SOL    HW253318  10.486   6.892   4.569  0.7985 -2.2332 -0.5892
16576SOL     OW53319   0.950   0.759   1.344  0.1792 -0.2019  0.3062
16576SOL    HW153320   0.960   0.849   1.313  0.0869 -0.3835 -0.2601
16576SOL    HW253321   0.856   0.750   1.359 -0.0207 -0.6580 -1.0752
16577SOL     OW53322   4.224   1.857   2.966  0.1065 -0.0447 -0.3887
16577SOL    HW153323   4.182   1.923   2.911 -0.6623 -1.3204 -1.3970
16577SOL    HW253324   4.318   1.871   2.952  0.0416  1.7759  0.6149
16578SOL     OW53325   6.774   3.893   6.202  0.0319  0.3819  0.0056
16578SOL    HW153326   6.737   3.981   6.204 -1.1848 -0.1016 -0.5033
16578SOL    HW253327   6.864   3.904   6.234  0.8003  2.2313 -2.5236
16579SOL     OW53328   9.058   3.602   9.284  0.2487  0.1033  0.1852
16579SOL    HW153329   9.092   3.517   9.253 -1.8948 -1.3701  1.5768
16579SOL    HW253330   9.131   3.662   9.272  1.6126 -1.7456 -1.6207
16580SOL     OW53331   8.789   1.466   8.100  0.0657  0.0946 -0.8584
16580SOL    HW153332   8.729   1.419   8.043  0.0909 -1.3728  0.2767
16580SOL    HW253333   8.760   1.445   8.189  2.6421 -1.2738 -0.2353
16581SOL     OW53334   7.495  11.054   1.501 -0.1733 -0.0967  0.5225
16581SOL    HW153335   7.407  11.087   1.520 -0.6592 -1.4318  0.7258
16581SOL    HW253336   7.523  11.013   1.582 -0.0581 -1.1431 -0.0287
16582SOL     OW53337   2.502   8.440   1.608 -0.0714  0.3799  0.5363
16582SOL    HW153338   2.579   8.387   1.587 -0.6544 -1.0416  1.7611
16582SOL    HW253339   2.532   8.531   1.599  1.1874 -0.1294 -0.8568
16583SOL     OW53340   2.144   8.861   2.624  0.0925  0.2507 -0.0053
16583SOL    HW153341   2.172   8.815   2.545 -1.0857  1.1986 -1.0233
16583SOL    HW253342   2.156   8.798   2.695  0.0709 -1.0315 -1.1082
16584SOL     OW53343   0.291   2.481   3.110  0.2966 -1.2214  0.2350
16584SOL    HW153344   0.320   2.527   3.031  0.0042 -0.4232  0.5793
16584SOL    HW253345   0.330   2.393   3.103  1.8289 -0.5690  0.1162
16585SOL     OW53346   5.356  10.798  10.384  0.0232  0.2127  0.8341
16585SOL    HW153347   5.305  10.719  10.401 -0.8884  0.8453  1.0902
16585SOL    HW253348   5.368  10.799  10.288 -0.0989 -0.1444  0.8146
16586SOL     OW53349   8.087  10.055   6.953 -0.0458  0.3989 -0.0520
16586SOL    HW153350   8.179  10.068   6.976 -0.0535 -0.0540  0.2446
16586SOL    HW253351   8.060  10.138   6.913  0.2634  0.8255  0.6157
16587SOL     OW53352   4.221   6.222   6.272 -0.1607  0.5016  0.2204
16587SOL    HW153353   4.208   6.191   6.362 -0.4714  0.2714  0.1012
16587SOL    HW253354   4.255   6.145   6.225 -0.4327  0.4891  0.0404
16588SOL     OW53355   8.620   4.459   5.750  0.5190 -1.5344 -0.3924
16588SOL    HW153356   8.548   4.455   5.688  0.5019  0.1936 -0.5505
16588SOL    HW253357   8.699   4.461   5.696  0.4750  0.7686 -0.4751
16589SOL     OW53358   4.727   0.159   2.689 -0.3507  0.2402 -0.0846
16589SOL    HW153359   4.783   0.236   2.676 -1.1130  0.9793  0.9546
16589SOL    HW253360   4.644   0.183   2.649 -1.2203  0.7515  1.8943
16590SOL     OW53361   8.651   0.775   8.879  0.5477  0.2520  0.2586
16590SOL    HW153362   8.651   0.696   8.934 -2.6361 -0.4887 -0.6211
16590SOL    HW253363   8.613   0.747   8.796  1.0873  2.3443 -0.7569
16591SOL     OW53364   7.460   3.870   4.253 -0.4991 -0.8284 -0.7093
16591SOL    HW153365   7.498   3.786   4.279  1.2597  0.3675  0.8722
16591SOL    HW253366   7.535   3.921   4.220 -1.3087  0.4889 -0.5977
16592SOL     OW53367   6.934   5.281   6.167 -0.1765 -0.3758  0.5523
16592SOL    HW153368   6.976   5.195   6.175  0.1989 -0.2649 -0.1253
16592SOL    HW253369   6.890   5.294   6.251  0.0968 -1.0538  0.8106
16593SOL     OW53370   5.290  10.372   7.288 -0.4848  0.1729  0.0384
16593SOL    HW153371   5.227  10.393   7.219 -0.1184  1.0055 -0.0583
16593SOL    HW253372   5.362  10.433   7.274  0.9301 -1.5497 -0.6014
16594SOL     OW53373  10.520   3.481   0.437 -0.2872 -0.1840  0.9445
16594SOL    HW153374  10.533   3.575   0.448  0.9134 -0.1616 -0.3877
16594SOL    HW253375  10.598   3.441   0.474  0.2987 -0.4992 -0.5603
16595SOL     OW53376   0.342   9.298   6.123 -0.0313  0.3610  0.1666
16595SOL    HW153377   0.270   9.354   6.153 -2.7539 -1.7635 -1.8775
16595SOL    HW253378   0.331   9.216   6.171  2.1447  0.5141  1.0443
16596SOL     OW53379   9.135   0.998  10.390  0.3682  0.2941 -0.0557
16596SOL    HW153380   9.044   0.972  10.408  0.7941 -1.8069 -0.6748
16596SOL    HW253381   9.129   1.052  10.311 -0.4205  1.0264  0.4820
16597SOL     OW53382   7.991   4.691  10.509 -0.4282 -0.2314  0.4159
16597SOL    HW153383   8.034   4.769  10.475 -1.6845 -0.1823 -1.1809
16597SOL    HW253384   8.062   4.627  10.520  0.4490  0.7719  0.7000
16598SOL     OW53385  10.910   0.063   1.207 -0.5425 -0.0693  0.1102
16598SOL    HW153386  10.916  -0.032   1.213  0.1666  0.0246  1.1304
16598SOL    HW253387  11.000   0.091   1.193 -0.3819  0.5818  2.1634
16599SOL     OW53388   1.863   2.350   4.932 -0.1608 -0.2064  0.4067
16599SOL    HW153389   1.884   2.261   4.961 -2.0180 -0.5411  0.8686
16599SOL    HW253390   1.945   2.384   4.898  0.5456 -2.1751  0.0170
16600SOL     OW53391  10.488   3.469   1.931 -0.0299 -0.2288 -0.2404
16600SOL    HW153392  10.454   3.385   1.960 -1.7879  0.2608 -0.7981
16600SOL    HW253393  10.457   3.478   1.841 -0.6204  1.3883  0.0872
16601SOL     OW53394   9.448  10.708   0.116  0.8169 -0.3270  0.1151
16601SOL    HW153395   9.485  10.676   0.034  0.2036 -2.7075  0.7037
16601SOL    HW253396   9.449  10.633   0.174 -1.4938  0.4912  1.3546
16602SOL     OW53397   1.075   0.847   5.642 -0.1143 -0.1444 -0.2286
16602SOL    HW153398   0.985   0.879   5.636 -0.6114 -1.3319  0.5839
16602SOL    HW253399   1.108   0.881   5.725 -0.3211 -0.9184  0.1775
16603SOL     OW53400   5.404   4.814   4.342  0.0193 -0.4488 -0.3426
16603SOL    HW153401   5.450   4.774   4.416 -2.1745 -0.9209  0.8430
16603SOL    HW253402   5.437   4.904   4.339  1.4900 -0.9368 -0.0132
16604SOL     OW53403   5.002   0.388  10.676  0.2036  0.1967  0.3520
16604SOL    HW153404   4.927   0.389  10.735 -0.0172  1.1095  0.0769
16604SOL    HW253405   4.972   0.340  10.599  0.1269 -0.0374  0.5291
16605SOL     OW53406   5.843  10.755   1.595 -0.0884  0.1361  0.0198
16605SOL    HW153407   5.784  10.831   1.595 -0.9989 -0.5238  1.2498
16605SOL    HW253408   5.793  10.686   1.639  1.5280 -0.5247  0.9178
16606SOL     OW53409   2.736   7.340   6.531  0.5392  0.5451  0.5889
16606SOL    HW153410   2.826   7.341   6.497  0.1452 -2.2863 -0.8775
16606SOL    HW253411   2.684   7.384   6.464  0.3281 -1.5890 -0.7665
16607SOL     OW53412   0.530   2.343   8.441  0.9534 -0.2280  0.0018
16607SOL    HW153413   0.502   2.275   8.379  1.0071 -0.6301  0.4143
16607SOL    HW253414   0.599   2.391   8.395  0.1624  0.2583 -0.7184
16608SOL     OW53415   4.304   9.786   1.995  0.7888  0.6629 -0.0273
16608SOL    HW153416   4.212   9.764   1.976  0.8557  0.1211  0.2828
16608SOL    HW253417   4.308   9.881   1.983  0.2438  0.6579 -0.2849
16609SOL     OW53418   9.222   1.436   5.483  0.3172  0.0071 -0.0120
16609SOL    HW153419   9.306   1.460   5.521  1.0609 -1.3966 -0.6775
16609SOL    HW253420   9.202   1.350   5.521 -0.5506  0.0803 -0.2710
16610SOL     OW53421   1.361   1.769   9.530 -0.1147  0.0947 -0.0864
16610SOL    HW153422   1.432   1.737   9.473  0.1335  0.8114 -0.1916
16610SOL    HW253423   1.281   1.751   9.480 -0.0668 -1.2178  0.2651
16611SOL     OW53424   3.386   8.615   9.119  0.3932  0.4148  0.0386
16611SOL    HW153425   3.430   8.683   9.068 -0.6334  0.2114 -1.1714
16611SOL    HW253426   3.302   8.602   9.075  0.2640 -1.1388  0.6606
16612SOL     OW53427   7.008   1.776   7.806 -0.0750 -0.9200  0.9408
16612SOL    HW153428   7.092   1.782   7.762 -0.1359  0.1257  0.9294
16612SOL    HW253429   6.968   1.696   7.773  1.0957 -1.6662  1.2912
16613SOL     OW53430  10.350   4.381   8.739 -0.0761 -0.3320 -0.3485
16613SOL    HW153431  10.364   4.296   8.781 -0.6827 -0.9125 -1.2913
16613SOL    HW253432  10.438   4.418   8.729  0.0636  0.1003  1.9387
16614SOL     OW53433   2.323   8.947   7.145 -0.4559  0.5483 -0.0102
16614SOL    HW153434   2.414   8.919   7.146 -0.1525  1.4633  1.9033
16614SOL    HW253435   2.275   8.871   7.177  0.0224  1.0609  2.0644
16615SOL     OW53436   4.977   9.180   3.290 -0.2975 -0.6415  0.2055
16615SOL    HW153437   4.930   9.102   3.319 -1.5640 -0.6038 -1.5739
16615SOL    HW253438   4.932   9.252   3.334 -1.9946 -0.6112 -1.4363
16616SOL     OW53439   1.589  10.687   3.353 -0.2192  0.4935 -0.2667
16616SOL    HW153440   1.526  10.734   3.298 -0.4172 -0.2171 -0.6504
16616SOL    HW253441   1.560  10.596   3.351 -2.2853  0.8268  3.6693
16617SOL     OW53442   9.407   9.897   5.856 -0.2069 -0.3593  0.6957
16617SOL    HW153443   9.436   9.953   5.784 -0.6901 -0.0550  0.7340
16617SOL    HW253444   9.483   9.890   5.913  0.3871 -1.1334 -0.1704
16618SOL     OW53445   6.465   0.995   2.573  0.1505 -0.0022  0.1612
16618SOL    HW153446   6.465   1.089   2.553  1.6980  0.7532  3.1488
16618SOL    HW253447   6.373   0.970   2.568 -0.1404  1.1800 -2.3959
16619SOL     OW53448   1.895   1.432   5.730 -0.4544 -0.1432 -0.6202
16619SOL    HW153449   1.953   1.405   5.658  1.8133  1.6415  0.4301
16619SOL    HW253450   1.933   1.391   5.808  0.7719  2.7226  0.4044
16620SOL     OW53451   2.045   8.453   0.126 -0.5932 -0.0056 -0.1174
16620SOL    HW153452   2.078   8.540   0.104 -0.5120 -0.1246 -0.4711
16620SOL    HW253453   2.098   8.425   0.200  1.1183 -0.7948 -1.5717
16621SOL     OW53454   4.777   9.298   5.069 -0.0695 -0.1777 -0.2099
16621SOL    HW153455   4.755   9.390   5.079 -0.2740 -0.3807  1.5288
16621SOL    HW253456   4.694   9.252   5.077 -0.3461 -0.4509 -3.4131
16622SOL     OW53457   2.595   1.798   9.361 -0.1854  0.2008  0.1337
16622SOL    HW153458   2.560   1.827   9.445 -4.0233  1.7607 -1.7759
16622SOL    HW253459   2.541   1.723   9.337  1.5228 -0.8613 -0.5808
16623SOL     OW53460   7.435   6.385   0.825 -0.0980  0.0712 -0.3987
16623SOL    HW153461   7.515   6.407   0.776  0.7507 -0.5078  0.6730
16623SOL    HW253462   7.467   6.349   0.907 -1.4402 -1.7282 -0.5939
16624SOL     OW53463   9.259  10.590  10.002 -0.0451 -0.1760  0.0197
16624SOL    HW153464   9.167  10.572  10.019 -0.0298 -0.0996  0.1877
16624SOL    HW253465   9.306  10.544  10.072  0.0158  0.1910  0.2219
16625SOL     OW53466   3.349  10.063   9.387 -0.4448  0.4206 -0.2049
16625SOL    HW153467   3.334   9.997   9.319 -1.2071 -0.9621  1.2379
16625SOL    HW253468   3.440  10.090   9.374  0.1479 -1.5083 -0.3634
16626SOL     OW53469   9.960   1.334   6.968 -1.4315 -0.4567  0.0154
16626SOL    HW153470   9.898   1.397   6.931  0.1920  0.8247 -0.6587
16626SOL    HW253471  10.016   1.309   6.895  0.3600  0.3106  1.0367
16627SOL     OW53472  10.234   0.988   6.292  0.0651 -0.3972  0.3208
16627SOL    HW153473  10.321   1.013   6.323  0.0832 -1.1369  0.9258
16627SOL    HW253474  10.248   0.904   6.247 -0.4611 -1.0549  1.3273
16628SOL     OW53475   1.743   9.608   9.421  0.3126  0.3993  0.2100
16628SOL    HW153476   1.735   9.521   9.460 -0.3742  0.1139 -0.5291
16628SOL    HW253477   1.793   9.659   9.485 -0.5400 -0.1236  1.3358
16629SOL     OW53478   3.683   4.957   7.481 -0.2510  0.3608  0.2596
16629SOL    HW153479   3.590   4.944   7.497 -0.2748 -1.7840 -1.0462
16629SOL    HW253480   3.721   4.869   7.490  1.2832  0.8170 -1.1656
16630SOL     OW53481   7.525   5.871  10.159 -0.2696  0.8496 -0.2754
16630SOL    HW153482   7.542   5.866  10.065 -0.8066 -0.1913 -0.3271
16630SOL    HW253483   7.609   5.898  10.197  0.1133  0.6926 -0.9888
16631SOL     OW53484   2.780   9.187   9.106  0.2378  0.9211  0.3445
16631SOL    HW153485   2.862   9.235   9.114  1.6941 -1.3298 -0.0084
16631SOL    HW253486   2.717   9.238   9.156  1.6585  3.1012  0.0313
16632SOL     OW53487   9.503   6.916   6.589 -0.2274 -0.1978 -0.2228
16632SOL    HW153488   9.584   6.961   6.564 -0.2483  0.0129  0.0854
16632SOL    HW253489   9.498   6.842   6.529 -0.5919  0.6420 -1.2707
16633SOL     OW53490   6.571   0.952   2.267  0.4689  0.4753 -0.0227
16633SOL    HW153491   6.666   0.958   2.275  0.3691  1.1495  0.7874
16633SOL    HW253492   6.552   0.860   2.284  1.0508  0.1342 -1.1470
16634SOL     OW53493   8.226   3.845   5.051  0.7709  0.4955  0.1769
16634SOL    HW153494   8.214   3.796   4.970  1.2212  1.0414 -0.2306
16634SOL    HW253495   8.137   3.864   5.082  0.5961  0.6581 -0.4201
16635SOL     OW53496   8.990  10.652   0.926 -0.4164 -0.0086 -0.1325
16635SOL    HW153497   9.064  10.652   0.987 -0.5438  2.2658  0.1319
16635SOL    HW253498   8.914  10.633   0.981 -0.4977  1.7896  0.4594
16636SOL     OW53499   9.474   6.706   6.406 -0.2640  0.5616 -0.6115
16636SOL    HW153500   9.431   6.627   6.375 -0.1549  0.0792  0.4389
16636SOL    HW253501   9.468   6.767   6.332 -2.5191  0.4422 -0.6017
16637SOL     OW53502  10.508   3.554   1.233  0.3313 -0.3108  0.6721
16637SOL    HW153503  10.585   3.498   1.240  0.2350 -0.4813  0.3897
16637SOL    HW253504  10.457   3.516   1.161 -0.4349 -0.7102  1.4067
16638SOL     OW53505  10.476   2.159  10.260 -0.0692 -0.0171 -0.6428
16638SOL    HW153506  10.417   2.230  10.236 -0.0178  0.3452  0.2686
16638SOL    HW253507  10.419   2.082  10.264 -0.1824  0.0256 -1.3175
16639SOL     OW53508   5.326   2.616   7.827 -0.1803  0.1498 -0.2756
16639SOL    HW153509   5.329   2.689   7.765  1.2298 -1.6626 -2.5343
16639SOL    HW253510   5.397   2.634   7.889  0.5296  0.4721 -1.1495
16640SOL     OW53511   6.706   4.927  10.924  0.7841  0.2140 -0.1197
16640SOL    HW153512   6.790   4.965  10.897  0.2989 -0.3303 -2.6963
16640SOL    HW253513   6.655   5.001  10.957  1.3541  1.0273 -1.0287
16641SOL     OW53514   5.066   0.825   9.838 -0.3861  0.6779 -0.1916
16641SOL    HW153515   5.123   0.900   9.851  3.0109 -1.5088 -1.1798
16641SOL    HW253516   5.052   0.790   9.926  2.3764 -0.3611 -0.0697
16642SOL     OW53517   6.086   2.691   0.521  0.4261  0.1038 -0.0945
16642SOL    HW153518   6.081   2.744   0.442 -1.5140  0.4980  0.2514
16642SOL    HW253519   6.050   2.606   0.495  0.3289  0.0470  0.2279
16643SOL     OW53520   2.191   1.462   1.468  0.3329 -0.2878 -0.0148
16643SOL    HW153521   2.128   1.423   1.407  0.5930  1.5119 -1.5566
16643SOL    HW253522   2.274   1.420   1.446 -0.0944 -1.8350  1.2301
16644SOL     OW53523  10.753   1.935   0.202 -0.8735  0.3720  0.3406
16644SOL    HW153524  10.716   1.929   0.290 -0.4938  0.7814  0.5342
16644SOL    HW253525  10.785   1.847   0.183  0.5742  0.6573  1.2962
16645SOL     OW53526  10.630   5.968   9.479  1.0532 -0.6677  0.7845
16645SOL    HW153527  10.709   6.018   9.499  0.7689 -0.8092  2.3936
16645SOL    HW253528  10.558   6.026   9.504  0.6804 -1.1147  0.7494
16646SOL     OW53529   8.354   3.977   3.194 -0.2287  0.2953  0.0045
16646SOL    HW153530   8.346   4.004   3.103 -0.5031  1.9436  0.4881
16646SOL    HW253531   8.270   4.000   3.234  0.3020  0.6636  0.9412
16647SOL     OW53532   7.294   6.473   8.181  0.5050  0.4449 -0.5852
16647SOL    HW153533   7.357   6.519   8.126  0.9319  0.5019 -0.0525
16647SOL    HW253534   7.225   6.446   8.121  1.3486 -0.1847 -1.3024
16648SOL     OW53535   1.218   2.139   7.356  0.1032 -0.1269 -0.6770
16648SOL    HW153536   1.300   2.099   7.386 -0.7715 -1.2980  0.2473
16648SOL    HW253537   1.154   2.113   7.422 -0.9029  1.2692 -1.0732
16649SOL     OW53538   4.957   0.972   3.150  0.3752  0.1885 -0.2990
16649SOL    HW153539   4.972   0.956   3.057  2.6446  2.1766 -0.4060
16649SOL    HW253540   4.908   1.054   3.153 -2.0023 -1.1583  0.3076
16650SOL     OW53541   5.345   2.964   8.552 -0.0791 -0.3027 -0.0207
16650SOL    HW153542   5.346   2.942   8.645 -0.0961 -0.8123 -0.1419
16650SOL    HW253543   5.370   2.883   8.507  0.0569 -0.0243 -0.4538
16651SOL     OW53544   1.416   2.483   8.985 -0.0318 -0.2950  0.2233
16651SOL    HW153545   1.325   2.474   9.013  0.2657  0.2146  1.3862
16651SOL    HW253546   1.458   2.402   9.013 -0.2671 -0.8596 -0.9729
16652SOL     OW53547   0.799   1.488   0.065 -0.1018 -0.5985  0.0570
16652SOL    HW153548   0.775   1.404   0.104  0.5511 -0.4077  0.8964
16652SOL    HW253549   0.881   1.512   0.107 -0.0542  0.2557 -0.4903
16653SOL     OW53550   2.120   3.051   8.823 -0.1983  0.3215 -0.3747
16653SOL    HW153551   2.177   2.982   8.789  0.7039  1.5545 -1.4537
16653SOL    HW253552   2.031   3.019   8.808  0.2062 -0.4620 -1.1697
16654SOL     OW53553   8.178   1.308   2.985 -0.3890  0.7557 -0.1433
16654SOL    HW153554   8.195   1.220   3.019 -1.0814 -0.7105 -3.2808
16654SOL    HW253555   8.264   1.351   2.988 -0.0434  0.0225  1.4429
16655SOL     OW53556   4.791   2.089   3.127  0.0495  0.1566  0.0838
16655SOL    HW153557   4.709   2.131   3.152  0.6170  0.0190  2.4045
16655SOL    HW253558   4.782   1.998   3.157  0.7160 -0.1190 -0.4985
16656SOL     OW53559  10.487   1.162   1.081  0.3708  0.1786  0.3835
16656SOL    HW153560  10.450   1.074   1.072 -0.2643  0.6057 -1.5454
16656SOL    HW253561  10.454   1.193   1.165 -1.0699 -0.6675  0.1641
16657SOL     OW53562   3.462   2.118  10.453  0.0334  0.1934  0.5077
16657SOL    HW153563   3.380   2.127  10.502  1.1192  0.8859  2.2893
16657SOL    HW253564   3.434   2.109  10.362 -1.9607  2.5425  0.7842
16658SOL     OW53565   7.426   8.680   7.591  0.3070 -0.6935  0.3768
16658SOL    HW153566   7.438   8.774   7.576  0.2275 -0.5643  1.0652
16658SOL    HW253567   7.336   8.663   7.562  0.4894 -0.6690 -0.2264
16659SOL     OW53568   7.449   7.610   7.499  0.3558 -0.0742 -0.0872
16659SOL    HW153569   7.500   7.587   7.577  0.2509  1.0636  0.3306
16659SOL    HW253570   7.386   7.538   7.490  1.5185 -1.1250 -0.1796
16660SOL     OW53571   1.260   7.302   7.594  0.9087  0.5419  0.1947
16660SOL    HW153572   1.182   7.289   7.541 -1.0583  0.4849  2.9100
16660SOL    HW253573   1.291   7.390   7.569  0.2019  0.4402 -1.1584
16661SOL     OW53574   8.371  10.046   6.298  0.0304 -0.0752 -0.6126
16661SOL    HW153575   8.342  10.128   6.337 -0.4816 -1.0759  1.2328
16661SOL    HW253576   8.301  10.023   6.237  0.9293  1.6079 -2.3655
16662SOL     OW53577   6.630   6.320   1.358 -0.0496  0.2152 -1.0104
16662SOL    HW153578   6.572   6.249   1.385  0.1343  0.9602  1.6953
16662SOL    HW253579   6.692   6.279   1.298 -1.2279 -1.3929 -1.1945
16663SOL     OW53580   5.372   3.702   0.266 -0.7635  0.1946  0.1154
16663SOL    HW153581   5.293   3.669   0.308  1.1201 -4.2856  0.7127
16663SOL    HW253582   5.379   3.651   0.185  2.4286 -1.1538  1.0677
16664SOL     OW53583   3.217   2.208   8.815  0.3374 -0.0938 -0.0774
16664SOL    HW153584   3.161   2.130   8.811 -1.3183  0.9636  1.3363
16664SOL    HW253585   3.295   2.179   8.862  0.6574 -1.3655 -1.3027
16665SOL     OW53586   3.441   3.287   5.027 -0.0815  0.0759 -0.3277
16665SOL    HW153587   3.348   3.273   5.040  0.3667 -1.8094  1.2621
16665SOL    HW253588   3.447   3.374   4.985 -2.5067  0.1657 -0.5940
16666SOL     OW53589   9.236   5.962   0.115 -0.5930 -0.0433  0.1845
16666SOL    HW153590   9.184   5.963   0.195 -0.6324 -3.2326  0.3065
16666SOL    HW253591   9.324   5.987   0.143 -0.6315 -1.0047  1.2169
16667SOL     OW53592   8.053   3.692   4.433  0.2736  0.6177 -0.0706
16667SOL    HW153593   7.989   3.681   4.503  1.4158 -0.0189  0.9095
16667SOL    HW253594   8.073   3.602   4.405  2.4514  0.6236  1.2715
16668SOL     OW53595   0.230   8.322   5.337  0.9910 -0.6431  0.0745
16668SOL    HW153596   0.273   8.407   5.327 -0.8116  0.4879  1.2830
16668SOL    HW253597   0.271   8.283   5.414 -0.6688  0.8702  1.8406
16669SOL     OW53598   6.169   9.243   3.693  0.0278  0.1834  0.4219
16669SOL    HW153599   6.108   9.170   3.701 -0.1644  0.2032 -0.7133
16669SOL    HW253600   6.174   9.260   3.599  1.2396  0.6454  0.5549
16670SOL     OW53601   6.572   4.216   7.314  0.1164 -0.2676  0.3285
16670SOL    HW153602   6.650   4.272   7.310  0.5774 -0.9669 -0.5656
16670SOL    HW253603   6.512   4.255   7.251  1.0529 -1.6714 -1.5098
16671SOL     OW53604   7.580   2.069   2.503 -0.2575  0.1093  0.2205
16671SOL    HW153605   7.597   2.161   2.525 -2.5940  0.6442  0.1040
16671SOL    HW253606   7.532   2.034   2.578 -0.0888 -0.7876 -0.0735
16672SOL     OW53607   4.252   5.910   6.228  0.4226  0.1599 -0.5832
16672SOL    HW153608   4.283   5.820   6.227 -0.7853 -0.3288  1.1217
16672SOL    HW253609   4.182   5.911   6.293 -1.0238  1.8682 -2.0370
16673SOL     OW53610   3.546   4.907  10.025  0.3507  0.0816  0.0763
16673SOL    HW153611   3.498   4.963  10.085  1.1778  1.2652 -0.3381
16673SOL    HW253612   3.577   4.966   9.956 -0.9792 -1.2920 -1.8157
16674SOL     OW53613  10.780   2.545   5.874 -0.2500 -0.4657 -0.0848
16674SOL    HW153614  10.864   2.532   5.917  0.9630  3.1114 -1.0162
16674SOL    HW253615  10.724   2.583   5.942  0.5579  1.8226 -0.5931
16675SOL     OW53616   6.716   4.907   2.842  0.1798 -0.4257  0.0541
16675SOL    HW153617   6.760   4.935   2.923  2.1858 -0.9692 -0.7888
16675SOL    HW253618   6.682   4.988   2.804 -0.4977 -0.1212  1.2436
16676SOL     OW53619   9.557   4.742   6.202 -0.0740  0.0798  0.0974
16676SOL    HW153620   9.553   4.672   6.267 -0.5651 -0.2164 -0.2475
16676SOL    HW253621   9.485   4.801   6.225  0.8952  0.9849  0.9477
16677SOL     OW53622   1.861   1.624   5.967 -0.1632 -0.5220  0.2595
16677SOL    HW153623   1.847   1.708   5.923  0.0206 -0.1163  0.9564
16677SOL    HW253624   1.822   1.559   5.908 -0.2910  0.0486 -0.2959
16678SOL     OW53625   0.964   8.726   1.879  0.5283 -0.4448 -0.2006
16678SOL    HW153626   0.924   8.790   1.939 -0.8354 -0.1344 -1.3604
16678SOL    HW253627   1.029   8.777   1.831  0.3896 -0.2447 -0.1841
16679SOL     OW53628   7.090  10.117   3.235 -0.0901  0.0551  0.2012
16679SOL    HW153629   7.012  10.064   3.251  0.6000 -1.1906 -0.4427
16679SOL    HW253630   7.092  10.128   3.140 -0.9782  2.4741  0.3780
16680SOL     OW53631  10.989   4.475   2.470 -0.4684 -0.0463  0.3240
16680SOL    HW153632  11.078   4.446   2.489 -0.7418 -0.5301  0.9133
16680SOL    HW253633  10.941   4.460   2.552 -0.6361  2.1068  0.6790
16681SOL     OW53634   6.255   6.150   8.741  0.3287  0.2514  0.2175
16681SOL    HW153635   6.249   6.205   8.663 -1.2299 -0.9563 -0.5748
16681SOL    HW253636   6.243   6.210   8.814 -0.1743  1.1367 -0.5710
16682SOL     OW53637   6.206  10.683   3.786  0.1311 -0.1087  0.2711
16682SOL    HW153638   6.164  10.653   3.866 -0.1264 -0.3944  0.0315
16682SOL    HW253639   6.268  10.612   3.764 -2.0356 -1.5887 -1.5081
16683SOL     OW53640   8.239   5.406   4.824 -0.5380 -0.4288  0.6145
16683SOL    HW153641   8.263   5.497   4.806  1.5278 -1.3538 -1.8180
16683SOL    HW253642   8.150   5.398   4.790 -0.0827  0.2491 -0.7975
16684SOL     OW53643   7.838   1.921   8.640 -0.5184  0.1451  0.2467
16684SOL    HW153644   7.928   1.953   8.640 -0.7926  0.9349 -0.2303
16684SOL    HW253645   7.819   1.901   8.731  0.3155 -0.5565  0.2889
16685SOL     OW53646  11.079   1.338   3.898 -0.0704 -0.0233 -0.9094
16685SOL    HW153647  11.152   1.305   3.950 -1.9469 -1.4267  1.0307
16685SOL    HW253648  11.117   1.406   3.843  2.6914 -0.7950 -0.1071
16686SOL     OW53649   0.504   4.346   5.094 -0.4172 -0.3604  0.1826
16686SOL    HW153650   0.453   4.426   5.111  0.1329  0.2330 -0.8581
16686SOL    HW253651   0.488   4.327   5.001  2.7098  0.9466 -0.7451
16687SOL     OW53652   2.218  10.287   6.843  0.0049  1.0770  0.2145
16687SOL    HW153653   2.154  10.229   6.885  1.4141 -0.7074  0.0190
16687SOL    HW253654   2.165  10.347   6.791 -1.5411 -0.0300  0.4253
16688SOL     OW53655   4.973  10.563   9.380 -0.0028 -0.1646 -0.1769
16688SOL    HW153656   5.058  10.553   9.336  0.7736 -2.0116  1.5495
16688SOL    HW253657   4.996  10.583   9.471 -1.4418 -0.2556  0.2305
16689SOL     OW53658   5.375   3.815  10.046  0.8695  0.5723 -0.9474
16689SOL    HW153659   5.464   3.834  10.018  1.3489 -0.0433  0.1002
16689SOL    HW253660   5.371   3.848  10.136 -0.9328  3.4394 -1.9155
16690SOL     OW53661  10.657   7.011   5.899 -0.5423 -0.7646  0.3895
16690SOL    HW153662  10.629   6.930   5.941 -2.2709  0.6311  2.1074
16690SOL    HW253663  10.605   7.015   5.818  0.8264 -2.1570 -0.6050
16691SOL     OW53664   9.566   0.760   8.016 -0.5995 -0.7341  0.2792
16691SOL    HW153665   9.598   0.711   7.940 -1.6811  0.4431 -1.0008
16691SOL    HW253666   9.565   0.697   8.087  1.6730 -1.5503 -0.3402
16692SOL     OW53667   0.428   5.586   1.474 -0.8251  0.1592 -0.0276
16692SOL    HW153668   0.354   5.648   1.482 -1.8392 -0.8735 -1.0404
16692SOL    HW253669   0.494   5.635   1.426 -1.4515  0.6083 -0.4582
16693SOL     OW53670   0.268   6.940   4.864  0.1965  0.5009 -0.2330
16693SOL    HW153671   0.195   6.925   4.804 -0.6878  1.1158  0.6587
16693SOL    HW253672   0.338   6.973   4.808 -0.1655 -0.1930 -1.1228
16694SOL     OW53673   9.448   7.369   9.219 -0.1059 -0.1448  0.0339
16694SOL    HW153674   9.469   7.327   9.135  0.7887 -0.5224  0.4343
16694SOL    HW253675   9.385   7.437   9.196  1.3914  0.8967 -1.2196
16695SOL     OW53676   7.895   0.455   5.515 -0.1099 -0.1732  0.3458
16695SOL    HW153677   7.873   0.471   5.423  0.7401  1.0526  0.3421
16695SOL    HW253678   7.849   0.374   5.536 -1.4160  0.2347 -0.7771
16696SOL     OW53679   3.358   2.081  10.827  0.2164  0.4121 -0.4998
16696SOL    HW153680   3.354   1.986  10.837 -1.0937  0.2448 -2.3091
16696SOL    HW253681   3.291   2.115  10.886 -0.3104  0.1035 -0.9128
16697SOL     OW53682   4.750   8.125   2.233 -0.0836 -0.1220 -0.1969
16697SOL    HW153683   4.771   8.199   2.176  1.6748 -0.8017 -0.4950
16697SOL    HW253684   4.792   8.146   2.316  1.5503 -1.3136 -0.6670
16698SOL     OW53685   9.458   0.701  10.612  0.1471  0.3371 -0.3154
16698SOL    HW153686   9.383   0.658  10.572  0.6916 -1.0204  0.0842
16698SOL    HW253687   9.421   0.779  10.655 -0.9091  0.0792 -0.7291
16699SOL     OW53688   1.266   8.354   3.473  0.6909  0.4871 -0.7329
16699SOL    HW153689   1.278   8.447   3.488  0.1416  0.2671  1.4447
16699SOL    HW253690   1.334   8.331   3.409  1.2456  2.2350 -0.8268
16700SOL     OW53691  10.144   0.344   8.398  0.8054  0.1119 -0.2242
16700SOL    HW153692  10.137   0.436   8.425  0.9741  0.2192 -0.5341
16700SOL    HW253693  10.233   0.319   8.423  0.6982 -0.0224  0.0234
16701SOL     OW53694   2.885   2.705   0.238  0.1935 -0.2112 -0.0850
16701SOL    HW153695   2.980   2.709   0.232  0.3932 -2.7688  0.3085
16701SOL    HW253696   2.866   2.720   0.330  0.1426  0.7870 -0.2439
16702SOL     OW53697   9.475   8.564   1.673 -0.7290  0.8820 -0.4722
16702SOL    HW153698   9.488   8.495   1.609  1.8308  1.3979 -0.6092
16702SOL    HW253699   9.495   8.523   1.757  1.3241  1.5277 -0.6053
16703SOL     OW53700   0.495   6.893   5.808 -0.0177 -0.3090 -0.8302
16703SOL    HW153701   0.500   6.985   5.832  0.5083 -0.7216  0.7412
16703SOL    HW253702   0.534   6.889   5.720  2.2082  0.6634  0.0258
16704SOL     OW53703   2.670   3.344   2.554 -0.2276  0.1552 -0.7841
16704SOL    HW153704   2.704   3.326   2.642 -0.5316  0.5932 -0.5718
16704SOL    HW253705   2.673   3.259   2.510  1.1368  0.1849 -0.7820
16705SOL     OW53706   5.612   9.665  10.440 -0.0545  0.5614  0.3911
16705SOL    HW153707   5.587   9.580  10.404 -1.1718  1.0543 -0.0416
16705SOL    HW253708   5.554   9.677  10.515 -1.1057  1.6796 -0.5636
16706SOL     OW53709   5.438   1.905   9.977 -0.6277 -0.0493 -0.0867
16706SOL    HW153710   5.456   1.999   9.969  0.8311 -0.2498  0.6068
16706SOL    HW253711   5.490   1.877  10.052 -0.2588 -1.6141 -0.8969
16707SOL     OW53712  10.202   7.539   1.056 -0.4146  0.2568 -0.0262
16707SOL    HW153713  10.125   7.488   1.030  0.5880  0.0955 -3.1460
16707SOL    HW253714  10.262   7.474   1.093 -0.9410  0.0163  0.4261
16708SOL     OW53715   2.522   6.950   8.028 -0.3624 -0.4305  0.5276
16708SOL    HW153716   2.593   7.004   8.062  0.8517 -0.4550 -1.7862
16708SOL    HW253717   2.445   7.008   8.029  0.5714  0.8861 -0.4866
16709SOL     OW53718   0.860   4.942   9.205 -0.2324  0.1131  0.0350
16709SOL    HW153719   0.880   4.852   9.231  1.3406  0.4077 -0.0439
16709SOL    HW253720   0.862   4.939   9.109 -1.7726 -0.0817 -0.0093
16710SOL     OW53721   4.536   8.801   0.104 -0.4509  0.8846 -0.3364
16710SOL    HW153722   4.612   8.744   0.121 -1.0411  0.0096 -0.5604
16710SOL    HW253723   4.550   8.877   0.159  0.4828  0.6287 -0.2041
16711SOL     OW53724   1.513   7.882   5.539  0.8225 -0.1280 -0.4480
16711SOL    HW153725   1.440   7.874   5.477  0.8380 -0.0298 -0.4794
16711SOL    HW253726   1.565   7.803   5.525  0.7541 -0.1696 -0.4673
16712SOL     OW53727   1.263   9.929   1.551 -0.3223 -0.1299 -0.6776
16712SOL    HW153728   1.240   9.986   1.478 -0.9415 -1.1497 -1.2993
16712SOL    HW253729   1.345   9.887   1.525 -0.2992 -0.1432 -0.5855
16713SOL     OW53730   5.601  10.586   0.826 -0.5307  0.0580  0.5838
16713SOL    HW153731   5.565  10.672   0.848 -0.3786  0.6883 -1.4351
16713SOL    HW253732   5.531  10.525   0.847 -1.5457  0.9286 -0.1606
16714SOL     OW53733   9.340   1.932  10.413  0.3295  0.3316 -0.1440
16714SOL    HW153734   9.254   1.938  10.373  0.1975 -0.4270  0.0111
16714SOL    HW253735   9.348   1.841  10.440  1.6311  0.1283 -1.1383
16715SOL     OW53736   5.075   0.172   7.206  0.2609 -0.5486  0.2768
16715SOL    HW153737   5.157   0.135   7.239  0.8396  0.7779  0.4002
16715SOL    HW253738   5.025   0.193   7.285 -0.0062 -0.9051  0.2088
16716SOL     OW53739   5.453   8.953   6.515  0.2472  0.7052  0.2028
16716SOL    HW153740   5.466   8.921   6.425  0.3906  1.3130  0.0015
16716SOL    HW253741   5.535   8.933   6.560 -0.4204 -1.1001  0.6699
16717SOL     OW53742   6.045   6.156   7.825  0.4529 -0.0746  0.3204
16717SOL    HW153743   6.065   6.137   7.733  0.2773 -2.0893  0.6565
16717SOL    HW253744   5.955   6.125   7.837  0.7814 -0.6620  1.3831
16718SOL     OW53745   1.612   5.485   4.561 -0.7106  0.6600  0.1163
16718SOL    HW153746   1.542   5.424   4.537 -0.3304  0.0932  0.4395
16718SOL    HW253747   1.680   5.472   4.494 -0.2199  0.0323  0.7220
16719SOL     OW53748   7.748   9.547  10.718 -0.0213  0.1554  0.3599
16719SOL    HW153749   7.751   9.643  10.711 -0.3048  0.0784 -1.4130
16719SOL    HW253750   7.657   9.528  10.741 -0.6776  0.2511 -1.9129
16720SOL     OW53751   0.095   3.705   8.565  0.8190  0.5611 -0.3226
16720SOL    HW153752   0.184   3.672   8.554  0.2052 -1.7462  1.0187
16720SOL    HW253753   0.039   3.634   8.533 -0.5903  2.1537 -1.5962
16721SOL     OW53754   7.361   6.973  10.261  0.4267  0.2250 -0.0993
16721SOL    HW153755   7.291   7.031  10.291 -1.1378 -2.2288  1.2432
16721SOL    HW253756   7.371   6.994  10.168 -0.9436  1.7542  0.0505
16722SOL     OW53757   8.618   8.903  10.799 -0.8894 -0.2962  0.0058
16722SOL    HW153758   8.630   8.966  10.870 -1.3978 -0.2856  0.0908
16722SOL    HW253759   8.537   8.931  10.757 -0.0721  0.3065 -1.2271
16723SOL     OW53760   5.344   1.135   8.849 -0.3915  0.0721  0.2737
16723SOL    HW153761   5.308   1.211   8.804  1.3825  1.1268  0.5378
16723SOL    HW253762   5.284   1.064   8.828 -1.1337  1.1456 -1.4411
16724SOL     OW53763   4.693   9.953   3.033 -0.3511  0.2799 -0.1385
16724SOL    HW153764   4.721   9.972   3.123  1.2449 -2.2039 -0.0004
16724SOL    HW253765   4.600   9.936   3.040 -0.2578  0.1822  1.0384
16725SOL     OW53766   6.750   6.968  10.182  0.1900 -0.3159 -0.1024
16725SOL    HW153767   6.743   7.035  10.250  0.5014 -0.3286 -0.0582
16725SOL    HW253768   6.660   6.934  10.172 -0.2001  0.9148 -0.9531
16726SOL     OW53769   9.534   2.670   9.297  0.6592 -0.3879  0.2803
16726SOL    HW153770   9.558   2.577   9.298 -1.9575 -1.1445  0.4822
16726SOL    HW253771   9.505   2.686   9.208 -2.9229 -1.0209  1.1854
16727SOL     OW53772  10.984   9.542  10.487 -0.4776 -0.1345 -0.0996
16727SOL    HW153773  10.991   9.636  10.503  0.5659  0.1980 -2.1336
16727SOL    HW253774  10.963   9.535  10.394 -2.6243 -1.9129  0.4294
16728SOL     OW53775   3.681   6.952   6.590 -0.3692  0.1290  0.1295
16728SOL    HW153776   3.628   6.920   6.663  0.4238 -0.1283  0.6079
16728SOL    HW253777   3.627   7.019   6.548 -1.0946 -0.1811  0.5583
16729SOL     OW53778   6.393   4.461   1.520  0.0996 -0.0077 -0.0803
16729SOL    HW153779   6.452   4.533   1.497 -0.0297 -0.2444 -1.2111
16729SOL    HW253780   6.396   4.403   1.444 -0.4417 -0.7804  0.4760
16730SOL     OW53781   6.543   7.554   8.703 -0.7711 -0.2583 -0.3845
16730SOL    HW153782   6.451   7.574   8.687 -0.9117 -0.0138  0.6769
16730SOL    HW253783   6.575   7.627   8.755 -0.1427 -0.6557 -0.2040
16731SOL     OW53784   3.326   9.765   7.165 -0.0358 -0.2249 -0.5476
16731SOL    HW153785   3.357   9.679   7.192 -0.9017 -0.2545  0.4016
16731SOL    HW253786   3.406   9.818   7.158  0.3979 -0.8016 -0.0268
16732SOL     OW53787   1.508   7.327   8.042 -0.4912 -0.1565  0.0097
16732SOL    HW153788   1.478   7.377   7.966  0.3719 -0.9213 -0.8618
16732SOL    HW253789   1.497   7.236   8.016  2.5492 -0.5008 -0.4149
16733SOL     OW53790   5.275   1.083   8.261  0.6355 -0.2654  0.0476
16733SOL    HW153791   5.354   1.111   8.214 -0.3498  1.2574 -0.7902
16733SOL    HW253792   5.242   1.009   8.210  0.2217  0.6339 -1.0491
16734SOL     OW53793   4.435   5.736   2.692 -0.4596  0.2776  1.0923
16734SOL    HW153794   4.365   5.764   2.633  1.6128  0.0426 -1.6781
16734SOL    HW253795   4.504   5.801   2.681  1.1617 -1.3859  0.9403
16735SOL     OW53796   1.320   4.149   9.720  0.1995 -0.1402  0.0497
16735SOL    HW153797   1.316   4.230   9.771 -1.5592  0.3347 -0.7500
16735SOL    HW253798   1.228   4.128   9.703  0.4743 -3.3056  1.7489
16736SOL     OW53799   3.149   8.181   6.563 -0.4836 -0.1428 -0.4397
16736SOL    HW153800   3.223   8.230   6.527 -1.9894  2.0729 -0.7484
16736SOL    HW253801   3.116   8.129   6.490 -1.4212  1.7038 -1.4128
16737SOL     OW53802   6.730   0.155   9.660  0.4195  0.7641  0.0231
16737SOL    HW153803   6.666   0.086   9.676  1.1107 -0.0242 -0.5598
16737SOL    HW253804   6.690   0.209   9.591  0.6951 -0.1664 -0.8873
16738SOL     OW53805   4.641   2.478   3.034  0.1538  0.7378  0.4024
16738SOL    HW153806   4.693   2.431   2.968  1.8063 -0.0471  2.1618
16738SOL    HW253807   4.703   2.496   3.105 -1.9290 -0.0067  2.5312
16739SOL     OW53808   8.852   0.115   3.846  0.5906  0.1986 -0.0507
16739SOL    HW153809   8.844   0.038   3.789 -1.6306  0.5591 -0.3321
16739SOL    HW253810   8.849   0.080   3.935 -1.7882 -0.0366 -0.1515
16740SOL     OW53811   6.957  10.205   8.192  0.2737 -0.6688 -0.9465
16740SOL    HW153812   7.016  10.277   8.213 -1.4796  1.0141 -1.5669
16740SOL    HW253813   6.996  10.129   8.237  1.7163  0.8021  0.4403
16741SOL     OW53814   5.013   6.905   6.744  0.8281 -0.1166 -0.1247
16741SOL    HW153815   4.992   6.997   6.728  2.3395  0.3153  0.2263
16741SOL    HW253816   5.107   6.899   6.726  0.6131 -1.7615 -0.8486
16742SOL     OW53817   0.080   1.983  10.675  0.0715  0.3415 -0.2071
16742SOL    HW153818   0.141   1.989  10.747 -0.4186 -0.3268  0.2764
16742SOL    HW253819   0.128   1.938  10.605  0.0280 -0.5172  0.3006
16743SOL     OW53820   9.572   0.387   4.539  0.4229  0.5824 -0.1182
16743SOL    HW153821   9.665   0.363   4.540  0.1481 -0.5169  0.0184
16743SOL    HW253822   9.570   0.478   4.570  1.3260  0.1868  1.1583
16744SOL     OW53823   5.131   1.348   6.371 -0.2127 -0.5406 -0.2614
16744SOL    HW153824   5.148   1.269   6.320 -1.4829 -1.5989  0.8763
16744SOL    HW253825   5.199   1.410   6.344  1.8282 -2.5648 -0.0106
16745SOL     OW53826   3.205   1.173   4.465  0.2141 -0.0765 -0.0303
16745SOL    HW153827   3.247   1.240   4.519 -0.6382 -0.4634  1.1641
16745SOL    HW253828   3.114   1.170   4.497  0.3545 -2.1350  0.3122
16746SOL     OW53829  10.719  11.008   4.394  0.2240  0.6343 -0.3369
16746SOL    HW153830  10.648  11.049   4.346  0.3165  1.3356  0.1146
16746SOL    HW253831  10.738  11.068   4.466  0.6606  0.0161  0.0797
16747SOL     OW53832   3.954   8.785   2.302  0.3734  0.0223 -0.1557
16747SOL    HW153833   3.965   8.690   2.308 -0.8761 -0.0504  1.8948
16747SOL    HW253834   3.874   8.797   2.251 -0.2139 -0.1005  0.7148
16748SOL     OW53835   6.750   4.886   7.327  0.2772 -0.1769 -0.0518
16748SOL    HW153836   6.757   4.806   7.378 -0.0230 -1.0055 -1.2789
16748SOL    HW253837   6.799   4.951   7.378 -0.4008 -0.8345  1.5121
16749SOL     OW53838   3.023   7.254   7.511  0.9840 -0.6517 -0.6329
16749SOL    HW153839   3.076   7.285   7.585  0.9329  1.0237 -1.2413
16749SOL    HW253840   2.938   7.233   7.550  0.8298  0.5778 -0.2328
16750SOL     OW53841   9.584   6.486   5.073  0.0130 -0.2654  0.1619
16750SOL    HW153842   9.563   6.400   5.110  0.1448 -1.0866 -1.5973
16750SOL    HW253843   9.533   6.548   5.126 -0.3622 -1.4405  1.2228
16751SOL     OW53844  10.896  10.068  10.332  0.0541  0.3624 -0.4770
16751SOL    HW153845  10.950  10.144  10.309 -0.9267  1.5973  1.1138
16751SOL    HW253846  10.830  10.064  10.263  0.5670  0.4926 -0.9799
16752SOL     OW53847   8.963   4.370   3.279  0.0856  0.1450  0.0887
16752SOL    HW153848   8.984   4.461   3.254 -0.4194  0.3164  0.2734
16752SOL    HW253849   8.871   4.374   3.306  0.5100 -0.1030  1.6619
16753SOL     OW53850  10.384   6.879   5.435 -0.1092  0.0287 -0.1883
16753SOL    HW153851  10.349   6.814   5.375 -2.0312  1.9234 -1.2710
16753SOL    HW253852  10.466   6.907   5.396  0.9408 -1.9260  0.4923
16754SOL     OW53853   1.390   1.525   0.283 -0.1476 -0.0836 -0.3799
16754SOL    HW153854   1.407   1.507   0.190 -0.2297  0.1315 -0.4376
16754SOL    HW253855   1.338   1.606   0.282 -1.0249 -0.6350 -0.1991
16755SOL     OW53856   8.259  10.782   0.957  0.5720  0.2298  0.4967
16755SOL    HW153857   8.315  10.859   0.943 -0.1928  0.7149 -0.0033
16755SOL    HW253858   8.226  10.793   1.047  1.1101  0.0487  0.7193
16756SOL     OW53859   6.384   5.170   7.965  0.0953 -0.3411 -0.0146
16756SOL    HW153860   6.332   5.102   8.009 -1.2583  0.2310 -0.6708
16756SOL    HW253861   6.464   5.177   8.018  0.0480 -2.0697  0.3594
16757SOL     OW53862   0.411   4.148   5.290 -0.4084 -0.5849  0.2421
16757SOL    HW153863   0.432   4.189   5.374 -1.0089 -0.0011  0.1092
16757SOL    HW253864   0.462   4.198   5.226 -0.7799 -0.3370  0.1361
16758SOL     OW53865   1.747   9.147   3.437 -0.0399  0.6107  0.1629
16758SOL    HW153866   1.750   9.163   3.531 -1.9460 -0.7343  0.5238
16758SOL    HW253867   1.703   9.225   3.401 -1.1766  0.2330  0.6879
16759SOL     OW53868   3.028   9.683   9.462 -0.0740 -0.0086  0.0727
16759SOL    HW153869   2.944   9.727   9.449 -0.3015 -0.5320 -0.2979
16759SOL    HW253870   3.008   9.590   9.446  0.9135  0.0428 -1.7317
16760SOL     OW53871   2.547   5.712   6.422 -0.0750 -0.5701 -0.5322
16760SOL    HW153872   2.611   5.777   6.394 -1.3665 -0.6387 -4.1443
16760SOL    HW253873   2.590   5.628   6.407  0.3918 -0.6179  0.9481
16761SOL     OW53874   2.914  10.280   6.490 -0.6064 -0.0890 -0.7013
16761SOL    HW153875   2.864  10.335   6.430 -0.2303  0.6536 -0.3456
16761SOL    HW253876   3.006  10.302   6.472 -0.4801  0.0023  0.0073
16762SOL     OW53877   9.760  10.952   9.863  0.0423 -0.3823  0.0709
16762SOL    HW153878   9.828  10.896   9.824 -0.5165  0.6649 -2.6548
16762SOL    HW253879   9.781  11.040   9.832 -1.4164  0.2902  0.8726
16763SOL     OW53880  10.960  11.106   7.782  0.0279 -0.2840 -0.2544
16763SOL    HW153881  11.007  11.183   7.811 -0.3912  0.4074 -1.3490
16763SOL    HW253882  10.911  11.135   7.705  0.7424 -1.9162 -1.3776
16764SOL     OW53883  10.788   1.621   8.033 -0.3009 -0.0846  0.2016
16764SOL    HW153884  10.827   1.702   8.065 -2.0995  0.1738  1.9536
16764SOL    HW253885  10.697   1.625   8.063 -0.9761 -1.8263 -1.4512
16765SOL     OW53886   2.208   8.495   1.965  0.1750 -0.1311  0.4219
16765SOL    HW153887   2.164   8.418   1.932 -1.1614  1.1705 -0.9634
16765SOL    HW253888   2.291   8.497   1.918  0.2469 -0.7236  0.5107
16766SOL     OW53889   7.018   9.704   9.536 -0.3349 -0.3243  0.2293
16766SOL    HW153890   6.990   9.750   9.457  0.4274  0.9543  0.6768
16766SOL    HW253891   7.034   9.614   9.507  0.0684  0.1586 -1.0948
16767SOL     OW53892   9.037   4.071   7.592  0.6775  0.4543  0.2541
16767SOL    HW153893   9.018   4.052   7.500  0.3893 -1.8441  0.7218
16767SOL    HW253894   9.133   4.069   7.598  0.7138  1.1204 -0.0880
16768SOL     OW53895   3.242   3.555   0.578 -0.2847  0.2752 -0.2271
16768SOL    HW153896   3.260   3.461   0.574  0.9949  0.5272 -1.1304
16768SOL    HW253897   3.169   3.567   0.517  0.9288  0.1332 -1.7647
16769SOL     OW53898   9.809  10.191   5.510  0.1289 -0.1546  0.0729
16769SOL    HW153899   9.788  10.117   5.452  1.2814  0.6641 -1.4864
16769SOL    HW253900   9.770  10.267   5.467 -1.7033  0.1204  2.0517
16770SOL     OW53901   8.056   0.572   2.407 -0.0350  0.1764 -0.1391
16770SOL    HW153902   8.016   0.504   2.353 -1.6049 -0.2710  1.4903
16770SOL    HW253903   8.066   0.532   2.493  0.9673  1.3586  0.3387
16771SOL     OW53904  10.283   1.134  10.207 -0.3714 -0.6886  0.4664
16771SOL    HW153905  10.370   1.099  10.187  0.1288 -0.6242  2.3946
16771SOL    HW253906  10.223   1.072  10.166  0.5362 -0.2533 -1.6951
16772SOL     OW53907   7.498   1.784   5.142 -0.5165 -0.0467 -0.0838
16772SOL    HW153908   7.480   1.757   5.232 -1.1328 -0.2594 -0.2608
16772SOL    HW253909   7.426   1.843   5.120  0.1760  0.8043 -0.1063
16773SOL     OW53910   3.335   7.228   0.539 -0.5592  0.1425  0.2131
16773SOL    HW153911   3.249   7.253   0.504  0.1061  2.3934  0.0549
16773SOL    HW253912   3.346   7.281   0.618  0.7169 -0.0745  0.2033
16774SOL     OW53913   7.875   3.800   8.576  0.6035  0.1199 -0.4578
16774SOL    HW153914   7.827   3.841   8.504 -0.6617  1.3335  1.0169
16774SOL    HW253915   7.942   3.864   8.600  0.3241  0.2086  0.1161
16775SOL     OW53916   4.693  10.576   1.602 -0.4616 -0.4812  0.0137
16775SOL    HW153917   4.771  10.629   1.619  1.2595 -2.9058  0.2497
16775SOL    HW253918   4.669  10.543   1.689 -2.6851  1.3020  0.1702
16776SOL     OW53919   0.056   6.285   1.543 -0.3630  0.3552 -0.6920
16776SOL    HW153920   0.133   6.331   1.575 -0.4880  1.6940 -2.1496
16776SOL    HW253921  -0.017   6.344   1.562 -0.8139 -0.1621 -0.7871
16777SOL     OW53922   7.936   2.943   4.171  0.1430  0.2422  0.2222
16777SOL    HW153923   7.918   3.032   4.142 -0.8621 -0.1807 -0.5071
16777SOL    HW253924   7.935   2.891   4.091 -1.3638 -0.7403  0.8432
16778SOL     OW53925   3.577   6.035   0.387 -0.5925  0.0801  0.4635
16778SOL    HW153926   3.531   5.976   0.448  0.9781 -1.7142  0.0297
16778SOL    HW253927   3.513   6.051   0.317 -1.6348  0.3016  1.4312
16779SOL     OW53928   0.478   0.383   3.891  0.0088  0.0622  0.0609
16779SOL    HW153929   0.475   0.421   3.979 -1.1457 -1.4240  0.6837
16779SOL    HW253930   0.537   0.309   3.899 -1.5494 -1.2228  0.0783
16780SOL     OW53931   6.286   3.446   0.946 -0.4704 -0.4740  0.0648
16780SOL    HW153932   6.311   3.512   0.880  1.2298 -0.8936  0.2522
16780SOL    HW253933   6.241   3.497   1.014  0.3565  0.4304 -0.0356
16781SOL     OW53934   7.685  11.085   3.668 -0.3834  0.2500 -0.3971
16781SOL    HW153935   7.734  11.167   3.659  1.1300 -0.6134 -0.4330
16781SOL    HW253936   7.639  11.093   3.751  1.3205  0.3785  0.5846
16782SOL     OW53937   0.617   0.026   0.136 -0.4760 -0.2377 -0.3405
16782SOL    HW153938   0.661   0.004   0.053 -1.1114 -1.0748 -0.4646
16782SOL    HW253939   0.555  -0.046   0.150 -1.0330  0.3781  0.3924
16783SOL     OW53940   3.603   4.752   7.068  0.2296 -0.3290  0.7666
16783SOL    HW153941   3.532   4.689   7.083 -0.4884  0.1585 -0.3808
16783SOL    HW253942   3.563   4.838   7.084  0.2956  0.0010 -0.6374
16784SOL     OW53943   1.009   8.433   7.431  0.0355 -0.7076  0.2168
16784SOL    HW153944   0.997   8.509   7.375  1.3171 -0.1692  0.6510
16784SOL    HW253945   1.075   8.459   7.494 -0.4086 -1.7628  1.1567
16785SOL     OW53946   5.650   3.720   3.824 -0.0097  0.2212 -0.0485
16785SOL    HW153947   5.672   3.627   3.825  0.4121  0.3027 -0.7641
16785SOL    HW253948   5.734   3.764   3.833 -0.2453  0.5414  0.6710
16786SOL     OW53949   1.814   1.157   9.381 -0.2764 -0.3388 -0.2755
16786SOL    HW153950   1.791   1.187   9.469  1.6126  0.8945 -0.1388
16786SOL    HW253951   1.750   1.088   9.361 -0.6900 -0.7059  2.0800
16787SOL     OW53952   2.869   0.668   7.877 -0.1170  0.2611  0.5244
16787SOL    HW153953   2.893   0.608   7.947  0.4381 -2.2462 -1.6349
16787SOL    HW253954   2.931   0.741   7.885  2.0218 -1.4747  0.8146
16788SOL     OW53955  10.541   0.302   6.732  0.4260 -0.2216  0.1109
16788SOL    HW153956  10.507   0.307   6.642 -0.9286  0.4344  0.6302
16788SOL    HW253957  10.551   0.393   6.759 -1.2603 -0.3539  1.3391
16789SOL     OW53958   1.973   6.532   9.940 -0.0554  0.5256 -0.2236
16789SOL    HW153959   2.006   6.445   9.963  0.0637  0.3583 -0.9981
16789SOL    HW253960   1.881   6.518   9.918  0.1245  0.4701 -0.9877
16790SOL     OW53961   6.313   8.549   4.570  0.0345  0.5717  0.0811
16790SOL    HW153962   6.395   8.523   4.528 -0.1704  1.1350 -0.6934
16790SOL    HW253963   6.333   8.634   4.610  1.0859 -1.1845  3.7198
16791SOL     OW53964   2.665   4.670   7.806  0.1059 -0.3678  0.1425
16791SOL    HW153965   2.625   4.701   7.887  1.0081 -0.5694  0.6750
16791SOL    HW253966   2.614   4.592   7.782 -0.0300 -0.4299  0.6276
16792SOL     OW53967   3.104   3.206   3.514  0.1905  0.0178 -0.0952
16792SOL    HW153968   3.128   3.243   3.429  0.8349  0.0878  0.1154
16792SOL    HW253969   3.063   3.279   3.561 -0.5903 -0.1408 -0.5063
16793SOL     OW53970   7.603   6.247  10.093  0.3272  0.2196  0.0279
16793SOL    HW153971   7.581   6.231  10.001  2.1298  3.1030 -1.0647
16793SOL    HW253972   7.524   6.286  10.130 -0.9156 -2.2905  0.1995
16794SOL     OW53973   8.716   3.558   0.141 -0.1414  0.5495  0.0943
16794SOL    HW153974   8.666   3.493   0.190 -1.2080  1.1641 -0.1359
16794SOL    HW253975   8.703   3.640   0.190  2.1988  0.4199  1.0989
16795SOL     OW53976   9.539  10.978   8.737  0.4128  0.8633  0.0139
16795SOL    HW153977   9.618  10.931   8.762 -1.4314 -3.3608 -1.1244
16795SOL    HW253978   9.568  11.042   8.672  3.0537  0.6978  0.9249
16796SOL     OW53979   0.930   8.601   4.468  0.1161 -0.2348  0.1908
16796SOL    HW153980   0.998   8.586   4.533  0.6109 -0.2155 -0.3126
16796SOL    HW253981   0.848   8.581   4.513  0.3738  0.7165  1.1086
16797SOL     OW53982   8.382   1.498   4.898 -0.3558 -0.2532  0.9401
16797SOL    HW153983   8.392   1.421   4.955  1.5306 -0.9596 -0.2559
16797SOL    HW253984   8.366   1.461   4.811 -1.0923  0.7670  0.6231
16798SOL     OW53985   4.096   6.164   5.135 -0.6783 -0.5098  0.0233
16798SOL    HW153986   4.099   6.254   5.102 -0.6109 -0.2010  0.8343
16798SOL    HW253987   4.076   6.110   5.058 -2.8821  0.3979 -0.0897
16799SOL     OW53988   1.457   0.074   4.121 -0.1487  0.5739 -0.0194
16799SOL    HW153989   1.428   0.042   4.207 -0.5437  1.5679  0.2235
16799SOL    HW253990   1.377   0.077   4.069  0.1166 -0.1967 -0.4995
16800SOL     OW53991   1.217   8.107   6.388  0.2484 -0.7404  0.5341
16800SOL    HW153992   1.206   8.181   6.447  1.6177 -0.0184 -0.0570
16800SOL    HW253993   1.128   8.083   6.362 -0.2285  0.7046  0.7414
16801SOL     OW53994   1.056   9.281   9.381 -0.4462  0.2021  0.3168
16801SOL    HW153995   1.010   9.363   9.400 -1.2656 -0.5461  1.6859
16801SOL    HW253996   1.052   9.232   9.463  0.7958 -0.8543 -0.2263
16802SOL     OW53997  10.862   2.430   7.860  0.2543 -0.7941 -0.5095
16802SOL    HW153998  10.875   2.524   7.861  3.1591 -1.0989 -1.0887
16802SOL    HW253999  10.865   2.404   7.952 -0.6465 -0.3615 -0.3429
16803SOL     OW54000  10.523   3.716   9.508  0.1405 -0.0426 -0.8156
16803SOL    HW154001  10.581   3.674   9.571  0.0089  1.1018  0.1121
16803SOL    HW254002  10.460   3.649   9.485 -0.4415 -0.2059  1.0906
16804SOL     OW54003   9.380   6.902   7.607 -0.0082  0.3467 -0.2909
16804SOL    HW154004   9.357   6.917   7.516  1.0372 -0.5966 -0.7202
16804SOL    HW254005   9.374   6.808   7.619 -0.5186  0.4939  0.7324
16805SOL     OW54006   0.379   4.731   6.501  0.6456  0.3321 -0.1294
16805SOL    HW154007   0.436   4.801   6.470 -0.4405  0.8874 -0.9538
16805SOL    HW254008   0.328   4.706   6.424 -0.3836  0.0216  0.6289
16806SOL     OW54009   4.846   2.322   0.774  0.0322 -0.2379 -0.5643
16806SOL    HW154010   4.766   2.364   0.742 -0.7633 -0.1273  1.3752
16806SOL    HW254011   4.837   2.231   0.746 -0.2340  0.0124 -1.3150
16807SOL     OW54012   0.558   2.271   9.460 -0.2476 -0.2789 -0.2816
16807SOL    HW154013   0.580   2.209   9.530  2.7825 -0.3535 -1.1401
16807SOL    HW254014   0.509   2.219   9.397 -1.4427 -0.6676  0.9200
16808SOL     OW54015   2.140   6.738   5.992  0.3742 -0.3558 -0.2114
16808SOL    HW154016   2.156   6.672   6.058  0.3790 -0.1058  0.0382
16808SOL    HW254017   2.160   6.821   6.035  1.4823 -0.2565 -0.8613
16809SOL     OW54018   8.272   6.999   3.326 -0.2015 -0.4942  0.2149
16809SOL    HW154019   8.296   6.910   3.298 -0.0418 -0.3931  0.0266
16809SOL    HW254020   8.214   6.986   3.401  1.5678 -0.7277  1.5844
16810SOL     OW54021   2.627   9.973   2.206  0.9046 -0.1123  0.3585
16810SOL    HW154022   2.585   9.917   2.141  2.9866 -0.1187 -1.0783
16810SOL    HW254023   2.561   9.985   2.273 -0.3985 -2.4259 -0.3854
16811SOL     OW54024   6.835  10.426   7.012  0.2763 -0.2557  0.0193
16811SOL    HW154025   6.903  10.382   7.063 -0.0668 -0.7129  0.0943
16811SOL    HW254026   6.883  10.478   6.948  0.6945 -0.5960  0.0508
16812SOL     OW54027   9.330   5.498   8.981 -0.3681  0.1731  0.9820
16812SOL    HW154028   9.398   5.530   9.040 -0.0417  2.5258 -0.5357
16812SOL    HW254029   9.374   5.436   8.924  0.6896  1.8861 -0.1690
16813SOL     OW54030   3.797   2.808  10.396 -0.4437 -0.6707 -0.2307
16813SOL    HW154031   3.822   2.774  10.482  0.2439  0.2355 -0.0635
16813SOL    HW254032   3.807   2.733  10.337  1.4015 -0.6968  0.0665
16814SOL     OW54033   7.326   2.398   0.878  0.3309  0.6659 -0.0757
16814SOL    HW154034   7.314   2.315   0.925 -0.0544  0.7731  0.0245
16814SOL    HW254035   7.262   2.395   0.807 -0.0254  1.0834  0.2208
16815SOL     OW54036   3.168   3.862   2.785  0.2351  0.3795 -0.0124
16815SOL    HW154037   3.199   3.865   2.875  0.1757  2.4039 -0.0064
16815SOL    HW254038   3.075   3.840   2.792  0.2350  0.5186  0.4313
16816SOL     OW54039   2.629   5.680   1.916  0.2477  0.0029  0.5210
16816SOL    HW154040   2.610   5.641   1.831 -0.2327  0.1182  0.5758
16816SOL    HW254041   2.692   5.750   1.897  0.7951 -0.5182  0.3708
16817SOL     OW54042   5.850   5.599  10.579  0.1369  0.5349 -0.4466
16817SOL    HW154043   5.906   5.647  10.518  1.8173 -1.8932 -0.9850
16817SOL    HW254044   5.900   5.595  10.661  0.2943 -0.6457 -0.5702
16818SOL     OW54045   4.193   0.676   1.284 -0.4648  0.7317 -0.0405
16818SOL    HW154046   4.101   0.700   1.296 -1.2147 -1.6965 -0.4476
16818SOL    HW254047   4.191   0.590   1.241  1.9639 -0.2767  1.6220
16819SOL     OW54048   2.125  10.426   3.112 -0.5168 -0.3504  0.0201
16819SOL    HW154049   2.204  10.414   3.165 -0.0829 -1.7180 -0.8772
16819SOL    HW254050   2.112  10.341   3.069 -1.6614  0.2918 -0.9603
16820SOL     OW54051  10.514   8.426  10.520 -0.3785 -0.5827 -0.1278
16820SOL    HW154052  10.501   8.506  10.468 -0.9843 -0.6588 -0.0986
16820SOL    HW254053  10.484   8.355  10.463 -2.6679 -0.5305  0.9091
16821SOL     OW54054   4.655   7.020   5.430  0.0836  0.0068  0.2124
16821SOL    HW154055   4.671   6.956   5.499 -1.3350  0.2227  0.7694
16821SOL    HW254056   4.731   7.078   5.432  1.2708 -1.4837 -0.1342
16822SOL     OW54057   6.531   5.566   4.424  0.0484  0.5352  0.4430
16822SOL    HW154058   6.511   5.535   4.512  0.6386  0.1626  0.4567
16822SOL    HW254059   6.505   5.495   4.366  1.7348 -0.1784  0.5013
16823SOL     OW54060   3.187   6.082   7.379 -0.2600 -0.4307 -0.0326
16823SOL    HW154061   3.238   6.150   7.423 -0.6331  1.6801 -2.5685
16823SOL    HW254062   3.228   6.000   7.405  0.2852  0.6961  3.1075
16824SOL     OW54063   7.626   4.524   4.468  0.1443 -0.3341  0.9328
16824SOL    HW154064   7.683   4.497   4.396 -1.2102  0.3078 -0.4408
16824SOL    HW254065   7.586   4.443   4.498 -0.8327 -0.4168 -0.4583
16825SOL     OW54066   7.368   5.114   5.513 -0.1963 -0.3041 -0.4619
16825SOL    HW154067   7.417   5.033   5.498  0.0457 -0.3518  0.4824
16825SOL    HW254068   7.329   5.102   5.600 -0.9276  0.2137 -0.7108
16826SOL     OW54069  10.024   8.829   8.742  0.4240 -0.1646  0.4983
16826SOL    HW154070  10.006   8.737   8.724  2.7014 -1.0436  2.2238
16826SOL    HW254071  10.019   8.836   8.838  0.7773  1.3955  0.4302
16827SOL     OW54072  11.058  10.806   9.665 -0.2023 -0.4277  0.5405
16827SOL    HW154073  11.012  10.890   9.663  0.2128 -0.0786  2.7691
16827SOL    HW254074  11.074  10.785   9.573 -1.3131  1.3712 -0.1141
16828SOL     OW54075   2.600   5.138   4.125  0.0925  0.0387 -0.1158
16828SOL    HW154076   2.602   5.065   4.063  0.6014  0.8709 -1.1084
16828SOL    HW254077   2.612   5.216   4.071 -2.3913  1.0517  0.6602
16829SOL     OW54078   3.309   9.574   8.497 -0.2625  0.2423  0.1906
16829SOL    HW154079   3.217   9.548   8.504 -0.5092  1.2211  0.7739
16829SOL    HW254080   3.313   9.659   8.541  0.7334  0.6503 -0.6591
16830SOL     OW54081   5.158  10.953   1.346  0.3593 -0.3899 -0.0535
16830SOL    HW154082   5.079  10.908   1.375 -1.3507  1.1068 -2.0411
16830SOL    HW254083   5.157  10.945   1.251  2.0267  0.5992 -0.1963
16831SOL     OW54084   8.419   5.932   7.160 -0.3008 -0.0165 -0.0275
16831SOL    HW154085   8.396   6.005   7.217  1.5362  1.4100 -1.0086
16831SOL    HW254086   8.340   5.917   7.107 -1.5456 -0.4585  1.8506
16832SOL     OW54087   9.195   1.813   4.813  0.0001  0.1150  0.2339
16832SOL    HW154088   9.195   1.896   4.861  2.5260  0.7763 -0.7276
16832SOL    HW254089   9.118   1.767   4.845 -1.0609  2.4895  1.3839
16833SOL     OW54090   4.551   3.586   7.975 -0.4834  0.4116  0.7220
16833SOL    HW154091   4.517   3.498   7.994  0.0765  0.0379  0.0317
16833SOL    HW254092   4.541   3.633   8.058  0.6977 -0.7967  1.6096
16834SOL     OW54093   5.658   1.303   3.246  0.2458  0.1921 -0.2096
16834SOL    HW154094   5.579   1.272   3.202  0.4941 -0.9649  0.1144
16834SOL    HW254095   5.639   1.393   3.270 -0.6871  0.1622 -0.7957
16835SOL     OW54096  10.593   9.726  10.748  0.1701 -0.2835  0.5819
16835SOL    HW154097  10.601   9.754  10.839 -0.3742 -0.7032  0.7645
16835SOL    HW254098  10.600   9.631  10.751  1.6820 -0.2072 -0.0023
16836SOL     OW54099   7.781   0.639   2.280  0.1313 -0.1404  0.6256
16836SOL    HW154100   7.764   0.656   2.373  1.1675 -0.3457  0.8648
16836SOL    HW254101   7.788   0.543   2.275  0.3212 -0.1122  0.3822
16837SOL     OW54102   3.874   8.679   9.496 -0.2660  0.4863  0.3413
16837SOL    HW154103   3.955   8.714   9.457 -0.8903 -0.1314 -1.6402
16837SOL    HW254104   3.809   8.688   9.427 -1.1972 -1.6881  0.8772
16838SOL     OW54105   7.510   2.459   5.553  0.4990 -0.1174 -0.1269
16838SOL    HW154106   7.515   2.382   5.496  2.1960 -0.8031  0.8453
16838SOL    HW254107   7.485   2.423   5.639 -2.0588  0.8994 -0.3895
16839SOL     OW54108   0.352   5.392   5.408  0.4204 -0.1437 -0.1956
16839SOL    HW154109   0.302   5.450   5.467  2.6280  0.5072  1.1798
16839SOL    HW254110   0.366   5.313   5.459  0.4306 -0.4853 -0.7266
16840SOL     OW54111  10.615   6.456   1.460  0.1040  0.1152  0.6885
16840SOL    HW154112  10.532   6.419   1.487 -0.4715  0.5310 -0.4255
16840SOL    HW254113  10.609   6.549   1.483 -0.2731  0.4109 -0.5168
16841SOL     OW54114   7.911   0.653   3.238 -0.0553  0.0609  0.1436
16841SOL    HW154115   7.976   0.599   3.283  0.3955  1.2818  1.0302
16841SOL    HW254116   7.873   0.707   3.308 -1.3462  0.0402 -0.5211
16842SOL     OW54117   3.431   1.694   7.064 -0.4419  0.4640  0.0074
16842SOL    HW154118   3.405   1.662   7.151  0.6834  1.1557  0.6265
16842SOL    HW254119   3.350   1.729   7.027 -1.4938 -2.0888 -0.2845
16843SOL     OW54120   2.296  10.786   3.136 -0.2928 -0.5637 -0.5343
16843SOL    HW154121   2.389  10.765   3.128  0.0445  0.4068  0.4262
16843SOL    HW254122   2.275  10.833   3.056  0.9191  2.0420  0.5430
16844SOL     OW54123   7.410   1.407  10.951  0.0445  0.5920  0.1998
16844SOL    HW154124   7.362   1.366  11.024 -0.2185 -1.2683 -0.9593
16844SOL    HW254125   7.418   1.338  10.886  0.7260  2.0725 -1.3540
16845SOL     OW54126   8.888   2.119   6.543  0.2045  0.6252  0.3387
16845SOL    HW154127   8.794   2.103   6.550  0.1820  0.7269  0.2854
16845SOL    HW254128   8.929   2.037   6.568  0.0838  0.2955 -0.5057
16846SOL     OW54129   1.456   7.968  10.398  0.1595  0.2230 -0.0004
16846SOL    HW154130   1.384   8.032  10.395  0.5865  0.6856 -0.8183
16846SOL    HW254131   1.433   7.903  10.332 -0.9685 -1.2817  1.7644
16847SOL     OW54132   7.522   0.508   0.080  0.1646  0.3655  0.2281
16847SOL    HW154133   7.561   0.430   0.040 -0.9499 -0.5865  0.9476
16847SOL    HW254134   7.547   0.580   0.021  0.2254 -0.6982 -1.0953
16848SOL     OW54135   6.634   6.849   3.552  0.5110 -0.4789 -0.0523
16848SOL    HW154136   6.545   6.827   3.525  0.4868 -0.9575  0.4071
16848SOL    HW254137   6.632   6.843   3.647  0.5496  1.3363  0.1048
16849SOL     OW54138   5.849   8.810   6.061 -0.0584  0.1480 -0.0567
16849SOL    HW154139   5.918   8.863   6.020  0.2210 -0.9249 -1.0181
16849SOL    HW254140   5.864   8.820   6.155 -1.0380  3.1072 -0.0932
16850SOL     OW54141   0.611   1.505   0.477 -0.0074 -0.1755  0.2425
16850SOL    HW154142   0.684   1.500   0.538 -0.6063  0.5596  1.0385
16850SOL    HW254143   0.602   1.598   0.457 -1.7642 -0.0323  1.4739
16851SOL     OW54144   3.766   8.968   9.496  0.3946 -0.4193 -0.4968
16851SOL    HW154145   3.804   9.041   9.449  1.4458 -0.5314  0.1397
16851SOL    HW254146   3.752   8.901   9.429  0.1337  0.0829 -0.9523
16852SOL     OW54147   9.765   1.092   7.444 -0.3169  0.1699 -0.0910
16852SOL    HW154148   9.847   1.111   7.490  0.6059 -1.4518 -0.9520
16852SOL    HW254149   9.698   1.094   7.512  0.3358  2.0470  0.5412
16853SOL     OW54150   0.280   2.380   1.801  0.2557  0.1000 -0.1347
16853SOL    HW154151   0.211   2.353   1.741 -0.8821 -2.1308  1.9912
16853SOL    HW254152   0.359   2.339   1.766 -0.2924 -0.7670 -0.3989
16854SOL     OW54153   6.574   1.457   0.677 -0.1495  0.2486 -0.8835
16854SOL    HW154154   6.575   1.363   0.695 -2.2778  0.2909 -0.3468
16854SOL    HW254155   6.484   1.476   0.650 -0.4181  2.4849  1.2008
16855SOL     OW54156   6.237   4.421   2.586  0.1271 -0.1603  0.2107
16855SOL    HW154157   6.213   4.336   2.622 -1.1935 -0.3357 -0.9820
16855SOL    HW254158   6.309   4.451   2.641 -0.8518 -1.0290  2.0462
16856SOL     OW54159   5.679   2.895   0.071 -0.3693 -0.1813  0.3548
16856SOL    HW154160   5.716   2.983   0.057  0.2890 -0.4093  0.6469
16856SOL    HW254161   5.644   2.871  -0.015  0.5943 -0.1546 -0.0530
16857SOL     OW54162   1.220   8.460   7.163  0.3586  0.3609  0.4593
16857SOL    HW154163   1.219   8.364   7.156 -0.0713  0.3725  0.3258
16857SOL    HW254164   1.132   8.486   7.137  0.7672  0.8535 -0.4874
16858SOL     OW54165   5.301  10.005   8.761  0.1159  0.1166 -0.5349
16858SOL    HW154166   5.365   9.944   8.723  0.7692  0.6754 -0.3563
16858SOL    HW254167   5.349  10.049   8.831 -0.0203  1.5758 -1.3177
16859SOL     OW54168   6.689   3.566   1.484  0.0349 -0.3078  0.2095
16859SOL    HW154169   6.742   3.491   1.458  0.3145  0.7488 -2.5229
16859SOL    HW254170   6.606   3.554   1.438  0.1787  1.1906 -0.4911
16860SOL     OW54171  10.120   4.713   5.624 -0.9592 -0.3005 -0.1316
16860SOL    HW154172  10.081   4.770   5.558  0.4856 -0.2096 -0.9555
16860SOL    HW254173  10.109   4.761   5.706 -1.0478  0.5024 -0.5977
16861SOL     OW54174   4.545   4.890   2.614  0.2509  0.0476  0.3590
16861SOL    HW154175   4.610   4.836   2.658  1.1928 -0.4575 -1.5404
16861SOL    HW254176   4.461   4.852   2.638  0.9032 -2.8421 -1.4854
16862SOL     OW54177   0.928   7.442   9.167 -0.1705  0.0488  0.6361
16862SOL    HW154178   0.929   7.408   9.077  0.8150  1.1533  0.1987
16862SOL    HW254179   0.983   7.381   9.216  1.1729  0.6507 -0.0336
16863SOL     OW54180   5.199   2.506   0.787  0.5000 -0.3271  0.4727
16863SOL    HW154181   5.121   2.560   0.798 -0.2581 -1.3579  0.2815
16863SOL    HW254182   5.265   2.566   0.752  0.1550  0.8331  1.6949
16864SOL     OW54183   0.851   8.411   4.833  0.0259  0.5700  0.1338
16864SOL    HW154184   0.797   8.372   4.901  1.2973 -1.5451  0.0022
16864SOL    HW254185   0.793   8.419   4.757  0.0177 -2.6245 -0.3372
16865SOL     OW54186   7.649   6.475  10.664 -0.0488 -0.1977  0.4785
16865SOL    HW154187   7.587   6.512  10.601 -0.2991 -1.6724 -0.1774
16865SOL    HW254188   7.710   6.547  10.681 -1.6604  1.1604  0.8313
16866SOL     OW54189   8.772   5.392   4.657 -0.1033 -0.0643  0.1633
16866SOL    HW154190   8.858   5.429   4.636  0.8334 -2.4897 -0.6958
16866SOL    HW254191   8.750   5.428   4.743  0.8322  2.1108 -0.4331
16867SOL     OW54192  10.922   1.903   8.372  0.2255  0.1158 -0.0016
16867SOL    HW154193  10.843   1.899   8.318 -0.5671  0.3838  1.0953
16867SOL    HW254194  10.933   1.997   8.389 -0.7335 -0.0687  1.9428
16868SOL     OW54195   4.696   2.261   7.221  0.1150  0.4476 -0.3336
16868SOL    HW154196   4.659   2.200   7.285 -0.4121  0.2310 -0.8436
16868SOL    HW254197   4.785   2.230   7.207 -0.6635 -1.2898 -1.9031
16869SOL     OW54198  10.753   2.668   8.463 -0.3816 -0.6187 -0.0387
16869SOL    HW154199  10.705   2.667   8.380  1.1301  1.1661 -0.9945
16869SOL    HW254200  10.725   2.749   8.506  1.8616  0.5930 -0.7279
16870SOL     OW54201   8.127   8.039   4.253 -0.7581  0.3294 -0.0273
16870SOL    HW154202   8.212   8.004   4.281 -1.6978 -1.3498  0.8557
16870SOL    HW254203   8.121   8.015   4.160 -1.2149 -1.6667  0.4601
16871SOL     OW54204   6.489   0.575   6.765 -0.3063  0.3884 -0.2667
16871SOL    HW154205   6.460   0.629   6.691 -1.4406  0.4445  0.2085
16871SOL    HW254206   6.417   0.514   6.781  1.1706 -1.7590 -1.1982
16872SOL     OW54207   4.367   9.775   5.933 -0.2322 -0.3997  0.5154
16872SOL    HW154208   4.380   9.814   6.019  0.6281  0.2782  0.0896
16872SOL    HW254209   4.300   9.831   5.892  0.9131  0.5956 -0.0495
16873SOL     OW54210  10.144   4.309   7.480 -1.5407 -0.2238  0.4524
16873SOL    HW154211  10.235   4.333   7.461 -0.6537 -2.1880  1.7947
16873SOL    HW254212  10.107   4.285   7.396 -0.6370  0.0718 -0.0418
16874SOL     OW54213   7.608   1.051   1.906  0.6004 -0.3673 -0.0163
16874SOL    HW154214   7.544   1.013   1.846  0.9633  0.6976 -1.1232
16874SOL    HW254215   7.601   0.999   1.985 -1.1312 -0.7105 -0.3678
16875SOL     OW54216   9.784   0.179  10.604  0.2747 -0.0451  0.4383
16875SOL    HW154217   9.699   0.178  10.649  0.5360 -3.4974  1.1244
16875SOL    HW254218   9.848   0.165  10.673  1.1719 -0.1124 -0.3892
16876SOL     OW54219   6.040   6.091   1.887 -0.2378  0.3432  0.2526
16876SOL    HW154220   6.129   6.111   1.916  1.2517 -1.1403 -2.7694
16876SOL    HW254221   6.044   6.101   1.791 -3.0693 -0.7544 -0.0626
16877SOL     OW54222   8.623   9.267   2.551  0.2963 -0.1333 -0.2167
16877SOL    HW154223   8.709   9.265   2.594 -0.8535  0.4847  2.2707
16877SOL    HW254224   8.563   9.227   2.614 -1.6136  1.3422 -0.9795
16878SOL     OW54225   9.127   3.256   5.595 -0.1418 -0.1738 -0.2191
16878SOL    HW154226   9.136   3.352   5.596  0.1554 -0.2087  0.4154
16878SOL    HW254227   9.164   3.227   5.678  1.4183 -0.9902 -1.1455
16879SOL     OW54228   3.551   6.484   3.273 -0.2868  0.3105  0.0948
16879SOL    HW154229   3.582   6.481   3.364 -2.0634 -0.2199  0.7236
16879SOL    HW254230   3.596   6.411   3.230 -0.3954 -0.2233  0.8704
16880SOL     OW54231   7.787   2.744   5.829  0.1975  0.1274  0.0380
16880SOL    HW154232   7.796   2.725   5.736  1.2088  1.0759 -0.0719
16880SOL    HW254233   7.773   2.658   5.869  1.7984 -0.5506 -0.7581
16881SOL     OW54234   4.504   0.835  10.945  0.2589  0.1993 -0.5097
16881SOL    HW154235   4.440   0.906  10.953 -0.9885 -0.9767  0.7596
16881SOL    HW254236   4.567   0.851  11.015  0.5321  0.5569 -0.8315
16882SOL     OW54237   9.475   7.702   0.112 -0.3994 -0.2404 -0.0485
16882SOL    HW154238   9.522   7.709   0.196  2.5891 -0.2474 -1.5913
16882SOL    HW254239   9.501   7.780   0.064 -2.7226  0.1792 -0.7625
16883SOL     OW54240   6.935   5.177   5.832  0.0291 -0.5073 -0.6068
16883SOL    HW154241   6.952   5.265   5.866 -0.7012  0.1048 -1.7557
16883SOL    HW254242   6.896   5.129   5.905  1.6932 -0.3295  0.4563
16884SOL     OW54243   8.035   3.432  10.342 -0.1767  0.0948 -0.6692
16884SOL    HW154244   7.954   3.479  10.322 -0.2686  0.6902  0.9351
16884SOL    HW254245   8.058   3.462  10.430  1.0508 -1.1015 -0.5621
16885SOL     OW54246   6.203   3.934   8.659  0.0768  0.6572 -0.4881
16885SOL    HW154247   6.197   4.004   8.724 -0.8010 -0.0376  0.2130
16885SOL    HW254248   6.175   3.975   8.577  3.0517  2.0574 -0.9081
16886SOL     OW54249   1.146   5.121  10.166  0.2926 -0.2331  0.0075
16886SOL    HW154250   1.232   5.164  10.169  0.0363  0.3134 -0.2032
16886SOL    HW254251   1.151   5.053  10.233  0.8701 -0.1719  0.0397
16887SOL     OW54252   4.807   1.998   4.926 -0.3048 -0.1594  0.6055
16887SOL    HW154253   4.898   2.021   4.942 -0.3554  0.2913  0.2783
16887SOL    HW254254   4.758   2.078   4.948 -0.3477  0.6735 -2.1550
16888SOL     OW54255   4.893   7.041   8.247  0.1667 -0.4755  0.0029
16888SOL    HW154256   4.847   6.960   8.222 -0.2112 -0.0263 -0.8011
16888SOL    HW254257   4.985   7.022   8.231  0.5338 -1.9103  3.0260
16889SOL     OW54258   0.816  10.822  10.672  0.2230 -0.9321 -0.0768
16889SOL    HW154259   0.845  10.776  10.750 -1.3003  0.3894  1.3558
16889SOL    HW254260   0.868  10.903  10.671 -0.0001 -0.7886 -0.2239
16890SOL     OW54261   4.540   0.643   0.359  0.4801  0.0818 -0.4499
16890SOL    HW154262   4.548   0.659   0.454 -1.4894 -0.6660 -0.1087
16890SOL    HW254263   4.616   0.590   0.337  0.2913 -0.8671  1.0216
16891SOL     OW54264   2.614   8.904   9.376  0.0867 -0.1664  0.2516
16891SOL    HW154265   2.627   8.888   9.469  0.2611  0.6577  0.3692
16891SOL    HW254266   2.702   8.902   9.338  0.3218  2.1975  0.5464
16892SOL     OW54267   0.067   9.648  10.193  0.4298  0.5522  0.3503
16892SOL    HW154268   0.022   9.733  10.187 -2.9028 -1.1491 -2.5096
16892SOL    HW254269   0.131   9.651  10.122 -1.3458 -0.0162 -1.3852
16893SOL     OW54270   8.927   2.668  10.501  0.3813  0.0338  0.1078
16893SOL    HW154271   8.851   2.693  10.553 -0.8102  1.1105 -2.0200
16893SOL    HW254272   8.897   2.673  10.410  2.4328 -1.5083 -0.7340
16894SOL     OW54273   9.770  10.823   2.847  0.2203  0.1531 -0.6040
16894SOL    HW154274   9.702  10.784   2.792 -0.2031 -1.0258  0.7010
16894SOL    HW254275   9.734  10.906   2.875 -0.5561 -0.3093 -0.2028
16895SOL     OW54276   4.356   9.232   9.464  0.5264  0.3692 -0.5336
16895SOL    HW154277   4.295   9.160   9.445  0.8874 -0.0690 -0.0848
16895SOL    HW254278   4.381   9.218   9.555 -0.7320  2.0843  0.1100
16896SOL     OW54279   7.668   8.601   0.359  0.0755  0.2877  0.4706
16896SOL    HW154280   7.686   8.692   0.383 -1.7118  0.6632  0.5275
16896SOL    HW254281   7.601   8.573   0.422 -1.2599 -0.2347 -1.1349
16897SOL     OW54282   2.756   0.857   4.639  0.1931 -0.4445  0.2669
16897SOL    HW154283   2.759   0.800   4.562  0.0988  0.8784 -0.7516
16897SOL    HW254284   2.705   0.808   4.703 -0.6392 -1.1480 -0.8930
16898SOL     OW54285   0.733   0.655   3.199  0.2837 -0.6156 -0.1594
16898SOL    HW154286   0.795   0.601   3.248 -0.7691 -0.3657  1.5673
16898SOL    HW254287   0.742   0.627   3.108 -0.4223 -3.9393  0.6564
16899SOL     OW54288   9.165   3.466  10.195  0.0226  0.2178 -0.5765
16899SOL    HW154289   9.250   3.489  10.157  0.2500  0.4869  0.0841
16899SOL    HW254290   9.171   3.493  10.287 -0.1961 -1.2298 -0.1150
16900SOL     OW54291   3.312   1.697   5.265 -0.4254 -0.2749 -0.4142
16900SOL    HW154292   3.275   1.634   5.203  1.6758 -1.7276 -0.2939
16900SOL    HW254293   3.277   1.781   5.237 -1.3020 -1.1648 -2.1894
16901SOL     OW54294   4.531   5.907   4.107 -0.2645  0.0522  0.2063
16901SOL    HW154295   4.507   5.938   4.195  0.0338 -0.5144  0.4909
16901SOL    HW254296   4.592   5.974   4.075  0.6344 -0.3888  0.9542
16902SOL     OW54297   0.149   2.038   7.777 -0.0647  0.2048 -0.0140
16902SOL    HW154298   0.196   2.010   7.698 -2.8439  0.1118 -1.7959
16902SOL    HW254299   0.199   2.113   7.809  0.3474  1.2793 -2.8499
16903SOL     OW54300   1.629  11.003   0.326  0.0187  0.0356 -0.0468
16903SOL    HW154301   1.716  11.038   0.346  0.6123 -0.0900 -2.1647
16903SOL    HW254302   1.569  11.071   0.357  1.0091  1.3045 -0.7785
16904SOL     OW54303   8.927   6.191   7.711 -0.9943  0.3628  0.0510
16904SOL    HW154304   8.880   6.173   7.630 -1.6641  0.6431  0.3659
16904SOL    HW254305   8.916   6.285   7.725 -0.5730  0.3813  0.2758
16905SOL     OW54306   5.783   7.310   8.160 -0.4528 -0.3008  0.2450
16905SOL    HW154307   5.848   7.342   8.222  0.7778  0.0939 -1.1851
16905SOL    HW254308   5.701   7.308   8.210  0.2225  1.2587  1.4981
16906SOL     OW54309   1.084   5.556   2.900 -0.2108  0.1624 -0.2976
16906SOL    HW154310   1.097   5.530   2.991 -0.8439  0.7663 -0.0292
16906SOL    HW254311   1.060   5.475   2.855 -1.3877  0.1187  0.3710
16907SOL     OW54312   9.672  10.878   3.774 -0.7947 -0.0225 -0.3570
16907SOL    HW154313   9.597  10.833   3.814  0.3365 -1.3220  0.3834
16907SOL    HW254314   9.712  10.926   3.846 -0.8299  0.5736 -0.7280
16908SOL     OW54315   0.044   7.508  10.562  0.2244 -0.2646 -0.3830
16908SOL    HW154316   0.031   7.468  10.648 -1.5811  1.0130 -0.0162
16908SOL    HW254317   0.115   7.571  10.576 -1.0115  0.9735  0.5835
16909SOL     OW54318   2.495   2.686   8.353 -0.0896  0.1502  0.1462
16909SOL    HW154319   2.579   2.656   8.388  0.9177 -0.5580 -2.6514
16909SOL    HW254320   2.430   2.636   8.402  1.3103 -2.3540 -0.3880
16910SOL     OW54321   8.513   2.818   0.710 -0.1403  0.3939  0.6049
16910SOL    HW154322   8.431   2.852   0.674 -0.3576 -0.4760  0.2571
16910SOL    HW254323   8.563   2.897   0.733 -1.2057  0.9415  1.1452
16911SOL     OW54324   7.954   6.358   7.644  0.2785 -0.0222 -0.3179
16911SOL    HW154325   7.905   6.419   7.699 -0.5251 -0.1016 -0.9262
16911SOL    HW254326   7.913   6.273   7.659 -0.7856  0.1587 -1.9536
16912SOL     OW54327   1.655   2.588   3.973  0.4626  0.5718  0.5145
16912SOL    HW154328   1.615   2.613   4.057  1.4805  0.9339  0.9042
16912SOL    HW254329   1.747   2.609   3.983  0.5172  1.1178 -0.9029
16913SOL     OW54330  11.051   1.793   2.403  0.1337 -0.0461 -0.6752
16913SOL    HW154331  11.061   1.813   2.310 -2.8752 -0.8796 -1.2700
16913SOL    HW254332  11.079   1.702   2.411  1.8517  0.4567 -0.3825
16914SOL     OW54333   1.387   6.872   5.921 -0.0075  0.4300 -1.2300
16914SOL    HW154334   1.384   6.963   5.890 -0.4881  0.5440 -0.8551
16914SOL    HW254335   1.469   6.838   5.885  0.5834  1.2563 -0.7036
16915SOL     OW54336  10.415   7.601   3.531  0.5315 -0.0332  0.1630
16915SOL    HW154337  10.364   7.671   3.572  1.4588  0.9659 -0.3397
16915SOL    HW254338  10.359   7.569   3.460  0.4452  0.7819 -0.1389
16916SOL     OW54339  10.330   5.090   2.486  0.0213 -0.6268  0.1106
16916SOL    HW154340  10.398   5.029   2.456 -0.9999 -0.9105 -1.7669
16916SOL    HW254341  10.287   5.120   2.406  0.1183  2.1983  0.9998
16917SOL     OW54342   7.091   7.711   9.958  0.8895  0.5397  0.3626
16917SOL    HW154343   7.170   7.759   9.980 -0.1977  2.6866 -0.1622
16917SOL    HW254344   7.072   7.736   9.868  0.1243 -0.7251  0.1386
16918SOL     OW54345   0.491   4.571   6.685  0.1577  0.7018 -0.2871
16918SOL    HW154346   0.515   4.615   6.767 -0.3988  0.6212 -0.0745
16918SOL    HW254347   0.451   4.640   6.632  1.0022  0.8778 -0.7131
16919SOL     OW54348   1.199   6.961   1.666  0.3266 -0.6466  0.7033
16919SOL    HW154349   1.248   6.942   1.586  0.9791 -0.4282  1.0410
16919SOL    HW254350   1.145   7.037   1.643  1.6017  0.3497  0.8870
16920SOL     OW54351   3.460   4.344   0.382  0.1623  0.8046 -0.0621
16920SOL    HW154352   3.497   4.268   0.337  1.3268  1.7433 -0.7354
16920SOL    HW254353   3.476   4.327   0.475 -1.1360 -0.5557 -0.0489
16921SOL     OW54354   2.793   7.797   2.607  0.2817 -0.9397  0.0095
16921SOL    HW154355   2.879   7.765   2.634 -0.0467 -0.4534  1.7583
16921SOL    HW254356   2.801   7.893   2.611  0.0965 -0.8474 -1.3499
16922SOL     OW54357   9.549   0.047   7.894 -0.4394  0.2586  0.5312
16922SOL    HW154358   9.501  -0.032   7.868  1.5767 -0.3959 -1.5854
16922SOL    HW254359   9.491   0.119   7.869 -1.3741 -0.5285  0.3843
16923SOL     OW54360  10.790   5.085   5.392  0.3594 -0.0221 -0.0459
16923SOL    HW154361  10.866   5.143   5.387 -1.3334  2.3869  0.5402
16923SOL    HW254362  10.759   5.094   5.482 -0.6099 -0.9978 -0.2575
16924SOL     OW54363   9.118   2.892  10.892  0.2320 -0.3310 -0.2874
16924SOL    HW154364   9.091   2.814  10.939 -0.4495 -0.7793 -1.3909
16924SOL    HW254365   9.197   2.866  10.845  1.8683  0.5605  1.7587
16925SOL     OW54366  10.377   0.796   4.043 -0.2349  0.0442 -0.3379
16925SOL    HW154367  10.292   0.764   4.075  0.3804  0.7926  2.3064
16925SOL    HW254368  10.357   0.883   4.008 -0.6628 -0.0338 -0.2975
16926SOL     OW54369   9.867   9.997   0.250  0.1374  0.3520 -0.6499
16926SOL    HW154370   9.915  10.080   0.252 -1.5381  1.3661 -0.7857
16926SOL    HW254371   9.779  10.020   0.222 -0.9766 -1.1725  1.3047
16927SOL     OW54372   8.635   5.881   9.259  0.6886 -0.0057  0.2530
16927SOL    HW154373   8.642   5.869   9.165 -2.0657  0.5256 -0.1149
16927SOL    HW254374   8.652   5.795   9.296 -0.0392 -0.6744 -0.9018
16928SOL     OW54375   5.746   1.358   1.507 -0.8178  0.5823  0.1174
16928SOL    HW154376   5.783   1.283   1.554 -0.1095  0.2027 -1.0010
16928SOL    HW254377   5.802   1.431   1.528 -1.3622  0.7542  1.0126
16929SOL     OW54378   1.525   7.811   4.571  0.1121  0.2160 -0.4754
16929SOL    HW154379   1.538   7.851   4.485  1.2070  1.1765  0.1142
16929SOL    HW254380   1.569   7.870   4.632 -2.3940  0.6951  1.0315
16930SOL     OW54381  10.396  10.275   2.322 -0.0922 -0.1385 -0.2520
16930SOL    HW154382  10.404  10.369   2.312  1.0582 -0.1218  0.6638
16930SOL    HW254383  10.464  10.238   2.266  2.5049 -0.2164  2.6768
16931SOL     OW54384   8.423   3.011   7.076  0.0238 -0.0101 -0.3848
16931SOL    HW154385   8.336   3.018   7.115 -0.3603  1.2871 -1.4101
16931SOL    HW254386   8.472   2.956   7.137 -1.3321 -0.2597  0.5194
16932SOL     OW54387   1.560   0.641   6.664 -0.4338  0.0318  0.4019
16932SOL    HW154388   1.582   0.593   6.584 -0.8194  1.7655 -0.7909
16932SOL    HW254389   1.644   0.650   6.709 -0.0434 -0.1269 -0.2780
16933SOL     OW54390  10.769   0.007   5.869  0.2417  0.1263 -0.2846
16933SOL    HW154391  10.809   0.051   5.795  1.3043 -2.8126 -1.6087
16933SOL    HW254392  10.806  -0.082   5.868 -2.8132 -1.3464  1.2559
16934SOL     OW54393   0.854   2.729  10.097  0.5610 -0.0286  0.0438
16934SOL    HW154394   0.808   2.713  10.014 -2.2443  4.8981  0.2611
16934SOL    HW254395   0.947   2.721  10.076 -0.1173 -1.5585 -2.8174
16935SOL     OW54396   0.394   1.591   5.548  0.5777 -0.0786  0.4557
16935SOL    HW154397   0.430   1.516   5.596  0.6829 -0.7843 -0.6882
16935SOL    HW254398   0.465   1.620   5.491 -0.5487 -1.4688 -1.7997
16936SOL     OW54399   5.041   8.243   3.758 -0.2042 -0.0118  1.0177
16936SOL    HW154400   5.030   8.264   3.851 -1.6617 -2.2387  1.4167
16936SOL    HW254401   5.132   8.215   3.751 -0.2249 -0.3253  1.8880
16937SOL     OW54402   6.466   1.991   0.786  0.0399  0.0702 -0.2855
16937SOL    HW154403   6.522   1.919   0.812 -0.2999 -1.1193 -2.6094
16937SOL    HW254404   6.523   2.068   0.789  0.5768 -0.3454  1.5977
16938SOL     OW54405  10.351   9.751  10.628  0.3945 -0.0779 -0.1639
16938SOL    HW154406  10.277   9.719  10.680  0.4209 -2.0430 -1.2151
16938SOL    HW254407  10.427   9.739  10.685  0.1218  0.2590  0.2778
16939SOL     OW54408   0.010   6.370   9.134  0.0799  0.4387 -0.2445
16939SOL    HW154409  -0.023   6.293   9.087  0.4898 -0.9294  1.5792
16939SOL    HW254410   0.053   6.334   9.212  1.1255  2.4819  0.2035
16940SOL     OW54411   0.244   3.440   0.944  0.1456 -0.3802 -0.5033
16940SOL    HW154412   0.239   3.477   0.856  1.7352 -0.9730 -0.8863
16940SOL    HW254413   0.231   3.514   1.003 -0.6436  0.0764 -1.2414
16941SOL     OW54414   6.373   7.628   9.628 -0.2384 -0.0797  0.6454
16941SOL    HW154415   6.374   7.678   9.546 -0.8004 -1.3112 -0.1507
16941SOL    HW254416   6.464   7.621   9.654 -0.1967  2.2748  1.4001
16942SOL     OW54417   6.933   6.918   1.081  0.3941 -0.1091 -0.1548
16942SOL    HW154418   6.920   6.828   1.111  0.4481  0.6815  2.4466
16942SOL    HW254419   6.852   6.941   1.036  0.6845 -1.6622 -1.5885
16943SOL     OW54420   2.207  10.387  10.981 -0.5422  0.6813  0.2941
16943SOL    HW154421   2.274  10.372  10.914 -1.0097 -0.4863  0.0588
16943SOL    HW254422   2.155  10.460  10.947 -0.5978  0.2901 -0.4813
16944SOL     OW54423   9.988   7.949   8.086 -0.1684  0.0235 -0.2565
16944SOL    HW154424   9.949   8.025   8.129 -0.7464 -0.7732  0.6533
16944SOL    HW254425   9.918   7.883   8.087  0.8143 -1.0275  0.3296
16945SOL     OW54426   3.596   9.899   9.857  0.4789  0.0386  0.1010
16945SOL    HW154427   3.514   9.942   9.834  1.2294  1.5807  0.1814
16945SOL    HW254428   3.585   9.876   9.950  0.4624  1.0700  0.3687
16946SOL     OW54429   3.332   7.776   8.417 -0.2947  0.0421 -0.0407
16946SOL    HW154430   3.350   7.853   8.470 -0.6427  0.1128 -0.0234
16946SOL    HW254431   3.355   7.803   8.328 -1.4311  0.5246 -0.2007
16947SOL     OW54432   7.481   8.322   7.288 -0.1528  0.1499 -0.0135
16947SOL    HW154433   7.574   8.336   7.305  0.4098 -2.6205 -0.3311
16947SOL    HW254434   7.472   8.329   7.193 -0.2716  0.3643  0.0120
16948SOL     OW54435   1.558   6.185   0.593 -0.0210  0.0591  0.0890
16948SOL    HW154436   1.592   6.240   0.523 -1.5932  0.3190 -0.5046
16948SOL    HW254437   1.635   6.141   0.628  0.9015  0.5134 -1.2892
16949SOL     OW54438   2.724   8.588   1.726  0.2075 -0.3868 -0.6520
16949SOL    HW154439   2.708   8.682   1.731 -0.2521 -0.4650 -0.5713
16949SOL    HW254440   2.818   8.580   1.713  0.3777  0.0581  0.2397
16950SOL     OW54441   7.541   6.663   6.333  0.3330 -0.4153 -0.2390
16950SOL    HW154442   7.466   6.715   6.360  1.9517  0.6500  2.6053
16950SOL    HW254443   7.509   6.573   6.329 -1.9245  0.3749 -2.8552
16951SOL     OW54444   6.478   6.522   1.525 -0.2843 -0.2852  0.1507
16951SOL    HW154445   6.486   6.575   1.447  2.0709 -0.2261  0.3575
16951SOL    HW254446   6.515   6.437   1.500 -2.5834 -1.3850  0.2683
16952SOL     OW54447   7.963   3.340   4.812  0.3557 -0.4029  0.2848
16952SOL    HW154448   8.045   3.307   4.776 -0.1291  1.5165 -2.9260
16952SOL    HW254449   7.982   3.432   4.834 -1.0653  0.3218 -1.2968
16953SOL     OW54450   8.997   6.318   5.871 -0.2014 -0.2732  0.4040
16953SOL    HW154451   8.929   6.250   5.868  0.2180 -0.6770 -0.0559
16953SOL    HW254452   9.060   6.286   5.935  0.4000 -0.7054 -0.3982
16954SOL     OW54453   0.499   6.206   1.750  0.0592 -0.7095 -0.0393
16954SOL    HW154454   0.578   6.253   1.778  0.9506 -1.7835 -0.6619
16954SOL    HW254455   0.476   6.246   1.666 -0.4165  0.0008  0.4217
16955SOL     OW54456   8.654  10.344   2.442  0.0508 -0.2710  0.5946
16955SOL    HW154457   8.740  10.319   2.410  1.8590  1.8764  3.2505
16955SOL    HW254458   8.626  10.415   2.384 -0.1477 -1.2545 -0.5292
16956SOL     OW54459   8.840   8.286   6.577  0.2455 -0.0879  0.3702
16956SOL    HW154460   8.778   8.320   6.513  1.7171 -0.6269 -1.4244
16956SOL    HW254461   8.785   8.248   6.645 -1.4287 -1.2588 -1.5259
16957SOL     OW54462   0.278   9.863   3.266 -0.1496  0.2062  0.4931
16957SOL    HW154463   0.223   9.801   3.218  0.2244 -0.3361  0.7537
16957SOL    HW254464   0.234   9.873   3.351 -0.3482  0.4970  0.3557
16958SOL     OW54465   0.381   0.592   9.052  0.6284  0.0258  0.8592
16958SOL    HW154466   0.286   0.589   9.063 -0.1611 -1.0011 -3.8954
16958SOL    HW254467   0.408   0.501   9.042  1.3725  0.4176 -1.4858
16959SOL     OW54468   5.799   1.121  10.845 -0.4432  0.7121  0.2895
16959SOL    HW154469   5.719   1.092  10.887 -1.5632  1.2389 -1.3880
16959SOL    HW254470   5.774   1.138  10.754  1.0169  3.1792  0.2650
16960SOL     OW54471   1.211   6.651   1.958 -0.1597 -0.6198  0.2278
16960SOL    HW154472   1.281   6.693   2.008 -0.5211 -0.4831  0.6210
16960SOL    HW254473   1.148   6.721   1.940 -1.1933 -1.1370  1.6351
16961SOL     OW54474   4.852   1.451   2.380  0.3416  0.5973 -0.5932
16961SOL    HW154475   4.820   1.505   2.452  0.7148  0.6506 -0.4650
16961SOL    HW254476   4.795   1.374   2.381 -0.0688  0.8960 -0.6533
16962SOL     OW54477   9.140   0.974   0.934 -0.2229  0.1252  0.4903
16962SOL    HW154478   9.219   0.992   0.883 -0.6788  1.4048  0.1961
16962SOL    HW254479   9.080   1.045   0.912 -2.4182 -2.0552 -1.1932
16963SOL     OW54480   0.117   0.056  10.951 -0.1700 -0.8488 -0.1972
16963SOL    HW154481   0.186   0.100  11.001  0.3621 -1.8736 -0.0022
16963SOL    HW254482   0.112   0.105  10.869 -0.0044 -0.0749  0.2418
16964SOL     OW54483   7.603   9.726   5.412 -0.3255 -0.2309  0.3211
16964SOL    HW154484   7.520   9.774   5.402  0.4892  0.9734 -0.9821
16964SOL    HW254485   7.612   9.713   5.507 -1.9588 -0.3289  0.4889
16965SOL     OW54486   4.023   9.378   5.784 -0.4470  0.2772  0.0317
16965SOL    HW154487   4.026   9.473   5.778 -1.0078  0.3405  0.6101
16965SOL    HW254488   4.080   9.357   5.858  0.2091  0.1100 -0.5166
16966SOL     OW54489   0.340   7.584  11.012 -0.9680 -0.6105 -0.6244
16966SOL    HW154490   0.379   7.499  10.995 -0.8245  0.0056 -3.9963
16966SOL    HW254491   0.255   7.581  10.968 -1.9294  0.2913  1.0656
16967SOL     OW54492   2.458   5.099   9.749 -0.1853  0.0049  0.4178
16967SOL    HW154493   2.439   5.149   9.828  0.3633 -1.2359  1.3619
16967SOL    HW254494   2.553   5.110   9.736 -0.5710  1.9207 -1.3099
16968SOL     OW54495   2.920  10.690   7.154  0.7847  0.1118 -0.7368
16968SOL    HW154496   2.869  10.685   7.072 -1.3732  0.1243  0.5277
16968SOL    HW254497   2.909  10.604   7.193 -1.1809  1.1165  1.1472
16969SOL     OW54498   3.099   6.768   9.053  0.0324 -0.2091  0.0874
16969SOL    HW154499   3.151   6.687   9.053  0.9145  0.3364 -0.5358
16969SOL    HW254500   3.091   6.790   8.960 -3.0972 -1.3686 -0.0239
16970SOL     OW54501   7.848   7.727  11.094 -0.5329 -0.1327 -0.3010
16970SOL    HW154502   7.871   7.820  11.094  0.6581 -0.4127  0.1136
16970SOL    HW254503   7.932   7.681  11.096 -1.1021 -1.2246 -0.5440
16971SOL     OW54504   4.735   9.704   4.612  0.0838 -0.2494  0.1482
16971SOL    HW154505   4.662   9.690   4.672 -0.4719 -1.5264 -0.7687
16971SOL    HW254506   4.698   9.684   4.525  1.6203 -1.3743 -0.2825
16972SOL     OW54507   0.635   4.627   4.650 -0.2133  0.6016  0.4255
16972SOL    HW154508   0.592   4.712   4.641 -1.0809  0.3792  1.9651
16972SOL    HW254509   0.594   4.588   4.728  1.5701 -0.3833  0.9186
16973SOL     OW54510   8.401   9.352   0.745 -0.4681 -0.0582 -0.0010
16973SOL    HW154511   8.379   9.445   0.739  0.4656  0.1773  0.1276
16973SOL    HW254512   8.481   9.349   0.798  0.2978 -0.8122 -1.1489
16974SOL     OW54513   1.348   5.163  10.417 -0.1199 -0.2070  0.1155
16974SOL    HW154514   1.404   5.213  10.476  1.6469 -1.4558 -0.4109
16974SOL    HW254515   1.399   5.155  10.336 -0.5297 -2.3417 -0.0049
16975SOL     OW54516   6.744   8.622   4.291  0.5175 -0.2090 -0.0861
16975SOL    HW154517   6.790   8.555   4.342  1.4154  0.5153  0.0824
16975SOL    HW254518   6.814   8.677   4.255 -0.1412 -0.2614 -1.4895
16976SOL     OW54519  10.962   6.871   6.884  0.1713  0.0053 -0.2922
16976SOL    HW154520  10.946   6.859   6.978 -1.9202  1.1015 -0.4630
16976SOL    HW254521  10.967   6.781   6.850 -0.0162 -0.4108  0.7288
16977SOL     OW54522   4.003   9.734   8.584  0.0005  0.5099 -0.2476
16977SOL    HW154523   4.080   9.771   8.628 -0.0438 -0.8857  1.0601
16977SOL    HW254524   4.021   9.748   8.491  3.0368 -1.8802 -0.1661
16978SOL     OW54525   5.011   9.865   4.366  0.9720  0.2797  0.0771
16978SOL    HW154526   5.093   9.849   4.413  0.7785 -2.4675 -0.3588
16978SOL    HW254527   4.964   9.782   4.372 -0.9164  1.1781 -1.3932
16979SOL     OW54528   5.047   1.527   1.531  0.3120 -0.2649 -0.5132
16979SOL    HW154529   4.963   1.535   1.485  0.2740 -0.3453 -0.4561
16979SOL    HW254530   5.024   1.497   1.619  0.2358  1.4672  0.1028
16980SOL     OW54531   2.954   7.299   8.113 -0.2644 -0.5144 -0.1674
16980SOL    HW154532   2.994   7.384   8.094 -1.9341  0.6492  1.1916
16980SOL    HW254533   3.008   7.262   8.183  0.4766 -0.5921 -0.7739
16981SOL     OW54534   4.442   0.253   8.534  0.1273 -0.1980  0.1420
16981SOL    HW154535   4.479   0.167   8.552 -1.3375 -0.9092 -0.0759
16981SOL    HW254536   4.347   0.241   8.542 -0.1054  1.4247  0.2219
16982SOL     OW54537   6.765   3.923   8.170  0.2751  0.2909  0.6169
16982SOL    HW154538   6.761   3.882   8.257 -0.5327 -0.8066  0.0810
16982SOL    HW254539   6.681   3.901   8.129  1.2788 -0.6169 -1.0635
16983SOL     OW54540   5.692   8.948   6.703 -0.2604  0.2298 -0.3092
16983SOL    HW154541   5.698   8.959   6.797 -0.7570  0.6050 -0.3181
16983SOL    HW254542   5.749   8.873   6.684 -1.1216 -0.6492  0.4396
16984SOL     OW54543   1.547   1.755   9.742 -0.7425  0.0426  0.5238
16984SOL    HW154544   1.500   1.812   9.802 -0.1621  2.5387 -1.2513
16984SOL    HW254545   1.495   1.757   9.661  0.7914  0.4350 -0.4953
16985SOL     OW54546   0.700   1.066   8.595 -0.6255  0.6086  0.1874
16985SOL    HW154547   0.661   0.980   8.609  0.1707  0.3804  1.1111
16985SOL    HW254548   0.707   1.104   8.683  1.3213  0.5795  0.0748
16986SOL     OW54549   8.233   9.393   5.998  0.0386  0.2367  0.3903
16986SOL    HW154550   8.233   9.324   6.065  0.1439 -0.6504 -0.4945
16986SOL    HW254551   8.306   9.450   6.022  2.5895 -2.1828 -0.9894
16987SOL     OW54552   2.542   9.222   8.413 -0.0785  0.2824  0.1030
16987SOL    HW154553   2.604   9.175   8.468 -0.8304 -0.3159  0.4523
16987SOL    HW254554   2.596   9.263   8.346  0.8409  0.8732  1.1702
16988SOL     OW54555   1.495   1.027   0.404  0.5358 -0.5639 -0.2395
16988SOL    HW154556   1.451   1.111   0.393 -1.2268 -1.4835 -0.7600
16988SOL    HW254557   1.428   0.962   0.381  1.8640 -2.1090  0.0338
16989SOL     OW54558   3.601   7.165   6.409  0.1153  0.4331 -0.6248
16989SOL    HW154559   3.618   7.154   6.316  0.6916 -0.2067 -0.4485
16989SOL    HW254560   3.682   7.204   6.444  1.1546 -2.1753  0.1297
16990SOL     OW54561   0.856   6.252   7.042  0.4250 -0.3674 -0.0103
16990SOL    HW154562   0.882   6.249   6.949 -1.3256 -1.5542 -0.5036
16990SOL    HW254563   0.761   6.254   7.040  0.3477 -0.8126  1.7899
16991SOL     OW54564   6.145  10.054   2.053  0.2209  0.0123 -0.6269
16991SOL    HW154565   6.194  10.122   2.098 -0.5510  0.4349 -0.4005
16991SOL    HW254566   6.141  10.083   1.962 -0.6292  0.6013 -0.4185
16992SOL     OW54567   8.982   1.436  10.850 -0.0831 -0.3457 -0.9440
16992SOL    HW154568   8.990   1.529  10.875 -0.0428 -0.5559 -0.1421
16992SOL    HW254569   8.893   1.413  10.874  0.4042 -0.9382  0.3595
16993SOL     OW54570   6.520   9.063   4.997  0.3814 -0.9785  0.5787
16993SOL    HW154571   6.498   8.977   5.033  1.5732 -1.5189  0.0785
16993SOL    HW254572   6.515   9.051   4.902  1.2202 -0.7037  0.4869
16994SOL     OW54573   0.918   1.574   9.621 -0.0320  0.6636  0.1945
16994SOL    HW154574   0.845   1.566   9.560 -1.2173 -1.0128  1.7290
16994SOL    HW254575   0.992   1.534   9.575 -0.4420  1.0091 -0.7950
16995SOL     OW54576   2.188   0.277   3.097 -0.3083 -0.3414 -0.1461
16995SOL    HW154577   2.135   0.264   3.019 -1.6023 -2.7867  1.0177
16995SOL    HW254578   2.263   0.218   3.085  0.4306  0.6079 -0.3032
16996SOL     OW54579   9.613   0.128   8.857  0.1662  0.1889  0.5022
16996SOL    HW154580   9.675   0.171   8.798 -1.1185  1.4640  0.0087
16996SOL    HW254581   9.613   0.037   8.829  1.0156  0.3873 -0.1859
16997SOL     OW54582  10.795   3.901   7.371  0.1240 -0.3189  0.1988
16997SOL    HW154583  10.785   3.807   7.386 -0.4813 -0.2212  0.4336
16997SOL    HW254584  10.710   3.929   7.337 -0.9423  0.7567  3.4052
16998SOL     OW54585   3.963   1.265   3.139  0.0653 -0.0418  0.1151
16998SOL    HW154586   4.006   1.181   3.154 -1.2840 -0.9939 -0.9981
16998SOL    HW254587   3.973   1.281   3.045  1.7737  1.9376  0.5645
16999SOL     OW54588   1.299   2.571   0.797  0.2370  0.5338  0.3843
16999SOL    HW154589   1.225   2.616   0.754 -0.1322 -0.3971  0.0315
16999SOL    HW254590   1.374   2.628   0.780  0.4460 -0.4842 -2.8707
17000SOL     OW54591   7.893   9.685   3.726  0.0957 -0.3810 -0.3071
17000SOL    HW154592   7.899   9.698   3.820 -0.7661 -0.2512 -0.2604
17000SOL    HW254593   7.952   9.612   3.708  2.2167  1.1622 -0.0457
17001SOL     OW54594   4.606   6.803  11.007 -0.4238 -0.0113 -0.2570
17001SOL    HW154595   4.516   6.780  11.031 -1.4196  0.7241 -2.9742
17001SOL    HW254596   4.644   6.723  10.973 -0.5501  0.0254 -0.4844
17002SOL     OW54597   3.487   5.470   5.232  0.8850 -0.0775 -0.1875
17002SOL    HW154598   3.490   5.466   5.136  2.2559 -0.2128 -0.1634
17002SOL    HW254599   3.514   5.560   5.253  1.2729 -0.2506  0.0768
17003SOL     OW54600   8.857   1.711   0.451  0.5515 -0.2526  0.2795
17003SOL    HW154601   8.916   1.761   0.508 -0.6502  0.4475  0.9707
17003SOL    HW254602   8.914   1.649   0.406  1.8881  0.7647  0.4906
17004SOL     OW54603   6.918   4.177   7.117 -0.3646 -0.4739 -0.7124
17004SOL    HW154604   7.006   4.205   7.144 -0.4787 -1.5024  0.8416
17004SOL    HW254605   6.859   4.225   7.176 -0.9471  1.0105 -2.4263
17005SOL     OW54606   2.374   5.192   7.909 -0.0598  0.2023  0.9453
17005SOL    HW154607   2.403   5.104   7.887  1.4756  1.2717 -1.7519
17005SOL    HW254608   2.445   5.229   7.961  1.3699  1.2150 -1.5939
17006SOL     OW54609   5.788   2.627   8.204  0.2437  0.0498  0.4311
17006SOL    HW154610   5.803   2.571   8.280  2.1293 -1.9872 -1.3170
17006SOL    HW254611   5.693   2.633   8.197 -0.0124 -2.0693  1.2987
17007SOL     OW54612   4.531   5.143   8.451 -0.1576  0.5906 -0.0522
17007SOL    HW154613   4.578   5.192   8.384 -0.1486  0.9601  0.2212
17007SOL    HW254614   4.460   5.202   8.478 -0.8675 -0.0165 -0.5698
17008SOL     OW54615   4.379   8.213   0.361 -0.2408 -0.2263 -0.4090
17008SOL    HW154616   4.362   8.140   0.301  0.0862  1.5454 -2.8186
17008SOL    HW254617   4.293   8.252   0.377 -0.3699 -0.8881  0.5906
17009SOL     OW54618   4.916   8.577   8.560 -0.3906 -0.1482  0.2647
17009SOL    HW154619   4.879   8.584   8.648  0.5585  1.2356  0.6029
17009SOL    HW254620   4.991   8.518   8.570 -0.4795 -0.2488  0.3270
17010SOL     OW54621   7.096  10.200   2.961 -0.1658  0.6704 -0.3110
17010SOL    HW154622   7.067  10.136   2.896  3.6392 -0.7510 -0.8699
17010SOL    HW254623   7.126  10.275   2.909  2.5345 -0.3184 -0.3456
17011SOL     OW54624   7.767   9.824   7.125  0.6375  0.8371  0.2096
17011SOL    HW154625   7.761   9.734   7.094  0.9721  0.7697  0.3362
17011SOL    HW254626   7.739   9.877   7.051  0.0725  0.6125  0.2567
17012SOL     OW54627   9.831   1.530   7.818 -0.1885  0.3868  0.1194
17012SOL    HW154628   9.874   1.607   7.781  3.1479 -1.8389 -1.1390
17012SOL    HW254629   9.807   1.477   7.742 -2.1887 -0.0140  0.9661
17013SOL     OW54630   0.552   0.083   8.193  0.0026  0.2191  0.0192
17013SOL    HW154631   0.468   0.117   8.163 -1.0551 -0.8103  1.6519
17013SOL    HW254632   0.571   0.010   8.135 -0.2806  0.3708 -0.2677
17014SOL     OW54633   1.082  10.932   8.683 -0.6566 -0.2984  0.0018
17014SOL    HW154634   1.169  10.893   8.692 -0.5890 -0.7068 -2.0123
17014SOL    HW254635   1.021  10.861   8.703 -0.5190 -1.0473 -2.0307
17015SOL     OW54636   2.780   8.321   4.426  0.2985 -0.1743  0.1120
17015SOL    HW154637   2.831   8.348   4.503  1.4476 -0.5207 -0.5000
17015SOL    HW254638   2.790   8.393   4.364 -0.6335  0.1080  0.2843
17016SOL     OW54639   9.164   1.763   9.745  0.3106 -0.3188  0.1347
17016SOL    HW154640   9.210   1.680   9.748 -0.0145 -0.4796  1.1223
17016SOL    HW254641   9.101   1.754   9.674  1.7818 -0.0881 -1.2541
17017SOL     OW54642   2.506   9.449   8.602 -0.0651  0.2762  0.1353
17017SOL    HW154643   2.586   9.429   8.554  0.0479  0.8344  0.0845
17017SOL    HW254644   2.447   9.486   8.537  0.7972  2.9589  0.7416
17018SOL     OW54645   5.486   0.638   4.497 -0.3661 -0.3628 -0.3403
17018SOL    HW154646   5.482   0.559   4.550  2.9403  0.4295  1.4245
17018SOL    HW254647   5.421   0.696   4.535 -1.8916 -1.7093 -0.8020
17019SOL     OW54648   1.499   0.461   1.154 -0.3896 -0.6298 -0.2438
17019SOL    HW154649   1.566   0.393   1.163  0.1204 -0.4590 -2.3022
17019SOL    HW254650   1.536   0.537   1.198 -0.7559 -1.4910  1.6523
17020SOL     OW54651   8.105   7.617   4.906 -0.3592  0.0355 -0.0487
17020SOL    HW154652   8.033   7.591   4.849 -0.7099 -3.1096  1.5906
17020SOL    HW254653   8.181   7.569   4.873  0.0238  0.1768  0.5916
17021SOL     OW54654   6.511   3.890   0.248 -0.2640  0.3932  0.3075
17021SOL    HW154655   6.535   3.800   0.272  0.2879  0.9618  2.0788
17021SOL    HW254656   6.419   3.885   0.224 -0.0210 -0.7789 -0.4917
17022SOL     OW54657  10.332   3.417   9.563  0.5637 -0.1523  0.2865
17022SOL    HW154658  10.285   3.390   9.483  0.0234  0.5026  0.3780
17022SOL    HW254659  10.353   3.334   9.607  1.2798 -0.5549 -0.7556
17023SOL     OW54660   2.599   3.213   1.077 -0.3380 -0.1465 -0.0568
17023SOL    HW154661   2.667   3.281   1.077  1.5680 -1.9084 -1.7711
17023SOL    HW254662   2.522   3.256   1.040  0.8014  1.1166 -1.0840
17024SOL     OW54663   8.037   1.385   8.025 -0.1837  0.7273 -0.6934
17024SOL    HW154664   7.963   1.412   7.971  0.6306  2.2609 -1.1019
17024SOL    HW254665   8.071   1.467   8.061  0.6748 -0.0563  0.3432
17025SOL     OW54666   1.162   1.070  10.045 -0.4955  0.5773 -0.0389
17025SOL    HW154667   1.109   1.142  10.010 -0.4371  0.3571 -0.5824
17025SOL    HW254668   1.203   1.107  10.123  1.6247  1.9983 -1.7152
17026SOL     OW54669   4.147   6.759   4.357 -0.2664  0.6950 -0.4757
17026SOL    HW154670   4.167   6.811   4.280  0.3076  1.3145  0.0753
17026SOL    HW254671   4.195   6.802   4.428 -1.7892  0.9080  0.4845
17027SOL     OW54672   8.997   2.614   4.518  0.1116  0.0913  0.3468
17027SOL    HW154673   9.074   2.659   4.553  0.3532 -0.3353  0.3706
17027SOL    HW254674   9.031   2.535   4.477  0.1146  1.6038 -2.8798
17028SOL     OW54675  10.934   5.699   7.442  0.1515 -0.6653 -0.2548
17028SOL    HW154676  10.858   5.696   7.501 -0.7607 -0.6770 -1.4017
17028SOL    HW254677  10.941   5.610   7.408 -0.2255 -0.3252 -1.2557
17029SOL     OW54678   8.034   7.684   9.030 -0.2225  0.0672 -0.4262
17029SOL    HW154679   8.001   7.643   9.109  0.5467  0.2645  0.0107
17029SOL    HW254680   8.097   7.749   9.061 -1.4404  1.6266 -1.0870
17030SOL     OW54681   7.102   8.043   8.849  0.2409  0.4619 -1.0299
17030SOL    HW154682   7.088   8.129   8.809 -0.0778  0.1128 -1.6944
17030SOL    HW254683   7.016   8.000   8.845  0.0766  0.6060  0.5295
17031SOL     OW54684   9.442   7.818   3.117  0.3071 -0.4801 -0.1129
17031SOL    HW154685   9.490   7.855   3.043 -0.8399 -3.2740 -2.4115
17031SOL    HW254686   9.410   7.895   3.165  1.0251  1.4712 -2.5286
17032SOL     OW54687   6.980   8.071   2.509  0.7854 -0.5211  0.2109
17032SOL    HW154688   6.885   8.075   2.512  0.6762 -2.6284  1.7562
17032SOL    HW254689   7.008   8.161   2.494 -1.4346  0.0630 -0.7326
17033SOL     OW54690   6.915  10.350   0.433 -0.0278  0.1763 -0.3510
17033SOL    HW154691   6.846  10.289   0.459  0.5705 -0.1048  0.6017
17033SOL    HW254692   6.879  10.436   0.452 -0.9522  0.1668 -1.8723
17034SOL     OW54693  10.459   2.506   8.529 -0.1795 -0.1121 -0.5707
17034SOL    HW154694  10.441   2.414   8.547 -0.0891  0.1071  0.6910
17034SOL    HW254695  10.417   2.554   8.601 -2.2073  1.0211 -2.3674
17035SOL     OW54696   7.584   5.176   1.431  0.5567 -0.0848  0.1789
17035SOL    HW154697   7.503   5.153   1.478 -0.4904 -0.1499 -1.5595
17035SOL    HW254698   7.569   5.144   1.342  2.6054 -0.2752 -0.1340
17036SOL     OW54699   1.276   0.910   1.327 -0.0090 -0.0415 -0.0934
17036SOL    HW154700   1.276   1.002   1.353  0.2994  0.1474 -0.7467
17036SOL    HW254701   1.338   0.905   1.254 -0.3203 -0.6939 -0.3231
17037SOL     OW54702   6.165   2.419   2.575 -0.6070  0.3502  0.1668
17037SOL    HW154703   6.151   2.422   2.670 -0.5032  1.0543  0.1629
17037SOL    HW254704   6.113   2.492   2.541 -0.7567  0.0143 -0.3356
17038SOL     OW54705   2.146   2.549   0.170  0.0927 -0.1095 -0.0504
17038SOL    HW154706   2.074   2.601   0.135 -0.2240  0.9887  2.0646
17038SOL    HW254707   2.219   2.610   0.174  0.8143 -0.8804 -0.9995
17039SOL     OW54708   0.840   9.625   9.050  0.6696 -0.7882 -0.2402
17039SOL    HW154709   0.833   9.656   9.140 -0.5126  0.1109 -0.6099
17039SOL    HW254710   0.820   9.702   8.997 -1.7135 -1.9759 -1.2183
17040SOL     OW54711   5.843   7.012   7.488  0.0997  0.2044  0.3295
17040SOL    HW154712   5.907   6.941   7.488 -0.8235 -0.7492 -2.2140
17040SOL    HW254713   5.884   7.081   7.436  0.2941  0.8718  1.3446
17041SOL     OW54714   4.874   8.346   1.328  0.3070  0.3906 -0.0528
17041SOL    HW154715   4.931   8.273   1.302 -0.6791 -0.7191  0.8118
17041SOL    HW254716   4.931   8.423   1.322  1.1732 -0.3029 -1.7340
17042SOL     OW54717   0.887   9.101   1.768 -0.2270 -0.3151  0.2442
17042SOL    HW154718   0.959   9.111   1.707 -0.0064 -0.4830  0.4726
17042SOL    HW254719   0.904   9.167   1.836  0.7318 -1.5665  1.2712
17043SOL     OW54720  10.724   6.514   4.058  0.4007  0.4314 -0.2659
17043SOL    HW154721  10.743   6.426   4.028  0.2566  0.6092 -0.9070
17043SOL    HW254722  10.654   6.544   4.000 -1.1349  0.1632  1.3628
17044SOL     OW54723   7.719   4.398  10.135  0.6981 -0.1081  0.1967
17044SOL    HW154724   7.687   4.454  10.064  0.6057 -0.1970  0.1676
17044SOL    HW254725   7.797   4.442  10.167  2.4119 -1.4661 -1.8109
17045SOL     OW54726   2.668   4.405   5.969 -0.0879 -0.6077  0.1757
17045SOL    HW154727   2.625   4.350   5.903 -0.6147  0.7328 -0.6380
17045SOL    HW254728   2.684   4.488   5.925 -0.0920  0.2004  1.6189
17046SOL     OW54729   2.783   5.497   5.296  0.3971 -0.5450  0.1255
17046SOL    HW154730   2.829   5.561   5.243 -0.2106 -1.8654 -2.1720
17046SOL    HW254731   2.749   5.546   5.370  1.8411  1.2930 -0.3669
17047SOL     OW54732   3.646   0.937   0.888 -0.4671  0.0499  1.0652
17047SOL    HW154733   3.641   0.846   0.861 -0.6607  0.4776 -0.4775
17047SOL    HW254734   3.614   0.986   0.812 -0.3589  1.3966  1.8544
17048SOL     OW54735   6.241   8.270   6.312 -0.1673 -0.1375 -0.1527
17048SOL    HW154736   6.233   8.180   6.280  2.3882 -0.2871 -0.5660
17048SOL    HW254737   6.215   8.266   6.404  2.5913 -1.9873  0.6729
17049SOL     OW54738   9.718   6.908   4.140  0.1553 -0.4497  0.1490
17049SOL    HW154739   9.663   6.959   4.199  0.0270  1.9101 -1.8273
17049SOL    HW254740   9.716   6.957   4.057  4.7471 -0.4757 -0.2605
17050SOL     OW54741   8.735   1.094   2.217 -0.1226  0.7656 -0.2079
17050SOL    HW154742   8.713   1.027   2.152  1.1985  1.5002 -1.4845
17050SOL    HW254743   8.806   1.055   2.268 -2.4564 -0.6076  2.2358
17051SOL     OW54744   9.014   4.673   9.828  0.1702 -0.1572  0.1592
17051SOL    HW154745   9.010   4.733   9.902 -1.1885 -1.3600  1.1001
17051SOL    HW254746   9.004   4.729   9.751 -0.1597  0.9165  0.9634
17052SOL     OW54747   4.106   4.986   3.671  0.1986 -0.0890  0.2948
17052SOL    HW154748   4.179   4.964   3.728  1.0478 -1.6944 -1.3219
17052SOL    HW254749   4.140   4.976   3.582 -0.9457  2.7010 -0.5849
17053SOL     OW54750   6.292   2.139   6.401 -0.2096 -0.4676 -0.5637
17053SOL    HW154751   6.284   2.045   6.417  1.2130 -0.4490  0.4390
17053SOL    HW254752   6.210   2.176   6.435 -0.2851 -1.2316  0.1117
17054SOL     OW54753   9.766   3.200   7.877 -0.0663 -0.0038  0.0958
17054SOL    HW154754   9.721   3.169   7.955  0.0118 -0.7559 -0.1504
17054SOL    HW254755   9.710   3.271   7.844 -0.0400  0.3912  0.8890
17055SOL     OW54756   7.502   5.764   6.755 -0.8401  0.2177  0.2038
17055SOL    HW154757   7.512   5.754   6.850  1.5132 -0.8255 -0.0829
17055SOL    HW254758   7.563   5.834   6.732 -0.4714 -0.3619 -0.6587
17056SOL     OW54759   3.448   6.568   2.137 -0.2973 -0.0501 -0.1758
17056SOL    HW154760   3.401   6.551   2.056  0.2474  1.0240 -0.7410
17056SOL    HW254761   3.449   6.484   2.183 -1.0232 -0.5528 -1.0551
17057SOL     OW54762   5.283   7.395  11.021  0.0931  0.1085  0.7520
17057SOL    HW154763   5.332   7.476  11.013 -0.9871  0.7014 -0.1197
17057SOL    HW254764   5.214   7.402  10.955 -0.5351 -1.1454  1.2431
17058SOL     OW54765   5.875   2.004   0.456  0.4696 -0.1625 -0.0929
17058SOL    HW154766   5.855   2.070   0.522  2.3766  1.0044 -0.5753
17058SOL    HW254767   5.790   1.968   0.430 -0.5267  1.2871  1.0195
17059SOL     OW54768   3.089   2.886   8.485 -0.1968  0.4159  0.5829
17059SOL    HW154769   3.023   2.954   8.474  1.8723  2.4892  0.3239
17059SOL    HW254770   3.154   2.925   8.543  0.6575 -1.7075  1.1598
17060SOL     OW54771  10.900  10.901   1.190  0.0001 -0.1946 -0.3088
17060SOL    HW154772  10.866  10.863   1.109 -0.9774  0.0361 -0.0211
17060SOL    HW254773  10.824  10.907   1.248  0.5599  0.2248  0.4085
17061SOL     OW54774   4.611   7.341  10.303  0.0667  0.2458  0.9272
17061SOL    HW154775   4.661   7.340  10.221 -2.2564 -0.6078 -0.5839
17061SOL    HW254776   4.582   7.432  10.312 -0.2080  0.2122  0.4346
17062SOL     OW54777   0.380   3.123  10.469 -0.3180  0.2725 -0.6236
17062SOL    HW154778   0.299   3.174  10.468 -1.3433 -1.2958  0.0198
17062SOL    HW254779   0.368   3.059  10.399  0.7419  0.5369 -1.0716
17063SOL     OW54780  10.577   8.162   6.081 -0.4521  0.1457 -0.0461
17063SOL    HW154781  10.488   8.167   6.046 -0.9923  2.5627  1.3820
17063SOL    HW254782  10.597   8.253   6.106  1.8866 -0.5733  0.9338
17064SOL     OW54783  10.092  10.194   5.428  0.6840  0.4277  0.6072
17064SOL    HW154784  10.005  10.174   5.463  0.0828 -1.0998 -1.5631
17064SOL    HW254785  10.078  10.208   5.334  2.8849 -0.6863  0.0482
17065SOL     OW54786   6.532   9.760   7.960 -0.3915  0.2614 -0.2255
17065SOL    HW154787   6.492   9.730   8.042  2.4698  2.5743  2.2628
17065SOL    HW254788   6.463   9.811   7.917 -1.7057 -0.2922  1.1292
17066SOL     OW54789   5.853  10.116   3.259 -0.5064 -0.4793  0.1810
17066SOL    HW154790   5.816  10.098   3.346 -1.7209 -0.6714 -0.3608
17066SOL    HW254791   5.802  10.061   3.200 -0.8817  0.9695 -0.8783
17067SOL     OW54792  11.015   4.041   1.660  0.0257  0.2212  0.2450
17067SOL    HW154793  10.980   4.122   1.623  1.0368  0.8911  0.7089
17067SOL    HW254794  11.078   4.070   1.725  0.6571 -0.9491  0.1757
17068SOL     OW54795   9.352   1.715   6.233 -0.2404 -0.2667  0.1849
17068SOL    HW154796   9.362   1.796   6.283  1.9425  0.3483 -1.1316
17068SOL    HW254797   9.345   1.743   6.142 -0.8316 -1.5231 -0.1866
17069SOL     OW54798   1.625   2.473   9.462 -0.1070  0.0002  0.8477
17069SOL    HW154799   1.620   2.567   9.444  3.5847  0.1627  0.0220
17069SOL    HW254800   1.597   2.431   9.380  0.8943  0.4543  0.2627
17070SOL     OW54801   1.937   1.336  10.435  0.1587  0.5043  0.0775
17070SOL    HW154802   1.906   1.303  10.350 -1.8068 -0.5824  1.1616
17070SOL    HW254803   2.008   1.276  10.458 -1.5828 -1.4253  0.7504
17071SOL     OW54804   3.949   2.915   1.278  0.4463  0.4509  0.6134
17071SOL    HW154805   3.963   2.829   1.238  0.1080  0.3340  0.7401
17071SOL    HW254806   4.028   2.964   1.259  0.2604  0.4206 -0.2543
17072SOL     OW54807  10.118   5.415   5.769 -0.3146  0.1352  0.3364
17072SOL    HW154808  10.024   5.420   5.747 -0.5649  0.9616  1.5160
17072SOL    HW254809  10.120   5.398   5.863  0.7300  0.3273  0.3592
17073SOL     OW54810   0.039   2.313   0.260 -0.4120 -0.1738  0.0148
17073SOL    HW154811  -0.055   2.302   0.244 -0.6040 -2.0049  2.0662
17073SOL    HW254812   0.081   2.245   0.208 -0.2759  0.0375 -0.1562
17074SOL     OW54813  10.413  11.060   9.716  0.2746  0.2846  0.1949
17074SOL    HW154814  10.440  11.011   9.638 -0.4581 -1.7095  1.1257
17074SOL    HW254815  10.471  11.029   9.786  0.6551  1.7427  0.5624
17075SOL     OW54816  10.750   5.661   0.823  0.1964 -0.0943  0.8640
17075SOL    HW154817  10.832   5.639   0.779 -0.1985  1.4155 -0.7356
17075SOL    HW254818  10.682   5.641   0.758 -0.7946 -1.8227  2.3487
17076SOL     OW54819   5.128  10.165   8.055  0.6992 -0.0293 -0.0755
17076SOL    HW154820   5.096  10.156   8.144  1.2652  1.1040  0.2529
17076SOL    HW254821   5.186  10.090   8.043  0.0637 -0.5879  0.2454
17077SOL     OW54822   0.307   3.538   0.485 -0.0805  0.1705 -0.0255
17077SOL    HW154823   0.252   3.516   0.560  1.6192 -1.2106  0.8836
17077SOL    HW254824   0.273   3.484   0.414  0.3611 -1.0683  0.6688
17078SOL     OW54825   8.425   6.233   8.819 -0.5378 -0.1037 -0.2565
17078SOL    HW154826   8.346   6.185   8.845 -1.4803 -0.5397 -3.5206
17078SOL    HW254827   8.396   6.324   8.811  0.1672  0.3436  1.5871
17079SOL     OW54828  10.543   2.703   0.561 -0.5114 -0.9235 -0.4472
17079SOL    HW154829  10.474   2.690   0.496  0.0789  0.6206 -1.4375
17079SOL    HW254830  10.619   2.658   0.525  0.0719  0.6814 -1.3369
17080SOL     OW54831   4.776   2.764   4.132  0.2875 -0.1418  0.3040
17080SOL    HW154832   4.714   2.715   4.185 -0.2472  0.4475  0.2370
17080SOL    HW254833   4.772   2.853   4.167  0.6771  0.0267 -0.0731
17081SOL     OW54834   4.247   8.888   2.111 -0.0667  0.4783  0.2236
17081SOL    HW154835   4.250   8.984   2.113 -2.5392  0.6649 -0.9308
17081SOL    HW254836   4.194   8.868   2.034 -2.7413 -1.6698  2.4152
17082SOL     OW54837  10.275   2.938  10.725  0.2255  0.1171  0.1659
17082SOL    HW154838  10.309   3.027  10.719 -0.0904  0.3530  1.5889
17082SOL    HW254839  10.187   2.943  10.688  1.0747 -0.1588 -2.0414
17083SOL     OW54840  11.043   5.651   6.223  0.3755  0.4476 -0.7106
17083SOL    HW154841  10.993   5.574   6.252  1.5887  0.4820  1.7177
17083SOL    HW254842  10.977   5.717   6.204 -0.6990 -1.0988 -2.7881
17084SOL     OW54843   8.324   0.220   4.734  0.6136 -0.6192  0.3246
17084SOL    HW154844   8.255   0.154   4.727 -0.0002  0.1037 -0.7000
17084SOL    HW254845   8.385   0.200   4.664  1.5614 -1.3467  1.3215
17085SOL     OW54846   6.131   4.841   1.255 -0.4140  0.9826  0.3533
17085SOL    HW154847   6.037   4.856   1.260 -0.5099  0.4014  0.3388
17085SOL    HW254848   6.148   4.773   1.320  0.1586  1.8205  1.1050
17086SOL     OW54849  10.678   1.787   4.076  0.5420  0.3296 -0.0180
17086SOL    HW154850  10.745   1.855   4.084  1.2167 -0.4995  1.8328
17086SOL    HW254851  10.716   1.710   4.118 -0.3986 -1.0807 -1.6340
17087SOL     OW54852   8.095   6.244   8.341 -0.7139  0.0298 -0.4341
17087SOL    HW154853   8.041   6.172   8.374  1.1056 -2.0818 -1.7001
17087SOL    HW254854   8.142   6.276   8.418 -1.8087  0.1201  0.2137
17088SOL     OW54855   4.083   5.497   8.083  0.1830  0.4045  0.0970
17088SOL    HW154856   4.025   5.473   8.155 -0.9014  2.7041  0.0829
17088SOL    HW254857   4.041   5.573   8.042  2.0566  0.7418 -1.3678
17089SOL     OW54858  10.139   7.872   6.619  0.3426  0.5174  0.7851
17089SOL    HW154859  10.145   7.902   6.528  0.6491  0.6966  0.8648
17089SOL    HW254860  10.050   7.894   6.646 -0.0774 -0.4080  0.2187
17090SOL     OW54861   4.623   7.481   2.982  0.4421  0.0025  0.3344
17090SOL    HW154862   4.711   7.489   2.945  0.5015 -0.5891  0.3384
17090SOL    HW254863   4.622   7.546   3.053  1.1876 -0.5803  0.9080
17091SOL     OW54864  10.113   6.863   8.697  0.3678  0.3281 -0.3010
17091SOL    HW154865  10.076   6.774   8.703  2.0352 -0.6537 -2.9241
17091SOL    HW254866  10.126   6.889   8.788 -1.4993 -1.4973  0.5889
17092SOL     OW54867   0.657   7.655   4.739 -0.0313  0.1145  0.2879
17092SOL    HW154868   0.643   7.745   4.768  0.6240  0.1775  0.4298
17092SOL    HW254869   0.745   7.633   4.770  0.9157  0.3466 -2.0033
17093SOL     OW54870   4.092   7.016  10.230 -0.1712 -0.9888  0.0152
17093SOL    HW154871   4.051   7.009  10.145 -0.6292 -1.4915  0.2741
17093SOL    HW254872   4.082   7.108  10.254  1.7093 -0.3642 -1.3229
17094SOL     OW54873   3.520  10.375   1.420  0.7782  0.4246 -0.0170
17094SOL    HW154874   3.536  10.291   1.377 -0.8622  0.8592 -1.6171
17094SOL    HW254875   3.467  10.353   1.496  1.2715 -0.0852  0.1860
17095SOL     OW54876   4.497   1.458   0.961  0.1531  0.1139 -0.1150
17095SOL    HW154877   4.496   1.429   1.052 -0.7722 -1.9479 -0.7371
17095SOL    HW254878   4.432   1.529   0.958 -1.6674 -1.4652  0.3529
17096SOL     OW54879   2.444   9.438   4.206  0.1846 -0.6656  0.2606
17096SOL    HW154880   2.389   9.490   4.264  0.5131 -0.9923  0.8773
17096SOL    HW254881   2.382   9.381   4.159 -0.1863  0.3129 -0.4859
17097SOL     OW54882   8.772  10.194   8.262  0.1028  0.0703  0.4294
17097SOL    HW154883   8.846  10.255   8.270  0.0650  0.2061 -0.1974
17097SOL    HW254884   8.811  10.115   8.223  0.5932 -1.1444  3.1357
17098SOL     OW54885   1.085   6.918   7.271 -0.0225  0.6653  0.5466
17098SOL    HW154886   1.047   6.865   7.341  0.8655  1.5993  1.7727
17098SOL    HW254887   1.118   6.855   7.208 -0.9842 -0.1922  0.8779
17099SOL     OW54888   1.596   0.681   5.892 -1.3997  0.5656 -0.7667
17099SOL    HW154889   1.688   0.706   5.902 -1.1816 -0.4827 -0.0444
17099SOL    HW254890   1.585   0.669   5.798 -0.5780 -0.0807 -0.7940
17100SOL     OW54891   9.405   3.525  10.078 -0.3072  0.0263  0.5596
17100SOL    HW154892   9.496   3.535  10.106 -0.3695 -0.2426  0.8598
17100SOL    HW254893   9.389   3.602  10.023  0.4099 -0.4342 -0.3267
17101SOL     OW54894   4.398   2.595   0.683 -0.4053 -0.3686 -0.1017
17101SOL    HW154895   4.456   2.660   0.643 -0.1922  1.1066  2.3948
17101SOL    HW254896   4.338   2.569   0.613  0.2769  1.6431 -1.5076
17102SOL     OW54897   5.815   1.888   8.600 -0.4400  0.3261 -0.0334
17102SOL    HW154898   5.824   1.844   8.515 -0.8719  2.8031 -1.4437
17102SOL    HW254899   5.898   1.873   8.644 -0.5354 -1.7805 -0.4535
17103SOL     OW54900   6.701   8.490   2.710 -0.1280 -0.7251  0.4814
17103SOL    HW154901   6.748   8.508   2.791 -1.0400 -0.5853  1.0000
17103SOL    HW254902   6.667   8.576   2.683  1.4129 -0.4929 -0.8767
17104SOL     OW54903   6.591  10.027   2.175 -0.0623  0.1572 -0.1823
17104SOL    HW154904   6.566  10.120   2.172  1.9266  0.7030 -0.7610
17104SOL    HW254905   6.555   9.996   2.259 -0.7562  1.4393  0.0267
17105SOL     OW54906   6.875   8.706   8.280 -0.0559 -0.1207 -0.1875
17105SOL    HW154907   6.835   8.673   8.361 -1.4495  1.2787 -0.2398
17105SOL    HW254908   6.956   8.656   8.271  0.0591 -0.4510  1.9789
17106SOL     OW54909   5.005   0.077  10.515 -0.2401 -0.0573 -0.1262
17106SOL    HW154910   4.940   0.143  10.490  1.1034  1.3480 -0.0818
17106SOL    HW254911   5.043   0.047  10.432  1.7552  2.0441 -0.1009
17107SOL     OW54912   8.530   9.068   6.729 -0.0223 -0.0629 -0.3602
17107SOL    HW154913   8.577   9.151   6.721  0.0267 -0.0760 -0.2109
17107SOL    HW254914   8.441   9.088   6.701 -0.2512  0.2619  0.5744
17108SOL     OW54915   5.430   3.595   4.159 -0.5817  0.2474 -0.0330
17108SOL    HW154916   5.499   3.541   4.199 -0.6928  0.1356  0.0091
17108SOL    HW254917   5.441   3.582   4.065 -1.1381 -0.5187 -0.0026
17109SOL     OW54918   5.747   0.724   7.563 -0.3543  0.1049 -0.7301
17109SOL    HW154919   5.734   0.646   7.510  1.2576 -0.1196 -0.8403
17109SOL    HW254920   5.686   0.788   7.527  0.7017 -0.0201 -2.9228
17110SOL     OW54921   9.302   0.560   5.731 -0.2378 -0.0050  0.5492
17110SOL    HW154922   9.283   0.466   5.739  0.4382 -0.0928  1.2302
17110SOL    HW254923   9.221   0.603   5.758 -1.0994 -0.3836 -1.2713
17111SOL     OW54924  10.583   4.896   4.941  0.2028  0.8083  0.1022
17111SOL    HW154925  10.578   4.850   5.025 -0.7702  0.7161  0.0086
17111SOL    HW254926  10.511   4.958   4.944  1.3215  2.1513  0.0975
17112SOL     OW54927   3.225   9.952   5.651 -0.0050 -0.2848  0.3044
17112SOL    HW154928   3.303   9.897   5.664 -0.9008 -1.2271  2.0085
17112SOL    HW254929   3.187   9.920   5.569  1.1976 -0.0191 -0.3880
17113SOL     OW54930   4.653   2.918   3.319 -0.0897 -0.3230 -0.1901
17113SOL    HW154931   4.748   2.919   3.332  0.0612 -0.8797 -1.1649
17113SOL    HW254932   4.617   2.898   3.405  0.5996  1.2467  0.5067
17114SOL     OW54933   7.355   0.485   2.540  0.2430 -0.2652 -0.6453
17114SOL    HW154934   7.430   0.426   2.544  1.1555  0.9193  0.2423
17114SOL    HW254935   7.360   0.536   2.621  0.6377  2.3843 -2.2382
17115SOL     OW54936   4.582   3.441   7.594 -0.2555  0.0930 -0.5526
17115SOL    HW154937   4.544   3.470   7.676  1.0070 -1.9864  0.8663
17115SOL    HW254938   4.507   3.426   7.536 -1.4291 -1.2756  1.2262
17116SOL     OW54939   4.796   9.139   0.096 -0.2225 -0.0978  0.0957
17116SOL    HW154940   4.739   9.183   0.033  0.1703 -0.4344 -0.5046
17116SOL    HW254941   4.862   9.095   0.042 -0.1787 -0.8155  0.7177
17117SOL     OW54942   8.942   0.525   8.026 -0.1570 -0.3611 -0.7658
17117SOL    HW154943   8.936   0.446   7.973 -0.9522 -0.7932 -0.0475
17117SOL    HW254944   8.862   0.527   8.078  0.1909  0.5165 -0.2153
17118SOL     OW54945   8.396   8.084   1.502  0.1219  0.0562 -0.1559
17118SOL    HW154946   8.312   8.121   1.472 -0.0288  0.1689  0.4010
17118SOL    HW254947   8.443   8.065   1.421  0.0131  1.0384 -0.4665
17119SOL     OW54948   5.861   2.497   1.156  0.1035 -0.1016  0.1117
17119SOL    HW154949   5.931   2.541   1.204 -0.0765 -1.0189  1.2746
17119SOL    HW254950   5.853   2.412   1.199 -0.4262 -0.7609 -1.2463
17120SOL     OW54951   8.371   4.621   0.917 -0.2833  0.3083  0.2580
17120SOL    HW154952   8.294   4.677   0.913 -1.5800 -1.1054  2.6492
17120SOL    HW254953   8.339   4.533   0.898  0.9238 -0.1811  0.3409
17121SOL     OW54954   4.904   3.508   1.251  0.0629 -0.0179 -0.0018
17121SOL    HW154955   4.973   3.573   1.252 -0.2067  0.3180 -1.3062
17121SOL    HW254956   4.837   3.544   1.192  0.7257 -2.2554 -2.3329
17122SOL     OW54957   4.027   2.081   6.723 -0.1270 -0.0114 -0.2573
17122SOL    HW154958   4.082   2.074   6.644  0.2028  1.6021 -0.1967
17122SOL    HW254959   3.975   2.160   6.709 -0.5902 -0.1138  0.8303
17123SOL     OW54960   0.753  10.027   0.368 -0.7612 -0.1063 -0.5116
17123SOL    HW154961   0.718  10.034   0.457 -0.6285 -0.6474 -0.4137
17123SOL    HW254962   0.809   9.949   0.371  1.6047  1.4722 -0.2609
17124SOL     OW54963   3.729  10.024   0.276  0.6655  0.7004  0.2001
17124SOL    HW154964   3.780  10.029   0.356  1.1185  2.4170 -0.1525
17124SOL    HW254965   3.775  10.082   0.214 -0.9686  1.2806 -0.5292
17125SOL     OW54966   0.976  10.100   6.573  0.1285  0.0045  0.3437
17125SOL    HW154967   1.062  10.092   6.614  0.3893  1.3288  0.1093
17125SOL    HW254968   0.996  10.121   6.481 -0.3950  2.5212  0.7408
17126SOL     OW54969   8.827   4.434   9.227 -0.1432  0.5012 -0.0366
17126SOL    HW154970   8.766   4.494   9.270 -1.6904 -0.0859 -1.2959
17126SOL    HW254971   8.810   4.447   9.133  1.1807 -0.2014 -0.3965
17127SOL     OW54972   9.823   9.868   3.814 -0.2309  0.1805  0.2346
17127SOL    HW154973   9.890   9.927   3.846 -1.3725  0.4119  2.3756
17127SOL    HW254974   9.862   9.781   3.822  0.9304  0.4743 -1.5904
17128SOL     OW54975   0.821   4.515   1.173 -0.9296 -0.2238  0.2737
17128SOL    HW154976   0.731   4.543   1.156 -1.7616 -2.5830  0.4438
17128SOL    HW254977   0.856   4.582   1.232 -1.9828  1.6253 -1.0943
17129SOL     OW54978   5.948   2.654   5.274 -0.5941 -0.2102 -0.3956
17129SOL    HW154979   6.008   2.692   5.211  0.0292 -1.0116 -0.3031
17129SOL    HW254980   6.000   2.646   5.354 -1.3589  0.7506  0.2147
17130SOL     OW54981   2.617   5.366  10.708 -0.4266 -0.4616  0.2560
17130SOL    HW154982   2.612   5.457  10.739  2.3716 -0.2660  0.3951
17130SOL    HW254983   2.627   5.314  10.788  2.5587 -0.3659  0.0495
17131SOL     OW54984   8.113   4.152   7.037 -0.0847 -0.1049 -0.4746
17131SOL    HW154985   8.106   4.211   6.962  0.1767  0.2354 -0.2368
17131SOL    HW254986   8.121   4.211   7.113 -0.4215 -0.4430 -0.1753
17132SOL     OW54987   6.099   2.317   0.279  0.2775  0.1467  0.0030
17132SOL    HW154988   6.023   2.371   0.298 -1.0870 -0.9079 -2.1103
17132SOL    HW254989   6.173   2.378   0.279 -0.8233  1.5235  0.2193
17133SOL     OW54990  10.761   2.806   5.343 -0.2816 -0.8812  0.1709
17133SOL    HW154991  10.824   2.752   5.294 -0.6083 -0.3472 -0.8708
17133SOL    HW254992  10.782   2.896   5.317 -0.8895 -0.6325  0.5280
17134SOL     OW54993   5.679   4.786   0.055  0.7833  0.1215 -0.0779
17134SOL    HW154994   5.768   4.810   0.081  0.7416 -0.8639  1.0585
17134SOL    HW254995   5.637   4.870   0.033  1.7073  0.6935  0.2901
17135SOL     OW54996   5.846  11.006   3.066  0.2775 -0.3481  0.3752
17135SOL    HW154997   5.798  10.992   2.984  1.0996 -0.3105 -0.1217
17135SOL    HW254998   5.891  11.090   3.053  1.8041 -1.1739  0.1779
17136SOL     OW54999   6.073   0.738   2.180 -0.3315  0.2213  0.2771
17136SOL    HW155000   6.020   0.772   2.252  1.1137  1.5658  0.7435
17136SOL    HW255001   6.021   0.758   2.101 -0.6919  1.1858  0.7466
17137SOL     OW55002  10.857   5.360   3.350  0.3122  0.1507  0.5120
17137SOL    HW155003  10.823   5.425   3.410  0.5723 -0.0513  0.8833
17137SOL    HW255004  10.932   5.322   3.396  1.6495  1.2559 -0.6587
17138SOL     OW55005   7.747   3.944   0.936 -0.3407  0.1245 -0.1792
17138SOL    HW155006   7.834   3.956   0.974  0.7662 -0.2541 -2.4351
17138SOL    HW255007   7.702   4.026   0.954  0.9579  0.8537 -0.1207
17139SOL     OW55008   3.056   9.153   1.069 -0.5602 -0.1490 -0.1120
17139SOL    HW155009   3.119   9.115   1.130  1.1708  3.0171  0.2621
17139SOL    HW255010   2.976   9.164   1.120 -0.4537 -1.2713  0.3294
17140SOL     OW55011   1.672   0.060   1.963 -0.1591  0.0211 -0.3556
17140SOL    HW155012   1.601   0.082   1.902 -1.4418  0.6943  1.3019
17140SOL    HW255013   1.650  -0.027   1.996  1.2081 -0.8932 -1.7313
17141SOL     OW55014   0.494   0.500   3.262 -0.1040  0.3504  0.7290
17141SOL    HW155015   0.490   0.486   3.357  1.3636 -1.1547  0.6264
17141SOL    HW255016   0.573   0.552   3.249  0.0987 -0.0602  0.2876
17142SOL     OW55017   7.078   6.875  10.906  0.2623  0.1852 -0.1879
17142SOL    HW155018   7.090   6.918  10.990 -2.1479  0.1911  0.2237
17142SOL    HW255019   6.994   6.907  10.874  0.4168 -0.9708 -1.8990
17143SOL     OW55020   6.242   2.130   2.052 -0.1143 -0.3254 -0.1786
17143SOL    HW155021   6.185   2.190   2.101  3.6230  2.0053  1.7859
17143SOL    HW255022   6.272   2.181   1.977  1.9463 -0.1428  0.6981
17144SOL     OW55023  10.268   8.949  10.198 -0.0412  0.1238 -0.2430
17144SOL    HW155024  10.294   8.967  10.108 -1.1507 -0.6276 -0.7430
17144SOL    HW255025  10.212   8.871  10.191  2.0057 -1.6044  1.4032
17145SOL     OW55026   2.035   7.553   4.060  0.0649  0.5460 -0.5259
17145SOL    HW155027   2.026   7.476   4.004 -0.7852  0.6583 -0.5608
17145SOL    HW255028   2.112   7.599   4.027  1.4186 -1.0027  0.3597
17146SOL     OW55029   8.766   2.101   3.701 -0.2277 -0.1398 -0.2409
17146SOL    HW155030   8.694   2.146   3.747 -0.2917  0.7589 -1.1733
17146SOL    HW255031   8.760   2.134   3.611  0.3431 -1.3114 -0.7207
17147SOL     OW55032   6.065   1.657   8.944  0.4638  0.3263 -0.4976
17147SOL    HW155033   6.009   1.679   9.018  1.1155 -0.7413  0.3498
17147SOL    HW255034   6.004   1.644   8.871 -0.2260  0.9295 -0.0385
17148SOL     OW55035   5.152   9.794   1.391 -0.0497  0.8819 -0.1658
17148SOL    HW155036   5.064   9.757   1.392 -0.1120  1.0397  0.1933
17148SOL    HW255037   5.149   9.863   1.324  0.0508  0.2834 -0.7901
17149SOL     OW55038   4.067   9.681   1.954 -0.3333  0.0557 -0.3291
17149SOL    HW155039   3.986   9.715   1.991  0.2531  1.6238 -0.3936
17149SOL    HW255040   4.039   9.609   1.898 -1.3028 -2.1504  2.7047
17150SOL     OW55041   9.262   0.777   7.242  0.1236 -0.3448 -0.3468
17150SOL    HW155042   9.275   0.872   7.243  1.1577 -0.3925  2.7445
17150SOL    HW255043   9.184   0.764   7.296  1.4694 -1.3100  1.4706
17151SOL     OW55044   8.888   1.139   1.484 -0.1901 -0.0934 -0.0973
17151SOL    HW155045   8.941   1.090   1.421 -0.2966 -0.4674  0.1026
17151SOL    HW255046   8.863   1.075   1.550  0.6092  0.4732  0.7757
17152SOL     OW55047   3.987   5.411   4.442 -0.1005  0.5610  0.0685
17152SOL    HW155048   3.983   5.375   4.353 -3.7496 -1.0180  0.7019
17152SOL    HW255049   3.973   5.336   4.499 -0.8583  1.9683  1.8162
17153SOL     OW55050   4.862   0.426   5.827  0.4670 -0.2013  0.2958
17153SOL    HW155051   4.914   0.506   5.823 -1.4610  1.1223  0.1653
17153SOL    HW255052   4.835   0.419   5.919 -1.3042  0.6838 -0.1016
17154SOL     OW55053   9.935   2.026   8.494  0.3755  0.0263  1.0468
17154SOL    HW155054   9.951   2.120   8.491 -1.1806  0.3318  1.4118
17154SOL    HW255055   9.900   2.010   8.582  0.9166 -0.9566  1.1054
17155SOL     OW55056   2.423   9.443   9.766 -0.5600 -0.2601  0.2120
17155SOL    HW155057   2.344   9.463   9.815  0.4851 -0.2751  2.0022
17155SOL    HW255058   2.456   9.362   9.807  0.9587  0.3606  0.2869
17156SOL     OW55059   3.642   1.432   7.943  0.5290 -0.3489  0.1980
17156SOL    HW155060   3.665   1.486   7.868  1.8508 -0.5432  0.4330
17156SOL    HW255061   3.722   1.428   7.995 -0.6435  0.7276  2.2308
17157SOL     OW55062   5.623   4.499   7.375 -0.0892  0.1936 -0.0872
17157SOL    HW155063   5.691   4.456   7.322 -1.6805 -1.5264 -0.8269
17157SOL    HW255064   5.672   4.542   7.445  1.7571 -1.4067 -0.2997
17158SOL     OW55065   0.974  11.111  10.257 -0.8094  0.1560  0.2634
17158SOL    HW155066   1.018  11.194  10.276 -1.1397  1.2329 -3.1398
17158SOL    HW255067   0.908  11.103  10.325  0.3898  1.7527  1.7079
17159SOL     OW55068   1.279   9.057   8.244 -0.6205 -0.6260 -0.0826
17159SOL    HW155069   1.191   9.064   8.207 -1.0228 -1.9248  0.5804
17159SOL    HW255070   1.265   9.052   8.339  0.2022 -0.3459  0.0640
17160SOL     OW55071  10.389   0.359   2.281 -0.0997  0.2871 -0.3634
17160SOL    HW155072  10.408   0.273   2.320 -1.2986 -0.1849 -0.7859
17160SOL    HW255073  10.341   0.405   2.350  0.3121  0.5317 -0.2361
17161SOL     OW55074   7.346   3.558   6.727 -0.1610 -0.0502 -0.3369
17161SOL    HW155075   7.413   3.581   6.663  0.5517  0.7375  0.6466
17161SOL    HW255076   7.338   3.636   6.783 -0.2854 -0.9230  0.9161
17162SOL     OW55077   2.406   4.892   2.916 -0.5373  0.5238 -0.0471
17162SOL    HW155078   2.452   4.975   2.899  0.4126 -0.0722 -0.4464
17162SOL    HW255079   2.386   4.895   3.009  1.1905  0.3844  0.3575
17163SOL     OW55080   1.744   3.419  10.119 -0.3181  0.0387  0.3233
17163SOL    HW155081   1.759   3.506  10.081 -0.1394 -1.1987 -2.6986
17163SOL    HW255082   1.668   3.431  10.177 -1.7839  1.7515 -1.7946
17164SOL     OW55083   6.899   2.528   0.488  0.0779  0.4773 -0.3720
17164SOL    HW155084   6.850   2.481   0.555 -1.6832  0.2062 -1.7686
17164SOL    HW255085   6.903   2.467   0.414  0.2696  1.4645 -1.1958
17165SOL     OW55086   8.291   3.135   2.036 -0.0424  0.3513  0.3437
17165SOL    HW155087   8.230   3.206   2.055  0.2113 -0.2282  4.0150
17165SOL    HW255088   8.369   3.180   2.002 -0.6773  1.6030  0.4594
17166SOL     OW55089   8.775   7.887   5.776 -0.6878 -0.1406 -0.4462
17166SOL    HW155090   8.867   7.906   5.759 -0.4402 -0.1807  0.8155
17166SOL    HW255091   8.759   7.805   5.728  0.7972 -1.8632  1.8048
17167SOL     OW55092  10.321   1.067   3.968  0.0860  0.0036  0.1658
17167SOL    HW155093  10.240   1.020   3.952 -0.0042 -0.3391  1.4809
17167SOL    HW255094  10.293   1.151   4.006  0.3371 -0.1770  0.7637
17168SOL     OW55095  10.909   0.343   5.524  0.1684 -0.3179  0.5241
17168SOL    HW155096  10.887   0.254   5.553  1.0734 -0.1410  1.8451
17168SOL    HW255097  11.004   0.342   5.515 -0.0218 -0.3216 -2.5088
17169SOL     OW55098   6.330   7.751   1.682  0.5011 -0.0915  0.3561
17169SOL    HW155099   6.330   7.672   1.736  0.6540 -0.1218  0.3119
17169SOL    HW255100   6.421   7.780   1.681  0.5599 -0.2884 -0.1755
17170SOL     OW55101   0.623   0.553   2.060 -0.0992  0.1490 -0.4679
17170SOL    HW155102   0.659   0.553   1.971  1.7579  0.1732  0.2470
17170SOL    HW255103   0.696   0.578   2.116 -1.3111  0.4405  1.0637
17171SOL     OW55104   3.845   7.255   1.625  0.1553 -0.2994  0.1239
17171SOL    HW155105   3.797   7.181   1.662  1.2693 -1.9778 -1.6093
17171SOL    HW255106   3.930   7.253   1.670 -0.7399  1.7507  2.1089
17172SOL     OW55107   7.177   4.308   5.891 -0.1793  0.6524 -0.1136
17172SOL    HW155108   7.082   4.299   5.882 -0.3169 -0.2691  1.7454
17172SOL    HW255109   7.212   4.269   5.811 -1.3096 -2.0285  0.5911
17173SOL     OW55110   6.564   5.294   1.632 -0.2374 -0.1215 -0.3226
17173SOL    HW155111   6.470   5.311   1.638 -0.1445 -0.0500  1.5479
17173SOL    HW255112   6.589   5.324   1.545 -1.7740  0.7235 -0.4993
17174SOL     OW55113   5.714   0.395   5.179  0.4038  0.0331 -0.1728
17174SOL    HW155114   5.699   0.442   5.097 -1.4137  1.0353  0.6781
17174SOL    HW255115   5.645   0.330   5.184 -1.8766  2.3788  2.1714
17175SOL     OW55116   7.357   9.439   2.678  0.3232  0.1325 -0.2920
17175SOL    HW155117   7.376   9.516   2.730 -1.8449 -0.7588  2.0078
17175SOL    HW255118   7.301   9.471   2.607  1.2089  0.9718 -0.6310
17176SOL     OW55119  11.018   4.242   9.717 -0.3159  0.3249 -0.3464
17176SOL    HW155120  11.099   4.239   9.769 -0.4612  0.1926 -0.1279
17176SOL    HW255121  11.048   4.228   9.627  0.0288  1.3396 -0.4036
17177SOL     OW55122   9.230   1.291   6.466  0.2123  0.3819 -0.0966
17177SOL    HW155123   9.312   1.245   6.449 -0.7778 -1.0680 -1.1540
17177SOL    HW255124   9.255   1.383   6.470  2.0633 -0.1074  0.8531
17178SOL     OW55125   3.762   4.257   9.029 -0.2404  0.0149 -0.3245
17178SOL    HW155126   3.731   4.168   9.047 -0.0332 -0.2759 -1.3049
17178SOL    HW255127   3.853   4.257   9.056 -0.7270  0.5309  1.4883
17179SOL     OW55128   3.510   5.951   0.970 -0.4000  0.6324 -0.3479
17179SOL    HW155129   3.519   5.882   0.905 -1.3520 -0.2791  0.4415
17179SOL    HW255130   3.538   6.031   0.925  2.6549 -0.4968 -0.6921
17180SOL     OW55131   9.418   5.271  10.074  0.2333  0.4202 -0.4344
17180SOL    HW155132   9.327   5.258  10.103  0.4704 -1.3739 -0.3350
17180SOL    HW255133   9.426   5.365  10.061 -1.5501  0.6589 -0.1310
17181SOL     OW55134   3.070   5.817   6.245  0.0019  0.3262  0.7328
17181SOL    HW155135   3.036   5.787   6.160  1.5915  1.2127 -0.2700
17181SOL    HW255136   2.992   5.844   6.294 -1.1135 -1.7872  0.2316
17182SOL     OW55137   1.007   4.251   8.697 -0.6321  0.0568  0.3726
17182SOL    HW155138   1.083   4.205   8.735 -0.3613  0.9111  0.8933
17182SOL    HW255139   0.942   4.182   8.684  0.6453 -0.9413 -1.2506
17183SOL     OW55140   9.181   1.639  10.023  0.2615 -0.1848  0.4181
17183SOL    HW155141   9.198   1.701   9.952  1.7409 -0.7213  0.2689
17183SOL    HW255142   9.261   1.587  10.029 -0.7505 -1.7660  0.8583
17184SOL     OW55143   3.550   9.232   9.799 -0.3199  0.2075  0.1680
17184SOL    HW155144   3.571   9.138   9.802  1.5660  0.4773 -1.9760
17184SOL    HW255145   3.473   9.237   9.742  1.0059  0.0946 -1.7067
17185SOL     OW55146   7.776   4.346   1.223  0.1102  0.1871 -0.3780
17185SOL    HW155147   7.783   4.417   1.159  1.9045  0.4795  0.1007
17185SOL    HW255148   7.806   4.385   1.305  0.8449 -1.0414 -0.0437
17186SOL     OW55149   4.705  10.468   1.063  0.3321  0.9301  0.0910
17186SOL    HW155150   4.621  10.490   1.106 -0.3966  0.8147 -1.2203
17186SOL    HW255151   4.768  10.462   1.135 -1.3920 -2.2137  1.5504
17187SOL     OW55152   1.442   9.258   3.772  0.6133 -0.0591 -0.6396
17187SOL    HW155153   1.523   9.209   3.762  0.1150 -0.7126 -1.8628
17187SOL    HW255154   1.463   9.329   3.833  1.6525 -1.1407  0.3107
17188SOL     OW55155  11.019   3.452   5.513  0.4010 -0.4065  0.2453
17188SOL    HW155156  10.972   3.422   5.436  2.5014  0.1327 -1.3314
17188SOL    HW255157  11.111   3.430   5.496  1.1956  1.4864  1.6900
17189SOL     OW55158  10.188  10.368   4.129  0.3789 -0.0418  0.2707
17189SOL    HW155159  10.251  10.324   4.072  0.0854  0.2624 -0.2973
17189SOL    HW255160  10.142  10.428   4.071  0.8099  1.0641  1.0384
17190SOL     OW55161   0.884  10.199   4.221  0.0942 -0.1094 -0.7264
17190SOL    HW155162   0.838  10.183   4.139  1.7449 -0.6834 -1.5880
17190SOL    HW255163   0.902  10.112   4.256  0.6584  0.0899 -0.5018
17191SOL     OW55164   6.598   7.198   7.542  0.0107  0.1618  0.0009
17191SOL    HW155165   6.513   7.166   7.511  0.0221  0.7114 -0.6063
17191SOL    HW255166   6.600   7.174   7.635 -0.2841 -0.9485 -0.2696
17192SOL     OW55167   5.766   9.757   1.179  0.0736 -0.0407 -0.2331
17192SOL    HW155168   5.776   9.742   1.273  0.1044  1.1091 -0.0412
17192SOL    HW255169   5.671   9.752   1.164 -0.0538  1.1309  0.1136
17193SOL     OW55170   8.766   2.459   3.239 -0.6141  0.9144 -0.2535
17193SOL    HW155171   8.742   2.411   3.160  1.0902 -3.9083  1.7761
17193SOL    HW255172   8.689   2.452   3.296 -0.2201  0.0537  0.2014
17194SOL     OW55173   9.282   1.487   9.734 -0.4005 -0.5053  0.0695
17194SOL    HW155174   9.210   1.426   9.720  0.0143 -1.3694  1.4933
17194SOL    HW255175   9.361   1.433   9.724 -0.0383 -0.3843  1.9633
17195SOL     OW55176   3.385   5.559   0.008  0.0199  0.3257  0.6005
17195SOL    HW155177   3.479   5.560   0.025  0.5368 -0.8289 -1.7195
17195SOL    HW255178   3.362   5.466   0.004 -0.9604  0.5796 -0.0721
17196SOL     OW55179   4.453   8.082   7.864 -0.5548 -0.5323  0.0831
17196SOL    HW155180   4.445   8.159   7.921 -0.8924  0.0947 -0.7976
17196SOL    HW255181   4.374   8.084   7.810 -0.5265 -1.4636  0.0018
17197SOL     OW55182   6.978   7.711   3.010  0.0305  0.1261  0.0667
17197SOL    HW155183   6.968   7.797   2.968 -1.1332  0.3114  0.6709
17197SOL    HW255184   7.068   7.710   3.041  1.0832 -0.1863 -2.7311
17198SOL     OW55185   9.783   8.240  10.280  0.1803  0.2550 -0.0829
17198SOL    HW155186   9.700   8.281  10.254  0.7030  0.3635 -1.6817
17198SOL    HW255187   9.845   8.264  10.211  1.8468  1.0536  1.5994
17199SOL     OW55188   3.842   3.418   5.032 -0.1493 -0.7346  0.4011
17199SOL    HW155189   3.931   3.419   5.066  0.0035  0.3534 -0.0011
17199SOL    HW255190   3.815   3.326   5.038  0.8588 -1.0138  0.8606
17200SOL     OW55191   5.795  10.354   4.751 -0.1609 -0.1856  0.3819
17200SOL    HW155192   5.747  10.345   4.833  1.5516  0.0143  1.4693
17200SOL    HW255193   5.870  10.295   4.761  1.7394  2.0785  0.2755
17201SOL     OW55194   5.087   6.967   2.984 -0.0289 -0.2568  0.4648
17201SOL    HW155195   5.171   7.000   3.017 -0.7305  0.7165  1.3559
17201SOL    HW255196   5.059   6.903   3.049  0.0126 -0.5677  0.1771
17202SOL     OW55197   8.089   8.940   8.354  0.3352 -0.1419 -0.2827
17202SOL    HW155198   8.167   8.952   8.299  0.4290 -1.8658 -0.5734
17202SOL    HW255199   8.096   9.009   8.420  1.3387  0.6413 -1.1731
17203SOL     OW55200   4.423   2.768   1.314  0.0112  0.4167 -0.3542
17203SOL    HW155201   4.458   2.745   1.400 -0.1290  2.4721  0.3140
17203SOL    HW255202   4.394   2.859   1.323 -1.4070  0.2111 -2.1536
17204SOL     OW55203   5.233   4.821   2.826 -0.3872 -0.6361 -0.1286
17204SOL    HW155204   5.211   4.750   2.766  0.4776 -1.3611  0.3865
17204SOL    HW255205   5.150   4.840   2.870 -0.9720 -0.2574 -1.3633
17205SOL     OW55206  10.210   6.877   7.385  0.3401  0.5143  0.4395
17205SOL    HW155207  10.180   6.843   7.470  3.1851 -0.7457  1.0742
17205SOL    HW255208  10.276   6.943   7.407  1.1555  0.1432 -0.7529
17206SOL     OW55209  10.779   3.799   3.458 -0.1888 -0.1580  0.2387
17206SOL    HW155210  10.805   3.842   3.376 -2.1466  0.7040  0.0056
17206SOL    HW255211  10.782   3.706   3.438  1.5261 -0.0732 -0.0841
17207SOL     OW55212   3.029  10.800   9.928 -0.1866 -0.4129 -0.0790
17207SOL    HW155213   3.075  10.879   9.900 -0.0355  0.2462  1.9111
17207SOL    HW255214   2.964  10.785   9.859 -0.3682  1.5810 -0.4046
17208SOL     OW55215   8.133   5.993   4.819  0.2068  0.2595 -0.0139
17208SOL    HW155216   8.119   6.004   4.913  0.1279  0.9620 -0.1005
17208SOL    HW255217   8.213   6.044   4.801 -0.0710  0.5593 -0.4155
17209SOL     OW55218   3.926   6.914   6.121 -0.4611 -0.1307 -0.0403
17209SOL    HW155219   4.016   6.918   6.089  0.2662 -0.3378  1.8396
17209SOL    HW255220   3.933   6.868   6.204 -2.0356  1.4926  1.0611
17210SOL     OW55221   1.329   8.065   9.326  0.0667  0.1558 -0.8466
17210SOL    HW155222   1.290   7.985   9.290  0.3913 -0.0329 -0.7846
17210SOL    HW255223   1.422   8.059   9.303  0.9034 -1.3385  2.3293
17211SOL     OW55224  10.755   4.618   8.650 -0.3239 -0.2785  0.0258
17211SOL    HW155225  10.800   4.699   8.628  1.1757 -1.4333 -1.4469
17211SOL    HW255226  10.687   4.644   8.713 -0.4316  2.2090 -1.0088
17212SOL     OW55227   0.383   9.581   5.664 -0.0904 -0.2354  0.4571
17212SOL    HW155228   0.297   9.571   5.624  0.5042  0.2145 -1.0074
17212SOL    HW255229   0.386   9.514   5.731 -0.8866 -1.5269 -0.7351
17213SOL     OW55230   5.747   3.255   1.749 -0.2991 -0.4555 -0.3435
17213SOL    HW155231   5.667   3.276   1.798  0.8034 -0.9091  1.7567
17213SOL    HW255232   5.740   3.161   1.731 -0.5091 -0.3746 -0.6878
17214SOL     OW55233   7.442   5.817   4.472  0.1922 -0.9098  0.0749
17214SOL    HW155234   7.452   5.727   4.504  1.5196 -1.4306 -1.6317
17214SOL    HW255235   7.522   5.862   4.500 -0.2866 -0.3478  0.5780
17215SOL     OW55236   9.275   1.266   9.964 -0.2623  0.4415 -0.0618
17215SOL    HW155237   9.240   1.201   9.902 -2.3555 -0.2491  1.7040
17215SOL    HW255238   9.210   1.269  10.034  2.7157 -0.0762  2.9807
17216SOL     OW55239   2.004   3.424   3.676  0.3016 -0.0438 -0.0417
17216SOL    HW155240   2.021   3.387   3.589  0.2398  0.7694 -0.4141
17216SOL    HW255241   2.033   3.357   3.737 -1.5607 -1.4956 -0.6663
17217SOL     OW55242   6.509   9.137   7.637  0.1758  0.1148  0.4273
17217SOL    HW155243   6.504   9.163   7.729  1.2915 -0.3783  0.6358
17217SOL    HW255244   6.581   9.188   7.601 -0.9145  1.0875 -0.4632
17218SOL     OW55245   8.196   5.313   9.521 -0.0393  0.7843 -0.0675
17218SOL    HW155246   8.164   5.379   9.460  0.7516  1.1217 -0.1240
17218SOL    HW255247   8.164   5.341   9.606  1.9935  2.4138  0.2351
17219SOL     OW55248   0.948   4.654   2.604  0.0576 -0.1451  0.1266
17219SOL    HW155249   0.872   4.600   2.582 -0.5597  0.2506  1.2018
17219SOL    HW255250   1.023   4.596   2.593 -0.4958 -0.8672  0.0926
17220SOL     OW55251   2.873  10.656   7.505 -0.1497 -0.5996 -0.2554
17220SOL    HW155252   2.905  10.623   7.422  2.1580  0.6587  0.0519
17220SOL    HW255253   2.840  10.744   7.486 -0.8383 -0.8114 -0.0658
17221SOL     OW55254   4.196   9.601   5.035  0.4136  0.0087  0.1716
17221SOL    HW155255   4.119   9.639   5.078  0.6100 -0.6410  1.1364
17221SOL    HW255256   4.238   9.675   4.990  0.5437  0.8639  1.6340
17222SOL     OW55257   6.709   0.351   2.493  0.4120 -0.4399  0.3760
17222SOL    HW155258   6.777   0.362   2.560  0.6198 -0.8090  0.2338
17222SOL    HW255259   6.659   0.432   2.495  1.0527 -0.0345  0.2709
17223SOL     OW55260   2.442   7.861   5.907 -0.6403  0.0834  0.2419
17223SOL    HW155261   2.490   7.938   5.936 -0.3818  0.5696 -1.3647
17223SOL    HW255262   2.350   7.889   5.905 -0.3748  1.0038 -2.0971
17224SOL     OW55263  10.955   0.536   0.440  0.0550  0.3058 -0.2316
17224SOL    HW155264  10.912   0.587   0.371 -2.0966 -0.8273  0.1861
17224SOL    HW255265  11.037   0.507   0.401 -0.2106  1.3379 -1.6173
17225SOL     OW55266   8.932   3.589   0.650 -0.5139 -0.4374 -0.5603
17225SOL    HW155267   8.892   3.675   0.638  0.6002  0.1079 -0.5167
17225SOL    HW255268   8.996   3.602   0.720 -0.1224 -1.2232 -0.7567
17226SOL     OW55269   7.282   5.931   6.814 -0.3226  0.0884  0.0263
17226SOL    HW155270   7.337   5.862   6.778 -1.0340 -0.9153  0.8388
17226SOL    HW255271   7.340   6.008   6.818  0.2471 -0.2049 -1.6368
17227SOL     OW55272   8.731  10.752   9.268  0.3165 -0.4641 -0.4449
17227SOL    HW155273   8.809  10.697   9.257  1.2590  0.8257 -0.4105
17227SOL    HW255274   8.754  10.811   9.339 -0.9956 -0.5521  0.0669
17228SOL     OW55275   5.652   6.649   7.167 -0.2814 -0.2101 -0.5505
17228SOL    HW155276   5.734   6.623   7.125  0.0965 -1.9756  1.1387
17228SOL    HW255277   5.599   6.569   7.168 -1.8265  0.7573 -1.0973
17229SOL     OW55278  10.048   1.822   9.779  0.8065  0.3583 -0.1558
17229SOL    HW155279   9.975   1.882   9.789  0.3969 -0.3788  1.4934
17229SOL    HW255280  10.017   1.755   9.718  0.8871  1.1882 -1.1382
17230SOL     OW55281   0.961   6.988   3.898 -0.0766 -0.2790  0.5527
17230SOL    HW155282   0.906   6.954   3.827 -0.3472 -2.5188  1.7524
17230SOL    HW255283   1.049   6.991   3.862 -0.4871  0.3683 -0.4245
17231SOL     OW55284   1.561   4.501   7.182 -0.0585 -0.0744  0.1671
17231SOL    HW155285   1.632   4.548   7.224 -0.1505 -0.5357  0.8601
17231SOL    HW255286   1.598   4.470   7.099  1.0845 -1.7108  1.2314
17232SOL     OW55287   7.473   3.077   9.825  0.0700 -0.3265 -0.1420
17232SOL    HW155288   7.473   3.163   9.782  0.5262 -0.0675  0.3632
17232SOL    HW255289   7.492   3.096   9.917 -0.6888 -0.8924  0.1416
17233SOL     OW55290   7.907   2.468   8.721 -0.4324 -0.1252  0.1512
17233SOL    HW155291   7.848   2.482   8.795 -0.3263 -0.5629  0.3244
17233SOL    HW255292   7.981   2.422   8.759  0.0664  0.5013 -0.0495
17234SOL     OW55293   8.041   0.322   1.586  0.1375 -0.0265 -0.1374
17234SOL    HW155294   7.976   0.358   1.646 -0.7989 -0.4868 -0.8559
17234SOL    HW255295   8.030   0.371   1.505  3.4884  2.8080  0.8553
17235SOL     OW55296   1.831   6.674   8.794  0.0710 -0.6208  0.3957
17235SOL    HW155297   1.834   6.597   8.738  0.7671  0.4355 -1.0952
17235SOL    HW255298   1.759   6.657   8.856 -1.6181 -1.2761 -1.6454
17236SOL     OW55299   2.734   4.531  11.053  0.0937 -0.3258 -0.0214
17236SOL    HW155300   2.664   4.467  11.039  1.2481 -1.9378  1.2168
17236SOL    HW255301   2.814   4.479  11.055  1.0273  1.0735  1.6264
17237SOL     OW55302   6.518   3.861   8.051 -0.1466  0.4797  0.1033
17237SOL    HW155303   6.494   3.806   7.977  0.4546  1.1598 -0.6192
17237SOL    HW255304   6.463   3.939   8.042  0.0568  0.6444  0.2728
17238SOL     OW55305  10.703   3.563   5.189 -0.3472  0.1564 -0.4830
17238SOL    HW155306  10.712   3.655   5.214 -1.9863  0.5257 -1.1315
17238SOL    HW255307  10.723   3.562   5.095 -0.0031 -0.2118 -0.4071
17239SOL     OW55308   3.640   2.467   0.562  0.6162  0.1817 -0.4990
17239SOL    HW155309   3.707   2.477   0.630  1.3544 -1.4184 -0.9509
17239SOL    HW255310   3.606   2.379   0.574 -1.5394  0.9868 -0.2220
17240SOL     OW55311   9.654   4.659   1.065  0.0625  0.3979  0.3862
17240SOL    HW155312   9.668   4.591   1.132  1.7473 -0.4754 -0.7734
17240SOL    HW255313   9.718   4.726   1.085  1.8471 -0.6980 -1.3155
17241SOL     OW55314   4.488  10.764   1.312 -0.0887 -0.4409 -0.4299
17241SOL    HW155315   4.405  10.717   1.323 -0.0820 -0.6376 -1.1925
17241SOL    HW255316   4.472  10.850   1.350 -1.1051  0.0231 -1.8264
17242SOL     OW55317   2.044   5.927   6.738 -0.4597 -0.0473 -0.6019
17242SOL    HW155318   2.132   5.909   6.771 -0.3597 -0.3802 -1.0449
17242SOL    HW255319   1.998   5.843   6.747 -0.3200 -0.2424 -1.6611
17243SOL     OW55320   7.970   7.264   7.289 -0.0412 -0.0026 -0.1800
17243SOL    HW155321   8.041   7.261   7.353 -0.3929  0.6068  0.2416
17243SOL    HW255322   7.954   7.357   7.274 -1.5156 -0.0986  0.6062
17244SOL     OW55323   5.971   8.940   7.968 -0.6487 -0.5355  0.5289
17244SOL    HW155324   6.064   8.949   7.988 -1.0917  0.4724  2.3783
17244SOL    HW255325   5.962   8.972   7.878  1.0173 -2.3503 -0.3469
17245SOL     OW55326   8.413   6.967   6.098 -0.1145 -0.0061 -0.4720
17245SOL    HW155327   8.405   6.992   6.190 -2.0388 -0.6683 -0.4027
17245SOL    HW255328   8.373   7.039   6.050 -1.7925 -0.9133 -0.5419
17246SOL     OW55329   0.172   9.909   5.015  0.5394 -0.4342  0.4690
17246SOL    HW155330   0.206   9.911   5.105  1.7151 -1.8242  0.0958
17246SOL    HW255331   0.210   9.829   4.977 -0.4748 -0.2257 -1.0565
17247SOL     OW55332   4.896   3.243   6.937 -0.0653 -0.0151  0.6711
17247SOL    HW155333   4.900   3.147   6.932 -3.7705 -0.3446  0.7889
17247SOL    HW255334   4.917   3.273   6.849  0.5270 -0.9845  0.4736
17248SOL     OW55335   0.813   7.262  10.678  0.0131  0.1693 -0.4525
17248SOL    HW155336   0.882   7.216  10.725 -0.5873 -0.5881 -0.2728
17248SOL    HW255337   0.732   7.224  10.713 -0.5056  1.4076 -0.2778
17249SOL     OW55338   8.200   1.762   7.267  0.6589  0.1852 -0.2967
17249SOL    HW155339   8.269   1.783   7.330 -0.3390 -1.4289  1.4699
17249SOL    HW255340   8.238   1.695   7.211  0.7110 -0.3609  0.3755
17250SOL     OW55341   3.761   3.199   9.512 -0.0349  0.2499  0.2762
17250SOL    HW155342   3.781   3.114   9.553  0.3975 -0.1214 -0.6744
17250SOL    HW255343   3.842   3.250   9.522  1.0351 -0.7568 -2.3287
17251SOL     OW55344   0.155   0.899   0.771 -0.1394  0.1064 -0.1457
17251SOL    HW155345   0.125   0.987   0.747  3.5659  1.2351 -1.2285
17251SOL    HW255346   0.217   0.913   0.842 -0.0531 -1.7820  0.2091
17252SOL     OW55347   1.746  10.007   4.004  0.2556  0.8705  0.3725
17252SOL    HW155348   1.710   9.974   3.922  0.4756  0.2061  0.5397
17252SOL    HW255349   1.791   9.932   4.043  2.3839  1.7893 -0.1306
17253SOL     OW55350   3.070   5.102   5.195 -0.0533 -0.7693 -0.6484
17253SOL    HW155351   2.994   5.044   5.190 -0.2678 -0.7260  1.3439
17253SOL    HW255352   3.090   5.107   5.289  2.4725 -0.8664 -1.1219
17254SOL     OW55353  10.631   9.249   2.263  0.0166 -0.2432 -0.4438
17254SOL    HW155354  10.575   9.236   2.340  0.9777 -1.5661  0.0699
17254SOL    HW255355  10.687   9.323   2.287 -0.5285  0.1570 -0.3860
17255SOL     OW55356   8.760   7.416   3.507  0.5817  0.0339 -0.6409
17255SOL    HW155357   8.778   7.387   3.418  4.0821  0.7044 -0.2722
17255SOL    HW255358   8.803   7.351   3.563  0.6409  0.9892  0.4651
17256SOL     OW55359   6.984  10.674   4.877 -0.1005 -0.0282  0.3549
17256SOL    HW155360   7.055  10.678   4.940 -1.3977  1.5321  1.8307
17256SOL    HW255361   6.965  10.580   4.867  1.1888 -0.3729  1.0204
17257SOL     OW55362   9.117   7.397  10.450 -0.5007 -0.2256  0.3613
17257SOL    HW155363   9.125   7.462  10.380 -0.0053 -2.7627 -2.1029
17257SOL    HW255364   9.027   7.365  10.442 -0.0526 -1.4392 -0.0151
17258SOL     OW55365   5.730   5.148   2.997 -0.6679  0.4377 -0.1395
17258SOL    HW155366   5.726   5.131   2.903 -0.5097 -0.6189  0.0322
17258SOL    HW255367   5.682   5.075   3.037  1.5978 -0.6672  0.7388
17259SOL     OW55368  10.149   6.582   4.476  0.0946  0.1409 -0.3765
17259SOL    HW155369  10.062   6.576   4.437  0.0255  0.1647 -0.2276
17259SOL    HW255370  10.166   6.676   4.482 -0.8959  0.2487  1.8354
17260SOL     OW55371  11.091   3.319  10.032  0.3431 -0.2791  0.5032
17260SOL    HW155372  11.183   3.294  10.039  0.4032  0.0502  0.9101
17260SOL    HW255373  11.043   3.244  10.067  0.4460 -0.4862  0.2121
17261SOL     OW55374   7.285   9.485   3.600 -0.7919 -0.1248 -0.5020
17261SOL    HW155375   7.314   9.530   3.679  0.9595 -1.2296 -0.4719
17261SOL    HW255376   7.291   9.392   3.621  3.5024 -0.7013 -3.0263
17262SOL     OW55377   0.400   7.425   9.283 -0.0938  0.4348  0.1571
17262SOL    HW155378   0.343   7.477   9.339  0.0711 -0.0028  0.7455
17262SOL    HW255379   0.343   7.354   9.251 -0.1417  0.5800 -0.0759
17263SOL     OW55380   0.412  10.641   7.137 -0.4675 -0.6632  0.0538
17263SOL    HW155381   0.405  10.571   7.202 -2.1333 -1.0988 -0.5276
17263SOL    HW255382   0.348  10.707   7.167 -1.4810 -1.0090 -1.2574
17264SOL     OW55383   7.001   5.796   4.410 -0.5489 -0.2937 -0.6838
17264SOL    HW155384   6.977   5.706   4.431  2.2358 -0.5622  2.1023
17264SOL    HW255385   6.921   5.846   4.423 -0.9599 -1.6753  3.3472
17265SOL     OW55386   5.807   9.021   5.762 -0.0172  0.2941 -0.0531
17265SOL    HW155387   5.895   9.033   5.796  0.0362 -0.1513 -0.0311
17265SOL    HW255388   5.817   8.960   5.690 -0.7298 -2.6079  2.1187
17266SOL     OW55389   0.586  10.134   2.720 -0.1347 -0.3382 -0.2250
17266SOL    HW155390   0.633  10.149   2.802  2.4618 -0.7030 -1.5296
17266SOL    HW255391   0.500  10.173   2.734  0.1792 -0.4274  2.6600
17267SOL     OW55392   8.844   1.003   7.687  0.4152 -0.2440 -0.0110
17267SOL    HW155393   8.852   1.067   7.616  0.4635 -0.1370  0.0902
17267SOL    HW255394   8.754   1.012   7.717  0.2037 -0.7399 -0.4827
17268SOL     OW55395  10.405  10.266   0.111  0.5643 -0.1329 -0.2550
17268SOL    HW155396  10.483  10.257   0.056  1.5677 -0.5238  1.1648
17268SOL    HW255397  10.348  10.194   0.084  1.0029 -0.2686 -0.8271
17269SOL     OW55398   4.489  10.531   2.113  0.3013 -0.6076 -0.2592
17269SOL    HW155399   4.481  10.485   2.196 -2.7804  0.2252  0.0185
17269SOL    HW255400   4.453  10.617   2.130 -0.2349 -0.3581 -2.4143
17270SOL     OW55401   9.345   0.892   0.033 -0.2125  0.7568  0.4337
17270SOL    HW155402   9.398   0.820   0.067  0.4732  1.4759  0.9315
17270SOL    HW255403   9.266   0.892   0.088 -0.6288 -0.1507 -0.1390
17271SOL     OW55404   8.856  10.550   8.002  0.2443 -0.7783  0.7396
17271SOL    HW155405   8.814  10.546   8.088 -0.7987  0.2533  0.3096
17271SOL    HW255406   8.796  10.603   7.949  2.6234  1.8002  0.3958
17272SOL     OW55407   6.330   0.268   5.019  0.0622  0.0563  0.5138
17272SOL    HW155408   6.335   0.173   5.032  0.4906  0.0543  0.3601
17272SOL    HW255409   6.272   0.299   5.089 -3.4033 -0.7719 -1.7275
17273SOL     OW55410   3.082   5.549   8.753  0.3283 -0.4199 -0.2424
17273SOL    HW155411   3.105   5.489   8.681 -0.8635  0.1955 -1.1739
17273SOL    HW255412   3.060   5.631   8.710  0.9446  0.4043  0.9537
17274SOL     OW55413   5.592   0.838   2.443  0.5449 -0.5871  0.2127
17274SOL    HW155414   5.508   0.798   2.463  1.3479 -2.9063 -0.7789
17274SOL    HW255415   5.637   0.844   2.527 -1.1395  2.2684  1.0670
17275SOL     OW55416   5.201   1.204   2.324 -0.1226 -0.0470 -0.1272
17275SOL    HW155417   5.252   1.243   2.253 -1.8066  1.1476 -0.7396
17275SOL    HW255418   5.114   1.190   2.287 -2.2482  4.1099  2.5368
17276SOL     OW55419   4.808   3.588  10.353  0.0270 -0.0347  0.3965
17276SOL    HW155420   4.728   3.613  10.399 -1.1248  1.1892 -2.0701
17276SOL    HW255421   4.778   3.531  10.282  1.2971  0.5107 -0.6292
17277SOL     OW55422   0.458   2.245   7.566 -0.2803  0.0277 -0.0791
17277SOL    HW155423   0.427   2.163   7.527  1.7913 -0.5841 -0.6023
17277SOL    HW255424   0.412   2.314   7.518 -1.5385 -0.8067 -0.1097
17278SOL     OW55425   1.136   7.534   4.695  0.0144  0.4424  0.8143
17278SOL    HW155426   1.130   7.630   4.698 -1.2818  0.4833 -1.3326
17278SOL    HW255427   1.115   7.511   4.605  1.6714 -1.8192  0.8998
17279SOL     OW55428   9.804   7.606   4.949 -0.6906 -0.1840 -0.0088
17279SOL    HW155429   9.735   7.672   4.940 -1.0848 -0.5446  0.3336
17279SOL    HW255430   9.780   7.537   4.888 -0.6045 -0.2908  0.0787
17280SOL     OW55431   3.913   0.256   0.164 -0.1964 -0.4730 -0.0198
17280SOL    HW155432   3.868   0.228   0.084  0.1814 -1.2537  0.0237
17280SOL    HW255433   4.005   0.264   0.138 -0.3256  0.9731 -0.0745
17281SOL     OW55434   6.544   4.618   8.269  0.0401  0.2654  0.8862
17281SOL    HW155435   6.529   4.672   8.192 -0.4156 -0.0170  0.7732
17281SOL    HW255436   6.555   4.680   8.340 -0.1702  0.5133  0.7025
17282SOL     OW55437  10.669   3.057   4.825 -0.1925  0.4226  0.2311
17282SOL    HW155438  10.736   3.126   4.821  0.3288  0.0779  2.1994
17282SOL    HW255439  10.676   3.021   4.913 -1.7892 -0.8469 -0.1088
17283SOL     OW55440   9.603   9.084   0.835  0.3506  0.6038 -0.3781
17283SOL    HW155441   9.672   9.138   0.872  0.5450  0.2186 -0.1722
17283SOL    HW255442   9.627   9.075   0.743  0.2044  1.0363 -0.4636
17284SOL     OW55443   7.596   4.166   2.793 -0.2776 -0.0151 -0.8456
17284SOL    HW155444   7.572   4.216   2.871 -2.8282  0.4267 -1.8143
17284SOL    HW255445   7.631   4.231   2.732 -0.6438  0.0868 -0.9539
17285SOL     OW55446   4.233   2.844   7.594 -0.4641 -0.0431  0.3697
17285SOL    HW155447   4.159   2.899   7.569  0.1854  1.8413  2.3162
17285SOL    HW255448   4.301   2.864   7.530 -1.0193 -0.4051 -0.3418
17286SOL     OW55449   3.165   1.657   4.757 -0.0862 -0.4412 -0.4573
17286SOL    HW155450   3.238   1.689   4.703 -1.0352 -1.5179 -2.5241
17286SOL    HW255451   3.093   1.648   4.695 -2.2267  1.1899  1.6369
17287SOL     OW55452   4.139   9.253   1.507  0.1892 -0.8007  0.2459
17287SOL    HW155453   4.100   9.341   1.504  2.0783  0.1126  0.5740
17287SOL    HW255454   4.098   9.206   1.434 -0.4142  0.5544 -0.3354
17288SOL     OW55455   2.144  10.368   5.881  0.3505  0.0493  0.4140
17288SOL    HW155456   2.159  10.281   5.918  1.8260 -0.5510 -1.4808
17288SOL    HW255457   2.083  10.353   5.809 -0.3794  0.8109  0.8492
17289SOL     OW55458   6.950   7.979   5.593  0.5389 -0.0752  0.5228
17289SOL    HW155459   6.921   8.067   5.567 -0.8399 -0.9347 -1.0703
17289SOL    HW255460   7.043   7.977   5.570  0.8516  1.2924  1.5618
17290SOL     OW55461   5.780   0.486   4.659 -0.6065 -0.0114  1.0934
17290SOL    HW155462   5.768   0.412   4.599  2.9759  0.1900 -0.1213
17290SOL    HW255463   5.827   0.551   4.607 -0.0874  1.4638  3.2874
17291SOL     OW55464   2.108   4.055   0.749  0.4431 -0.0627  0.5773
17291SOL    HW155465   2.033   4.082   0.696  0.5602  0.3696  0.6294
17291SOL    HW255466   2.075   3.983   0.803  0.4100 -0.7175 -0.3111
17292SOL     OW55467   9.087   2.887   9.070 -0.5153  0.3976 -0.6604
17292SOL    HW155468   9.034   2.833   9.129  0.2343  0.4209  0.0580
17292SOL    HW255469   9.068   2.853   8.983  0.7445 -1.7824 -0.1557
17293SOL     OW55470   4.468  10.007   2.618 -0.0823 -0.1959 -0.5661
17293SOL    HW155471   4.483   9.919   2.653 -0.2308 -0.2993 -0.7575
17293SOL    HW255472   4.373  10.011   2.604 -0.6379  1.2284  2.7302
17294SOL     OW55473   0.124   6.998   2.915 -0.1554 -0.2618 -0.3916
17294SOL    HW155474   0.166   7.058   2.854  0.0209  0.5199  0.4665
17294SOL    HW255475   0.030   7.015   2.905 -0.0689  1.2563  0.8677
17295SOL     OW55476   8.403   7.627   9.855  0.3785  0.3023  0.3809
17295SOL    HW155477   8.362   7.639   9.941  1.9108  0.6245  1.0988
17295SOL    HW255478   8.377   7.705   9.805 -1.4580 -0.4168  0.1157
17296SOL     OW55479   3.856   4.785   9.066 -0.3132 -0.2021  0.4193
17296SOL    HW155480   3.846   4.690   9.064  1.7031 -0.4507 -0.4801
17296SOL    HW255481   3.928   4.800   9.127  0.4107  0.5978 -0.5958
17297SOL     OW55482   3.780   0.019   5.489  0.0598 -0.2755  0.2846
17297SOL    HW155483   3.790   0.114   5.493  1.3353 -0.4233  0.9445
17297SOL    HW255484   3.803  -0.011   5.577 -1.2411 -1.1285  0.3548
17298SOL     OW55485   3.762   2.092  11.030  0.2241 -0.0607  0.0778
17298SOL    HW155486   3.816   2.017  11.006  0.4062 -0.3301  1.2631
17298SOL    HW255487   3.676   2.054  11.050 -0.1179  0.2399 -0.7433
17299SOL     OW55488   4.155   1.875   6.935  0.3315 -0.6799 -0.3680
17299SOL    HW155489   4.129   1.946   6.875 -1.0138  0.3958  1.3877
17299SOL    HW255490   4.249   1.887   6.946  0.1855  0.6517 -0.3786
17300SOL     OW55491  10.007  10.555   5.435  0.2689 -0.3017 -0.3545
17300SOL    HW155492   9.963  10.569   5.351 -0.0540 -0.0937 -0.1543
17300SOL    HW255493  10.100  10.554   5.414  0.1504 -1.2370 -0.8537
17301SOL     OW55494   4.553   1.909   1.531 -0.6550 -0.3047 -0.3611
17301SOL    HW155495   4.640   1.873   1.546 -0.0682  0.6488 -1.2621
17301SOL    HW255496   4.553   1.932   1.438 -2.0733 -0.7923 -0.5078
17302SOL     OW55497   1.471   8.261   7.091  0.1632 -0.1378 -0.6139
17302SOL    HW155498   1.511   8.279   7.176  0.0094  0.8597 -0.7380
17302SOL    HW255499   1.543   8.230   7.036  0.1221 -1.5261  0.0831
17303SOL     OW55500   5.129   4.580   1.466  1.2013 -0.1203 -0.5606
17303SOL    HW155501   5.107   4.661   1.421  0.1103  0.5345  1.0527
17303SOL    HW255502   5.074   4.513   1.425 -0.2888  0.5921  0.2358
17304SOL     OW55503   0.277   5.036  10.581  0.0472 -0.2102  0.0861
17304SOL    HW155504   0.271   4.963  10.643  0.1868  0.5278  1.0055
17304SOL    HW255505   0.330   5.002  10.509 -0.8165 -1.3570 -0.0332
17305SOL     OW55506   1.503   2.998   4.089 -0.6819  0.5109  0.6108
17305SOL    HW155507   1.510   3.058   4.164  0.2034  0.2133  0.7724
17305SOL    HW255508   1.540   2.916   4.121 -1.0662  0.1363  0.1035
17306SOL     OW55509  10.229   1.515   9.771  0.2357 -0.3725  0.0924
17306SOL    HW155510  10.150   1.519   9.825 -0.3043  1.5903 -0.7484
17306SOL    HW255511  10.300   1.500   9.834 -0.4360  1.3211  1.3396
17307SOL     OW55512   5.574   6.687   8.066  0.3434  0.3820 -0.0601
17307SOL    HW155513   5.555   6.774   8.102  3.6948  0.2007  2.7621
17307SOL    HW255514   5.503   6.631   8.099 -1.5099  1.8224 -1.4003
17308SOL     OW55515   8.972   7.948   1.882 -0.3651 -0.1650  0.0114
17308SOL    HW155516   8.923   7.980   1.958 -0.3033 -0.3685  0.1367
17308SOL    HW255517   9.012   7.867   1.912 -3.1505 -2.1847 -1.2457
17309SOL     OW55518   7.101   4.427   7.685 -0.7621  0.5710 -0.0689
17309SOL    HW155519   7.120   4.486   7.757  0.8989  1.0075 -0.8120
17309SOL    HW255520   7.163   4.354   7.696 -1.2195  0.1116 -0.4512
17310SOL     OW55521   8.742   5.091   7.894 -0.1893 -0.3048 -0.0830
17310SOL    HW155522   8.805   5.022   7.914 -1.7167 -1.1970  2.0631
17310SOL    HW255523   8.786   5.171   7.922  0.6436 -0.6875 -0.2525
17311SOL     OW55524   7.020  10.037  10.419  0.0620  1.0142  0.0498
17311SOL    HW155525   7.029  10.132  10.410  1.5655  0.9336  0.5345
17311SOL    HW255526   7.055  10.017  10.505  2.3425 -0.2651 -1.0746
17312SOL     OW55527   6.585  10.615  11.006 -0.9324 -0.4119 -0.4250
17312SOL    HW155528   6.566  10.703  11.039 -2.6688 -1.2829  1.1115
17312SOL    HW255529   6.680  10.607  11.012 -0.8781  0.8187  0.9677
17313SOL     OW55530   7.778   1.143   8.077  0.4957  0.0669  0.0527
17313SOL    HW155531   7.784   1.213   8.012 -0.8694 -0.1534 -0.3454
17313SOL    HW255532   7.684   1.125   8.084  0.4649  0.8730  2.9201
17314SOL     OW55533   7.397   0.758   7.675 -0.1982 -0.2934  0.0770
17314SOL    HW155534   7.391   0.711   7.758  0.4184 -1.3588 -0.4604
17314SOL    HW255535   7.316   0.810   7.671 -1.6222 -2.3982  0.0601
17315SOL     OW55536   9.029   6.749   0.149  0.4304 -0.0292  0.3453
17315SOL    HW155537   9.030   6.835   0.191  2.5965  0.7996 -1.2098
17315SOL    HW255538   8.978   6.763   0.069  1.6296  0.1166 -0.4146
17316SOL     OW55539   5.260   2.678  10.019 -0.6369  0.0708  0.7433
17316SOL    HW155540   5.301   2.690  10.104 -0.8830 -0.4921  0.9415
17316SOL    HW255541   5.209   2.758  10.005 -0.1793  0.3912  0.8866
17317SOL     OW55542   3.958   0.609  10.241  0.5048 -0.0227  0.4276
17317SOL    HW155543   3.978   0.685  10.187 -1.8811  0.0359 -0.5097
17317SOL    HW255544   3.919   0.546  10.180 -0.9289 -0.5360  1.8079
17318SOL     OW55545   4.237   6.001   1.398  0.1558 -0.1057  0.8189
17318SOL    HW155546   4.248   6.060   1.323  1.7247 -0.0844  1.0275
17318SOL    HW255547   4.325   5.971   1.418 -0.3809 -1.0287  1.9408
17319SOL     OW55548   3.197   4.272   1.530 -0.1580  0.0962  0.0767
17319SOL    HW155549   3.220   4.207   1.597 -3.1890 -3.3134 -1.8247
17319SOL    HW255550   3.132   4.327   1.572 -1.2140 -1.3048  0.3656
17320SOL     OW55551   1.628   5.330   1.989 -0.4873 -0.3414 -0.4277
17320SOL    HW155552   1.535   5.313   2.006 -0.0653 -0.7861  1.7949
17320SOL    HW255553   1.631   5.357   1.897 -2.8886  0.3320 -0.3907
17321SOL     OW55554   9.722   6.278   9.457 -0.7895 -0.5060  0.3154
17321SOL    HW155555   9.649   6.267   9.397 -0.5679 -0.5673  0.0571
17321SOL    HW255556   9.681   6.303   9.540 -0.9867  1.2444 -0.2736
17322SOL     OW55557   0.584   5.236   5.073 -0.2629 -0.5877 -0.1302
17322SOL    HW155558   0.664   5.241   5.125 -0.8109 -0.8354  0.7604
17322SOL    HW255559   0.612   5.256   4.983  1.2958 -3.2915 -0.3559
17323SOL     OW55560   3.198  10.108  10.947  0.0111  1.3362  0.3326
17323SOL    HW155561   3.280  10.115  10.996  0.6581 -1.7370 -0.1256
17323SOL    HW255562   3.153  10.033  10.985 -0.8022  0.6219 -1.8597
17324SOL     OW55563   4.627   0.750   5.370 -0.2158  0.1548  0.1394
17324SOL    HW155564   4.692   0.795   5.425  0.4505  0.2914 -0.7238
17324SOL    HW255565   4.673   0.672   5.339 -1.1237 -0.7566  1.0414
17325SOL     OW55566   4.350   5.268   4.493 -0.2069 -0.3697  0.1213
17325SOL    HW155567   4.299   5.291   4.571 -2.1756 -0.6980 -0.9789
17325SOL    HW255568   4.341   5.345   4.436 -0.1567 -0.7453 -0.4029
17326SOL     OW55569  10.677   5.586   7.189  0.5207 -0.8384 -0.6224
17326SOL    HW155570  10.599   5.601   7.136  0.1884  0.3393  0.1608
17326SOL    HW255571  10.750   5.597   7.128  0.1423  0.2104 -0.9007
17327SOL     OW55572   2.829   9.093   4.558  0.1024 -0.3412  0.5479
17327SOL    HW155573   2.805   9.081   4.650 -1.9219  1.3819  0.3350
17327SOL    HW255574   2.782   9.023   4.512 -0.5903  0.0319  0.6583
17328SOL     OW55575  10.534   8.743   9.158  0.3606  0.6039 -0.1536
17328SOL    HW155576  10.498   8.772   9.075 -0.7586 -2.0729 -0.6932
17328SOL    HW255577  10.601   8.678   9.134  0.1269 -0.0915  0.9956
17329SOL     OW55578   6.587   1.514   5.127 -0.3243  0.2518  0.0088
17329SOL    HW155579   6.670   1.477   5.158 -0.7721 -0.9281 -0.1649
17329SOL    HW255580   6.609   1.604   5.102  0.8877 -0.0205  0.0353
17330SOL     OW55581   5.614   7.810   5.621 -0.0093  0.1020  0.4457
17330SOL    HW155582   5.530   7.782   5.586  0.0870  0.0373  0.2635
17330SOL    HW255583   5.595   7.840   5.709  0.1527 -2.1240  1.3016
17331SOL     OW55584  10.498   6.139   7.151 -0.1308  0.0272 -0.4800
17331SOL    HW155585  10.499   6.062   7.209  3.6461  0.9431  0.9138
17331SOL    HW255586  10.519   6.104   7.064  0.9688 -0.6235  0.0307
17332SOL     OW55587   3.083   8.025   6.842  0.7481 -0.2286  0.4963
17332SOL    HW155588   3.167   8.057   6.809  0.9791 -0.3682  0.9300
17332SOL    HW255589   3.019   8.091   6.816  1.3437  1.1074  2.2030
17333SOL     OW55590   7.810  10.560   1.108  0.2476 -0.7661  0.2668
17333SOL    HW155591   7.884  10.581   1.051  0.3580 -0.1791  0.6278
17333SOL    HW255592   7.764  10.490   1.061  1.0044 -1.1176  0.0194
17334SOL     OW55593   3.370   4.579   5.208  0.1042 -0.8976  0.6201
17334SOL    HW155594   3.442   4.639   5.190 -0.4479  0.1987  1.9162
17334SOL    HW255595   3.358   4.531   5.126  2.0051 -0.8026  0.2461
17335SOL     OW55596  10.168   7.562   9.120 -1.0367  0.2035 -0.0249
17335SOL    HW155597  10.205   7.593   9.038 -1.0636  1.7855  0.5326
17335SOL    HW255598  10.145   7.641   9.168  0.2611 -0.6161  2.1129
17336SOL     OW55599   6.726   9.534   8.952  0.4667 -0.3473  0.1646
17336SOL    HW155600   6.715   9.594   9.026  2.7073 -1.3430  1.4112
17336SOL    HW255601   6.704   9.586   8.875  0.1909  1.3957  1.3583
17337SOL     OW55602   9.561   8.388  10.475 -0.0809  0.1671  0.1081
17337SOL    HW155603   9.525   8.474  10.495 -0.8646  0.0337 -0.6717
17337SOL    HW255604   9.532   8.370  10.385 -0.9797 -1.4333  0.6875
17338SOL     OW55605   3.380   7.286   8.672 -0.3940  0.0897  0.2027
17338SOL    HW155606   3.430   7.207   8.692  1.6696  1.1207 -0.5499
17338SOL    HW255607   3.414   7.352   8.733 -0.7578  0.8461 -0.3889
17339SOL     OW55608   7.523   5.947   2.045  0.0760  0.5417  0.1056
17339SOL    HW155609   7.441   5.899   2.057 -0.0366  0.8698  0.6599
17339SOL    HW255610   7.536   5.949   1.950 -0.8669  1.0145 -0.0199
17340SOL     OW55611   0.650   2.670   1.815  0.2869 -0.3527 -0.3007
17340SOL    HW155612   0.572   2.654   1.868 -2.5388 -0.4169 -4.0658
17340SOL    HW255613   0.649   2.764   1.798  1.2019 -0.3093 -0.1570
17341SOL     OW55614  10.692  10.079  10.528 -0.8951  0.6506  0.1726
17341SOL    HW155615  10.777  10.078  10.483 -0.6973 -0.9490  0.5099
17341SOL    HW255616  10.628  10.077  10.456 -0.5860 -1.0911 -0.1141
17342SOL     OW55617   7.726   3.743   9.427  0.4758 -0.1600  0.5623
17342SOL    HW155618   7.810   3.788   9.416  0.8134 -0.4214  1.8825
17342SOL    HW255619   7.704   3.756   9.519  0.2242 -2.0719  0.8091
17343SOL     OW55620   4.586   6.172   9.893  0.3556 -0.9839 -0.4549
17343SOL    HW155621   4.661   6.231   9.886  0.0518 -0.5015  0.3374
17343SOL    HW255622   4.626   6.085   9.905  0.8170 -0.5261  1.7666
17344SOL     OW55623  10.239   5.687  10.050  0.4691  0.2261  0.2209
17344SOL    HW155624  10.249   5.780  10.067  1.1095  0.4384 -1.2355
17344SOL    HW255625  10.144   5.674  10.044  0.3906  0.8385  0.0686
17345SOL     OW55626   9.128   5.503   4.580 -0.1691 -0.2047  0.1779
17345SOL    HW155627   9.174   5.455   4.650 -0.4373 -0.7736 -0.0288
17345SOL    HW255628   9.076   5.568   4.627 -1.8276 -1.8052  0.6930
17346SOL     OW55629   6.204   4.712   4.459  0.2689 -0.6469  0.0345
17346SOL    HW155630   6.286   4.758   4.476  0.9183 -1.6237 -0.3880
17346SOL    HW255631   6.166   4.699   4.546  0.2951  0.2680  0.1938
17347SOL     OW55632   2.283   5.925   8.582  0.2735 -0.5748  0.6306
17347SOL    HW155633   2.335   5.922   8.662  0.9994 -0.5845  0.1663
17347SOL    HW255634   2.197   5.958   8.611  0.0598 -1.9301  1.6384
17348SOL     OW55635   8.978   0.020   5.078  0.4106  0.0124  0.3935
17348SOL    HW155636   8.981   0.085   5.148 -1.0022 -0.9364  1.3753
17348SOL    HW255637   8.894   0.037   5.034  1.5880  1.0758 -1.6037
17349SOL     OW55638   1.926  10.889   0.276  0.4799 -0.7791  0.0787
17349SOL    HW155639   1.925  10.900   0.181  1.1014  0.7735  0.2144
17349SOL    HW255640   1.856  10.947   0.307  0.1953 -1.3759  0.5625
17350SOL     OW55641   8.374   4.882   5.562 -0.2657 -0.7494  0.2223
17350SOL    HW155642   8.389   4.874   5.656 -1.9623  2.0791  0.8415
17350SOL    HW255643   8.376   4.792   5.529  0.3942 -1.8027  2.9165
17351SOL     OW55644  11.019   9.386   9.345  0.1026 -0.0533 -0.5820
17351SOL    HW155645  10.975   9.455   9.295 -1.3970 -0.8922 -0.4632
17351SOL    HW255646  11.109   9.418   9.355 -0.9290  2.7149  0.9605
17352SOL     OW55647   8.536   8.703   9.154  0.5079  0.0233 -0.0031
17352SOL    HW155648   8.519   8.730   9.245 -0.9659  0.9386 -0.5327
17352SOL    HW255649   8.548   8.786   9.107 -0.9212 -0.3522 -1.0544
17353SOL     OW55650   8.393   1.584   5.609 -0.3172  0.1185 -0.0616
17353SOL    HW155651   8.334   1.647   5.566 -3.7811 -0.9486  2.6640
17353SOL    HW255652   8.376   1.501   5.565 -0.1167 -0.0343  0.1458
17354SOL     OW55653  10.992   6.316   3.324 -0.1254 -0.5039 -0.4445
17354SOL    HW155654  11.047   6.385   3.362 -0.0714 -1.7070  1.8016
17354SOL    HW255655  11.052   6.263   3.272  0.3321 -0.3360 -0.0909
17355SOL     OW55656   0.933   3.290   1.836  0.2277 -0.4228 -0.6439
17355SOL    HW155657   0.933   3.371   1.785 -1.7683 -1.3795 -2.3163
17355SOL    HW255658   0.842   3.280   1.866  0.5458 -1.7801 -0.0243
17356SOL     OW55659  10.696   7.741   2.883  0.1833 -0.3993 -0.5259
17356SOL    HW155660  10.605   7.711   2.888  0.3501 -1.0931 -1.3721
17356SOL    HW255661  10.700   7.818   2.940 -0.4315 -1.5980  1.2112
17357SOL     OW55662   4.064   2.681  10.636 -1.0925  0.3306 -0.2926
17357SOL    HW155663   3.978   2.638  10.633 -0.5964 -0.6912 -0.6521
17357SOL    HW255664   4.121   2.621  10.587  0.1477  0.2397  1.1827
17358SOL     OW55665   2.720   1.386   7.955 -0.6642 -0.0865 -0.2634
17358SOL    HW155666   2.775   1.340   8.018 -0.8961  2.0925  1.6714
17358SOL    HW255667   2.771   1.387   7.874  0.9406 -0.4426  0.7088
17359SOL     OW55668   7.595   0.654   7.536 -0.1965 -0.3570  0.2988
17359SOL    HW155669   7.518   0.689   7.581 -0.8118  0.7209 -1.5145
17359SOL    HW255670   7.612   0.715   7.465 -0.2538 -2.8092 -1.9666
17360SOL     OW55671   1.599   7.779   5.141  0.0847  0.2903  0.9028
17360SOL    HW155672   1.611   7.740   5.054 -0.8285 -0.0261  0.9070
17360SOL    HW255673   1.534   7.848   5.127  1.9993  2.1665  0.8070
17361SOL     OW55674   2.100   5.408   5.566 -0.1275  0.8258 -0.1570
17361SOL    HW155675   2.086   5.316   5.544  0.7125  0.3967  0.9908
17361SOL    HW255676   2.085   5.455   5.484 -0.0161 -0.3811 -0.8904
17362SOL     OW55677   0.947   4.691   4.404  0.1832  0.1062 -0.6977
17362SOL    HW155678   0.939   4.600   4.373 -0.9477 -1.2854  3.1361
17362SOL    HW255679   0.894   4.741   4.342  0.1942 -1.9144 -2.4962
17363SOL     OW55680   5.205   5.167   7.672  0.2493 -0.3530  0.7553
17363SOL    HW155681   5.165   5.212   7.597 -1.2353 -1.7221  0.6829
17363SOL    HW255682   5.285   5.129   7.637 -0.7759 -1.5652 -0.3537
17364SOL     OW55683   6.689   7.885   3.698 -0.0956 -0.0813  0.7000
17364SOL    HW155684   6.709   7.791   3.699 -0.8250 -0.2497  1.7819
17364SOL    HW255685   6.599   7.890   3.731  0.3356  1.0689  1.7726
17365SOL     OW55686   2.607  10.551   7.445  0.2910 -0.3934  0.1852
17365SOL    HW155687   2.701  10.566   7.441  0.0200  1.9170  0.9290
17365SOL    HW255688   2.586  10.559   7.538 -0.3933 -3.0437  0.3416
17366SOL     OW55689   2.126   1.454   6.244 -0.1164  0.2616  0.0794
17366SOL    HW155690   2.046   1.409   6.269 -0.9929  1.1737 -1.0117
17366SOL    HW255691   2.099   1.543   6.223  1.5743  1.4110  2.2474
17367SOL     OW55692   7.758   7.323   8.517 -0.2602  0.1072  0.5963
17367SOL    HW155693   7.777   7.386   8.448 -0.9141 -2.2132 -1.9218
17367SOL    HW255694   7.833   7.263   8.517 -0.4024 -0.0991  1.7236
17368SOL     OW55695   7.530   7.578   3.334  0.1494  0.5474 -0.2375
17368SOL    HW155696   7.536   7.529   3.252 -0.0738 -0.0327  0.0883
17368SOL    HW255697   7.620   7.603   3.354 -0.0402  3.5563 -2.3500
17369SOL     OW55698   1.118   6.845   6.007  0.1038 -0.1684 -0.1365
17369SOL    HW155699   1.208   6.872   5.986  0.4512 -0.1844  1.2391
17369SOL    HW255700   1.073   6.846   5.923  1.1477  0.7823 -0.7195
17370SOL     OW55701   4.327   7.394   1.746 -0.2012 -0.1163  0.2447
17370SOL    HW155702   4.254   7.455   1.739 -0.2255 -0.0818  0.7425
17370SOL    HW255703   4.405   7.448   1.736 -0.2006  0.1197  1.3278
17371SOL     OW55704   6.323   0.912   0.423 -0.3152 -0.2802 -0.0560
17371SOL    HW155705   6.232   0.925   0.397 -0.3755 -0.4252  0.0766
17371SOL    HW255706   6.319   0.896   0.518 -0.1112  0.1324  0.0266
17372SOL     OW55707   3.660   1.683   3.318 -0.5557  0.1283 -0.6152
17372SOL    HW155708   3.576   1.717   3.349 -1.6182 -0.7506 -2.3619
17372SOL    HW255709   3.649   1.675   3.223  1.1099 -1.0888 -0.7515
17373SOL     OW55710   9.869   7.680   8.967 -0.5413  0.0245 -0.1237
17373SOL    HW155711   9.868   7.770   8.935 -1.4024 -0.0076 -0.1951
17373SOL    HW255712   9.796   7.675   9.029 -0.0455 -0.4287  0.4449
17374SOL     OW55713   3.235   1.680   2.543 -0.0584  0.3908  0.7299
17374SOL    HW155714   3.255   1.711   2.455  1.2840 -1.2734  0.4069
17374SOL    HW255715   3.240   1.585   2.537 -3.5069 -0.0057  1.8089
17375SOL     OW55716   2.782   8.135   4.248 -0.0294  0.1987 -0.3274
17375SOL    HW155717   2.785   8.203   4.315  1.5044  0.8470 -0.9873
17375SOL    HW255718   2.737   8.061   4.289 -0.3334  1.0610  0.9279
17376SOL     OW55719   5.461   0.876   5.252  0.3011  0.0173 -0.1721
17376SOL    HW155720   5.401   0.827   5.309  0.6289  0.4965  0.6042
17376SOL    HW255721   5.437   0.849   5.163 -1.4398  0.5989  0.0782
17377SOL     OW55722   0.674   8.007  10.659  0.4981 -0.1709 -0.1390
17377SOL    HW155723   0.602   8.058  10.621 -0.8765 -0.9858  1.2387
17377SOL    HW255724   0.713   7.960  10.585 -0.6205  0.0124 -0.8621
17378SOL     OW55725  10.111  10.533   1.406  0.5524  0.2223 -0.0603
17378SOL    HW155726  10.185  10.494   1.451  1.5495  0.9276 -1.0407
17378SOL    HW255727  10.038  10.472   1.421  1.3549 -0.5525  0.7832
17379SOL     OW55728   3.493   8.642   5.128 -0.2735  0.1112  0.0760
17379SOL    HW155729   3.509   8.548   5.120 -0.4666  0.1226 -0.4945
17379SOL    HW255730   3.490   8.658   5.222  0.8827 -0.2535  0.1814
17380SOL     OW55731   2.106   4.308   8.863 -0.2499 -0.4070  0.2383
17380SOL    HW155732   2.166   4.348   8.927 -0.6434 -2.3409  1.9545
17380SOL    HW255733   2.027   4.289   8.914 -0.8999 -1.2718 -1.0541
17381SOL     OW55734   6.336  10.531   1.585 -0.1504 -0.0095 -0.3709
17381SOL    HW155735   6.392  10.474   1.533 -0.7003  0.8785 -2.0229
17381SOL    HW255736   6.280  10.472   1.634  2.3901 -0.9509  1.6383
17382SOL     OW55737   7.993   7.339   4.205  0.2687 -0.1677  0.1623
17382SOL    HW155738   7.928   7.344   4.275  0.3524  0.4183  0.2012
17382SOL    HW255739   7.942   7.324   4.126 -0.0873  1.9346 -0.0640
17383SOL     OW55740  10.523   1.657   3.327 -0.0067  0.0290  0.4669
17383SOL    HW155741  10.614   1.675   3.304 -0.0493  0.7023  0.7997
17383SOL    HW255742  10.499   1.728   3.387 -0.3460 -0.8861  1.4333
17384SOL     OW55743   9.168   7.642   2.299 -0.3252  0.0545 -0.4856
17384SOL    HW155744   9.225   7.609   2.368 -1.3809 -0.6273  0.0913
17384SOL    HW255745   9.218   7.713   2.258  1.2086 -0.9738 -0.4797
17385SOL     OW55746   3.867   2.925   8.416 -0.9151 -0.2931 -0.2568
17385SOL    HW155747   3.830   2.950   8.501 -0.4441 -2.1177  0.5500
17385SOL    HW255748   3.959   2.949   8.421 -1.2456  1.2287 -0.9806
17386SOL     OW55749   4.842   1.125   7.339 -0.4690 -0.6223 -0.2470
17386SOL    HW155750   4.770   1.083   7.291  1.1979 -1.5297 -2.1018
17386SOL    HW255751   4.882   1.054   7.388 -0.6745 -0.1637  0.5994
17387SOL     OW55752   5.179   8.114   9.345 -0.1814  0.3255 -0.1175
17387SOL    HW155753   5.162   8.175   9.417 -0.7785  0.3724 -0.2958
17387SOL    HW255754   5.130   8.149   9.271  2.1012  1.4726 -1.1870
17388SOL     OW55755  10.453   1.152   3.184 -0.1358  0.3482 -0.4206
17388SOL    HW155756  10.510   1.166   3.108  1.8274  0.2987  0.9727
17388SOL    HW255757  10.463   1.231   3.236 -2.2853  0.8428 -0.6365
17389SOL     OW55758   7.918   5.430   7.142 -0.2569  0.3539 -0.3583
17389SOL    HW155759   7.871   5.355   7.179 -1.3998  1.1364 -0.1942
17389SOL    HW255760   7.864   5.506   7.163 -0.0611  1.0268 -2.1292
17390SOL     OW55761  10.548   6.406   7.834  0.5747 -0.0745  0.2476
17390SOL    HW155762  10.568   6.313   7.840  2.3672  0.2551  0.1525
17390SOL    HW255763  10.559   6.439   7.923  1.9415  0.3627 -0.0545
17391SOL     OW55764   2.417   6.356  10.644  0.4812 -0.2988 -0.2556
17391SOL    HW155765   2.401   6.423  10.710 -1.0624 -0.0721 -0.8214
17391SOL    HW255766   2.400   6.401  10.561 -0.5457 -1.3644 -0.6484
17392SOL     OW55767   2.970   2.327   5.653  0.4546  0.4002 -0.0856
17392SOL    HW155768   3.004   2.388   5.718  0.5026 -1.4183  1.6997
17392SOL    HW255769   2.951   2.247   5.703 -0.3186 -0.7946 -2.1723
17393SOL     OW55770   0.771  10.154   3.977 -0.3765 -0.1303 -0.4209
17393SOL    HW155771   0.842  10.198   3.931 -0.4385  0.3007 -0.1084
17393SOL    HW255772   0.730  10.099   3.910  0.7583 -1.0168 -0.4149
17394SOL     OW55773   5.092   7.884   9.965 -0.8241 -0.1901  0.3402
17394SOL    HW155774   5.055   7.917   9.883 -1.3383  1.2424  1.1031
17394SOL    HW255775   5.030   7.817   9.993 -0.9133 -0.3392 -0.2038
17395SOL     OW55776   8.828   8.042   0.991  0.7688 -0.1922  0.1531
17395SOL    HW155777   8.824   7.947   1.004 -0.2672 -0.1739  0.1121
17395SOL    HW255778   8.883   8.054   0.914  0.9136 -0.7664  0.1636
17396SOL     OW55779   0.096   4.879   2.953  0.4228  0.0038 -0.0491
17396SOL    HW155780   0.027   4.822   2.986  0.9903 -1.2234 -0.9136
17396SOL    HW255781   0.049   4.958   2.924 -0.5140 -0.4876  0.0780
17397SOL     OW55782   1.156   4.638   3.977 -0.3393  0.2101  0.3160
17397SOL    HW155783   1.113   4.719   4.002 -0.5392 -0.0744  0.9117
17397SOL    HW255784   1.241   4.640   4.021  0.3844  0.8760 -1.0386
17398SOL     OW55785   5.369   2.133   5.119 -0.2357 -0.1492 -0.1583
17398SOL    HW155786   5.341   2.051   5.078 -1.7031 -0.1419  0.7729
17398SOL    HW255787   5.441   2.107   5.176 -0.8056 -0.8353  0.2667
17399SOL     OW55788  10.114   0.532   5.846  0.2114  0.3899 -0.0851
17399SOL    HW155789  10.133   0.624   5.866  1.4554  0.3168 -0.8624
17399SOL    HW255790  10.174   0.482   5.901 -0.9591  0.0001  0.8728
17400SOL     OW55791   2.595   7.977   6.954  0.5420 -0.1517 -0.9845
17400SOL    HW155792   2.628   8.053   7.002 -0.6559  0.3675 -0.9332
17400SOL    HW255793   2.541   8.015   6.885 -0.7672 -0.9577 -0.4345
17401SOL     OW55794   6.009   7.322   3.328 -0.3846  0.2482  0.0321
17401SOL    HW155795   6.075   7.384   3.297  0.7147 -0.4289  0.9710
17401SOL    HW255796   5.940   7.377   3.365  0.9226  0.9172  1.5364
17402SOL     OW55797   3.142   9.338  10.057  0.1740  0.4601 -0.9652
17402SOL    HW155798   3.058   9.356  10.013  0.0244  1.1648 -0.4181
17402SOL    HW255799   3.194   9.416  10.040  0.2578  0.5668 -0.2292
17403SOL     OW55800   8.380   3.291   4.988  0.1716  0.6489  0.2122
17403SOL    HW155801   8.470   3.259   4.995 -0.6694 -2.2415 -0.8330
17403SOL    HW255802   8.330   3.236   5.048 -0.8959  2.4609  1.0670
17404SOL     OW55803   8.784   0.552   4.536  0.2454  0.0277  0.4089
17404SOL    HW155804   8.838   0.477   4.513  0.5455  0.0031  1.1707
17404SOL    HW255805   8.771   0.599   4.454  2.0664  0.4689  0.3328
17405SOL     OW55806   9.671   3.625   6.526  0.1228 -0.3224 -0.1687
17405SOL    HW155807   9.621   3.543   6.536  1.2372 -0.7870  2.8491
17405SOL    HW255808   9.753   3.607   6.572  1.0146  2.0329 -0.7486
17406SOL     OW55809   4.448   9.403   7.772 -0.2514  0.2257  0.5091
17406SOL    HW155810   4.514   9.338   7.746 -0.0416  0.5886  0.1210
17406SOL    HW255811   4.379   9.395   7.706 -0.3454  0.2157  0.6100
17407SOL     OW55812   3.800   5.638   4.917 -0.1574 -0.2011 -0.1985
17407SOL    HW155813   3.748   5.710   4.953 -0.4417 -0.7008  0.3947
17407SOL    HW255814   3.805   5.658   4.823 -1.5901 -0.2501 -0.3103
17408SOL     OW55815   3.945   0.355   9.260 -0.4665  0.3588 -0.2554
17408SOL    HW155816   4.040   0.350   9.264 -0.4092  1.6297  0.0788
17408SOL    HW255817   3.916   0.343   9.350 -0.7444 -1.6425 -0.5480
17409SOL     OW55818  10.654   0.066   6.327  0.4551  0.3091 -0.1316
17409SOL    HW155819  10.593   0.131   6.362  1.4772  1.3847 -0.2504
17409SOL    HW255820  10.599   0.001   6.285 -0.5923  1.3934 -0.4880
17410SOL     OW55821  10.172   8.592   3.172  0.0358 -0.0602 -0.7970
17410SOL    HW155822  10.156   8.570   3.081  0.1393  0.8948 -1.0592
17410SOL    HW255823  10.239   8.531   3.201 -2.3239 -2.6338 -0.3463
17411SOL     OW55824   8.119   4.400   6.634 -0.4195  0.4715 -0.2045
17411SOL    HW155825   8.189   4.453   6.596 -1.3551  1.7329 -0.2517
17411SOL    HW255826   8.134   4.404   6.729  1.0383 -1.4236 -0.2985
17412SOL     OW55827   3.352   0.869   5.498  0.4450 -0.4852  0.0767
17412SOL    HW155828   3.333   0.842   5.588  2.0199  0.2703  0.6625
17412SOL    HW255829   3.357   0.964   5.501 -0.8217 -0.3385 -1.1186
17413SOL     OW55830   1.526   1.955  10.153  0.4400 -0.9631  1.2858
17413SOL    HW155831   1.609   2.001  10.164  0.6226 -0.7316 -0.6807
17413SOL    HW255832   1.462   2.010  10.197  0.9078  0.3999  0.3401
17414SOL     OW55833  10.963  10.964   7.231 -0.1607  0.5090  0.0819
17414SOL    HW155834  10.983  10.948   7.323 -0.8409  0.9784  0.3131
17414SOL    HW255835  10.999  11.051   7.213  0.8401  0.0273 -0.3720
17415SOL     OW55836   4.229   4.660   9.046 -0.1544 -1.1326  0.2339
17415SOL    HW155837   4.189   4.630   9.127  1.2351 -0.3856  1.2386
17415SOL    HW255838   4.303   4.713   9.074 -0.6527  0.5930 -1.5100
17416SOL     OW55839   9.664   3.746   3.403  0.3467 -0.4195 -0.6242
17416SOL    HW155840   9.626   3.680   3.462 -0.9385  2.5367  2.1616
17416SOL    HW255841   9.758   3.740   3.416  0.2280 -1.4827 -0.2084
17417SOL     OW55842   0.259   1.376   7.075  0.2040  0.8633 -0.4455
17417SOL    HW155843   0.250   1.397   7.168 -0.0352  1.6949 -0.6505
17417SOL    HW255844   0.344   1.412   7.051  1.2846 -1.2718 -0.0504
17418SOL     OW55845   8.240   8.954   4.771  0.2644 -0.4826  0.5433
17418SOL    HW155846   8.289   8.912   4.700 -1.6755 -0.1326 -1.1015
17418SOL    HW255847   8.303   9.013   4.813  1.8223 -1.7108  0.0272
17419SOL     OW55848   8.279   3.529   4.635  0.3248  0.0240  0.0255
17419SOL    HW155849   8.358   3.509   4.584 -1.0511 -0.1890 -2.1543
17419SOL    HW255850   8.211   3.543   4.569 -1.7224 -0.8096  1.8370
17420SOL     OW55851   0.396   7.235   3.801 -0.0748 -0.4791  0.1116
17420SOL    HW155852   0.482   7.198   3.781  0.0001 -0.0983 -0.2949
17420SOL    HW255853   0.402   7.261   3.893  0.8984  1.2376 -0.3845
17421SOL     OW55854   0.618   2.129  10.515  0.8061 -0.7745 -0.2683
17421SOL    HW155855   0.705   2.095  10.536  1.2763  0.8968  0.7008
17421SOL    HW255856   0.630   2.180  10.435  1.4837  2.0017  1.4614
17422SOL     OW55857   5.301   3.254   0.164  0.3695 -0.4279  0.0607
17422SOL    HW155858   5.291   3.169   0.120  0.2759 -1.4817  2.0202
17422SOL    HW255859   5.219   3.267   0.210 -0.2604  1.5600 -1.4710
17423SOL     OW55860   8.246   9.083   9.495  0.0341  0.0191  0.4741
17423SOL    HW155861   8.182   9.151   9.473 -0.4675 -1.0911 -1.7983
17423SOL    HW255862   8.195   9.002   9.496  1.0110 -0.6003  0.9716
17424SOL     OW55863   6.539   4.705   6.074 -0.0466 -0.0149  0.2426
17424SOL    HW155864   6.568   4.736   5.989 -0.1343 -0.1228  0.1733
17424SOL    HW255865   6.523   4.785   6.125  1.3166  0.0527  0.6071
17425SOL     OW55866   5.979   4.206  10.135  0.4788 -0.6395 -0.3065
17425SOL    HW155867   6.015   4.121  10.109 -0.8823 -1.2062 -0.4087
17425SOL    HW255868   5.927   4.187  10.213  1.4809  0.4047  0.6802
17426SOL     OW55869   2.515   5.555   5.142  0.1386  0.6086  0.6505
17426SOL    HW155870   2.584   5.502   5.102 -1.3364  0.0992 -1.3417
17426SOL    HW255871   2.454   5.492   5.181 -0.4985  0.9350  0.1962
17427SOL     OW55872   8.313   8.602   0.530 -0.1926 -0.2129 -0.7708
17427SOL    HW155873   8.373   8.641   0.593 -0.0310  1.1515 -1.7263
17427SOL    HW255874   8.358   8.610   0.446 -0.3829 -2.0439 -1.0716
17428SOL     OW55875   7.051   7.211   2.789 -0.2411  0.2379  0.0313
17428SOL    HW155876   7.015   7.148   2.852  1.1628 -1.3949 -0.7184
17428SOL    HW255877   7.023   7.297   2.822 -0.4673 -0.6346  2.2682
17429SOL     OW55878  10.595   3.242   6.595  0.1468 -0.3957  0.0125
17429SOL    HW155879  10.551   3.222   6.678  0.8622  1.8986  1.0056
17429SOL    HW255880  10.685   3.212   6.607  0.0131 -0.9257 -0.2978
17430SOL     OW55881   3.768   0.980   6.681 -0.0153  0.2464  0.2886
17430SOL    HW155882   3.826   0.907   6.658  0.1709  0.3247  0.5085
17430SOL    HW255883   3.781   0.993   6.775 -0.4800  0.1853  0.3646
17431SOL     OW55884   7.231   2.116  10.429 -0.3064 -0.0841 -0.4668
17431SOL    HW155885   7.171   2.122  10.354 -0.6210  0.2078 -0.1924
17431SOL    HW255886   7.260   2.025  10.428  0.5021  0.1716 -1.5630
17432SOL     OW55887   2.339   7.859   9.333 -0.0176  0.4749 -0.3386
17432SOL    HW155888   2.318   7.781   9.384  0.6798 -0.5738 -1.5959
17432SOL    HW255889   2.255   7.888   9.297 -0.2214  0.0559 -0.2026
17433SOL     OW55890   5.215   3.030   0.695 -0.3852 -0.3297  0.5386
17433SOL    HW155891   5.270   3.108   0.706 -3.5918  2.3203 -0.3008
17433SOL    HW255892   5.239   2.996   0.609 -0.2559  1.0027  0.0225
17434SOL     OW55893  10.875   5.138   7.448  0.0789  0.8614 -0.4940
17434SOL    HW155894  10.840   5.192   7.377 -0.3180  1.1199 -0.1104
17434SOL    HW255895  10.887   5.199   7.521 -1.2155  0.2794  0.2341
17435SOL     OW55896  10.780   3.481   7.072 -0.0306  0.1215 -0.4983
17435SOL    HW155897  10.777   3.409   7.010 -2.0088 -0.6126  0.3533
17435SOL    HW255898  10.845   3.541   7.036 -0.5839 -0.5916 -2.8822
17436SOL     OW55899   2.670  10.726  10.593  0.4391  0.2423  0.3706
17436SOL    HW155900   2.604  10.660  10.573  0.5206  0.4390 -0.6157
17436SOL    HW255901   2.686  10.770  10.509  2.7297 -0.6362  0.2570
17437SOL     OW55902   0.164   5.099   7.599  0.1417 -0.5395 -0.6160
17437SOL    HW155903   0.254   5.110   7.631 -0.3647 -2.0617  1.5793
17437SOL    HW255904   0.118   5.178   7.628 -0.1285 -1.5678  1.9634
17438SOL     OW55905   2.716   8.528   7.639 -0.6555 -0.5805  0.3987
17438SOL    HW155906   2.632   8.489   7.615 -1.2320 -0.7043  2.4307
17438SOL    HW255907   2.725   8.510   7.732  0.6662  1.2018  0.6726
17439SOL     OW55908   1.090   5.468   9.535  0.0668  0.5574  0.8604
17439SOL    HW155909   1.042   5.436   9.458  3.3029 -0.6593 -0.8268
17439SOL    HW255910   1.032   5.448   9.609 -2.8204  0.9951 -1.0846
17440SOL     OW55911   3.571   8.055   3.750 -0.0330  0.8899  0.0557
17440SOL    HW155912   3.657   8.091   3.771  0.7715  0.1333 -1.7396
17440SOL    HW255913   3.575   7.964   3.779 -0.4967  1.0494  0.6313
17441SOL     OW55914   0.525   9.858  10.442 -0.2293  0.5207  0.0269
17441SOL    HW155915   0.434   9.887  10.448  0.1479  1.5126  1.6866
17441SOL    HW255916   0.543   9.817  10.527  0.6426 -0.4367 -0.5890
17442SOL     OW55917  10.668   6.243   6.335 -0.3325  0.0212 -0.5460
17442SOL    HW155918  10.697   6.242   6.426  2.8501 -0.3800 -1.4717
17442SOL    HW255919  10.686   6.333   6.306 -3.2678  0.7913 -0.3239
17443SOL     OW55920   1.736   9.789   2.341 -0.1839  0.6366 -0.3083
17443SOL    HW155921   1.791   9.711   2.332  0.0949  0.7214  0.5865
17443SOL    HW255922   1.743   9.833   2.257 -0.9642 -0.6991 -1.1078
17444SOL     OW55923   5.124   0.516   7.862 -0.2560 -0.0762  0.1180
17444SOL    HW155924   5.066   0.583   7.825 -0.8443 -0.1399  0.8992
17444SOL    HW255925   5.134   0.540   7.953 -2.0787 -2.0790  0.9551
17445SOL     OW55926   1.896   8.192   3.161  0.2001 -0.3239  0.2564
17445SOL    HW155927   1.809   8.202   3.120 -0.6281 -1.6642  1.5786
17445SOL    HW255928   1.891   8.246   3.240  0.4738 -0.6236  0.4759
17446SOL     OW55929   0.642   5.240   8.344 -0.0392 -0.0133 -0.6173
17446SOL    HW155930   0.585   5.282   8.408 -0.6399 -0.2304 -1.0047
17446SOL    HW255931   0.657   5.307   8.277  0.6283  0.2305 -0.2404
17447SOL     OW55932   2.199   2.589   1.550 -0.5383  0.0649 -0.1749
17447SOL    HW155933   2.276   2.641   1.527 -1.5518  1.1215 -1.3123
17447SOL    HW255934   2.235   2.505   1.577  1.0767  0.9073  0.4520
17448SOL     OW55935   9.192   8.405   2.862  0.1542  0.1262 -0.0380
17448SOL    HW155936   9.246   8.483   2.879 -0.7864  1.5141 -2.8943
17448SOL    HW255937   9.251   8.344   2.819  0.8146 -0.7178  1.9367
17449SOL     OW55938   2.237  10.895   9.759 -0.0231  0.2712 -0.0131
17449SOL    HW155939   2.304  10.948   9.801 -0.6634 -0.9781  2.8095
17449SOL    HW255940   2.162  10.954   9.751 -0.2211  0.2920  1.6475
17450SOL     OW55941   8.148   9.951   5.264  0.3498  0.2087  0.1937
17450SOL    HW155942   8.088  10.012   5.221  1.5733  1.0114 -0.4142
17450SOL    HW255943   8.235   9.977   5.234  0.8731 -2.4514 -0.8986
17451SOL     OW55944   4.503   4.964   3.218  0.2160 -0.2781  0.0495
17451SOL    HW155945   4.469   5.023   3.150 -1.7733 -0.9818  0.3518
17451SOL    HW255946   4.582   5.008   3.250 -0.6816  1.7738 -0.3705
17452SOL     OW55947   8.443   6.981   6.371  0.0336 -0.0663  0.1090
17452SOL    HW155948   8.355   6.961   6.404  0.8339 -1.2076  1.7327
17452SOL    HW255949   8.502   6.943   6.437  1.7471  2.5203  0.2012
17453SOL     OW55950   2.708   8.068   1.012 -0.2841 -0.0331  0.4066
17453SOL    HW155951   2.758   8.009   1.068  0.7947  1.4168  1.0179
17453SOL    HW255952   2.707   8.151   1.059  0.8269  1.3028 -1.7741
17454SOL     OW55953   4.666   0.954   7.996  0.1897 -0.5038 -0.4756
17454SOL    HW155954   4.590   1.009   8.017  0.0322 -1.0331  0.3548
17454SOL    HW255955   4.735   0.986   8.053  0.0485 -1.2732  0.1336
17455SOL     OW55956   8.499   6.117   3.186 -0.4016  0.0403 -0.5340
17455SOL    HW155957   8.588   6.085   3.201 -0.3117  0.7155  0.3860
17455SOL    HW255958   8.508   6.175   3.110  0.2398  1.2952  0.4597
17456SOL     OW55959   2.219   5.763  10.251 -0.5307 -0.1588  0.1571
17456SOL    HW155960   2.132   5.740  10.285 -0.6918 -2.0441 -1.3684
17456SOL    HW255961   2.203   5.831  10.186 -1.0178 -1.1070 -0.7471
17457SOL     OW55962   2.999   9.021   5.142  0.0029  0.6461 -0.1954
17457SOL    HW155963   3.091   8.998   5.152 -0.4355 -0.3129  2.6714
17457SOL    HW255964   2.960   8.946   5.097  0.1751 -0.2790  1.1300
17458SOL     OW55965  10.475  10.961  10.739  0.3577  0.2851 -0.4597
17458SOL    HW155966  10.459  11.054  10.757  1.0899  0.9657 -2.9453
17458SOL    HW255967  10.487  10.922  10.825 -3.2577  1.7948  0.9311
17459SOL     OW55968   6.283   6.709   2.710  0.4920 -0.1007  0.5664
17459SOL    HW155969   6.274   6.676   2.621  0.9420 -1.9908  1.1719
17459SOL    HW255970   6.210   6.669   2.758  0.5420  0.4875  1.1553
17460SOL     OW55971   9.215   0.149   4.419 -0.3544  0.7948 -0.0489
17460SOL    HW155972   9.304   0.121   4.444 -0.9607  0.0686  1.4418
17460SOL    HW255973   9.228   0.208   4.345  1.2434 -0.7537 -1.0714
17461SOL     OW55974   5.834   3.161   0.776 -0.5934 -0.0976  0.1301
17461SOL    HW155975   5.788   3.107   0.840  0.1976  0.0138  0.8062
17461SOL    HW255976   5.882   3.097   0.722  0.9953 -0.0655  1.4421
17462SOL     OW55977   6.847   4.120  10.430 -0.0263 -0.2324 -0.6886
17462SOL    HW155978   6.789   4.063  10.479  0.0696  0.5564  0.3853
17462SOL    HW255979   6.931   4.073  10.426  0.3638  0.2484  1.0970
17463SOL     OW55980   9.578   4.457   9.171 -0.1299 -1.0550 -0.4389
17463SOL    HW155981   9.531   4.535   9.141  1.1605 -0.0759  0.0072
17463SOL    HW255982   9.522   4.384   9.144 -0.7792 -0.0478 -1.9515
17464SOL     OW55983   1.574   3.121   1.750  0.1746  0.4599 -0.4576
17464SOL    HW155984   1.590   3.027   1.742 -3.5548 -0.3620 -0.4088
17464SOL    HW255985   1.604   3.159   1.667  0.3342 -1.0535 -1.1139
17465SOL     OW55986   9.963   9.641   3.894 -0.0082  0.1664 -0.1337
17465SOL    HW155987  10.030   9.592   3.846 -1.0241  0.8649 -2.3886
17465SOL    HW255988   9.911   9.573   3.937  1.0173 -0.4738  0.1444
17466SOL     OW55989   5.028   8.928   7.443 -0.1921  0.3918 -0.1656
17466SOL    HW155990   5.061   8.838   7.452  0.7428  0.8904  2.0159
17466SOL    HW255991   4.958   8.934   7.509 -0.2413  1.2643 -0.2892
17467SOL     OW55992   5.740  10.040   2.460 -0.6489  0.5087  0.5398
17467SOL    HW155993   5.646  10.044   2.476 -0.9288  0.3760 -0.9880
17467SOL    HW255994   5.771   9.974   2.522 -1.6870  0.0050  0.5437
17468SOL     OW55995  10.554   2.628  10.173 -0.4187  0.8061 -0.5113
17468SOL    HW155996  10.634   2.593  10.213 -0.3532  1.2367 -0.2641
17468SOL    HW255997  10.551   2.586  10.087 -0.6135 -0.2022 -0.0281
17469SOL     OW55998  10.595   4.867   0.780 -0.3335 -0.2924  0.2738
17469SOL    HW155999  10.583   4.932   0.849 -0.1194  2.3016 -1.9227
17469SOL    HW256000  10.686   4.877   0.753 -0.0035 -2.2818  0.5270
17470SOL     OW56001   1.450   8.246   3.298 -0.1801 -0.2173  0.5856
17470SOL    HW156002   1.474   8.177   3.359 -2.0070 -0.5957  0.9598
17470SOL    HW256003   1.507   8.233   3.223 -0.8083 -2.4983  0.4264
17471SOL     OW56004   0.641   0.061   8.930  0.0693  0.1533 -0.3894
17471SOL    HW156005   0.634  -0.021   8.978 -0.2574 -0.8300 -2.0590
17471SOL    HW256006   0.733   0.066   8.904  0.2549  0.7050  0.3228
17472SOL     OW56007   3.426   2.473  10.841  0.0085  0.3842  0.4165
17472SOL    HW156008   3.393   2.561  10.861 -0.5640  0.1112  0.6880
17472SOL    HW256009   3.369   2.442  10.770 -0.2815 -0.0643  0.8382
17473SOL     OW56010   3.144   7.475   7.702  0.3219  0.1361 -0.2321
17473SOL    HW156011   3.085   7.535   7.748 -1.0546 -0.1917 -1.4677
17473SOL    HW256012   3.144   7.396   7.756  0.3192  0.4424  0.2219
17474SOL     OW56013   6.848   2.260   3.163  0.2090  0.0536 -0.1106
17474SOL    HW156014   6.780   2.195   3.179 -0.0046  0.0179 -1.0658
17474SOL    HW256015   6.880   2.284   3.250 -0.5163 -0.4669  0.3111
17475SOL     OW56016   0.596  10.901   3.490 -0.0785  0.5214 -0.1159
17475SOL    HW156017   0.679  10.923   3.447 -0.2437  0.3293 -0.5440
17475SOL    HW256018   0.533  10.964   3.453 -0.2588  0.2410 -0.2878
17476SOL     OW56019   2.145   3.814  10.026 -0.1261 -0.2013  0.3475
17476SOL    HW156020   2.069   3.757  10.019 -0.7910  0.7310 -0.1927
17476SOL    HW256021   2.213   3.768   9.976 -0.8085 -0.2654 -0.5609
17477SOL     OW56022  10.396   0.655   3.416 -0.2484  0.1567  0.4290
17477SOL    HW156023  10.358   0.595   3.352 -0.8667  0.7372  0.2396
17477SOL    HW256024  10.490   0.647   3.402 -0.3714  0.3572 -0.6453
17478SOL     OW56025   6.331   2.940   3.226 -0.4467 -0.1034  0.2569
17478SOL    HW156026   6.268   2.926   3.296  0.3510  0.7723  1.1844
17478SOL    HW256027   6.326   3.034   3.208  2.0189  0.3914  1.7893
17479SOL     OW56028   6.871   0.923   7.935  0.5792 -0.0766  0.1582
17479SOL    HW156029   6.897   0.848   7.882 -2.5844  0.3684 -2.3223
17479SOL    HW256030   6.820   0.886   8.007  0.3180 -0.4100 -0.1971
17480SOL     OW56031   1.280   9.224   9.234  0.1679 -0.1373 -0.2352
17480SOL    HW156032   1.320   9.308   9.215 -1.9136  1.1303  0.6302
17480SOL    HW256033   1.198   9.246   9.278 -0.0359 -2.6445  0.7986
17481SOL     OW56034   0.934   3.941   6.164 -0.3806 -0.2856 -0.0486
17481SOL    HW156035   0.879   4.003   6.213  0.6088 -0.1314  0.9227
17481SOL    HW256036   0.896   3.855   6.183 -0.6304 -0.1324  0.1511
17482SOL     OW56037   7.991   6.790   9.353 -0.0367  0.2340  0.2461
17482SOL    HW156038   7.974   6.721   9.418  0.3239 -1.4611 -1.3849
17482SOL    HW256039   8.086   6.798   9.351  0.4208 -3.2701 -3.4033
17483SOL     OW56040   7.104   8.777   4.886 -0.3767  0.0554 -0.6595
17483SOL    HW156041   7.168   8.712   4.913 -0.9559 -0.7994 -1.2883
17483SOL    HW256042   7.045   8.786   4.961  1.2685  1.9460  0.5066
17484SOL     OW56043  11.022   7.367   9.523  0.8302  0.1866  0.3339
17484SOL    HW156044  10.966   7.303   9.567  0.0111  1.0292  0.5420
17484SOL    HW256045  11.078   7.314   9.466 -2.4550 -0.5885 -2.5551
17485SOL     OW56046   0.108   5.705   0.203  0.2220  0.4636 -0.2681
17485SOL    HW156047   0.200   5.682   0.220  0.0443  0.3014  0.5296
17485SOL    HW256048   0.103   5.716   0.108  0.9515 -0.0230 -0.3716
17486SOL     OW56049   3.587   9.811   4.081 -0.1640 -0.4855  0.2190
17486SOL    HW156050   3.647   9.800   4.007  1.3408  0.5865  1.2074
17486SOL    HW256051   3.581   9.724   4.119  0.9107 -0.6083  0.1604
17487SOL     OW56052   5.357  10.830   7.014 -0.1143 -0.2374  0.3657
17487SOL    HW156053   5.320  10.865   7.095  0.8797  2.3051 -0.1859
17487SOL    HW256054   5.290  10.848   6.948 -0.0056 -0.2746  0.2461
17488SOL     OW56055   2.402   9.995   9.684  0.5135 -0.4695 -0.5571
17488SOL    HW156056   2.318   9.953   9.703 -0.3008  0.8378 -1.1112
17488SOL    HW256057   2.429  10.033   9.767  0.4592 -0.7459 -0.4133
17489SOL     OW56058   3.413   7.961   1.358  0.3856  0.8236 -0.3930
17489SOL    HW156059   3.498   7.971   1.315  0.6619 -2.8581 -1.0571
17489SOL    HW256060   3.353   7.939   1.287 -0.3676  0.1164  0.4433
17490SOL     OW56061  10.699  10.045   9.175 -0.2623 -0.1976  0.3427
17490SOL    HW156062  10.629   9.984   9.151 -1.9523  1.3951  1.0095
17490SOL    HW256063  10.697  10.112   9.106  0.1954  0.1649  0.6738
17491SOL     OW56064   0.334   3.339   6.342 -0.0226  0.6704  0.1878
17491SOL    HW156065   0.321   3.280   6.417  1.1106  1.4856  1.0535
17491SOL    HW256066   0.248   3.343   6.300  0.0395 -2.3460 -0.4952
17492SOL     OW56067   0.393   6.432   6.321  0.0543 -0.5456 -0.1562
17492SOL    HW156068   0.314   6.381   6.338  0.3749 -1.3795 -1.0677
17492SOL    HW256069   0.464   6.367   6.324  0.4409 -0.2347 -1.6155
17493SOL     OW56070   7.908   6.641   4.784  0.1644  0.6957 -0.7120
17493SOL    HW156071   7.952   6.651   4.868  2.0691  1.3076 -1.7376
17493SOL    HW256072   7.815   6.632   4.806  0.5360  1.6473  1.3832
17494SOL     OW56073   4.257   0.881   5.176 -0.0792  0.1469 -0.2270
17494SOL    HW156074   4.168   0.892   5.208  0.1964 -0.1924  0.6674
17494SOL    HW256075   4.309   0.860   5.253  0.6658 -0.3143 -0.8318
17495SOL     OW56076   4.612   8.689   4.938  0.2519  0.5693  0.2026
17495SOL    HW156077   4.690   8.743   4.948  0.6553 -0.1560  1.1586
17495SOL    HW256078   4.544   8.735   4.987  0.8107 -0.1866  1.7310
17496SOL     OW56079   8.392   8.921   6.331 -0.1044  0.0522  0.3299
17496SOL    HW156080   8.309   8.874   6.333  0.9232 -1.8804  1.0522
17496SOL    HW256081   8.440   8.888   6.407  1.2296  1.3199  0.0983
17497SOL     OW56082   0.541   4.819   9.349 -0.0452 -0.2066  0.1430
17497SOL    HW156083   0.494   4.774   9.419  0.2468  0.2984  0.6652
17497SOL    HW256084   0.624   4.772   9.342  0.2661  0.2537  0.6985
17498SOL     OW56085   5.076   8.341   2.550 -0.1508  0.6493 -0.0257
17498SOL    HW156086   5.156   8.337   2.498 -0.1687  0.3422 -0.0354
17498SOL    HW256087   5.050   8.433   2.549  1.4990  1.2019  1.9685
17499SOL     OW56088   6.031   7.774   8.665 -0.0974 -0.1059  0.1197
17499SOL    HW156089   6.125   7.775   8.648  0.5127  1.2295  2.9037
17499SOL    HW256090   6.008   7.681   8.667  0.8331 -0.4220 -1.8823
17500SOL     OW56091   7.243   0.863  10.109  0.5476 -0.1382 -0.1102
17500SOL    HW156092   7.160   0.887  10.149  0.0758 -1.1077 -0.4718
17500SOL    HW256093   7.221   0.845  10.017  1.4905  1.3942 -0.6714
17501SOL     OW56094   6.901   5.633  10.033  0.5949  0.0300  0.6483
17501SOL    HW156095   6.929   5.613   9.944  0.3628  1.5548  0.2060
17501SOL    HW256096   6.960   5.702  10.062 -0.1993  0.5055  1.1697
17502SOL     OW56097   2.447   1.546   3.827 -0.1234 -0.7138  0.3239
17502SOL    HW156098   2.416   1.548   3.737  0.5377 -0.0714  0.0963
17502SOL    HW256099   2.442   1.454   3.853  2.3976 -1.4252 -1.3543
17503SOL     OW56100   9.827   5.609   9.505 -0.3209  0.3305 -0.0624
17503SOL    HW156101   9.873   5.610   9.589 -0.0837 -0.3158 -0.1754
17503SOL    HW256102   9.884   5.658   9.446 -0.8659  1.4685  0.3323
17504SOL     OW56103   5.107   8.657   7.434 -0.1730 -0.1475 -0.0884
17504SOL    HW156104   5.110   8.643   7.528 -1.6467 -0.8438 -0.1236
17504SOL    HW256105   5.194   8.629   7.403 -0.0587 -0.9713  0.9324
17505SOL     OW56106   0.113   2.062   3.437  0.4161  0.2891  0.0865
17505SOL    HW156107   0.063   2.141   3.458  0.1976 -0.1163  1.1129
17505SOL    HW256108   0.198   2.096   3.406 -0.0390  0.9416 -0.4955
17506SOL     OW56109   6.680  10.208   7.139 -0.5752 -0.2763  0.0313
17506SOL    HW156110   6.725  10.284   7.102  0.5642 -0.4895  0.8955
17506SOL    HW256111   6.751  10.148   7.163 -1.2811 -0.5022  1.7263
17507SOL     OW56112   9.617  10.522   9.986  0.0142  0.2063  0.3789
17507SOL    HW156113   9.560  10.481  10.051 -2.0231  1.3198 -0.6028
17507SOL    HW256114   9.623  10.614  10.015 -1.8957  1.0149 -1.5337
17508SOL     OW56115   6.083  10.003   9.989  0.0967  0.2476  0.2315
17508SOL    HW156116   6.089   9.907   9.991  0.4825  0.2462 -0.5516
17508SOL    HW256117   6.168  10.032  10.022 -0.0429  0.3155  0.5232
17509SOL     OW56118   2.486   3.905   6.096  0.6498  1.0030 -0.2321
17509SOL    HW156119   2.470   3.823   6.143  2.2638  0.2762 -0.8585
17509SOL    HW256120   2.475   3.883   6.004 -1.8414  2.2611 -0.3064
17510SOL     OW56121   6.193   6.302   1.594 -0.3586 -0.2780 -0.2069
17510SOL    HW156122   6.154   6.216   1.581  0.9604 -0.9294 -0.0333
17510SOL    HW256123   6.267   6.305   1.533 -0.0925  0.5424  0.1303
17511SOL     OW56124   7.163   0.607   8.783  0.2656 -0.0495 -0.4826
17511SOL    HW156125   7.234   0.545   8.799  0.3407  0.0557 -0.4067
17511SOL    HW256126   7.166   0.666   8.858 -0.9214 -1.0023  0.3627
17512SOL     OW56127   8.532   5.761   8.693  0.4214 -0.1661  0.4777
17512SOL    HW156128   8.544   5.668   8.713 -1.4517  0.0268  3.0282
17512SOL    HW256129   8.490   5.762   8.607 -2.3473 -1.9446  1.6755
17513SOL     OW56130   3.627   9.320   6.028  0.3306  0.0556  0.2579
17513SOL    HW156131   3.681   9.248   6.061  1.7074 -0.7948 -3.3863
17513SOL    HW256132   3.538   9.285   6.025  0.8394 -1.2305 -0.5946
17514SOL     OW56133   3.157   5.783   0.375 -0.5012  0.2957  0.0117
17514SOL    HW156134   3.247   5.790   0.342 -0.4060  0.7470  0.3465
17514SOL    HW256135   3.155   5.842   0.450 -1.0080  0.0868  0.1668
17515SOL     OW56136   3.323   2.145   2.289  0.6785 -0.0137  0.0242
17515SOL    HW156137   3.242   2.174   2.248  0.3571 -1.6577 -0.5893
17515SOL    HW256138   3.322   2.049   2.279  2.5040 -0.1043  0.3354
17516SOL     OW56139   8.158   5.745   1.371 -0.5320  0.0230  0.6936
17516SOL    HW156140   8.234   5.800   1.351 -0.2823 -0.0466  1.4163
17516SOL    HW256141   8.097   5.762   1.300 -0.4992  1.3070  0.9364
17517SOL     OW56142   0.981   9.858   3.040  0.3050 -0.0852 -0.1208
17517SOL    HW156143   1.040   9.924   3.001 -1.4657  1.4684 -0.3069
17517SOL    HW256144   0.917   9.841   2.971 -0.2864 -0.6761  0.5722
17518SOL     OW56145   4.492   7.546   7.877 -0.4979 -0.0146 -0.0073
17518SOL    HW156146   4.499   7.639   7.898 -1.0640  0.4442 -1.7045
17518SOL    HW256147   4.573   7.526   7.830 -1.4532  0.2885 -1.8723
17519SOL     OW56148   4.120   5.618  10.096 -0.3753  0.4350  0.1649
17519SOL    HW156149   4.172   5.538  10.095  0.4480  0.9606 -0.2259
17519SOL    HW256150   4.113   5.640  10.189 -2.6627 -1.3473  0.5238
17520SOL     OW56151   0.323   6.192   3.391  0.1648  0.1590  0.1663
17520SOL    HW156152   0.409   6.151   3.385  0.3196  0.6429 -1.8541
17520SOL    HW256153   0.338   6.283   3.366 -1.1807 -0.2211 -2.4489
17521SOL     OW56154   0.954   8.886   1.061  0.1690 -0.2253  0.2674
17521SOL    HW156155   0.978   8.872   1.153 -1.0125  0.3820  0.6896
17521SOL    HW256156   0.859   8.893   1.062  0.1870  0.4388 -0.9207
17522SOL     OW56157   2.134   8.288   2.599  0.2451 -0.4223 -0.1370
17522SOL    HW156158   2.203   8.313   2.538  0.2256  0.5734  0.2287
17522SOL    HW256159   2.157   8.199   2.625  0.8120 -0.4835 -0.8189
17523SOL     OW56160   9.518   2.834   4.971  0.6363 -0.3516  0.3378
17523SOL    HW156161   9.464   2.851   5.048 -2.0767 -1.4215 -1.1679
17523SOL    HW256162   9.515   2.916   4.921 -1.7077 -1.0509 -0.8343
17524SOL     OW56163   0.977  10.875   2.382 -0.2165 -0.0978  0.0180
17524SOL    HW156164   1.007  10.845   2.469 -0.8002 -0.3643  0.1316
17524SOL    HW256165   1.051  10.857   2.324 -0.6334 -2.0660  0.0270
17525SOL     OW56166   4.420   9.764   9.960  0.4527 -0.0116  0.1307
17525SOL    HW156167   4.333   9.796   9.938 -0.1759 -1.8133 -0.1665
17525SOL    HW256168   4.473   9.843   9.971 -1.4051  1.1359  1.1635
17526SOL     OW56169   4.111   8.861  10.598 -0.0837 -0.0606  0.2493
17526SOL    HW156170   4.121   8.803  10.522 -0.6924  0.9852 -0.6565
17526SOL    HW256171   4.143   8.809  10.672  1.2397 -0.8471 -0.8192
17527SOL     OW56172   2.725   3.701   4.269  0.0155  0.4791  0.0125
17527SOL    HW156173   2.664   3.725   4.199 -0.8575 -1.2367  0.1436
17527SOL    HW256174   2.811   3.724   4.234 -0.5603  1.5261 -0.7852
17528SOL     OW56175   7.688  10.106  10.063 -0.3124  0.7035 -0.2274
17528SOL    HW156176   7.639  10.031  10.030  0.9904 -0.7411  0.9967
17528SOL    HW256177   7.779  10.077  10.065  0.0094  1.6223  2.0262
17529SOL     OW56178   9.295   3.363   4.964 -0.0916 -0.2954 -0.3832
17529SOL    HW156179   9.373   3.372   5.020 -0.5650 -0.5255  0.3257
17529SOL    HW256180   9.327   3.382   4.876  0.7271 -0.1789 -0.0733
17530SOL     OW56181   7.300   1.726   7.681 -0.3246  0.4223  0.0105
17530SOL    HW156182   7.370   1.724   7.746 -0.9790  1.7417  0.8012
17530SOL    HW256183   7.306   1.642   7.636  2.0122  0.6311 -0.2253
17531SOL     OW56184   0.049   8.025   5.380 -0.1456  0.6848 -0.0712
17531SOL    HW156185   0.021   8.113   5.354 -0.3466  0.0081 -2.3698
17531SOL    HW256186   0.070   7.981   5.297 -0.1686 -1.4791  1.0028
17532SOL     OW56187   4.853   4.312   1.674  0.3336  0.3196  0.2545
17532SOL    HW156188   4.893   4.387   1.717  1.6730 -0.6669  0.8116
17532SOL    HW256189   4.911   4.293   1.600 -0.7819  0.6859 -0.7436
17533SOL     OW56190   4.576  10.067   1.826  0.2783  0.0934  0.1149
17533SOL    HW156191   4.582   9.981   1.866  0.1551 -0.2131 -0.5049
17533SOL    HW256192   4.601  10.128   1.895  0.0160 -0.4139  0.6598
17534SOL     OW56193  10.917   7.658  10.452 -0.0283  0.7873  0.1731
17534SOL    HW156194  10.927   7.661  10.357  0.1259 -1.5121  0.0587
17534SOL    HW256195  10.997   7.614  10.483 -0.5008  0.6607  1.2619
17535SOL     OW56196   7.071   3.997   5.054  0.7258  0.5490 -0.3517
17535SOL    HW156197   7.047   4.069   5.112  0.4257  0.4558 -0.3586
17535SOL    HW256198   6.989   3.972   5.012  0.2140 -1.6563  1.7256
17536SOL     OW56199   7.957   4.425   7.641  0.3069 -0.1130  0.6785
17536SOL    HW156200   8.050   4.415   7.661 -0.0390 -1.0765  1.9931
17536SOL    HW256201   7.920   4.464   7.720 -0.1769  1.8066 -0.4296
17537SOL     OW56202   8.153   1.637   1.836  0.2923 -0.7696 -0.0915
17537SOL    HW156203   8.081   1.634   1.899 -1.6847 -0.2958 -2.2048
17537SOL    HW256204   8.231   1.646   1.890 -1.1366 -1.9077  2.3445
17538SOL     OW56205   5.639  10.332   8.776 -0.8206  0.2424  0.1991
17538SOL    HW156206   5.598  10.388   8.841 -0.7753  0.9130 -0.3362
17538SOL    HW256207   5.573  10.322   8.708  0.2764  2.4351 -1.3226
17539SOL     OW56208   8.187   4.167   2.214 -0.1850 -0.1488 -0.2446
17539SOL    HW156209   8.184   4.218   2.295 -0.1849 -1.6379  0.7243
17539SOL    HW256210   8.137   4.219   2.151  0.8599  1.6409  0.3263
17540SOL     OW56211   1.042   8.047   4.374  0.3665  0.3941  0.2858
17540SOL    HW156212   1.023   8.140   4.358  0.1086  0.3930  0.5644
17540SOL    HW256213   1.108   8.024   4.309  0.9136  0.9477  0.6420
17541SOL     OW56214   5.554   0.411  10.460  1.0556 -0.0893 -0.0499
17541SOL    HW156215   5.512   0.327  10.478  0.2745  0.2082 -0.4395
17541SOL    HW256216   5.516   0.471  10.525 -1.1043  0.7831 -2.0088
17542SOL     OW56217   7.351   5.847  10.889  0.1727 -0.0284 -0.4787
17542SOL    HW156218   7.358   5.752  10.875 -0.0685 -0.0550 -0.4133
17542SOL    HW256219   7.316   5.855  10.978 -0.3167  0.1150 -0.6818
17543SOL     OW56220   6.000   5.208   7.670  0.1676  0.0389  0.0974
17543SOL    HW156221   6.093   5.203   7.648  0.6543 -1.3394  2.1377
17543SOL    HW256222   5.977   5.300   7.657  1.7748  0.3858 -0.5541
17544SOL     OW56223   5.272   9.932   0.173  0.3873 -0.1988  0.5009
17544SOL    HW156224   5.238   9.843   0.162 -1.8913  0.5074  1.2991
17544SOL    HW256225   5.276   9.945   0.268  0.7891  0.5054  0.3970
17545SOL     OW56226   8.666   2.972   4.117  0.6488 -0.1423  0.0171
17545SOL    HW156227   8.574   2.992   4.101  0.3682 -1.2236  0.2287
17545SOL    HW256228   8.666   2.885   4.157  1.6232  0.6995  2.0071
17546SOL     OW56229   1.245   7.156   8.130  0.3135 -0.1770  0.0922
17546SOL    HW156230   1.205   7.193   8.051  1.0725 -1.4048 -0.9141
17546SOL    HW256231   1.331   7.124   8.101  1.3394  0.8443  1.8004
17547SOL     OW56232   9.442   0.929   7.524  0.4420 -0.6891  0.1286
17547SOL    HW156233   9.476   0.843   7.504 -1.7534 -1.2719 -1.5036
17547SOL    HW256234   9.363   0.912   7.577  0.8188  0.4118  1.0929
17548SOL     OW56235   8.747   1.662   1.620  0.3535  0.8155 -0.2632
17548SOL    HW156236   8.838   1.688   1.638  0.8992  0.8819 -2.6998
17548SOL    HW256237   8.754   1.573   1.586 -0.5570  0.6622 -0.0730
17549SOL     OW56238   1.085   6.132   8.270  0.5583  0.1322  0.1829
17549SOL    HW156239   0.990   6.126   8.271  0.6093 -0.6975  0.3757
17549SOL    HW256240   1.105   6.181   8.190 -0.0592  1.0486  0.5663
17550SOL     OW56241   4.374   2.625   7.233  0.3368  0.1851  0.5321
17550SOL    HW156242   4.380   2.546   7.180 -3.8173  0.2112 -0.3108
17550SOL    HW256243   4.377   2.594   7.323  1.4788 -0.5644  0.2558
17551SOL     OW56244   0.271   9.440   9.193 -0.2493 -0.5709 -0.2574
17551SOL    HW156245   0.343   9.438   9.129 -0.5464 -0.8904 -0.5843
17551SOL    HW256246   0.194   9.463   9.141 -0.4002 -0.3152  0.0801
17552SOL     OW56247   7.345   8.636   4.891 -0.5236  0.4623  0.3468
17552SOL    HW156248   7.311   8.555   4.930 -0.5804 -0.6243 -1.7760
17552SOL    HW256249   7.389   8.607   4.811 -0.8072  2.5633 -0.6425
17553SOL     OW56250  10.370   5.000   7.309  0.3634  0.0751 -0.2913
17553SOL    HW156251  10.293   5.005   7.253 -1.0691  0.0277  1.5498
17553SOL    HW256252  10.334   4.993   7.398  2.4380 -3.1853  0.4402
17554SOL     OW56253   6.771   9.637   7.887  0.3817  0.6027  0.0947
17554SOL    HW156254   6.687   9.678   7.905 -0.1960  0.7954 -2.5861
17554SOL    HW256255   6.749   9.553   7.847  1.4884  0.0284  0.6413
17555SOL     OW56256   2.174   8.791   2.353  0.5191  0.0915  0.7291
17555SOL    HW156257   2.099   8.849   2.342 -0.1325 -0.3728  2.4026
17555SOL    HW256258   2.147   8.708   2.313 -0.3503 -0.4212  2.2787
17556SOL     OW56259  10.007   8.208   7.743  0.1873 -0.0304  0.3586
17556SOL    HW156260  10.027   8.221   7.836 -1.3201  0.7784  0.6072
17556SOL    HW256261   9.915   8.181   7.742 -0.3254  1.5667 -0.9653
17557SOL     OW56262   2.237   1.223   9.857  0.3306 -0.5833  0.4534
17557SOL    HW156263   2.168   1.248   9.795  0.4798 -3.6547 -1.1260
17557SOL    HW256264   2.189   1.186   9.932  0.2264  0.9285  1.1741
17558SOL     OW56265   1.116   1.032   4.159 -0.0577  0.3793  0.2129
17558SOL    HW156266   1.165   0.950   4.160 -0.9324 -0.1920 -0.6362
17558SOL    HW256267   1.172   1.093   4.112 -1.5437 -1.3268 -4.4823
17559SOL     OW56268  10.698  10.945   9.794 -0.1331  0.4876 -0.0397
17559SOL    HW156269  10.790  10.920   9.808  0.3185  1.1433 -1.6573
17559SOL    HW256270  10.696  11.039   9.807 -0.5283  0.5185 -0.3208
17560SOL     OW56271  10.155  10.614  10.596 -0.5540  0.0308 -0.5081
17560SOL    HW156272  10.227  10.641  10.540 -0.9196  0.6901 -0.6693
17560SOL    HW256273  10.178  10.648  10.683  0.2163 -1.3489 -0.1475
17561SOL     OW56274  10.977   4.463   0.356 -0.8010  0.0285 -0.0556
17561SOL    HW156275  11.033   4.386   0.353  1.1244  1.3706 -0.7657
17561SOL    HW256276  10.894   4.434   0.320  0.1372 -1.5122 -1.0783
17562SOL     OW56277  10.236   7.182   3.197  0.2969 -0.0022 -0.1830
17562SOL    HW156278  10.274   7.249   3.254  1.0827  0.9085 -1.7036
17562SOL    HW256279  10.259   7.099   3.238 -0.2490  0.6178  1.4681
17563SOL     OW56280   0.840   1.185   1.885  0.6151 -0.1298 -0.0292
17563SOL    HW156281   0.870   1.123   1.951  0.4320  0.8700  1.0495
17563SOL    HW256282   0.762   1.225   1.925 -0.0103 -0.1206 -1.2342
17564SOL     OW56283   8.959   6.512   2.292  0.2739  0.5387 -0.2357
17564SOL    HW156284   8.933   6.543   2.206 -0.0236  1.9440  0.3320
17564SOL    HW256285   9.049   6.541   2.303 -0.3620  2.3303  0.7501
17565SOL     OW56286   0.929   7.514   6.310  0.2680  0.1621 -0.5596
17565SOL    HW156287   0.879   7.593   6.290  0.1298  0.3611  0.5271
17565SOL    HW256288   0.930   7.465   6.227 -3.0106 -0.5596 -0.3091
17566SOL     OW56289  10.180   9.190   5.841  0.1236  0.2137 -0.3952
17566SOL    HW156290  10.195   9.257   5.908 -1.3718  2.2387 -1.9227
17566SOL    HW256291  10.110   9.136   5.876  0.4411  0.2717  0.3350
17567SOL     OW56292   1.883   2.492  10.197  0.0173  0.4726  0.2627
17567SOL    HW156293   1.971   2.530  10.195  0.4555 -0.5266 -1.1298
17567SOL    HW256294   1.825   2.567  10.185  0.7878  0.9494 -0.6689
17568SOL     OW56295  10.300   9.459   8.654 -0.3207  0.1052  0.0735
17568SOL    HW156296  10.334   9.381   8.609  1.6363  0.9838 -0.0651
17568SOL    HW256297  10.258   9.509   8.585 -0.2380 -0.1104 -0.1370
17569SOL     OW56298   0.827  10.806   6.498  0.2083 -0.0204 -0.4146
17569SOL    HW156299   0.883  10.875   6.462  0.4383  0.3149  0.5476
17569SOL    HW256300   0.875  10.774   6.575 -0.7567  0.0335  0.2235
17570SOL     OW56301   6.313   3.163  10.247 -0.2035  0.4224 -0.1174
17570SOL    HW156302   6.402   3.179  10.216  0.4319  0.6801  1.7213
17570SOL    HW256303   6.295   3.073  10.222 -0.2295  0.9674 -2.2802
17571SOL     OW56304   3.563   9.071   1.367  0.1624  0.4853 -0.3556
17571SOL    HW156305   3.573   8.981   1.336  2.3384  0.5290  0.1039
17571SOL    HW256306   3.601   9.124   1.297  0.3090  0.9470  0.0727
17572SOL     OW56307   6.773   3.999   0.687 -0.2092 -0.7893 -0.4622
17572SOL    HW156308   6.830   3.968   0.758  0.3428 -0.1463 -0.6122
17572SOL    HW256309   6.689   3.955   0.702 -1.1185  1.5712  2.4010
17573SOL     OW56310   5.480   8.568   0.814 -0.6979  0.0498 -0.3686
17573SOL    HW156311   5.440   8.520   0.886 -0.4687  1.0632  0.4620
17573SOL    HW256312   5.431   8.650   0.810 -1.0048 -0.1861 -1.6750
17574SOL     OW56313   4.093   8.328   6.525  0.1827  0.5187  0.2634
17574SOL    HW156314   4.103   8.241   6.563 -2.7834  0.8796  2.1906
17574SOL    HW256315   4.023   8.318   6.460 -0.1253  1.4316  0.4426
17575SOL     OW56316   9.042   7.291   8.857 -0.3393 -0.1703 -0.8678
17575SOL    HW156317   9.001   7.369   8.819  0.6708  0.3632 -0.8864
17575SOL    HW256318   9.079   7.244   8.781  2.2071  1.2010 -0.5825
17576SOL     OW56319   9.550   1.300   4.827 -0.4114 -0.6432 -0.3029
17576SOL    HW156320   9.583   1.213   4.849 -1.1283 -0.8690 -0.1068
17576SOL    HW256321   9.514   1.334   4.909  3.3346  1.4773  0.6984
17577SOL     OW56322   2.188   0.826   7.146 -0.6416 -0.1358  0.1273
17577SOL    HW156323   2.211   0.736   7.124  0.0822 -0.2484  1.2518
17577SOL    HW256324   2.255   0.879   7.104 -1.1424 -0.0997 -0.6442
17578SOL     OW56325   1.252   3.384   7.124  0.2745 -0.2885  0.0534
17578SOL    HW156326   1.345   3.385   7.100  0.5686  1.4791  1.0620
17578SOL    HW256327   1.243   3.310   7.184  0.9206 -0.7430 -0.3943
17579SOL     OW56328   4.284   9.034   1.771  0.1004 -0.5622  0.2222
17579SOL    HW156329   4.251   8.947   1.792  0.0321 -0.9180 -1.2287
17579SOL    HW256330   4.222   9.094   1.811 -0.2850 -1.1864  0.5688
17580SOL     OW56331   5.014   8.712  10.545  0.3372  0.2566 -0.7471
17580SOL    HW156332   5.025   8.789  10.600  0.7946  0.8568 -1.6573
17580SOL    HW256333   5.051   8.737  10.460  0.1205 -0.8217 -1.1800
17581SOL     OW56334   1.220   1.547   6.174  0.2681  0.2726  0.0435
17581SOL    HW156335   1.151   1.485   6.198 -0.9663  1.1524 -1.0274
17581SOL    HW256336   1.288   1.536   6.241  0.1215 -2.2253 -0.1476
17582SOL     OW56337   1.876   9.888   9.840  0.4070 -0.0899  0.1446
17582SOL    HW156338   1.811   9.855   9.903  0.6677 -1.1769 -0.1328
17582SOL    HW256339   1.834   9.964   9.800 -0.3025 -0.1985  0.6611
17583SOL     OW56340   0.395   1.351   0.602  0.2609  0.1008  0.2211
17583SOL    HW156341   0.461   1.387   0.543 -2.0136  1.2202 -1.7990
17583SOL    HW256342   0.394   1.412   0.676  1.0569  0.3816  0.0169
17584SOL     OW56343   7.203   8.486   7.191  0.6300 -0.1225 -0.1140
17584SOL    HW156344   7.175   8.467   7.280 -0.5112 -0.5232 -0.5405
17584SOL    HW256345   7.286   8.533   7.201 -0.0131  0.7718  1.1840
17585SOL     OW56346  10.203   7.208   3.515  0.5262  0.1720 -0.1909
17585SOL    HW156347  10.269   7.161   3.565  1.2484  2.4937  1.2459
17585SOL    HW256348  10.120   7.167   3.540  1.2929 -2.1952 -1.3270
17586SOL     OW56349   8.705   6.269  10.864 -0.5724  0.2533  0.6319
17586SOL    HW156350   8.667   6.298  10.781  1.3821 -0.5318 -0.5879
17586SOL    HW256351   8.672   6.332  10.929 -0.5005  2.1334 -1.0672
17587SOL     OW56352   5.720   7.038   8.236  0.2413  0.4568  0.2437
17587SOL    HW156353   5.676   7.123   8.231 -1.9790 -0.5589  1.1074
17587SOL    HW256354   5.792   7.045   8.173 -0.8280  2.4229 -0.8727
17588SOL     OW56355   5.562   4.835   3.822  0.2843  0.5227 -0.1371
17588SOL    HW156356   5.518   4.807   3.901 -0.7649  0.1445 -0.8340
17588SOL    HW256357   5.524   4.781   3.752  0.2699  1.6925 -1.0833
17589SOL     OW56358   5.929   1.636   8.160  0.2203  0.6590  0.4439
17589SOL    HW156359   5.837   1.623   8.137  0.1288  0.3578  0.9815
17589SOL    HW256360   5.972   1.555   8.132  0.2559  0.6427  0.5480
17590SOL     OW56361   7.363   6.781   1.970 -0.0928 -0.0096  0.0786
17590SOL    HW156362   7.415   6.806   2.046  1.1523 -1.0038 -0.4125
17590SOL    HW256363   7.398   6.835   1.899 -0.2587 -0.1365 -0.0995
17591SOL     OW56364  11.042   0.737   2.890  0.4787 -0.0835 -0.0263
17591SOL    HW156365  10.984   0.813   2.893  0.3047 -0.2327  1.0651
17591SOL    HW256366  11.126   0.770   2.923  1.1646  0.2204 -1.9418
17592SOL     OW56367   1.641   1.592   8.502 -0.3780 -0.0015  0.5687
17592SOL    HW156368   1.733   1.570   8.490 -0.3457  0.6258 -0.4415
17592SOL    HW256369   1.643   1.678   8.546 -0.4862  0.0658  0.4411
17593SOL     OW56370   9.419  10.916   0.300  0.3885 -0.1594  0.2376
17593SOL    HW156371   9.461  10.899   0.384 -3.4292 -0.8042  2.2218
17593SOL    HW256372   9.453  10.846   0.243  0.1600 -2.1956  2.4239
17594SOL     OW56373   5.192   7.780   4.247  0.0254  0.2449  0.6450
17594SOL    HW156374   5.255   7.766   4.176  3.3708 -0.5872  3.4757
17594SOL    HW256375   5.128   7.710   4.235  1.2585 -0.7354 -0.7770
17595SOL     OW56376   0.302   8.158   9.391 -0.2031  0.4380  0.7053
17595SOL    HW156377   0.304   8.078   9.444  0.8623  0.3359  0.5258
17595SOL    HW256378   0.323   8.129   9.303  1.3148  1.0584  0.8461
17596SOL     OW56379  10.145   9.044   2.820  0.3606 -0.1965  0.1371
17596SOL    HW156380  10.116   9.039   2.729 -0.4003  0.4822  0.3313
17596SOL    HW256381  10.180   9.133   2.829 -2.3906  0.8925  1.2802
17597SOL     OW56382   1.447   0.810  11.029 -0.1052 -0.7206  0.4411
17597SOL    HW156383   1.404   0.752  10.967 -1.0895 -1.9051  2.1416
17597SOL    HW256384   1.376   0.855  11.074  0.6202  1.2252 -0.2314
17598SOL     OW56385   9.325   8.827   7.854 -0.1114 -0.1028 -0.1755
17598SOL    HW156386   9.383   8.862   7.922  0.1407  1.6472 -1.2134
17598SOL    HW256387   9.377   8.761   7.809  1.0516  1.2769 -0.9382
17599SOL     OW56388   7.537   4.461   5.917  0.0662  0.0315  0.0107
17599SOL    HW156389   7.455   4.468   5.966  0.6722 -0.3792  1.1163
17599SOL    HW256390   7.518   4.399   5.846 -0.9773  1.0606 -0.6558
17600SOL     OW56391   1.269   7.339   9.066 -0.2137  0.9565  0.6302
17600SOL    HW156392   1.297   7.403   9.132  0.4793  1.6829 -0.3264
17600SOL    HW256393   1.232   7.392   8.995 -0.3097  0.2480  0.1368
17601SOL     OW56394   0.455   9.853   5.919 -0.5717 -0.2083 -0.4283
17601SOL    HW156395   0.447   9.948   5.923  1.2152  0.0029 -0.9864
17601SOL    HW256396   0.373   9.823   5.881 -1.2628  1.0886  0.0125
17602SOL     OW56397   4.350   0.151   9.303  0.0859 -0.0945 -0.0499
17602SOL    HW156398   4.419   0.187   9.247 -1.4566  3.1811 -0.1306
17602SOL    HW256399   4.386   0.160   9.392  0.8296 -1.1088 -0.2343
17603SOL     OW56400   9.608   7.138   2.928 -0.5463 -0.2960  0.2759
17603SOL    HW156401   9.587   7.045   2.925  2.7057 -1.1259 -1.5113
17603SOL    HW256402   9.610   7.165   2.836 -0.7277  1.3836  0.7348
17604SOL     OW56403   8.310   9.696   6.947  0.4926  0.0261 -0.0331
17604SOL    HW156404   8.249   9.721   7.016  1.9069  2.8720  0.3687
17604SOL    HW256405   8.262   9.634   6.893 -0.9627 -1.6667  2.9790
17605SOL     OW56406   0.479   2.608   0.419 -0.0686  0.1552  0.1878
17605SOL    HW156407   0.425   2.530   0.406 -0.5791  0.0698  2.4667
17605SOL    HW256408   0.545   2.582   0.483  1.3943  0.8960 -0.9303
17606SOL     OW56409   2.338   8.737   8.845  0.5300  0.1484 -0.0560
17606SOL    HW156410   2.426   8.739   8.805 -0.2037 -0.4233 -1.7958
17606SOL    HW256411   2.279   8.720   8.771 -0.9894 -0.1956  1.1999
17607SOL     OW56412   6.676   0.066   3.042  0.6916  0.4702  0.4833
17607SOL    HW156413   6.586   0.055   3.073 -0.2061  1.9591 -1.3628
17607SOL    HW256414   6.681   0.009   2.966  1.2103  0.6211  0.4034
17608SOL     OW56415   3.715   9.414   4.821  0.0835 -0.2288  0.4780
17608SOL    HW156416   3.724   9.403   4.726  1.4172 -0.3970  0.6101
17608SOL    HW256417   3.761   9.339   4.859 -0.8491 -0.4257  1.2687
17609SOL     OW56418  10.311   6.745   3.829 -0.6477 -0.2685 -0.2512
17609SOL    HW156419  10.385   6.702   3.786 -0.4171 -0.4018  0.2745
17609SOL    HW256420  10.239   6.737   3.766 -0.1711  0.0236 -0.8442
17610SOL     OW56421   5.823   5.854   8.376 -0.1395  0.4417  0.1693
17610SOL    HW156422   5.832   5.908   8.455 -0.5008  2.6579 -1.2016
17610SOL    HW256423   5.913   5.847   8.342 -0.0281 -0.2428  0.5911
17611SOL     OW56424   7.344   4.601   9.960 -0.2014 -0.4481  0.3388
17611SOL    HW156425   7.360   4.508   9.971 -1.3614 -0.8185 -0.9049
17611SOL    HW256426   7.250   4.608   9.945 -0.0278  0.8406 -0.3126
17612SOL     OW56427   2.237  10.507   2.865 -0.6558 -0.3128  0.1197
17612SOL    HW156428   2.192  10.443   2.811 -0.3117 -0.1985 -0.3056
17612SOL    HW256429   2.171  10.536   2.928 -1.7129  1.0635 -1.5153
17613SOL     OW56430   1.086   0.378   6.166 -0.4384  0.1973  0.4156
17613SOL    HW156431   1.152   0.367   6.098 -0.9922  1.3398 -0.3358
17613SOL    HW256432   1.109   0.460   6.210  0.0971 -0.6843  1.8436
17614SOL     OW56433   9.671   7.572   9.853 -0.3169 -0.6884  0.1593
17614SOL    HW156434   9.684   7.642   9.917 -0.7488  0.7470 -1.2692
17614SOL    HW256435   9.663   7.493   9.906  0.6140  0.2614  1.8013
17615SOL     OW56436   2.217   8.775   4.328  0.0941 -0.3411  0.0278
17615SOL    HW156437   2.190   8.862   4.358  0.8539 -0.4330  1.0455
17615SOL    HW256438   2.228   8.724   4.409  1.3829 -0.8529 -0.4411
17616SOL     OW56439   0.652   8.581   3.248  0.3842 -0.2144 -0.6322
17616SOL    HW156440   0.639   8.498   3.294  0.9968 -0.2150 -0.4422
17616SOL    HW256441   0.617   8.565   3.160  0.2072 -0.5697 -0.5003
17617SOL     OW56442   4.776   9.252   2.878 -0.2178  0.1190  0.1289
17617SOL    HW156443   4.836   9.321   2.849 -1.9433  1.4322 -0.4554
17617SOL    HW256444   4.768   9.266   2.972 -1.5589  1.6115 -0.1620
17618SOL     OW56445   9.945   5.444   7.980 -0.1577  0.6448 -0.1824
17618SOL    HW156446   9.904   5.428   8.065 -0.5155 -0.6120 -0.5624
17618SOL    HW256447  10.039   5.434   7.997 -0.2332  0.3309  0.0531
17619SOL     OW56448   7.338   1.659   3.661 -0.2446  0.1790 -0.1885
17619SOL    HW156449   7.355   1.714   3.738 -0.8908  1.3961 -0.8809
17619SOL    HW256450   7.410   1.597   3.660  0.8018  1.3281  0.3529
17620SOL     OW56451  11.010   9.950   8.702  0.4827 -1.0765 -0.2897
17620SOL    HW156452  11.085   9.933   8.646  0.1663 -2.7503 -0.2710
17620SOL    HW256453  11.046   9.958   8.790  1.0056  1.7694 -0.6849
17621SOL     OW56454   2.691   9.135  10.377 -0.2545  0.0585 -0.1008
17621SOL    HW156455   2.726   9.071  10.314  1.0656 -2.4125  2.8514
17621SOL    HW256456   2.600   9.109  10.389 -0.4935  0.4995 -0.9264
17622SOL     OW56457   0.163   9.303   4.930  0.1030  0.7777  0.3172
17622SOL    HW156458   0.160   9.255   4.848  0.2023 -0.0305  0.7749
17622SOL    HW256459   0.254   9.331   4.938  0.4808 -0.5266  0.9082
17623SOL     OW56460   3.619   9.228   0.353  0.4347  0.1813  0.0183
17623SOL    HW156461   3.709   9.223   0.385 -0.0901 -1.4025  1.4287
17623SOL    HW256462   3.569   9.174   0.415 -1.3029  0.1372 -1.3465
17624SOL     OW56463   1.089  10.022   6.302  0.9948 -0.5105 -0.0396
17624SOL    HW156464   1.173   9.976   6.308  1.7476  0.9752  1.4796
17624SOL    HW256465   1.113  10.112   6.278 -0.0083  0.2827  1.7674
17625SOL     OW56466   1.369   2.957   7.477  0.0140 -0.5931 -0.2678
17625SOL    HW156467   1.390   3.025   7.413 -1.6620  0.3542  0.1365
17625SOL    HW256468   1.332   2.886   7.425 -0.6036 -0.1508 -0.4386
17626SOL     OW56469   0.424   5.988   8.251 -0.0463 -0.4788  0.0314
17626SOL    HW156470   0.487   6.040   8.201 -1.5910  0.2522 -1.2277
17626SOL    HW256471   0.464   5.901   8.257  2.5012  0.6915  2.0012
17627SOL     OW56472   8.776   1.242   8.966  0.2127  0.0892 -0.3255
17627SOL    HW156473   8.856   1.291   8.947  0.0415  1.0136  1.1516
17627SOL    HW256474   8.712   1.309   8.992 -1.1116 -0.6200 -1.6128
17628SOL     OW56475   1.439   5.692   6.092 -0.1180 -0.0661  0.7682
17628SOL    HW156476   1.412   5.605   6.122  1.8214 -0.4412  1.5492
17628SOL    HW256477   1.386   5.707   6.013 -2.4649 -0.7394  2.1045
17629SOL     OW56478   1.745  10.689   4.121 -0.3080  0.1513  0.0314
17629SOL    HW156479   1.840  10.681   4.116 -0.3222 -0.4399  0.5817
17629SOL    HW256480   1.717  10.613   4.173 -1.0106  0.7026  0.4791
17630SOL     OW56481   6.282   2.517   0.226  0.8262  0.2446 -0.3170
17630SOL    HW156482   6.256   2.608   0.239  1.2984  0.4821 -0.9496
17630SOL    HW256483   6.312   2.514   0.135  0.2241 -0.6922 -0.4948
17631SOL     OW56484   0.367   7.885   5.363 -0.3492  0.8025  0.1850
17631SOL    HW156485   0.442   7.944   5.353 -1.0477  2.1682  2.3756
17631SOL    HW256486   0.401   7.800   5.335  1.3839  1.7633 -0.8502
17632SOL     OW56487   7.706  10.016   8.448  0.3153  0.0835  0.0250
17632SOL    HW156488   7.637  10.030   8.513  0.2575 -1.0527  0.2293
17632SOL    HW256489   7.760   9.946   8.485  1.7922  1.1691  0.0240
17633SOL     OW56490   3.800   6.435   4.527  0.2029  0.3700 -1.0623
17633SOL    HW156491   3.877   6.379   4.532 -0.6176 -0.7656 -0.6776
17633SOL    HW256492   3.834   6.522   4.504  1.5910 -0.0762 -0.7518
17634SOL     OW56493   9.979   3.403   4.836 -0.6412  0.7405  0.1018
17634SOL    HW156494   9.950   3.431   4.749 -1.5541  1.3637  0.5863
17634SOL    HW256495   9.927   3.456   4.897  0.3844  0.7251  1.0340
17635SOL     OW56496   3.920   3.510   4.267 -0.0894  0.5333  0.7815
17635SOL    HW156497   4.016   3.510   4.267 -0.0461 -1.4744  1.3707
17635SOL    HW256498   3.896   3.421   4.244 -1.8381  1.0781  0.3836
17636SOL     OW56499   0.505   8.064   2.760 -0.1072  0.5790 -0.2180
17636SOL    HW156500   0.586   8.114   2.762  0.3358  0.1337 -3.0878
17636SOL    HW256501   0.516   7.997   2.828  2.3328  0.0172 -1.0488
17637SOL     OW56502   1.816   9.044   0.390  0.1402 -0.0409  0.1645
17637SOL    HW156503   1.743   8.982   0.389 -0.5223  0.6928  0.8806
17637SOL    HW256504   1.889   8.996   0.351 -0.4016 -1.2020  0.5206
17638SOL     OW56505   8.037   4.168   2.878 -0.5371  0.1661  0.1641
17638SOL    HW156506   8.017   4.192   2.787  0.4750  0.1827 -0.0621
17638SOL    HW256507   7.951   4.164   2.921 -0.9987  0.5239 -0.6989
17639SOL     OW56508   9.746   2.283   4.774 -0.6750  0.1097  0.2016
17639SOL    HW156509   9.797   2.206   4.799 -0.2624  0.6443  1.0560
17639SOL    HW256510   9.690   2.300   4.849 -1.4226  0.1153 -0.3419
17640SOL     OW56511  10.373   8.900   2.920  0.0127  0.1606 -0.1448
17640SOL    HW156512  10.409   8.980   2.881 -0.6315 -0.4076 -2.0332
17640SOL    HW256513  10.413   8.829   2.870  1.9567 -0.8754  2.6376
17641SOL     OW56514  10.540   6.065   0.616 -0.1180  0.2351 -0.8862
17641SOL    HW156515  10.565   6.038   0.704 -0.5691  0.2314 -0.7542
17641SOL    HW256516  10.589   6.145   0.600  1.1542 -0.5902 -1.2418
17642SOL     OW56517   9.778   0.669   1.317 -0.1042 -0.2074  0.7417
17642SOL    HW156518   9.753   0.698   1.405  1.0966  0.6264  0.8406
17642SOL    HW256519   9.873   0.684   1.313  0.0643 -1.4057 -0.2705
17643SOL     OW56520   2.619   0.466   9.929 -0.4893  0.0178  0.1499
17643SOL    HW156521   2.614   0.501  10.018 -0.1101  0.4280  0.0119
17643SOL    HW256522   2.649   0.540   9.876 -2.9384  0.4789 -0.7187
17644SOL     OW56523  10.729   5.118   9.753 -0.5977 -0.1377 -0.3344
17644SOL    HW156524  10.698   5.146   9.839 -0.4946  0.5350 -0.5037
17644SOL    HW256525  10.820   5.148   9.749 -0.1192 -1.5067 -0.1011
17645SOL     OW56526   7.625   3.946   1.287  0.0447 -0.4971 -0.0022
17645SOL    HW156527   7.636   4.039   1.309  0.5970 -0.5870  0.1283
17645SOL    HW256528   7.538   3.941   1.247  0.8846  0.4709 -2.0927
17646SOL     OW56529   8.708   7.842   9.538  0.2072 -0.0069 -1.0647
17646SOL    HW156530   8.677   7.828   9.448 -0.4195  0.1175 -0.8755
17646SOL    HW256531   8.749   7.759   9.562  1.5104  0.3692 -1.8939
17647SOL     OW56532   8.719   1.470   6.810 -0.1595  0.1609 -0.2308
17647SOL    HW156533   8.700   1.408   6.740 -0.3224 -0.0697  0.0161
17647SOL    HW256534   8.803   1.509   6.785  1.4252 -2.2058  0.9912
17648SOL     OW56535   8.940   2.929   7.609  0.1056 -0.6087  0.0516
17648SOL    HW156536   8.996   2.894   7.679 -0.4600  0.1290  0.8839
17648SOL    HW256537   8.985   3.008   7.579 -2.2088  2.2166  3.3229
17649SOL     OW56538   2.467   1.084   0.401 -0.6603 -0.2955  0.3742
17649SOL    HW156539   2.479   0.997   0.438 -0.5048  0.4629  2.2438
17649SOL    HW256540   2.378   1.083   0.366 -0.6507 -1.2102  0.3535
17650SOL     OW56541   0.363   9.386  10.430 -0.2193 -0.4899  0.2763
17650SOL    HW156542   0.425   9.419  10.364 -0.5221  0.1913  0.3235
17650SOL    HW256543   0.326   9.307  10.391  0.0183 -0.4003 -0.1348
17651SOL     OW56544   6.586   5.428   5.775 -0.1951  0.0186 -0.3437
17651SOL    HW156545   6.658   5.447   5.714  0.5846  0.2333  0.6108
17651SOL    HW256546   6.608   5.477   5.854  0.1152 -2.1410  1.0091
17652SOL     OW56547   4.463  10.231   7.688  0.0441  0.1178 -0.0071
17652SOL    HW156548   4.495  10.272   7.768 -0.1616  0.5938 -0.1637
17652SOL    HW256549   4.536  10.176   7.658  0.0468 -0.2174  0.6094
17653SOL     OW56550   1.484   1.678   4.555  0.5159 -0.5351 -0.2345
17653SOL    HW156551   1.482   1.713   4.466  0.5679 -0.2346 -0.1175
17653SOL    HW256552   1.414   1.723   4.601  2.4895  1.7522  0.7736
17654SOL     OW56553   4.214   0.369   9.664  0.2832 -0.6639  0.1485
17654SOL    HW156554   4.268   0.416   9.601  0.8330 -1.9447 -0.3644
17654SOL    HW256555   4.227   0.416   9.747  0.9244 -0.0145 -0.3085
17655SOL     OW56556  10.538   6.775   7.732 -0.0668 -0.3605  0.2117
17655SOL    HW156557  10.589   6.846   7.771 -1.5568  1.6662 -1.3249
17655SOL    HW256558  10.455   6.775   7.778 -0.3000 -0.7369 -0.1907
17656SOL     OW56559   1.615   6.501   4.252  0.0945 -0.6250 -0.2503
17656SOL    HW156560   1.627   6.558   4.176  1.5855  1.2586  1.3080
17656SOL    HW256561   1.524   6.513   4.277 -0.4821 -1.4307 -1.7999
17657SOL     OW56562   9.614   2.333   1.687  0.3521  0.0135  0.1270
17657SOL    HW156563   9.670   2.363   1.614 -1.4152  0.4408 -1.1174
17657SOL    HW256564   9.539   2.292   1.644 -0.6468  0.1022  1.7265
17658SOL     OW56565   0.330   8.522   3.226  0.0772 -0.2238  0.0801
17658SOL    HW156566   0.404   8.490   3.175 -0.2796 -0.3556 -0.3619
17658SOL    HW256567   0.322   8.459   3.298 -0.1572 -0.7210 -0.3692
17659SOL     OW56568   7.490   9.537   7.036  0.0465 -0.3484  0.3637
17659SOL    HW156569   7.486   9.447   7.003 -2.5794 -0.2210  0.1345
17659SOL    HW256570   7.444   9.589   6.970  1.7661  1.2396  0.3580
17660SOL     OW56571   5.709   8.146  10.972 -0.3632  0.1378  0.4664
17660SOL    HW156572   5.758   8.151  10.890 -1.5722 -0.5175 -0.3162
17660SOL    HW256573   5.777   8.132  11.039  0.6123  0.3906 -0.4362
17661SOL     OW56574   0.054   4.982   6.408  0.4351 -0.0145  0.1877
17661SOL    HW156575   0.046   5.040   6.484 -0.6063 -1.3381  1.1247
17661SOL    HW256576  -0.029   4.990   6.363  0.3159 -0.6950  0.2750
17662SOL     OW56577   0.970   3.057   5.494 -0.3280 -0.2387 -0.1119
17662SOL    HW156578   1.020   2.986   5.535  0.8421  0.7645  0.2877
17662SOL    HW256579   0.917   3.093   5.565  2.2285  1.9645  0.8837
17663SOL     OW56580   7.417   9.051   7.306 -0.0831  0.1479 -0.5535
17663SOL    HW156581   7.421   9.131   7.358 -1.5750 -0.3396  0.3754
17663SOL    HW256582   7.509   9.028   7.290  0.3809  1.2150  0.4653
17664SOL     OW56583   9.520   9.242   8.832 -0.3763 -0.0441 -0.3726
17664SOL    HW156584   9.503   9.313   8.770 -0.2496 -0.3445 -0.7521
17664SOL    HW256585   9.591   9.276   8.887 -0.6824  0.3361 -0.2056
17665SOL     OW56586   9.801   4.178   0.114  0.2013 -0.1787 -0.1161
17665SOL    HW156587   9.776   4.261   0.075  1.6592  2.6864  4.2473
17665SOL    HW256588   9.732   4.159   0.178  0.7371 -1.4220  0.1390
17666SOL     OW56589   3.146   9.188   0.799  0.2105  0.0499  0.2848
17666SOL    HW156590   3.111   9.186   0.889 -1.1526  1.6286 -0.1526
17666SOL    HW256591   3.230   9.234   0.808 -0.2150  0.7839  0.7003
17667SOL     OW56592   4.100   7.369   3.756  0.4413 -0.5135 -0.4064
17667SOL    HW156593   4.056   7.428   3.817 -2.4907 -0.6667 -2.1942
17667SOL    HW256594   4.080   7.281   3.787  0.0111 -0.5760 -0.8373
17668SOL     OW56595   8.262   9.268   7.043 -0.6281 -0.7544  0.4448
17668SOL    HW156596   8.333   9.227   7.093 -0.1344  0.2159  0.5548
17668SOL    HW256597   8.218   9.325   7.106 -2.0168 -1.8992  0.5825
17669SOL     OW56598   9.366   2.711   5.634  0.4436 -0.5958  0.3674
17669SOL    HW156599   9.275   2.716   5.606  0.5833  2.4715  0.1445
17669SOL    HW256600   9.413   2.671   5.560 -0.4489 -0.6435 -0.1802
17670SOL     OW56601   2.506   7.861   4.142 -0.0908 -0.2384  0.7438
17670SOL    HW156602   2.511   7.785   4.083  1.2620  1.6066 -1.7262
17670SOL    HW256603   2.477   7.933   4.086  0.9966  1.5839  2.3931
17671SOL     OW56604   9.261  10.674   7.720 -0.0223 -0.4565  0.2353
17671SOL    HW156605   9.166  10.663   7.723 -0.3869  1.2460 -2.0392
17671SOL    HW256606   9.293  10.590   7.689 -0.8670 -0.8385  0.3637
17672SOL     OW56607   8.853   8.110   6.912  0.0576 -0.3515  0.9969
17672SOL    HW156608   8.928   8.158   6.879  0.7493 -0.9371  1.6733
17672SOL    HW256609   8.890   8.030   6.949 -1.0413 -1.4369 -0.1045
17673SOL     OW56610   8.736   6.637   6.339 -0.3967  0.1136 -0.4630
17673SOL    HW156611   8.792   6.710   6.365  2.4502 -1.8753 -0.4732
17673SOL    HW256612   8.738   6.578   6.414 -0.6099 -1.0361 -1.3362
17674SOL     OW56613   6.594   3.746   6.386  0.1064 -0.1196  0.4744
17674SOL    HW156614   6.506   3.754   6.350  0.0384 -1.4591  0.3298
17674SOL    HW256615   6.649   3.796   6.326 -0.6715  1.7148  1.1744
17675SOL     OW56616   5.535   7.369   6.624  0.2645  0.5346  0.3738
17675SOL    HW156617   5.490   7.452   6.606  3.0759  2.3618  1.1383
17675SOL    HW256618   5.555   7.333   6.537  1.6837  2.2952 -0.0976
17676SOL     OW56619   1.581   3.787   1.681 -0.1618  0.3091  0.2764
17676SOL    HW156620   1.587   3.876   1.648  1.4955 -0.0861 -0.5988
17676SOL    HW256621   1.664   3.773   1.728 -1.1375 -0.1986  1.9203
17677SOL     OW56622  11.020   0.599   7.817 -0.4669  0.4491 -0.2585
17677SOL    HW156623  10.952   0.563   7.874 -1.0965 -0.0147 -1.2721
17677SOL    HW256624  10.982   0.679   7.782  0.1678  1.0749  0.4517
17678SOL     OW56625   2.562   6.071   0.220  0.2447 -0.5588  0.1312
17678SOL    HW156626   2.488   6.011   0.224 -0.4322  0.2903  1.0239
17678SOL    HW256627   2.522   6.158   0.221  1.1615 -0.0571 -1.8160
17679SOL     OW56628   7.785   0.982   5.610  0.1478 -0.1502 -0.0798
17679SOL    HW156629   7.839   0.974   5.688 -0.8917 -0.6684  0.5993
17679SOL    HW256630   7.780   1.077   5.594  0.3872 -0.0472  0.4568
17680SOL     OW56631   4.672   9.758   8.783 -0.5910  0.1058 -0.1638
17680SOL    HW156632   4.731   9.819   8.828  0.6935 -0.3309 -1.1935
17680SOL    HW256633   4.719   9.735   8.703 -2.0556 -0.4956 -0.8702
17681SOL     OW56634   9.566   0.901   9.214  0.4644  0.1030  0.4196
17681SOL    HW156635   9.619   0.971   9.252  2.2043 -0.8463 -0.1641
17681SOL    HW256636   9.617   0.821   9.228 -0.1819 -0.6706 -1.3329
17682SOL     OW56637   4.083   1.535   3.140  0.4391  0.1773  0.3209
17682SOL    HW156638   4.090   1.564   3.049 -0.5227  1.9300  0.7602
17682SOL    HW256639   4.030   1.455   3.135 -1.0739  1.1737 -0.5486
17683SOL     OW56640   8.655   3.242   8.738 -0.5219 -1.1390  0.0766
17683SOL    HW156641   8.604   3.306   8.690 -0.7157 -1.6320 -0.3877
17683SOL    HW256642   8.746   3.259   8.712 -0.7156 -2.0982 -1.3435
17684SOL     OW56643   8.975   3.577   9.765 -0.4254  0.1477 -0.2916
17684SOL    HW156644   8.967   3.560   9.859  1.5125 -0.8049 -0.2475
17684SOL    HW256645   8.949   3.668   9.755  0.3045  0.5704  1.3294
17685SOL     OW56646   4.998   8.084   9.139  0.1736  0.2404  0.1744
17685SOL    HW156647   5.028   8.150   9.077 -0.5422 -0.2878 -0.7661
17685SOL    HW256648   4.928   8.037   9.092 -0.4857 -0.0814  1.4268
17686SOL     OW56649  10.321   8.143   5.952  0.0255  0.0356  0.1969
17686SOL    HW156650  10.309   8.066   5.897 -3.5370  1.3125 -1.1174
17686SOL    HW256651  10.266   8.127   6.029 -1.4630  1.5233 -0.4940
17687SOL     OW56652   6.502   9.002   0.345  0.3103  0.6465  0.0718
17687SOL    HW156653   6.475   8.997   0.437 -0.4465 -0.9283 -0.2008
17687SOL    HW256654   6.514   8.911   0.319  1.5215  1.1182 -1.1196
17688SOL     OW56655   7.959   9.244   7.799  0.5390 -0.2249 -0.9068
17688SOL    HW156656   7.899   9.184   7.754  0.6134 -0.3535 -0.8337
17688SOL    HW256657   8.011   9.284   7.730 -1.2100  1.6645 -1.2508
17689SOL     OW56658   7.466   4.832   7.592 -0.2222  0.1357  0.0847
17689SOL    HW156659   7.454   4.912   7.541  1.1197 -0.6633 -1.6090
17689SOL    HW256660   7.561   4.818   7.592 -0.2898 -0.5545  1.8312
17690SOL     OW56661   7.904   4.808   5.753  0.4074  0.3445 -0.2882
17690SOL    HW156662   7.859   4.726   5.774  2.0923 -1.1516 -2.1006
17690SOL    HW256663   7.951   4.831   5.833  1.4845 -1.6067 -0.2925
17691SOL     OW56664   7.787   6.988   4.929 -0.1730 -0.6914 -0.0002
17691SOL    HW156665   7.739   7.059   4.971 -1.0141 -1.8149  1.0072
17691SOL    HW256666   7.835   7.030   4.858 -0.7482  0.8506  0.4894
17692SOL     OW56667  10.408   5.622   6.017  0.3431 -0.5307  0.0170
17692SOL    HW156668  10.424   5.531   6.041  0.8644 -0.6264 -0.6789
17692SOL    HW256669  10.485   5.669   6.048  0.0983 -0.3344  0.3281
17693SOL     OW56670   9.411   1.843   8.446 -0.4078 -0.1463  0.4514
17693SOL    HW156671   9.465   1.764   8.445  0.6958  0.5912 -0.1070
17693SOL    HW256672   9.380   1.852   8.356  0.4247  0.6806  0.2380
17694SOL     OW56673   4.648   6.161   0.012  0.2882  0.5738  0.0421
17694SOL    HW156674   4.610   6.111   0.084  0.3780 -3.0264 -2.2037
17694SOL    HW256675   4.741   6.169   0.034  0.2272 -0.0824  0.5615
17695SOL     OW56676   6.429   2.234   5.139  0.4544  0.1774 -0.1424
17695SOL    HW156677   6.523   2.232   5.153  0.8096 -0.9625 -2.2848
17695SOL    HW256678   6.415   2.310   5.082  0.1061  0.1734 -0.0655
17696SOL     OW56679  10.842   5.720   2.796 -0.0646 -0.4521  0.1142
17696SOL    HW156680  10.762   5.671   2.776 -0.3169 -0.1839  0.4383
17696SOL    HW256681  10.817   5.812   2.787  0.2880 -0.3721 -0.0676
17697SOL     OW56682  10.478   1.454   8.428  0.4340 -0.2608 -0.3469
17697SOL    HW156683  10.444   1.533   8.387  0.5206 -0.9076 -1.7094
17697SOL    HW256684  10.492   1.479   8.520  0.9118  1.4386 -0.8470
17698SOL     OW56685   1.052   2.974   2.772  0.1148 -0.0402  0.2541
17698SOL    HW156686   1.071   2.914   2.700 -1.9081 -1.1615  0.5755
17698SOL    HW256687   1.121   2.957   2.836 -1.2987 -3.4366  1.1089
17699SOL     OW56688   3.049   7.081   4.399  0.0304  0.2943  0.2110
17699SOL    HW156689   3.044   7.027   4.478 -0.0778 -2.1143 -1.3527
17699SOL    HW256690   3.132   7.057   4.358 -1.9673 -2.2205 -2.8182
17700SOL     OW56691   4.484   9.930   9.366 -0.1276  0.7661 -0.1394
17700SOL    HW156692   4.529   9.984   9.302 -0.3227  0.5704 -0.4466
17700SOL    HW256693   4.436   9.865   9.314  2.6068 -1.7791  0.2137
17701SOL     OW56694   9.105   4.469   0.949 -0.0816 -0.4087  0.0986
17701SOL    HW156695   9.131   4.385   0.987  1.2190  0.2003  0.5914
17701SOL    HW256696   9.187   4.515   0.932 -0.7210  0.3265 -1.2166
17702SOL     OW56697   6.943   3.859   9.204  0.5129  0.3125 -0.1086
17702SOL    HW156698   6.950   3.877   9.110 -2.6176  4.2189  0.1087
17702SOL    HW256699   6.993   3.930   9.245 -0.2188  0.1250  1.1544
17703SOL     OW56700  10.756   3.018  11.017 -0.3333 -0.3813 -0.1155
17703SOL    HW156701  10.712   3.047  11.097  0.3895 -1.1273  0.5718
17703SOL    HW256702  10.687   2.974  10.967 -0.3504 -1.8758  1.1224
17704SOL     OW56703   4.441  10.361   8.629  0.2577 -0.0621 -0.4249
17704SOL    HW156704   4.395  10.349   8.546  2.1845 -0.3686 -1.5381
17704SOL    HW256705   4.465  10.272   8.656  1.4925  0.1586 -0.7094
17705SOL     OW56706   6.900   2.283   6.316  0.3908  0.3004  0.1412
17705SOL    HW156707   6.898   2.252   6.226  0.3913  1.5948 -0.3363
17705SOL    HW256708   6.981   2.249   6.353 -0.3638 -1.5769  0.1859
17706SOL     OW56709   9.947   6.077   1.713 -0.0504  0.4629  0.1186
17706SOL    HW156710   9.914   6.151   1.663  0.5478 -1.3341 -3.2788
17706SOL    HW256711   9.873   6.050   1.768 -1.1292  1.9583 -0.5431
17707SOL     OW56712   8.936   6.613   1.518  0.6469  0.4199 -0.7719
17707SOL    HW156713   8.897   6.536   1.477  1.8003  0.1485 -1.4307
17707SOL    HW256714   8.948   6.675   1.446  1.0321  0.6544 -0.5119
17708SOL     OW56715   2.357  10.380  10.231  0.0853  0.0154  0.2513
17708SOL    HW156716   2.321  10.293  10.217 -0.1090  0.0209  0.7042
17708SOL    HW256717   2.358  10.391  10.326 -0.4059  0.7146  0.1858
17709SOL     OW56718   8.660   4.512   2.531  0.3227 -0.5188 -1.0376
17709SOL    HW156719   8.599   4.564   2.480 -0.6055 -0.0151  0.5429
17709SOL    HW256720   8.617   4.498   2.615  1.8986 -1.1279 -0.2815
17710SOL     OW56721  10.576   0.083   2.753  0.0458 -0.6381 -0.3845
17710SOL    HW156722  10.604   0.002   2.798  1.2969  0.6704  1.3296
17710SOL    HW256723  10.586   0.063   2.660  1.4480 -2.1027  0.0311
17711SOL     OW56724   9.639  10.250   7.759  0.0704 -0.0812  0.2961
17711SOL    HW156725   9.725  10.251   7.716 -0.5509 -0.7193 -1.0196
17711SOL    HW256726   9.631  10.337   7.798  0.8748  0.3763 -0.5010
17712SOL     OW56727   8.008   9.641   6.242  0.3593  0.0709 -0.1272
17712SOL    HW156728   7.994   9.636   6.337 -1.1068 -0.3156 -0.3290
17712SOL    HW256729   7.961   9.564   6.208  1.5437 -0.2395 -1.1040
17713SOL     OW56730   6.441   6.802   9.905  0.5070 -0.6099  0.8411
17713SOL    HW156731   6.507   6.830   9.841  0.4814 -0.3672  0.9201
17713SOL    HW256732   6.452   6.862   9.978 -2.2042  1.8619 -0.5735
17714SOL     OW56733  10.476   9.946   1.789 -0.1487 -0.2868 -0.2629
17714SOL    HW156734  10.424   9.917   1.714 -0.3628  1.1429 -0.7105
17714SOL    HW256735  10.431   9.911   1.865 -0.4015 -1.0720 -0.7640
17715SOL     OW56736   1.487   9.731   5.850  0.6274  0.4115 -0.1092
17715SOL    HW156737   1.491   9.822   5.878 -0.0885  0.7685 -1.1314
17715SOL    HW256738   1.575   9.697   5.867  1.2139  1.5837 -0.6903
17716SOL     OW56739   7.880   8.323   9.658  0.0637 -0.4297  0.0323
17716SOL    HW156740   7.809   8.381   9.632 -0.8778 -0.7573  1.7448
17716SOL    HW256741   7.946   8.335   9.590 -0.6640  1.6052 -0.4063
17717SOL     OW56742   2.729   1.029   5.421  0.1068  0.2233 -0.1409
17717SOL    HW156743   2.803   1.039   5.361  0.7669  1.6619  0.8435
17717SOL    HW256744   2.762   0.970   5.489 -0.2189 -0.4159 -0.5265
17718SOL     OW56745  10.119   0.854   0.034 -0.0785  0.0823 -0.1449
17718SOL    HW156746  10.047   0.912   0.009  0.6931  0.1947 -2.3298
17718SOL    HW256747  10.083   0.799   0.103 -1.5935  1.5114  0.2710
17719SOL     OW56748   4.622   6.505   5.665  0.0852  0.6283  0.1282
17719SOL    HW156749   4.570   6.508   5.745  0.5001 -1.4326  0.5321
17719SOL    HW256750   4.699   6.453   5.689  1.3814  1.9378 -0.9887
17720SOL     OW56751   7.710   9.843   5.816 -0.1473  0.0257 -0.6132
17720SOL    HW156752   7.725   9.933   5.785  3.3856 -0.3884 -0.4322
17720SOL    HW256753   7.721   9.848   5.911 -2.6869 -0.2199 -0.2177
17721SOL     OW56754   8.235   1.130   8.814  0.1708 -0.0224  0.5252
17721SOL    HW156755   8.218   1.146   8.907 -3.5319  1.2239 -0.2088
17721SOL    HW256756   8.244   1.217   8.776 -2.0663 -0.2645 -0.7598
17722SOL     OW56757  10.035   3.934   5.874  0.6630  0.2009 -0.2036
17722SOL    HW156758  10.027   3.848   5.915  1.3452  0.2129 -0.0381
17722SOL    HW256759   9.960   3.984   5.907 -0.1650 -0.5633 -0.8833
17723SOL     OW56760   2.930   5.310   5.079 -0.0528 -0.3667  0.1258
17723SOL    HW156761   2.985   5.237   5.107 -1.0538 -0.8524  0.8791
17723SOL    HW256762   2.935   5.373   5.151  1.8663  0.9607 -1.0764
17724SOL     OW56763   5.850   6.815   5.755 -0.1161  0.2032  0.1089
17724SOL    HW156764   5.854   6.797   5.661 -0.3855 -2.2670  0.5066
17724SOL    HW256765   5.771   6.868   5.766 -0.4701 -0.0729 -0.9840
17725SOL     OW56766  11.050   8.990   4.073 -0.1386  0.0550 -0.0321
17725SOL    HW156767  11.092   9.071   4.044 -2.9002  1.7916  0.4491
17725SOL    HW256768  10.969   8.985   4.021  0.0690 -2.6032 -0.2517
17726SOL     OW56769   5.925   3.027   5.026  0.3270  0.3915 -0.4828
17726SOL    HW156770   5.992   3.085   4.989  1.7557 -0.8998 -0.0491
17726SOL    HW256771   5.952   3.014   5.117 -1.3235  0.9408  0.1154
17727SOL     OW56772   2.933   2.729   8.859  0.4895  0.2607 -0.1253
17727SOL    HW156773   2.857   2.677   8.883  1.3794 -0.6630  0.8202
17727SOL    HW256774   2.916   2.815   8.898 -1.2729  0.9567 -2.2195
17728SOL     OW56775   9.406   2.987   2.832  0.0273 -0.1022 -0.3166
17728SOL    HW156776   9.331   2.941   2.795  0.1646 -2.4078  1.9637
17728SOL    HW256777   9.426   3.056   2.769 -3.6787  0.3342 -1.2571
17729SOL     OW56778   7.540   2.546   3.136 -0.2257 -0.0778  0.3124
17729SOL    HW156779   7.510   2.475   3.079 -2.0928  0.7877  0.1416
17729SOL    HW256780   7.473   2.551   3.205 -0.1849  1.5503  0.2764
17730SOL     OW56781   3.845   8.684  10.233  0.2647  0.2459 -0.5769
17730SOL    HW156782   3.782   8.672  10.162  0.6243  1.1072 -1.0569
17730SOL    HW256783   3.827   8.773  10.266 -0.6631 -0.5323  1.1939
17731SOL     OW56784   0.041   5.734   4.247  0.4348 -0.0462  0.2184
17731SOL    HW156785   0.095   5.673   4.297  1.4780  0.9326  0.3367
17731SOL    HW256786  -0.032   5.756   4.305  0.5643 -0.4552  0.5376
17732SOL     OW56787   0.429   5.444   7.382 -0.0978 -0.1629  0.0490
17732SOL    HW156788   0.518   5.463   7.351  0.3547 -0.3266  1.2011
17732SOL    HW256789   0.430   5.469   7.474 -1.1236 -0.6047  0.1939
17733SOL     OW56790   8.652   6.186   8.082 -0.7088  0.0787  0.1814
17733SOL    HW156791   8.617   6.112   8.131 -1.1820 -0.7375 -1.3583
17733SOL    HW256792   8.671   6.152   7.995 -1.5420  1.8943 -0.7741
17734SOL     OW56793  10.002  10.945   0.874 -0.0145 -0.9764 -0.2347
17734SOL    HW156794  10.065  11.008   0.839 -0.2501 -0.9951 -0.7067
17734SOL    HW256795   9.940  10.999   0.923 -0.3566 -0.7973 -0.8424
17735SOL     OW56796   7.390   9.850   5.858  0.8047 -0.2143 -0.2193
17735SOL    HW156797   7.377   9.762   5.892  1.3414 -0.4521 -0.6167
17735SOL    HW256798   7.484   9.858   5.846  0.9272  0.9261  1.1520
17736SOL     OW56799   3.229   6.958   8.760 -0.0044 -0.0755 -0.0667
17736SOL    HW156800   3.309   6.917   8.727  0.0176  0.2772 -0.4685
17736SOL    HW256801   3.260   7.023   8.824 -0.0270 -0.5242  0.4092
17737SOL     OW56802   7.578   3.031   6.154 -0.3721 -0.1350 -0.2649
17737SOL    HW156803   7.634   2.958   6.129 -2.7557 -2.3554  0.5435
17737SOL    HW256804   7.550   3.070   6.071  0.7793 -0.2149 -0.7021
17738SOL     OW56805   8.893   4.398   2.444  0.1148 -0.0932 -0.2807
17738SOL    HW156806   8.808   4.422   2.481  0.1500 -0.7289  0.2275
17738SOL    HW256807   8.872   4.347   2.366  0.0132 -0.8558  0.2335
17739SOL     OW56808   0.774   3.066   2.779 -0.6757  0.4815 -0.3510
17739SOL    HW156809   0.860   3.023   2.782 -0.5147  0.7972 -0.3896
17739SOL    HW256810   0.724   3.014   2.716 -0.8118 -0.2427  0.3489
17740SOL     OW56811   6.673   1.700  10.228 -0.0870  0.0103  0.2986
17740SOL    HW156812   6.601   1.730  10.284 -0.5672  0.9779 -0.7916
17740SOL    HW256813   6.631   1.670  10.148  0.7389  1.6613 -0.8158
17741SOL     OW56814   5.500  10.134   3.653  0.0328 -0.4415  0.2064
17741SOL    HW156815   5.426  10.084   3.688 -0.7683 -0.0117 -0.7952
17741SOL    HW256816   5.501  10.214   3.706  1.5233 -1.6026  2.0256
17742SOL     OW56817   6.882   0.241   7.142 -0.0547  0.2032 -0.4721
17742SOL    HW156818   6.802   0.284   7.112 -0.8553 -0.0018  1.2916
17742SOL    HW256819   6.852   0.164   7.191  1.2797 -0.8887 -1.2515
17743SOL     OW56820  10.965   6.549   7.394 -0.0784 -0.1680 -0.3771
17743SOL    HW156821  10.899   6.563   7.326 -0.7848  0.7642  0.4670
17743SOL    HW256822  10.976   6.635   7.435  0.9456 -0.5304  0.1486
17744SOL     OW56823   0.026   3.750   3.833  0.2283  0.4790  0.1906
17744SOL    HW156824   0.017   3.805   3.755 -0.8129 -1.5129 -1.1864
17744SOL    HW256825   0.112   3.773   3.868  0.7321  1.4579 -1.5416
17745SOL     OW56826   3.320   1.627   8.502 -0.6337 -0.1487  0.2375
17745SOL    HW156827   3.279   1.671   8.576  0.5585 -0.0117  0.8515
17745SOL    HW256828   3.313   1.689   8.429 -0.6504  0.2588  0.5868
17746SOL     OW56829   6.508  10.729   8.412  0.1004 -0.4188  0.0191
17746SOL    HW156830   6.539  10.708   8.500 -0.0875  1.9800  0.7336
17746SOL    HW256831   6.413  10.720   8.417 -0.4408  3.7291  1.4715
17747SOL     OW56832   9.172   7.749   1.983 -0.1476 -0.1695 -0.0445
17747SOL    HW156833   9.211   7.746   1.896  0.9108  3.0965  0.1618
17747SOL    HW256834   9.246   7.759   2.043 -0.9627  1.5116  0.7911
17748SOL     OW56835   9.819   5.923   2.310  0.1621 -0.3082  0.7598
17748SOL    HW156836   9.863   5.987   2.365  0.0855  1.1506 -0.7951
17748SOL    HW256837   9.890   5.865   2.280  0.3233 -0.6102  1.6744
17749SOL     OW56838   1.404   1.448   7.793  0.0253 -0.2577 -0.9180
17749SOL    HW156839   1.445   1.530   7.764 -1.1078  0.4669 -0.5507
17749SOL    HW256840   1.477   1.389   7.808  1.0304  1.3197  0.7656
17750SOL     OW56841   6.802   7.717   7.078  0.4404 -0.5667  0.5178
17750SOL    HW156842   6.823   7.727   7.170 -0.9362 -0.0339  0.8082
17750SOL    HW256843   6.803   7.623   7.062  0.4529 -0.6734  1.1360
17751SOL     OW56844   1.725   0.227   1.734 -0.1820  0.2526 -0.0404
17751SOL    HW156845   1.659   0.159   1.742  0.0377  0.0569  0.1283
17751SOL    HW256846   1.684   0.305   1.772 -0.4577  0.2337 -0.2983
17752SOL     OW56847   9.827   1.429   4.025  0.2134  0.0688 -0.2336
17752SOL    HW156848   9.807   1.523   4.019  0.0526  0.0131 -0.6578
17752SOL    HW256849   9.742   1.388   4.042  0.5167  0.1318  1.6732
17753SOL     OW56850   4.509   2.253   1.490  0.2992 -0.1577 -0.0185
17753SOL    HW156851   4.601   2.249   1.465  0.5577  2.1765  0.3296
17753SOL    HW256852   4.507   2.220   1.579  0.6802 -0.8766 -0.2695
17754SOL     OW56853   2.919   4.905   3.939 -0.5415 -0.1896  0.0958
17754SOL    HW156854   2.951   4.988   3.975 -1.1693  0.5462 -0.9685
17754SOL    HW256855   2.968   4.894   3.858  0.0418 -1.2313  0.5836
17755SOL     OW56856   2.162   1.188   3.876  0.4560  0.5324 -0.0646
17755SOL    HW156857   2.080   1.183   3.925  1.6521  1.2346  2.2111
17755SOL    HW256858   2.204   1.104   3.891  1.0909  0.9651  0.6559
17756SOL     OW56859   7.797   9.491   8.392 -0.4875  0.5232  0.2729
17756SOL    HW156860   7.833   9.420   8.445  0.0255 -1.5610 -2.6116
17756SOL    HW256861   7.703   9.487   8.408 -0.4552 -0.7868  0.2624
17757SOL     OW56862  10.250   7.784   0.363 -0.0739 -0.5108 -0.1839
17757SOL    HW156863  10.225   7.722   0.294  0.2480 -0.1592 -0.6185
17757SOL    HW256864  10.300   7.852   0.318  0.5263 -0.5098  0.4639
17758SOL     OW56865  11.048   1.989   0.871  0.1167  0.3385  0.4476
17758SOL    HW156866  10.966   2.027   0.841 -0.5539 -1.2177  0.2023
17758SOL    HW256867  11.032   1.969   0.964 -0.2017 -0.9643  0.1338
17759SOL     OW56868  10.381   8.634   0.705  0.4830  0.4389 -0.1330
17759SOL    HW156869  10.289   8.652   0.723  0.4008 -0.2452  0.1401
17759SOL    HW256870  10.388   8.539   0.702  1.3927  0.4436  1.0151
17760SOL     OW56871   9.118   5.458   0.681  0.1197  0.0348 -0.2557
17760SOL    HW156872   9.212   5.454   0.669  0.2947 -1.1414  1.2670
17760SOL    HW256873   9.103   5.426   0.770 -1.4728  3.0035  0.7063
17761SOL     OW56874   0.533   9.039  10.223 -0.1646  0.6199 -0.2416
17761SOL    HW156875   0.493   8.952  10.218 -2.1262  1.4150  0.3966
17761SOL    HW256876   0.575   9.051  10.137  0.8177 -1.2237 -0.0572
17762SOL     OW56877   3.594   5.697   8.456  0.3755  0.0934  0.3440
17762SOL    HW156878   3.547   5.769   8.497 -0.0405  0.1926 -0.3020
17762SOL    HW256879   3.592   5.627   8.522 -0.9646 -0.0192  0.2157
17763SOL     OW56880   9.260   8.388   7.438 -0.2437  0.7922 -0.2432
17763SOL    HW156881   9.250   8.483   7.431  0.6691  0.8659 -0.6129
17763SOL    HW256882   9.171   8.354   7.426 -0.6597  1.6171  0.3711
17764SOL     OW56883   8.770   6.479   3.424  0.7521  0.2981 -0.4836
17764SOL    HW156884   8.676   6.463   3.434  0.9051  0.5942  2.6061
17764SOL    HW256885   8.776   6.563   3.378 -0.4528 -0.1418 -1.4720
17765SOL     OW56886   7.735   5.313   1.125 -0.1620 -0.3458  0.4012
17765SOL    HW156887   7.687   5.231   1.132 -0.4553 -0.1786  0.3632
17765SOL    HW256888   7.673   5.374   1.086  0.4826 -0.4517 -0.8255
17766SOL     OW56889   7.639   2.033   8.980 -0.2122 -0.0248  0.5662
17766SOL    HW156890   7.578   1.961   8.992  0.2007 -0.3513  0.7381
17766SOL    HW256891   7.722   1.991   8.956  0.1344  0.3657  1.0417
17767SOL     OW56892  10.510   6.942   3.525  0.0407 -0.5875  0.3089
17767SOL    HW156893  10.471   7.020   3.562  1.4980 -0.8077  2.4737
17767SOL    HW256894  10.463   6.928   3.442 -1.9181  1.1327  1.0604
17768SOL     OW56895   9.058   2.152  10.024  0.1551  0.1682  0.2427
17768SOL    HW156896   9.094   2.241  10.018 -0.6108  0.5582  1.1255
17768SOL    HW256897   9.134   2.097  10.042  0.5200  0.7565  0.5547
17769SOL     OW56898   1.085   2.322   6.941 -0.6043 -0.0727  0.5314
17769SOL    HW156899   1.168   2.360   6.911  0.0050 -0.9964  0.9890
17769SOL    HW256900   1.103   2.228   6.948 -1.3054 -0.1336  1.8656
17770SOL     OW56901  10.148   6.401   7.322 -0.4086 -0.2697 -0.1022
17770SOL    HW156902  10.098   6.324   7.295  0.3579 -0.3311 -1.4401
17770SOL    HW256903  10.221   6.366   7.373 -1.2595 -0.2351  1.1909
17771SOL     OW56904   3.426   4.509   0.151 -0.1844 -0.4885 -0.2427
17771SOL    HW156905   3.423   4.429   0.098  3.2022 -1.2840  0.5218
17771SOL    HW256906   3.455   4.479   0.237 -0.3991  1.3957  0.5300
17772SOL     OW56907   2.400   5.867   0.292 -0.3519 -0.3913  0.2083
17772SOL    HW156908   2.420   5.799   0.356  0.8629 -0.3709 -0.1343
17772SOL    HW256909   2.308   5.853   0.270  0.0603 -2.4119 -0.4310
17773SOL     OW56910   8.720   5.216   6.004  0.5076  0.0426 -0.2592
17773SOL    HW156911   8.798   5.268   5.987  1.0864 -0.7989 -0.2430
17773SOL    HW256912   8.731   5.184   6.094 -1.3276  2.3954  0.9065
17774SOL     OW56913   8.985   3.246   7.156  0.3952  0.5172  0.6006
17774SOL    HW156914   8.918   3.179   7.167  0.7642 -0.0673 -0.5185
17774SOL    HW256915   8.978   3.300   7.234 -0.7853 -0.0527  0.9128
17775SOL     OW56916   6.340   8.901   4.365  0.0006  0.5092  0.1460
17775SOL    HW156917   6.408   8.835   4.353  0.6626  1.1449  0.4032
17775SOL    HW256918   6.387   8.984   4.371 -0.6279  0.7482  2.4711
17776SOL     OW56919   2.747  10.027   9.063 -0.3983 -0.1266  0.7988
17776SOL    HW156920   2.789  10.080   9.131  0.5054  0.7681 -0.4126
17776SOL    HW256921   2.672  10.079   9.034 -0.3457 -0.1615  0.5982
17777SOL     OW56922   1.731   5.728   9.414  0.0563 -0.5447 -0.1939
17777SOL    HW156923   1.808   5.701   9.464  0.0610 -1.3053 -0.6000
17777SOL    HW256924   1.657   5.695   9.465 -0.0069  0.1675  0.1858
17778SOL     OW56925   5.735   0.977   8.918 -0.2656  0.2130  0.1256
17778SOL    HW156926   5.743   0.953   8.826  0.4941  2.5466 -0.4688
17778SOL    HW256927   5.821   0.958   8.955  0.0854  1.1777 -0.1608
17779SOL     OW56928   6.261   1.755   5.902 -0.2764 -0.1806  0.0655
17779SOL    HW156929   6.318   1.682   5.926 -0.1763  0.5230  2.0808
17779SOL    HW256930   6.175   1.731   5.936 -1.0162 -0.7404 -2.0180
17780SOL     OW56931   6.878   2.163  11.035 -0.5411  0.9019  0.4373
17780SOL    HW156932   6.796   2.121  11.064  0.6518 -0.4080  2.1428
17780SOL    HW256933   6.909   2.211  11.111  1.3509 -0.4106  0.5620
17781SOL     OW56934   2.886   7.570   3.591 -0.5797 -0.7950 -0.1666
17781SOL    HW156935   2.970   7.548   3.552 -0.4149 -0.3309 -0.0776
17781SOL    HW256936   2.885   7.666   3.595 -0.9635 -0.8069  0.1486
17782SOL     OW56937   7.061   8.161   7.344 -0.4242  0.0773 -0.2372
17782SOL    HW156938   7.153   8.159   7.371 -0.0021 -1.1386 -1.6242
17782SOL    HW256939   7.016   8.107   7.408 -0.0995  0.3059  0.1894
17783SOL     OW56940   7.312   3.558   8.110 -0.4931 -0.7397 -0.3572
17783SOL    HW156941   7.266   3.641   8.124 -0.5327 -0.7573 -0.3851
17783SOL    HW256942   7.243   3.495   8.092 -0.4255 -0.6763 -0.8466
17784SOL     OW56943   6.644   8.133   8.272  0.0126  0.1821 -0.8134
17784SOL    HW156944   6.714   8.117   8.335 -0.2798  1.9474  0.0322
17784SOL    HW256945   6.674   8.093   8.191  2.4558  1.6774 -0.7383
17785SOL     OW56946   0.446   3.347   2.732  0.0542  0.1133 -0.1419
17785SOL    HW156947   0.526   3.328   2.781  0.2106  0.1693 -0.3738
17785SOL    HW256948   0.417   3.433   2.765 -0.6204 -0.4723  0.8625
17786SOL     OW56949   0.351   7.065   6.582 -0.4848  0.5756 -0.2020
17786SOL    HW156950   0.285   7.077   6.650  0.9398  1.2762  1.1265
17786SOL    HW256951   0.362   7.152   6.544  0.5195  0.7385  0.4282
17787SOL     OW56952   4.596   5.391  10.181 -0.3606  0.5700 -0.3306
17787SOL    HW156953   4.691   5.389  10.182 -0.3605 -0.7397 -1.1328
17787SOL    HW256954   4.574   5.480  10.156  0.6415  0.9346  0.0367
17788SOL     OW56955   8.339   0.471   2.633 -0.4588  0.0779 -0.4504
17788SOL    HW156956   8.287   0.519   2.697  0.3710  0.3116  0.0753
17788SOL    HW256957   8.371   0.394   2.681  1.4871  1.0612 -0.0465
17789SOL     OW56958   3.497  10.396  10.973  0.5789  0.7762 -0.0306
17789SOL    HW156959   3.414  10.384  10.927 -0.0187 -1.0020  1.4021
17789SOL    HW256960   3.493  10.486  11.006 -0.2738  1.0717 -0.8954
17790SOL     OW56961   1.062   5.937   2.090 -0.2510  0.0798  0.6484
17790SOL    HW156962   0.985   5.982   2.125 -0.4892  0.6840 -0.5801
17790SOL    HW256963   1.107   5.902   2.167 -0.6609  1.4832  1.5640
17791SOL     OW56964   2.976   0.925   6.266  0.0317  0.7637 -0.0594
17791SOL    HW156965   2.969   0.846   6.320 -1.4165  0.2210 -0.9718
17791SOL    HW256966   3.012   0.991   6.324  1.3398 -0.5683  0.7232
17792SOL     OW56967   6.792  10.734   4.075  0.4714 -0.1145  0.5216
17792SOL    HW156968   6.798  10.651   4.028 -1.0183 -0.0274  0.1463
17792SOL    HW256969   6.698  10.750   4.084  0.7315  0.9545  1.6230
17793SOL     OW56970   9.855   0.575   1.766 -0.3091  0.3076  0.1662
17793SOL    HW156971   9.842   0.645   1.702 -1.3957  1.1045  1.2031
17793SOL    HW256972   9.935   0.531   1.738 -0.5387  0.8791 -1.4875
17794SOL     OW56973   5.992   4.532   3.128 -0.8092  0.4969  0.0581
17794SOL    HW156974   6.051   4.568   3.062 -0.4739 -0.5124 -0.2131
17794SOL    HW256975   6.012   4.439   3.130 -2.0524  0.2165  0.3316
17795SOL     OW56976   0.782   3.787   7.176 -0.0970  0.3583 -0.0709
17795SOL    HW156977   0.750   3.729   7.107  1.9463  0.1291 -0.9079
17795SOL    HW256978   0.776   3.875   7.139  0.9053  0.2440 -0.5518
17796SOL     OW56979   6.218   5.875   0.371 -0.0420 -0.2020  0.6927
17796SOL    HW156980   6.260   5.957   0.396 -1.8356  1.2968 -0.8414
17796SOL    HW256981   6.209   5.882   0.276 -0.8279 -1.9078  0.6104
17797SOL     OW56982  10.989   4.327   6.906  0.1373  0.5835 -0.1754
17797SOL    HW156983  11.038   4.392   6.957  1.4354 -1.3731  1.2017
17797SOL    HW256984  10.898   4.339   6.933  0.4909  1.1514  0.8105
17798SOL     OW56985   4.199   3.693   3.456 -0.4795 -0.2532 -0.0215
17798SOL    HW156986   4.242   3.748   3.521 -1.0034 -0.1099  0.2118
17798SOL    HW256987   4.160   3.754   3.394  2.1607 -0.3624 -1.9785
17799SOL     OW56988   8.819   7.913   1.506  0.5444  0.0121 -0.1380
17799SOL    HW156989   8.887   7.917   1.574  0.7802  1.1479 -0.4240
17799SOL    HW256990   8.752   7.855   1.543  0.9078  0.1996  0.8439
17800SOL     OW56991   6.954   5.205   9.697 -0.6751 -0.6745 -0.0119
17800SOL    HW156992   7.026   5.142   9.698  1.2425  1.4024  1.0908
17800SOL    HW256993   6.947   5.236   9.787 -1.4473  0.7682 -0.5288
17801SOL     OW56994   8.399   3.443  10.106 -0.2564 -0.2195  0.0268
17801SOL    HW156995   8.394   3.348  10.108  0.7961 -0.3779 -2.0537
17801SOL    HW256996   8.309   3.472  10.094 -0.7142 -0.8572  1.6379
17802SOL     OW56997   5.297  10.991   2.414 -0.6375 -0.0745  0.1234
17802SOL    HW156998   5.383  10.952   2.400 -0.7309 -1.1837  2.1798
17802SOL    HW256999   5.310  11.052   2.487 -1.0157  2.0508 -1.4878
17803SOL     OW57000   2.580   9.305   3.670  0.3101  0.5484 -0.3613
17803SOL    HW157001   2.612   9.382   3.717  1.5165  0.0153 -0.2558
17803SOL    HW257002   2.632   9.304   3.589  0.0003  0.0887 -0.5548
17804SOL     OW57003   6.075   1.807   4.255  0.3495  0.2194  0.2519
17804SOL    HW157004   6.168   1.823   4.237  0.4614  0.9749  1.3538
17804SOL    HW257005   6.053   1.730   4.203  0.9988  1.3589 -1.8186
17805SOL     OW57006   2.681   5.684   8.902 -0.0045  0.3446 -0.3559
17805SOL    HW157007   2.727   5.720   8.826 -1.8402  1.0290 -1.2023
17805SOL    HW257008   2.591   5.671   8.871 -1.5112  3.0865  2.3884
17806SOL     OW57009   7.257   0.105   4.882  0.4666  0.4615 -0.7293
17806SOL    HW157010   7.342   0.074   4.850  0.7951  1.0154 -0.4015
17806SOL    HW257011   7.278   0.180   4.938 -0.2016  0.3172 -0.2713
17807SOL     OW57012   1.119   7.834   8.912 -0.8850  0.1912 -0.4870
17807SOL    HW157013   1.033   7.816   8.951 -0.4930 -2.7022 -0.7594
17807SOL    HW257014   1.130   7.766   8.846  2.0181 -0.1426  0.2218
17808SOL     OW57015   0.407   8.501   7.168 -0.5116  0.2258 -0.2754
17808SOL    HW157016   0.373   8.417   7.135 -1.3125  0.7126 -0.7291
17808SOL    HW257017   0.450   8.479   7.250 -1.0544 -0.5758 -0.1925
17809SOL     OW57018   9.166   2.269   2.384 -0.1205 -0.5381  0.1297
17809SOL    HW157019   9.251   2.238   2.354  0.0873 -0.4923  0.6579
17809SOL    HW257020   9.180   2.292   2.476 -0.7243 -0.6233  0.2484
17810SOL     OW57021   6.827   4.755   6.000 -0.3119  0.2486 -0.0604
17810SOL    HW157022   6.838   4.698   5.923  0.3976  0.3762 -0.0593
17810SOL    HW257023   6.813   4.694   6.072 -0.5466  0.1128 -0.2168
17811SOL     OW57024   3.603   1.005   0.336 -1.0953 -0.4581 -0.1894
17811SOL    HW157025   3.552   0.924   0.332 -1.7206 -0.1338  0.8148
17811SOL    HW257026   3.691   0.980   0.307 -0.4071 -2.2232  2.9093
17812SOL     OW57027   2.409   0.034   3.668  0.0963 -0.0456 -0.6754
17812SOL    HW157028   2.359   0.040   3.749  0.8488 -0.5687 -0.1591
17812SOL    HW257029   2.345   0.007   3.602  0.0006 -2.6138  0.3416
17813SOL     OW57030   6.322   2.374   5.695  0.5564 -0.6134 -0.0115
17813SOL    HW157031   6.317   2.469   5.704 -1.9419 -0.3539 -2.7369
17813SOL    HW257032   6.382   2.359   5.622  1.3454 -1.2084  0.7327
17814SOL     OW57033   4.438   1.046   5.778 -0.0113  0.6235 -0.0203
17814SOL    HW157034   4.432   1.039   5.874 -0.0286  0.2260 -0.0463
17814SOL    HW257035   4.495   0.973   5.753  0.0722  0.7882 -0.3034
17815SOL     OW57036   4.999   8.485  10.854  0.9930  0.1802  0.0562
17815SOL    HW157037   4.941   8.543  10.804  0.1317 -0.8437 -0.1716
17815SOL    HW257038   4.939   8.430  10.904  1.7958 -0.5990  0.1746
17816SOL     OW57039   6.210   7.641   6.286  0.3446  0.1516  0.1306
17816SOL    HW157040   6.219   7.715   6.346 -1.8743  1.4192 -0.9665
17816SOL    HW257041   6.166   7.677   6.209  2.2157 -1.6092 -1.9115
17817SOL     OW57042   3.302   9.641   6.661 -0.5533 -0.7957 -0.0666
17817SOL    HW157043   3.238   9.597   6.605 -0.7745 -1.2741  0.5563
17817SOL    HW257044   3.276   9.733   6.660 -1.1331 -0.9584  0.0344
17818SOL     OW57045   2.164   2.333   6.037  0.0898  0.7930  0.0343
17818SOL    HW157046   2.101   2.281   5.988 -0.8518 -0.0774  2.0607
17818SOL    HW257047   2.117   2.414   6.057 -0.5908  0.0308  1.7885
17819SOL     OW57048   3.670   2.546   8.037 -0.1670 -0.4766  0.4458
17819SOL    HW157049   3.729   2.524   7.965  0.7876  0.1549  1.0167
17819SOL    HW257050   3.594   2.489   8.023  0.2435 -0.7721 -0.7255
17820SOL     OW57051   6.737  10.260   6.359  0.4694  0.5661 -0.4171
17820SOL    HW157052   6.757  10.172   6.392  0.1040  1.0649  1.2131
17820SOL    HW257053   6.801  10.274   6.289  2.5556  0.1611  1.2829
17821SOL     OW57054   3.386   3.357   6.558 -0.1595  0.2802  0.3543
17821SOL    HW157055   3.475   3.323   6.543  0.4092  1.5760  0.6423
17821SOL    HW257056   3.388   3.389   6.648 -1.3181 -0.8044  0.7838
17822SOL     OW57057   9.958   6.373   0.625  0.0443 -0.4949 -0.0818
17822SOL    HW157058   9.959   6.395   0.718 -0.7919 -0.5589 -0.0476
17822SOL    HW257059  10.045   6.395   0.594  0.6969 -1.5220  0.9539
17823SOL     OW57060   2.708  10.889   6.904  0.0612 -0.4882 -0.0827
17823SOL    HW157061   2.658  10.903   6.984  0.3212 -1.9976  0.3696
17823SOL    HW257062   2.707  10.974   6.860 -1.3126 -0.0136  0.8137
17824SOL     OW57063   7.028   7.828   9.122  0.1192 -0.1700  0.4962
17824SOL    HW157064   7.121   7.807   9.114 -0.2869 -2.6602  1.5316
17824SOL    HW257065   7.026   7.921   9.147  2.2107  0.4234 -1.2525
17825SOL     OW57066   2.929   4.194   7.481 -0.1739 -0.5428  0.1716
17825SOL    HW157067   3.000   4.186   7.418 -0.8958  1.9241 -1.0718
17825SOL    HW257068   2.921   4.106   7.519  1.8748 -1.5052 -1.4054
17826SOL     OW57069   7.788   7.068   2.381 -0.1322  0.3471  0.2261
17826SOL    HW157070   7.813   7.091   2.471 -2.5823 -0.3382  1.1553
17826SOL    HW257071   7.695   7.089   2.376 -1.1492 -3.5116 -0.7205
17827SOL     OW57072   5.479   2.788   0.346 -0.1271  0.3703 -0.0916
17827SOL    HW157073   5.518   2.723   0.405 -1.6213 -0.7310 -0.2482
17827SOL    HW257074   5.552   2.843   0.319  1.1110 -0.9358  0.4518
17828SOL     OW57075   3.535   9.056   5.921  0.6836 -0.3428  0.3308
17828SOL    HW157076   3.514   9.006   6.000  0.2830 -1.6494 -0.5740
17828SOL    HW257077   3.625   9.032   5.900  1.7791  2.0322  1.8138
17829SOL     OW57078   0.824   7.126   1.811 -0.3859  0.3878 -0.7338
17829SOL    HW157079   0.772   7.059   1.856  1.0983  0.7357  1.6762
17829SOL    HW257080   0.762   7.197   1.794 -1.2140 -0.1507 -0.0364
17830SOL     OW57081   6.406   1.887   0.553 -0.5101  0.0839 -0.0025
17830SOL    HW157082   6.456   1.953   0.505 -0.9451 -0.1796 -0.8573
17830SOL    HW257083   6.388   1.926   0.638 -0.3383  0.8658 -0.3180
17831SOL     OW57084   6.106   2.621   9.541 -0.0006 -0.1611  0.5609
17831SOL    HW157085   6.148   2.576   9.468 -0.7674 -0.4630  0.2971
17831SOL    HW257086   6.095   2.553   9.608 -0.8834 -0.3044  0.2797
17832SOL     OW57087   1.068   1.008   4.539  0.8575 -0.4841  0.4185
17832SOL    HW157088   1.060   0.924   4.493 -3.1163  0.1015 -0.2519
17832SOL    HW257089   1.040   0.989   4.628  0.3792  0.0585  0.3821
17833SOL     OW57090   8.668  10.860   6.259 -0.2128 -0.1057  0.0528
17833SOL    HW157091   8.735  10.804   6.297  0.8155  1.5498  0.7760
17833SOL    HW257092   8.712  10.944   6.243 -2.2187  1.2587  1.1532
17834SOL     OW57093   7.365   0.397   6.049 -0.0707 -0.1328 -0.2566
17834SOL    HW157094   7.417   0.477   6.053 -2.3520  1.4506 -0.1754
17834SOL    HW257095   7.383   0.351   6.131  0.6936  0.6749  0.0346
17835SOL     OW57096   8.672   2.345  10.992  0.4409 -0.2950 -0.4377
17835SOL    HW157097   8.638   2.344  11.081 -0.5779  0.5973 -0.8007
17835SOL    HW257098   8.607   2.297  10.941  1.7431 -2.1179 -0.4841
17836SOL     OW57099   2.225   6.470   1.960 -0.0769  0.9234  0.0670
17836SOL    HW157100   2.239   6.548   2.013  1.5882  0.3284  0.5665
17836SOL    HW257101   2.186   6.406   2.020  2.9890 -0.1931  1.0973
17837SOL     OW57102   8.684   2.428   9.570 -0.0833 -0.0304 -0.2609
17837SOL    HW157103   8.595   2.422   9.605 -1.1318  2.8722 -2.0500
17837SOL    HW257104   8.683   2.372   9.493 -0.2065 -0.3220 -0.0518
17838SOL     OW57105   9.470   8.293   0.582  0.0562  0.8978 -0.1129
17838SOL    HW157106   9.454   8.247   0.665 -1.9868  1.2231 -0.2673
17838SOL    HW257107   9.470   8.223   0.517  1.4242  0.6677  0.1049
17839SOL     OW57108   1.458  10.946   1.294  0.3045  0.1177 -0.0612
17839SOL    HW157109   1.388  10.888   1.321 -0.0223  0.4674 -0.1481
17839SOL    HW257110   1.415  11.013   1.240  0.5280  0.9180  0.7206
17840SOL     OW57111   8.487   7.563   6.069  0.0384 -0.8072  0.2064
17840SOL    HW157112   8.559   7.601   6.019  1.1427 -1.2141  1.4087
17840SOL    HW257113   8.474   7.623   6.142 -0.7351 -0.8330  0.0991
17841SOL     OW57114   1.374   0.092   3.469  0.3505  0.4322 -0.9358
17841SOL    HW157115   1.340   0.006   3.493 -2.5571  1.8972  0.8008
17841SOL    HW257116   1.419   0.123   3.547  0.0060  1.0818 -0.9838
17842SOL     OW57117   2.818   1.268   6.811  0.6087  0.2185 -0.2538
17842SOL    HW157118   2.855   1.347   6.772  1.9034 -0.3046 -0.1398
17842SOL    HW257119   2.816   1.287   6.905  2.3812 -0.4041 -0.0410
17843SOL     OW57120   4.089   3.689   9.567 -0.2640 -0.0690 -0.1378
17843SOL    HW157121   4.138   3.607   9.569  2.1682  1.3036  0.5643
17843SOL    HW257122   4.088   3.715   9.475  1.3330  0.3822 -0.0622
17844SOL     OW57123   3.987   4.445   0.277 -0.7022  0.2038  0.2909
17844SOL    HW157124   4.079   4.419   0.277 -0.9526 -0.7533 -0.3693
17844SOL    HW257125   3.976   4.492   0.194 -0.9171 -0.1189  0.1337
17845SOL     OW57126   0.478   9.881   0.860  0.4627  0.0997  0.1920
17845SOL    HW157127   0.515   9.970   0.866 -1.2117  0.7994  0.7367
17845SOL    HW257128   0.389   9.890   0.895  0.3989 -1.8982  0.6465
17846SOL     OW57129   8.625   7.424   2.613  1.0784 -0.2196 -0.3010
17846SOL    HW157130   8.621   7.477   2.534 -0.1322 -0.1329 -0.2009
17846SOL    HW257131   8.534   7.396   2.627  1.3999 -0.8062  0.6639
17847SOL     OW57132   3.485   3.020   4.462  0.4643 -0.1491 -0.1770
17847SOL    HW157133   3.451   3.039   4.374  0.9104 -0.0669 -0.3324
17847SOL    HW257134   3.449   2.934   4.484 -0.8783  0.4775  0.1779
17848SOL     OW57135   6.403   0.658   4.848 -0.3250 -0.4649 -0.3616
17848SOL    HW157136   6.471   0.709   4.805 -0.3647  1.1405  1.3315
17848SOL    HW257137   6.446   0.576   4.872  0.5536 -0.1237 -0.7474
17849SOL     OW57138  10.069   8.488   2.373 -0.1324 -0.3605 -0.3534
17849SOL    HW157139  10.042   8.462   2.285  0.8007  2.0872 -1.4792
17849SOL    HW257140   9.987   8.512   2.417 -0.5738 -1.2562 -0.6794
17850SOL     OW57141   8.679   4.059   8.693  0.2713 -0.3745  0.2000
17850SOL    HW157142   8.625   4.058   8.772  0.9250  0.0320  0.6595
17850SOL    HW257143   8.750   3.998   8.711  1.8501  1.5966  0.9763
17851SOL     OW57144  11.066   4.223   5.855 -0.2855 -0.0494  0.4263
17851SOL    HW157145  11.113   4.302   5.882  1.9845 -0.8714 -0.9120
17851SOL    HW257146  11.091   4.210   5.763 -2.4422 -1.0736 -0.0887
17852SOL     OW57147   0.423   4.752   9.103 -0.6907 -0.0026  0.1656
17852SOL    HW157148   0.442   4.663   9.133  5.1906  0.2904 -1.3873
17852SOL    HW257149   0.439   4.806   9.180 -0.5655 -0.1345  0.2349
17853SOL     OW57150   7.062   5.468   7.391  0.7823  0.6896 -0.3239
17853SOL    HW157151   7.088   5.552   7.430  2.4754  1.3210 -2.6266
17853SOL    HW257152   7.020   5.492   7.309  0.4453 -0.7123 -0.5863
17854SOL     OW57153   4.974   0.051  10.798 -0.0712 -0.0604 -0.3503
17854SOL    HW157154   4.894   0.008  10.827 -0.2679 -0.2993 -1.2165
17854SOL    HW257155   4.963   0.061  10.703 -0.0598  1.9466 -0.1913
17855SOL     OW57156   6.896   4.058   7.977 -0.2688  0.5094  0.5045
17855SOL    HW157157   6.991   4.065   7.986  0.3112 -2.5921 -1.6599
17855SOL    HW257158   6.868   4.012   8.055 -0.3938  3.0747  2.0909
17856SOL     OW57159   3.258   4.176   7.856  0.5050 -0.4192  0.3718
17856SOL    HW157160   3.320   4.130   7.913  1.1950 -0.6867 -0.5713
17856SOL    HW257161   3.235   4.111   7.790  0.2116  0.0909 -0.0277
17857SOL     OW57162   9.185   8.456   0.199  0.2391  0.3487  0.0696
17857SOL    HW157163   9.143   8.538   0.174 -1.7650 -0.7999 -0.5578
17857SOL    HW257164   9.186   8.457   0.294  0.2951  1.1336  0.0612
17858SOL     OW57165   0.961  10.946   6.032 -0.3088  0.3352  0.1983
17858SOL    HW157166   0.941  11.024   5.980  0.7235  0.1639 -0.4726
17858SOL    HW257167   1.047  10.918   6.002  0.9611  0.9914  2.9023
17859SOL     OW57168   6.375   9.602   2.887  0.1882 -0.1952 -0.4952
17859SOL    HW157169   6.439   9.557   2.942  2.0034  0.0452 -2.3174
17859SOL    HW257170   6.310   9.534   2.866 -0.0830 -0.4968  1.2050
17860SOL     OW57171   2.157   8.974   3.185 -0.2875 -0.3303 -0.1996
17860SOL    HW157172   2.120   9.039   3.245  0.1987 -0.2538  0.0217
17860SOL    HW257173   2.130   8.890   3.221 -1.5338 -0.2485 -0.8854
17861SOL     OW57174   8.375   3.775   8.982 -0.2876  0.1506  0.1031
17861SOL    HW157175   8.378   3.684   9.010 -0.8058  0.1600  0.1909
17861SOL    HW257176   8.292   3.808   9.017 -0.2432  0.5700 -0.1907
17862SOL     OW57177   7.899   0.685   7.476  0.0404  0.0312 -0.1049
17862SOL    HW157178   7.961   0.752   7.446 -0.3934  0.3198 -0.3529
17862SOL    HW257179   7.818   0.704   7.430  0.5087 -2.0245 -1.9163
17863SOL     OW57180   2.160   0.081   6.990 -0.7340  0.1396 -0.0184
17863SOL    HW157181   2.102   0.010   7.019 -0.7935  0.1969  0.0024
17863SOL    HW257182   2.108   0.160   7.001 -0.8976  0.1206 -0.6600
17864SOL     OW57183   7.813   0.309   3.280  0.1432 -0.2048  0.7198
17864SOL    HW157184   7.828   0.402   3.297 -3.5365  0.2732  2.3447
17864SOL    HW257185   7.865   0.263   3.346  0.0995  0.8150  1.4724
17865SOL     OW57186   2.737  10.041  10.719  0.5798 -0.1090 -0.1035
17865SOL    HW157187   2.752  10.102  10.791  0.6142 -0.5813  0.2933
17865SOL    HW257188   2.800  10.067  10.652  0.3301  0.5318 -0.0905
17866SOL     OW57189   3.603   1.897   1.264  0.4516  0.1089 -0.7197
17866SOL    HW157190   3.603   1.990   1.242 -0.3766  0.6850  1.4813
17866SOL    HW257191   3.675   1.887   1.326 -0.0826 -0.5078 -0.1811
17867SOL     OW57192   3.005   6.708   5.385 -0.0812 -0.3962  0.2959
17867SOL    HW157193   2.959   6.627   5.409 -0.5151  0.3598  2.1624
17867SOL    HW257194   3.096   6.691   5.409  0.0135 -0.6808 -0.2503
17868SOL     OW57195   0.471   8.123   1.126 -0.3119 -0.3467  0.3180
17868SOL    HW157196   0.462   8.217   1.141  0.0511 -0.3285  0.4374
17868SOL    HW257197   0.548   8.098   1.178  0.2541 -0.5084 -0.5813
17869SOL     OW57198   5.496   8.077   8.597 -0.3064  0.3413  0.2957
17869SOL    HW157199   5.523   8.042   8.682  0.1218  1.3947  0.6053
17869SOL    HW257200   5.446   8.156   8.618 -1.0846  0.0541 -0.3986
17870SOL     OW57201   5.693   7.463   4.974  0.3312  0.1929  0.6340
17870SOL    HW157202   5.696   7.519   5.052 -0.5946  0.2052  0.6716
17870SOL    HW257203   5.630   7.506   4.917 -0.1641 -0.6508  0.5322
17871SOL     OW57204  10.866   6.301  10.289  0.1632  0.0952 -0.0019
17871SOL    HW157205  10.791   6.294  10.348  0.2780 -1.6981 -0.0098
17871SOL    HW257206  10.917   6.374  10.323 -0.5906  0.1013  1.1758
17872SOL     OW57207   2.416   3.129   7.290  0.0784  0.0561  0.1918
17872SOL    HW157208   2.502   3.094   7.316 -0.4179 -0.0806  1.7129
17872SOL    HW257209   2.364   3.051   7.270  0.1332  0.1159 -0.1918
17873SOL     OW57210   3.971  10.645   6.171 -0.1173  0.1731  0.2955
17873SOL    HW157211   3.897  10.679   6.122  0.7847  0.3471 -1.0017
17873SOL    HW257212   3.944  10.651   6.263 -1.2909  1.1747 -0.0860
17874SOL     OW57213  10.611   1.490   6.980 -0.0743 -0.2165  0.1338
17874SOL    HW157214  10.631   1.414   6.924  2.0728  2.0425 -2.5038
17874SOL    HW257215  10.696   1.513   7.019  0.3351  2.9175 -2.1906
17875SOL     OW57216   3.576   3.997   2.254  0.0656  0.4005 -0.2070
17875SOL    HW157217   3.671   4.004   2.242 -0.0094  3.5553  0.0512
17875SOL    HW257218   3.552   4.077   2.300 -2.7433 -0.2947 -0.2853
17876SOL     OW57219   0.648   9.079   9.414  0.3458  0.0231 -0.1428
17876SOL    HW157220   0.740   9.073   9.388  0.9975 -2.0302  2.2029
17876SOL    HW257221   0.602   9.019   9.355  0.5338  0.7944 -1.0973
17877SOL     OW57222   2.868   3.067   0.398 -0.2218  0.4398 -0.3975
17877SOL    HW157223   2.902   3.053   0.309 -0.5500  2.1450 -0.8321
17877SOL    HW257224   2.773   3.056   0.389 -0.5553  3.0215 -0.8628
17878SOL     OW57225   9.527   0.511   1.227  0.2523 -0.0974  0.3248
17878SOL    HW157226   9.486   0.540   1.309  1.8353 -1.0673  1.5007
17878SOL    HW257227   9.608   0.562   1.221  2.1034 -2.7141  1.4330
17879SOL     OW57228   5.490   1.562   3.332 -0.2150  0.3829  0.4067
17879SOL    HW157229   5.525   1.622   3.398 -1.7221  1.7083  0.0581
17879SOL    HW257230   5.423   1.512   3.378  0.8535 -0.8843  0.6269
17880SOL     OW57231   0.793   9.577   5.478  0.3518  0.4443 -0.1603
17880SOL    HW157232   0.887   9.578   5.495  0.2790  0.0519  0.2841
17880SOL    HW257233   0.759   9.507   5.533 -0.3838  1.4147  0.6715
17881SOL     OW57234   3.783   1.833   5.640 -0.0254  0.3451  0.0446
17881SOL    HW157235   3.825   1.765   5.692  0.2253  0.2736 -0.2466
17881SOL    HW257236   3.807   1.813   5.549 -1.0260  0.0769 -0.1659
17882SOL     OW57237   8.148   7.928  10.244 -0.3173 -0.0584  0.5743
17882SOL    HW157238   8.217   7.879  10.290  0.0313 -1.6469 -1.4711
17882SOL    HW257239   8.196   7.983  10.182 -0.7989 -1.3336 -1.0181
17883SOL     OW57240   2.868  11.065  10.360  0.2316  0.1478 -0.0154
17883SOL    HW157241   2.919  11.018  10.294 -0.1276 -0.1183 -0.1048
17883SOL    HW257242   2.929  11.077  10.433  0.8924  1.2209 -0.7270
17884SOL     OW57243  10.943   8.912   0.400  0.5794 -0.1726  0.1745
17884SOL    HW157244  10.918   8.964   0.323 -0.0400 -0.5667  0.1027
17884SOL    HW257245  10.893   8.831   0.392 -0.9777  0.5160  1.9387
17885SOL     OW57246   7.745   9.054   6.641 -0.1097  0.6241  0.0399
17885SOL    HW157247   7.746   9.112   6.564 -1.0551  0.4388 -0.1266
17885SOL    HW257248   7.674   8.992   6.623 -1.7916  1.8468  1.9817
17886SOL     OW57249   5.416  10.001   1.780  0.2158  0.0327  0.2131
17886SOL    HW157250   5.369  10.011   1.697  0.4127  0.1006  0.1084
17886SOL    HW257251   5.472  10.079   1.785 -0.6206  0.5936  0.9472
17887SOL     OW57252   0.781   9.024   0.371  0.0738  0.1456  0.0744
17887SOL    HW157253   0.746   9.014   0.459  1.0017 -1.3265  0.3007
17887SOL    HW257254   0.725   8.969   0.316  0.3023  0.0230 -0.0359
17888SOL     OW57255   4.336   7.434   4.155  0.2076  0.0869 -0.0798
17888SOL    HW157256   4.429   7.447   4.136  0.1240  0.4347 -0.2695
17888SOL    HW257257   4.302   7.523   4.166  0.1082 -0.0748  1.0262
17889SOL     OW57258   9.984   7.982   0.628  0.2670 -0.0356  0.0092
17889SOL    HW157259   9.974   8.062   0.679  1.7470 -0.6090  1.3146
17889SOL    HW257260   9.951   8.004   0.541  0.4905  1.9484  0.3734
17890SOL     OW57261   8.925   0.621  10.463  0.0806  0.4104 -0.6317
17890SOL    HW157262   8.922   0.595  10.371 -0.1769  1.5722 -0.9643
17890SOL    HW257263   8.889   0.545  10.509 -0.4079  0.0590 -1.5466
17891SOL     OW57264   5.834   1.301   8.625 -0.0349 -0.3754  0.5678
17891SOL    HW157265   5.744   1.279   8.604  0.3151 -2.1810  0.8061
17891SOL    HW257266   5.883   1.279   8.546  0.4001 -0.9021  0.9799
17892SOL     OW57267   6.613  10.728   2.362  0.6337  0.3344  0.3444
17892SOL    HW157268   6.576  10.776   2.437  1.1962  1.1960  0.0847
17892SOL    HW257269   6.707  10.747   2.366  0.5985  0.8253 -0.8780
17893SOL     OW57270   6.472   5.379   4.643 -0.0550 -0.2892 -0.0771
17893SOL    HW157271   6.513   5.298   4.612  1.5509 -0.4860  2.2912
17893SOL    HW257272   6.449   5.361   4.734 -0.4885  1.6532  0.2485
17894SOL     OW57273   5.693   8.441   9.479 -0.0015 -0.6578 -0.5691
17894SOL    HW157274   5.699   8.355   9.439  1.6510 -0.4755 -0.7917
17894SOL    HW257275   5.765   8.443   9.542  0.6384  0.9037 -1.2920
17895SOL     OW57276   5.536   3.964   3.322  0.2796 -0.4911 -0.3223
17895SOL    HW157277   5.463   4.018   3.352  1.8568  1.9565 -0.5975
17895SOL    HW257278   5.556   3.907   3.397  0.0859  1.0012  0.9010
17896SOL     OW57279   1.024   7.448   7.039 -0.4364 -0.2417 -0.5394
17896SOL    HW157280   1.039   7.394   7.117  0.7859 -0.9989 -1.2636
17896SOL    HW257281   0.986   7.529   7.073 -0.3875 -0.7478  0.7926
17897SOL     OW57282   6.480   4.898   7.694  0.3578 -0.0441 -0.5750
17897SOL    HW157283   6.551   4.919   7.755 -0.6270  1.1327  0.2222
17897SOL    HW257284   6.477   4.802   7.692  2.9115 -0.1696 -1.8002
17898SOL     OW57285   9.168   9.688   8.223 -0.4117 -0.3639 -0.0289
17898SOL    HW157286   9.089   9.654   8.264 -0.1220 -1.5212 -0.4058
17898SOL    HW257287   9.201   9.752   8.286 -1.6728  0.2024  0.0981
17899SOL     OW57288   0.778   9.245   5.373  0.3069  0.4418  0.7943
17899SOL    HW157289   0.809   9.323   5.326  1.0109 -1.1579 -1.5783
17899SOL    HW257290   0.799   9.262   5.465  3.7900  1.5857 -0.0576
17900SOL     OW57291   7.189   4.797   5.180  0.2958  0.0740  0.2441
17900SOL    HW157292   7.227   4.711   5.162 -0.1752 -0.0205 -0.3273
17900SOL    HW257293   7.254   4.860   5.148  1.3400 -0.0119  2.0240
17901SOL     OW57294   4.555   0.800   7.812 -0.3460 -0.1526  0.6857
17901SOL    HW157295   4.599   0.859   7.873 -0.8120  0.6411  0.2594
17901SOL    HW257296   4.534   0.854   7.736 -0.7154 -0.8804  0.2571
17902SOL     OW57297   5.696   9.420   9.626 -1.0440  0.3768 -0.1342
17902SOL    HW157298   5.644   9.500   9.620 -1.0448  0.4279  0.4426
17902SOL    HW257299   5.737   9.411   9.540  0.2043  1.8564  0.2499
17903SOL     OW57300  10.400   1.357   9.926 -0.3640  0.0970 -0.0193
17903SOL    HW157301  10.405   1.330  10.017  0.9781 -0.5331 -0.2574
17903SOL    HW257302  10.366   1.280   9.880  1.0773 -0.3749 -0.3426
17904SOL     OW57303  11.066   3.785   8.045  0.2220  0.0872  0.5143
17904SOL    HW157304  11.139   3.824   7.995  0.1044  1.4072  1.3108
17904SOL    HW257305  11.100   3.701   8.074  0.3907 -0.6191 -1.5301
17905SOL     OW57306   2.652   5.928   0.469  0.2770  0.0022  0.2691
17905SOL    HW157307   2.677   6.002   0.525 -1.2297  1.2902 -0.6659
17905SOL    HW257308   2.618   5.969   0.389  0.6548 -1.7524 -0.8424
17906SOL     OW57309   8.506   1.787   2.980 -0.2549  0.1438  0.4769
17906SOL    HW157310   8.470   1.824   3.060 -0.0367  1.6083 -0.0705
17906SOL    HW257311   8.433   1.785   2.919 -0.2428 -0.2721  0.4709
17907SOL     OW57312   4.135   4.164   5.390 -0.4165  0.8210  0.6487
17907SOL    HW157313   4.217   4.114   5.395 -0.9082 -0.1401 -0.3782
17907SOL    HW257314   4.163   4.254   5.374  0.4503  0.1607 -2.0731
17908SOL     OW57315   0.650   8.325   9.369  1.0085 -0.3847 -0.2587
17908SOL    HW157316   0.608   8.300   9.451  2.5038  0.1438  0.6974
17908SOL    HW257317   0.729   8.271   9.365  1.8299  0.7849 -0.4904
17909SOL     OW57318   8.951   7.177   0.212 -0.0430  0.0149 -0.0565
17909SOL    HW157319   8.979   7.088   0.234 -0.8144 -0.0875  0.5570
17909SOL    HW257320   8.859   7.169   0.190 -0.2444  0.7269  0.4684
17910SOL     OW57321   3.108   0.036   3.554 -0.2460  0.3295 -0.0001
17910SOL    HW157322   3.034   0.065   3.607 -1.0506 -1.6794  0.0642
17910SOL    HW257323   3.166  -0.008   3.616  0.2528  0.5241 -0.3207
17911SOL     OW57324   4.229   5.603   0.890  0.0079  0.2350 -0.2887
17911SOL    HW157325   4.177   5.664   0.838 -0.2831 -1.2270 -1.7965
17911SOL    HW257326   4.164   5.551   0.938  0.2552  1.0974  1.0466
17912SOL     OW57327  10.762   4.981   6.567 -0.3932 -0.3725  0.3287
17912SOL    HW157328  10.693   5.034   6.607  0.7031  1.1231  0.3140
17912SOL    HW257329  10.765   5.010   6.476  2.2119  1.8101  0.9998
17913SOL     OW57330   4.016   9.644  10.559 -0.0815 -0.2910  0.1718
17913SOL    HW157331   3.988   9.558  10.590  0.5388 -0.2855  0.7636
17913SOL    HW257332   3.938   9.682  10.520 -0.6406 -0.6731  0.9009
17914SOL     OW57333   1.959   1.490   0.518  0.2879 -0.1443 -0.8222
17914SOL    HW157334   2.029   1.539   0.475 -1.2421  1.4417 -1.6335
17914SOL    HW257335   1.879   1.537   0.495 -0.9992 -1.5117  0.6018
17915SOL     OW57336   1.002   9.902   8.737  0.8000  0.3382  0.3072
17915SOL    HW157337   0.969   9.992   8.744  1.7480  0.9013 -1.8362
17915SOL    HW257338   1.018   9.889   8.644  2.0875 -1.5603  0.7398
17916SOL     OW57339   7.504   2.727   1.756 -0.8817  0.4637  0.5067
17916SOL    HW157340   7.552   2.691   1.831  1.8853 -0.0884 -1.3824
17916SOL    HW257341   7.512   2.822   1.765  0.9240  0.3891  0.1073
17917SOL     OW57342   9.853   3.651   7.992  0.6703 -0.4279  0.2157
17917SOL    HW157343   9.812   3.614   8.071 -0.8345  0.0045 -0.3273
17917SOL    HW257344   9.944   3.622   7.997  0.6845 -0.1754  2.2531
17918SOL     OW57345  10.184   6.317   7.627 -0.1785 -0.0390 -0.4560
17918SOL    HW157346  10.249   6.248   7.636 -0.0248  0.2781  1.2222
17918SOL    HW257347  10.235   6.397   7.612 -0.1827  0.1364  0.4027
17919SOL     OW57348   7.689  10.059   3.950 -0.1303  0.4674 -0.0219
17919SOL    HW157349   7.645  10.001   3.887  2.5089 -1.0632 -0.6348
17919SOL    HW257350   7.652  10.145   3.933 -0.7171 -0.1877 -2.5758
17920SOL     OW57351   9.325   1.117   0.809  0.1387 -0.2450 -0.3537
17920SOL    HW157352   9.390   1.054   0.839 -1.8235 -2.6965 -0.9171
17920SOL    HW257353   9.331   1.189   0.871  1.0004 -1.9824  1.7084
17921SOL     OW57354   8.094   7.320   8.525 -0.5455  0.5450  0.0257
17921SOL    HW157355   8.120   7.408   8.551 -0.6411  0.5420  0.1342
17921SOL    HW257356   8.176   7.271   8.517 -0.5597  0.2866  1.2620
17922SOL     OW57357  10.273   0.906   3.463 -0.7251 -0.1503  0.1618
17922SOL    HW157358  10.241   0.942   3.545  2.0476  2.5787  0.2145
17922SOL    HW257359  10.325   0.829   3.490  0.0111  0.6098  0.9768
17923SOL     OW57360   3.662   6.119   1.699 -0.2577 -1.0381 -0.7174
17923SOL    HW157361   3.650   6.129   1.793 -0.3620 -1.2500 -0.7064
17923SOL    HW257362   3.652   6.207   1.664  1.4053 -0.6818 -0.3663
17924SOL     OW57363   3.266   7.553   2.683 -0.2586 -0.6214 -0.3346
17924SOL    HW157364   3.350   7.599   2.683 -0.9858  0.8049  1.1553
17924SOL    HW257365   3.216   7.594   2.753 -1.3553 -3.0547  0.4212
17925SOL     OW57366   7.599   7.204   9.261 -0.4498  0.0111 -0.1615
17925SOL    HW157367   7.529   7.164   9.209 -0.5269  0.5208 -0.4606
17925SOL    HW257368   7.617   7.287   9.216  0.4354 -0.1721 -0.1595
17926SOL     OW57369  10.373   6.186   4.693 -0.6232 -0.5579 -0.1217
17926SOL    HW157370  10.367   6.261   4.753  1.6823 -1.7723  1.8063
17926SOL    HW257371  10.369   6.110   4.750 -1.0341 -1.8835 -1.8534
17927SOL     OW57372   6.318   6.013  10.958 -0.4132 -0.5378  0.1669
17927SOL    HW157373   6.397   6.027  11.010 -1.4176  0.5026  1.5078
17927SOL    HW257374   6.263   5.957  11.014 -1.2805  0.1047 -0.0255
17928SOL     OW57375   1.859  10.350   3.862  0.1883 -0.4808 -0.0397
17928SOL    HW157376   1.838  10.257   3.856  2.2352 -1.0129  0.2918
17928SOL    HW257377   1.916  10.357   3.938  2.4232  0.5403 -1.6868
17929SOL     OW57378   5.343   9.602   8.432  0.4772 -0.2700 -0.2663
17929SOL    HW157379   5.351   9.698   8.437  1.3619 -0.3908  1.1370
17929SOL    HW257380   5.426   9.574   8.392  0.0825 -0.4414 -0.9769
17930SOL     OW57381   9.583   2.006   7.401  0.7498 -0.4817  0.3323
17930SOL    HW157382   9.633   2.068   7.347 -0.3698  1.0352  0.9701
17930SOL    HW257383   9.649   1.966   7.458  1.5886 -0.3527 -0.5242
17931SOL     OW57384   9.063   1.298   0.184  0.2370 -0.1255 -0.3255
17931SOL    HW157385   9.009   1.238   0.236 -1.3478  1.3695 -0.1366
17931SOL    HW257386   9.074   1.253   0.100 -0.2225 -1.0118  0.0682
17932SOL     OW57387   1.129   8.354   8.616  0.3681  0.0398  0.3581
17932SOL    HW157388   1.181   8.379   8.539  0.0656 -0.8416 -0.1427
17932SOL    HW257389   1.178   8.283   8.656 -0.6125 -1.0542 -0.3300
17933SOL     OW57390   9.253   7.751   7.698  0.1297 -0.1595 -0.1538
17933SOL    HW157391   9.180   7.769   7.757  1.0269 -0.0037  0.9598
17933SOL    HW257392   9.215   7.699   7.627 -1.3250  1.1110 -0.3489
17934SOL     OW57393   9.549   5.526   8.742 -0.2827 -0.3654  0.5485
17934SOL    HW157394   9.597   5.472   8.805 -0.8097 -3.0382 -1.1757
17934SOL    HW257395   9.612   5.592   8.714  1.3939 -1.8244  0.6719
17935SOL     OW57396  10.299   1.927   0.054 -0.1468  0.2245  0.3611
17935SOL    HW157397  10.303   1.856   0.118 -1.4735 -0.4264 -0.2636
17935SOL    HW257398  10.243   1.993   0.095 -1.7408 -0.5725 -0.4549
17936SOL     OW57399   6.920   0.455  10.971  0.6971 -0.3076 -0.3873
17936SOL    HW157400   6.899   0.466  10.878  1.4910  1.7269 -0.3920
17936SOL    HW257401   6.961   0.369  10.977  1.2022 -0.2195 -2.0308
17937SOL     OW57402   3.453  10.101   6.804  0.1148 -0.6186 -0.6170
17937SOL    HW157403   3.456  10.130   6.713 -1.0215 -0.4878 -0.6257
17937SOL    HW257404   3.363  10.116   6.831  0.9616  1.7799  1.3190
17938SOL     OW57405   7.544   9.318   0.184  0.5061 -0.3198 -0.3541
17938SOL    HW157406   7.486   9.246   0.158  2.2884 -1.9330 -0.0138
17938SOL    HW257407   7.499   9.358   0.258 -0.4103 -1.2324 -0.3888
17939SOL     OW57408   8.207   6.516   5.226 -0.0881 -0.0690  0.1079
17939SOL    HW157409   8.129   6.493   5.276  0.1604 -0.7086  0.2150
17939SOL    HW257410   8.199   6.468   5.144  0.5276 -0.7025  0.4070
17940SOL     OW57411   6.652   7.562   1.310  0.0742  0.0463  0.2042
17940SOL    HW157412   6.613   7.526   1.230 -0.5802  1.2769 -0.0585
17940SOL    HW257413   6.739   7.523   1.313 -0.6832 -1.7966  0.1270
17941SOL     OW57414   7.517   0.808   3.914  0.3688 -0.0581  0.4139
17941SOL    HW157415   7.524   0.737   3.850 -1.0429  2.1846 -2.4342
17941SOL    HW257416   7.608   0.832   3.932  0.8135 -0.6564 -0.8623
17942SOL     OW57417   1.043   2.777   3.638  0.0260  0.0566  0.1402
17942SOL    HW157418   1.068   2.847   3.578 -0.8243  0.8962  0.7367
17942SOL    HW257419   1.126   2.745   3.673  0.6576 -1.2232 -2.2475
17943SOL     OW57420   9.893  10.333   6.506 -0.3398 -0.0541  0.9350
17943SOL    HW157421   9.831  10.260   6.499  0.9757 -1.2263  1.0173
17943SOL    HW257422   9.936  10.320   6.590  0.3553  0.4361  0.6701
17944SOL     OW57423   9.000   9.510   5.932 -0.1020  0.1206 -0.1361
17944SOL    HW157424   9.000   9.541   6.023 -3.4371  1.6027 -0.5170
17944SOL    HW257425   8.994   9.415   5.939 -1.9985  0.2942  1.2529
17945SOL     OW57426   9.998   5.706   9.689 -0.0342 -0.4509  0.4816
17945SOL    HW157427   9.949   5.768   9.743 -0.4052  0.0785 -0.4355
17945SOL    HW257428  10.089   5.735   9.696  0.3842 -2.0966  3.0853
17946SOL     OW57429   6.361   9.580   2.142  0.3845  0.1320  0.4020
17946SOL    HW157430   6.451   9.573   2.172 -0.1222 -2.6274  1.6485
17946SOL    HW257431   6.346   9.499   2.093 -2.1294 -0.8250  2.5267
17947SOL     OW57432   7.254   4.403   1.657 -1.0136  0.1266 -0.2343
17947SOL    HW157433   7.249   4.308   1.654 -2.2253  0.0758  1.7918
17947SOL    HW257434   7.297   4.422   1.740 -0.3420  1.3688 -0.8310
17948SOL     OW57435   4.521   8.600  10.905 -0.0379 -0.5909  0.0152
17948SOL    HW157436   4.500   8.509  10.885  0.1130 -0.2614 -1.7794
17948SOL    HW257437   4.601   8.618  10.855 -1.8786  1.4582 -2.5017
17949SOL     OW57438   0.876   9.910   8.303  0.0541 -0.8966  0.5949
17949SOL    HW157439   0.826   9.894   8.383  0.8441  1.6632  1.7046
17949SOL    HW257440   0.877   9.826   8.258 -0.7323 -2.3457  3.0930
17950SOL     OW57441  10.730   6.597   8.678  0.5091  0.2300  0.1341
17950SOL    HW157442  10.687   6.615   8.595  0.6292 -1.0361 -0.2232
17950SOL    HW257443  10.714   6.675   8.731 -1.1987  0.2831 -0.4017
17951SOL     OW57444   5.160   3.549  10.074  0.3571 -0.2170 -0.3706
17951SOL    HW157445   5.122   3.621  10.024  0.8851  1.5501  1.6285
17951SOL    HW257446   5.252   3.546  10.048  0.3624 -0.0831 -0.3643
17952SOL     OW57447   2.368   5.068   7.012 -0.0056 -0.0985  0.1514
17952SOL    HW157448   2.391   5.154   7.047 -2.4726  0.5113  0.4163
17952SOL    HW257449   2.386   5.076   6.918  0.5622  0.4076  0.2919
17953SOL     OW57450   8.567   1.684   0.764  0.0002 -0.5352 -0.2853
17953SOL    HW157451   8.574   1.739   0.686 -2.9861  0.9436  0.3274
17953SOL    HW257452   8.602   1.739   0.834 -0.1986 -0.6306 -0.1128
17954SOL     OW57453   4.311   1.576   9.657 -0.0610 -0.1779  0.0542
17954SOL    HW157454   4.225   1.614   9.675  1.0330  2.7438 -0.3467
17954SOL    HW257455   4.354   1.571   9.742  0.0626  0.2681  0.0224
17955SOL     OW57456   3.157   2.881   7.566  0.2114 -0.4831 -0.3914
17955SOL    HW157457   3.076   2.913   7.524 -0.6723 -2.0581  0.0419
17955SOL    HW257458   3.138   2.883   7.660  0.3776 -1.5729 -0.3188
17956SOL     OW57459   4.569   1.733   8.328  0.6582  0.5601  0.6620
17956SOL    HW157460   4.524   1.649   8.334  1.2726  0.3056  2.3368
17956SOL    HW257461   4.576   1.750   8.234 -3.4566  0.9598  0.2382
17957SOL     OW57462   7.548   0.425   1.087 -0.6617  0.1389 -0.6110
17957SOL    HW157463   7.486   0.497   1.095 -1.9126 -1.1027  1.6725
17957SOL    HW257464   7.610   0.438   1.159 -1.1911 -1.2735  0.1428
17958SOL     OW57465   5.473   3.920   4.843 -0.1284  0.1231  0.2018
17958SOL    HW157466   5.525   3.906   4.922  0.4424 -1.3919 -0.4029
17958SOL    HW257467   5.397   3.863   4.854 -0.5578  0.6789  0.1115
17959SOL     OW57468   7.292   2.003   0.785  0.1021  0.4203  0.1706
17959SOL    HW157469   7.206   2.016   0.827 -0.0144 -0.2928  0.1563
17959SOL    HW257470   7.287   1.916   0.746  0.6438  0.5981 -0.3026
17960SOL     OW57471  10.522   3.665   7.513  0.5450  0.2347 -0.1531
17960SOL    HW157472  10.577   3.649   7.436  0.7661  1.6843 -0.3174
17960SOL    HW257473  10.577   3.717   7.571 -0.6551  1.7963 -0.3575
17961SOL     OW57474   9.288  10.496   0.480  0.3291 -0.4724 -0.5563
17961SOL    HW157475   9.212  10.440   0.490  0.8477 -1.2418 -0.8835
17961SOL    HW257476   9.307  10.526   0.570  0.2743 -1.1116 -0.3293
17962SOL     OW57477   7.120   0.800   2.653  0.0955 -0.2458  0.0732
17962SOL    HW157478   7.127   0.734   2.584  2.1760 -0.9291  0.8507
17962SOL    HW257479   7.131   0.883   2.608 -0.0423 -0.5857 -0.6008
17963SOL     OW57480   5.219   9.264   7.568  0.0125 -0.0046 -0.2742
17963SOL    HW157481   5.251   9.315   7.643 -2.1718  2.3564 -0.8106
17963SOL    HW257482   5.132   9.234   7.595 -0.6517  0.5674 -1.6657
17964SOL     OW57483   7.789   2.657   6.418 -0.0451  0.0267  0.6225
17964SOL    HW157484   7.767   2.579   6.367 -1.4420 -0.8027  2.4036
17964SOL    HW257485   7.883   2.650   6.432  0.2001 -0.2439 -0.9360
17965SOL     OW57486   8.400   7.330   4.347  0.2692 -0.0234 -0.3926
17965SOL    HW157487   8.496   7.332   4.341  0.3205 -0.8155  0.0023
17965SOL    HW257488   8.382   7.312   4.439 -0.2149 -1.4277 -0.7373
17966SOL     OW57489   5.071   8.860   5.433 -0.5130  0.4798 -0.2615
17966SOL    HW157490   5.022   8.943   5.442 -1.1053  0.1879 -0.7442
17966SOL    HW257491   5.055   8.832   5.343  0.0925  0.0850 -0.2515
17967SOL     OW57492   7.241   1.114   4.111  0.5794 -0.5314 -0.4680
17967SOL    HW157493   7.269   1.034   4.157  1.6390 -0.0851 -0.3269
17967SOL    HW257494   7.282   1.108   4.025 -0.7085 -0.9395 -1.0949
17968SOL     OW57495   0.402   2.852   1.639 -0.1528  0.1232 -0.4057
17968SOL    HW157496   0.483   2.874   1.593  0.7360 -0.6950  0.7404
17968SOL    HW257497   0.395   2.757   1.633 -0.4590  0.0825  0.4215
17969SOL     OW57498   2.228  10.165   7.485 -0.2321 -0.5117  0.4409
17969SOL    HW157499   2.206  10.214   7.565  1.9041 -2.3744  2.3081
17969SOL    HW257500   2.205  10.074   7.505 -0.9221 -0.8529 -1.6385
17970SOL     OW57501   4.958   7.893   7.540 -0.1678 -0.5322 -0.3659
17970SOL    HW157502   5.036   7.901   7.595 -0.2481 -0.9831 -0.1876
17970SOL    HW257503   4.885   7.891   7.602 -0.4331  1.1274 -0.5692
17971SOL     OW57504   5.231   0.965   9.492 -0.6053  0.0064 -0.5128
17971SOL    HW157505   5.285   0.891   9.521 -0.5362  0.7113  1.3171
17971SOL    HW257506   5.270   0.993   9.410  0.1400 -1.1980 -0.6003
17972SOL     OW57507   4.955   0.058  10.119  0.6561  0.0185  0.0987
17972SOL    HW157508   4.946   0.045  10.024 -2.2951 -0.9579  0.4316
17972SOL    HW257509   4.869   0.036  10.155  1.1475  2.0711  2.8489
17973SOL     OW57510   1.374  10.195   2.332 -0.2267  0.2768  0.0364
17973SOL    HW157511   1.436  10.138   2.377  0.6116  1.8296  0.9223
17973SOL    HW257512   1.289  10.173   2.372  0.1058 -0.1937  0.5049
17974SOL     OW57513  10.364   0.955   5.839  0.8805  0.4653 -0.2097
17974SOL    HW157514  10.380   1.045   5.868 -0.4881  0.7475 -0.2903
17974SOL    HW257515  10.271   0.941   5.853  0.5333 -0.0405 -2.6985
17975SOL     OW57516   2.535   5.338   5.989 -0.9609 -0.2069 -0.6964
17975SOL    HW157517   2.618   5.363   5.948  0.7183 -0.8332  2.1075
17975SOL    HW257518   2.554   5.259   6.038 -2.6973  0.6724  1.5921
17976SOL     OW57519   6.757   6.390   2.570  0.4162  0.2489  0.4576
17976SOL    HW157520   6.847   6.412   2.546 -0.2174  3.1511  0.4255
17976SOL    HW257521   6.765   6.341   2.652  2.0652 -1.1518 -0.4623
17977SOL     OW57522   2.531   6.931   0.706  0.2339  0.5794 -0.2526
17977SOL    HW157523   2.526   7.011   0.758  0.2021 -0.4004  1.3195
17977SOL    HW257524   2.440   6.899   0.702  0.3973  0.0591  0.0748
17978SOL     OW57525   9.078   3.528  10.458  0.0844 -0.1154 -0.3603
17978SOL    HW157526   9.007   3.573  10.413 -0.9749 -0.1494  1.1972
17978SOL    HW257527   9.086   3.574  10.542  0.1214 -1.7164  0.5630
17979SOL     OW57528  10.927  10.270   4.753  0.1734  0.2565  0.2876
17979SOL    HW157529  10.971  10.237   4.675 -0.1863  0.3475  0.0428
17979SOL    HW257530  10.844  10.222   4.755 -0.1256  0.7672  0.2236
17980SOL     OW57531   9.758   1.764   2.955 -0.2170 -0.0564  0.1563
17980SOL    HW157532   9.700   1.713   3.013 -0.2171 -0.0675  0.1467
17980SOL    HW257533   9.733   1.736   2.867  1.9430 -2.4906  0.1839
17981SOL     OW57534   6.145   0.221   9.883  0.6135  0.1829 -0.6919
17981SOL    HW157535   6.151   0.133   9.921 -0.0108  0.9016  1.1622
17981SOL    HW257536   6.064   0.219   9.832  0.2519 -0.1293 -0.1192
17982SOL     OW57537   6.552   8.120   6.889  0.5916  0.2874  0.2148
17982SOL    HW157538   6.465   8.084   6.903  1.7906 -3.3521 -0.6159
17982SOL    HW257539   6.578   8.153   6.975 -1.1329  0.3446  0.7556
17983SOL     OW57540   8.566   9.451   0.211 -0.1879  0.5933  0.3724
17983SOL    HW157541   8.638   9.511   0.229  0.1229  0.1727  0.5572
17983SOL    HW257542   8.561   9.395   0.288 -1.1072  0.9996  0.6215
17984SOL     OW57543   2.682   5.308   2.984  0.0143  0.0889  0.4091
17984SOL    HW157544   2.736   5.229   2.983 -0.0450  0.0489  0.2990
17984SOL    HW257545   2.709   5.356   2.905 -0.6597 -0.3048 -0.0684
17985SOL     OW57546   6.336   6.995   2.823 -0.0239  0.0263  0.2683
17985SOL    HW157547   6.367   7.066   2.766  0.9123 -0.5104  0.0921
17985SOL    HW257548   6.320   6.922   2.764  1.4229 -0.6913  0.7147
17986SOL     OW57549  10.547   6.776   0.298 -0.2997 -0.6430  0.4891
17986SOL    HW157550  10.481   6.713   0.267 -1.1146  0.4708 -0.1134
17986SOL    HW257551  10.628   6.750   0.254 -0.7662 -0.8905 -0.2383
17987SOL     OW57552   0.385   3.893   3.466 -0.0542 -0.2143  0.0534
17987SOL    HW157553   0.304   3.905   3.416 -0.0419 -0.6240 -0.0676
17987SOL    HW257554   0.378   3.805   3.504  1.1136 -1.0254 -1.4459
17988SOL     OW57555   9.463   5.153   1.573  0.0544 -0.3815 -0.2178
17988SOL    HW157556   9.391   5.093   1.558 -0.2436  0.3226 -1.7783
17988SOL    HW257557   9.532   5.099   1.612 -0.7316 -1.4027 -0.2054
17989SOL     OW57558   2.154   4.274   9.443  0.4206  0.6148  0.0950
17989SOL    HW157559   2.119   4.361   9.426  0.9148  0.9490  0.7403
17989SOL    HW257560   2.092   4.214   9.400 -0.0684  1.2649 -0.1188
17990SOL     OW57561  10.902   1.945   8.984 -0.4655  0.0751  0.2899
17990SOL    HW157562  10.890   1.998   8.906  0.5078 -0.4294 -0.2217
17990SOL    HW257563  10.992   1.962   9.011 -0.7062  0.0341  1.1469
17991SOL     OW57564   6.322   3.521   7.113  0.3610 -0.2833  0.9449
17991SOL    HW157565   6.251   3.461   7.135  1.9105 -2.4891  0.3065
17991SOL    HW257566   6.380   3.470   7.056  0.9003  2.4229 -1.1428
17992SOL     OW57567   0.020   9.346   8.243  0.0307 -0.3095 -0.4676
17992SOL    HW157568   0.014   9.440   8.226  0.0951 -0.4536 -1.2899
17992SOL    HW257569  -0.040   9.306   8.180 -0.1098 -0.8142 -0.0209
17993SOL     OW57570   6.722  10.830   1.715 -0.1205  0.2920  0.4487
17993SOL    HW157571   6.747  10.782   1.636  0.4652  0.8577  0.2884
17993SOL    HW257572   6.635  10.865   1.695 -0.4725 -0.5274  0.4940
17994SOL     OW57573   7.449   3.863   9.488 -0.3875  0.1846  0.1255
17994SOL    HW157574   7.482   3.809   9.416  1.8515  1.5689  0.0270
17994SOL    HW257575   7.355   3.846   9.490 -0.5147  0.0025 -3.0541
17995SOL     OW57576  10.430   5.030   8.354 -0.0803  0.3890 -0.5447
17995SOL    HW157577  10.381   5.096   8.304 -1.1042 -0.4619 -0.7166
17995SOL    HW257578  10.515   5.070   8.370 -1.3674  2.6985  1.3079
17996SOL     OW57579   6.486   0.037   6.318  0.3593  0.0850  0.3318
17996SOL    HW157580   6.581   0.048   6.311 -0.0013  2.6428 -2.1183
17996SOL    HW257581   6.456   0.113   6.368 -0.6161  1.0732 -1.6309
17997SOL     OW57582   5.964   1.042   6.105 -0.1275 -0.3989  0.3285
17997SOL    HW157583   6.013   1.024   6.185 -0.0755  0.5925  0.5262
17997SOL    HW257584   6.011   1.115   6.064  0.0105 -1.0754 -0.7522
17998SOL     OW57585   4.353   8.695   7.069  0.1472 -0.2394  0.1193
17998SOL    HW157586   4.291   8.709   7.141  0.9987 -2.1766  1.3314
17998SOL    HW257587   4.300   8.696   6.990 -0.9052  1.4124  0.8031
17999SOL     OW57588   3.197   5.981   0.571 -0.4854  0.2079  0.2001
17999SOL    HW157589   3.201   6.051   0.506 -0.3387  1.3745  1.4251
17999SOL    HW257590   3.248   6.014   0.645  0.0518 -1.4291  0.6063
18000SOL     OW57591   8.870   7.047   4.390 -0.6275 -0.1627 -0.0028
18000SOL    HW157592   8.934   7.114   4.413 -0.6558  0.2035 -0.9529
18000SOL    HW257593   8.915   6.964   4.406 -0.1517  0.0920 -0.0097
18001SOL     OW57594   9.469   1.850   0.580  0.1117  0.1977 -0.3184
18001SOL    HW157595   9.482   1.756   0.567 -1.2608  0.0692 -0.9403
18001SOL    HW257596   9.491   1.889   0.496  0.0748  0.3757 -0.2458
18002SOL     OW57597   7.764   5.359   3.335 -0.1606  0.2035 -0.6688
18002SOL    HW157598   7.691   5.415   3.363 -0.3645 -0.3151 -0.1501
18002SOL    HW257599   7.755   5.280   3.387  1.9700  0.9339  0.9461
18003SOL     OW57600   8.688   9.954   1.915 -0.1534 -0.0274  0.2109
18003SOL    HW157601   8.647   9.970   1.999  1.1300 -0.9918  1.0671
18003SOL    HW257602   8.723  10.039   1.889 -0.1755  0.1933  0.8808
18004SOL     OW57603   2.325   9.921   4.714 -0.1515  0.0021  0.5410
18004SOL    HW157604   2.413   9.925   4.677 -0.7631 -0.6516 -1.0898
18004SOL    HW257605   2.325   9.841   4.766  0.3953  0.3275  1.0483
18005SOL     OW57606   7.319  10.510   2.105  0.5774  0.9428  0.0446
18005SOL    HW157607   7.230  10.544   2.102  0.0550 -0.2487  0.9405
18005SOL    HW257608   7.370  10.579   2.147 -0.3301  0.8996  1.3026
18006SOL     OW57609   4.939   8.952   8.642  0.2276  0.4055 -0.4797
18006SOL    HW157610   5.003   8.884   8.661 -1.0707 -0.4749  1.0145
18006SOL    HW257611   4.948   9.015   8.713 -1.0210 -0.1174  0.1850
18007SOL     OW57612   3.758   7.740  10.751  0.1368 -0.1773  0.3680
18007SOL    HW157613   3.812   7.660  10.752  0.8851  0.2775 -0.9802
18007SOL    HW257614   3.754   7.767  10.843 -1.6921 -2.7390  1.1789
18008SOL     OW57615  10.932   9.245   3.491  0.1926 -0.5251  0.0731
18008SOL    HW157616  11.000   9.311   3.501 -0.8349  1.0023 -2.1955
18008SOL    HW257617  10.961   9.192   3.416 -0.9341 -0.0324 -0.7343
18009SOL     OW57618   5.702   5.292   9.832 -0.0311  0.4280 -0.2162
18009SOL    HW157619   5.661   5.339   9.904  0.1664  0.4513 -0.1181
18009SOL    HW257620   5.719   5.204   9.868 -1.0883  0.0368 -0.6350
18010SOL     OW57621  10.664   9.172   6.823 -0.1935  0.7142 -0.6204
18010SOL    HW157622  10.582   9.157   6.776  0.2310  1.2776 -1.5674
18010SOL    HW257623  10.732   9.149   6.760  0.3840  0.1911  0.1810
18011SOL     OW57624  10.487   9.192   3.599  0.1016  0.3708 -0.0567
18011SOL    HW157625  10.409   9.166   3.648  0.1851 -0.2203 -0.2310
18011SOL    HW257626  10.546   9.227   3.666  0.2994 -0.6390  0.3091
18012SOL     OW57627   4.690   6.290   8.333 -0.4094  0.0740  0.6040
18012SOL    HW157628   4.628   6.287   8.261 -0.3640  1.0691  0.5080
18012SOL    HW257629   4.753   6.221   8.314 -2.4769 -2.2751  1.6568
18013SOL     OW57630   1.777   2.242   0.775  0.2512  0.1629 -0.2075
18013SOL    HW157631   1.865   2.210   0.756 -0.6903 -1.9138 -1.3603
18013SOL    HW257632   1.727   2.222   0.696 -1.5227  0.2668  0.8484
18014SOL     OW57633   4.115   9.366   2.963  0.1463  0.8987  0.4992
18014SOL    HW157634   4.123   9.329   2.874 -0.5514 -0.4898  0.9820
18014SOL    HW257635   4.058   9.304   3.009  1.1223  1.1713  2.1495
18015SOL     OW57636   6.284  10.484   9.583 -0.4055 -0.0112  0.3330
18015SOL    HW157637   6.202  10.451   9.545 -0.3742  0.0308  0.2292
18015SOL    HW257638   6.279  10.579   9.572  0.9417 -0.1351 -2.3555
18016SOL     OW57639   0.877   7.560   5.708  0.0471  0.4256 -0.2909
18016SOL    HW157640   0.855   7.470   5.685 -1.1141  1.0576 -1.7978
18016SOL    HW257641   0.795   7.608   5.699  0.9849  1.9477 -1.1501
18017SOL     OW57642   0.005   0.084   7.265  0.3907  0.7080 -0.2344
18017SOL    HW157643   0.049   0.073   7.350  0.1826 -1.1634 -0.3303
18017SOL    HW257644   0.076   0.094   7.202  0.6216 -0.0136 -0.0964
18018SOL     OW57645  10.991  11.004   0.182  0.0759  0.7943 -0.2276
18018SOL    HW157646  11.001  11.068   0.253 -0.2873  0.6956 -0.0872
18018SOL    HW257647  10.944  10.931   0.221 -2.0498  1.6208 -1.0709
18019SOL     OW57648   6.057   9.673   8.698  0.1407  0.2175  0.5891
18019SOL    HW157649   6.123   9.700   8.762  1.0351 -2.1289  0.7658
18019SOL    HW257650   5.978   9.657   8.750  0.2031  0.4744  0.7663
18020SOL     OW57651   9.443   5.725   3.149  0.2151 -0.6452 -0.1274
18020SOL    HW157652   9.499   5.768   3.085  1.4067 -1.2140  0.5165
18020SOL    HW257653   9.388   5.795   3.184  1.6627  0.2610  0.4252
18021SOL     OW57654   2.325   7.663   3.388 -0.3102 -0.3284 -0.1533
18021SOL    HW157655   2.378   7.736   3.420  0.4706 -1.3777  1.0803
18021SOL    HW257656   2.348   7.590   3.446 -3.4631 -0.7413  0.8033
18022SOL     OW57657   9.265   4.825   6.879 -0.0855  0.0660  0.0728
18022SOL    HW157658   9.269   4.914   6.915  2.3189  0.5499 -1.1462
18022SOL    HW257659   9.233   4.837   6.790  1.7512 -0.0022 -0.6536
18023SOL     OW57660  11.057   2.458   5.936  0.0654  0.3559  0.0218
18023SOL    HW157661  11.011   2.460   6.020 -1.8368  1.4377 -0.9895
18023SOL    HW257662  11.145   2.491   5.957  0.3810 -1.5128  1.9531
18024SOL     OW57663   2.032   1.233  10.070 -0.0373  0.1427 -0.5549
18024SOL    HW157664   2.008   1.146  10.038  0.4012 -1.1292  2.2268
18024SOL    HW257665   1.956   1.262  10.121  1.1508 -0.3109  1.5783
18025SOL     OW57666   0.279   2.606  10.108  0.1143 -0.0394  0.0433
18025SOL    HW157667   0.338   2.673  10.073  0.1514 -0.6130 -1.0272
18025SOL    HW257668   0.203   2.608  10.050  0.0970 -0.8894  0.0220
18026SOL     OW57669   8.895   5.519   1.080 -0.1535  0.1984  0.1675
18026SOL    HW157670   8.819   5.473   1.045 -0.3348  0.5325  0.1199
18026SOL    HW257671   8.859   5.585   1.139  0.0759  0.6666 -0.2111
18027SOL     OW57672   2.011   5.339   7.078  0.1044 -0.1856  0.0887
18027SOL    HW157673   2.084   5.379   7.032  0.1984 -0.2787  0.1578
18027SOL    HW257674   1.974   5.409   7.132  0.2454 -0.1841  0.1815
18028SOL     OW57675  11.087   4.318   2.055  0.0105 -0.1215  0.1792
18028SOL    HW157676  11.040   4.387   2.101 -1.1036 -0.2653 -0.6865
18028SOL    HW257677  11.135   4.363   1.985 -0.8511 -0.2093 -0.4922
18029SOL     OW57678   4.039   2.788   6.445 -0.3110  0.4583  0.2319
18029SOL    HW157679   3.986   2.867   6.441  0.0723  0.7058  0.0322
18029SOL    HW257680   4.066   2.773   6.354  0.8383  0.9329  0.4850
18030SOL     OW57681   7.091   2.533   4.732 -0.0271  0.4823  0.0294
18030SOL    HW157682   7.002   2.506   4.753  0.7981 -1.9266  0.6636
18030SOL    HW257683   7.099   2.621   4.770 -1.7994  0.3369  0.8239
18031SOL     OW57684   5.789   3.537   4.554  0.1090 -0.2141 -0.1078
18031SOL    HW157685   5.818   3.465   4.611 -0.2923  0.2382  0.6759
18031SOL    HW257686   5.709   3.505   4.513  1.3594 -1.2833 -1.9155
18032SOL     OW57687   7.944   4.073  10.697  0.1381  0.2725 -0.0442
18032SOL    HW157688   8.003   3.998  10.689  0.3282 -0.0646  3.1182
18032SOL    HW257689   7.989   4.144  10.651  1.1625 -0.9133 -0.9469
18033SOL     OW57690   7.379   7.028   8.892 -0.4487  0.3863 -0.0200
18033SOL    HW157691   7.451   7.048   8.832 -2.3257 -0.9060 -2.9108
18033SOL    HW257692   7.306   7.082   8.861 -1.1233  0.8693  2.1655
18034SOL     OW57693   6.161   7.329   0.993 -0.5031  0.0165 -0.0113
18034SOL    HW157694   6.095   7.385   1.033 -1.4053 -0.9487 -0.1221
18034SOL    HW257695   6.244   7.362   1.028 -1.0142  1.3304  0.0146
18035SOL     OW57696   7.688   7.873   3.335  0.2341 -0.3984 -0.0311
18035SOL    HW157697   7.648   7.932   3.398  0.0116  1.3123 -1.6996
18035SOL    HW257698   7.760   7.923   3.297  1.8424 -2.2160  0.4726
18036SOL     OW57699   1.103   5.453   3.562  0.2371  0.0175  0.1325
18036SOL    HW157700   1.033   5.502   3.518  0.0003  0.1311  0.6230
18036SOL    HW257701   1.174   5.517   3.572  1.2734 -0.6384 -2.2536
18037SOL     OW57702   8.465  10.673   6.514  0.1511 -0.3493  1.0238
18037SOL    HW157703   8.495  10.718   6.593  0.1993 -0.6994  1.2071
18037SOL    HW257704   8.534  10.610   6.494  0.9390  0.8590 -0.2561
18038SOL     OW57705   9.223   9.472   3.551 -0.6654  0.0176 -0.1681
18038SOL    HW157706   9.295   9.420   3.515 -0.4579  0.5785 -0.5786
18038SOL    HW257707   9.150   9.457   3.491 -1.2537 -1.4230  0.8474
18039SOL     OW57708   8.809   5.503   2.535 -0.3376  1.2345 -0.3124
18039SOL    HW157709   8.865   5.531   2.608 -0.2407  0.3640 -0.0458
18039SOL    HW257710   8.853   5.428   2.498 -1.1988  0.6857 -0.2592
18040SOL     OW57711   8.464   9.281   5.249  0.3644 -0.2296 -0.9555
18040SOL    HW157712   8.418   9.363   5.262 -1.5190 -0.8421 -3.0969
18040SOL    HW257713   8.554   9.306   5.231  0.8235  1.0557  2.4698
18041SOL     OW57714   2.165   0.781   9.302  0.0796 -0.1460 -0.0663
18041SOL    HW157715   2.230   0.848   9.322 -0.3412  0.2674 -0.0703
18041SOL    HW257716   2.164   0.724   9.378  2.0304 -1.4437 -0.9483
18042SOL     OW57717   4.465   5.521   6.113 -0.3149  0.4755  0.4003
18042SOL    HW157718   4.527   5.561   6.052 -1.3719 -0.2455 -1.2340
18042SOL    HW257719   4.513   5.449   6.153 -0.1913 -0.4466 -1.2841
18043SOL     OW57720   6.139   7.967   8.099 -0.4621 -0.1314  0.4469
18043SOL    HW157721   6.188   8.034   8.146  0.8422 -0.9134  0.2401
18043SOL    HW257722   6.079   8.016   8.043  2.3216  1.0157 -1.7509
18044SOL     OW57723   0.727   6.662   4.466  0.4520  0.4776 -0.0333
18044SOL    HW157724   0.781   6.735   4.435 -0.3291  0.8922 -0.4258
18044SOL    HW257725   0.656   6.703   4.514  1.0329 -0.1173  1.3840
18045SOL     OW57726  10.599   1.757   9.781 -0.1372 -0.4856 -0.1855
18045SOL    HW157727  10.615   1.799   9.696  0.9346 -0.4152  0.0442
18045SOL    HW257728  10.679   1.708   9.799 -1.1068 -2.1115 -0.1338
18046SOL     OW57729   3.113  10.546   0.843 -0.1103 -0.0731 -0.3570
18046SOL    HW157730   3.090  10.535   0.750  1.4752 -3.2152 -0.5035
18046SOL    HW257731   3.204  10.516   0.848  0.5185  1.9842  1.9210
18047SOL     OW57732  10.089   6.337   0.096  0.1230  0.1679  0.2408
18047SOL    HW157733  10.025   6.378   0.154  0.0390  0.5527 -0.1228
18047SOL    HW257734  10.038   6.275   0.044 -0.1358  1.1412 -0.7055
18048SOL     OW57735   6.704   4.068   4.553  0.0052 -0.0016 -0.2511
18048SOL    HW157736   6.713   4.035   4.463  0.7533 -1.6448  0.3855
18048SOL    HW257737   6.783   4.121   4.567  1.5153 -2.2806  0.4062
18049SOL     OW57738   9.380   6.944   3.561  0.0923  0.1806  0.3300
18049SOL    HW157739   9.400   7.032   3.593 -0.6102  1.6024 -2.7418
18049SOL    HW257740   9.312   6.957   3.495 -0.2885 -2.7267  0.0081
18050SOL     OW57741   2.687   1.430   9.556 -0.4166 -0.1987 -0.1825
18050SOL    HW157742   2.664   1.353   9.503 -1.1616  0.3900 -0.7331
18050SOL    HW257743   2.603   1.468   9.581 -0.0934  1.3788 -1.3203
18051SOL     OW57744   6.493   0.575   3.731 -0.1168 -0.2376 -0.5372
18051SOL    HW157745   6.535   0.525   3.661 -0.9537  0.0178 -1.2413
18051SOL    HW257746   6.456   0.508   3.789  0.9113 -0.4545 -0.1178
18052SOL     OW57747   6.953   8.352   2.744 -0.8986 -0.0091 -0.2356
18052SOL    HW157748   6.874   8.365   2.691 -1.0871  1.5510  0.3971
18052SOL    HW257749   6.952   8.423   2.807  0.0092 -1.0928  1.0497
18053SOL     OW57750   8.908   0.442   0.548  0.4652  0.4810  0.3226
18053SOL    HW157751   8.871   0.486   0.471  0.2050  0.5396  0.4801
18053SOL    HW257752   8.849   0.466   0.620  0.3656 -0.0625  0.4220
18054SOL     OW57753   9.540   0.331   2.771  0.0621 -0.2613  0.2879
18054SOL    HW157754   9.599   0.383   2.826  0.2631  0.0204 -0.1866
18054SOL    HW257755   9.464   0.388   2.758 -0.1705 -0.4915  0.6156
18055SOL     OW57756   7.026   7.912   1.480  0.0073  0.0087  0.2104
18055SOL    HW157757   6.950   7.869   1.441 -0.5334 -0.8462  2.0970
18055SOL    HW257758   7.089   7.919   1.408 -1.1202 -1.0110 -0.9327
18056SOL     OW57759   2.989   4.715   2.113  0.0970 -0.5083  0.2349
18056SOL    HW157760   2.980   4.784   2.179  0.1441  1.4903 -1.7349
18056SOL    HW257761   3.083   4.695   2.111  0.2308  0.1131  0.1271
18057SOL     OW57762   8.767   2.571   5.828  0.3068 -0.4389 -0.0868
18057SOL    HW157763   8.741   2.483   5.800  2.3115 -1.0552 -0.1644
18057SOL    HW257764   8.701   2.629   5.790 -1.4662 -1.9395  0.5424
18058SOL     OW57765  11.026   6.752   9.932  0.3551  0.5382 -0.1135
18058SOL    HW157766  10.986   6.803   9.861 -1.3193  0.5409  0.8038
18058SOL    HW257767  11.088   6.695   9.887 -0.9853  0.2147 -1.6630
18059SOL     OW57768   2.270   2.107   4.378  0.4099  0.4509 -0.0674
18059SOL    HW157769   2.329   2.180   4.361 -0.2147  1.0535  0.3128
18059SOL    HW257770   2.327   2.038   4.413  0.9447  0.8888 -0.0628
18060SOL     OW57771   4.439   8.544  10.262 -0.3107 -0.3993  0.2258
18060SOL    HW157772   4.460   8.524  10.171  0.1458  0.1237  0.2080
18060SOL    HW257773   4.404   8.633  10.260 -0.3054 -0.3893  0.5539
18061SOL     OW57774   8.289   5.455   1.273  0.4662 -0.0908  0.4381
18061SOL    HW157775   8.245   5.530   1.312  1.6089  1.1062 -0.5064
18061SOL    HW257776   8.284   5.471   1.178  0.3899 -1.4022  0.1998
18062SOL     OW57777   8.748   9.874   9.527 -0.6036 -0.7826  0.1459
18062SOL    HW157778   8.835   9.894   9.563 -1.1713 -1.3776  1.9494
18062SOL    HW257779   8.703   9.827   9.597 -2.0262 -1.4329 -1.1444
18063SOL     OW57780   1.880   9.522  10.122 -0.8403 -0.5585  0.1128
18063SOL    HW157781   1.831   9.457  10.070 -1.8398  0.6774 -0.5409
18063SOL    HW257782   1.960   9.476  10.148 -1.5706 -2.0882 -0.2355
18064SOL     OW57783   0.908   3.640   5.437  0.1695  0.7780 -0.7984
18064SOL    HW157784   0.953   3.648   5.522  0.7858  0.0948 -1.0462
18064SOL    HW257785   0.848   3.566   5.449  1.4709 -0.4352 -1.4477
18065SOL     OW57786   3.609   6.933   3.968  0.1478 -0.6184 -0.1707
18065SOL    HW157787   3.688   6.934   3.914  0.4143 -1.2595  0.1910
18065SOL    HW257788   3.612   7.016   4.016  0.8164 -0.8137  0.1361
18066SOL     OW57789   3.873   8.025   9.391  0.0486 -0.4548  0.0457
18066SOL    HW157790   3.842   8.090   9.455 -0.3877 -0.0081 -0.6053
18066SOL    HW257791   3.828   7.944   9.415  0.4575 -0.4807  0.7527
18067SOL     OW57792   2.672   5.227   9.289  0.1677  0.1477  0.2473
18067SOL    HW157793   2.622   5.273   9.357  0.0212  1.9534 -1.0006
18067SOL    HW257794   2.638   5.262   9.206  2.1315 -0.0120 -0.6922
18068SOL     OW57795   1.339   3.127   3.082  0.0690 -0.0296 -0.2228
18068SOL    HW157796   1.424   3.136   3.040  0.1828 -0.6912 -0.1532
18068SOL    HW257797   1.325   3.210   3.128  0.1541  0.5205 -1.1612
18069SOL     OW57798   1.247   7.664   6.402  0.1963 -0.4150 -0.2035
18069SOL    HW157799   1.251   7.666   6.306  0.2612  0.0252 -0.1972
18069SOL    HW257800   1.293   7.744   6.429 -0.5700 -0.0885  0.1687
18070SOL     OW57801   7.600   4.351   5.246  0.0896 -0.5667 -0.5653
18070SOL    HW157802   7.686   4.376   5.212  0.1052 -1.5601 -1.2981
18070SOL    HW257803   7.548   4.431   5.239  0.3797 -0.4783 -2.0298
18071SOL     OW57804   2.992  10.653   1.486 -0.3347 -0.9197  0.4478
18071SOL    HW157805   3.072  10.705   1.497 -1.3872  0.8134  0.2129
18071SOL    HW257806   3.001  10.582   1.550  1.5583 -1.0177  0.1491
18072SOL     OW57807   5.533  10.487   6.398 -0.0148  0.0144 -0.1799
18072SOL    HW157808   5.566  10.423   6.461  1.8290  1.1568  0.0592
18072SOL    HW257809   5.442  10.502   6.425 -0.2384 -1.8562  0.2501
18073SOL     OW57810   4.275   7.538   0.458 -0.9476 -0.5251 -0.1171
18073SOL    HW157811   4.350   7.589   0.428  0.1932 -1.3388  1.2512
18073SOL    HW257812   4.303   7.447   0.451 -1.6452 -0.8266  0.8146
18074SOL     OW57813   6.081   2.472   7.043 -0.1966 -0.1185  0.3404
18074SOL    HW157814   6.106   2.545   7.099 -1.1647  2.6019 -2.4970
18074SOL    HW257815   6.163   2.443   7.003  0.0512  0.2125  0.6054
18075SOL     OW57816   8.628   0.377  10.423  0.6049  0.1284  0.4944
18075SOL    HW157817   8.662   0.372  10.513  1.4889 -2.8383  0.0986
18075SOL    HW257818   8.697   0.338  10.369  0.2650  2.2025 -1.6023
18076SOL     OW57819   4.632   5.930   5.365  0.2644 -0.3036 -0.5550
18076SOL    HW157820   4.612   6.004   5.422  0.5027 -0.1843 -0.6217
18076SOL    HW257821   4.660   5.861   5.424 -0.7554 -0.6193 -0.4264
18077SOL     OW57822   2.741   0.397   2.843 -0.1863 -0.1637 -0.2511
18077SOL    HW157823   2.790   0.408   2.762 -0.7947 -0.4728 -0.6708
18077SOL    HW257824   2.797   0.343   2.898 -1.0684 -2.6515 -1.6617
18078SOL     OW57825   2.092   0.517   0.568 -0.7134  0.4395  0.4280
18078SOL    HW157826   2.060   0.553   0.651 -0.0803  2.6106 -0.1785
18078SOL    HW257827   2.035   0.556   0.502  0.0256  0.3336 -0.2883
18079SOL     OW57828   6.257   5.955   7.879  0.2670 -0.0723  0.4920
18079SOL    HW157829   6.316   5.904   7.824  0.3984 -0.4946  1.0183
18079SOL    HW257830   6.210   6.012   7.818  1.1527  0.2126  0.0564
18080SOL     OW57831   2.437   0.992  10.054 -0.4389 -0.0464  0.0785
18080SOL    HW157832   2.423   1.079  10.016  2.9109 -0.1412 -1.7213
18080SOL    HW257833   2.505   1.005  10.119  0.9351 -1.4279 -1.0187
18081SOL     OW57834  10.123   6.040   6.571  0.4713 -0.7041 -0.5293
18081SOL    HW157835  10.149   6.023   6.662  2.2817  0.7648 -0.7073
18081SOL    HW257836  10.083   6.127   6.574  0.1541 -0.8320 -1.0696
18082SOL     OW57837   6.167   0.785   1.091  0.7233  0.4254 -0.7293
18082SOL    HW157838   6.206   0.847   1.029  0.0647  0.9083 -0.6654
18082SOL    HW257839   6.110   0.838   1.147 -1.1259 -0.4277 -1.6971
18083SOL     OW57840   6.254   1.537   3.070 -0.1900 -0.0865 -0.0919
18083SOL    HW157841   6.343   1.540   3.036  0.2128  0.0900  0.9521
18083SOL    HW257842   6.262   1.563   3.161 -1.5751  1.8665 -0.4707
18084SOL     OW57843   0.554   0.095   1.152  0.3202  0.5068  0.2140
18084SOL    HW157844   0.474   0.057   1.190  0.5897  0.8900  1.1974
18084SOL    HW257845   0.591   0.148   1.223 -0.6038  3.5292 -1.3882
18085SOL     OW57846   7.695   6.653   4.562  0.1791 -0.3485  0.3617
18085SOL    HW157847   7.768   6.651   4.500  0.3316  0.3192  0.5042
18085SOL    HW257848   7.621   6.686   4.511 -0.2625 -1.8479 -0.0051
18086SOL     OW57849   9.025   7.013   9.756  0.4785  0.7620 -0.0585
18086SOL    HW157850   9.086   7.049   9.692  1.5670  1.0406  1.0980
18086SOL    HW257851   9.079   6.955   9.810 -0.5184  0.1587  0.3056
18087SOL     OW57852   3.902   3.599   7.904  0.0324  0.2270 -0.2798
18087SOL    HW157853   3.829   3.651   7.937 -0.1052 -0.3522  0.3330
18087SOL    HW257854   3.980   3.650   7.928 -0.0836 -0.0182  0.6542
18088SOL     OW57855   0.433   9.739   0.332  1.0510  0.1107  0.0768
18088SOL    HW157856   0.460   9.812   0.276  0.2502  1.4220  1.3360
18088SOL    HW257857   0.465   9.762   0.419 -2.0980  0.7403  1.2242
18089SOL     OW57858   3.991   2.883   2.212  0.0158  0.4820  0.3568
18089SOL    HW157859   3.935   2.830   2.155 -0.6809  1.5983 -0.0498
18089SOL    HW257860   4.076   2.840   2.210 -0.1123  0.2563 -1.2059
18090SOL     OW57861   6.797   7.545   5.871 -0.1542 -0.0150 -0.8181
18090SOL    HW157862   6.762   7.630   5.895  3.1425  1.1550  0.4100
18090SOL    HW257863   6.792   7.542   5.776  0.4815  1.9657 -0.9461
18091SOL     OW57864   7.137   0.292   5.263 -0.4685 -0.2604  0.2988
18091SOL    HW157865   7.082   0.324   5.334 -0.3052  1.1100 -0.1458
18091SOL    HW257866   7.217   0.261   5.306 -0.7319 -0.2861  0.7769
18092SOL     OW57867   8.006   4.124   0.480  0.3431  0.1559  0.0327
18092SOL    HW157868   8.068   4.051   0.484 -0.2047 -0.3770 -0.9018
18092SOL    HW257869   7.943   4.107   0.550 -0.3547 -0.8178 -0.8128
18093SOL     OW57870   8.345   0.747   9.902 -0.6839 -0.6231 -0.2090
18093SOL    HW157871   8.292   0.790   9.970  2.5312 -1.7793  3.4297
18093SOL    HW257872   8.415   0.809   9.884 -0.0611 -1.3830 -0.4522
18094SOL     OW57873   6.422   7.297   1.839 -0.8115  0.5804  0.5773
18094SOL    HW157874   6.375   7.306   1.922 -2.4915  0.9504 -0.3608
18094SOL    HW257875   6.382   7.363   1.782 -0.8858 -0.7876 -1.0311
18095SOL     OW57876  10.763   3.564   9.445 -0.1587  0.1604 -0.1191
18095SOL    HW157877  10.793   3.655   9.449 -0.9859  0.4671 -0.6947
18095SOL    HW257878  10.677   3.569   9.404 -0.5464 -0.8109  0.5524
18096SOL     OW57879   9.409   3.319   4.125 -0.3844  0.1828 -0.4276
18096SOL    HW157880   9.440   3.231   4.145 -1.8321 -0.3552 -0.4397
18096SOL    HW257881   9.365   3.310   4.040 -1.9226  0.5572  0.3121
18097SOL     OW57882  10.949   7.971   9.940 -0.3779 -0.0102 -0.2247
18097SOL    HW157883  10.868   8.021   9.953  0.7150  1.4690  1.2900
18097SOL    HW257884  10.937   7.928   9.855 -2.5818  0.4644 -0.2134
18098SOL     OW57885   1.986   6.203   9.650 -0.1110 -0.3481  0.5262
18098SOL    HW157886   2.012   6.141   9.582 -0.5874 -0.9268  0.8636
18098SOL    HW257887   1.891   6.193   9.656 -0.0549 -0.4409  1.4011
18099SOL     OW57888   3.573   8.397   6.430  0.0438  0.3248  0.3699
18099SOL    HW157889   3.489   8.373   6.392  0.6358 -0.0504 -0.7534
18099SOL    HW257890   3.614   8.313   6.454  0.2336  0.4824  0.6073
18100SOL     OW57891   6.449   4.484   8.527  0.3162  0.0453  0.1176
18100SOL    HW157892   6.419   4.526   8.608 -0.4974  0.1599 -0.2352
18100SOL    HW257893   6.529   4.438   8.553 -0.2546 -0.4170  1.1342
18101SOL     OW57894   8.124   0.791   8.715  0.1704  0.0638  0.0595
18101SOL    HW157895   8.217   0.811   8.721  0.4363 -1.1759  0.1869
18101SOL    HW257896   8.094   0.788   8.805  0.2263 -0.5456  0.0572
18102SOL     OW57897   9.253   4.755   9.348 -0.1380  0.7100 -0.2834
18102SOL    HW157898   9.192   4.699   9.396 -1.0843  1.5584 -0.4681
18102SOL    HW257899   9.333   4.755   9.401  0.9073 -2.8885 -1.5124
18103SOL     OW57900   3.146   8.085   1.496 -0.0027 -0.2528  0.5601
18103SOL    HW157901   3.171   8.175   1.514 -0.7960  0.1194 -0.1283
18103SOL    HW257902   3.152   8.077   1.400  1.3956 -1.3421  0.7002
18104SOL     OW57903   4.388   4.616   2.455  0.2055  0.2056  0.3466
18104SOL    HW157904   4.456   4.583   2.396 -0.7219  0.8562 -1.1406
18104SOL    HW257905   4.378   4.708   2.432 -0.8293  0.2512  0.8920
18105SOL     OW57906   5.005   9.590   2.133  0.4542  0.7049 -0.2870
18105SOL    HW157907   5.073   9.551   2.077 -0.1873  3.1232 -2.9825
18105SOL    HW257908   5.039   9.676   2.157  0.0810  0.2845  2.0044
18106SOL     OW57909   4.922   8.137   2.640  0.0024 -0.0207  0.2408
18106SOL    HW157910   4.985   8.197   2.600 -1.5525  0.3110 -1.9729
18106SOL    HW257911   4.843   8.148   2.587 -1.1082 -2.2634  1.2845
18107SOL     OW57912   9.235   3.992   8.034  0.9498 -0.4958 -0.8311
18107SOL    HW157913   9.161   3.945   7.994  0.0676  1.0909 -1.1321
18107SOL    HW257914   9.198   4.075   8.063  1.9602 -0.8602  1.7602
18108SOL     OW57915   0.153   9.959   3.788  0.3494  0.0870  0.2826
18108SOL    HW157916   0.087   9.917   3.842 -0.2987 -0.2758 -0.7507
18108SOL    HW257917   0.126  10.051   3.786 -0.0330 -0.0251  0.0164
18109SOL     OW57918   2.668   2.571   2.180  0.2777  0.4680  0.2277
18109SOL    HW157919   2.735   2.639   2.183  0.3869  0.3509  0.4326
18109SOL    HW257920   2.699   2.503   2.239  1.0262 -0.5344 -1.2415
18110SOL     OW57921   5.796   1.675   9.078 -0.1851 -0.3315  0.0415
18110SOL    HW157922   5.845   1.614   9.133 -0.5417  0.9476  1.8556
18110SOL    HW257923   5.705   1.663   9.103 -0.3934  0.1024 -0.4813
18111SOL     OW57924   3.342   3.934   8.057  0.3622 -0.1688 -0.0976
18111SOL    HW157925   3.310   3.850   8.090 -0.0265  0.9423  2.6616
18111SOL    HW257926   3.431   3.940   8.092  0.5825  0.3444 -0.7350
18112SOL     OW57927   7.820   4.099   8.732 -0.8125 -0.1659  0.6632
18112SOL    HW157928   7.749   4.035   8.729  0.4168 -1.5490 -0.9882
18112SOL    HW257929   7.841   4.116   8.640  0.3340  0.9765  1.0996
18113SOL     OW57930   5.931   4.851   3.506 -0.3050 -0.0287 -0.0546
18113SOL    HW157931   5.890   4.820   3.425 -0.2537 -0.7587  0.1868
18113SOL    HW257932   5.858   4.876   3.562 -0.4152 -0.9448  0.2242
18114SOL     OW57933   4.581   3.547   2.743  0.0564 -0.1673 -0.0554
18114SOL    HW157934   4.515   3.615   2.756 -1.1174 -1.4102  0.7873
18114SOL    HW257935   4.542   3.469   2.783  1.5429 -1.2263 -0.6188
18115SOL     OW57936   8.801   0.448   1.063 -0.2137  0.2816  0.4839
18115SOL    HW157937   8.892   0.424   1.078  0.0743 -0.0798 -1.5057
18115SOL    HW257938   8.756   0.364   1.049 -0.4023  0.5345 -0.5750
18116SOL     OW57939  10.253   6.564   9.612  0.4605 -0.0684  0.0203
18116SOL    HW157940  10.164   6.541   9.637  0.1752  0.8784 -0.0741
18116SOL    HW257941  10.282   6.625   9.680  2.0676 -2.4125  1.6010
18117SOL     OW57942  10.252   8.527   6.576  0.0997 -0.2302  0.6357
18117SOL    HW157943  10.213   8.502   6.660  0.3595 -1.4457  0.4111
18117SOL    HW257944  10.277   8.618   6.588  2.4137 -1.0251  2.7992
18118SOL     OW57945   4.255   6.466   4.286 -0.2143 -0.2303  0.1699
18118SOL    HW157946   4.301   6.496   4.364 -0.2229 -0.6799  0.3501
18118SOL    HW257947   4.174   6.516   4.284  0.3639  0.7151 -0.2590
18119SOL     OW57948   0.849   9.235   4.473  0.4376  0.4913 -0.6406
18119SOL    HW157949   0.826   9.143   4.475  2.0368  0.0629 -0.0960
18119SOL    HW257950   0.934   9.238   4.429  0.3305  1.7194 -0.8146
18120SOL     OW57951   5.374   7.920   6.930  0.3520  0.3289 -0.0835
18120SOL    HW157952   5.380   7.919   7.026 -1.3771 -2.2577  0.1106
18120SOL    HW257953   5.410   7.835   6.903  1.6351  1.3831 -1.8472
18121SOL     OW57954   0.840   3.139  10.439  0.0731  0.5209  0.6161
18121SOL    HW157955   0.775   3.158  10.371  0.6072 -0.0536 -0.0629
18121SOL    HW257956   0.797   3.165  10.520 -0.8319  0.5825  0.1324
18122SOL     OW57957   5.119   3.609   0.337  0.5327  0.7242 -0.3558
18122SOL    HW157958   5.047   3.616   0.274 -0.4388  1.4596  0.8071
18122SOL    HW257959   5.109   3.685   0.394 -1.2887 -1.9771  3.3988
18123SOL     OW57960   4.626   1.208   3.624  0.1647 -0.3532  0.0971
18123SOL    HW157961   4.599   1.127   3.582  1.0511 -1.0685  0.8472
18123SOL    HW257962   4.545   1.259   3.634 -0.5450 -1.5083  0.3782
18124SOL     OW57963   0.562   2.190   7.942 -0.3687  0.5282  0.6466
18124SOL    HW157964   0.582   2.191   8.036  1.7774  0.4264  0.2500
18124SOL    HW257965   0.516   2.273   7.927 -1.3684  0.2272  1.8943
18125SOL     OW57966   9.916   2.665   1.404 -0.1701 -0.4869 -0.0565
18125SOL    HW157967   9.946   2.736   1.461  1.5136 -1.4767  0.3764
18125SOL    HW257968   9.925   2.701   1.316 -2.8401  1.0734  0.2116
18126SOL     OW57969   0.980   5.368   9.311 -0.2337 -0.4181 -0.2421
18126SOL    HW157970   0.945   5.292   9.263  0.2938 -0.7779 -0.0627
18126SOL    HW257971   0.977   5.439   9.247  1.7375 -1.2030 -1.2906
18127SOL     OW57972   7.513   2.805   5.817  0.5633 -0.0280  0.5469
18127SOL    HW157973   7.478   2.796   5.728 -0.8526  1.3213  0.9228
18127SOL    HW257974   7.593   2.753   5.816  0.7657  0.2115 -1.6150
18128SOL     OW57975   5.260   7.297  10.375 -0.2601 -0.0628  0.2651
18128SOL    HW157976   5.240   7.204  10.362  1.6247 -0.4057 -0.5857
18128SOL    HW257977   5.299   7.325  10.292 -0.3344  1.3587  0.6839
18129SOL     OW57978   8.068   8.733   2.129  0.2948  0.6989 -0.1335
18129SOL    HW157979   8.126   8.731   2.206  0.0291  1.7583  0.1119
18129SOL    HW257980   8.052   8.641   2.109 -0.4750  0.3915  1.7218
18130SOL     OW57981   6.678   3.519   7.365 -0.0239  0.0332 -0.0545
18130SOL    HW157982   6.663   3.476   7.280  1.6835 -1.7862  0.4783
18130SOL    HW257983   6.765   3.559   7.356  0.7774 -1.3319  1.2211
18131SOL     OW57984   2.914   0.967   9.470 -0.1601  0.3343 -0.3974
18131SOL    HW157985   3.006   0.964   9.498  0.5577 -0.6547 -2.6771
18131SOL    HW257986   2.881   0.879   9.487 -1.0839  0.9834  1.4581
18132SOL     OW57987   4.404   6.445  10.684  0.1500 -0.1830 -0.5288
18132SOL    HW157988   4.451   6.461  10.602  0.7862  1.1281  0.0659
18132SOL    HW257989   4.333   6.385  10.660  0.2154  0.3160 -2.0677
18133SOL     OW57990   8.092   3.027   4.668  0.4337  0.1201  0.0178
18133SOL    HW157991   8.006   3.050   4.704  0.6158  2.0893 -0.6990
18133SOL    HW257992   8.148   3.101   4.690  0.9840  0.6277 -2.7019
18134SOL     OW57993   5.475   7.398   9.544  0.0038 -0.3403  0.4359
18134SOL    HW157994   5.539   7.457   9.505 -0.0142 -0.9549 -0.5855
18134SOL    HW257995   5.495   7.397   9.637  1.7517 -0.8135  0.0890
18135SOL     OW57996   0.549   6.583   7.887 -0.2634 -0.4742  0.2847
18135SOL    HW157997   0.483   6.640   7.927 -0.4015 -0.0741 -0.4905
18135SOL    HW257998   0.534   6.497   7.926 -0.4268 -0.1058  1.0449
18136SOL     OW57999   1.034   0.500   1.294  0.3876  0.1051  0.1191
18136SOL    HW158000   1.004   0.591   1.289 -0.0458 -0.1083 -2.1548
18136SOL    HW258001   1.107   0.496   1.232  1.8019 -0.6435  1.7377
18137SOL     OW58002   3.149  10.859   8.295 -0.6087 -0.1500  0.1841
18137SOL    HW158003   3.078  10.807   8.257 -0.6519  0.7145 -0.9994
18137SOL    HW258004   3.209  10.794   8.331 -0.7931 -1.0339 -1.0032
18138SOL     OW58005   0.006   1.124   3.697 -0.0001  0.0363 -0.0876
18138SOL    HW158006   0.071   1.193   3.686 -0.6500  0.7178  0.2206
18138SOL    HW258007  -0.033   1.141   3.783  1.3260 -2.0200  1.0004
18139SOL     OW58008   4.035   1.422   8.611 -0.0401 -0.2082 -0.3724
18139SOL    HW158009   4.130   1.407   8.609 -0.0578 -0.3884  0.1443
18139SOL    HW258010   4.005   1.381   8.692 -0.1674  2.1324  0.8519
18140SOL     OW58011   3.513   5.034   3.390 -0.4488  0.1870  0.0038
18140SOL    HW158012   3.602   5.025   3.425 -0.2636 -0.5143 -0.6073
18140SOL    HW258013   3.465   5.081   3.458  0.5605  1.2105  0.0436
18141SOL     OW58014   7.953   5.712   0.871 -0.2078 -0.4205  0.4949
18141SOL    HW158015   7.968   5.806   0.877 -1.2991 -0.0480 -1.6505
18141SOL    HW258016   8.005   5.675   0.942 -0.0201  1.8067  1.6154
18142SOL     OW58017  10.018   2.550   2.485 -0.2435 -0.0721  0.2523
18142SOL    HW158018  10.052   2.560   2.574  2.4227  0.6973 -0.7417
18142SOL    HW258019   9.959   2.474   2.490  2.9228 -2.7008  1.9167
18143SOL     OW58020   8.937   9.613   9.875  0.3692  0.1232 -0.3288
18143SOL    HW158021   8.948   9.568   9.791  1.6571 -0.7636  0.2653
18143SOL    HW258022   9.012   9.672   9.880  0.6688 -0.3043  0.4600
18144SOL     OW58023   8.959   8.245  10.413  0.3222  0.2617  0.3156
18144SOL    HW158024   8.899   8.233  10.340  0.8981  0.2991 -0.1713
18144SOL    HW258025   9.005   8.327  10.394  1.0324 -0.1271  0.3063
18145SOL     OW58026   7.461   1.467   0.217  0.6924  0.2238  0.4703
18145SOL    HW158027   7.370   1.438   0.219  0.5924  0.5754  2.0463
18145SOL    HW258028   7.457   1.556   0.182  0.3119  0.6010  1.4566
18146SOL     OW58029   7.304   2.748   0.733  0.2872  0.1307  0.1038
18146SOL    HW158030   7.213   2.776   0.723  0.2791 -0.2782 -1.1102
18146SOL    HW258031   7.355   2.829   0.731 -0.0926  0.4291  1.6033
18147SOL     OW58032   1.122   3.898   3.439  0.1367 -0.0738  0.0620
18147SOL    HW158033   1.070   3.976   3.417  1.3555  0.5265 -0.8345
18147SOL    HW258034   1.199   3.904   3.382  0.0949 -2.1368 -0.2793
18148SOL     OW58035   4.774   2.976   0.745 -0.3808 -0.0073  0.3271
18148SOL    HW158036   4.850   2.937   0.702 -0.0830  2.5839 -1.7410
18148SOL    HW258037   4.805   3.062   0.776 -2.2221  0.7627  0.1810
18149SOL     OW58038   6.047   9.444   0.663 -0.7695 -0.0766  0.4385
18149SOL    HW158039   6.087   9.357   0.669 -1.2025 -0.1988  1.9195
18149SOL    HW258040   6.116   9.499   0.624 -0.7156 -1.1917 -1.1421
18150SOL     OW58041   9.886  10.922   9.375 -0.0720  0.4366  0.1430
18150SOL    HW158042   9.844  11.005   9.349  1.1986  1.6729  1.8494
18150SOL    HW258043   9.825  10.883   9.437  0.4787  1.4335  1.3626
18151SOL     OW58044   1.771   9.623   5.857 -0.3448  0.4699  0.4906
18151SOL    HW158045   1.822   9.544   5.872  0.2303  0.5971 -0.7113
18151SOL    HW258046   1.796   9.681   5.929 -1.7454 -0.8680  2.1447
18152SOL     OW58047   1.543   2.708   4.219 -0.4340 -0.0149 -0.1696
18152SOL    HW158048   1.615   2.701   4.282  0.7901 -0.0752 -1.5280
18152SOL    HW258049   1.477   2.761   4.264  1.8106  2.9126 -0.0013
18153SOL     OW58050   2.652   5.223   6.537 -0.2825  0.3894 -0.0047
18153SOL    HW158051   2.580   5.173   6.576  0.0469  0.6142  0.9266
18153SOL    HW258052   2.672   5.291   6.602 -0.0338  1.0852 -0.7916
18154SOL     OW58053   1.823   2.679   1.182 -0.1163  0.5291 -0.7528
18154SOL    HW158054   1.872   2.624   1.121 -0.9871  0.6164 -1.5507
18154SOL    HW258055   1.888   2.741   1.215  1.3205 -1.9336  1.4527
18155SOL     OW58056   1.594   9.440   7.534 -0.7778  0.6727 -0.3163
18155SOL    HW158057   1.682   9.448   7.570  0.0358 -0.1957 -2.0052
18155SOL    HW258058   1.599   9.482   7.448 -1.9995  0.5547 -0.4708
18156SOL     OW58059   0.033   9.607  11.062  0.6018  0.4738 -0.1409
18156SOL    HW158060  -0.052   9.641  11.032  0.9685  0.3978 -1.3345
18156SOL    HW258061   0.097   9.668  11.027  1.0200  0.8391  1.2364
18157SOL     OW58062   0.436  10.946   0.160  0.0041  0.7435  0.4469
18157SOL    HW158063   0.429  10.851   0.172  0.7166  0.2717 -2.2867
18157SOL    HW258064   0.345  10.975   0.147 -0.0925  0.2005 -0.1269
18158SOL     OW58065   5.161   6.554   2.215 -0.5116  0.1835  0.1240
18158SOL    HW158066   5.157   6.633   2.269 -2.4818 -0.0771  0.4267
18158SOL    HW258067   5.157   6.482   2.277  2.8826 -0.2972 -0.0151
18159SOL     OW58068   6.394   3.706   3.362 -0.0078  0.5235  0.2004
18159SOL    HW158069   6.302   3.701   3.336 -0.0461  0.2461  0.3738
18159SOL    HW258070   6.429   3.782   3.316 -0.5804  1.2459  0.9418
18160SOL     OW58071   8.046   4.318   8.743  0.5264  0.3608  0.4382
18160SOL    HW158072   8.088   4.341   8.660  0.5392  0.0715  0.3625
18160SOL    HW258073   7.952   4.322   8.725  0.4439  2.9433  1.1173
18161SOL     OW58074   1.711   6.817   8.541 -0.3658 -0.0456  0.5546
18161SOL    HW158075   1.696   6.904   8.577 -0.8307  0.6953 -1.3182
18161SOL    HW258076   1.764   6.772   8.607 -0.8510  1.3414  1.9422
18162SOL     OW58077   9.458   5.057   9.898 -0.1147  0.1145 -0.7252
18162SOL    HW158078   9.471   5.132   9.955 -0.6927 -0.7428  0.5996
18162SOL    HW258079   9.363   5.046   9.895 -0.0136 -1.0344 -0.2294
18163SOL     OW58080   6.658   1.181   1.728  0.4350  0.0522 -0.3027
18163SOL    HW158081   6.641   1.204   1.819 -2.3653  0.8726 -0.9311
18163SOL    HW258082   6.618   1.095   1.716  0.2250  0.2210 -0.8835
18164SOL     OW58083   0.905   1.612   3.104  0.0698  0.2516 -0.2157
18164SOL    HW158084   0.868   1.609   3.192  0.2217 -0.6544 -0.1777
18164SOL    HW258085   0.830   1.599   3.046  0.1067 -0.0786 -0.1892
18165SOL     OW58086   4.501   2.368   3.897 -0.0171 -0.0876 -0.3889
18165SOL    HW158087   4.469   2.398   3.982  0.3769 -3.0496  0.9367
18165SOL    HW258088   4.450   2.418   3.833 -1.7244  0.8627  1.5865
18166SOL     OW58089   5.176   0.427   6.464 -0.1747  0.3244  0.1413
18166SOL    HW158090   5.176   0.332   6.452  1.5665 -0.0707  2.5319
18166SOL    HW258091   5.086   0.448   6.490 -0.7761 -0.5018 -1.1577
18167SOL     OW58092   1.042   1.967  10.155 -0.6188  0.0168 -0.4779
18167SOL    HW158093   0.954   1.960  10.193 -0.6665 -0.5046 -0.6799
18167SOL    HW258094   1.087   2.030  10.212 -1.4449  1.0963 -0.9807
18168SOL     OW58095   7.923   2.259   4.931  0.0309 -0.9463 -0.0127
18168SOL    HW158096   7.907   2.278   4.838  1.6726 -2.1766 -0.6119
18168SOL    HW258097   7.839   2.272   4.973 -0.9998 -1.2664 -1.8477
18169SOL     OW58098   3.004   9.785   1.503 -0.2027  0.2793 -0.2810
18169SOL    HW158099   3.063   9.844   1.550  0.0308 -0.4789  0.3970
18169SOL    HW258100   3.038   9.783   1.413 -0.8757  2.0352 -0.6168
18170SOL     OW58101   6.163  10.521   3.515 -0.3994 -0.1426  0.5225
18170SOL    HW158102   6.090  10.576   3.489 -0.0669  0.0267 -0.0545
18170SOL    HW258103   6.173  10.538   3.609 -1.9857 -1.2178  0.9370
18171SOL     OW58104   4.083   7.878   4.055 -0.9146  0.3859  0.3952
18171SOL    HW158105   4.104   7.876   4.148 -0.7475  0.6720  0.3641
18171SOL    HW258106   3.994   7.914   4.052 -0.8771  0.4822  0.4370
18172SOL     OW58107  10.706   7.259   9.665 -0.0674 -0.2107  0.3524
18172SOL    HW158108  10.687   7.165   9.660  0.2927 -0.2646 -0.0429
18172SOL    HW258109  10.752   7.270   9.748 -2.5209  0.0567  1.7909
18173SOL     OW58110   2.117   0.430  10.632 -0.6367  0.0682 -0.2410
18173SOL    HW158111   2.095   0.514  10.590  1.0391  1.0830  0.7820
18173SOL    HW258112   2.212   0.423  10.623 -0.4813 -0.6868  1.5231
18174SOL     OW58113   9.442   8.013   5.990 -0.6859  0.4951 -0.4162
18174SOL    HW158114   9.450   7.970   6.075 -1.4317  1.6256  0.2520
18174SOL    HW258115   9.427   7.942   5.928  0.5224 -0.4088  0.2864
18175SOL     OW58116   4.604   6.582   7.407  0.3737  0.0329  0.7121
18175SOL    HW158117   4.582   6.644   7.337 -1.1468 -0.4196  0.7615
18175SOL    HW258118   4.539   6.512   7.398  3.2717 -2.7911 -0.7963
18176SOL     OW58119   0.204   1.435   6.342  0.0009 -0.0808  0.3740
18176SOL    HW158120   0.157   1.490   6.405  0.3830 -1.2179  1.7149
18176SOL    HW258121   0.190   1.346   6.374  2.1485 -0.5340  0.1767
18177SOL     OW58122   5.567   3.232   2.618  0.3091  0.6214  0.4010
18177SOL    HW158123   5.637   3.296   2.601  1.8856 -0.9768  0.4993
18177SOL    HW258124   5.530   3.259   2.702  0.1879  2.0235 -0.0826
18178SOL     OW58125   3.926   7.479   2.339  0.4153 -0.5609 -0.4125
18178SOL    HW158126   3.982   7.495   2.263  0.4870 -0.9432 -0.4468
18178SOL    HW258127   3.972   7.520   2.412  1.1338 -1.5189 -0.3036
18179SOL     OW58128   0.318   8.955   8.146 -0.0962  0.0851 -0.2111
18179SOL    HW158129   0.260   8.940   8.221  0.9989 -0.1467  0.6121
18179SOL    HW258130   0.261   8.947   8.070 -1.7042  2.3442  0.6242
18180SOL     OW58131   7.215   9.286   8.655 -0.5250  0.0753 -0.0397
18180SOL    HW158132   7.302   9.248   8.650 -1.1628 -1.4179 -0.3854
18180SOL    HW258133   7.167   9.228   8.714 -1.4199  0.5988 -0.2337
18181SOL     OW58134   0.502   0.728   5.383  0.2512  0.1943 -0.3960
18181SOL    HW158135   0.590   0.702   5.357  0.8401 -0.7555  2.2042
18181SOL    HW258136   0.514   0.808   5.433 -0.6567  1.2149 -1.7367
18182SOL     OW58137   2.438   9.988   3.629 -0.6256 -0.7147  0.1711
18182SOL    HW158138   2.356  10.036   3.638  0.0381  0.2545  1.2831
18182SOL    HW258139   2.424   9.907   3.679 -0.3907  0.1665  1.7215
18183SOL     OW58140   8.119  10.382   9.201  0.3745  0.3874  0.2526
18183SOL    HW158141   8.160  10.468   9.196  1.9255 -0.3607 -0.7964
18183SOL    HW258142   8.160  10.341   9.277 -1.2213  0.9382  1.4817
18184SOL     OW58143  10.132   3.850  10.825 -0.0344 -0.6754 -0.0619
18184SOL    HW158144  10.095   3.891  10.746  0.4456 -1.1427 -0.5368
18184SOL    HW258145  10.115   3.757  10.814  2.0048 -1.0223 -0.7129
18185SOL     OW58146   6.394   5.986   5.323 -0.1129  0.2716  0.4005
18185SOL    HW158147   6.453   5.989   5.398  1.3246  0.7447 -0.7172
18185SOL    HW258148   6.378   6.078   5.301 -1.0690  0.1455  0.5245
18186SOL     OW58149   7.514   6.491   3.916 -0.2406  0.0100 -0.1092
18186SOL    HW158150   7.580   6.462   3.854  0.4331 -0.4252  0.8024
18186SOL    HW258151   7.466   6.412   3.940  0.7404 -0.1820  1.3598
18187SOL     OW58152   2.080   0.394  10.908 -0.2473 -0.2826 -0.4314
18187SOL    HW158153   2.086   0.301  10.931 -1.9574 -0.7579 -1.6983
18187SOL    HW258154   2.063   0.395  10.814 -0.6008  1.3084 -0.3803
18188SOL     OW58155   5.925   9.763   9.956  0.4403 -0.3064 -0.0195
18188SOL    HW158156   5.835   9.754   9.924  1.2264 -0.7408 -2.3019
18188SOL    HW258157   5.933   9.696  10.023 -0.8093 -0.5883 -0.1298
18189SOL     OW58158   2.329   9.296   6.394  0.4789 -0.3369 -0.0768
18189SOL    HW158159   2.359   9.270   6.481  0.8833  1.5152  0.3819
18189SOL    HW258160   2.269   9.369   6.410 -0.6280 -0.9354 -1.2793
18190SOL     OW58161   4.098   5.849   8.979 -0.2108 -0.0431  0.5579
18190SOL    HW158162   4.156   5.859   8.903 -0.0547 -2.1685  0.3455
18190SOL    HW258163   4.155   5.861   9.055 -0.2219  1.3673  0.3602
18191SOL     OW58164   4.430   7.869  10.461 -0.0615  0.2979  0.0160
18191SOL    HW158165   4.363   7.802  10.448  0.7855 -0.6200  0.3206
18191SOL    HW258166   4.501   7.824  10.506  0.6781  1.3138 -0.1025
18192SOL     OW58167   8.233   0.695   4.761 -0.0799  0.2801 -0.2734
18192SOL    HW158168   8.231   0.685   4.666 -1.5818  1.1420 -0.3665
18192SOL    HW258169   8.198   0.782   4.777  2.1950  1.0245  1.0103
18193SOL     OW58170   4.887   3.916   0.143 -0.1130 -0.3765  0.0105
18193SOL    HW158171   4.961   3.905   0.084 -0.3647  0.0173 -0.3861
18193SOL    HW258172   4.926   3.939   0.227  0.3486 -2.4925  0.4387
18194SOL     OW58173   8.028  10.349  10.132 -0.3962  0.0332 -0.3730
18194SOL    HW158174   7.989  10.288  10.070  0.3427 -2.7099  1.7031
18194SOL    HW258175   8.122  10.333  10.125 -0.1914  0.8923  0.2857
18195SOL     OW58176   4.387   9.938  10.883 -0.4024 -0.0291  0.2724
18195SOL    HW158177   4.457  10.003  10.882 -0.5602  0.2847  2.7630
18195SOL    HW258178   4.372   9.917  10.791  0.9115  2.0846 -0.4959
18196SOL     OW58179   6.177   3.056   8.591  0.0377  0.5666  0.2282
18196SOL    HW158180   6.213   3.039   8.678 -0.0907 -0.3199  0.1179
18196SOL    HW258181   6.094   3.100   8.608  0.4232  1.1854  0.5248
18197SOL     OW58182   7.092   9.898   7.100  0.1834 -0.2369 -0.4472
18197SOL    HW158183   7.021   9.927   7.158 -0.4521 -2.9547  0.2736
18197SOL    HW258184   7.158   9.862   7.159 -0.0566 -2.2026 -1.3195
18198SOL     OW58185   5.506  10.609   2.970  0.1373 -0.9615  0.2294
18198SOL    HW158186   5.509  10.617   3.065 -0.2399 -1.9325  0.3344
18198SOL    HW258187   5.547  10.524   2.952  0.4332 -0.6690 -0.4901
18199SOL     OW58188   4.462   4.203   5.598 -0.2557  0.1043  0.0178
18199SOL    HW158189   4.465   4.127   5.541  0.3658 -0.8879  1.3381
18199SOL    HW258190   4.530   4.262   5.564  0.0550 -0.4390 -0.3032
18200SOL     OW58191   7.394   2.274   5.348 -0.4435 -0.1523  0.1016
18200SOL    HW158192   7.327   2.334   5.315 -1.0433 -1.2733 -0.8033
18200SOL    HW258193   7.411   2.215   5.275  0.0447 -1.1587  1.0050
18201SOL     OW58194  10.228   7.811   0.645 -0.5017  0.2446  0.3716
18201SOL    HW158195  10.173   7.888   0.659 -1.0303 -0.1501  0.5018
18201SOL    HW258196  10.238   7.806   0.550 -0.0769  0.7367  0.3839
18202SOL     OW58197   2.843   4.725   7.112 -0.0321  0.1799  0.4378
18202SOL    HW158198   2.756   4.761   7.131  0.0054  0.0150  0.9127
18202SOL    HW258199   2.864   4.671   7.187  0.7576  0.7119  0.6088
18203SOL     OW58200   8.062   9.256   2.766 -0.4923  0.1002  0.6000
18203SOL    HW158201   8.146   9.297   2.787  0.0601 -0.1648 -0.9710
18203SOL    HW258202   8.069   9.231   2.674 -2.5969  0.8118  0.1793
18204SOL     OW58203   9.333  10.483   2.311  0.6583 -0.1251 -0.2314
18204SOL    HW158204   9.385  10.554   2.273 -1.0167  1.0833 -0.3646
18204SOL    HW258205   9.379  10.459   2.391  1.2069  1.1799 -0.1447
18205SOL     OW58206   0.518   7.635   8.159 -0.9029 -0.2412  0.3695
18205SOL    HW158207   0.555   7.549   8.174 -0.2933 -0.1204 -0.4073
18205SOL    HW258208   0.593   7.694   8.158 -1.1754  0.1038 -0.5020
18206SOL     OW58209   5.281   5.241   6.806 -0.4669  0.1497  0.3869
18206SOL    HW158210   5.215   5.304   6.833  1.1730  1.7141  0.9883
18206SOL    HW258211   5.312   5.274   6.721 -0.7108 -0.7811 -0.0752
18207SOL     OW58212   9.257   2.322   9.620  0.1609 -0.7451 -0.2322
18207SOL    HW158213   9.255   2.300   9.527 -0.0641  0.8450 -0.6390
18207SOL    HW258214   9.166   2.331   9.646  0.2478  0.2655 -0.2446
18208SOL     OW58215   6.490   8.829   5.267  0.4979 -0.0185  0.3127
18208SOL    HW158216   6.488   8.804   5.175  1.5160  0.3939  0.1627
18208SOL    HW258217   6.409   8.793   5.304  1.1906 -2.2419 -0.1910
18209SOL     OW58218   5.935   1.006   0.912 -0.3214  0.5956 -0.5802
18209SOL    HW158219   5.969   1.068   0.977  0.4292 -1.8411  1.5202
18209SOL    HW258220   5.841   1.001   0.932  0.3648 -3.0285  3.3402
18210SOL     OW58221   0.798   5.511   7.703  0.3541  0.1340 -0.0032
18210SOL    HW158222   0.703   5.502   7.697  0.2505  1.0828  0.1720
18210SOL    HW258223   0.830   5.420   7.707 -0.4032 -0.2550 -1.7908
18211SOL     OW58224   6.097   5.528   6.538 -0.1050  0.0281 -0.2977
18211SOL    HW158225   6.113   5.447   6.587 -1.5853  0.2071  0.5503
18211SOL    HW258226   6.032   5.504   6.473  2.0235 -0.2681 -2.4768
18212SOL     OW58227   6.507   3.165   2.628  0.0589  0.3027 -0.1612
18212SOL    HW158228   6.570   3.202   2.566  1.1912 -1.9065 -0.4370
18212SOL    HW258229   6.559   3.143   2.705 -0.7797  0.3043  0.4164
18213SOL     OW58230   1.685   3.902   3.182  0.2944  0.1616  0.6024
18213SOL    HW158231   1.760   3.960   3.192 -0.2442  1.0254 -0.1867
18213SOL    HW258232   1.694   3.866   3.094 -0.8630  1.2567  0.0063
18214SOL     OW58233   6.300   0.650   2.034  0.3825  0.4547  0.3312
18214SOL    HW158234   6.244   0.693   2.099  1.6131  0.7121  1.2670
18214SOL    HW258235   6.353   0.722   1.998 -0.2806  0.3186 -0.9924
18215SOL     OW58236   1.950   7.101   6.884  0.3172 -0.1531  0.0016
18215SOL    HW158237   1.880   7.163   6.901  0.1107 -0.2080 -0.6303
18215SOL    HW258238   1.906   7.023   6.851  0.6796 -0.1448 -0.5211
18216SOL     OW58239   5.436   2.336   3.920 -0.0660  0.0220  0.2166
18216SOL    HW158240   5.382   2.259   3.906  0.2572 -0.0007 -0.9859
18216SOL    HW258241   5.502   2.307   3.983  1.0564 -1.2201 -1.4364
18217SOL     OW58242   4.664   5.151   8.719  0.0114  0.3358  0.2219
18217SOL    HW158243   4.613   5.137   8.640 -0.0562 -1.3479  0.5338
18217SOL    HW258244   4.683   5.245   8.719 -1.4318  0.6597 -0.8937
18218SOL     OW58245   9.716   2.583   4.515  0.2556  0.5696  0.2041
18218SOL    HW158246   9.658   2.619   4.448  0.8447  1.7862  0.3280
18218SOL    HW258247   9.703   2.640   4.591  2.3491  1.5259 -0.0837
18219SOL     OW58248   8.500   8.278   0.127 -0.2621 -0.2278 -0.6448
18219SOL    HW158249   8.513   8.302   0.219  1.4230  0.6713 -1.0671
18219SOL    HW258250   8.483   8.361   0.082 -1.3622 -0.6933 -1.1231
18220SOL     OW58251   5.018   8.370   9.388  0.4081 -0.4295 -0.7967
18220SOL    HW158252   4.990   8.461   9.391  2.0867  0.1146  0.3114
18220SOL    HW258253   5.102   8.372   9.342  0.0352 -1.5708 -1.5862
18221SOL     OW58254   4.952   3.993   9.270 -0.5121 -0.1000 -0.2682
18221SOL    HW158255   4.859   3.995   9.294 -0.8338 -0.8400 -1.4129
18221SOL    HW258256   4.995   3.957   9.348 -1.0572  1.0472  0.6020
18222SOL     OW58257  10.595   9.796   8.009 -0.0433 -0.5256  0.6553
18222SOL    HW158258  10.601   9.857   8.083  1.5154 -1.5497  1.4163
18222SOL    HW258259  10.527   9.833   7.954 -0.1038  1.1641  1.7829
18223SOL     OW58260   0.222   8.900   3.954  0.3567 -0.2879  0.3067
18223SOL    HW158261   0.241   8.896   4.048 -1.4768  1.9902  0.8606
18223SOL    HW258262   0.126   8.898   3.948  0.3650  1.4596 -1.3639
18224SOL     OW58263   9.564   8.163   1.050 -0.9807 -0.0427 -0.3140
18224SOL    HW158264   9.505   8.202   0.985  0.0470 -0.8522 -1.7865
18224SOL    HW258265   9.510   8.097   1.093 -1.2905 -0.5165 -1.3825
18225SOL     OW58266   2.928   8.292   2.277  0.0482  0.4136 -0.1966
18225SOL    HW158267   2.856   8.320   2.334  0.4838  1.8627 -0.3125
18225SOL    HW258268   2.885   8.272   2.194 -0.3732  0.0080  0.1100
18226SOL     OW58269   3.352   2.498   1.661 -0.4893  0.0355 -0.3783
18226SOL    HW158270   3.329   2.565   1.597 -2.5763 -0.4321 -0.1969
18226SOL    HW258271   3.290   2.512   1.733  0.0734 -1.1136  0.3625
18227SOL     OW58272   1.370   9.860   8.850  0.4922 -0.0113 -0.0579
18227SOL    HW158273   1.307   9.807   8.800 -0.2682 -2.0010  2.7362
18227SOL    HW258274   1.317   9.905   8.915  1.5559  1.6058 -0.2614
18228SOL     OW58275   3.432   0.315   4.611  0.5972  0.2084  0.1457
18228SOL    HW158276   3.446   0.402   4.574  1.5084  0.8013  1.7595
18228SOL    HW258277   3.387   0.330   4.694  0.5441 -0.8737  0.3388
18229SOL     OW58278   7.928   3.032   1.397 -0.6804  0.4712  0.3301
18229SOL    HW158279   7.869   2.982   1.454 -2.1049  0.6054 -0.9728
18229SOL    HW258280   7.983   2.965   1.356 -0.5852  0.2513  0.8069
18230SOL     OW58281   2.181   5.237  10.686  0.0491 -0.1749 -0.5312
18230SOL    HW158282   2.131   5.245  10.767 -0.1525  1.1307 -0.7712
18230SOL    HW258283   2.233   5.157  10.698  0.7282  0.4863  1.2773
18231SOL     OW58284   4.038   8.235   9.745  0.2746  0.0464  0.8868
18231SOL    HW158285   3.985   8.315   9.746 -0.2070 -0.2239 -0.9302
18231SOL    HW258286   4.005   8.184   9.820  0.0523  1.1774  1.5889
18232SOL     OW58287   8.125   6.769   7.093  0.4922  0.8808 -0.2301
18232SOL    HW158288   8.139   6.675   7.108  0.1858  0.6026 -1.5485
18232SOL    HW258289   8.211   6.808   7.104  0.4989  0.5698  1.0497
18233SOL     OW58290   2.382   9.600   5.537 -0.5376 -0.1151  0.0954
18233SOL    HW158291   2.466   9.567   5.570 -0.0085  1.6031  0.5549
18233SOL    HW258292   2.363   9.546   5.460  1.5209  0.1661 -0.6597
18234SOL     OW58293   7.369   7.499   9.263  0.1664  0.1132 -0.7360
18234SOL    HW158294   7.368   7.452   9.180  1.6311 -0.3793 -0.5104
18234SOL    HW258295   7.462   7.519   9.278 -0.0699  0.1990  0.7699
18235SOL     OW58296   1.752   8.678   2.687  0.4460 -0.1135  0.2965
18235SOL    HW158297   1.816   8.653   2.754  1.0775 -0.1522 -0.3059
18235SOL    HW258298   1.765   8.772   2.675  1.6211 -0.4125 -1.0572
18236SOL     OW58299   3.750   8.794   7.648 -0.3608  0.2025  0.2015
18236SOL    HW158300   3.709   8.828   7.568  0.5337 -2.1132 -1.3506
18236SOL    HW258301   3.681   8.743   7.690 -1.0749  2.0706  1.4171
18237SOL     OW58302   7.475   3.869   6.578  0.4445  0.2311  0.6992
18237SOL    HW158303   7.474   3.864   6.674  1.7063  1.1000  0.7690
18237SOL    HW258304   7.565   3.892   6.556  0.0783  0.3882 -0.6866
18238SOL     OW58305   2.410  10.287   3.252 -0.1610  0.0764  0.3533
18238SOL    HW158306   2.447  10.355   3.310  0.6313  0.6818 -0.8220
18238SOL    HW258307   2.415  10.207   3.304  1.3418  0.4442  0.8359
18239SOL     OW58308   0.342   5.302   9.028 -0.1600  0.5247 -0.0207
18239SOL    HW158309   0.388   5.329   9.108  0.5550 -2.5013  0.6871
18239SOL    HW258310   0.256   5.273   9.059  0.0824 -0.5631 -0.3528
18240SOL     OW58311   4.409   3.167   9.363 -0.7757 -0.1191 -0.6586
18240SOL    HW158312   4.453   3.240   9.321 -0.9079  0.0176 -0.5601
18240SOL    HW258313   4.400   3.101   9.295  2.1384 -1.3180 -0.0568
18241SOL     OW58314   8.703   8.089   3.762 -0.0300 -0.4212  0.0441
18241SOL    HW158315   8.739   8.159   3.817  0.9686  0.4183 -1.6001
18241SOL    HW258316   8.681   8.132   3.679 -2.4389 -1.4575  0.0661
18242SOL     OW58317   7.002   2.630  10.556  0.0144 -0.2546 -0.1784
18242SOL    HW158318   7.034   2.585  10.478 -0.1723  1.1384 -1.0852
18242SOL    HW258319   7.017   2.568  10.627  1.8846 -0.8328 -1.0296
18243SOL     OW58320   9.960   4.242   8.700 -0.1718  0.4384 -0.4311
18243SOL    HW158321   9.993   4.177   8.761 -0.5713  0.6213 -0.0154
18243SOL    HW258322   9.868   4.253   8.724  0.0484  1.6444 -0.0507
18244SOL     OW58323   7.383   3.005   4.492  0.3417  0.0480  0.3999
18244SOL    HW158324   7.383   2.964   4.578 -0.5323 -0.4102  0.1984
18244SOL    HW258325   7.445   2.954   4.441  1.4802  0.8284  0.9753
18245SOL     OW58326   8.256   7.637   5.922  0.1057 -0.0234  0.4444
18245SOL    HW158327   8.343   7.629   5.961  0.1117  1.0508  0.7057
18245SOL    HW258328   8.200   7.666   5.995 -0.7385 -1.8105  0.5601
18246SOL     OW58329   5.347  10.088   7.116  0.3197 -0.2446  0.0602
18246SOL    HW158330   5.390  10.014   7.158 -0.1752 -0.0162  0.9928
18246SOL    HW258331   5.386  10.165   7.158  0.3398  0.0107 -0.4201
18247SOL     OW58332   2.240   3.734   0.081  0.3408 -0.2429 -0.9113
18247SOL    HW158333   2.209   3.807   0.028 -0.1730  0.5206  0.3931
18247SOL    HW258334   2.161   3.685   0.103  0.4552 -0.1364 -0.2490
18248SOL     OW58335   3.138   8.569   9.969 -0.2380 -0.5910 -0.0838
18248SOL    HW158336   3.073   8.507  10.001  1.3541 -2.0944  0.3609
18248SOL    HW258337   3.126   8.646  10.024 -0.5645 -1.4403  1.0636
18249SOL     OW58338   5.988   6.594   2.327  0.7456  0.4341  0.0563
18249SOL    HW158339   5.982   6.547   2.244 -0.2233  0.4205  0.1161
18249SOL    HW258340   5.931   6.544   2.386  2.2059 -0.1489  1.0308
18250SOL     OW58341   5.510   4.216   0.214 -0.2186 -0.3286  0.0637
18250SOL    HW158342   5.527   4.169   0.132  0.4175 -0.2110  0.1285
18250SOL    HW258343   5.591   4.208   0.264 -0.5652 -0.2999  0.6358
18251SOL     OW58344   2.237   7.715   1.667 -0.8484 -0.4429 -0.4433
18251SOL    HW158345   2.203   7.777   1.732 -0.1720 -0.7559  0.2157
18251SOL    HW258346   2.259   7.769   1.591  1.0212  0.3483  0.6065
18252SOL     OW58347   1.023   2.057  10.544 -0.1729  0.4247 -0.0995
18252SOL    HW158348   0.949   2.084  10.600  0.4941  0.8756  0.5882
18252SOL    HW258349   1.045   1.969  10.575 -0.6771  0.1192 -0.5865
18253SOL     OW58350   6.865   1.542   0.710  0.1813 -0.1008 -0.0739
18253SOL    HW158351   6.924   1.607   0.748  0.2723 -0.1068 -0.2056
18253SOL    HW258352   6.861   1.472   0.775  3.6280 -2.1163 -1.7753
18254SOL     OW58353   1.027   2.800   2.547  0.2464  0.7411 -0.1931
18254SOL    HW158354   1.062   2.839   2.467  1.0757 -1.4478 -0.9747
18254SOL    HW258355   0.982   2.721   2.517  1.4768 -0.6965  1.5835
18255SOL     OW58356   3.697  10.244   4.119  0.3691  0.4330  0.0617
18255SOL    HW158357   3.724  10.289   4.039  0.3046  1.8191  0.7904
18255SOL    HW258358   3.762  10.175   4.131  0.3678  0.1979 -1.1840
18256SOL     OW58359   5.484   2.739  10.645  0.0249  0.6465  0.1472
18256SOL    HW158360   5.566   2.710  10.604 -0.2703  0.1145 -0.0768
18256SOL    HW258361   5.466   2.823  10.603 -0.3670  0.0245 -0.9833
18257SOL     OW58362   0.316   7.287   6.411  0.1165  0.1257  0.0698
18257SOL    HW158363   0.349   7.285   6.321 -0.3385 -1.1373 -0.0868
18257SOL    HW258364   0.241   7.345   6.409  0.7313  0.9209 -0.1383
18258SOL     OW58365   9.945   4.107   9.445  0.2914  0.4559 -0.0304
18258SOL    HW158366   9.901   4.026   9.470  0.5516 -0.0546 -1.1599
18258SOL    HW258367  10.021   4.078   9.394  1.3610  1.3588  1.0043
18259SOL     OW58368   7.375   4.571   4.295  0.0865  0.5624 -0.6697
18259SOL    HW158369   7.319   4.505   4.335 -1.0331  3.3727  3.0369
18259SOL    HW258370   7.462   4.552   4.329  0.2067 -0.1874 -1.3659
18260SOL     OW58371   4.314   5.159   7.060 -0.2640  0.0994  0.2694
18260SOL    HW158372   4.225   5.156   7.094 -1.6922 -1.4952 -3.0494
18260SOL    HW258373   4.343   5.068   7.062  1.3949  0.6174  1.4041
18261SOL     OW58374  10.384   4.159   4.703 -0.0317 -0.3717  0.1633
18261SOL    HW158375  10.402   4.078   4.752  0.8248 -1.2827 -1.5868
18261SOL    HW258376  10.311   4.136   4.645 -0.3988  0.4109  0.3011
18262SOL     OW58377   8.649   1.966   4.572  0.0559  0.0294  0.4091
18262SOL    HW158378   8.579   1.904   4.590  0.2558 -0.0032  1.0983
18262SOL    HW258379   8.612   2.052   4.592  0.4351 -0.0460  1.5275
18263SOL     OW58380   1.633   8.261   0.248  0.1739 -0.1221 -0.7799
18263SOL    HW158381   1.617   8.179   0.295 -0.8855 -0.3674 -1.5351
18263SOL    HW258382   1.647   8.233   0.157 -3.3385  0.6669 -1.7227
18264SOL     OW58383  10.954   8.974   8.847 -0.2605 -0.3835 -0.5548
18264SOL    HW158384  10.900   9.052   8.836  0.1980 -0.2169 -1.7405
18264SOL    HW258385  10.896   8.901   8.825 -0.9082 -0.4719  1.2633
18265SOL     OW58386   2.617   7.282  10.739 -0.2489  0.6454  0.3311
18265SOL    HW158387   2.533   7.307  10.777  0.1497  1.2625  0.8344
18265SOL    HW258388   2.634   7.350  10.674  0.6919  1.5394  1.4783
18266SOL     OW58389   7.263   0.659   4.478  0.3601  0.1953 -0.4687
18266SOL    HW158390   7.203   0.631   4.546 -0.3538 -1.1363 -1.5854
18266SOL    HW258391   7.260   0.755   4.480 -0.1994  0.1646  0.8521
18267SOL     OW58392   8.592  10.421   2.158  0.1559 -0.1413 -0.1390
18267SOL    HW158393   8.638  10.338   2.146  2.5565  1.0986 -0.2590
18267SOL    HW258394   8.624  10.476   2.086 -0.1654  1.3711  0.8310
18268SOL     OW58395   9.548   7.153   5.220 -0.5755 -0.7250 -0.0867
18268SOL    HW158396   9.489   7.138   5.294 -0.1574 -1.5646  0.0876
18268SOL    HW258397   9.575   7.066   5.192  0.4811 -0.3667 -0.2448
18269SOL     OW58398   2.864  10.777   0.895  0.7361 -0.1274  0.1903
18269SOL    HW158399   2.924  10.734   0.834 -0.4884 -0.6454 -0.6746
18269SOL    HW258400   2.810  10.834   0.840 -1.9443 -2.3320  0.3859
18270SOL     OW58401   8.641   1.747   9.439  0.2126 -0.2089  0.1433
18270SOL    HW158402   8.557   1.759   9.396 -0.1079  0.4621  0.9265
18270SOL    HW258403   8.637   1.659   9.476  0.0220 -0.3395 -0.1922
18271SOL     OW58404   1.333   6.267   6.869 -0.8303 -0.1974 -0.3677
18271SOL    HW158405   1.272   6.203   6.832 -0.0502 -1.9001  1.1472
18271SOL    HW258406   1.363   6.227   6.950  1.5862  1.0155 -0.5827
18272SOL     OW58407   5.835   2.824   2.560  0.0000 -0.6851 -0.5990
18272SOL    HW158408   5.761   2.884   2.568  0.0669 -0.8478  2.0041
18272SOL    HW258409   5.906   2.878   2.526 -0.9095 -0.1989 -1.7910
18273SOL     OW58410   2.205   6.080   4.701  0.2457 -0.1106  0.0573
18273SOL    HW158411   2.292   6.118   4.708  1.0467 -1.9857  1.3292
18273SOL    HW258412   2.164   6.097   4.786 -0.1300 -0.3421 -0.0722
18274SOL     OW58413   8.721  10.430   8.634  0.1846 -0.0587 -0.2930
18274SOL    HW158414   8.687  10.355   8.585 -1.8506 -0.7472  1.9631
18274SOL    HW258415   8.657  10.500   8.618  1.0323  0.6026 -0.8425
18275SOL     OW58416   5.259   5.604   6.419  0.0992 -0.5388  0.5094
18275SOL    HW158417   5.173   5.580   6.385 -0.3031  0.6473  0.6218
18275SOL    HW258418   5.244   5.687   6.465  1.1898 -0.6237  1.0513
18276SOL     OW58419   0.470   5.281   1.595  0.0505 -0.0097  0.5245
18276SOL    HW158420   0.508   5.299   1.509 -1.5144  1.2775  0.0352
18276SOL    HW258421   0.491   5.358   1.647  0.1834 -0.3620  0.9894
18277SOL     OW58422   5.093   2.268   1.860 -0.5391 -0.5412 -1.0687
18277SOL    HW158423   5.032   2.234   1.794 -0.8985 -0.4377 -0.7873
18277SOL    HW258424   5.108   2.194   1.919 -0.6393 -0.4704 -0.9554
18278SOL     OW58425   7.577  10.228   5.086 -0.3658 -0.0257 -0.1208
18278SOL    HW158426   7.563  10.177   5.006 -0.4304  1.2690 -0.9660
18278SOL    HW258427   7.595  10.317   5.055 -2.9292  1.1129  1.3652
18279SOL     OW58428   7.542   8.025   9.113 -0.3812  0.1209 -0.4689
18279SOL    HW158429   7.448   8.041   9.103 -0.3211  0.4612 -0.4882
18279SOL    HW258430   7.585   8.100   9.072 -0.0821 -0.4822 -1.2761
18280SOL     OW58431  10.811   8.384   8.104 -0.6098 -0.2089 -0.0653
18280SOL    HW158432  10.731   8.361   8.151 -0.6613  0.6041  0.2647
18280SOL    HW258433  10.802   8.341   8.019 -0.5012 -1.7084  0.6539
18281SOL     OW58434   3.155   7.297   0.155 -0.0075  0.1246  0.3294
18281SOL    HW158435   3.176   7.219   0.206 -0.1879  0.0021  0.2136
18281SOL    HW258436   3.188   7.279   0.067 -3.5759 -1.5185 -0.8516
18282SOL     OW58437   7.890   9.785   5.621 -0.2623  0.4433 -0.6593
18282SOL    HW158438   7.911   9.694   5.601  0.5650  0.5737 -0.4412
18282SOL    HW258439   7.845   9.781   5.705  5.2031  0.5889  2.7784
18283SOL     OW58440   4.454   7.011   4.271  0.3847  0.1135  0.0875
18283SOL    HW158441   4.454   7.098   4.311  1.0398 -0.2649  0.9356
18283SOL    HW258442   4.452   6.951   4.345  2.5150 -0.6239 -0.3854
18284SOL     OW58443   4.687   0.233   7.120  0.0462  0.9939 -0.8049
18284SOL    HW158444   4.638   0.185   7.187  0.6972 -1.7526 -2.1224
18284SOL    HW258445   4.631   0.227   7.042 -0.6250  3.9937 -0.6735
18285SOL     OW58446   9.133   3.180  10.160 -0.0255  0.3026  0.1525
18285SOL    HW158447   9.205   3.118  10.168  1.4238  1.5546 -2.0901
18285SOL    HW258448   9.173   3.265  10.178 -1.3520  0.8665  0.5466
18286SOL     OW58449   4.490   7.825   7.881 -0.3738  0.6194 -0.1532
18286SOL    HW158450   4.477   7.919   7.866  2.0036  1.2872  1.3297
18286SOL    HW258451   4.435   7.806   7.958 -0.6855  0.8444 -0.3163
18287SOL     OW58452   6.304   6.648   3.281 -0.4115 -0.0667  0.3768
18287SOL    HW158453   6.396   6.630   3.262  0.2580  2.0492  1.2877
18287SOL    HW258454   6.283   6.724   3.226 -2.2081 -1.5947 -1.1945
18288SOL     OW58455   8.860  11.008  10.194  0.4273 -0.7206 -0.6350
18288SOL    HW158456   8.880  10.935  10.135  1.3047  0.8476 -2.3728
18288SOL    HW258457   8.922  10.999  10.265  3.1430  0.3408 -2.6941
18289SOL     OW58458   0.680  10.478   2.203  0.1804  0.2497 -0.0689
18289SOL    HW158459   0.643  10.391   2.192  0.0269  0.3876 -0.7098
18289SOL    HW258460   0.767  10.463   2.241 -0.4984 -0.0782  1.4466
18290SOL     OW58461  10.029   3.581   1.867  0.5629 -0.4705 -0.0098
18290SOL    HW158462  10.051   3.582   1.774  1.1958 -0.8881  0.1330
18290SOL    HW258463  10.087   3.647   1.906 -0.6370  0.6995 -0.0998
18291SOL     OW58464   4.889   4.747   9.893 -0.0238 -0.4896  0.1254
18291SOL    HW158465   4.927   4.791   9.817 -0.9233 -1.5654 -0.9813
18291SOL    HW258466   4.802   4.785   9.902  0.6511  0.8270  1.6866
18292SOL     OW58467   8.039  10.469   5.630  0.2702 -0.4973 -0.0127
18292SOL    HW158468   8.048  10.539   5.566 -0.2295 -1.0219 -0.6840
18292SOL    HW258469   8.110  10.408   5.609  1.6283  0.4945  1.5151
18293SOL     OW58470   7.518   2.275   1.362  0.2633 -0.0598 -0.5820
18293SOL    HW158471   7.435   2.269   1.315  1.7120  0.6085 -3.4326
18293SOL    HW258472   7.568   2.199   1.333  1.0658  0.1410  0.2157
18294SOL     OW58473   1.452  10.697   2.363  0.2730  0.0022 -0.5470
18294SOL    HW158474   1.495  10.710   2.278  0.8665 -0.5733 -0.3398
18294SOL    HW258475   1.451  10.602   2.375  2.3097  0.1273  1.1400
18295SOL     OW58476   5.205   1.759   4.656  0.2302  0.0302  0.4793
18295SOL    HW158477   5.218   1.676   4.610  0.2265  0.1466  0.2664
18295SOL    HW258478   5.237   1.825   4.594 -1.3112  0.3245 -0.0425
18296SOL     OW58479   3.511   8.632   3.093  0.0057 -0.6038  0.3785
18296SOL    HW158480   3.446   8.568   3.122  0.8336 -1.2341  0.8898
18296SOL    HW258481   3.480   8.659   3.006 -0.4779 -1.5323  0.2481
18297SOL     OW58482   2.542   7.689   7.864 -0.1785  0.1500 -0.3206
18297SOL    HW158483   2.455   7.701   7.902  0.2093 -0.0784  0.6914
18297SOL    HW258484   2.530   7.704   7.770 -1.0377  1.4911 -0.0305
18298SOL     OW58485   5.388   9.526   3.857 -0.2072 -0.3706  0.9619
18298SOL    HW158486   5.436   9.592   3.908 -1.6493  0.9794  0.6725
18298SOL    HW258487   5.372   9.567   3.772 -1.9608 -0.6658  1.0945
18299SOL     OW58488   7.978   7.824   3.623 -0.2991  0.3279  0.5562
18299SOL    HW158489   7.922   7.836   3.700 -0.7153  1.3006  0.1216
18299SOL    HW258490   8.052   7.883   3.639 -0.6100  0.8754  0.0115
18300SOL     OW58491   0.215   8.455   1.833  0.7431 -0.6713 -0.1261
18300SOL    HW158492   0.272   8.390   1.874  0.7389 -0.9377 -0.5331
18300SOL    HW258493   0.273   8.526   1.808  1.3021 -1.8220 -2.4257
18301SOL     OW58494  10.558   9.506   4.369 -0.0561 -0.3162  0.8953
18301SOL    HW158495  10.614   9.481   4.442  0.8994 -1.4637 -0.1790
18301SOL    HW258496  10.606   9.575   4.324 -1.2816  1.3836  2.1031
18302SOL     OW58497   5.096   1.790   4.123  0.0886 -0.4799  0.0681
18302SOL    HW158498   5.001   1.783   4.116 -0.2102  0.1383  2.3859
18302SOL    HW258499   5.124   1.824   4.039 -1.8757  0.3051 -0.3355
18303SOL     OW58500   5.590   3.053   9.771 -0.6022  0.2602 -0.0228
18303SOL    HW158501   5.535   3.125   9.739 -1.2206 -0.2071 -0.0267
18303SOL    HW258502   5.531   2.998   9.821 -0.1075 -0.1955  0.0688
18304SOL     OW58503  10.715   1.993   5.852  0.0455 -0.2454  0.9529
18304SOL    HW158504  10.746   2.015   5.940  1.0389 -0.3362  0.6412
18304SOL    HW258505  10.795   1.972   5.803 -0.5528 -0.8296  0.2047
18305SOL     OW58506   2.513   4.528   2.551 -0.4660  0.9707  0.5184
18305SOL    HW158507   2.465   4.579   2.617  0.2680  1.6606  0.5465
18305SOL    HW258508   2.450   4.464   2.519 -1.0603  1.1189  1.3550
18306SOL     OW58509   2.251   2.854   9.352  0.4285 -0.5892  0.1521
18306SOL    HW158510   2.235   2.921   9.285  0.1550 -0.8827 -0.0780
18306SOL    HW258511   2.165   2.814   9.366  0.3912 -0.2257  1.0137
18307SOL     OW58512   8.322   0.529   2.175  0.1573  0.0446 -0.2647
18307SOL    HW158513   8.332   0.434   2.168  1.1855  0.2010 -1.3680
18307SOL    HW258514   8.246   0.550   2.122 -1.4886 -0.3637  1.8227
18308SOL     OW58515   7.540   2.042   6.597  0.2118 -0.2062  0.3258
18308SOL    HW158516   7.536   2.026   6.691 -0.4711 -0.0260  0.3301
18308SOL    HW258517   7.633   2.044   6.577  0.3915 -2.4554  0.6312
18309SOL     OW58518   5.451   9.739   7.731  0.5987 -0.6170 -0.0507
18309SOL    HW158519   5.443   9.806   7.799  0.1377 -0.7411  0.0211
18309SOL    HW258520   5.462   9.788   7.649  1.7559 -0.4730  0.1753
18310SOL     OW58521   0.300  10.201   7.478  0.0746  0.0822 -0.2286
18310SOL    HW158522   0.266  10.115   7.454 -0.4352  0.2924 -0.2713
18310SOL    HW258523   0.236  10.235   7.540  0.9905 -0.1499  0.8777
18311SOL     OW58524   2.049   8.259   6.800 -0.0148 -0.3322 -0.1950
18311SOL    HW158525   2.018   8.349   6.811  1.1313  0.3706 -2.0727
18311SOL    HW258526   2.060   8.250   6.705  3.1074 -1.2989  0.1619
18312SOL     OW58527   0.295   2.734   7.817  0.2336 -0.1301  0.3975
18312SOL    HW158528   0.226   2.678   7.852 -0.6797  0.8463  0.2176
18312SOL    HW258529   0.274   2.742   7.724 -0.2016  1.2239  0.5813
18313SOL     OW58530   2.043  10.313   8.058  0.2091  0.1740 -0.2301
18313SOL    HW158531   1.979  10.344   8.123  0.5856  0.9889 -0.2374
18313SOL    HW258532   2.038  10.217   8.063 -0.7527  0.2298  0.0200
18314SOL     OW58533   9.744   8.007   2.196 -0.5843  0.8137 -0.1877
18314SOL    HW158534   9.746   7.969   2.108  0.5804 -0.1327  0.2083
18314SOL    HW258535   9.814   8.073   2.194  1.5630 -1.2510  0.8160
18315SOL     OW58536  10.144   0.243   4.308 -0.0178 -0.2542 -0.3905
18315SOL    HW158537  10.062   0.265   4.352  0.3727 -0.4152  0.4300
18315SOL    HW258538  10.157   0.314   4.245 -0.5149  0.0452 -0.1588
18316SOL     OW58539   0.082   3.766   6.769  0.4165  0.2973 -0.3565
18316SOL    HW158540   0.109   3.783   6.859 -1.0051 -2.3979  0.6868
18316SOL    HW258541   0.006   3.823   6.756  0.7720  0.8788  0.0287
18317SOL     OW58542   1.417   9.197   1.549  0.0383 -0.2718 -0.2620
18317SOL    HW158543   1.433   9.118   1.600 -0.1607  0.1500  0.4695
18317SOL    HW258544   1.380   9.165   1.466  1.3165 -1.0311 -0.5761
18318SOL     OW58545   6.196   3.375   1.515 -0.1570  0.0662 -0.2109
18318SOL    HW158546   6.289   3.384   1.534 -0.3218 -0.6386  1.1095
18318SOL    HW258547   6.152   3.415   1.591 -0.9045 -0.4165 -0.3713
18319SOL     OW58548   0.162   5.257   9.378  0.2247  0.0391  0.2831
18319SOL    HW158549   0.243   5.300   9.404 -0.7911  0.5136  2.9464
18319SOL    HW258550   0.189   5.170   9.348  1.6007 -0.6115  3.1396
18320SOL     OW58551   3.144   2.225   9.173 -0.5036 -0.0765 -0.2086
18320SOL    HW158552   3.092   2.155   9.134 -0.9956  0.5584 -0.7053
18320SOL    HW258553   3.234   2.206   9.147 -0.5716 -0.7690  0.0392
18321SOL     OW58554   8.361   7.434   5.780 -0.1195 -0.4544 -0.3219
18321SOL    HW158555   8.328   7.522   5.799 -0.2235 -0.4202 -0.6659
18321SOL    HW258556   8.384   7.399   5.866 -0.5213 -0.2665 -0.1314
18322SOL     OW58557  10.561   1.093  10.126 -0.7310 -0.0822 -0.5539
18322SOL    HW158558  10.590   1.045  10.048 -0.7675 -2.2144  0.6807
18322SOL    HW258559  10.640   1.137  10.158 -0.5171  0.0556 -1.2444
18323SOL     OW58560   1.085   9.831   9.180  0.1863  0.0737  0.3889
18323SOL    HW158561   1.018   9.790   9.234 -0.9430  1.2564 -0.0697
18323SOL    HW258562   1.158   9.848   9.241  0.1609 -1.3515  0.8568
18324SOL     OW58563   9.626   7.956   8.514  0.0769  0.3769  0.1255
18324SOL    HW158564   9.645   8.026   8.451 -0.2349 -1.0372 -1.6410
18324SOL    HW258565   9.534   7.969   8.536 -0.0272  0.4448 -0.3271
18325SOL     OW58566   1.611   9.774   6.199 -0.4102  0.7100 -0.3721
18325SOL    HW158567   1.682   9.747   6.141 -1.9456 -0.1211 -1.9629
18325SOL    HW258568   1.620   9.869   6.205  0.7424  0.6344 -0.6276
18326SOL     OW58569  11.064   5.570   3.475 -0.1184 -0.3204 -0.1125
18326SOL    HW158570  11.116   5.492   3.491  0.7093 -0.2063 -2.0080
18326SOL    HW258571  11.117   5.643   3.507 -0.1824 -0.3976  0.1711
18327SOL     OW58572   7.275   3.938   5.211 -0.0322  0.1369 -0.0829
18327SOL    HW158573   7.198   3.959   5.159  1.5073  3.2677 -1.3760
18327SOL    HW258574   7.349   3.966   5.157  1.8967 -0.6545  1.9972
18328SOL     OW58575   7.811   5.774   1.742 -0.2622  0.2919  0.4850
18328SOL    HW158576   7.820   5.742   1.653 -1.4429  1.3586 -0.0399
18328SOL    HW258577   7.812   5.694   1.796  3.4913 -0.2679 -0.0925
18329SOL     OW58578   3.763   6.991  10.275  0.3717 -0.1765 -0.5960
18329SOL    HW158579   3.809   7.008  10.194  0.8321  0.8877 -0.1280
18329SOL    HW258580   3.671   7.011  10.256  0.3436 -0.7744 -1.0887
18330SOL     OW58581   5.605   2.827  10.060 -0.2641 -0.7665  0.2089
18330SOL    HW158582   5.520   2.870  10.050 -0.0118  0.0669  1.4567
18330SOL    HW258583   5.669   2.895  10.038  0.1017 -1.2181 -0.1467
18331SOL     OW58584  10.533   6.825   4.107  0.0996 -0.4093  0.2282
18331SOL    HW158585  10.595   6.875   4.160 -1.7000  2.5057 -0.2331
18331SOL    HW258586  10.583   6.799   4.030  1.1903  0.3821  0.6455
18332SOL     OW58587   2.284  10.188   4.528 -0.5480  0.4352  0.3491
18332SOL    HW158588   2.343  10.118   4.557  0.4594  0.8394 -0.6514
18332SOL    HW258589   2.325  10.268   4.561 -0.8825  0.6669  0.2001
18333SOL     OW58590   6.940  10.540   1.852  0.0161 -0.6770  0.5397
18333SOL    HW158591   6.950  10.476   1.781  0.9353  0.5103 -0.4491
18333SOL    HW258592   6.942  10.625   1.808  0.8869  0.1045  2.0059
18334SOL     OW58593   0.980   6.006   7.615 -0.5930  0.1778  0.7667
18334SOL    HW158594   0.916   5.959   7.669  1.4184 -1.5036  1.8267
18334SOL    HW258595   0.984   5.955   7.534  1.2286 -1.3240  1.7252
18335SOL     OW58596   8.773   6.675   7.676 -0.1186  0.3349 -0.3662
18335SOL    HW158597   8.770   6.591   7.721  1.5861  1.3386  1.8069
18335SOL    HW258598   8.688   6.715   7.694 -0.7229 -0.6329 -0.9367
18336SOL     OW58599   3.030   0.319   8.842 -0.1267  0.3873  0.5110
18336SOL    HW158600   3.038   0.396   8.899 -1.7318  0.8542  0.1478
18336SOL    HW258601   2.955   0.271   8.877  0.7603 -0.9485  0.6299
18337SOL     OW58602   4.466   0.328   2.980 -0.3106  0.6128  0.0965
18337SOL    HW158603   4.486   0.404   2.924  1.7169  0.0411 -0.0504
18337SOL    HW258604   4.468   0.363   3.069  0.7504  0.7338  0.0370
18338SOL     OW58605   1.708   9.749   3.186  0.0012  0.0998  0.6258
18338SOL    HW158606   1.697   9.681   3.120 -0.3791 -0.2071  1.0003
18338SOL    HW258607   1.718   9.702   3.268 -1.7986  0.4963  1.1212
18339SOL     OW58608   6.889   6.371   0.339  0.1378 -0.5428 -0.4556
18339SOL    HW158609   6.966   6.313   0.335 -0.1283 -0.8867 -0.6396
18339SOL    HW258610   6.919   6.447   0.389  1.2840  0.3525 -2.3877
18340SOL     OW58611   6.400  10.490   7.200  0.0369 -0.0916 -0.1282
18340SOL    HW158612   6.334  10.530   7.143 -0.0186 -0.1756 -0.1215
18340SOL    HW258613   6.481  10.536   7.177 -0.2603  0.9664  0.8010
18341SOL     OW58614   6.051   5.805   2.860 -0.3808  0.4636  0.1517
18341SOL    HW158615   6.126   5.759   2.898 -1.1118  0.5752  1.7928
18341SOL    HW258616   6.084   5.893   2.841 -0.2434  0.7197  1.4812
18342SOL     OW58617   8.073   4.947  10.465 -0.0643 -0.0862 -0.5301
18342SOL    HW158618   8.112   4.996  10.538  1.5231 -3.1271  0.8313
18342SOL    HW258619   8.002   5.003  10.435  1.8880  3.2692  0.4971
18343SOL     OW58620   9.312   0.570   1.945  0.0427  0.1628 -0.0869
18343SOL    HW158621   9.303   0.627   2.021 -2.0453 -0.3749  0.1485
18343SOL    HW258622   9.328   0.630   1.872 -0.6552  0.9458  0.3846
18344SOL     OW58623   2.327   1.719   3.093  0.3504 -0.1665  0.1416
18344SOL    HW158624   2.282   1.648   3.049  0.8588 -0.0811 -0.5381
18344SOL    HW258625   2.415   1.685   3.109  0.6258  0.3382 -0.2741
18345SOL     OW58626   8.554   6.225   0.500 -0.1661  0.5687 -0.5740
18345SOL    HW158627   8.541   6.235   0.594  2.8229 -1.2297  0.1518
18345SOL    HW258628   8.575   6.313   0.470  0.4165  0.9190  0.7652
18346SOL     OW58629   6.303   0.957   6.041 -0.2888  0.5169  0.1803
18346SOL    HW158630   6.251   0.885   6.007 -2.8758  2.0633  0.6102
18346SOL    HW258631   6.317   0.936   6.133  0.3939 -0.1886 -0.0775
18347SOL     OW58632   7.366   3.910  10.164  0.2373 -0.3211  0.0873
18347SOL    HW158633   7.310   3.862  10.103 -1.4850  2.0124 -0.3074
18347SOL    HW258634   7.446   3.858  10.169 -0.1500 -1.4328 -2.9553
18348SOL     OW58635   0.537   7.415   2.469 -0.2449  0.1104  0.4454
18348SOL    HW158636   0.456   7.367   2.452 -0.6548  0.9217  0.0302
18348SOL    HW258637   0.512   7.482   2.532  0.4033 -0.4400  1.3030
18349SOL     OW58638  10.439   5.443   9.732  0.2468 -0.1522  0.2381
18349SOL    HW158639  10.365   5.383   9.744  1.4524 -1.7595  0.0546
18349SOL    HW258640  10.470   5.462   9.820  1.2333 -1.6736  0.2680
18350SOL     OW58641   2.396   6.908   9.338 -0.2176  0.0592 -0.5400
18350SOL    HW158642   2.484   6.939   9.362  0.0589 -0.1563 -1.2443
18350SOL    HW258643   2.351   6.987   9.308  0.3471 -0.1339 -1.9336
18351SOL     OW58644   5.608   9.599   4.304  0.0038 -0.2442  0.5848
18351SOL    HW158645   5.535   9.654   4.273  0.4844  0.0549 -0.0469
18351SOL    HW258646   5.569   9.545   4.373 -0.3316  1.3742  1.7390
18352SOL     OW58647  10.980   7.759   4.587 -0.2333 -0.1916 -0.2955
18352SOL    HW158648  10.936   7.832   4.631 -1.5090 -0.5021 -0.9903
18352SOL    HW258649  10.908   7.703   4.556  0.7112 -2.0739  0.7495
18353SOL     OW58650   2.587   5.143   0.808 -0.0893 -0.6814 -0.4057
18353SOL    HW158651   2.544   5.160   0.892 -0.5942  1.3526 -1.0270
18353SOL    HW258652   2.670   5.101   0.831  0.0751  0.4296  1.1761
18354SOL     OW58653   4.471   9.291   2.929 -0.3657  0.2525  0.5403
18354SOL    HW158654   4.564   9.269   2.940 -0.6896 -0.4986  2.0501
18354SOL    HW258655   4.430   9.209   2.902 -0.5988  0.6128 -0.2438
18355SOL     OW58656  10.274   0.065   5.446  0.1383 -0.0759  0.4779
18355SOL    HW158657  10.342   0.117   5.489 -0.1732  0.4136  0.3870
18355SOL    HW258658  10.317   0.030   5.368  0.3745 -0.0113  0.5775
18356SOL     OW58659  10.277   8.031   3.524 -0.2421 -0.1590 -0.2950
18356SOL    HW158660  10.361   7.996   3.553  0.3798 -1.4705 -3.3661
18356SOL    HW258661  10.238   8.069   3.604  2.3740 -1.1902  1.6014
18357SOL     OW58662   6.197   7.726   7.087  0.1530  0.4746  0.3404
18357SOL    HW158663   6.153   7.803   7.122 -0.7312  0.3436 -0.4411
18357SOL    HW258664   6.143   7.652   7.117 -0.3289  0.3249 -0.8256
18358SOL     OW58665   6.784   6.467   3.484 -0.2094  0.9790 -0.1634
18358SOL    HW158666   6.813   6.492   3.572  1.4348 -1.5676  0.1181
18358SOL    HW258667   6.785   6.548   3.434  0.0602  2.2659  1.8416
18359SOL     OW58668   7.815   6.894   6.118  0.3501 -0.3271 -0.1495
18359SOL    HW158669   7.846   6.877   6.029  0.0347 -0.4054 -0.2467
18359SOL    HW258670   7.720   6.895   6.111  0.3252  2.0277 -0.2548
18360SOL     OW58671  10.815   3.402   2.089 -0.0085 -0.0200  0.0737
18360SOL    HW158672  10.816   3.309   2.068  0.1854  0.0694 -0.3377
18360SOL    HW258673  10.735   3.435   2.047  0.0808  0.0537 -0.0407
18361SOL     OW58674   8.403   9.592   4.978 -0.0946  0.0275 -0.0791
18361SOL    HW158675   8.458   9.571   4.903 -0.8656  1.9764 -1.2737
18361SOL    HW258676   8.449   9.554   5.053  1.2654 -1.0227 -1.3892
18362SOL     OW58677   9.276   6.582  10.059  0.0869  0.1824  0.1783
18362SOL    HW158678   9.321   6.521  10.118  1.9755 -0.2140 -1.5957
18362SOL    HW258679   9.326   6.663  10.065 -0.4378  0.5219  0.0213
18363SOL     OW58680   7.433   2.331   2.301  0.6113  0.2275 -0.0969
18363SOL    HW158681   7.398   2.396   2.362  1.5595  0.4344  0.2569
18363SOL    HW258682   7.504   2.377   2.256  0.7855 -0.3276 -0.4020
18364SOL     OW58683   7.058   1.946   2.141  0.3336  0.0316 -0.0970
18364SOL    HW158684   7.000   2.009   2.097 -0.4444 -1.4606 -1.2867
18364SOL    HW258685   7.141   1.953   2.093 -0.3340 -1.1649 -1.5249
18365SOL     OW58686   0.830   6.439   5.512 -0.4074 -0.6611 -0.0538
18365SOL    HW158687   0.865   6.464   5.597 -1.1142 -0.3479  0.1557
18365SOL    HW258688   0.754   6.384   5.532  0.3155 -1.8504 -0.5074
18366SOL     OW58689  10.375   9.301   5.251  0.0247  0.5512 -0.1584
18366SOL    HW158690  10.388   9.356   5.328 -1.0104  0.9112 -0.2219
18366SOL    HW258691  10.358   9.363   5.180 -0.2471  0.1765 -0.4227
18367SOL     OW58692  10.099   4.467   8.835  0.6727 -0.7660  0.1869
18367SOL    HW158693  10.192   4.444   8.833  0.5998 -1.1401  0.8020
18367SOL    HW258694  10.056   4.397   8.785  0.7059 -0.6337 -0.0314
18368SOL     OW58695   9.453   1.814   7.536 -0.5762 -0.4954 -0.3344
18368SOL    HW158696   9.477   1.892   7.485  0.9069 -0.0825  0.9158
18368SOL    HW258697   9.429   1.749   7.470 -1.7245  0.9552 -1.4134
18369SOL     OW58698   7.577   4.145   7.819 -0.3412 -0.0268 -0.3138
18369SOL    HW158699   7.610   4.114   7.904  1.0684  0.8830 -0.5060
18369SOL    HW258700   7.592   4.239   7.820 -2.0655  0.2981 -0.8361
18370SOL     OW58701   7.389   9.958   2.477  0.3839  0.5211 -0.1467
18370SOL    HW158702   7.458  10.015   2.442  0.2021  1.8997  1.5775
18370SOL    HW258703   7.405   9.957   2.572 -0.4133 -1.2793  0.0062
18371SOL     OW58704   3.400   4.016  11.077  0.5178  0.3389 -0.4217
18371SOL    HW158705   3.458   3.944  11.102 -0.7486 -0.4113  0.4629
18371SOL    HW258706   3.320   4.001  11.128 -0.7736  0.8591 -2.2093
18372SOL     OW58707   1.565   1.620   5.938 -0.1557 -0.1547 -0.1777
18372SOL    HW158708   1.637   1.668   5.896 -1.4923  2.1645  0.0382
18372SOL    HW258709   1.495   1.620   5.873 -1.7587  2.2709  1.3578
18373SOL     OW58710   9.643   3.238   3.932  0.5157  0.1894  0.4859
18373SOL    HW158711   9.583   3.194   3.992 -0.5970  2.8919  1.5047
18373SOL    HW258712   9.694   3.296   3.988 -0.6345  2.9054 -1.0903
18374SOL     OW58713   7.108   3.539   0.531  0.5940 -0.1935 -0.3400
18374SOL    HW158714   7.151   3.494   0.603  0.1893 -0.0091  0.0235
18374SOL    HW258715   7.057   3.471   0.487  0.0676 -0.1129  0.1433
18375SOL     OW58716   3.995   4.522   6.831  0.0764  0.2169  0.0340
18375SOL    HW158717   3.942   4.448   6.858 -0.2279  0.4515  0.0761
18375SOL    HW258718   3.948   4.599   6.862  0.8404  0.4003  0.7855
18376SOL     OW58719   3.474   1.256   3.548  0.0412 -0.2718 -0.6196
18376SOL    HW158720   3.416   1.302   3.609  0.5471 -0.5510  0.0818
18376SOL    HW258721   3.495   1.174   3.592  1.9533  0.3380 -0.2963
18377SOL     OW58722   8.519   1.302   3.737  0.2784  0.6381  0.2029
18377SOL    HW158723   8.537   1.395   3.728  0.1292  0.7797  1.2924
18377SOL    HW258724   8.425   1.294   3.718  0.2427  0.7455  0.3299
18378SOL     OW58725   6.134   4.597   6.684  0.4860 -0.2384 -0.2784
18378SOL    HW158726   6.190   4.642   6.620  2.5526 -3.0683 -0.6734
18378SOL    HW258727   6.186   4.596   6.764  0.0624 -1.0444 -0.0094
18379SOL     OW58728   4.916   8.789   2.123  0.5003 -0.5083 -0.1675
18379SOL    HW158729   4.880   8.852   2.187  3.0679  0.3016  0.6055
18379SOL    HW258730   4.852   8.718   2.122 -3.4839  2.6685 -2.3279
18380SOL     OW58731   9.272   6.954   8.208  0.4960  0.0659  0.6995
18380SOL    HW158732   9.213   7.018   8.249 -0.6575 -0.0595 -0.6665
18380SOL    HW258733   9.222   6.920   8.133  1.7117 -1.2453  0.4411
18381SOL     OW58734   2.460   7.826  10.645 -0.0521  0.0728 -0.4132
18381SOL    HW158735   2.410   7.745  10.635 -0.4224  0.0204  1.5272
18381SOL    HW258736   2.549   7.798  10.667 -0.5693  0.1198  2.0092
18382SOL     OW58737   6.175   5.593   5.274 -0.1276 -0.3176  0.1222
18382SOL    HW158738   6.145   5.555   5.191  2.1774  0.5349 -1.1849
18382SOL    HW258739   6.221   5.522   5.318 -0.9741 -0.6466  0.5064
18383SOL     OW58740   5.151   2.321   2.835  0.1193  0.1249 -0.1213
18383SOL    HW158741   5.082   2.270   2.877  0.3414  0.9820  1.3383
18383SOL    HW258742   5.231   2.271   2.851  0.3939  1.0395  1.6303
18384SOL     OW58743   3.821   4.859   2.883 -0.3534 -0.0038 -0.1233
18384SOL    HW158744   3.848   4.783   2.934 -1.2454  0.7927  1.6002
18384SOL    HW258745   3.726   4.855   2.880 -0.3810 -1.3419 -3.9159
18385SOL     OW58746   0.915   0.499   7.629  0.2668 -0.1615 -0.0976
18385SOL    HW158747   0.865   0.476   7.551  0.8220  0.3849 -0.6260
18385SOL    HW258748   0.962   0.578   7.605  0.0873  0.2786  0.9538
18386SOL     OW58749   6.633   1.698   3.865 -0.2723  0.0680 -0.5439
18386SOL    HW158750   6.721   1.673   3.837 -0.0550  0.0577  0.1188
18386SOL    HW258751   6.582   1.617   3.862 -0.3016  0.1022 -1.0670
18387SOL     OW58752   2.395   9.642   7.338  0.3580  0.1040  0.1513
18387SOL    HW158753   2.393   9.573   7.272 -3.8615 -1.3481  1.4377
18387SOL    HW258754   2.397   9.723   7.288  2.1769 -0.8668 -1.4906
18388SOL     OW58755   2.096   7.865   9.831  0.1354  0.3971  0.3866
18388SOL    HW158756   2.022   7.922   9.851 -0.2669  0.4037 -1.0278
18388SOL    HW258757   2.173   7.922   9.835 -0.1533  0.8169  0.0148
18389SOL     OW58758   3.090   7.195   8.316 -0.6830 -0.7139  0.2422
18389SOL    HW158759   3.101   7.264   8.381 -2.8383  0.3552 -0.4293
18389SOL    HW258760   3.109   7.114   8.363 -0.8923  0.1241  1.8388
18390SOL     OW58761   9.610   3.402   8.389 -0.5927  0.6153  0.2530
18390SOL    HW158762   9.676   3.373   8.451 -0.8960 -1.0524 -0.1756
18390SOL    HW258763   9.538   3.339   8.397  0.2199 -0.9963 -3.2515
18391SOL     OW58764   8.034   5.252   4.179  0.0986  0.5784  0.2288
18391SOL    HW158765   8.018   5.159   4.191  0.3989  0.5652  0.5394
18391SOL    HW258766   8.049   5.262   4.085  0.5551  0.2365  0.2612
18392SOL     OW58767   3.626   2.836   1.944  0.4916 -0.0026 -0.0713
18392SOL    HW158768   3.627   2.785   1.864  1.3114 -0.1675  0.0305
18392SOL    HW258769   3.538   2.826   1.979  0.5869 -1.2148 -0.1398
18393SOL     OW58770   4.559   7.018   7.560 -0.1627 -0.4783 -0.4706
18393SOL    HW158771   4.610   7.004   7.480 -1.7012 -2.2974 -1.2163
18393SOL    HW258772   4.613   7.077   7.613  2.2481 -1.5295 -1.5994
18394SOL     OW58773   5.782   5.022   1.874  0.4050  0.2378 -0.7025
18394SOL    HW158774   5.763   4.928   1.876  0.4959  0.1894  2.2043
18394SOL    HW258775   5.697   5.064   1.872  0.2287  0.0398  1.1409
18395SOL     OW58776   2.496  10.454   1.604 -0.3064  0.3001  0.3629
18395SOL    HW158777   2.461  10.410   1.526  3.4571  0.5157 -1.6924
18395SOL    HW258778   2.477  10.546   1.590 -1.6033  0.1364  0.8983
18396SOL     OW58779  10.174   8.004  10.937  0.0141 -0.0127 -0.3653
18396SOL    HW158780  10.245   7.956  10.980  1.6749  1.0860 -1.7336
18396SOL    HW258781  10.159   7.958  10.855 -0.4714  0.0922 -0.3388
18397SOL     OW58782   6.813   2.397  10.786 -0.3505  0.5032  0.6193
18397SOL    HW158783   6.890   2.416  10.732 -0.4725  1.0095  0.6158
18397SOL    HW258784   6.848   2.355  10.865 -0.2006 -0.5733  0.0017
18398SOL     OW58785   6.794  10.088   3.002 -0.2309 -0.0291  0.3760
18398SOL    HW158786   6.753  10.001   2.999  0.4976 -0.3548 -0.8287
18398SOL    HW258787   6.790  10.119   2.912  0.5392  0.6957  0.5812
18399SOL     OW58788   7.687   6.200   6.032 -0.6110  0.5500  0.4786
18399SOL    HW158789   7.715   6.176   6.121 -1.0376  2.0016  1.0388
18399SOL    HW258790   7.764   6.241   5.993 -0.0434 -1.1682 -0.2896
18400SOL     OW58791   8.985   9.516   6.775 -0.5946 -0.2039  0.5954
18400SOL    HW158792   8.927   9.582   6.813  0.1752  0.7259  0.2041
18400SOL    HW258793   8.945   9.433   6.798 -1.2658  0.3821  1.6256
18401SOL     OW58794   8.059   9.642   9.172  0.5515 -0.2265 -0.2597
18401SOL    HW158795   8.133   9.703   9.178  0.5545 -0.0968 -1.3590
18401SOL    HW258796   8.033   9.645   9.080 -2.4612  1.6184  0.5360
18402SOL     OW58797   9.972   7.018   2.758  0.3058  0.2498  0.2428
18402SOL    HW158798  10.045   7.044   2.702  0.8316 -2.1244 -0.2430
18402SOL    HW258799   9.995   7.054   2.844  1.4694  0.5243 -0.1623
18403SOL     OW58800   2.205   4.831   6.718 -0.3635 -0.3024  0.4957
18403SOL    HW158801   2.258   4.909   6.701 -1.4503  0.2759 -0.3449
18403SOL    HW258802   2.119   4.865   6.742 -0.9325 -1.2384 -0.1297
18404SOL     OW58803   5.144   0.768   8.946  0.0954  0.4553 -0.0102
18404SOL    HW158804   5.166   0.678   8.971  0.4119 -0.0974 -2.0976
18404SOL    HW258805   5.215   0.794   8.887 -1.4744  0.9823 -1.7748
18405SOL     OW58806   0.411   7.896   4.292  0.3456 -0.2155 -0.1582
18405SOL    HW158807   0.484   7.920   4.349 -0.1818  1.6534 -0.2102
18405SOL    HW258808   0.441   7.920   4.204 -0.5311  1.1368 -0.1092
18406SOL     OW58809   2.306   0.798  10.414  0.2188 -0.1205  0.2121
18406SOL    HW158810   2.391   0.756  10.401  0.4124  0.8955 -2.4776
18406SOL    HW258811   2.324   0.868  10.477  1.6473  0.6684 -0.9978
18407SOL     OW58812   3.289   7.071   8.991 -0.3059 -0.0066  0.2626
18407SOL    HW158813   3.300   7.007   9.061 -2.0997  0.5198  1.0778
18407SOL    HW258814   3.265   7.152   9.035 -0.9325  0.4784 -0.9131
18408SOL     OW58815  10.641   3.154   3.879  0.2258 -0.2458  0.0493
18408SOL    HW158816  10.611   3.214   3.948  2.0090  0.8233 -0.0404
18408SOL    HW258817  10.692   3.087   3.926  1.0952  0.2528 -0.1567
18409SOL     OW58818   7.763   8.716   1.931  0.7439  0.0733 -0.3189
18409SOL    HW158819   7.741   8.792   1.985  2.0483  0.7206 -0.6411
18409SOL    HW258820   7.680   8.671   1.918  0.4308 -0.4323  2.6644
18410SOL     OW58821   9.386   0.692   9.395 -0.0192  0.0697  0.2738
18410SOL    HW158822   9.370   0.766   9.453  0.8852  1.1369 -0.7963
18410SOL    HW258823   9.477   0.668   9.412  0.2577  0.3926 -0.6712
18411SOL     OW58824   0.691   3.997   4.220  0.1191 -0.1385 -0.3623
18411SOL    HW158825   0.667   4.090   4.226 -0.0850 -0.2735  1.8660
18411SOL    HW258826   0.764   3.995   4.159 -0.7862  1.2728 -1.5871
18412SOL     OW58827   8.768   3.185   0.584  0.3178 -0.5263  0.1009
18412SOL    HW158828   8.739   3.114   0.526  0.2556 -0.4095 -0.0112
18412SOL    HW258829   8.803   3.252   0.525 -2.4727  0.9208 -0.0414
18413SOL     OW58830   3.493   0.615   1.473  0.8970 -0.3228 -0.0717
18413SOL    HW158831   3.412   0.655   1.442  2.0377  1.7613 -0.5195
18413SOL    HW258832   3.479   0.600   1.566 -0.1168 -0.3288 -0.2164
18414SOL     OW58833   9.898   7.362   8.630  0.2523  0.3531  0.6070
18414SOL    HW158834   9.939   7.414   8.700  0.3276 -0.6847  1.3656
18414SOL    HW258835   9.849   7.294   8.677  0.4714 -0.4843 -0.3451
18415SOL     OW58836   2.834   6.208   0.457 -0.2067  0.1357 -0.2093
18415SOL    HW158837   2.863   6.181   0.370 -1.8906  1.3518 -1.2186
18415SOL    HW258838   2.878   6.149   0.517 -0.4112 -1.9566 -2.0039
18416SOL     OW58839   3.017  10.021   8.889  0.5412  0.7923  0.3147
18416SOL    HW158840   3.010   9.944   8.945  1.4579 -1.2746 -2.2556
18416SOL    HW258841   3.093  10.068   8.924  2.5779 -1.6880 -0.4560
18417SOL     OW58842   3.251   8.211   3.487  0.8048  0.2833 -0.5989
18417SOL    HW158843   3.206   8.281   3.534  0.7572 -0.0661 -0.1246
18417SOL    HW258844   3.285   8.154   3.555 -1.0374 -1.3736 -0.9810
18418SOL     OW58845   0.811   5.463   7.983 -0.3013 -0.0507 -0.3377
18418SOL    HW158846   0.748   5.393   7.964  0.1431 -0.7699  0.7498
18418SOL    HW258847   0.816   5.514   7.902 -2.5359  0.2408 -0.3562
18419SOL     OW58848   1.644  10.981   0.787  0.1158  0.0620 -0.2674
18419SOL    HW158849   1.737  10.998   0.804 -0.0046 -0.0237  0.5058
18419SOL    HW258850   1.612  10.942   0.867 -0.3261 -1.0131 -0.9465
18420SOL     OW58851   4.157   9.541   3.971  0.1578 -0.1495 -0.0354
18420SOL    HW158852   4.119   9.575   3.891 -1.3966 -0.8283  0.3553
18420SOL    HW258853   4.112   9.589   4.041  1.7732  0.7171  0.4528
18421SOL     OW58854   4.329   3.500   2.490  0.1108 -0.4001 -0.4916
18421SOL    HW158855   4.245   3.454   2.488 -0.2225 -0.0118  1.9842
18421SOL    HW258856   4.393   3.431   2.511 -0.0471 -0.1810  0.7550
18422SOL     OW58857   3.385   5.998   3.290 -0.1534 -0.2229  0.2470
18422SOL    HW158858   3.479   6.008   3.276  0.1474 -0.5760  1.7640
18422SOL    HW258859   3.379   5.935   3.362 -1.5734 -0.6491 -0.2231
18423SOL     OW58860   9.757   0.187   7.397  0.9796 -0.0591  0.3578
18423SOL    HW158861   9.683   0.158   7.451 -0.5389  2.6013 -0.0909
18423SOL    HW258862   9.807   0.108   7.379 -0.7668 -1.6738  2.2057
18424SOL     OW58863   2.411   1.842   5.560  0.2090 -0.2510  0.3098
18424SOL    HW158864   2.475   1.803   5.501 -1.1277 -0.3453 -1.1418
18424SOL    HW258865   2.366   1.768   5.600  0.7151 -0.1846  1.0137
18425SOL     OW58866   1.190   9.966   8.987  0.1062  0.4892  0.2539
18425SOL    HW158867   1.142   9.904   9.043  1.0846 -0.8614 -0.3474
18425SOL    HW258868   1.121  10.016   8.943 -0.7161 -0.0933  0.8417
18426SOL     OW58869   5.147   8.988   3.520 -0.3189 -0.3388  0.5700
18426SOL    HW158870   5.186   8.948   3.442  1.1429  0.8407  0.6329
18426SOL    HW258871   5.054   8.964   3.516 -0.4109  0.1429 -1.8468
18427SOL     OW58872   6.183   1.197   7.950 -0.3400  0.3057 -0.6118
18427SOL    HW158873   6.233   1.147   8.015 -1.3271 -1.7537 -1.3342
18427SOL    HW258874   6.207   1.288   7.965  1.5347 -0.3713  0.8236
18428SOL     OW58875   4.630   5.258   0.913 -0.1047 -0.1785  1.0053
18428SOL    HW158876   4.646   5.342   0.955 -1.4830  1.3655 -1.3305
18428SOL    HW258877   4.537   5.261   0.888 -0.2144 -2.4451  0.9018
18429SOL     OW58878   0.649   9.681   5.762 -0.2204  0.2536  0.0667
18429SOL    HW158879   0.624   9.703   5.852 -0.0091  0.8665 -0.0219
18429SOL    HW258880   0.568   9.654   5.721 -0.1463 -1.0611  0.7333
18430SOL     OW58881   4.697   0.750   3.948  0.1823 -0.5455 -0.1952
18430SOL    HW158882   4.660   0.730   4.034  0.1735 -0.5206 -0.1933
18430SOL    HW258883   4.622   0.751   3.889  0.2498 -1.1015 -0.3019
18431SOL     OW58884   8.596   9.588   3.398 -0.0483  0.1671  0.7621
18431SOL    HW158885   8.577   9.559   3.487 -0.1450  0.2497  0.7684
18431SOL    HW258886   8.524   9.553   3.345 -0.7708  1.2974  0.9396
18432SOL     OW58887   8.812   9.640   5.781 -0.6157  0.9369 -0.2554
18432SOL    HW158888   8.887   9.594   5.817 -2.4789 -0.5676  1.9971
18432SOL    HW258889   8.779   9.693   5.853 -1.4439  1.9614 -1.3471
18433SOL     OW58890   4.896   2.497   4.947 -0.3907  0.2035 -0.2030
18433SOL    HW158891   4.850   2.531   5.023  0.5194  2.7961 -0.7191
18433SOL    HW258892   4.986   2.528   4.957  0.7155 -2.6357 -0.4623
18434SOL     OW58893   5.318   1.804   6.075  0.5591 -0.2857  0.0067
18434SOL    HW158894   5.242   1.791   6.132  0.3503 -1.3886 -0.5135
18434SOL    HW258895   5.302   1.890   6.035  0.1286 -0.0231  0.7124
18435SOL     OW58896   6.196   9.887  11.048  0.2710 -0.3443 -0.3695
18435SOL    HW158897   6.238   9.917  10.967  2.1538 -1.5678  0.0965
18435SOL    HW258898   6.249   9.926  11.118 -1.1732  0.4766  0.3195
18436SOL     OW58899  10.524   0.740   1.156  0.0728 -0.3107 -0.3597
18436SOL    HW158900  10.489   0.825   1.131  0.2189  0.0040  0.4876
18436SOL    HW258901  10.460   0.677   1.123  0.8022 -0.0095 -2.5264
18437SOL     OW58902   1.905   8.655   2.979 -0.5863 -0.2276 -0.5808
18437SOL    HW158903   1.942   8.738   2.948  1.2309 -0.1871  1.4278
18437SOL    HW258904   1.954   8.588   2.931  0.7872 -0.1394  0.6243
18438SOL     OW58905   1.361   1.281   4.351  0.1338 -0.4362 -0.5244
18438SOL    HW158906   1.418   1.213   4.316  0.9410  0.5285 -1.1641
18438SOL    HW258907   1.335   1.249   4.438  0.6281 -1.4673 -0.7437
18439SOL     OW58908   6.626   5.907   6.597 -0.4072 -0.3781 -0.3525
18439SOL    HW158909   6.569   5.830   6.600 -1.4860  0.3135 -1.9939
18439SOL    HW258910   6.567   5.980   6.580  0.6500  0.8012  0.7793
18440SOL     OW58911   2.850   5.252   0.143 -0.1224  0.8413  0.1240
18440SOL    HW158912   2.901   5.277   0.066  0.8744 -0.0084  0.5039
18440SOL    HW258913   2.856   5.157   0.147  1.0652  0.9458  2.0654
18441SOL     OW58914   4.678   2.154   0.307 -0.1890  0.6343  0.6593
18441SOL    HW158915   4.659   2.247   0.323  0.9575  0.8673  0.7861
18441SOL    HW258916   4.760   2.139   0.353  0.5056 -0.0138 -0.7469
18442SOL     OW58917   4.394   7.267  10.088 -0.4767  0.4381  0.0061
18442SOL    HW158918   4.449   7.275  10.166 -1.0660  3.4163  0.2656
18442SOL    HW258919   4.435   7.198  10.036  0.2319 -1.3152  2.6643
18443SOL     OW58920  10.244   4.881   6.533  0.4205 -0.6142 -0.6014
18443SOL    HW158921  10.248   4.976   6.524 -1.9112 -0.4568 -0.6812
18443SOL    HW258922  10.304   4.848   6.466 -0.3660  0.8147 -2.0815
18444SOL     OW58923   5.896   0.955  11.050 -0.3192  0.1354 -0.1366
18444SOL    HW158924   5.880   0.868  11.012 -1.9251  0.3864 -0.0841
18444SOL    HW258925   5.889   1.015  10.976  1.8087  0.1714 -0.3692
18445SOL     OW58926   0.956   9.235   0.331 -0.1395  0.3964 -0.7179
18445SOL    HW158927   1.038   9.193   0.307 -0.5775  0.3529 -2.2823
18445SOL    HW258928   0.895   9.162   0.346 -0.4870  0.4202 -1.8903
18446SOL     OW58929   8.142   0.167   9.023 -0.0838  0.0262  0.3990
18446SOL    HW158930   8.118   0.186   9.114  0.0458 -2.4624  1.0117
18446SOL    HW258931   8.230   0.202   9.014  0.5905 -1.2132  1.8057
18447SOL     OW58932   2.855   1.987   3.144 -0.5813  0.1923  0.0487
18447SOL    HW158933   2.790   1.940   3.092  0.5631 -1.3569 -0.0776
18447SOL    HW258934   2.839   1.959   3.235 -1.0014  0.9356  0.2053
18448SOL     OW58935   5.738   1.345   0.321  0.3556 -0.1066  0.1885
18448SOL    HW158936   5.797   1.384   0.256  1.2165 -2.2228 -0.3697
18448SOL    HW258937   5.770   1.377   0.405 -1.4562  3.6037 -0.3359
18449SOL     OW58938   5.718   5.168   3.644  0.0639  0.4255  0.3516
18449SOL    HW158939   5.665   5.247   3.652  1.8716  2.0912 -2.1307
18449SOL    HW258940   5.803   5.194   3.680  1.0740  0.1612 -1.6920
18450SOL     OW58941   8.539   2.837   2.658  0.0532  0.1418 -0.0058
18450SOL    HW158942   8.451   2.833   2.619  1.2421 -0.1683 -2.9264
18450SOL    HW258943   8.575   2.750   2.644  0.4637 -0.1131  2.2882
18451SOL     OW58944   9.966   5.091   1.575  0.4597  0.3063  0.4354
18451SOL    HW158945   9.967   5.162   1.510  0.0513 -0.6432 -0.6322
18451SOL    HW258946   9.945   5.013   1.525  0.8624 -0.5798  1.6076
18452SOL     OW58947  11.083   6.592   2.304  0.1856 -0.4457  0.0601
18452SOL    HW158948  11.103   6.679   2.270  1.0323  0.0797  1.7617
18452SOL    HW258949  11.089   6.602   2.399  0.1620 -2.3329  0.2950
18453SOL     OW58950   8.660   1.566   2.924  0.1962  0.0782 -0.0855
18453SOL    HW158951   8.730   1.605   2.872  1.7423 -0.2584  1.6384
18453SOL    HW258952   8.610   1.641   2.957 -0.4382  0.3109 -1.4955
18454SOL     OW58953   1.043   2.449   1.936  0.4191 -0.3554 -0.0868
18454SOL    HW158954   1.135   2.473   1.945  0.2083  0.7993 -0.7503
18454SOL    HW258955   1.032   2.431   1.842 -0.0632 -0.2926 -0.0443
18455SOL     OW58956   2.620  10.680   8.643 -0.0307  0.6294  0.1658
18455SOL    HW158957   2.564  10.695   8.719  0.3984  1.3998  0.3338
18455SOL    HW258958   2.632  10.766   8.604 -0.3882  0.2214 -0.8873
18456SOL     OW58959   3.868  10.521   9.703  0.0268  0.0516 -0.4868
18456SOL    HW158960   3.908  10.525   9.790 -0.5590 -1.2754 -0.1377
18456SOL    HW258961   3.827  10.435   9.699 -1.1536  0.6230 -1.5513
18457SOL     OW58962   9.820  10.730   2.246  0.0598  0.3115  0.2042
18457SOL    HW158963   9.839  10.807   2.192  3.0024  0.9347  1.9462
18457SOL    HW258964   9.875  10.661   2.209  1.4962  0.5311  1.8248
18458SOL     OW58965   4.981  10.699   1.372 -0.3705  0.0472  0.2258
18458SOL    HW158966   5.057  10.651   1.404 -1.2348 -0.9296  0.8721
18458SOL    HW258967   4.909  10.635   1.373 -0.7682  0.3466 -2.3628
18459SOL     OW58968  10.971   4.297   1.538 -0.3339  0.1212 -0.0354
18459SOL    HW158969  10.960   4.384   1.576 -0.2386  0.6176 -1.1243
18459SOL    HW258970  11.051   4.303   1.485  1.7937 -1.6206  2.6512
18460SOL     OW58971   0.180  11.002   2.770 -0.3411 -0.0781 -0.0030
18460SOL    HW158972   0.213  11.069   2.711 -1.1761  1.1306  0.8564
18460SOL    HW258973   0.165  11.048   2.853 -1.0700 -1.2975  0.5738
18461SOL     OW58974   3.733  10.774  10.541  0.0369 -0.4546 -0.2836
18461SOL    HW158975   3.785  10.752  10.619 -1.8322 -0.5070  1.0027
18461SOL    HW258976   3.642  10.758  10.568 -0.5727 -3.1819 -3.3336
18462SOL     OW58977  10.740   2.929   4.010 -0.1164  0.3585 -0.1492
18462SOL    HW158978  10.678   2.859   4.031 -0.3016  0.3584 -0.6775
18462SOL    HW258979  10.762   2.969   4.094 -0.9883  0.4866  0.0250
18463SOL     OW58980   9.350   8.394   4.569  0.1462 -0.0597  0.5697
18463SOL    HW158981   9.429   8.351   4.603 -0.2446 -1.5834 -0.3664
18463SOL    HW258982   9.373   8.420   4.480 -0.7464 -1.6403 -0.1714
18464SOL     OW58983   6.270   1.985  10.486  0.9973 -0.9127  0.0888
18464SOL    HW158984   6.206   1.962  10.553 -0.5335  3.0265  0.2367
18464SOL    HW258985   6.340   2.030  10.533  0.3608  1.0631 -0.7336
18465SOL     OW58986   3.982   9.238   2.031 -0.0116  0.4419 -0.1574
18465SOL    HW158987   3.929   9.315   2.009 -1.0667 -0.5739 -1.3498
18465SOL    HW258988   3.920   9.175   2.067  0.9721  0.3881  1.5449
18466SOL     OW58989   8.035   4.160   0.827 -0.3172 -0.0667 -0.3398
18466SOL    HW158990   8.091   4.085   0.805  0.3299  0.1956  0.3736
18466SOL    HW258991   8.038   4.164   0.923 -0.8134  0.5177 -0.3487
18467SOL     OW58992   9.078   6.869   0.575  0.7447  0.2015  0.1292
18467SOL    HW158993   9.173   6.860   0.575  0.6360 -1.7587 -2.1761
18467SOL    HW258994   9.049   6.819   0.652  1.5036 -0.6901 -0.1471
18468SOL     OW58995   9.539   8.823   2.162  0.4707 -0.4245  0.3359
18468SOL    HW158996   9.450   8.789   2.154 -0.2181  1.3966 -0.3867
18468SOL    HW258997   9.596   8.749   2.138 -0.8117 -1.6652  0.9969
18469SOL     OW58998   9.770   0.674   4.872 -0.6751  0.2056  0.0601
18469SOL    HW158999   9.845   0.730   4.891 -0.1600 -0.0546 -1.1106
18469SOL    HW259000   9.717   0.676   4.952  0.0433  1.2332  0.5239
18470SOL     OW59001   5.341   0.194   5.452  0.5093  0.4613  0.1827
18470SOL    HW159002   5.255   0.235   5.462  0.4451  1.1757 -2.4662
18470SOL    HW259003   5.400   0.249   5.504 -0.3950  0.8190  0.8624
18471SOL     OW59004   2.057   8.809   0.866 -0.6951 -0.5694 -0.4785
18471SOL    HW159005   2.034   8.733   0.812  0.0888 -1.3457  0.2629
18471SOL    HW259006   2.150   8.823   0.849 -1.1710  1.2710 -1.8684
18472SOL     OW59007   2.753   3.996   1.724  0.4846 -0.6378 -0.4541
18472SOL    HW159008   2.723   3.972   1.812  1.0375 -0.9855 -0.3516
18472SOL    HW259009   2.695   4.067   1.697  1.6789  1.0240  1.0873
18473SOL     OW59010   8.150   6.347  10.579 -0.4692  0.0274 -0.3543
18473SOL    HW159011   8.211   6.293  10.529 -0.0037  2.5737 -2.7858
18473SOL    HW259012   8.198   6.372  10.657  0.8838  0.3373 -1.2593
18474SOL     OW59013   9.936   5.331   6.322 -0.3609 -0.1916  0.1827
18474SOL    HW159014  10.028   5.355   6.333 -0.3052  0.8384 -1.9221
18474SOL    HW259015   9.900   5.332   6.410  1.9681 -2.2312  1.3035
18475SOL     OW59016   9.777   2.898   0.035 -0.1537 -0.4723 -0.0369
18475SOL    HW159017   9.734   2.916  -0.048  1.1714  0.2234 -0.6179
18475SOL    HW259018   9.758   2.806   0.054 -0.0570 -0.7853 -1.3781
18476SOL     OW59019   3.635   5.022   1.987  0.3182  0.1985 -0.3287
18476SOL    HW159020   3.692   5.014   2.063  1.0200 -0.1012 -0.8710
18476SOL    HW259021   3.656   5.107   1.950  0.1342  0.2532 -0.3053
18477SOL     OW59022   4.440   1.527   9.896 -0.3652 -0.7149 -0.0627
18477SOL    HW159023   4.503   1.455   9.892 -1.7556 -1.9978  0.3922
18477SOL    HW259024   4.477   1.586   9.962  0.7027 -1.0831 -0.3015
18478SOL     OW59025  10.944   3.275   4.622  0.2210  0.1063  0.2560
18478SOL    HW159026  11.010   3.267   4.691  0.0803 -0.8619  0.2982
18478SOL    HW259027  10.980   3.340   4.562  0.2395  1.1525  1.3447
18479SOL     OW59028  10.145   9.065  10.412 -0.4710 -0.4727 -0.4496
18479SOL    HW159029  10.144   9.157  10.384  0.5883 -0.1837  0.3861
18479SOL    HW259030  10.168   9.017  10.332  0.4871  0.1405 -0.5614
18480SOL     OW59031   5.807   4.904   3.780 -0.4094  0.2498 -0.3272
18480SOL    HW159032   5.843   4.816   3.785 -0.2629  0.3379  0.2127
18480SOL    HW259033   5.713   4.893   3.794 -0.3276  0.2301  0.2030
18481SOL     OW59034   2.935   3.647   5.515  0.2141 -0.4289  0.9447
18481SOL    HW159035   2.911   3.559   5.544  0.9853 -1.0537 -0.2715
18481SOL    HW259036   3.029   3.644   5.501 -0.0550 -0.1100 -1.3396
18482SOL     OW59037   9.865  10.130   6.008  0.7259  0.0725  0.2338
18482SOL    HW159038   9.820  10.048   6.027  0.5979  0.3425  1.1693
18482SOL    HW259039   9.950  10.103   5.973  1.3998 -0.5181  2.1738
18483SOL     OW59040   9.293   3.617   6.702 -0.5400  0.5123  0.4540
18483SOL    HW159041   9.311   3.571   6.784  0.1354  0.1111  0.0869
18483SOL    HW259042   9.361   3.683   6.696 -0.5177  0.4637  0.1620
18484SOL     OW59043   1.096   2.981   5.744 -0.5079 -0.7415  0.3652
18484SOL    HW159044   1.136   2.903   5.780 -0.1425 -0.9706 -0.5217
18484SOL    HW259045   1.138   3.054   5.790 -0.0138 -1.0293  0.3698
18485SOL     OW59046   6.804   7.273   7.315 -0.7568  0.3531  0.2835
18485SOL    HW159047   6.731   7.251   7.373 -0.7283  0.4547  0.3563
18485SOL    HW259048   6.801   7.368   7.307 -1.6535  0.2542 -1.0334
18486SOL     OW59049   8.993   9.056   0.108  0.2371 -0.0135  0.0742
18486SOL    HW159050   9.082   9.025   0.123 -0.1968 -1.0984  0.4770
18486SOL    HW259051   8.944   8.977   0.085 -0.4942  0.6631 -0.7658
18487SOL     OW59052   0.033   4.330   1.342  0.2119  0.0187  0.4845
18487SOL    HW159053   0.104   4.331   1.278 -1.5445 -0.5395 -1.5993
18487SOL    HW259054  -0.041   4.372   1.297 -1.6891 -2.1643  1.3375
18488SOL     OW59055   4.520   3.128   8.239  0.3431 -0.4791 -0.1636
18488SOL    HW159056   4.461   3.103   8.167 -0.9934 -0.4107  0.8704
18488SOL    HW259057   4.565   3.048   8.262  1.2689 -0.3705 -1.4851
18489SOL     OW59058   7.562   2.907   9.436  0.0081 -0.3306  0.6893
18489SOL    HW159059   7.486   2.964   9.444  0.2882  0.1184  0.1676
18489SOL    HW259060   7.637   2.964   9.453  0.2296 -0.7738  1.2140
18490SOL     OW59061   5.798   9.022   0.799 -0.0505  0.0261 -0.7974
18490SOL    HW159062   5.840   8.973   0.869  0.8080  0.5478 -0.9274
18490SOL    HW259063   5.773   8.956   0.734  1.2047 -0.2505 -1.0372
18491SOL     OW59064   8.519   2.148   3.436 -0.1892  0.3262 -0.2190
18491SOL    HW159065   8.463   2.177   3.508 -0.6133  0.6461 -0.6659
18491SOL    HW259066   8.497   2.206   3.364 -1.3127 -1.2842 -1.2562
18492SOL     OW59067   7.963   4.352   7.377 -0.3531  0.3352 -0.0993
18492SOL    HW159068   7.979   4.367   7.471  1.6898 -0.1435 -0.3173
18492SOL    HW259069   7.902   4.278   7.375  0.4209 -0.3702  0.8914
18493SOL     OW59070   5.688   6.042   9.301  0.2214 -0.3304 -0.1271
18493SOL    HW159071   5.730   6.075   9.221  0.8661 -0.9149 -0.0425
18493SOL    HW259072   5.721   5.952   9.310 -0.3730 -0.5038  0.4304
18494SOL     OW59073   2.066   7.702   5.360 -0.2735 -0.4595 -0.2139
18494SOL    HW159074   2.015   7.773   5.400 -0.4620 -0.5087 -0.3676
18494SOL    HW259075   2.156   7.718   5.389 -0.8387 -2.4801  3.1679
18495SOL     OW59076   2.996   1.207   3.739 -0.7398 -0.4378 -0.2138
18495SOL    HW159077   3.060   1.138   3.724 -1.4713 -1.3162  0.6006
18495SOL    HW259078   2.919   1.162   3.774 -0.6215  0.9662  2.0663
18496SOL     OW59079   8.255   7.864   7.289 -0.1768  1.1821  0.5965
18496SOL    HW159080   8.249   7.948   7.335 -2.0534  0.8484  1.0313
18496SOL    HW259081   8.220   7.800   7.351  0.2903  0.2258 -0.1068
18497SOL     OW59082   4.555   5.545   8.660  0.0912  0.3472  0.3523
18497SOL    HW159083   4.577   5.635   8.636 -0.1263  0.3270  0.0754
18497SOL    HW259084   4.489   5.519   8.597 -0.3310  0.2208  0.8446
18498SOL     OW59085   8.481  11.101   7.941  0.6352 -0.0887 -0.2499
18498SOL    HW159086   8.464  11.188   7.979  1.0580 -0.2020  0.2034
18498SOL    HW259087   8.402  11.082   7.889  1.7037  1.8471 -2.8003
18499SOL     OW59088   4.335   5.925  10.924 -0.0501 -0.5635  0.3479
18499SOL    HW159089   4.384   5.959  10.999  0.0367  0.0946  0.0015
18499SOL    HW259090   4.401   5.879  10.872  0.3721  0.8677 -0.4507
18500SOL     OW59091   7.381   1.342   3.765  0.5475  0.1396 -0.3644
18500SOL    HW159092   7.436   1.408   3.808  1.6381 -0.2284 -1.1338
18500SOL    HW259093   7.391   1.264   3.820 -0.0662  0.3684  0.0794
18501SOL     OW59094   8.588  10.963   9.806 -0.1792  0.0249 -0.6901
18501SOL    HW159095   8.516  11.000   9.856  0.8613 -1.1028  1.7758
18501SOL    HW259096   8.550  10.940   9.721 -2.5955 -0.1482  0.3802
18502SOL     OW59097   8.236   4.056   1.297  0.0980  0.0325 -0.0867
18502SOL    HW159098   8.215   4.042   1.205  0.6463 -1.0381 -0.0637
18502SOL    HW259099   8.236   3.968   1.335  0.9802  0.3542  0.6869
18503SOL     OW59100   3.633   0.484   9.758  0.5847  0.3029 -0.6195
18503SOL    HW159101   3.588   0.556   9.802  1.3177  0.3969  0.0030
18503SOL    HW259102   3.712   0.469   9.811  0.9982 -0.2232 -1.3616
18504SOL     OW59103   6.619   2.606  10.800  0.1370  0.0661 -0.7825
18504SOL    HW159104   6.660   2.522  10.821  2.1205  1.0635 -0.3761
18504SOL    HW259105   6.690   2.657  10.761 -0.4303  2.2367  0.8387
18505SOL     OW59106   2.250   3.606   2.180  0.2141  0.0670 -0.8836
18505SOL    HW159107   2.169   3.582   2.225  0.1794  0.2656 -0.8386
18505SOL    HW259108   2.319   3.593   2.245  0.3001 -0.7479 -1.1276
18506SOL     OW59109   8.331   5.232   0.145 -0.1443 -0.0749  0.6356
18506SOL    HW159110   8.342   5.298   0.214  0.2190 -0.3150  0.8143
18506SOL    HW259111   8.247   5.253   0.104 -0.9920 -0.6957  1.9820
18507SOL     OW59112  10.148   6.853   4.427  0.1277 -0.1228 -0.1133
18507SOL    HW159113  10.243   6.866   4.428  0.1723 -0.4160  1.1288
18507SOL    HW259114  10.113   6.942   4.418  0.5097  0.0067 -0.3911
18508SOL     OW59115   4.123  10.230   7.096 -0.0101  0.1346 -0.0893
18508SOL    HW159116   4.216  10.207   7.089  0.3441  0.7612  1.8499
18508SOL    HW259117   4.077  10.155   7.058  1.2670 -0.1497 -1.1691
18509SOL     OW59118   6.262   4.341   5.449 -0.9412 -0.2184 -0.0107
18509SOL    HW159119   6.271   4.367   5.357  1.0218 -0.0236  0.1770
18509SOL    HW259120   6.287   4.419   5.498  1.3242 -1.2264  0.6007
18510SOL     OW59121   6.369   3.024   5.383  0.1427  0.1714 -0.3632
18510SOL    HW159122   6.464   3.010   5.387  0.2220  0.8043  0.1900
18510SOL    HW259123   6.331   2.940   5.408  0.5163 -0.5920 -2.1630
18511SOL     OW59124   2.202   9.015   8.514 -0.2080  0.5167  0.5624
18511SOL    HW159125   2.127   9.057   8.473 -0.6389 -0.6629  0.1041
18511SOL    HW259126   2.266   9.007   8.444 -0.1707  0.3018  0.6216
18512SOL     OW59127   0.796   9.149  10.211 -0.1534  0.1804 -0.4238
18512SOL    HW159128   0.830   9.217  10.269 -0.2391  0.7183 -0.9974
18512SOL    HW259129   0.731   9.193  10.158  0.0983 -0.2480 -1.1031
18513SOL     OW59130   9.860   0.422   5.881 -0.1087 -0.0540 -0.0254
18513SOL    HW159131   9.950   0.451   5.864  0.0988 -0.3573  0.5064
18513SOL    HW259132   9.866   0.376   5.965 -0.5311 -1.1643 -0.5842
18514SOL     OW59133   6.962   5.303   8.450 -0.3161  0.1108 -0.6353
18514SOL    HW159134   7.032   5.325   8.511 -0.4630  1.0141 -0.7797
18514SOL    HW259135   6.948   5.382   8.399 -0.6112 -0.4417 -1.4427
18515SOL     OW59136   1.740  10.528   6.897  0.2829  0.2830 -0.3918
18515SOL    HW159137   1.773  10.456   6.844 -1.7813 -1.6023  0.6995
18515SOL    HW259138   1.818  10.575   6.926  1.6533 -1.1260 -1.6475
18516SOL     OW59139   4.201   8.441   6.933  0.5187  0.0569  0.0124
18516SOL    HW159140   4.130   8.409   6.878  0.2226 -0.8072  0.8913
18516SOL    HW259141   4.162   8.456   7.019  1.4354 -0.6499  0.5739
18517SOL     OW59142   3.612   6.041   9.184  0.1094  0.5415  0.1424
18517SOL    HW159143   3.605   5.962   9.237 -0.8738  1.5242  1.5161
18517SOL    HW259144   3.706   6.061   9.184  0.3252 -0.4242  0.0569
18518SOL     OW59145   2.432   6.097   3.388  0.5770 -0.6655  0.1382
18518SOL    HW159146   2.430   6.003   3.374  0.9570 -0.5743 -0.5883
18518SOL    HW259147   2.437   6.107   3.483 -0.6613 -1.3442  0.2964
18519SOL     OW59148   3.221   1.441   3.300 -0.2210  0.3399  0.0500
18519SOL    HW159149   3.310   1.408   3.311 -0.2404  0.6600  1.3455
18519SOL    HW259150   3.232   1.519   3.246  0.2614  0.2377 -0.0098
18520SOL     OW59151   5.150   6.880   4.018  0.0841 -0.1103  0.2699
18520SOL    HW159152   5.221   6.919   3.967 -0.5460  0.5781 -0.0995
18520SOL    HW259153   5.191   6.806   4.063  1.4538  1.2864  1.4468
18521SOL     OW59154   1.429   7.769  10.222  0.1711  0.3929  0.0093
18521SOL    HW159155   1.502   7.824  10.193  1.1829 -1.1567 -0.4961
18521SOL    HW259156   1.388   7.739  10.141 -0.0721  0.0061  0.2746
18522SOL     OW59157   0.525   9.757   9.144 -0.0114 -0.5842  0.3451
18522SOL    HW159158   0.548   9.843   9.179  1.2238 -1.7702  2.6546
18522SOL    HW259159   0.439   9.770   9.104  1.1112  2.2200 -1.5251
18523SOL     OW59160   1.587   8.486  10.523 -0.4579  0.4790  0.1342
18523SOL    HW159161   1.516   8.498  10.585 -0.8805 -3.2786  0.5986
18523SOL    HW259162   1.557   8.417  10.465  1.7341  0.7355 -1.4469
18524SOL     OW59163  10.524   7.873   8.360  0.5244  0.3535 -0.5022
18524SOL    HW159164  10.453   7.850   8.420 -0.5083  0.3789 -1.6722
18524SOL    HW259165  10.564   7.789   8.337  0.1241  0.2270 -0.7358
18525SOL     OW59166   3.714   2.349   4.398 -0.6844 -0.0587  0.3826
18525SOL    HW159167   3.706   2.391   4.312 -2.1595 -1.1604 -0.0706
18525SOL    HW259168   3.767   2.271   4.381  0.5921  0.6738  0.8754
18526SOL     OW59169   9.053   1.661  10.548 -0.0092  0.2443  0.4432
18526SOL    HW159170   9.076   1.578  10.506  1.9358  0.5482  0.8134
18526SOL    HW259171   9.084   1.728  10.488 -0.6918  0.7190  0.6043
18527SOL     OW59172   1.343  10.493   3.049 -0.0080 -0.2266 -0.1419
18527SOL    HW159173   1.376  10.573   3.009 -0.4988 -0.9387 -2.0792
18527SOL    HW259174   1.250  10.492   3.027  0.1323 -1.6549 -0.7876
18528SOL     OW59175   1.802   6.231   5.610  0.5989  0.1085 -0.1739
18528SOL    HW159176   1.885   6.275   5.591  2.0344 -0.8568  3.2035
18528SOL    HW259177   1.750   6.297   5.657 -0.2010  0.3724 -1.3708
18529SOL     OW59178   0.099   7.659   9.852  0.0039 -0.1811  0.3075
18529SOL    HW159179   0.177   7.690   9.899  0.3163 -1.2054  0.4872
18529SOL    HW259180   0.080   7.729   9.790  1.1387  0.0350  0.1749
18530SOL     OW59181   1.793   5.794   2.269 -0.9383 -0.2485 -0.1584
18530SOL    HW159182   1.881   5.807   2.232 -0.2754  0.7295  1.6314
18530SOL    HW259183   1.736   5.848   2.215 -0.1517  0.4478 -0.3182
18531SOL     OW59184   4.706   6.680   3.419  0.1837 -0.1553 -0.8662
18531SOL    HW159185   4.775   6.716   3.474  0.3750 -0.3588 -0.9739
18531SOL    HW259186   4.680   6.599   3.463 -0.9712  0.6171 -0.0492
18532SOL     OW59187   2.121   4.855   6.204  0.4051 -0.2320  0.1047
18532SOL    HW159188   2.123   4.951   6.203  0.7659 -0.2346  0.4634
18532SOL    HW259189   2.142   4.832   6.294  1.7068 -0.6821 -0.2941
18533SOL     OW59190   7.903   2.876   9.800 -0.0070 -0.7540  0.2953
18533SOL    HW159191   7.974   2.940   9.799 -0.1480 -0.5914  0.5677
18533SOL    HW259192   7.849   2.901   9.875 -1.2029  0.0785 -0.7845
18534SOL     OW59193   8.960   2.283  11.068  0.5083 -0.1503 -0.3264
18534SOL    HW159194   8.997   2.293  10.980  0.3520 -3.8529 -0.9672
18534SOL    HW259195   8.871   2.316  11.060  0.6902  0.1340 -1.4007
18535SOL     OW59196   1.482   4.467   5.222  0.2642 -0.4166 -0.2431
18535SOL    HW159197   1.475   4.518   5.303  0.8961  1.5455 -1.3580
18535SOL    HW259198   1.396   4.476   5.181 -0.3177 -2.0696  0.5293
18536SOL     OW59199   5.557   2.701   5.997 -0.3689 -0.0665 -0.3958
18536SOL    HW159200   5.576   2.780   6.048  0.0696 -1.1690  1.2373
18536SOL    HW259201   5.515   2.733   5.918 -0.1978  1.8049  0.2239
18537SOL     OW59202   6.409  10.723   7.400 -0.1973 -0.3699 -0.7598
18537SOL    HW159203   6.489  10.708   7.451 -1.1904 -1.2300  0.6045
18537SOL    HW259204   6.407  10.651   7.337 -0.2006 -0.6940 -0.3910
18538SOL     OW59205   1.420  10.963   7.978 -0.1575 -0.0349  0.0301
18538SOL    HW159206   1.376  11.033   7.930 -1.8416 -1.2685 -0.3346
18538SOL    HW259207   1.423  10.890   7.916  2.9584  0.1088 -0.1437
18539SOL     OW59208   7.465   5.077   3.924 -0.0381 -0.5041 -0.7683
18539SOL    HW159209   7.452   4.994   3.971  1.1542 -0.1295  0.2661
18539SOL    HW259210   7.386   5.127   3.943 -0.4822 -1.1569 -0.8624
18540SOL     OW59211   8.936   6.645   9.752  0.1074  0.8169 -0.3175
18540SOL    HW159212   9.021   6.607   9.732  0.0577  1.2737 -1.4663
18540SOL    HW259213   8.952   6.700   9.829  0.0568 -1.9025  1.8052
18541SOL     OW59214   3.201   4.023   7.625  0.4791  0.3518  0.0194
18541SOL    HW159215   3.233   3.938   7.595  0.0057  0.4536 -0.8056
18541SOL    HW259216   3.106   4.011   7.634  0.5257  0.5159  0.8728
18542SOL     OW59217   9.520   3.378   5.134  0.7076 -0.2876  0.2663
18542SOL    HW159218   9.558   3.391   5.221  1.2716  0.0777 -0.0349
18542SOL    HW259219   9.567   3.303   5.098  2.1932  1.0352 -0.6783
18543SOL     OW59220   4.906   9.954   5.242  0.2098  0.1720 -0.0751
18543SOL    HW159221   4.997   9.922   5.236  0.2080  0.1322  0.1118
18543SOL    HW259222   4.915  10.043   5.275  0.2526  0.5810 -1.1469
18544SOL     OW59223  10.142   7.074   4.094  0.0420 -0.2273  0.6329
18544SOL    HW159224  10.207   7.040   4.032 -0.5355 -2.3970  1.1230
18544SOL    HW259225  10.143   7.168   4.081  0.9010 -0.5019 -1.7188
18545SOL     OW59226   9.876   4.650   8.122  0.3672 -0.3038  0.6882
18545SOL    HW159227   9.829   4.723   8.082  1.9859  0.2755 -0.2514
18545SOL    HW259228   9.961   4.686   8.145  2.4645 -2.5458 -2.7125
18546SOL     OW59229  10.898   0.299   1.032  0.1700  0.1885 -0.1460
18546SOL    HW159230  10.891   0.218   1.084 -0.0654  1.1610  1.4313
18546SOL    HW259231  10.849   0.280   0.952 -0.3715 -1.0569  0.4419
18547SOL     OW59232   5.678   7.177  10.036 -0.5719  0.1787  0.6101
18547SOL    HW159233   5.748   7.115  10.016  1.2447  1.5642  2.2806
18547SOL    HW259234   5.604   7.147   9.984  1.2554 -1.3423 -1.2900
18548SOL     OW59235   2.690   5.764   2.962  0.0836  0.0330  0.0483
18548SOL    HW159236   2.650   5.704   2.898 -0.1154 -0.3877  0.5585
18548SOL    HW259237   2.638   5.844   2.955  0.0813  0.0001 -0.3361
18549SOL     OW59238   7.014   1.166   8.956  0.6042 -0.1575  0.4231
18549SOL    HW159239   6.987   1.091   8.904  2.0777 -1.3706  1.3170
18549SOL    HW259240   7.110   1.161   8.956  0.8424  2.6309 -0.7835
18550SOL     OW59241   9.705   6.677   5.784  0.6976  0.0390  0.4563
18550SOL    HW159242   9.661   6.738   5.724 -0.9775 -2.1075 -0.6232
18550SOL    HW259243   9.706   6.723   5.868  0.6072  2.0093 -0.5482
18551SOL     OW59244   8.474   2.956  10.429 -0.6696 -0.1516  0.5536
18551SOL    HW159245   8.539   2.895  10.464 -1.9144 -0.5909  2.2989
18551SOL    HW259246   8.524   3.021  10.381  0.9980 -0.7637  1.3847
18552SOL     OW59247   6.234   6.249  10.215  0.7068  0.6068 -0.0982
18552SOL    HW159248   6.185   6.236  10.296  0.2749 -0.7787 -0.5561
18552SOL    HW259249   6.284   6.328  10.231  0.3201  0.5994  1.3714
18553SOL     OW59250   1.166   7.504   5.113  0.5054 -0.3225 -0.2497
18553SOL    HW159251   1.242   7.495   5.054  1.0307 -0.9677  0.4997
18553SOL    HW259252   1.201   7.547   5.191  0.1930 -0.9652  0.2541
18554SOL     OW59253   9.172   4.639   2.946  0.1110  0.2859  0.3312
18554SOL    HW159254   9.132   4.714   2.902 -1.1011 -0.8563 -0.6295
18554SOL    HW259255   9.156   4.566   2.886 -0.5826 -1.1307  2.1548
18555SOL     OW59256   9.130   8.220   6.553  0.0279  0.4065 -1.2359
18555SOL    HW159257   9.151   8.258   6.638  0.7300 -0.0650 -1.1848
18555SOL    HW259258   9.035   8.221   6.548 -0.1749 -1.7505  0.6013
18556SOL     OW59259   0.700   5.687   3.156  0.2545 -0.3641  0.0191
18556SOL    HW159260   0.740   5.741   3.088 -0.3524 -0.7263 -0.6427
18556SOL    HW259261   0.659   5.615   3.108  1.3342 -1.6193  0.8944
18557SOL     OW59262  10.879   0.013   2.449  0.0335 -0.1106 -0.2252
18557SOL    HW159263  10.813   0.043   2.387  0.6386  2.1819  0.1347
18557SOL    HW259264  10.936  -0.045   2.399  0.1576  1.2032 -1.6742
18558SOL     OW59265   5.987   7.954   2.397  0.0050 -1.3873  0.4353
18558SOL    HW159266   6.079   7.929   2.391  1.6290  3.3796  1.1937
18558SOL    HW259267   5.982   8.009   2.475 -3.3807 -0.9735  0.0739
18559SOL     OW59268   7.375   4.579   3.136 -0.5107 -0.4902 -0.3403
18559SOL    HW159269   7.321   4.503   3.113 -1.6617  0.8094 -2.1985
18559SOL    HW259270   7.379   4.630   3.055 -0.7306  2.0011  1.1286
18560SOL     OW59271   1.016   5.674   7.704  0.1281 -0.7058 -0.0125
18560SOL    HW159272   1.001   5.730   7.780 -0.5596  0.9501 -1.3024
18560SOL    HW259273   0.950   5.605   7.711 -0.1380 -0.3878  0.7243
18561SOL     OW59274  10.372   8.120   2.915  0.7162  0.0401  0.2247
18561SOL    HW159275  10.314   8.067   2.970  1.0824  0.6956  1.2660
18561SOL    HW259276  10.325   8.202   2.904  1.1563  0.3390  0.5414
18562SOL     OW59277   8.397   5.612   4.734 -0.1464 -0.5108 -0.4806
18562SOL    HW159278   8.341   5.598   4.657 -0.7598 -0.1691 -0.1049
18562SOL    HW259279   8.411   5.707   4.736  1.9240 -0.7371 -1.5790
18563SOL     OW59280   0.306  10.447   2.088 -0.0914  0.0517  0.7429
18563SOL    HW159281   0.390  10.449   2.135  1.5835  2.5390 -1.9812
18563SOL    HW259282   0.320  10.382   2.019 -1.0503 -0.6292  1.1620
18564SOL     OW59283  10.735   5.797   3.999  0.4095  0.3489 -0.4540
18564SOL    HW159284  10.825   5.806   4.030  0.6687  0.6387 -1.2584
18564SOL    HW259285  10.737   5.832   3.910 -0.5080  0.3814 -0.4685
18565SOL     OW59286   3.729   2.328   2.581  0.2332  0.1800 -0.1316
18565SOL    HW159287   3.738   2.399   2.517 -0.5272  0.4841  0.0915
18565SOL    HW259288   3.657   2.275   2.547 -0.9846  1.0074  1.0755
18566SOL     OW59289   8.377   5.564   8.225  0.4877 -0.5114  0.1478
18566SOL    HW159290   8.282   5.577   8.225  0.5782  0.1631  0.1051
18566SOL    HW259291   8.388   5.469   8.234 -0.2052 -0.7127 -0.9287
18567SOL     OW59292   3.938   0.515   4.173  0.4095  0.4846  0.3133
18567SOL    HW159293   3.915   0.442   4.115 -2.5513  1.9523 -0.5694
18567SOL    HW259294   3.895   0.591   4.133  1.6492  2.3449  2.3141
18568SOL     OW59295   6.795   8.446   5.030 -0.2868 -0.0936 -0.7419
18568SOL    HW159296   6.834   8.533   5.035 -2.8487  1.2046 -1.2996
18568SOL    HW259297   6.768   8.438   4.939 -3.3614  0.1962  0.0274
18569SOL     OW59298   1.694   2.181   6.483 -0.3671  0.0306  0.1648
18569SOL    HW159299   1.778   2.217   6.454 -1.1980  2.5008  0.6018
18569SOL    HW259300   1.685   2.099   6.433  1.7258  0.2809 -0.7565
18570SOL     OW59301  10.019  10.174   9.901 -0.3520  0.6576  0.4009
18570SOL    HW159302  10.080  10.180   9.974 -0.9597  0.7136  0.9061
18570SOL    HW259303  10.058  10.230   9.833  0.9374 -0.4962  0.1399
18571SOL     OW59304  10.702   3.320  10.976  0.5499  0.2315 -0.3834
18571SOL    HW159305  10.622   3.371  10.985 -0.1474 -0.7569 -0.8719
18571SOL    HW259306  10.730   3.304  11.066 -0.1322  0.0647 -0.1964
18572SOL     OW59307   2.985   7.231   7.839  0.1193  0.3649 -0.1992
18572SOL    HW159308   2.901   7.189   7.818  1.3155 -1.9029 -0.7874
18572SOL    HW259309   2.978   7.253   7.932  0.2719 -3.6670  0.9467
18573SOL     OW59310   7.239   5.190   1.353  0.1944 -0.3243  0.3536
18573SOL    HW159311   7.244   5.127   1.425 -1.1550  1.6838  2.3567
18573SOL    HW259312   7.179   5.150   1.290  0.9478 -1.8692  0.5668
18574SOL     OW59313   3.026  10.737   0.275 -0.3301 -0.2077 -0.0901
18574SOL    HW159314   3.105  10.684   0.289 -0.4577 -0.7248 -1.1923
18574SOL    HW259315   3.058  10.815   0.230 -0.2635  0.2304  0.7167
18575SOL     OW59316   1.770   8.607   1.616 -0.1726 -0.5953 -0.3288
18575SOL    HW159317   1.851   8.658   1.625  0.8655 -2.0919 -0.8531
18575SOL    HW259318   1.760   8.564   1.701  0.1148 -1.1278 -0.5552
18576SOL     OW59319   3.592   5.046   3.099  0.3847  0.5008 -0.4723
18576SOL    HW159320   3.537   5.052   3.177  0.5611 -0.0354 -0.3031
18576SOL    HW259321   3.680   5.068   3.131  0.5467 -0.2102 -0.4114
18577SOL     OW59322   5.305   2.869   8.813  0.6722  0.1739  0.3637
18577SOL    HW159323   5.299   2.781   8.851 -0.8254  0.3168  0.5502
18577SOL    HW259324   5.375   2.912   8.862  0.3149 -0.4015  1.4157
18578SOL     OW59325   5.371  10.369   8.594 -0.2162 -0.0485 -0.1182
18578SOL    HW159326   5.360  10.411   8.679 -0.1508 -0.0542 -0.1072
18578SOL    HW259327   5.336  10.281   8.606 -1.2391  0.2958 -0.3946
18579SOL     OW59328   6.538   0.318   8.850  0.1238  0.1606 -0.1843
18579SOL    HW159329   6.598   0.311   8.924 -0.6690 -0.4876  0.4307
18579SOL    HW259330   6.502   0.407   8.857  0.0041  0.0824  0.2605
18580SOL     OW59331   7.215   4.863   6.849 -0.1226  0.2175 -0.3216
18580SOL    HW159332   7.259   4.915   6.782  1.8034 -1.5243 -0.4960
18580SOL    HW259333   7.228   4.912   6.930  2.4055 -0.3144 -0.3331
18581SOL     OW59334   8.903   7.357   7.877 -0.0034  0.1387 -0.9186
18581SOL    HW159335   8.993   7.330   7.896 -0.1464  0.4673  0.3006
18581SOL    HW259336   8.886   7.325   7.788  0.5290 -1.9564 -0.3111
18582SOL     OW59337   9.571   5.923   4.853  0.0448  0.4117 -0.2726
18582SOL    HW159338   9.521   5.866   4.911  0.8721 -1.3717 -1.2541
18582SOL    HW259339   9.506   5.985   4.819 -0.9569 -0.1789  0.5121
18583SOL     OW59340   0.527   9.132   8.946  0.4749 -0.1747 -0.0513
18583SOL    HW159341   0.480   9.140   8.863 -0.6676  0.7097  0.6414
18583SOL    HW259342   0.481   9.061   8.992 -0.1706  0.6349  0.5941
18584SOL     OW59343   4.950   3.914   1.144 -0.6431  0.1640 -0.1720
18584SOL    HW159344   4.976   4.005   1.156 -2.2167  0.5774  0.4211
18584SOL    HW259345   4.902   3.914   1.061 -1.3985  0.0838  0.2494
18585SOL     OW59346   4.926  10.906   3.789 -0.3409 -0.3777  0.8686
18585SOL    HW159347   4.914  10.932   3.880 -0.2041  0.7870  0.5747
18585SOL    HW259348   4.929  10.811   3.791  1.7051 -0.3614  2.3610
18586SOL     OW59349  10.724   5.971   7.510  0.0595  0.3520 -0.0847
18586SOL    HW159350  10.772   6.044   7.550 -1.8240  1.5660  0.1054
18586SOL    HW259351  10.762   5.963   7.422  0.2735  1.5945 -0.1265
18587SOL     OW59352   5.445   1.785   8.226  0.4427 -0.0581 -0.0312
18587SOL    HW159353   5.426   1.716   8.163 -0.3301  0.3452 -0.2477
18587SOL    HW259354   5.487   1.740   8.299  1.0336 -0.5798 -0.6796
18588SOL     OW59355   1.205   1.058   5.812 -0.2127 -0.4176 -0.3020
18588SOL    HW159356   1.126   1.110   5.824  0.0800 -0.2277  0.9553
18588SOL    HW259357   1.250   1.097   5.737 -0.0601  1.0702  0.5441
18589SOL     OW59358   2.206  10.948   1.025 -0.0782 -0.2363 -0.2869
18589SOL    HW159359   2.143  10.879   1.046  0.1874 -0.2227  0.5802
18589SOL    HW259360   2.191  10.967   0.932  0.0984 -1.7126 -0.6396
18590SOL     OW59361   5.629  10.287   6.557 -0.2972  0.0865  0.2363
18590SOL    HW159362   5.672  10.204   6.536 -0.5161 -1.0634  3.6340
18590SOL    HW259363   5.675  10.319   6.634 -1.2777  2.3285 -0.0304
18591SOL     OW59364   5.816  10.411   9.249  0.6366  0.4277  0.0235
18591SOL    HW159365   5.764  10.352   9.303  0.7228  2.2745  2.2991
18591SOL    HW259366   5.762  10.491   9.242  1.5673  1.0094 -0.8161
18592SOL     OW59367   0.159  10.998   9.410 -0.1106 -0.4428 -0.3150
18592SOL    HW159368   0.170  10.926   9.472  0.0331 -0.6485 -0.5805
18592SOL    HW259369   0.229  11.059   9.433 -0.5416 -0.1490  0.2388
18593SOL     OW59370   0.629   4.649   3.363 -0.0278 -0.3578  0.1942
18593SOL    HW159371   0.679   4.571   3.388  1.4640  0.5680  0.2369
18593SOL    HW259372   0.688   4.697   3.304 -2.2068 -0.9005 -2.6547
18594SOL     OW59373   2.673   9.895   7.516 -0.1829 -0.0668  0.0358
18594SOL    HW159374   2.702   9.947   7.590 -1.5257 -0.5944  0.9748
18594SOL    HW259375   2.753   9.858   7.479  0.7497  2.1530 -0.3189
18595SOL     OW59376   7.037   6.316   3.386  0.0463 -0.1640  0.1185
18595SOL    HW159377   7.091   6.296   3.309  0.7597 -0.9800  0.8068
18595SOL    HW259378   6.951   6.334   3.350  0.7490  1.1548 -1.0125
18596SOL     OW59379   6.580   5.551   5.315 -0.5472  0.2634 -0.7915
18596SOL    HW159380   6.513   5.607   5.276  0.6049  2.1812 -0.1765
18596SOL    HW259381   6.608   5.493   5.244  0.7562  2.9215 -2.6229
18597SOL     OW59382   8.441   2.762   7.997 -0.7766 -0.3296  0.4575
18597SOL    HW159383   8.427   2.855   8.014 -2.5244 -0.0721 -1.8411
18597SOL    HW259384   8.535   2.754   7.982 -0.0076  0.3543  3.9359
18598SOL     OW59385   9.851   1.113   9.662 -0.2974  0.2917  0.5081
18598SOL    HW159386   9.907   1.174   9.710  0.7128 -0.5390  0.4493
18598SOL    HW259387   9.902   1.092   9.583 -0.2056 -1.2616  0.9400
18599SOL     OW59388   0.510  10.232   6.580  0.3257  0.2942  0.2081
18599SOL    HW159389   0.574  10.186   6.634 -0.4342 -2.0825 -0.7871
18599SOL    HW259390   0.425  10.204   6.616 -0.1815  1.7125  0.1672
18600SOL     OW59391  10.638   9.265   9.520  0.5016  0.0932  0.7965
18600SOL    HW159392  10.603   9.269   9.610 -0.6989 -0.2907  0.3671
18600SOL    HW259393  10.589   9.332   9.473 -0.1782 -0.9419  0.0058
18601SOL     OW59394   7.490   0.813   8.007 -0.4155 -0.0183  0.0353
18601SOL    HW159395   7.487   0.720   8.030  1.1433 -0.1082 -0.0539
18601SOL    HW259396   7.405   0.847   8.035 -1.1969 -1.5569 -0.3622
18602SOL     OW59397   9.997   7.793   4.000  0.1030  0.3999 -0.3914
18602SOL    HW159398  10.061   7.849   3.957  0.8486  0.8473  1.2293
18602SOL    HW259399   9.916   7.844   3.998  0.2039  0.5531 -0.9273
18603SOL     OW59400   9.319   3.848   8.643 -0.2450 -0.5185  0.2349
18603SOL    HW159401   9.413   3.831   8.644 -0.2052 -0.4404 -1.0834
18603SOL    HW259402   9.309   3.923   8.584 -1.1652 -0.6991  0.1573
18604SOL     OW59403   9.390   4.129  10.345 -0.1817 -0.0317 -0.3103
18604SOL    HW159404   9.444   4.131  10.266  0.1278  1.3797 -0.0996
18604SOL    HW259405   9.453   4.145  10.416 -0.8690  2.0319 -0.0908
18605SOL     OW59406   2.336   8.705   3.319 -0.0592  0.1716 -0.0713
18605SOL    HW159407   2.253   8.657   3.313  0.2034 -0.1873 -1.0776
18605SOL    HW259408   2.342   8.731   3.411 -0.7700 -0.7176  0.2472
18606SOL     OW59409   9.528   5.558   7.552  0.4729  0.4940 -0.6643
18606SOL    HW159410   9.592   5.490   7.571 -1.1069 -0.5015  1.5824
18606SOL    HW259411   9.569   5.639   7.580  1.0828 -0.0230 -0.0329
18607SOL     OW59412   8.909   3.825   3.538  0.1668  0.1912  0.5920
18607SOL    HW159413   8.881   3.762   3.604 -0.4181  1.6742  1.8360
18607SOL    HW259414   8.939   3.901   3.589 -0.7193  1.5551 -0.8228
18608SOL     OW59415   9.501   4.720   2.001 -0.2147  0.2445  0.2780
18608SOL    HW159416   9.508   4.815   1.991  1.5631  0.1440  0.3372
18608SOL    HW259417   9.541   4.702   2.086 -2.0261 -0.4248  1.0589
18609SOL     OW59418   7.817   2.259  10.805  0.2432 -0.0589  0.3447
18609SOL    HW159419   7.911   2.251  10.790  0.4464  1.9520  0.2689
18609SOL    HW259420   7.778   2.246  10.718  0.4429 -0.7986  0.3591
18610SOL     OW59421   7.824   4.473   6.039  0.2436 -0.3655  0.1642
18610SOL    HW159422   7.900   4.441   5.990 -0.1613 -0.7293 -0.2334
18610SOL    HW259423   7.766   4.510   5.972 -0.2509 -0.7448  0.3704
18611SOL     OW59424   8.529  10.832   4.666 -0.0921  0.0133  0.2984
18611SOL    HW159425   8.545  10.738   4.654  0.2345 -0.0502  1.1459
18611SOL    HW259426   8.615  10.869   4.683 -0.4080  0.1791  1.7041
18612SOL     OW59427  10.092   9.710   9.744  0.0724  0.2150 -0.3558
18612SOL    HW159428  10.176   9.667   9.731 -0.0447  0.0847 -0.6871
18612SOL    HW259429  10.115   9.800   9.768  0.2997  0.4415 -1.3946
18613SOL     OW59430   0.567   0.145   3.052  0.3680 -0.3066  0.3792
18613SOL    HW159431   0.569   0.078   2.984  3.7577  1.3467 -1.4134
18613SOL    HW259432   0.648   0.131   3.102 -0.9736 -0.1140  2.7610
18614SOL     OW59433   8.174   6.209   4.083  0.2791 -0.3305 -0.3020
18614SOL    HW159434   8.088   6.176   4.110 -0.1256  0.5324 -0.5163
18614SOL    HW259435   8.230   6.131   4.083 -0.4728 -0.8855 -0.0581
18615SOL     OW59436  10.163   1.032   3.681  0.8391  0.5955  0.4720
18615SOL    HW159437  10.098   1.048   3.750  0.9609  0.5899  0.5884
18615SOL    HW259438  10.238   0.994   3.727  0.8334  0.3811  0.3024
18616SOL     OW59439   8.077   2.354   2.548 -0.3402 -0.3608 -0.1547
18616SOL    HW159440   8.146   2.379   2.610  0.0950  1.9318 -1.4791
18616SOL    HW259441   8.087   2.259   2.539  1.9211 -0.2454  0.5353
18617SOL     OW59442   6.596  10.251  10.788 -0.0765 -0.6615  0.4719
18617SOL    HW159443   6.533  10.313  10.752  0.0008 -0.6393  0.3761
18617SOL    HW259444   6.606  10.185  10.720 -1.6122 -1.8344  1.3066
18618SOL     OW59445   8.962   5.986   7.890 -0.3866 -0.6255  0.1906
18618SOL    HW159446   8.932   6.029   7.810  1.2878 -1.1563 -0.7587
18618SOL    HW259447   8.938   5.894   7.878 -1.8182 -0.4088  1.1628
18619SOL     OW59448   4.452  10.018   6.888 -0.7116 -0.7476  0.1348
18619SOL    HW159449   4.461  10.023   6.983 -3.7393  0.1357  0.4820
18619SOL    HW259450   4.446   9.925   6.869 -2.0427 -0.8745  1.0853
18620SOL     OW59451   0.124   2.556  10.505  0.3425  0.2368 -0.9099
18620SOL    HW159452   0.103   2.564  10.598  0.6237  0.2142 -0.8446
18620SOL    HW259453   0.118   2.462  10.487  0.8994  0.1748 -0.7710
18621SOL     OW59454   3.460   8.423   9.941 -0.1110  0.4542  0.3912
18621SOL    HW159455   3.422   8.336   9.931  0.1263  0.1919  1.6756
18621SOL    HW259456   3.530   8.426   9.876 -2.2764  0.9944 -2.1456
18622SOL     OW59457   8.437   7.895   3.777 -0.1228  0.2854 -0.8962
18622SOL    HW159458   8.525   7.899   3.738 -0.1126  0.6314 -0.8389
18622SOL    HW259459   8.449   7.930   3.866  0.0266 -1.2727 -0.2614
18623SOL     OW59460  10.663   7.218   7.716 -0.4886 -0.1788 -0.1738
18623SOL    HW159461  10.591   7.281   7.723 -0.4039 -0.1881  0.8912
18623SOL    HW259462  10.742   7.272   7.715 -0.4842 -0.1802 -1.1450
18624SOL     OW59463   0.852   6.041  10.452  0.4249  0.3746 -0.1363
18624SOL    HW159464   0.938   6.015  10.485  1.3296  0.2296 -2.4383
18624SOL    HW259465   0.804   5.959  10.444  1.1841  0.0457 -1.7177
18625SOL     OW59466   8.199  10.672  10.459  0.4456 -0.9450 -0.4481
18625SOL    HW159467   8.235  10.760  10.466  1.9719 -1.5345 -0.5224
18625SOL    HW259468   8.116  10.676  10.508  1.0330  0.2360  0.5133
18626SOL     OW59469   4.896   5.905   1.752  0.5030  0.3446 -0.0677
18626SOL    HW159470   4.880   5.824   1.800 -0.1558 -0.3713 -1.4351
18626SOL    HW259471   4.952   5.957   1.810  1.3319 -1.2717  0.6467
18627SOL     OW59472   4.829   5.625   6.762 -0.6882  0.4333  0.1044
18627SOL    HW159473   4.886   5.682   6.814 -1.5973  2.7052 -1.2506
18627SOL    HW259474   4.753   5.610   6.818 -0.7234  1.0845  0.2386
18628SOL     OW59475   9.692   4.860   6.587  0.1414  0.3591 -0.1365
18628SOL    HW159476   9.732   4.776   6.564 -0.3663  0.1704 -0.3389
18628SOL    HW259477   9.757   4.925   6.559 -0.0184  0.0927 -1.1893
18629SOL     OW59478   2.352   9.272   7.746 -0.3697  0.3823  0.4190
18629SOL    HW159479   2.262   9.239   7.755  0.7648 -2.7709  1.4436
18629SOL    HW259480   2.370   9.267   7.652 -0.8779 -0.0456  0.3389
18630SOL     OW59481   6.350   2.533   0.790 -0.0482  0.2385 -0.3753
18630SOL    HW159482   6.346   2.517   0.695 -0.3857 -1.7875 -0.0725
18630SOL    HW259483   6.376   2.625   0.798  2.0278 -0.0568 -2.4399
18631SOL     OW59484   3.295  10.561   1.119 -0.4019 -0.4133 -0.8172
18631SOL    HW159485   3.338  10.548   1.035 -0.0123  0.5155 -0.7816
18631SOL    HW259486   3.289  10.656   1.127  1.5504 -0.3843  1.1770
18632SOL     OW59487   8.045   8.423  10.037 -0.1301  0.0757  0.0130
18632SOL    HW159488   8.008   8.496  10.088  0.6385  0.5256 -0.0560
18632SOL    HW259489   8.000   8.346  10.070 -0.0015  0.4199  1.0461
18633SOL     OW59490   0.314   1.277   1.824  0.0864 -0.1766  0.3849
18633SOL    HW159491   0.293   1.192   1.786 -2.0339  0.1083  0.7702
18633SOL    HW259492   0.370   1.257   1.898  1.9900 -0.9610 -1.1941
18634SOL     OW59493   0.240   6.979   4.595  0.3985 -0.4172 -0.6148
18634SOL    HW159494   0.159   7.030   4.602  0.6425 -0.2793  2.2294
18634SOL    HW259495   0.212   6.895   4.557 -1.0183 -0.2228 -0.0835
18635SOL     OW59496  10.653   8.910   4.950 -0.2004 -0.2192  0.2213
18635SOL    HW159497  10.631   8.868   4.866  3.6341 -2.6212  0.1623
18635SOL    HW259498  10.618   8.851   5.016 -0.9595  0.2968  0.2879
18636SOL     OW59499   6.827   5.817   2.028  0.2591 -0.1700 -0.1086
18636SOL    HW159500   6.826   5.752   2.098 -0.4001 -1.1891 -1.0375
18636SOL    HW259501   6.767   5.783   1.962 -0.4743  1.6240 -0.4241
18637SOL     OW59502   9.823  10.415   4.891  0.0584 -0.3425  0.2048
18637SOL    HW159503   9.870  10.333   4.906 -0.0360 -0.2310  1.1516
18637SOL    HW259504   9.868  10.455   4.816  1.2483 -0.4084  0.8674
18638SOL     OW59505   7.044   6.679   4.696 -0.3265 -0.0229 -0.3705
18638SOL    HW159506   6.991   6.641   4.627 -2.1473 -1.3058  1.6015
18638SOL    HW259507   6.983   6.734   4.746  1.2209  1.8819 -0.4740
18639SOL     OW59508   1.640   8.659   9.131  0.7486  0.1960  0.1257
18639SOL    HW159509   1.575   8.719   9.095 -0.8518 -0.9031  1.0636
18639SOL    HW259510   1.645   8.681   9.224  1.2896 -0.1066  0.1761
18640SOL     OW59511  10.423   0.279   8.434  0.1687 -0.6479 -0.2047
18640SOL    HW159512  10.473   0.326   8.367  0.6969 -0.5301  0.2670
18640SOL    HW259513  10.442   0.326   8.515 -1.1087 -0.2900 -0.0907
18641SOL     OW59514   8.807  10.652  11.027 -0.6910  0.6474 -0.3942
18641SOL    HW159515   8.878  10.659  11.091  0.4210  0.8256 -1.5943
18641SOL    HW259516   8.843  10.597  10.958 -2.0333  0.0661 -0.6563
18642SOL     OW59517   3.585  10.473  10.289  0.3717 -0.3177 -0.3734
18642SOL    HW159518   3.669  10.513  10.268 -0.4570  2.0990  0.5877
18642SOL    HW259519   3.525  10.509  10.225 -0.3526 -0.2403  0.3325
18643SOL     OW59520   3.665   0.393  10.201  0.3918 -0.2783 -0.0228
18643SOL    HW159521   3.598   0.346  10.151 -0.8773  2.1447 -0.7810
18643SOL    HW259522   3.717   0.438  10.135 -1.4241  3.1402  0.6168
18644SOL     OW59523   3.932   0.847   7.992  0.8096  0.0332 -0.2000
18644SOL    HW159524   3.841   0.859   7.966  0.7064  0.6760  0.4350
18644SOL    HW259525   3.927   0.802   8.076  1.1327 -1.7897 -1.0894
18645SOL     OW59526   6.923   5.945   1.688  0.2409 -0.1135 -0.4516
18645SOL    HW159527   7.004   5.896   1.699  0.6348  0.5651 -0.2516
18645SOL    HW259528   6.908   5.987   1.773 -0.3277 -0.2443 -0.4800
18646SOL     OW59529   2.973   9.553   6.943 -0.0641 -0.3006  0.1219
18646SOL    HW159530   2.935   9.470   6.974  0.5329 -0.8207 -0.5243
18646SOL    HW259531   3.022   9.529   6.865  2.5358  0.1490  1.5064
18647SOL     OW59532   5.080   0.111   3.274  0.5030  0.4000 -0.3601
18647SOL    HW159533   5.089   0.198   3.313  0.3692  0.6171 -0.7960
18647SOL    HW259534   5.013   0.123   3.206 -0.4121 -0.3189  0.3881
18648SOL     OW59535   6.409   0.753   8.409  0.0974  0.3055 -0.1779
18648SOL    HW159536   6.436   0.832   8.456  1.5985  0.2352 -0.8499
18648SOL    HW259537   6.447   0.681   8.459 -0.4714  0.0649 -0.0893
18649SOL     OW59538   4.105   8.335  10.166  0.4298  0.6472  0.1624
18649SOL    HW159539   4.104   8.371  10.078 -0.5033 -0.1784 -0.1927
18649SOL    HW259540   4.014   8.306  10.180  0.7152  0.2025  1.1486
18650SOL     OW59541   5.705   4.980   9.918  1.0524 -0.1849  0.4992
18650SOL    HW159542   5.787   4.977   9.869 -0.3253  0.9771 -2.0685
18650SOL    HW259543   5.640   4.944   9.857 -0.4907 -0.3914  2.1964
18651SOL     OW59544   1.658   1.064   5.248 -0.5044  0.2674  0.1870
18651SOL    HW159545   1.691   1.141   5.295 -1.0319 -0.7016  2.2184
18651SOL    HW259546   1.722   0.995   5.267 -0.8136 -0.1980 -0.4149
18652SOL     OW59547   0.787  10.374   9.928  0.2510  0.2601  0.1563
18652SOL    HW159548   0.860  10.313   9.925  1.4204  1.6690 -1.1862
18652SOL    HW259549   0.791  10.411  10.016  2.4762  1.8080 -0.5190
18653SOL     OW59550   0.554   2.243  10.140 -0.1001  0.4766 -0.4798
18653SOL    HW159551   0.548   2.197  10.056 -0.3617 -0.1589 -0.1200
18653SOL    HW259552   0.470   2.289  10.147 -1.2391 -1.6605  0.6688
18654SOL     OW59553   4.483   2.692   2.501  0.7250  0.3984 -0.1310
18654SOL    HW159554   4.392   2.687   2.530  0.9884 -1.9317  0.5378
18654SOL    HW259555   4.507   2.784   2.512 -1.6921  1.1752 -0.8663
18655SOL     OW59556   9.066   9.251   9.027 -0.0927 -0.5582 -0.1173
18655SOL    HW159557   9.020   9.187   8.974 -1.6883  0.4390 -0.0037
18655SOL    HW259558   9.059   9.333   8.977 -1.4320  0.3546  1.4837
18656SOL     OW59559   8.961   9.244   9.285  0.5935  0.4763  0.1675
18656SOL    HW159560   9.021   9.187   9.333 -1.1123 -1.3686  0.2208
18656SOL    HW259561   9.000   9.251   9.198  0.4569 -1.4903 -0.0965
18657SOL     OW59562   8.567   7.912   2.668  0.0056  0.3472 -0.1196
18657SOL    HW159563   8.643   7.881   2.621  0.0692 -0.8807  0.7311
18657SOL    HW259564   8.523   7.832   2.698  0.5584  1.0085  2.7898
18658SOL     OW59565   2.690   6.531   9.002  0.4315  0.5561  0.0002
18658SOL    HW159566   2.661   6.440   9.013  2.5168 -0.1253  0.2269
18658SOL    HW259567   2.646   6.578   9.073  0.0207 -0.4423  0.4326
18659SOL     OW59568   6.823   2.099   9.320 -0.0342 -0.2263 -0.5909
18659SOL    HW159569   6.911   2.064   9.307 -0.4596 -1.6373  0.1526
18659SOL    HW259570   6.826   2.186   9.280  1.7718 -0.1316 -0.3456
18660SOL     OW59571   7.472   4.542   4.891  0.1987 -0.2452 -0.1371
18660SOL    HW159572   7.509   4.461   4.856 -0.7101 -0.1144 -1.4772
18660SOL    HW259573   7.411   4.572   4.824 -1.3949  0.2231  1.4371
18661SOL     OW59574   5.118   7.376   2.739 -0.0176  0.8268  0.4892
18661SOL    HW159575   5.105   7.454   2.684  0.4431  1.0979  0.7567
18661SOL    HW259576   5.209   7.381   2.766  0.1655 -0.1116  0.0632
18662SOL     OW59577   1.960   2.048  10.893 -0.1827 -0.2016 -0.5489
18662SOL    HW159578   1.883   2.016  10.941  0.9964 -0.5751  1.2114
18662SOL    HW259579   2.009   1.969  10.871  0.0773  0.0812 -0.9986
18663SOL     OW59580   8.484   4.137   9.369 -0.6361 -0.2716  0.5803
18663SOL    HW159581   8.454   4.184   9.291 -0.9349 -1.0634  0.2076
18663SOL    HW259582   8.410   4.139   9.429 -0.5070  0.0799  0.7325
18664SOL     OW59583   1.041   7.293   1.093 -0.0762 -0.4525 -0.3181
18664SOL    HW159584   0.947   7.275   1.102 -0.0938  0.4951  2.0460
18664SOL    HW259585   1.070   7.316   1.181  1.9887  1.1577 -1.3198
18665SOL     OW59586   5.437   3.119   7.801 -0.6749  0.2493 -0.6760
18665SOL    HW159587   5.429   3.183   7.730 -0.7437 -0.4992 -1.3518
18665SOL    HW259588   5.527   3.127   7.831 -0.7061  0.7212 -0.6960
18666SOL     OW59589  10.599   7.511   8.653  0.1734  0.4780 -0.1740
18666SOL    HW159590  10.562   7.545   8.734 -1.1535  0.9215 -0.9262
18666SOL    HW259591  10.561   7.567   8.585 -0.1029 -0.9585 -1.2419
18667SOL     OW59592   7.529   5.546   0.189  0.2856 -0.1255 -0.6189
18667SOL    HW159593   7.485   5.464   0.164  0.2862  0.2598 -1.9906
18667SOL    HW259594   7.458   5.610   0.197  0.2025 -0.3873  1.1799
18668SOL     OW59595   4.902   4.951   7.416 -0.5751  0.4120 -0.1318
18668SOL    HW159596   4.954   5.023   7.381 -0.6659  0.5765  0.0671
18668SOL    HW259597   4.964   4.879   7.425 -0.4940  0.4514 -0.3748
18669SOL     OW59598   1.933  10.510   3.271  0.1430 -0.4205  0.3176
18669SOL    HW159599   1.955  10.581   3.332  0.0412  2.0229 -2.2722
18669SOL    HW259600   2.017  10.487   3.231 -0.1231 -0.3223 -0.3028
18670SOL     OW59601   9.553   2.251   6.666  0.3093 -0.1696 -0.4360
18670SOL    HW159602   9.501   2.327   6.694  1.3608  0.2806  0.4218
18670SOL    HW259603   9.615   2.287   6.603  0.8943 -0.2756  0.0683
18671SOL     OW59604  10.198   5.168   2.020 -0.5439  0.6002 -0.1143
18671SOL    HW159605  10.114   5.197   2.057 -0.0024 -0.2364  1.9076
18671SOL    HW259606  10.245   5.249   2.000 -0.6246  1.1376  1.6901
18672SOL     OW59607   1.091   0.635   8.892 -0.1121  0.4212  0.3173
18672SOL    HW159608   1.115   0.637   8.985 -0.8169  0.9540  0.4892
18672SOL    HW259609   0.999   0.660   8.890 -0.8668 -2.1408 -0.2960
18673SOL     OW59610   4.561   5.919   0.752  0.4215  0.4881  0.3853
18673SOL    HW159611   4.491   5.856   0.766  1.5110 -0.4275  2.0904
18673SOL    HW259612   4.640   5.865   0.741  1.2636  1.5070  1.1836
18674SOL     OW59613   2.938   6.019   7.451 -0.5074  0.0975 -0.3708
18674SOL    HW159614   2.881   6.095   7.444 -1.8472 -0.9600 -1.4558
18674SOL    HW259615   3.025   6.052   7.427 -1.3676  0.9496 -2.4904
18675SOL     OW59616   5.127   5.512   1.755 -0.0652  1.0584 -0.2677
18675SOL    HW159617   5.159   5.579   1.815  1.3931  0.3939 -0.2625
18675SOL    HW259618   5.059   5.466   1.804  0.4944  1.0924  0.5640
18676SOL     OW59619   0.072   3.483   7.806 -0.0492 -0.1711 -0.4039
18676SOL    HW159620   0.105   3.393   7.803 -0.9825 -0.5021 -1.2583
18676SOL    HW259621  -0.020   3.475   7.831  0.0968  0.6293  0.4582
18677SOL     OW59622   7.775   1.252   0.669 -0.0146  0.9371  0.3636
18677SOL    HW159623   7.809   1.188   0.607 -2.7084 -0.5231  0.2709
18677SOL    HW259624   7.709   1.301   0.620 -0.3955  1.4939  1.3910
18678SOL     OW59625   4.179   0.569   7.541 -0.0584  0.7778  0.4490
18678SOL    HW159626   4.259   0.522   7.565 -0.3246  1.2044  2.2969
18678SOL    HW259627   4.204   0.622   7.466  0.7038 -0.9771 -0.6116
18679SOL     OW59628   9.018   7.438   4.917 -0.2217  0.1592 -0.2996
18679SOL    HW159629   9.016   7.366   4.853  0.5210 -0.6127  0.5079
18679SOL    HW259630   9.098   7.486   4.895  0.2243 -0.3119  0.2281
18680SOL     OW59631   3.089   9.766   9.018 -0.1381 -0.3588  0.4997
18680SOL    HW159632   3.065   9.706   9.089 -3.1095  1.2877  1.0575
18680SOL    HW259633   3.053   9.726   8.939 -0.5541 -0.2076  0.6064
18681SOL     OW59634   6.663   8.061   7.190  0.1889  0.1288  0.4458
18681SOL    HW159635   6.720   8.135   7.167  1.1226 -0.6356  0.2442
18681SOL    HW259636   6.704   8.022   7.267 -0.3247 -0.1448  0.5791
18682SOL     OW59637   3.560   4.941   5.889 -0.4607 -0.3160  0.1385
18682SOL    HW159638   3.536   5.020   5.937 -0.6377  0.8210 -1.7534
18682SOL    HW259639   3.477   4.905   5.859 -0.2317  1.4901 -3.0879
18683SOL     OW59640   0.560   5.557   2.429 -0.1596 -0.5926  0.1575
18683SOL    HW159641   0.632   5.619   2.435 -0.0482 -0.6318 -0.6205
18683SOL    HW259642   0.578   5.506   2.349 -1.5167  0.0192 -0.5806
18684SOL     OW59643   1.136   1.141   2.601  0.2344  0.3601  0.2888
18684SOL    HW159644   1.080   1.123   2.526  0.5471  1.6655 -0.2802
18684SOL    HW259645   1.200   1.070   2.601  0.7303  0.7780 -1.1654
18685SOL     OW59646   5.362   9.596   3.119 -0.2922  0.0493 -0.4398
18685SOL    HW159647   5.291   9.567   3.176 -1.1598  0.0598 -1.4718
18685SOL    HW259648   5.385   9.519   3.067 -0.6462  0.4393 -1.2001
18686SOL     OW59649   9.795  10.210   8.533 -0.4959 -0.5262 -0.7163
18686SOL    HW159650   9.850  10.218   8.611  0.4891 -0.2210 -1.4294
18686SOL    HW259651   9.781  10.300   8.504  0.1189 -0.6892 -1.5537
18687SOL     OW59652   5.543   7.077   8.528 -0.4321  0.5121  0.2594
18687SOL    HW159653   5.621   7.091   8.582  0.4963  1.2745 -1.2132
18687SOL    HW259654   5.509   6.993   8.556  1.4416 -0.2708  0.3309
18688SOL     OW59655   5.837   3.049   5.304  0.3874 -0.4924 -0.2694
18688SOL    HW159656   5.850   3.025   5.395 -0.0038 -0.4591 -0.2019
18688SOL    HW259657   5.820   3.143   5.306  2.9493  0.0388 -0.6281
18689SOL     OW59658   7.300   5.414   1.009  0.2923  0.0276 -0.2911
18689SOL    HW159659   7.320   5.439   1.099  0.6601 -1.2112 -0.0148
18689SOL    HW259660   7.214   5.453   0.992  0.0198 -0.0927  0.7467
18690SOL     OW59661   3.135   4.816   4.640 -0.0016  0.0589  0.1500
18690SOL    HW159662   3.157   4.824   4.547  1.6963  1.0971  0.5903
18690SOL    HW259663   3.156   4.725   4.661 -0.4269 -0.1939 -0.4793
18691SOL     OW59664   3.476   8.305   0.127  0.1493 -0.7018 -0.2925
18691SOL    HW159665   3.545   8.276   0.187 -2.4306  0.4496  3.6460
18691SOL    HW259666   3.404   8.244   0.143 -1.6261  1.3715  0.0664
18692SOL     OW59667   5.214  10.713   3.267 -0.2783 -0.1823  0.3575
18692SOL    HW159668   5.185  10.784   3.210  1.0123 -1.4723 -2.0600
18692SOL    HW259669   5.299  10.743   3.300 -0.4877  0.0810  0.6575
18693SOL     OW59670   5.254   6.876   5.084  0.5210 -0.5761  0.0348
18693SOL    HW159671   5.238   6.970   5.092 -0.8970 -0.9094  2.0603
18693SOL    HW259672   5.173   6.835   5.117  1.4126 -2.4962 -0.0110
18694SOL     OW59673   9.340   5.431   2.560 -0.4328  0.1462  0.5331
18694SOL    HW159674   9.277   5.501   2.541  0.3141  0.4879 -0.7830
18694SOL    HW259675   9.356   5.439   2.654  0.6776  2.6619  0.2000
18695SOL     OW59676   6.802   8.212   8.540  0.4205  0.1077  0.6205
18695SOL    HW159677   6.714   8.176   8.546  0.8526 -1.2148 -0.3606
18695SOL    HW259678   6.827   8.229   8.631 -0.8008  0.4285  0.9174
18696SOL     OW59679   2.297   7.278   1.041 -0.2867 -0.0927  0.0095
18696SOL    HW159680   2.222   7.337   1.048 -0.4076  0.0348 -1.9170
18696SOL    HW259681   2.261   7.197   1.006  0.4447 -0.0601 -0.8447
18697SOL     OW59682   3.985   7.045   7.145  0.6983 -0.0794  0.2023
18697SOL    HW159683   4.024   7.078   7.064  1.1452 -1.3422 -0.1281
18697SOL    HW259684   4.053   6.991   7.184 -0.2750 -1.3179  0.2616
18698SOL     OW59685   4.583   9.061  10.337  0.4637 -0.0172  0.2124
18698SOL    HW159686   4.497   9.101  10.346 -0.4088 -1.8715  0.7161
18698SOL    HW259687   4.570   8.992  10.271  1.5033 -0.4800  0.4744
18699SOL     OW59688  10.296   6.999   1.194 -0.0997  0.0358  0.1217
18699SOL    HW159689  10.205   6.970   1.196 -1.2997  3.1164 -2.1700
18699SOL    HW259690  10.316   7.022   1.284 -1.8948  0.0692  0.5470
18700SOL     OW59691   1.871   3.363  10.931  0.2907 -0.1304  0.7017
18700SOL    HW159692   1.928   3.324  10.998 -0.0208  0.9026  1.6026
18700SOL    HW259693   1.808   3.414  10.981 -1.5872 -1.3896 -0.2616
18701SOL     OW59694   9.013   2.871   4.193  0.0522  0.2720 -0.4716
18701SOL    HW159695   8.952   2.800   4.214  0.6676  0.3921  2.1193
18701SOL    HW259696   9.011   2.928   4.271  1.0828  2.0021 -1.6435
18702SOL     OW59697   7.238   5.329   4.443 -0.3982  0.1890 -0.3992
18702SOL    HW159698   7.177   5.378   4.498  0.4345  0.1301  0.6173
18702SOL    HW259699   7.232   5.239   4.474  2.0044  0.5688  1.5284
18703SOL     OW59700   2.010   3.379   9.070 -0.3233  0.2595 -0.3769
18703SOL    HW159701   2.023   3.426   8.988 -0.1773  3.1089  1.1633
18703SOL    HW259702   1.945   3.311   9.048  0.9033 -0.1698 -3.1513
18704SOL     OW59703   7.386  10.160   0.034  0.1750  0.3975  0.3634
18704SOL    HW159704   7.438  10.122  -0.037  0.1201 -1.5539  1.3103
18704SOL    HW259705   7.356  10.244  -0.001 -0.1951 -0.6616 -2.0845
18705SOL     OW59706   6.156   7.677   0.682  0.0914  0.5000  0.1560
18705SOL    HW159707   6.197   7.601   0.723 -2.7509 -0.7423  0.9337
18705SOL    HW259708   6.211   7.751   0.707  2.9739 -1.2346 -0.6491
18706SOL     OW59709   7.999   5.445   7.532  0.3002 -0.2628  0.0851
18706SOL    HW159710   7.981   5.365   7.482  0.4209 -0.5636  0.5127
18706SOL    HW259711   8.072   5.486   7.486  0.3080 -0.4559 -0.0777
18707SOL     OW59712   7.850   2.704   8.548 -0.2357  0.2981 -0.2675
18707SOL    HW159713   7.845   2.622   8.596  2.5528 -0.7306 -1.5212
18707SOL    HW259714   7.908   2.759   8.600  1.4827 -0.2245 -1.5571
18708SOL     OW59715  10.099   6.085   0.989  0.3084  0.6444 -0.2122
18708SOL    HW159716  10.020   6.081   0.934 -0.3568 -0.6756  0.7746
18708SOL    HW259717  10.149   6.159   0.954 -0.8927  0.8950 -1.4967
18709SOL     OW59718   8.832   2.125   4.448  0.1775 -0.0937  0.0664
18709SOL    HW159719   8.760   2.083   4.495 -0.0939  0.3222  0.0265
18709SOL    HW259720   8.870   2.187   4.510  0.5304 -0.3401  0.1008
18710SOL     OW59721   8.991   4.095   9.429  0.2915 -0.2545  0.6416
18710SOL    HW159722   8.901   4.078   9.457  0.1880  1.5601  1.5522
18710SOL    HW259723   9.034   4.129   9.507  1.4374  0.0435 -0.1023
18711SOL     OW59724   7.800   6.565   3.065  0.0930 -0.4020 -0.4644
18711SOL    HW159725   7.854   6.543   3.140 -1.0135 -0.9752  0.1818
18711SOL    HW259726   7.859   6.554   2.990  0.6049 -2.0775  0.1204
18712SOL     OW59727  10.668   9.494   9.753 -0.5774 -0.3161 -0.3234
18712SOL    HW159728  10.608   9.563   9.781 -0.5855 -0.6700  0.5706
18712SOL    HW259729  10.638   9.415   9.799 -0.1076 -0.7443 -0.7347
18713SOL     OW59730   1.106   3.013   9.387 -0.2609  0.1540 -0.5150
18713SOL    HW159731   1.171   3.079   9.362 -0.0113  0.1265  0.0424
18713SOL    HW259732   1.044   3.011   9.314  0.9361 -0.5951 -1.5432
18714SOL     OW59733   6.908   2.219   2.913  0.3999  0.4271  0.0552
18714SOL    HW159734   6.875   2.264   2.990  1.7173 -1.4342  1.7869
18714SOL    HW259735   7.000   2.202   2.932  0.4181 -1.3350 -1.3077
18715SOL     OW59736   8.140   3.642   0.458  0.0421  0.2495 -0.2883
18715SOL    HW159737   8.080   3.701   0.413  0.8511  2.3333  1.2030
18715SOL    HW259738   8.201   3.614   0.390  0.2437  1.9878 -0.8890
18716SOL     OW59739   6.606   6.185  10.975 -0.1081 -0.0284  0.0264
18716SOL    HW159740   6.553   6.189  10.896  1.0081 -0.9565 -0.8045
18716SOL    HW259741   6.543   6.185  11.047 -1.2497 -1.5111 -0.9332
18717SOL     OW59742   3.472   2.261   2.888  0.3239 -0.2719  0.1468
18717SOL    HW159743   3.411   2.189   2.905  0.0444  0.5230  3.1438
18717SOL    HW259744   3.415   2.339   2.885  0.9216  0.1725  0.2138
18718SOL     OW59745   7.189   7.975   9.821  0.5421  0.0812  0.3990
18718SOL    HW159746   7.245   7.931   9.885 -0.3287  0.2766  1.3070
18718SOL    HW259747   7.194   7.919   9.743  2.0505  0.1288  0.4170
18719SOL     OW59748  10.167   8.298   9.128 -0.3336  0.1458 -0.5389
18719SOL    HW159749  10.126   8.369   9.178 -0.6440 -0.5028  0.1543
18719SOL    HW259750  10.261   8.313   9.135 -0.2993 -0.6873  1.4352
18720SOL     OW59751  11.059   0.774   2.340 -0.3609 -0.0252 -0.0973
18720SOL    HW159752  11.099   0.745   2.258  1.8035 -1.2724  1.3051
18720SOL    HW259753  11.070   0.869   2.340  1.4469 -0.1969 -0.3980
18721SOL     OW59754   1.713  10.457   9.491 -0.0205  0.0279 -0.4669
18721SOL    HW159755   1.622  10.480   9.473 -0.6956 -1.8655  0.2193
18721SOL    HW259756   1.733  10.387   9.428  1.0747  0.6480 -0.8295
18722SOL     OW59757   1.234  10.266  10.738 -0.2373 -0.1605  0.1560
18722SOL    HW159758   1.185  10.206  10.794  1.7802 -0.2286  1.9690
18722SOL    HW259759   1.190  10.350  10.749 -0.5509 -0.4160  0.9339
18723SOL     OW59760   3.860   6.401  10.933 -0.4621  0.7158  0.3078
18723SOL    HW159761   3.901   6.325  10.890 -1.5449  1.5197 -2.3965
18723SOL    HW259762   3.912   6.415  11.012  2.6240 -0.1015 -1.4137
18724SOL     OW59763   7.756   0.555   4.880 -0.4741 -0.4059 -0.0598
18724SOL    HW159764   7.682   0.593   4.927  1.3443 -0.7782  3.4091
18724SOL    HW259765   7.832   0.604   4.911  0.9602 -0.9990 -2.3816
18725SOL     OW59766   1.395  10.549   0.803  0.8952 -0.6205 -0.3196
18725SOL    HW159767   1.391  10.602   0.883  1.3757 -2.2081  0.8207
18725SOL    HW259768   1.482  10.567   0.767  0.8233 -0.1751 -0.2784
18726SOL     OW59769   5.551  10.993   1.142 -0.3256 -0.3075  0.4449
18726SOL    HW159770   5.550  10.917   1.084  1.8586  0.2025 -0.3541
18726SOL    HW259771   5.512  10.961   1.223 -2.0190 -1.4752 -0.7409
18727SOL     OW59772   7.295   1.079   0.413 -0.0175  0.2569 -0.2656
18727SOL    HW159773   7.371   1.132   0.435 -0.5009  0.6782  0.4500
18727SOL    HW259774   7.237   1.087   0.490 -2.0151  2.1650 -1.8444
18728SOL     OW59775   0.223   2.040  10.161 -0.2759 -0.1074 -0.4127
18728SOL    HW159776   0.258   2.119  10.119  0.4459 -1.0151 -1.5895
18728SOL    HW259777   0.263   2.040  10.248  1.2825 -0.1634 -1.0892
18729SOL     OW59778   8.253   6.320   9.150 -0.1065  0.0471 -0.3289
18729SOL    HW159779   8.244   6.268   9.070 -1.4685  0.0121 -0.1645
18729SOL    HW259780   8.247   6.256   9.221 -1.7810  0.3763 -0.1251
18730SOL     OW59781   8.175   4.842   1.399  0.7121  0.0970  0.2712
18730SOL    HW159782   8.159   4.859   1.306  2.5330 -0.9242 -0.2577
18730SOL    HW259783   8.098   4.792   1.428  0.7146 -0.6818 -1.0109
18731SOL     OW59784   3.321   8.750   0.899 -0.6840 -0.2901  0.0498
18731SOL    HW159785   3.297   8.679   0.958 -1.7345  0.0426  0.0462
18731SOL    HW259786   3.250   8.754   0.836  0.6519 -0.9526 -1.5650
18732SOL     OW59787   4.148  10.289   4.776 -0.5321  0.3858  0.0177
18732SOL    HW159788   4.191  10.233   4.711  1.2696  0.4304  1.1076
18732SOL    HW259789   4.076  10.236   4.810 -0.7800 -0.0668 -1.1723
18733SOL     OW59790  10.842   8.400  11.048  0.0603 -0.0209 -0.1450
18733SOL    HW159791  10.871   8.444  11.127  1.1790 -0.8367 -0.0829
18733SOL    HW259792  10.920   8.354  11.016 -0.6397 -0.5429 -1.1448
18734SOL     OW59793   2.816   8.427   6.205  0.5205  0.0471  0.9992
18734SOL    HW159794   2.907   8.454   6.195 -0.1726  2.6591  1.0098
18734SOL    HW259795   2.767   8.509   6.214 -1.9947 -1.1846 -0.2638
18735SOL     OW59796   9.893   0.179   8.543  0.7678  0.0523  0.6585
18735SOL    HW159797   9.943   0.231   8.480 -2.1469  1.3184 -0.7868
18735SOL    HW259798   9.893   0.090   8.507  0.0613  0.5352 -0.6005
18736SOL     OW59799   3.494   6.263   3.608  0.0122  0.5828  0.1344
18736SOL    HW159800   3.504   6.337   3.668  0.7010  0.1423  0.5741
18736SOL    HW259801   3.573   6.265   3.554 -0.7375  1.1639 -0.9989
18737SOL     OW59802  10.549   2.181   8.899 -0.6392  0.2516  0.2465
18737SOL    HW159803  10.594   2.129   8.832 -0.7640 -0.0208  0.3733
18737SOL    HW259804  10.605   2.173   8.976 -1.5491 -1.1802  0.8113
18738SOL     OW59805   1.467   6.801   7.237  0.2688  0.3802  0.0551
18738SOL    HW159806   1.437   6.714   7.263  1.1613  0.4365  1.3784
18738SOL    HW259807   1.390   6.843   7.200 -0.1691 -0.9718 -0.6233
18739SOL     OW59808  10.110   5.116   4.633  0.3144 -0.6625 -0.1410
18739SOL    HW159809  10.074   5.192   4.678  1.4903 -0.4060  0.3919
18739SOL    HW259810  10.101   5.045   4.696  2.4623 -0.1902  0.7866
18740SOL     OW59811  10.027   5.503  10.589 -0.1170 -0.1736 -0.2028
18740SOL    HW159812   9.934   5.483  10.581 -0.4336  0.2987  1.7954
18740SOL    HW259813  10.069   5.448  10.522 -1.4783 -3.1140  1.1617
18741SOL     OW59814   1.901   2.487   9.553 -0.1360 -0.3942  0.7201
18741SOL    HW159815   1.810   2.478   9.527  0.0771 -2.2844  0.4935
18741SOL    HW259816   1.898   2.502   9.648 -0.6946  0.2863  0.5969
18742SOL     OW59817   5.560  10.373   6.942 -0.2423 -0.1729  0.4938
18742SOL    HW159818   5.563  10.424   7.023  0.3966 -0.8599  0.9203
18742SOL    HW259819   5.494  10.416   6.888 -0.7495  0.2350  1.4253
18743SOL     OW59820   6.033   5.415   8.476  0.0672  0.0485 -0.4284
18743SOL    HW159821   6.079   5.332   8.490 -1.1732 -0.5197  0.4487
18743SOL    HW259822   5.975   5.423   8.552  0.3781  1.8761 -0.3430
18744SOL     OW59823   6.707   8.088   0.602  0.1940 -0.5224  0.3904
18744SOL    HW159824   6.681   7.999   0.624  1.6831 -1.0110  0.3217
18744SOL    HW259825   6.775   8.077   0.535 -1.5411  0.7773 -1.6977
18745SOL     OW59826   6.936   5.300   7.151 -0.0243 -0.0435 -0.2276
18745SOL    HW159827   6.866   5.347   7.105 -0.2384 -0.1071  0.0296
18745SOL    HW259828   7.017   5.334   7.113 -0.2081 -0.5961 -1.1536
18746SOL     OW59829   1.920   8.836   7.368 -0.3485  0.2968 -0.2988
18746SOL    HW159830   1.916   8.825   7.273 -2.2775  2.3217 -0.5190
18746SOL    HW259831   1.838   8.800   7.400 -2.0597  4.0391 -0.0295
18747SOL     OW59832   4.559   3.210   2.390 -0.3782 -0.4154 -0.4883
18747SOL    HW159833   4.605   3.133   2.359 -3.2473 -1.4224 -2.7484
18747SOL    HW259834   4.523   3.185   2.474  0.7921 -0.5878 -0.0219
18748SOL     OW59835   6.553   4.697   9.536  0.2935 -0.1579  0.1832
18748SOL    HW159836   6.559   4.660   9.448 -1.2919  0.4762 -0.2256
18748SOL    HW259837   6.638   4.739   9.550  0.0831  1.0210 -1.6675
18749SOL     OW59838   9.805   9.381   7.561 -0.0697  0.9298  0.3496
18749SOL    HW159839   9.744   9.382   7.487  1.6632  0.7766 -1.1257
18749SOL    HW259840   9.758   9.428   7.630 -1.5457  1.5278 -0.9902
18750SOL     OW59841   9.107   1.720   2.694 -0.0853  0.0630 -0.1899
18750SOL    HW159842   9.153   1.692   2.615  1.0363  1.2113  0.0376
18750SOL    HW259843   9.157   1.794   2.727 -0.8385 -0.0543  1.3149
18751SOL     OW59844   0.837   4.914   0.504  0.3540  0.0725  0.2932
18751SOL    HW159845   0.761   4.943   0.554  1.6412  1.9670  1.2911
18751SOL    HW259846   0.806   4.909   0.413 -1.4058 -1.0497  0.9163
18752SOL     OW59847   5.330   3.361   5.502 -0.2428 -0.1851  0.0089
18752SOL    HW159848   5.339   3.381   5.409  2.1268 -0.6549  0.0539
18752SOL    HW259849   5.407   3.403   5.543 -0.1191 -1.6813  1.4264
18753SOL     OW59850   6.938  10.295  10.091  0.5648  0.5379  0.1787
18753SOL    HW159851   7.010  10.265  10.036  1.0405  0.8413  0.6250
18753SOL    HW259852   6.978  10.361  10.148 -0.2908  1.4896 -0.2865
18754SOL     OW59853   1.062   2.390   5.013 -0.2913 -0.4930  0.3589
18754SOL    HW159854   1.064   2.295   5.000 -0.5582 -0.3409 -0.8328
18754SOL    HW259855   1.152   2.412   5.037  0.0701 -0.8879 -0.5921
18755SOL     OW59856   9.807   7.995  10.430 -0.9526 -0.5139 -0.4227
18755SOL    HW159857   9.721   7.984  10.471 -0.8813 -1.1614 -0.4350
18755SOL    HW259858   9.806   8.084  10.396 -2.1261 -0.9435 -1.6044
18756SOL     OW59859   9.916   5.117   8.905  0.7188 -0.5619  0.1143
18756SOL    HW159860   9.912   5.052   8.834  1.9068  0.2018 -0.6958
18756SOL    HW259861   9.983   5.083   8.965  3.1438  0.9542 -1.5176
18757SOL     OW59862   0.568   8.075   5.289 -0.7901  0.2976 -0.1908
18757SOL    HW159863   0.661   8.056   5.295 -0.6507  1.2803  1.4486
18757SOL    HW259864   0.562   8.155   5.238 -0.5484  1.2874  1.2804
18758SOL     OW59865   1.989   4.662   0.848  0.2566 -0.0911  0.0451
18758SOL    HW159866   1.976   4.711   0.767 -1.7453 -0.1676  0.2861
18758SOL    HW259867   1.901   4.639   0.877  0.9865 -0.9071  1.7382
18759SOL     OW59868   8.242   6.148   6.826 -0.0816  0.1178  0.3453
18759SOL    HW159869   8.314   6.212   6.820 -0.1123  0.2156  0.9120
18759SOL    HW259870   8.251   6.094   6.748 -1.2359  2.0336 -1.2104
18760SOL     OW59871   1.727  10.947   1.290  0.3182  0.1628 -0.3845
18760SOL    HW159872   1.747  10.976   1.379  2.0588 -1.2913 -0.2436
18760SOL    HW259873   1.634  10.925   1.293  0.5345 -0.7514  1.3740
18761SOL     OW59874   4.340   9.716   4.319 -0.2432 -0.2956  0.7232
18761SOL    HW159875   4.296   9.788   4.273  1.2738  0.9135  1.1024
18761SOL    HW259876   4.380   9.757   4.396  0.8003 -1.4987  0.8554
18762SOL     OW59877   8.903   1.209   0.966 -0.3302 -0.4495  0.2515
18762SOL    HW159878   8.826   1.156   0.987 -0.0586 -0.6816  0.6715
18762SOL    HW259879   8.914   1.267   1.041  0.5348 -1.1545  0.6886
18763SOL     OW59880   6.340  10.099  10.040 -0.5741 -0.1370 -0.3018
18763SOL    HW159881   6.354  10.081   9.947 -1.1160 -0.0871 -0.3955
18763SOL    HW259882   6.355  10.193  10.048 -0.4617 -0.1530 -0.3270
18764SOL     OW59883  10.802   1.473   7.809  0.3755 -0.0328 -0.5403
18764SOL    HW159884  10.711   1.482   7.779  0.6200 -1.1183 -1.6491
18764SOL    HW259885  10.803   1.520   7.893 -1.0741  0.4532 -0.7548
18765SOL     OW59886   2.260   1.778   0.045  0.5443 -0.0421 -0.1228
18765SOL    HW159887   2.300   1.865   0.057  2.2521 -0.9308  1.0661
18765SOL    HW259888   2.329   1.725   0.006  0.3493 -1.4647  1.3751
18766SOL     OW59889   7.405   7.079  10.583 -0.8318  0.4965 -0.1028
18766SOL    HW159890   7.412   7.015  10.512 -1.2418  0.5655 -0.2057
18766SOL    HW259891   7.326   7.053  10.630 -0.5590  0.4480  0.3341
18767SOL     OW59892   4.387   3.198   9.959  0.2975 -0.3586  0.2119
18767SOL    HW159893   4.314   3.183   9.899  0.7657 -0.3533 -0.3689
18767SOL    HW259894   4.461   3.152   9.920  1.2398  1.6688 -0.5471
18768SOL     OW59895   8.570   9.316   0.967 -0.1666 -0.0590 -0.1873
18768SOL    HW159896   8.614   9.231   0.961  0.3741  0.3070 -2.3942
18768SOL    HW259897   8.555   9.329   1.060  3.2613 -0.7971  0.5813
18769SOL     OW59898   8.994   3.756   7.258 -0.0410 -0.2413 -0.3417
18769SOL    HW159899   8.935   3.727   7.189  0.7141  0.2938 -1.2323
18769SOL    HW259900   8.992   3.852   7.253  0.7775 -0.2146 -0.2838
18770SOL     OW59901   5.364   0.713   0.300 -0.1666 -0.7516  0.5046
18770SOL    HW159902   5.434   0.647   0.304  0.0454 -0.5525  0.1320
18770SOL    HW259903   5.350   0.728   0.207  0.2429  0.2108  0.5861
18771SOL     OW59904   0.761   2.467   8.302 -0.1641 -0.1874  0.1479
18771SOL    HW159905   0.850   2.503   8.306 -0.3379  0.1735  0.8963
18771SOL    HW259906   0.708   2.539   8.267 -0.1100 -0.5096 -0.6044
18772SOL     OW59907   7.660  10.307   8.965 -0.5435 -0.2683  0.0536
18772SOL    HW159908   7.728  10.374   8.976  1.1089 -1.3852 -2.3445
18772SOL    HW259909   7.633  10.284   9.054  1.3282  1.1252  1.0487
18773SOL     OW59910   1.387   9.679   3.380 -0.2071 -0.0557 -0.9243
18773SOL    HW159911   1.297   9.648   3.371 -0.7184  1.0845  0.0548
18773SOL    HW259912   1.404   9.727   3.299 -0.9322  0.7872 -0.5993
18774SOL     OW59913   1.271   8.478   8.400  0.1583  0.0857 -0.2509
18774SOL    HW159914   1.304   8.561   8.365 -0.6023  0.6841  0.3970
18774SOL    HW259915   1.329   8.458   8.473  0.8165 -0.3787 -0.8751
18775SOL     OW59916   1.425   5.582   4.803  0.3761  0.4702 -0.4169
18775SOL    HW159917   1.360   5.514   4.815  0.7549  0.3931  1.6279
18775SOL    HW259918   1.464   5.564   4.718  1.2741 -2.6225  0.5214
18776SOL     OW59919   4.531   4.013   4.137 -0.0212  0.3322  0.3783
18776SOL    HW159920   4.483   3.931   4.148 -1.4646  1.1877  0.7384
18776SOL    HW259921   4.525   4.032   4.043 -1.1601  0.8607  0.5417
18777SOL     OW59922   4.714   8.582   2.167 -0.3556 -0.5290 -0.6700
18777SOL    HW159923   4.731   8.619   2.254 -0.2080 -0.1647 -0.8531
18777SOL    HW259924   4.635   8.529   2.179  0.1680 -1.2006 -0.1053
18778SOL     OW59925   8.838   6.759   4.878 -0.2997  0.6160  0.5057
18778SOL    HW159926   8.859   6.826   4.943 -2.2473  2.9217 -1.0757
18778SOL    HW259927   8.743   6.767   4.865 -0.3716 -1.5193 -0.7795
18779SOL     OW59928  11.027   1.921   1.481 -0.2596 -0.1729  0.5560
18779SOL    HW159929  11.001   1.872   1.403 -2.4894  1.8995 -0.1111
18779SOL    HW259930  10.982   1.877   1.553 -0.7740 -0.1668  0.2367
18780SOL     OW59931   4.940   2.781   4.743 -0.3025  0.1652 -0.0596
18780SOL    HW159932   5.016   2.827   4.780 -0.4837  0.5609 -0.1809
18780SOL    HW259933   4.951   2.691   4.773  0.5380  0.0806 -0.5686
18781SOL     OW59934   1.086   0.536  10.143  0.8850  0.0305  0.1153
18781SOL    HW159935   1.165   0.566  10.098  0.5531 -0.8442 -1.0813
18781SOL    HW259936   1.060   0.456  10.097  0.0252 -0.4156  1.3063
18782SOL     OW59937   6.706   2.173   3.736 -0.2193  0.6144  0.0906
18782SOL    HW159938   6.775   2.120   3.696  0.5200 -0.4364  2.5665
18782SOL    HW259939   6.740   2.263   3.732  0.4085  0.3609 -0.4370
18783SOL     OW59940   1.003   4.757   8.691  0.0978 -0.7105  0.7806
18783SOL    HW159941   0.996   4.829   8.754  3.5451  0.0370  0.5195
18783SOL    HW259942   0.943   4.690   8.724 -2.1227  1.6505  1.8475
18784SOL     OW59943   4.358   1.303   6.327  0.8409  0.1484  0.1054
18784SOL    HW159944   4.296   1.335   6.262  0.7194 -0.7492 -0.2349
18784SOL    HW259945   4.305   1.279   6.402  0.4915 -2.4390 -0.8756
18785SOL     OW59946   6.101   7.409  10.003  0.4131  0.2682  0.6002
18785SOL    HW159947   6.007   7.418  10.021 -0.3072 -1.5817 -1.7297
18785SOL    HW259948   6.129   7.498   9.980 -1.3234  0.4925 -0.8880
18786SOL     OW59949   0.399   5.824   8.880  0.0587 -0.0543  0.0942
18786SOL    HW159950   0.445   5.845   8.962 -0.9040 -2.0608  1.2339
18786SOL    HW259951   0.420   5.733   8.864  0.0927  0.2695 -1.8628
18787SOL     OW59952   5.274   4.417   1.147 -0.1740 -0.4384  0.3308
18787SOL    HW159953   5.200   4.478   1.144 -0.1642 -0.4203 -2.7341
18787SOL    HW259954   5.347   4.466   1.109  0.3777 -1.7100 -0.3001
18788SOL     OW59955   4.209   6.198   4.819  0.1818 -0.0814 -0.0633
18788SOL    HW159956   4.277   6.175   4.882  0.7338  0.3155 -0.5041
18788SOL    HW259957   4.136   6.141   4.841  1.0209 -1.2709 -0.2426
18789SOL     OW59958   6.800   0.549   2.959 -0.2008 -0.5361  0.6424
18789SOL    HW159959   6.751   0.471   2.986 -0.1890 -0.2173  1.6087
18789SOL    HW259960   6.758   0.621   3.006 -1.0130  0.2377 -1.1977
18790SOL     OW59961   6.612   9.564   7.081 -0.5061 -0.1418 -0.0829
18790SOL    HW159962   6.679   9.630   7.062  0.3308 -0.8444  0.3020
18790SOL    HW259963   6.540   9.583   7.021 -0.6678  1.6582  0.6372
18791SOL     OW59964   2.642   0.930  10.992  0.2387  0.1296 -0.2276
18791SOL    HW159965   2.583   0.968  11.057 -1.3381 -1.7733 -0.4294
18791SOL    HW259966   2.661   0.842  11.026  2.2097  0.3446 -0.6670
18792SOL     OW59967   2.621   3.787   9.392  0.0370 -0.6043  0.1965
18792SOL    HW159968   2.671   3.860   9.356  0.1721 -0.6974  0.1934
18792SOL    HW259969   2.647   3.712   9.339  0.5124 -0.8118  0.7195
18793SOL     OW59970   5.063   7.459   5.060  0.5076  0.1839  0.0932
18793SOL    HW159971   5.151   7.477   5.028  1.2548 -1.6338  1.0393
18793SOL    HW259972   5.033   7.384   5.008 -0.4101  0.6363 -0.0558
18794SOL     OW59973   8.116   1.179   3.400  0.2524  0.4177  0.3919
18794SOL    HW159974   8.143   1.252   3.344  1.3998  0.4421  0.9549
18794SOL    HW259975   8.049   1.217   3.458  0.1248  0.7604  0.0278
18795SOL     OW59976   3.375   8.823   6.641  0.6350  0.4270  0.2744
18795SOL    HW159977   3.357   8.896   6.701  0.1517  0.1062  0.5274
18795SOL    HW259978   3.311   8.756   6.665  0.4154  0.3046 -0.6302
18796SOL     OW59979   9.027   9.544   1.233  0.1624  0.7241 -0.3650
18796SOL    HW159980   8.947   9.541   1.286 -1.2101 -0.7866 -2.3732
18796SOL    HW259981   9.022   9.627   1.187  0.7709  1.5164  0.9618
18797SOL     OW59982   0.325   4.949   4.102 -0.1061 -0.8551 -0.0247
18797SOL    HW159983   0.270   4.979   4.030 -0.2659  0.0436  0.4541
18797SOL    HW259984   0.288   4.865   4.128  0.7418 -1.8361 -1.8154
18798SOL     OW59985   7.129   2.532   1.897 -1.1189 -0.2429  0.2775
18798SOL    HW159986   7.049   2.514   1.946 -1.6932 -2.5056 -1.2951
18798SOL    HW259987   7.184   2.456   1.912  0.4976  0.9715  0.7800
18799SOL     OW59988   7.629   2.679   7.581  0.0657  0.1051  0.0984
18799SOL    HW159989   7.703   2.740   7.578 -0.2351  0.5095 -2.6776
18799SOL    HW259990   7.563   2.721   7.526 -0.7326 -2.0036 -0.6424
18800SOL     OW59991   8.418   0.394   8.408  0.1961  0.4044 -0.0941
18800SOL    HW159992   8.498   0.364   8.451  0.6933  0.3161 -1.0735
18800SOL    HW259993   8.439   0.482   8.377 -0.5659  0.9595  0.8909
18801SOL     OW59994   1.298  10.998   6.887 -0.3114 -0.3358 -0.5466
18801SOL    HW159995   1.382  11.017   6.929  0.2911  0.0622 -1.8711
18801SOL    HW259996   1.289  11.065   6.820 -1.8244 -0.2259 -0.2727
18802SOL     OW59997   3.671  10.975   6.987  0.4107 -0.3940 -0.6542
18802SOL    HW159998   3.760  11.011   6.984  0.2845 -0.0541 -0.4427
18802SOL    HW259999   3.675  10.897   6.932  0.4872  0.3828 -1.7852
18803SOL     OW60000   2.745   1.200   7.586  0.1056  0.8090 -0.3168
18803SOL    HW160001   2.767   1.286   7.621 -0.7891  2.3635 -3.2477
18803SOL    HW260002   2.650   1.203   7.572 -0.0740 -0.9681  0.2116
18804SOL     OW60003   8.173   7.308  10.165 -0.0978  0.4137  0.3388
18804SOL    HW160004   8.241   7.293  10.230 -2.1463 -2.4816  2.0666
18804SOL    HW260005   8.095   7.268  10.203 -1.9240  0.4346 -3.0270
18805SOL     OW60006   1.845   2.625   1.605  0.3696  0.1291 -0.1320
18805SOL    HW160007   1.880   2.545   1.643  1.6727 -0.0878 -1.6648
18805SOL    HW260008   1.916   2.689   1.613 -0.0345  0.6281 -0.4309
18806SOL     OW60009   2.443  10.362   5.605 -0.8152  0.1727  0.1735
18806SOL    HW160010   2.358  10.342   5.564 -0.1518 -0.0415 -1.1495
18806SOL    HW260011   2.454  10.293   5.671 -0.9567 -0.7598 -0.7501
18807SOL     OW60012   2.127   3.308   0.223  0.1358  0.4209 -0.4770
18807SOL    HW160013   2.182   3.372   0.269 -0.0405 -0.8478  1.6363
18807SOL    HW260014   2.038   3.339   0.238  0.0461 -0.2990  0.6113
18808SOL     OW60015   8.831   5.482   9.991 -0.1527 -0.1030  0.0676
18808SOL    HW160016   8.822   5.566   9.946  1.0929 -0.0821 -0.1789
18808SOL    HW260017   8.743   5.444   9.991 -0.7454  1.2376  0.2592
18809SOL     OW60018   4.207   1.893   5.493 -0.4972 -0.0688  0.2545
18809SOL    HW160019   4.217   1.862   5.403  0.6552  3.1309 -0.8661
18809SOL    HW260020   4.297   1.911   5.522 -0.9309 -0.0703  1.6660
18810SOL     OW60021   6.488   8.625   4.150  0.0439  0.2546  0.1227
18810SOL    HW160022   6.527   8.616   4.063  1.7586 -2.5251  1.0341
18810SOL    HW260023   6.513   8.713   4.178  1.5348  0.3419 -1.2755
18811SOL     OW60024   6.139   3.029   4.203  0.1955 -0.3924 -0.0527
18811SOL    HW160025   6.112   3.080   4.279  1.1749  0.8353 -0.4893
18811SOL    HW260026   6.144   3.093   4.132 -0.1680 -1.4131 -1.0266
18812SOL     OW60027   2.909  10.939   6.234  0.3008 -0.1102  0.0756
18812SOL    HW160028   2.881  10.998   6.164 -0.6227  0.2733  0.7564
18812SOL    HW260029   2.988  10.980   6.269  0.9642 -0.4744 -0.9346
18813SOL     OW60030   2.747  11.110   6.721 -0.1444  0.6988  0.0663
18813SOL    HW160031   2.700  11.115   6.638  0.1714  1.0081 -0.0956
18813SOL    HW260032   2.766  11.201   6.744 -0.6692  0.6464  0.7323
18814SOL     OW60033   2.330   7.596  10.576 -0.2069  1.2853 -0.1345
18814SOL    HW160034   2.336   7.639  10.491 -0.2017  0.3897 -0.5969
18814SOL    HW260035   2.236   7.595  10.596 -0.8800 -2.6720 -2.3929
18815SOL     OW60036   8.229   3.521   6.537 -0.0742 -0.0747 -0.7249
18815SOL    HW160037   8.304   3.499   6.593  0.1889 -0.0313 -1.0533
18815SOL    HW260038   8.153   3.484   6.581 -0.0759  1.2009  0.4253
18816SOL     OW60039   9.511   5.636  10.453 -0.0230  0.4660 -0.5339
18816SOL    HW160040   9.557   5.624  10.370 -0.5265  1.9752 -1.0802
18816SOL    HW260041   9.450   5.708  10.436 -0.2884  0.6704  1.0883
18817SOL     OW60042   2.287   3.225   1.430 -0.0936 -0.0440  0.1824
18817SOL    HW160043   2.303   3.184   1.515  2.9459  0.1969 -0.1448
18817SOL    HW260044   2.354   3.294   1.425 -2.6831  2.6136 -0.8030
18818SOL     OW60045   2.986   4.928   7.462 -0.1305 -0.2601  0.9531
18818SOL    HW160046   3.028   4.942   7.547  2.3762  2.0420 -0.5186
18818SOL    HW260047   3.057   4.898   7.405 -2.0588 -3.3068 -0.1099
18819SOL     OW60048   5.149  10.497   6.971 -0.4058  0.0603 -0.6013
18819SOL    HW160049   5.128  10.406   6.952 -0.6657 -0.2534  1.0903
18819SOL    HW260050   5.214  10.521   6.904 -0.0183 -1.4776 -0.8109
18820SOL     OW60051   2.953   4.994   6.878  0.0177  0.1345  0.0168
18820SOL    HW160052   2.858   4.993   6.885  0.0484  1.8501  1.1659
18820SOL    HW260053   2.978   4.901   6.874 -1.6194 -0.3691  0.7909
18821SOL     OW60054   7.551   5.938   2.764  0.0079 -0.2444 -0.1398
18821SOL    HW160055   7.626   5.879   2.774  0.1983 -0.1348 -0.8394
18821SOL    HW260056   7.585   6.011   2.712 -0.3357  0.2805  0.3633
18822SOL     OW60057   6.870   9.833   2.388 -0.2139 -0.0093 -0.1165
18822SOL    HW160058   6.955   9.838   2.433 -0.4995 -0.8448  0.5532
18822SOL    HW260059   6.853   9.922   2.357  1.2899  0.0034 -0.9847
18823SOL     OW60060   7.470   8.976   6.999  0.4664 -0.4695  0.8833
18823SOL    HW160061   7.402   9.021   7.048  0.2680  1.6485 -1.1448
18823SOL    HW260062   7.544   8.970   7.059  0.2268  1.9558  1.5148
18824SOL     OW60063  10.124   5.470   8.318  0.5310 -0.1262 -0.2497
18824SOL    HW160064  10.149   5.453   8.409 -1.9270 -2.0540  0.1617
18824SOL    HW260065  10.135   5.386   8.274 -0.2005  0.2870 -1.2525
18825SOL     OW60066   1.372   4.905   1.228  0.4984  0.3124  0.3469
18825SOL    HW160067   1.443   4.880   1.169  1.2938  0.3297  1.2596
18825SOL    HW260068   1.294   4.868   1.189  0.8146  1.2958 -1.3219
18826SOL     OW60069   8.276   1.054   4.887 -0.0866 -0.1830 -0.0555
18826SOL    HW160070   8.272   1.077   4.795 -2.5841 -2.7192 -0.7158
18826SOL    HW260071   8.358   1.006   4.897  1.4144  2.1390 -0.2801
18827SOL     OW60072   0.850  10.852   1.481  0.9206 -0.2451  0.5394
18827SOL    HW160073   0.770  10.897   1.508  0.2587 -0.6500 -0.7208
18827SOL    HW260074   0.901  10.919   1.437 -0.1111 -0.7006 -1.4302
18828SOL     OW60075   2.895   1.545   9.808  0.2904  0.5410 -0.1595
18828SOL    HW160076   2.962   1.483   9.837  0.2090  0.3132 -0.4541
18828SOL    HW260077   2.818   1.491   9.788 -0.3143  0.8984  1.1250
18829SOL     OW60078   4.669   6.996   0.518 -0.1495 -0.0989  0.1952
18829SOL    HW160079   4.723   6.978   0.594  1.7673  2.3935 -0.4556
18829SOL    HW260080   4.704   6.940   0.449  0.7567  0.4803  0.1599
18830SOL     OW60081   2.121   2.662   6.706  0.6758 -0.1228  0.6608
18830SOL    HW160082   2.134   2.581   6.754  0.3957 -1.2379 -1.0771
18830SOL    HW260083   2.029   2.660   6.680  1.2381 -0.4645 -1.4624
18831SOL     OW60084   8.678  10.681   2.483 -0.7049  0.1462  0.1188
18831SOL    HW160085   8.679  10.764   2.436 -0.9280  0.6562  1.0077
18831SOL    HW260086   8.764  10.643   2.466 -0.3729  0.8463  0.2343
18832SOL     OW60087   9.752   8.530   4.321 -0.3316  0.0669  0.1413
18832SOL    HW160088   9.822   8.539   4.256  0.1341  0.5385  0.6994
18832SOL    HW260089   9.744   8.435   4.335  2.3167  0.0310  2.2794
18833SOL     OW60090   1.952   5.649   1.560 -0.3470  0.7097 -0.2440
18833SOL    HW160091   1.984   5.723   1.612 -2.3704  0.9023  0.8460
18833SOL    HW260092   1.922   5.689   1.478  0.4683  0.7851 -0.5124
18834SOL     OW60093  10.259   3.060   8.806 -0.2451 -0.4734 -0.3500
18834SOL    HW160094  10.324   2.997   8.835  1.9335  0.9455 -1.8662
18834SOL    HW260095  10.191   3.007   8.764  0.3138 -1.9407  0.5305
18835SOL     OW60096   2.767   5.345   9.998  0.2316 -0.4734 -0.2698
18835SOL    HW160097   2.821   5.267  10.007  1.2109  0.4178  2.5286
18835SOL    HW260098   2.703   5.338  10.070 -1.3170  0.0989 -1.5320
18836SOL     OW60099   0.903   4.480  10.631 -0.0059  0.5148 -0.4247
18836SOL    HW160100   0.956   4.501  10.554  1.4306 -0.8320  0.1476
18836SOL    HW260101   0.847   4.407  10.602 -0.8111  1.2204 -0.7035
18837SOL     OW60102   6.751   9.992  11.054  0.5550 -0.2293 -0.1618
18837SOL    HW160103   6.727  10.076  11.094  1.3951 -1.1488  2.4657
18837SOL    HW260104   6.673   9.966  11.005  0.1430  1.8627 -0.7555
18838SOL     OW60105   6.899   2.890   7.147  0.3899  0.0675 -0.3998
18838SOL    HW160106   6.818   2.938   7.131  0.6587  0.6165 -0.1426
18838SOL    HW260107   6.909   2.890   7.243 -0.6911 -2.3293 -0.2300
18839SOL     OW60108   4.212   8.268   4.131 -0.1995  0.0278 -0.4931
18839SOL    HW160109   4.166   8.227   4.204 -1.4259  1.1324 -0.6130
18839SOL    HW260110   4.204   8.204   4.060 -0.3994 -0.3621 -0.1277
18840SOL     OW60111   3.451  10.856  10.848 -0.4552 -0.1232 -0.6186
18840SOL    HW160112   3.462  10.825  10.758 -0.2100 -1.1617 -0.2428
18840SOL    HW260113   3.394  10.933  10.840  1.0787  0.9556 -1.8563
18841SOL     OW60114   4.082   8.028   1.487 -0.2734  0.3783  0.3421
18841SOL    HW160115   4.052   8.102   1.540  0.0213  2.0212 -1.6265
18841SOL    HW260116   4.079   8.061   1.397  1.6767 -1.3914 -0.4542
18842SOL     OW60117   3.992   2.707   5.217  0.2502 -0.3139 -0.3166
18842SOL    HW160118   3.901   2.679   5.207  0.6208 -2.1439  0.8110
18842SOL    HW260119   3.992   2.760   5.297 -0.1981  1.8614 -1.6698
18843SOL     OW60120  10.798   7.344  11.062 -0.2371  0.2232 -0.9069
18843SOL    HW160121  10.754   7.264  11.092 -3.7570  1.9193 -1.0649
18843SOL    HW260122  10.840   7.378  11.141 -0.5505 -0.6664 -0.3303
18844SOL     OW60123   9.156  10.841   3.421 -0.2973 -0.1996  0.1095
18844SOL    HW160124   9.152  10.916   3.481 -0.4346 -0.9913  1.1034
18844SOL    HW260125   9.118  10.874   3.340  0.5547  1.1076  0.2021
18845SOL     OW60126   2.015   4.508   2.487 -0.2125 -0.1351 -0.2046
18845SOL    HW160127   2.106   4.484   2.504  0.1094  1.9214  1.3740
18845SOL    HW260128   1.963   4.442   2.533  0.5103 -0.6000 -0.0454
18846SOL     OW60129   6.722  10.382   5.994  0.8052  0.0959  0.3234
18846SOL    HW160130   6.757  10.443   6.059  0.5988 -1.1382  1.6387
18846SOL    HW260131   6.650  10.337   6.039 -0.4935  0.4297 -1.3371
18847SOL     OW60132   6.072   5.841   5.151 -0.4947  0.6646 -0.3270
18847SOL    HW160133   6.097   5.873   5.238  2.0080  0.0129 -0.7149
18847SOL    HW260134   6.091   5.747   5.154 -2.5005  0.1923 -0.9270
18848SOL     OW60135   8.894   2.360   2.375 -0.2685  0.5678 -0.0755
18848SOL    HW160136   8.886   2.386   2.283 -0.7799 -1.1106 -0.5519
18848SOL    HW260137   8.986   2.335   2.384 -0.3190  0.3057 -0.2633
18849SOL     OW60138   5.862   9.256   1.461 -0.0930 -0.0032 -0.3845
18849SOL    HW160139   5.934   9.290   1.514 -0.7992  1.1431 -0.1246
18849SOL    HW260140   5.801   9.329   1.455 -2.0715 -1.4656  0.8653
18850SOL     OW60141   8.100   2.866   5.499 -0.3916  0.6589  0.1983
18850SOL    HW160142   8.142   2.900   5.578  1.3104  0.7139 -0.6843
18850SOL    HW260143   8.095   2.942   5.440 -0.0445  0.2332 -0.3834
18851SOL     OW60144   2.404   3.919  10.484  0.0591 -0.2907 -0.1351
18851SOL    HW160145   2.349   3.855  10.438  0.1812 -0.3937 -0.1369
18851SOL    HW260146   2.407   3.887  10.575 -2.1508  1.1748  0.5427
18852SOL     OW60147   6.473  10.618  10.474 -0.0704 -0.1157 -0.0076
18852SOL    HW160148   6.433  10.670  10.544 -2.1209 -2.8745  1.0727
18852SOL    HW260149   6.406  10.616  10.405 -0.9794 -2.8589  0.8339
18853SOL     OW60150   9.858   9.578   2.779 -0.3033  0.1867  0.1406
18853SOL    HW160151   9.933   9.524   2.804 -0.0367 -0.0964 -1.1927
18853SOL    HW260152   9.824   9.537   2.700 -1.3656  0.7940  0.2617
18854SOL     OW60153   6.566   4.674   0.946 -0.7113 -0.1165  0.0527
18854SOL    HW160154   6.496   4.612   0.928 -1.7797  0.9830  0.2693
18854SOL    HW260155   6.618   4.632   1.015 -1.9878 -0.3709  0.9038
18855SOL     OW60156   7.658   1.426   2.806  0.7901  0.2758  0.4713
18855SOL    HW160157   7.696   1.384   2.883  0.6935  2.3941  1.7681
18855SOL    HW260158   7.728   1.483   2.773 -0.3748  2.3985  1.4545
18856SOL     OW60159   2.452   3.306  11.080  0.0987  0.6626 -0.0777
18856SOL    HW160160   2.473   3.314  11.173  0.1036  0.9709 -0.1028
18856SOL    HW260161   2.408   3.389  11.059  0.2347  0.6563 -0.3842
18857SOL     OW60162   0.683   6.207  10.297  0.2882 -0.5294 -0.6223
18857SOL    HW160163   0.739   6.146  10.346 -0.3634 -1.1637 -0.6342
18857SOL    HW260164   0.600   6.159  10.286  0.5464 -0.5867 -2.7222
18858SOL     OW60165   4.626   4.020   8.867 -0.4401  0.6339 -0.2834
18858SOL    HW160166   4.589   4.047   8.952 -1.1874  2.6046 -1.1871
18858SOL    HW260167   4.695   3.957   8.890 -0.5296  1.2202  1.7935
18859SOL     OW60168   9.170   3.149   3.271  0.1435  0.6012  0.1483
18859SOL    HW160169   9.194   3.144   3.364 -0.9927  1.5809  0.5257
18859SOL    HW260170   9.245   3.113   3.225  1.8153  2.3870  1.3120
18860SOL     OW60171   6.964   9.422   2.369 -0.2093 -0.1205  0.6407
18860SOL    HW160172   6.887   9.468   2.405 -0.2640  0.5414 -0.2876
18860SOL    HW260173   6.932   9.334   2.351 -0.2086 -0.4487  2.0890
18861SOL     OW60174   7.771  10.286   6.119  0.1314 -0.3402  0.8197
18861SOL    HW160175   7.773  10.381   6.106  0.8695 -0.3679  0.7074
18861SOL    HW260176   7.690  10.258   6.075  0.2616  0.1504  0.2554
18862SOL     OW60177   3.098   8.745   0.751 -0.1109  0.1246  0.3380
18862SOL    HW160178   3.059   8.702   0.675 -2.6147  2.7555 -0.0603
18862SOL    HW260179   3.042   8.719   0.825 -0.1300  0.6802  0.5271
18863SOL     OW60180   2.498   8.453   9.277 -0.2010  0.1516 -0.0050
18863SOL    HW160181   2.477   8.489   9.191  1.1321  2.0527  0.4016
18863SOL    HW260182   2.461   8.516   9.339 -1.5576 -1.4348  0.8753
18864SOL     OW60183   9.682   2.773   6.739 -0.1635  0.2475  0.4686
18864SOL    HW160184   9.619   2.815   6.796 -1.1326 -0.9191  0.3029
18864SOL    HW260185   9.629   2.732   6.670  0.8460  0.0770 -0.2359
18865SOL     OW60186   2.223  10.090   5.986  0.4524 -0.1693 -0.1146
18865SOL    HW160187   2.304  10.127   6.023  0.5712  1.4445 -1.8394
18865SOL    HW260188   2.248  10.004   5.953  1.3354  0.0742 -0.1068
18866SOL     OW60189   6.575   7.583   4.643  0.2806 -0.3721  0.0189
18866SOL    HW160190   6.531   7.537   4.571  1.0176  1.4430 -1.6629
18866SOL    HW260191   6.605   7.513   4.701 -0.2985 -1.9042 -1.4492
18867SOL     OW60192   6.832   5.886   8.070 -0.0908  0.2045  0.0625
18867SOL    HW160193   6.740   5.892   8.045 -0.0915 -2.3478 -0.8729
18867SOL    HW260194   6.843   5.949   8.141 -2.1569  1.6686 -0.8475
18868SOL     OW60195   8.589   9.871   5.369  0.4003 -0.3130  0.2069
18868SOL    HW160196   8.559   9.795   5.417  0.5546 -1.2679 -1.1489
18868SOL    HW260197   8.534   9.873   5.290  0.1690  1.1848  0.3719
18869SOL     OW60198   4.379   6.064   6.623 -0.2647  0.1384  0.1309
18869SOL    HW160199   4.344   6.023   6.702 -0.4212 -2.6448 -1.2750
18869SOL    HW260200   4.302   6.083   6.569 -0.0439  0.3771 -0.1055
18870SOL     OW60201   3.938   9.934   2.272  0.1742  0.0200  0.0947
18870SOL    HW160202   3.945   9.919   2.367  1.6801  1.2957  0.2294
18870SOL    HW260203   4.025   9.964   2.246 -0.2159 -0.2969 -1.7189
18871SOL     OW60204   2.844  10.709   5.632 -0.1977  0.2728  0.2225
18871SOL    HW160205   2.924  10.658   5.647  1.4660  1.9742 -2.0559
18871SOL    HW260206   2.793  10.655   5.572  0.5915  0.3358 -0.5344
18872SOL     OW60207   6.851   7.705   3.441  0.0340  0.0856 -0.0808
18872SOL    HW160208   6.801   7.624   3.451  0.5663 -0.4712 -1.6293
18872SOL    HW260209   6.885   7.701   3.351  0.2923  1.9021 -0.0960
18873SOL     OW60210   3.995   1.748   1.916  0.3189  0.2217  0.3853
18873SOL    HW160211   3.997   1.763   2.010 -1.3481 -0.0254  0.5019
18873SOL    HW260212   4.075   1.699   1.898  1.1552  1.1215  1.4944
18874SOL     OW60213   6.495   1.134   6.740  0.5973 -0.3208 -0.0958
18874SOL    HW160214   6.446   1.195   6.795 -0.3435 -0.9334 -0.2381
18874SOL    HW260215   6.560   1.095   6.799  1.7107  1.2996 -0.1537
18875SOL     OW60216   6.911  10.673   3.300  0.2252  0.0866 -0.4514
18875SOL    HW160217   6.832  10.649   3.252  0.0627 -0.6169  0.1341
18875SOL    HW260218   6.945  10.750   3.255  0.5862 -1.0662 -2.2370
18876SOL     OW60219  10.382   5.453   2.652  0.0010 -0.8810 -0.4102
18876SOL    HW160220  10.331   5.373   2.663  0.6402 -1.3923 -1.0709
18876SOL    HW260221  10.361   5.506   2.729  0.6074 -2.2565  0.7312
18877SOL     OW60222   4.550  10.042   6.552 -0.5347 -0.9526 -0.0071
18877SOL    HW160223   4.607  10.050   6.629 -0.5983  2.4925 -0.1728
18877SOL    HW260224   4.591   9.973   6.500  0.5495 -2.1230  2.2204
18878SOL     OW60225  10.574   7.258   8.431 -0.0784  0.2242 -0.0172
18878SOL    HW160226  10.532   7.193   8.487  0.5651 -0.8312 -0.7192
18878SOL    HW260227  10.647   7.291   8.484  0.0470 -0.1833  0.0694
18879SOL     OW60228   8.429  10.111  10.808 -0.0141 -0.2517 -0.0727
18879SOL    HW160229   8.384  10.177  10.755 -0.1741 -0.7039 -0.5047
18879SOL    HW260230   8.486  10.162  10.866 -0.7284  0.3113  0.1534
18880SOL     OW60231   9.669   0.051   6.676 -0.1354 -0.4843 -0.2752
18880SOL    HW160232   9.626   0.074   6.759 -0.0125  0.7556 -0.5240
18880SOL    HW260233   9.704  -0.036   6.690 -1.2135 -0.8076  0.5398
18881SOL     OW60234   9.185   2.588   2.541 -0.0268 -0.6398 -0.4485
18881SOL    HW160235   9.198   2.505   2.586 -0.1279 -0.1343  0.5504
18881SOL    HW260236   9.251   2.589   2.472  1.8409 -0.3959  1.2266
18882SOL     OW60237   4.482   0.945   3.994  0.5369  0.1521  0.1078
18882SOL    HW160238   4.450   0.870   4.045  1.1157  0.1598  0.5022
18882SOL    HW260239   4.529   0.998   4.058  0.7961  0.4538 -0.3299
18883SOL     OW60240   4.995   5.920   6.240  0.1286  0.1046  0.3867
18883SOL    HW160241   5.031   6.008   6.249  0.5131 -0.2260  2.5278
18883SOL    HW260242   4.905   5.927   6.272  0.1214 -0.2487  0.4505
18884SOL     OW60243  10.126   0.307  10.631  0.4391  0.3881  0.7147
18884SOL    HW160244  10.148   0.375  10.695  0.5339 -1.4202  2.7060
18884SOL    HW260245  10.080   0.240  10.682 -0.3678 -0.7061 -1.3348
18885SOL     OW60246   9.343   8.305  10.701 -0.0649 -0.0834  0.3231
18885SOL    HW160247   9.274   8.355  10.658 -0.4282 -1.1743 -0.3742
18885SOL    HW260248   9.408   8.289  10.633 -0.2089 -1.0180  0.3880
18886SOL     OW60249   9.179   1.490   1.422 -0.6026  0.2200 -0.3016
18886SOL    HW160250   9.165   1.436   1.500  1.8351  1.8114  1.3805
18886SOL    HW260251   9.099   1.541   1.413 -1.2472 -0.5831  0.6804
18887SOL     OW60252   8.914   7.077   3.164  0.2868  0.5044  0.2200
18887SOL    HW160253   8.945   7.087   3.254  0.5564  2.0163 -0.0104
18887SOL    HW260254   8.879   7.164   3.141  0.1941  0.1348 -1.1231
18888SOL     OW60255   8.913   6.444  10.777 -0.0531 -0.3456  0.0615
18888SOL    HW160256   8.836   6.403  10.817 -0.2587 -0.4180 -0.4046
18888SOL    HW260257   8.901   6.537  10.791 -0.3442 -0.3400 -0.2135
18889SOL     OW60258   8.236   0.592   5.028 -0.0934  1.0347  0.5150
18889SOL    HW160259   8.203   0.631   4.947 -0.9736  1.8559  1.2566
18889SOL    HW260260   8.191   0.508   5.035 -1.4329  1.7715  1.0776
18890SOL     OW60261   6.858   1.963   8.892 -0.2428 -0.4534  0.2319
18890SOL    HW160262   6.842   1.973   8.798  0.0600  1.4327  0.3513
18890SOL    HW260263   6.869   1.869   8.904 -0.3355 -0.7373 -1.6127
18891SOL     OW60264   1.364  10.023   0.865 -0.1736 -0.2189 -0.4241
18891SOL    HW160265   1.383  10.117   0.857 -0.1008 -0.1012  0.9171
18891SOL    HW260266   1.446   9.985   0.897 -0.5800 -0.5198  0.2903
18892SOL     OW60267   0.672   0.488   1.279  0.7363 -0.2554  0.0362
18892SOL    HW160268   0.659   0.582   1.293  1.6075 -0.0133 -0.6920
18892SOL    HW260269   0.689   0.479   1.185 -0.4834 -1.2877 -0.1161
18893SOL     OW60270   3.873   6.200   5.296 -0.2281  0.3186 -0.3033
18893SOL    HW160271   3.954   6.191   5.246 -0.7959 -0.1598 -1.1734
18893SOL    HW260272   3.829   6.276   5.257 -0.6907 -0.0764 -0.5550
18894SOL     OW60273   5.013   9.784   1.140 -0.1853  0.2556 -0.5984
18894SOL    HW160274   4.986   9.824   1.057  0.6189 -0.0751 -1.0381
18894SOL    HW260275   4.933   9.745   1.175 -0.7325  1.1935 -0.7518
18895SOL     OW60276  10.614  10.472   4.213 -0.1910  0.4505 -0.6528
18895SOL    HW160277  10.566  10.545   4.252 -1.4817 -0.1913 -0.9966
18895SOL    HW260278  10.706  10.495   4.224 -0.5509  1.1868  1.0386
18896SOL     OW60279   7.668   2.795   9.164  0.0142  0.0829 -0.0466
18896SOL    HW160280   7.613   2.858   9.211 -0.3635  1.2791 -1.9955
18896SOL    HW260281   7.743   2.847   9.135 -0.0313 -0.4894 -1.2076
18897SOL     OW60282   1.565   6.755   0.504  0.3056  0.3514  0.1498
18897SOL    HW160283   1.477   6.730   0.533 -0.3873  1.6857 -0.6871
18897SOL    HW260284   1.566   6.736   0.410  0.9347  0.2999  0.1631
18898SOL     OW60285   8.693   0.687   7.121  0.5917 -0.5284  0.5549
18898SOL    HW160286   8.629   0.619   7.136  0.5717 -0.6384 -0.0101
18898SOL    HW260287   8.653   0.745   7.056  0.8877 -0.3665  0.5104
18899SOL     OW60288   2.534   7.823   5.647  0.9298  0.0829  0.8277
18899SOL    HW160289   2.537   7.845   5.740  2.2124 -1.6280  1.2538
18899SOL    HW260290   2.589   7.889   5.605  0.9752  0.4111  1.3895
18900SOL     OW60291   0.709   2.292   6.095  0.3788 -0.2283  0.0629
18900SOL    HW160292   0.614   2.293   6.104  0.3727 -1.1195  0.1393
18900SOL    HW260293   0.739   2.357   6.158 -0.0735 -1.3774  1.5234
18901SOL     OW60294   5.049   9.880   8.778  0.5996 -0.1581 -0.0913
18901SOL    HW160295   5.056   9.817   8.707  0.5357  1.6991 -1.8410
18901SOL    HW260296   5.133   9.926   8.777  0.0795  0.8132  0.0912
18902SOL     OW60297  10.449   0.533  10.844  0.0094  0.3618  0.0753
18902SOL    HW160298  10.536   0.573  10.852  0.8950 -1.3795 -0.4273
18902SOL    HW260299  10.462   0.456  10.789 -2.2079  1.0436 -1.5576
18903SOL     OW60300   7.621   5.828   8.485 -0.1901  0.3679  0.4715
18903SOL    HW160301   7.530   5.842   8.457 -0.0292 -0.3293 -0.4254
18903SOL    HW260302   7.673   5.877   8.422  0.0990  0.2078  0.5844
18904SOL     OW60303   9.273   3.538   4.173 -0.0266  0.1288  0.3099
18904SOL    HW160304   9.308   3.450   4.158 -1.3340  0.0084 -2.5946
18904SOL    HW260305   9.281   3.550   4.268  2.7052 -1.9958  0.4954
18905SOL     OW60306  10.173   4.098   4.555  0.0113 -0.0777 -0.6177
18905SOL    HW160307  10.083   4.113   4.524 -0.4684 -1.3335  0.0804
18905SOL    HW260308  10.199   4.015   4.514  1.9388  1.5861 -3.0394
18906SOL     OW60309   1.639   7.069  10.073 -0.2070  0.4753 -0.1878
18906SOL    HW160310   1.628   6.976  10.055  2.9255  0.3302 -2.0507
18906SOL    HW260311   1.732   7.079  10.094 -0.5703  3.1148  0.5317
18907SOL     OW60312   2.412   1.604  10.936  0.6393  0.4267  0.4208
18907SOL    HW160313   2.491   1.603  10.882  0.4635 -1.2138  0.1434
18907SOL    HW260314   2.341   1.587  10.874  0.3078 -0.2687  0.9768
18908SOL     OW60315   8.047   5.549   0.391 -0.4810 -0.0441 -0.0975
18908SOL    HW160316   7.969   5.567   0.339 -1.2678  1.3299  1.4835
18908SOL    HW260317   8.014   5.516   0.475  0.6249  0.4960  0.5805
18909SOL     OW60318   0.558   7.179   4.744  0.3393 -0.6459  0.0625
18909SOL    HW160319   0.638   7.171   4.692  0.8256 -2.2218  0.9799
18909SOL    HW260320   0.587   7.161   4.834 -0.9781 -0.7659  0.4729
18910SOL     OW60321   7.777   4.230   9.166 -0.5266 -0.3919 -0.0517
18910SOL    HW160322   7.792   4.137   9.150 -1.4113 -0.0994 -3.4097
18910SOL    HW260323   7.800   4.272   9.083 -4.2503  1.8524 -0.1363
18911SOL     OW60324   2.687   1.493   5.629 -0.4914  0.1271 -0.4930
18911SOL    HW160325   2.736   1.414   5.651 -0.6535  0.2625  0.4049
18911SOL    HW260326   2.716   1.558   5.694 -2.5074 -0.0456  0.6798
18912SOL     OW60327   7.906   3.536   8.456  0.4746 -0.7523 -0.2189
18912SOL    HW160328   8.002   3.532   8.457  0.5501  0.4221  1.8478
18912SOL    HW260329   7.885   3.624   8.489 -1.3205 -1.2186 -0.0237
18913SOL     OW60330   9.029   4.632   0.406  0.1265 -0.2028 -0.4145
18913SOL    HW160331   9.062   4.613   0.494  1.5698 -1.6673 -1.2126
18913SOL    HW260332   8.942   4.668   0.421  0.3729 -0.3006  1.6164
18914SOL     OW60333   0.722   3.402   6.113  0.2217  0.0208  0.1239
18914SOL    HW160334   0.778   3.472   6.146  0.7039 -0.1951 -0.2249
18914SOL    HW260335   0.783   3.333   6.087 -0.1359  0.1454 -1.1286
18915SOL     OW60336   1.307   5.730   3.355 -0.0696  0.4544  0.1658
18915SOL    HW160337   1.290   5.666   3.286  2.4694  1.8263 -1.8536
18915SOL    HW260338   1.263   5.810   3.326  2.5256  1.5876 -0.9346
18916SOL     OW60339   9.964   3.308   7.732  0.1138 -0.0123 -0.8019
18916SOL    HW160340   9.924   3.355   7.659  1.4931 -0.6184 -2.0062
18916SOL    HW260341   9.890   3.277   7.784 -0.8922  0.9480 -1.6085
18917SOL     OW60342   5.754   8.419   4.573 -0.0876 -0.4479  0.7898
18917SOL    HW160343   5.785   8.504   4.543 -2.1858  0.2001  0.2655
18917SOL    HW260344   5.825   8.358   4.551  1.8834  1.2509  2.0753
18918SOL     OW60345   4.602   0.980   3.485 -0.0209  0.1737 -0.2410
18918SOL    HW160346   4.552   1.007   3.409  0.3199 -1.3086 -1.0391
18918SOL    HW260347   4.683   0.943   3.449 -0.7124 -2.4149  0.6492
18919SOL     OW60348   0.397   3.315   3.063 -0.2597 -0.4726  0.0709
18919SOL    HW160349   0.338   3.269   3.121 -0.1545 -1.0934 -0.3059
18919SOL    HW260350   0.467   3.348   3.120 -1.3472  0.9522  0.6394
18920SOL     OW60351   5.883   7.679   9.936 -0.3237 -0.0128  0.7623
18920SOL    HW160352   5.801   7.730   9.936 -0.5178 -0.3034 -0.2121
18920SOL    HW260353   5.859   7.597   9.978 -0.2379  0.3326  1.5095
18921SOL     OW60354   7.140  10.212   4.305  0.5289  0.4628  0.2832
18921SOL    HW160355   7.080  10.178   4.238  0.5135  0.9003  0.0637
18921SOL    HW260356   7.227  10.185   4.275  0.6151  1.4862 -0.4511
18922SOL     OW60357   1.941   5.248   6.093 -0.4402 -0.6608  0.1908
18922SOL    HW160358   1.970   5.301   6.019 -1.1587  1.8475  1.5777
18922SOL    HW260359   1.847   5.264   6.098 -0.5812 -1.6725  0.9963
18923SOL     OW60360   7.883   0.711   8.574 -0.0364 -0.2084 -0.2915
18923SOL    HW160361   7.920   0.675   8.494  0.4646  1.1363 -0.6959
18923SOL    HW260362   7.958   0.748   8.620 -0.6680  1.5024 -0.5524
18924SOL     OW60363  10.277   8.195   8.130 -0.2673  0.1924 -0.4685
18924SOL    HW160364  10.284   8.286   8.159  1.7293 -0.4843  1.4435
18924SOL    HW260365  10.333   8.190   8.053 -0.2595  0.5452 -0.4877
18925SOL     OW60366   6.195   2.283   0.987  0.1229 -0.5236 -0.0219
18925SOL    HW160367   6.285   2.309   1.002 -0.4663  1.3798  0.5099
18925SOL    HW260368   6.162   2.258   1.073 -0.3540  0.5479  0.1215
18926SOL     OW60369   2.361   8.955  10.048  0.1298  0.2061  0.8905
18926SOL    HW160370   2.283   8.900  10.055 -0.2148  0.7897  1.7999
18926SOL    HW260371   2.363   9.005  10.130  1.9911 -0.4980  1.3392
18927SOL     OW60372   2.033   7.677   1.393 -0.0880 -0.0646  0.8279
18927SOL    HW160373   1.972   7.745   1.422 -0.0370 -0.1250  1.0791
18927SOL    HW260374   2.118   7.719   1.394 -0.3170  0.5163 -1.1205
18928SOL     OW60375   5.782   4.636   3.018 -0.0199 -0.3581 -0.2971
18928SOL    HW160376   5.720   4.566   3.036 -0.3838 -0.0574 -0.3628
18928SOL    HW260377   5.868   4.599   3.040 -0.4706  0.4482  3.6755
18929SOL     OW60378   9.670   8.901   2.452  0.7184 -0.3975  0.2500
18929SOL    HW160379   9.624   8.969   2.501 -1.6782 -0.5029 -1.6803
18929SOL    HW260380   9.701   8.944   2.373 -0.3500 -1.3589 -0.7388
18930SOL     OW60381   5.336  10.597   7.886 -0.5746 -0.5284  0.2361
18930SOL    HW160382   5.314  10.690   7.883 -0.3870 -0.5076 -1.1253
18930SOL    HW260383   5.429  10.594   7.864 -0.7504 -1.0832 -0.4643
18931SOL     OW60384   1.916  10.822   5.735 -0.6613 -0.1056 -0.6338
18931SOL    HW160385   1.867  10.745   5.707  0.4849 -0.6566 -1.1845
18931SOL    HW260386   1.919  10.815   5.831 -3.3153  1.0067 -0.3618
18932SOL     OW60387   4.217   5.732   6.774 -0.1542 -0.0414 -0.0443
18932SOL    HW160388   4.136   5.708   6.730  0.6907 -0.0681 -1.6951
18932SOL    HW260389   4.213   5.827   6.781 -0.2622 -0.0229 -0.3101
18933SOL     OW60390   6.065   0.262   1.226  0.3844  0.1345 -0.5817
18933SOL    HW160391   6.042   0.169   1.228  0.5057  0.1191  0.4914
18933SOL    HW260392   6.028   0.294   1.144 -1.7342 -0.3302  0.1490
18934SOL     OW60393  11.065   4.942   7.532  0.2743 -0.0642  0.0699
18934SOL    HW160394  11.129   5.004   7.568  0.1366  0.0090  0.1946
18934SOL    HW260395  10.986   4.995   7.520 -0.0352 -0.3487  0.7634
18935SOL     OW60396   4.422  10.123   5.182  0.0948 -0.4287 -0.3413
18935SOL    HW160397   4.407  10.177   5.104  1.8326 -0.5970 -0.8210
18935SOL    HW260398   4.492  10.168   5.230 -1.2026 -0.1189  1.3598
18936SOL     OW60399  10.373   2.448   5.828 -0.1083 -0.1791 -0.1213
18936SOL    HW160400  10.291   2.400   5.815 -0.2310 -0.3464  1.1127
18936SOL    HW260401  10.442   2.382   5.819 -0.1025 -0.0368 -1.1704
18937SOL     OW60402   6.272  10.387   6.175  0.4060 -0.2109 -0.5293
18937SOL    HW160403   6.181  10.364   6.157  0.6638 -1.5252 -0.2671
18937SOL    HW260404   6.285  10.471   6.131 -1.5680  1.1432  1.3307
18938SOL     OW60405  11.053   7.550  11.080  0.1590  1.0932  0.3741
18938SOL    HW160406  10.976   7.588  11.124 -1.6712 -0.2054 -1.4990
18938SOL    HW260407  11.060   7.462  11.117 -0.4461  0.5428 -0.7897
18939SOL     OW60408   6.243   4.835   8.948 -0.6118  0.6477 -0.1521
18939SOL    HW160409   6.184   4.898   8.989  0.1250  1.9991 -1.0821
18939SOL    HW260410   6.192   4.755   8.940 -1.5942  1.1332  1.0160
18940SOL     OW60411   2.838   5.987   2.189 -0.1186 -0.7978 -0.0829
18940SOL    HW160412   2.775   5.938   2.242 -0.7418 -1.0408 -1.0191
18940SOL    HW260413   2.785   6.051   2.141  0.1382 -1.7989 -1.8014
18941SOL     OW60414   5.150   6.993   4.797  0.5755 -0.6963  0.1206
18941SOL    HW160415   5.200   6.950   4.867 -0.8364 -1.0712  0.9408
18941SOL    HW260416   5.108   6.920   4.750 -1.4372 -0.3132  1.2103
18942SOL     OW60417   4.115   4.118   7.510  0.3219  0.2429 -0.0057
18942SOL    HW160418   4.169   4.039   7.519  1.4045  0.8736 -0.7434
18942SOL    HW260419   4.161   4.184   7.562 -0.6390  0.3790  0.6954
18943SOL     OW60420   4.969   1.330   0.913 -0.0564  0.0619  0.5914
18943SOL    HW160421   4.915   1.316   0.991 -0.4048  1.0870  0.5534
18943SOL    HW260422   5.049   1.371   0.948 -1.3117  3.0713  0.1899
18944SOL     OW60423   4.456  10.899   6.037  0.2280  0.3347 -0.1707
18944SOL    HW160424   4.380  10.932   5.989  0.3562 -0.4464 -0.9360
18944SOL    HW260425   4.459  10.952   6.117 -1.9213 -0.5073  0.5253
18945SOL     OW60426   8.727   6.750   0.581  0.5849  0.4291 -0.5999
18945SOL    HW160427   8.712   6.789   0.667  1.8081  1.0948 -0.6646
18945SOL    HW260428   8.810   6.704   0.589  1.1726  1.2560 -1.6576
18946SOL     OW60429   4.376   7.292   9.752  0.0152  0.4852  0.5986
18946SOL    HW160430   4.283   7.317   9.753  0.1523  1.0029  1.0705
18946SOL    HW260431   4.376   7.204   9.714 -0.7275  0.2536  1.0984
18947SOL     OW60432   5.694  10.539   9.612  0.2222  0.3114  0.0753
18947SOL    HW160433   5.684  10.532   9.707 -0.4628  0.2651  0.0061
18947SOL    HW260434   5.674  10.631   9.592 -0.9071  0.0288 -0.1573
18948SOL     OW60435   8.726   4.337   4.867 -0.3531 -0.4016  0.1566
18948SOL    HW160436   8.723   4.243   4.853  0.7766 -0.9722  3.0495
18948SOL    HW260437   8.706   4.348   4.960 -0.2877  2.2138 -0.0640
18949SOL     OW60438   6.984   6.512   1.453 -0.3779  0.1949  0.0425
18949SOL    HW160439   7.069   6.475   1.478  0.7059  1.1757 -1.9076
18949SOL    HW260440   6.920   6.445   1.479  1.0910 -1.0623  0.5883
18950SOL     OW60441   1.280   9.871   7.912 -0.0249 -0.2461 -0.0783
18950SOL    HW160442   1.319   9.926   7.980  1.0061  0.1053 -0.9182
18950SOL    HW260443   1.316   9.784   7.928  1.2028  0.0815 -0.8653
18951SOL     OW60444   3.682   3.301   6.212  0.5860  0.3633  0.8524
18951SOL    HW160445   3.599   3.343   6.190 -0.2728 -1.4058  0.5219
18951SOL    HW260446   3.682   3.296   6.308  0.6244  0.9252  0.8870
18952SOL     OW60447   2.831   3.750   3.412 -0.2873 -0.5476 -0.4755
18952SOL    HW160448   2.753   3.697   3.430 -0.6673 -0.9501 -2.9295
18952SOL    HW260449   2.902   3.686   3.402 -0.7979 -0.7787 -3.7099
18953SOL     OW60450   6.434  10.321   3.604 -0.5131 -0.0336  0.6689
18953SOL    HW160451   6.459  10.232   3.579 -1.5331  0.0192 -0.6387
18953SOL    HW260452   6.347  10.333   3.566 -0.1369  1.7539  0.2946
18954SOL     OW60453   5.726   4.915   4.908 -0.1220 -0.2139 -0.1060
18954SOL    HW160454   5.747   4.916   4.815 -0.3627 -0.7506 -0.1693
18954SOL    HW260455   5.782   4.983   4.946 -0.5412  0.5048 -0.7489
18955SOL     OW60456   3.064  10.125   1.358  0.6582  0.2616 -0.0750
18955SOL    HW160457   3.091  10.194   1.298 -0.6446  1.1070  0.2691
18955SOL    HW260458   3.017  10.170   1.428 -1.2852 -1.0444 -0.4567
18956SOL     OW60459   8.790  10.293   1.387 -0.3294 -0.1212 -0.0484
18956SOL    HW160460   8.862  10.354   1.377  1.5344 -2.0203  0.9670
18956SOL    HW260461   8.721  10.327   1.330  1.4872  1.5781 -1.3381
18957SOL     OW60462   6.655   5.333   2.249  0.4305 -0.1379 -0.1015
18957SOL    HW160463   6.584   5.289   2.203  1.2626 -2.7727  0.9388
18957SOL    HW260464   6.681   5.405   2.191 -0.7280 -1.2896 -2.1340
18958SOL     OW60465   9.905   8.274   0.416 -0.1204  0.2611  0.1410
18958SOL    HW160466   9.888   8.267   0.322  0.1419  0.8639  0.0452
18958SOL    HW260467   9.825   8.243   0.457 -0.3262  0.2213 -0.2804
18959SOL     OW60468  10.083   6.902   5.948  0.2134  0.4087  0.4371
18959SOL    HW160469  10.061   6.901   6.041  0.3317  0.9795  0.4724
18959SOL    HW260470  10.178   6.912   5.947  0.2988 -0.3732  0.2634
18960SOL     OW60471   7.780   7.928   1.807 -0.1511  0.0927  0.2468
18960SOL    HW160472   7.831   7.849   1.821  0.0863  0.6099  2.8921
18960SOL    HW260473   7.835   7.984   1.753  0.7083 -0.6076  0.3791
18961SOL     OW60474   9.560   3.381   4.367  0.1948 -0.0667 -0.2243
18961SOL    HW160475   9.553   3.473   4.391 -0.0732 -0.3610  0.9039
18961SOL    HW260476   9.514   3.374   4.283  1.1349  1.0042 -0.8616
18962SOL     OW60477   2.677   7.132   4.044 -0.3455 -0.0972  0.1703
18962SOL    HW160478   2.695   7.064   3.979 -0.5994  0.8285 -0.9187
18962SOL    HW260479   2.763   7.161   4.073 -0.1882  0.1903 -0.5470
18963SOL     OW60480   7.025   8.726   5.194  0.1408 -0.6628 -0.5051
18963SOL    HW160481   7.008   8.644   5.242  0.8997 -0.9133 -0.6529
18963SOL    HW260482   6.946   8.778   5.208  0.2420 -0.8162  0.8341
18964SOL     OW60483   5.937  10.845   0.829  0.0374  0.0272 -0.0103
18964SOL    HW160484   5.965  10.833   0.919  0.9646  1.5672 -0.0641
18964SOL    HW260485   5.855  10.895   0.836  0.9332  1.5610 -0.0270
18965SOL     OW60486   6.001  10.226   8.619  0.4048 -0.6922 -0.2559
18965SOL    HW160487   5.974  10.134   8.620  0.7885 -0.8262  1.4029
18965SOL    HW260488   6.027  10.244   8.710  2.5312  0.3972 -1.0008
18966SOL     OW60489   8.310   6.499   7.054 -0.6355  0.5286 -0.4084
18966SOL    HW160490   8.315   6.500   7.149  1.4149 -1.7956 -0.3884
18966SOL    HW260491   8.218   6.487   7.034 -0.8169 -1.6524  1.4063
18967SOL     OW60492   9.345   4.883   8.953 -0.2630 -0.3680  0.1041
18967SOL    HW160493   9.397   4.916   8.880  0.0413  0.4508  0.6729
18967SOL    HW260494   9.293   4.812   8.916 -1.1288  0.8997 -1.2429
18968SOL     OW60495   7.654  10.820   4.118 -0.3289 -0.1137  0.6943
18968SOL    HW160496   7.723  10.884   4.099  0.2804 -0.2290  2.3174
18968SOL    HW260497   7.618  10.797   4.033  1.8435 -0.2777 -0.2479
18969SOL     OW60498   9.311   3.316   3.840 -0.9131  0.0461  0.2340
18969SOL    HW160499   9.328   3.224   3.822 -0.9799  0.2722 -1.0841
18969SOL    HW260500   9.360   3.363   3.773 -0.6484  0.9941  1.0589
18970SOL     OW60501   8.580   5.857   8.953 -0.0834  0.1781 -0.2841
18970SOL    HW160502   8.563   5.802   8.877 -1.9533 -1.4624  1.2190
18970SOL    HW260503   8.495   5.896   8.975  0.5748  1.2251  0.5288
18971SOL     OW60504  10.567   6.159   3.533 -0.2446 -0.1048  0.0370
18971SOL    HW160505  10.602   6.185   3.448  0.7372 -1.3452  0.0301
18971SOL    HW260506  10.534   6.241   3.571 -1.1938  0.3710 -1.7345
18972SOL     OW60507   4.969   1.045   5.169  0.0295  0.1673  0.2092
18972SOL    HW160508   5.063   1.063   5.169 -0.0603  0.8039 -1.2798
18972SOL    HW260509   4.931   1.118   5.120 -1.3889  0.5194  1.7313
18973SOL     OW60510  10.526   0.284   6.998 -0.3226  0.5986 -0.4280
18973SOL    HW160511  10.446   0.334   7.010 -1.1065 -0.6869 -0.1916
18973SOL    HW260512  10.542   0.286   6.903 -1.1148  0.1374 -0.5747
18974SOL     OW60513  10.474  10.589   9.698 -0.3089  0.0816 -0.6420
18974SOL    HW160514  10.486  10.635   9.781 -0.9527 -1.4398  0.3491
18974SOL    HW260515  10.557  10.600   9.652  0.3453  0.3256  0.5463
18975SOL     OW60516   4.922  10.598   0.713 -0.0319 -0.7372  0.0556
18975SOL    HW160517   4.848  10.614   0.772  0.6642 -1.2975  1.1008
18975SOL    HW260518   4.899  10.518   0.666 -0.2390 -0.7285  0.1419
18976SOL     OW60519   0.368   9.606   2.943  0.2257  0.1996  0.1529
18976SOL    HW160520   0.417   9.634   3.020  2.1489  1.1730 -1.3230
18976SOL    HW260521   0.293   9.666   2.939 -0.5313 -0.5644  1.8092
18977SOL     OW60522   4.025   2.235   0.807 -0.0521  0.2465  0.2724
18977SOL    HW160523   4.092   2.199   0.866  0.1514  1.1734  0.6201
18977SOL    HW260524   4.069   2.243   0.723 -0.1018 -0.3167  0.1883
18978SOL     OW60525   0.438   4.254   1.470  0.4394 -0.6696 -0.0242
18978SOL    HW160526   0.425   4.277   1.378 -0.3863 -1.9499 -0.2499
18978SOL    HW260527   0.461   4.162   1.469 -1.2757 -1.1640  1.1308
18979SOL     OW60528   5.696   5.089   0.130 -0.1775 -0.0378 -0.1942
18979SOL    HW160529   5.769   5.097   0.191 -0.5532 -1.8083  0.5271
18979SOL    HW260530   5.627   5.142   0.170 -0.0347 -0.2251  0.3128
18980SOL     OW60531   9.037   3.499   1.059  0.6176 -0.7639 -0.0983
18980SOL    HW160532   9.058   3.518   1.150  0.3564 -0.2256 -0.1477
18980SOL    HW260533   9.051   3.404   1.051 -0.2783 -0.9976  0.7595
18981SOL     OW60534  10.784   4.875   1.777 -0.2183 -0.1595  0.1225
18981SOL    HW160535  10.716   4.916   1.831 -0.4110 -2.0849  1.4283
18981SOL    HW260536  10.847   4.840   1.840  1.5903  0.8518 -1.0425
18982SOL     OW60537   8.649   5.495   4.899 -0.2959  0.3594  0.2399
18982SOL    HW160538   8.649   5.505   4.994 -0.2274 -0.2430  0.3091
18982SOL    HW260539   8.566   5.533   4.871 -1.3818 -1.4950  0.7832
18983SOL     OW60540   6.244  11.063  10.692  0.8959 -0.5369 -0.0502
18983SOL    HW160541   6.154  11.088  10.713  0.8520 -0.1271 -0.6876
18983SOL    HW260542   6.259  11.100  10.605  2.2270  0.8294  0.7150
18984SOL     OW60543   9.606   7.646   8.603 -0.4621 -0.4862  0.2069
18984SOL    HW160544   9.698   7.672   8.611  0.1205 -1.9456 -1.1878
18984SOL    HW260545   9.568   7.665   8.689  0.8495  1.1457  0.4737
18985SOL     OW60546   6.236  10.058   5.445  0.3604  0.2996 -0.3221
18985SOL    HW160547   6.299  10.100   5.386  1.4529  2.8405  2.3708
18985SOL    HW260548   6.151  10.095   5.419  0.7635  1.0782 -0.5721
18986SOL     OW60549   0.635   4.360   5.444 -0.0659 -0.7544 -0.2618
18986SOL    HW160550   0.589   4.431   5.399  0.0914 -1.0474 -0.8899
18986SOL    HW260551   0.713   4.345   5.391 -0.3605 -1.7475 -0.4178
18987SOL     OW60552   9.260  10.279   5.133  0.0758  0.0204 -0.5846
18987SOL    HW160553   9.350  10.295   5.106  0.3731  1.8056  1.2256
18987SOL    HW260554   9.267  10.217   5.206 -0.1685 -0.0532 -0.6244
18988SOL     OW60555  10.470   4.929   9.191  0.0569  0.0326 -0.2892
18988SOL    HW160556  10.529   4.883   9.133 -0.7072  0.6642 -1.6219
18988SOL    HW260557  10.447   5.009   9.144 -0.0014  0.9501  1.2095
18989SOL     OW60558   6.553   8.913   4.180 -0.3801 -0.0318  0.6695
18989SOL    HW160559   6.513   8.929   4.095 -0.4592 -1.5558  0.4067
18989SOL    HW260560   6.641   8.950   4.173 -0.3644 -0.2097 -0.0853
18990SOL     OW60561   3.919   6.721   6.863 -0.2772  0.4357  0.2372
18990SOL    HW160562   3.840   6.722   6.917  0.8269  0.6553  1.8999
18990SOL    HW260563   3.924   6.810   6.826 -0.7700  0.4297  0.1434
18991SOL     OW60564  10.323   2.361   9.935  0.7933 -0.5200  0.0493
18991SOL    HW160565  10.326   2.267   9.916  0.2069 -0.5087 -0.1257
18991SOL    HW260566  10.377   2.401   9.868 -0.5963 -0.5569 -1.1439
18992SOL     OW60567   4.359   9.899  10.280 -0.1604 -0.0833 -0.4067
18992SOL    HW160568   4.290   9.900  10.214  0.3726 -1.0651 -1.0018
18992SOL    HW260569   4.377   9.806  10.295  3.0334  0.0635 -2.4240
18993SOL     OW60570   9.390   6.737   9.317 -0.0598  0.2639 -0.7301
18993SOL    HW160571   9.352   6.658   9.278  0.2904 -0.5695  0.5501
18993SOL    HW260572   9.376   6.726   9.411 -0.1161  1.8047 -0.5302
18994SOL     OW60573   4.662   9.260   3.134  0.0981 -0.2512 -0.2092
18994SOL    HW160574   4.749   9.295   3.155  0.5929 -0.5097 -1.6935
18994SOL    HW260575   4.601   9.315   3.183  1.0477  0.5211  0.1418
18995SOL     OW60576   2.338   7.634  10.924 -0.0114 -0.2398  0.5803
18995SOL    HW160577   2.273   7.636  10.854 -0.5759 -0.6534  1.0843
18995SOL    HW260578   2.327   7.548  10.965 -0.0832  0.2004  1.5289
18996SOL     OW60579   2.521   8.579   8.141  0.3004  0.0730  0.2299
18996SOL    HW160580   2.553   8.657   8.186  0.1367  1.3790 -1.8336
18996SOL    HW260581   2.598   8.542   8.099  0.5458 -1.4255  1.8456
18997SOL     OW60582   4.254   5.661   4.951 -0.4346  0.3204  0.1670
18997SOL    HW160583   4.293   5.723   5.012 -0.0042 -0.0332  0.2590
18997SOL    HW260584   4.161   5.658   4.976 -0.4191  0.7727  0.2864
18998SOL     OW60585   4.921   8.774   5.931 -0.0431  0.5224 -0.2767
18998SOL    HW160586   4.867   8.779   6.010  0.5131 -0.5157  0.1871
18998SOL    HW260587   4.902   8.688   5.893 -0.0383  0.8662 -1.0911
18999SOL     OW60588   3.420   6.970   0.680 -0.1930  0.2580 -0.0216
18999SOL    HW160589   3.399   7.027   0.606 -0.5491  2.4365  1.6648
18999SOL    HW260590   3.511   6.992   0.703  0.7787 -2.1057 -1.1771
19000SOL     OW60591   5.505   1.900   4.939  0.4040 -0.1792  0.5947
19000SOL    HW160592   5.415   1.915   4.909  0.8883 -1.5694 -1.7918
19000SOL    HW260593   5.498   1.827   5.000 -0.1189  0.0048  0.7667
19001SOL     OW60594  10.061   4.220   7.243 -0.5257 -0.1426 -0.0829
19001SOL    HW160595  10.033   4.158   7.310 -0.2117 -0.0135  0.1686
19001SOL    HW260596   9.980   4.264   7.216 -0.5422  0.3993  0.8068
19002SOL     OW60597   6.803   8.709   0.999 -0.0995 -0.1686  0.2824
19002SOL    HW160598   6.879   8.756   1.034 -1.3320  1.0242  1.5054
19002SOL    HW260599   6.839   8.629   0.962  1.9640  1.1281 -0.7415
19003SOL     OW60600   0.099   6.928   7.470 -0.1624 -0.0770  0.1894
19003SOL    HW160601   0.067   6.952   7.383 -0.2542 -0.7141  0.0370
19003SOL    HW260602   0.106   7.011   7.518 -0.4482  0.2395 -0.3110
19004SOL     OW60603  10.850   6.919   2.172 -0.0157  0.0509 -0.3662
19004SOL    HW160604  10.843   6.967   2.255 -0.8940 -0.9237  0.1346
19004SOL    HW260605  10.775   6.860   2.172 -1.3305  1.5566 -2.8601
19005SOL     OW60606   4.210   7.530   3.571  0.7469  0.7563  0.2074
19005SOL    HW160607   4.168   7.477   3.639  0.3588 -1.5776 -1.6940
19005SOL    HW260608   4.138   7.557   3.514  0.8531  4.0352  1.4699
19006SOL     OW60609   1.288   8.690   5.345  0.9666 -1.2096 -0.2165
19006SOL    HW160610   1.297   8.785   5.335 -0.2821 -1.0410  0.1992
19006SOL    HW260611   1.209   8.678   5.397  0.1040 -2.5300 -1.7501
19007SOL     OW60612   2.179   5.896   4.114  0.5098 -0.5288 -0.3992
19007SOL    HW160613   2.154   5.870   4.203 -0.6183  0.7658 -0.3192
19007SOL    HW260614   2.189   5.812   4.068 -0.2913 -1.1862  0.5652
19008SOL     OW60615   8.439   4.118   6.731 -0.3128  0.3209  0.3936
19008SOL    HW160616   8.433   4.191   6.793  0.7260  1.2798 -0.6034
19008SOL    HW260617   8.386   4.146   6.656  1.9373  1.1281 -0.9872
19009SOL     OW60618   6.170   4.665   9.247 -0.3816  0.3454  0.3322
19009SOL    HW160619   6.217   4.582   9.238 -0.4936  0.1824  1.1922
19009SOL    HW260620   6.238   4.732   9.238  0.0583  0.1088  1.6462
19010SOL     OW60621   2.398   7.698   4.751  0.0271 -0.2277 -0.8286
19010SOL    HW160622   2.338   7.629   4.724 -2.4525  2.2069 -1.9825
19010SOL    HW260623   2.393   7.698   4.847  0.1330 -1.6693 -0.8111
19011SOL     OW60624   5.294   4.859   3.560 -0.9025  0.8237 -0.2332
19011SOL    HW160625   5.257   4.807   3.488  0.7517 -0.5552 -0.1481
19011SOL    HW260626   5.368   4.904   3.521 -1.1634  1.6324  0.1733
19012SOL     OW60627   7.903   3.821   2.635 -0.1124 -0.0458  0.6066
19012SOL    HW160628   7.848   3.889   2.674  1.3509  0.1504  2.4443
19012SOL    HW260629   7.905   3.842   2.542  0.0145  2.2446  1.0731
19013SOL     OW60630  10.485  10.987   1.834  0.5970  0.2267  0.3977
19013SOL    HW160631  10.443  10.936   1.903  1.8903  0.1442  1.1590
19013SOL    HW260632  10.453  11.077   1.847 -0.6703 -0.1246 -0.1360
19014SOL     OW60633   7.776   9.364   3.150  0.0998 -0.0776 -0.1294
19014SOL    HW160634   7.854   9.327   3.110  0.2380  1.6403 -1.6005
19014SOL    HW260635   7.801   9.453   3.174 -0.7634 -0.2228  1.5157
19015SOL     OW60636   1.005  10.448  10.722  1.0660  0.5161 -0.0947
19015SOL    HW160637   1.009  10.438  10.817  2.4775  1.4146 -0.0306
19015SOL    HW260638   0.914  10.471  10.704  0.8569  0.6758  1.0611
19016SOL     OW60639   1.436   6.860   6.196  0.4978 -0.1997  0.4783
19016SOL    HW160640   1.422   6.863   6.101 -1.1399 -1.8293  0.5999
19016SOL    HW260641   1.373   6.924   6.231 -0.6679 -1.3287  0.5462
19017SOL     OW60642   7.751   0.744   8.854 -0.5993 -0.5113 -0.1599
19017SOL    HW160643   7.767   0.830   8.893  1.4189 -0.6819 -0.5061
19017SOL    HW260644   7.752   0.684   8.928 -0.2992 -0.4261 -0.0916
19018SOL     OW60645   3.782   5.160   5.549 -0.1593  0.2401  0.6111
19018SOL    HW160646   3.694   5.161   5.586 -0.3547  4.4724  0.5241
19018SOL    HW260647   3.771   5.192   5.459  1.3409 -0.5201  0.1214
19019SOL     OW60648   2.655   3.772   2.266 -0.2655  0.2509  0.8265
19019SOL    HW160649   2.678   3.835   2.198 -0.1084 -0.3309  0.3319
19019SOL    HW260650   2.720   3.787   2.335  0.6989 -0.3646  0.0773
19020SOL     OW60651  11.098   5.916   9.916 -0.3269  0.3453  0.8428
19020SOL    HW160652  11.173   5.866   9.885 -0.6605 -0.1037  0.7581
19020SOL    HW260653  11.062   5.865   9.988 -0.7801  0.3601  0.6375
19021SOL     OW60654   2.125   3.819  10.634  0.6182 -0.4108 -0.2275
19021SOL    HW160655   2.169   3.785  10.556  0.7168 -2.2261  0.5521
19021SOL    HW260656   2.069   3.746  10.663 -1.4194  1.1248 -0.0541
19022SOL     OW60657   7.250  10.744   2.690 -0.2034 -0.0389  0.3199
19022SOL    HW160658   7.249  10.801   2.767  0.7513 -1.3335  1.3226
19022SOL    HW260659   7.317  10.678   2.709 -0.4485 -0.8118 -1.3170
19023SOL     OW60660   1.730   9.702   1.440 -0.4887  0.1126 -0.5789
19023SOL    HW160661   1.782   9.623   1.456 -0.9382  0.0904  0.8913
19023SOL    HW260662   1.778   9.748   1.371 -2.2461 -3.2855 -4.5449
19024SOL     OW60663   5.770  10.479   7.202  0.0770 -0.3944  0.6858
19024SOL    HW160664   5.696  10.529   7.235 -0.1069  0.2653 -0.6501
19024SOL    HW260665   5.816  10.449   7.280 -0.8771  0.2718  1.5231
19025SOL     OW60666   9.581   1.957   9.889 -0.1079 -0.0604  0.3533
19025SOL    HW160667   9.554   1.885   9.945 -2.1180  0.2274 -0.1708
19025SOL    HW260668   9.515   1.960   9.820 -0.0944  2.2834  0.3698
19026SOL     OW60669   3.472   8.827   4.889  0.0596  0.7415 -0.5995
19026SOL    HW160670   3.468   8.773   4.968  1.4836  0.7527 -0.5004
19026SOL    HW260671   3.380   8.838   4.863 -0.3471 -0.3844  0.2833
19027SOL     OW60672   3.547   4.006  10.853  0.1210  0.0440  0.1519
19027SOL    HW160673   3.602   4.081  10.831 -0.1271  0.2844  0.3415
19027SOL    HW260674   3.481   4.041  10.914 -1.1701  0.1202 -1.2318
19028SOL     OW60675   1.708   3.374   5.382  0.2032  0.0607 -0.3333
19028SOL    HW160676   1.710   3.428   5.460  2.3826  0.0906 -0.3533
19028SOL    HW260677   1.654   3.423   5.320 -0.0443  0.8992  0.5255
19029SOL     OW60678   7.876   1.246   3.524  0.0529  0.2220 -0.0551
19029SOL    HW160679   7.798   1.192   3.517  0.2160  0.0793 -0.9087
19029SOL    HW260680   7.865   1.313   3.455 -0.2551  1.4219  1.1178
19030SOL     OW60681   5.552   8.403   3.878 -0.1199 -0.1785 -0.3651
19030SOL    HW160682   5.580   8.316   3.849 -2.6274 -0.7716 -1.2407
19030SOL    HW260683   5.483   8.386   3.942  0.1374  1.1802  0.3048
19031SOL     OW60684   5.763   9.006   1.536 -0.2773  0.1738  0.5511
19031SOL    HW160685   5.677   9.030   1.571  0.4845  1.3475  1.7054
19031SOL    HW260686   5.801   9.089   1.507 -0.1472 -0.5396 -1.4518
19032SOL     OW60687   5.406   4.431   9.803 -0.5335 -0.0631 -0.3969
19032SOL    HW160688   5.346   4.472   9.741 -0.2855  0.2065 -0.4627
19032SOL    HW260689   5.473   4.498   9.819 -0.3382 -0.3031 -0.2048
19033SOL     OW60690   1.792   7.721   3.485 -0.0346 -0.1508 -0.1509
19033SOL    HW160691   1.751   7.806   3.473 -0.2467 -0.0392  1.1899
19033SOL    HW260692   1.870   7.724   3.430 -0.5512  0.5423 -0.8533
19034SOL     OW60693   7.039   4.140   5.278 -0.4332  0.3561 -0.1282
19034SOL    HW160694   7.044   4.096   5.363 -0.8606 -0.6282 -0.6038
19034SOL    HW260695   6.970   4.206   5.290  1.0988  1.8594  0.9818
19035SOL     OW60696  10.383   8.241   7.119  0.2824  0.1870  0.2035
19035SOL    HW160697  10.366   8.182   7.046  1.2083  0.4099 -0.2124
19035SOL    HW260698  10.319   8.311   7.109  0.2037  0.0563 -0.2192
19036SOL     OW60699   0.200   8.883  10.947  0.0699  0.2190  0.1957
19036SOL    HW160700   0.263   8.898  10.876 -1.1284  0.4962 -0.8406
19036SOL    HW260701   0.115   8.894  10.906 -0.6718 -0.3429  1.5345
19037SOL     OW60702   0.675   2.550  10.598  0.6340 -0.2042  0.4157
19037SOL    HW160703   0.692   2.510  10.684  0.4554 -0.9410  0.1105
19037SOL    HW260704   0.608   2.616  10.616 -0.7619 -1.6005  0.5531
19038SOL     OW60705   0.900   5.105  10.869  0.1294  0.5382  0.3139
19038SOL    HW160706   0.967   5.161  10.907  0.0945 -0.1498  1.4396
19038SOL    HW260707   0.817   5.143  10.897  0.0858  0.5464  0.1725
19039SOL     OW60708   2.913   7.033   5.191  0.4596  0.5206 -0.4598
19039SOL    HW160709   2.991   7.050   5.243  1.0070 -0.4411 -0.9357
19039SOL    HW260710   2.841   7.064   5.245  1.0251 -0.2398  0.7894
19040SOL     OW60711   3.864   9.166   9.824  0.0762  0.2531 -0.3648
19040SOL    HW160712   3.890   9.201   9.909  2.9652 -0.6659 -0.7827
19040SOL    HW260713   3.794   9.104   9.844  1.9110 -1.3026  1.6269
19041SOL     OW60714   7.014   4.462   6.324 -0.9599 -0.1682 -0.3634
19041SOL    HW160715   6.999   4.529   6.391 -0.6584 -0.6043  0.1462
19041SOL    HW260716   6.958   4.389   6.349 -0.8901 -0.3148 -0.6232
19042SOL     OW60717   7.301   4.309   3.338 -0.0375  0.2891 -0.1029
19042SOL    HW160718   7.237   4.323   3.268 -1.4555 -1.9294  0.6399
19042SOL    HW260719   7.267   4.361   3.411  1.4439  2.6059 -0.9708
19043SOL     OW60720   0.912   0.370   4.082 -0.3511  0.2578 -0.2993
19043SOL    HW160721   0.923   0.275   4.080 -0.8323  0.2142 -1.1548
19043SOL    HW260722   0.832   0.383   4.132  0.5333  0.3128  1.1834
19044SOL     OW60723  10.598  10.781   4.968 -0.2452  0.0891 -0.4129
19044SOL    HW160724  10.606  10.868   5.007  0.8651 -0.9190  1.7760
19044SOL    HW260725  10.516  10.784   4.918 -2.2527  1.3013  2.6702
19045SOL     OW60726   2.759   5.031  10.941  0.1617  0.6276  0.1689
19045SOL    HW160727   2.748   4.940  10.915 -1.4576  0.5390  1.0394
19045SOL    HW260728   2.798   5.027  11.029  0.1338  0.7746  0.1892
19046SOL     OW60729   1.790   2.260   5.414 -0.4087  0.6369  0.3695
19046SOL    HW160730   1.838   2.310   5.349 -0.2400  1.0087  0.7716
19046SOL    HW260731   1.789   2.171   5.380  1.1947  0.4566  0.6699
19047SOL     OW60732  11.037   0.714   0.722  0.1485 -0.1148  0.9891
19047SOL    HW160733  11.117   0.703   0.669 -0.6833  0.1944 -0.3818
19047SOL    HW260734  11.040   0.805   0.751 -0.6874  0.5329 -0.8038
19048SOL     OW60735   8.215   4.872   6.607  0.4706 -0.1203 -0.0703
19048SOL    HW160736   8.130   4.880   6.651  0.3174  0.4950 -0.4685
19048SOL    HW260737   8.259   4.800   6.653  0.3249  0.5150  1.0891
19049SOL     OW60738   8.342   5.664   2.806  0.5807 -0.3323  0.0075
19049SOL    HW160739   8.433   5.650   2.778  1.8261  1.3439  2.7766
19049SOL    HW260740   8.336   5.620   2.890 -1.4165 -0.9194 -0.3949
19050SOL     OW60741   6.906   3.716   7.566  0.7196  0.4510 -0.2199
19050SOL    HW160742   6.919   3.763   7.648  0.0811  0.7575 -0.2926
19050SOL    HW260743   6.846   3.645   7.588  2.5483 -1.0676  0.1504
19051SOL     OW60744   0.307   4.455  10.147 -0.1198  0.8389 -0.0657
19051SOL    HW160745   0.347   4.378  10.188  0.7387  1.5534  0.4866
19051SOL    HW260746   0.359   4.469  10.068  1.3649  2.2668  1.0791
19052SOL     OW60747   9.524   8.484   0.050  0.0079  0.0140  0.7140
19052SOL    HW160748   9.468   8.547   0.094 -0.9025  0.6571 -1.2424
19052SOL    HW260749   9.526   8.513  -0.041  0.8912 -1.8672  0.0802
19053SOL     OW60750   1.463   5.133   2.149  0.7607  0.1867  0.7020
19053SOL    HW160751   1.526   5.064   2.171  1.0428  0.2252  0.0154
19053SOL    HW260752   1.432   5.111   2.062 -0.7408 -0.2407  1.3086
19054SOL     OW60753   5.062   7.111   3.520 -0.7421 -0.4036  0.4342
19054SOL    HW160754   4.978   7.141   3.557  1.2042  4.6456  1.5372
19054SOL    HW260755   5.111   7.080   3.596 -0.4165 -0.0555  0.3652
19055SOL     OW60756   8.150   0.883   5.093 -0.4400 -0.0486  0.4317
19055SOL    HW160757   8.179   0.948   5.029  0.0898 -1.8650 -1.2658
19055SOL    HW260758   8.230   0.835   5.116 -1.1764 -1.6189 -0.1684
19056SOL     OW60759   7.668   1.076  10.976  0.2121 -0.0960  0.0214
19056SOL    HW160760   7.587   1.090  10.927 -1.4341 -1.1306  2.2637
19056SOL    HW260761   7.669   1.148  11.040 -0.2485 -1.3958  1.5544
19057SOL     OW60762   7.453   0.787   8.777 -0.0585  0.2280 -0.4534
19057SOL    HW160763   7.461   0.880   8.798  2.5199  0.1248 -0.6719
19057SOL    HW260764   7.479   0.742   8.857  0.5045 -0.2567 -0.8970
19058SOL     OW60765   3.667   3.022   7.324 -0.6823 -0.0191  1.0730
19058SOL    HW160766   3.638   3.028   7.415 -2.1124  1.0247  0.5883
19058SOL    HW260767   3.604   2.963   7.283 -0.0451 -0.4842  0.7469
19059SOL     OW60768   7.580   6.691   0.827  0.0340  0.5187 -0.5126
19059SOL    HW160769   7.589   6.614   0.770 -0.6342  0.9268 -1.1937
19059SOL    HW260770   7.536   6.756   0.772 -1.7176  0.5295  0.8032
19060SOL     OW60771   3.104   6.655   6.369  0.5329  0.4692 -0.1246
19060SOL    HW160772   3.035   6.723   6.369  0.2913  0.2265 -0.3025
19060SOL    HW260773   3.103   6.621   6.459  0.7291  0.7755 -0.0048
19061SOL     OW60774   6.148   6.092   2.366 -0.2766  0.3521  0.4958
19061SOL    HW160775   6.160   6.020   2.429  1.7420  1.1030  1.0223
19061SOL    HW260776   6.064   6.072   2.324 -0.1236 -1.9256  1.1246
19062SOL     OW60777   9.321   4.378   4.006 -0.1656  0.2943 -0.4515
19062SOL    HW160778   9.404   4.379   3.959 -0.4518 -0.3226 -0.9828
19062SOL    HW260779   9.275   4.456   3.976  1.2460  2.1147  1.7735
19063SOL     OW60780   1.445   5.933   3.978 -0.0289 -0.0253 -0.3571
19063SOL    HW160781   1.438   5.993   3.904 -1.6650  1.0693  0.6235
19063SOL    HW260782   1.480   5.987   4.049 -0.8566 -0.4083  0.3566
19064SOL     OW60783  10.547   0.742   6.245 -0.0751 -0.5075 -0.1822
19064SOL    HW160784  10.545   0.764   6.152  0.6237  1.4532  0.2238
19064SOL    HW260785  10.624   0.685   6.254 -0.9346 -1.8269 -0.9985
19065SOL     OW60786  10.264   6.282   0.861  0.0915  0.6087  0.0130
19065SOL    HW160787  10.356   6.291   0.885 -0.1918  0.8684  1.0456
19065SOL    HW260788  10.254   6.334   0.781  1.2826 -1.0819 -1.3331
19066SOL     OW60789   9.401   6.937   3.180  0.4376 -0.0880 -0.3474
19066SOL    HW160790   9.493   6.942   3.154  0.4524 -1.3272 -0.5603
19066SOL    HW260791   9.395   6.859   3.235 -0.3877  0.2821  0.1172
19067SOL     OW60792   5.678   9.904   4.254  0.7522 -0.1006 -0.6426
19067SOL    HW160793   5.654   9.934   4.166  0.9788 -0.6715 -0.9102
19067SOL    HW260794   5.669   9.808   4.249 -0.3267 -0.0683  0.2901
19068SOL     OW60795   2.781   9.658   9.809 -0.3381  0.2180 -0.3344
19068SOL    HW160796   2.731   9.619   9.881  0.5623  0.9639  0.7202
19068SOL    HW260797   2.846   9.713   9.852 -1.1430  2.3980 -1.7663
19069SOL     OW60798   8.565   1.189   7.502  0.5643  0.2155  0.1147
19069SOL    HW160799   8.557   1.105   7.456 -1.0474 -0.1791  1.0378
19069SOL    HW260800   8.568   1.164   7.595 -1.3993  1.2127  0.4925
19070SOL     OW60801   8.915   5.754   6.336  0.1411  0.6530  0.5461
19070SOL    HW160802   8.962   5.699   6.400 -1.0995 -0.8698  0.2156
19070SOL    HW260803   8.844   5.794   6.386 -0.7519 -0.4381  0.2083
19071SOL     OW60804   4.939   5.394   1.901  0.0142 -0.7251  0.0775
19071SOL    HW160805   4.867   5.337   1.873 -1.0583 -0.6229  2.3923
19071SOL    HW260806   4.977   5.349   1.976  0.9195  0.3103  0.2568
19072SOL     OW60807   5.558   3.547   2.222  0.2264 -1.1798  0.4860
19072SOL    HW160808   5.471   3.539   2.182  1.0946  0.9424 -2.1266
19072SOL    HW260809   5.545   3.603   2.298 -0.5893 -0.0656 -0.4426
19073SOL     OW60810   9.021  10.694   7.204 -0.6342  0.5385  0.2456
19073SOL    HW160811   8.935  10.655   7.192  0.0504 -0.6146 -1.3525
19073SOL    HW260812   9.082  10.621   7.191  0.5815  1.0852  2.4867
19074SOL     OW60813   0.971   6.357   3.878  0.1615 -0.9333 -0.3013
19074SOL    HW160814   0.917   6.432   3.902  1.9079  0.5583 -0.7802
19074SOL    HW260815   0.926   6.317   3.804 -1.6875 -1.4419  1.0362
19075SOL     OW60816   3.448   7.235   2.440  0.6008 -0.3361  0.1777
19075SOL    HW160817   3.419   7.193   2.358  0.4512 -0.1417  0.1294
19075SOL    HW260818   3.501   7.309   2.411  2.6182 -1.6683  0.2679
19076SOL     OW60819   6.959   3.538   6.350 -0.3027  0.5352 -0.1722
19076SOL    HW160820   6.878   3.489   6.355 -1.3852  2.3291  1.4105
19076SOL    HW260821   6.989   3.545   6.441  1.3598  0.3493 -0.6704
19077SOL     OW60822   7.931   0.502   8.049  0.0098  0.0279  0.6990
19077SOL    HW160823   7.953   0.565   8.118 -0.2908  0.2529  0.5928
19077SOL    HW260824   7.868   0.549   7.994 -0.8722 -0.6529  1.0949
19078SOL     OW60825   3.739   1.558   7.712  0.8341  0.0862 -0.3105
19078SOL    HW160826   3.764   1.646   7.683 -1.5754  2.0068  2.7710
19078SOL    HW260827   3.644   1.557   7.705  0.8082 -2.3968 -0.3718
19079SOL     OW60828   6.749  10.613   9.544 -0.5121 -0.5328  0.3164
19079SOL    HW160829   6.707  10.611   9.630  1.3372  0.1411  1.2695
19079SOL    HW260830   6.833  10.656   9.558  0.5561 -1.8410 -1.5175
19080SOL     OW60831   3.161   6.273   1.114 -0.2972 -0.0824 -0.2677
19080SOL    HW160832   3.229   6.253   1.179 -1.4386 -0.1221  0.9713
19080SOL    HW260833   3.084   6.228   1.147 -0.8365 -0.3654 -1.8587
19081SOL     OW60834   1.948   9.860   4.147  0.1744  0.0368 -0.0861
19081SOL    HW160835   1.984   9.773   4.127 -0.4116 -0.9691  2.6888
19081SOL    HW260836   2.025   9.913   4.170  0.4132 -0.1821 -0.3699
19082SOL     OW60837   6.446   5.216  10.774 -0.0661 -0.5336  0.5300
19082SOL    HW160838   6.533   5.217  10.814 -0.2659 -0.8240  0.9832
19082SOL    HW260839   6.426   5.123  10.764  0.0797 -0.4626 -0.4763
19083SOL     OW60840   9.384   4.626   5.658  0.2018 -0.8107  0.0508
19083SOL    HW160841   9.463   4.598   5.703  1.2360 -0.6750 -1.5930
19083SOL    HW260842   9.404   4.615   5.565 -1.2514  0.4177 -0.4508
19084SOL     OW60843   6.927   4.715   3.113  0.3713  0.2948  0.6857
19084SOL    HW160844   6.916   4.623   3.137 -1.8827  0.1074 -0.7799
19084SOL    HW260845   6.931   4.715   3.018  0.3095  1.7267  0.6620
19085SOL     OW60846  10.955   7.584   8.688  0.0627  0.9577 -0.7456
19085SOL    HW160847  11.003   7.620   8.763 -0.0780 -1.6421  0.6988
19085SOL    HW260848  10.867   7.620   8.697 -0.3138 -0.2975  1.1472
19086SOL     OW60849   2.199   9.855   0.660  0.3748  0.2916 -0.3341
19086SOL    HW160850   2.292   9.877   0.662  0.8645 -1.4982 -1.0933
19086SOL    HW260851   2.191   9.783   0.724 -0.1360 -0.6636 -1.4467
19087SOL     OW60852   9.046   2.067   6.257 -0.1040 -0.5062 -0.0586
19087SOL    HW160853   9.125   2.095   6.210  1.0771 -3.4361 -0.0353
19087SOL    HW260854   9.013   2.146   6.298  2.3368  0.9903 -0.7881
19088SOL     OW60855   8.963   6.355   3.284 -0.5706  0.1676 -0.3320
19088SOL    HW160856   8.983   6.433   3.233 -2.2368  0.3769 -0.7116
19088SOL    HW260857   8.891   6.380   3.341  2.4218  0.5228  3.6795
19089SOL     OW60858   6.020   5.022   6.820 -0.2630 -0.6404  0.9791
19089SOL    HW160859   6.025   5.027   6.724 -0.2164  0.1376  1.0182
19089SOL    HW260860   5.935   4.981   6.837 -0.4573 -0.3914  0.6134
19090SOL     OW60861   2.563   2.716   7.046 -0.1490  0.1754  0.2904
19090SOL    HW160862   2.654   2.694   7.065 -0.3309  0.3134  1.3580
19090SOL    HW260863   2.559   2.811   7.052 -0.0589  0.3109 -1.2348
19091SOL     OW60864   1.590   4.714   7.723  0.2984 -0.1158  0.0401
19091SOL    HW160865   1.552   4.774   7.788 -0.8824  0.8615 -1.4739
19091SOL    HW260866   1.603   4.632   7.771  0.7281  0.9470  1.8448
19092SOL     OW60867   3.856   0.311   5.240  0.2982  0.4062 -0.3324
19092SOL    HW160868   3.946   0.312   5.208  0.8761 -1.4534  1.0781
19092SOL    HW260869   3.815   0.238   5.193  0.1489 -0.0851  0.5418
19093SOL     OW60870   0.382   2.526   9.215  0.6784 -0.0742 -0.1295
19093SOL    HW160871   0.475   2.549   9.214  0.7023 -0.0979  0.7688
19093SOL    HW260872   0.337   2.608   9.196  0.9140 -0.4732 -2.8579
19094SOL     OW60873   8.505   4.772   8.607  0.0676  0.0229  0.1194
19094SOL    HW160874   8.466   4.856   8.582  1.3455  0.2321 -1.3407
19094SOL    HW260875   8.568   4.754   8.538  1.6366 -0.9014  1.6986
19095SOL     OW60876   1.044   8.338   4.325 -0.3959  0.3856  0.3143
19095SOL    HW160877   1.127   8.355   4.369  0.0378 -1.4869  0.2748
19095SOL    HW260878   0.988   8.411   4.351  0.8696  1.0298  1.3213
19096SOL     OW60879   4.864   6.072   4.997 -0.1307 -0.2486 -0.4838
19096SOL    HW160880   4.949   6.114   5.011 -1.6422  2.0600  3.0644
19096SOL    HW260881   4.860   6.003   5.064 -0.3164 -1.7342 -1.9678
19097SOL     OW60882   4.675   1.504   6.799 -0.0075  0.8345 -0.3587
19097SOL    HW160883   4.603   1.560   6.769 -2.2523 -1.1331  0.9732
19097SOL    HW260884   4.673   1.429   6.740 -0.3165 -0.1081  0.8114
19098SOL     OW60885   1.474   4.753   2.859  0.0780 -0.4128  0.3853
19098SOL    HW160886   1.460   4.713   2.774  0.9409 -1.7784  0.8659
19098SOL    HW260887   1.530   4.828   2.842  1.3209 -1.4354 -0.1015
19099SOL     OW60888   0.150  10.756   9.850 -0.7561  0.0678  0.2921
19099SOL    HW160889   0.122  10.758   9.941  1.4513  0.9580  1.0072
19099SOL    HW260890   0.072  10.781   9.801 -1.7840  0.3296  1.9790
19100SOL     OW60891   9.869   3.058   3.803 -0.5930 -0.3672 -0.7631
19100SOL    HW160892   9.876   3.076   3.709  1.2479  1.0547 -0.4091
19100SOL    HW260893   9.793   3.109   3.831 -0.2306  0.4652 -1.2365
19101SOL     OW60894   5.137   5.100  10.397 -0.5755 -0.2441 -0.5996
19101SOL    HW160895   5.137   5.195  10.389  0.2518 -0.3448 -2.3691
19101SOL    HW260896   5.229   5.075  10.383 -0.7736 -1.2937 -0.1146
19102SOL     OW60897   0.044   2.972   0.187  0.1636  0.3593  0.0288
19102SOL    HW160898   0.048   2.919   0.266 -0.8049 -0.1105 -0.2152
19102SOL    HW260899  -0.024   2.930   0.134 -0.2415  1.5314 -0.4085
19103SOL     OW60900   3.656  10.779   2.684  0.7265  0.6211 -0.2530
19103SOL    HW160901   3.718  10.714   2.718 -1.6938 -1.9826 -0.3859
19103SOL    HW260902   3.670  10.857   2.738  4.0788  0.1936 -0.3541
19104SOL     OW60903   1.247   7.834   9.230 -0.2333  0.3330  0.3650
19104SOL    HW160904   1.250   7.759   9.170 -1.2834  0.2468  0.4003
19104SOL    HW260905   1.249   7.794   9.317  1.0365  0.4471  0.4071
19105SOL     OW60906   5.810   1.896  10.058  0.1172 -0.0553 -0.2853
19105SOL    HW160907   5.805   1.897   9.962 -0.4530 -0.7259 -0.2616
19105SOL    HW260908   5.720   1.885  10.087 -0.0162  2.2543  0.3859
19106SOL     OW60909   6.807   1.208   2.269  0.7941  0.3380 -0.1613
19106SOL    HW160910   6.774   1.208   2.358  1.2155 -0.0421  0.0014
19106SOL    HW260911   6.830   1.116   2.251  0.6953  0.4052 -0.6637
19107SOL     OW60912   3.716   6.780   5.997 -0.2232  0.1213  0.6769
19107SOL    HW160913   3.726   6.701   6.050  0.8234  0.1385  0.5354
19107SOL    HW260914   3.799   6.826   6.007 -0.5209  0.7984  0.1061
19108SOL     OW60915   7.103   3.581   9.968 -0.5364  0.2733  0.0073
19108SOL    HW160916   7.187   3.541   9.945 -1.3318 -0.7320 -1.2641
19108SOL    HW260917   7.074   3.533  10.046 -0.3742 -0.0112 -0.1054
19109SOL     OW60918   0.111  10.691   2.515 -0.2872  0.6490  0.5482
19109SOL    HW160919   0.065  10.733   2.587 -0.8848  1.3750 -0.2353
19109SOL    HW260920   0.042  10.658   2.458  0.1759 -0.6204  0.6927
19110SOL     OW60921   5.693   8.689  10.643  0.0696  0.0133 -0.1274
19110SOL    HW160922   5.663   8.630  10.711 -0.1220  0.7773  0.4636
19110SOL    HW260923   5.709   8.772  10.688 -3.3853  1.6174 -1.4764
19111SOL     OW60924   4.093   3.231   2.008  0.1329 -0.2553 -0.1205
19111SOL    HW160925   4.107   3.165   1.940  0.4233 -0.2205 -0.0980
19111SOL    HW260926   4.046   3.302   1.963 -1.9184 -1.2737  0.3118
19112SOL     OW60927   5.417   6.511   0.649 -0.3243  0.7042  0.0073
19112SOL    HW160928   5.461   6.593   0.625  2.3674 -0.5898  0.0607
19112SOL    HW260929   5.403   6.467   0.566 -0.6149  0.6843  0.0674
19113SOL     OW60930   4.663   6.305   0.488 -0.4857 -0.3722  0.6757
19113SOL    HW160931   4.722   6.230   0.486  1.5755  1.1802 -0.6674
19113SOL    HW260932   4.597   6.285   0.422  1.3632 -0.0878 -1.3748
19114SOL     OW60933   3.920   0.428   8.959 -0.0049  0.0240  0.3488
19114SOL    HW160934   3.920   0.412   9.053  0.4009 -0.3073  0.2959
19114SOL    HW260935   3.993   0.376   8.926  2.2054  2.8925  0.3289
19115SOL     OW60936   6.449   6.430   5.135 -0.2109  0.3658  0.1623
19115SOL    HW160937   6.385   6.360   5.145 -0.6632  0.6021 -0.9585
19115SOL    HW260938   6.469   6.457   5.225  0.2284 -1.4098  0.6301
19116SOL     OW60939   5.119   1.810   1.717 -0.4373 -0.4614  0.3023
19116SOL    HW160940   5.181   1.760   1.770  1.0707  1.8372  0.8480
19116SOL    HW260941   5.037   1.807   1.767 -0.2380 -1.8214  0.6030
19117SOL     OW60942   7.524   3.475  10.401 -0.2439 -0.3079 -0.2024
19117SOL    HW160943   7.504   3.567  10.414 -0.4033  0.0053 -2.2227
19117SOL    HW260944   7.441   3.436  10.373 -1.0330 -1.8578  3.6663
19118SOL     OW60945   1.634   2.301   3.196 -0.0377  0.4140  0.4635
19118SOL    HW160946   1.539   2.310   3.188  0.0103 -0.0201 -0.8785
19118SOL    HW260947   1.667   2.390   3.184 -0.1336  0.1721 -2.4392
19119SOL     OW60948   5.569   8.664  10.404  0.1451 -0.1513  0.3155
19119SOL    HW160949   5.475   8.667  10.419 -0.0214  2.7774 -0.6932
19119SOL    HW260950   5.608   8.685  10.489 -0.2142  0.4340  0.3431
19120SOL     OW60951   3.800   9.226   7.713  0.5812  0.1520 -0.0549
19120SOL    HW160952   3.791   9.187   7.626  0.1456 -0.9889  0.4815
19120SOL    HW260953   3.777   9.155   7.774 -0.5715  1.3375  0.9516
19121SOL     OW60954   2.830   1.637   5.820  0.1062  0.2061  0.0792
19121SOL    HW160955   2.923   1.657   5.832  0.5333 -1.2584 -0.5674
19121SOL    HW260956   2.790   1.657   5.905  0.9783  0.9975  0.3186
19122SOL     OW60957   8.770   7.022   9.682 -0.7320 -0.6210  0.1355
19122SOL    HW160958   8.728   7.011   9.768  0.7565 -1.5987  0.7957
19122SOL    HW260959   8.864   7.015   9.701 -0.3505 -0.4102 -1.5298
19123SOL     OW60960   2.186  11.087   5.363  0.2529 -0.0707  0.3454
19123SOL    HW160961   2.123  11.150   5.400  2.1313  0.3799  2.9891
19123SOL    HW260962   2.170  11.006   5.411  0.6000 -0.4471 -0.1653
19124SOL     OW60963   7.742   4.789   9.963 -0.1273 -0.5742 -0.2041
19124SOL    HW160964   7.775   4.699   9.952  0.0675 -0.6796  1.0811
19124SOL    HW260965   7.653   4.786   9.928  0.4676 -0.8165 -1.7842
19125SOL     OW60966   9.365  10.016   7.449  0.0383 -0.3173  0.3420
19125SOL    HW160967   9.387  10.006   7.541  0.7329 -2.6988 -0.0339
19125SOL    HW260968   9.405   9.941   7.406 -0.1772  0.7886 -1.9382
19126SOL     OW60969   7.469  10.364   9.494  0.7042 -0.5938 -0.0093
19126SOL    HW160970   7.501  10.309   9.566 -0.2295 -0.2238  0.7133
19126SOL    HW260971   7.482  10.454   9.526  0.6447 -0.4230 -0.4679
19127SOL     OW60972  10.330   0.458   2.852  0.1381  0.0939 -0.2849
19127SOL    HW160973  10.417   0.464   2.891  1.4444 -0.6020 -2.8425
19127SOL    HW260974  10.319   0.365   2.833 -1.5132  0.0700  0.6518
19128SOL     OW60975  10.981   8.026   8.019  0.6821 -0.4119 -0.2610
19128SOL    HW160976  10.968   7.939   8.055 -1.8577 -0.0345 -0.1001
19128SOL    HW260977  10.987   8.083   8.096 -1.7849  0.0077 -0.2827
19129SOL     OW60978   5.269   4.186   4.448 -0.5295 -0.3391 -0.0267
19129SOL    HW160979   5.305   4.271   4.424  0.0722 -0.7687 -0.6680
19129SOL    HW260980   5.330   4.151   4.513  1.4708 -1.9682 -2.5993
19130SOL     OW60981   2.502   0.810   0.479 -0.0686  0.0704  0.3440
19130SOL    HW160982   2.581   0.763   0.505 -0.9811 -1.3064  0.7661
19130SOL    HW260983   2.432   0.746   0.489 -1.4390  1.6293  1.2436
19131SOL     OW60984   4.250   0.382   2.293 -0.0568 -0.2486  0.0673
19131SOL    HW160985   4.230   0.304   2.346 -1.5047 -0.7983 -1.2097
19131SOL    HW260986   4.278   0.347   2.209  0.7068  0.6309 -0.0589
19132SOL     OW60987   6.771   8.740   3.715  0.1833 -0.3745 -0.1343
19132SOL    HW160988   6.814   8.668   3.669  0.1928  0.4033 -1.3907
19132SOL    HW260989   6.843   8.797   3.742  0.0852 -0.1109 -0.4228
19133SOL     OW60990   7.854   4.013   3.272  0.2060  0.1156 -0.2055
19133SOL    HW160991   7.790   3.993   3.204  0.2003  2.6141 -1.0184
19133SOL    HW260992   7.830   3.956   3.345 -1.8491 -0.2706 -1.1153
19134SOL     OW60993   6.746  10.989   9.032  0.3295 -0.3951 -0.1913
19134SOL    HW160994   6.736  11.056   8.965 -0.9189 -0.2352  0.1411
19134SOL    HW260995   6.662  10.944   9.035  1.2788 -2.3461 -0.7617
19135SOL     OW60996   4.032   1.555   9.329  0.3478 -0.0852  0.2232
19135SOL    HW160997   4.029   1.552   9.233 -0.3924 -0.1364  0.2415
19135SOL    HW260998   4.125   1.558   9.350  0.8268 -4.5193 -0.3784
19136SOL     OW60999  10.931  10.161   7.900  0.4159  0.0014  0.3733
19136SOL    HW161000  10.873  10.187   7.971  0.1013 -0.5748  0.3361
19136SOL    HW261001  10.935  10.237   7.842 -1.8452 -0.5850 -0.6381
19137SOL     OW61002   3.664  10.607   8.361  0.2062 -0.5709 -0.5291
19137SOL    HW161003   3.722  10.539   8.324  0.4363 -2.2690  2.6422
19137SOL    HW261004   3.718  10.686   8.361  0.4906 -0.6785 -2.7995
19138SOL     OW61005   3.769  10.529   1.440 -0.6807  0.0033 -0.3724
19138SOL    HW161006   3.804  10.495   1.358  1.1391  1.7835 -0.3950
19138SOL    HW261007   3.677  10.499   1.441 -0.4329 -1.0055 -2.4722
19139SOL     OW61008   5.946   7.073   7.078 -0.0551 -0.4461  0.0569
19139SOL    HW161009   5.862   7.038   7.108  1.0282 -1.6777  1.8422
19139SOL    HW261010   5.927   7.163   7.052 -1.7281 -0.3756  1.3726
19140SOL     OW61011   5.312   5.376   6.254  0.2195 -0.0942 -0.1344
19140SOL    HW161012   5.310   5.464   6.293 -2.6996 -0.6769  1.3244
19140SOL    HW261013   5.404   5.350   6.257  1.0273  2.5149  0.2522
19141SOL     OW61014   4.863   9.292   2.402  0.4680  0.2059  0.1565
19141SOL    HW161015   4.831   9.362   2.345 -0.7474 -0.8749 -0.5325
19141SOL    HW261016   4.807   9.297   2.479 -0.7266 -0.9920 -0.5849
19142SOL     OW61017   5.444  10.185   3.394  0.2635  0.0026 -0.2089
19142SOL    HW161018   5.458  10.162   3.485  1.3690 -0.7814 -0.5483
19142SOL    HW261019   5.377  10.124   3.363 -1.2622  1.2823  0.4510
19143SOL     OW61020   2.678   6.426   3.671  0.3995 -0.4167  0.2089
19143SOL    HW161021   2.713   6.462   3.753  0.2114 -1.2508  0.6604
19143SOL    HW261022   2.631   6.347   3.697 -1.3775  0.3605 -0.4355
19144SOL     OW61023   7.849   2.288   5.603 -0.0372 -0.5213 -0.2313
19144SOL    HW161024   7.753   2.288   5.610 -0.3027  0.2761 -2.7857
19144SOL    HW261025   7.868   2.363   5.547  2.0315 -1.1686 -0.4551
19145SOL     OW61026   3.386   6.165   9.326  0.4653  0.3917 -0.0788
19145SOL    HW161027   3.413   6.111   9.252 -1.3608  1.0762 -1.3164
19145SOL    HW261028   3.333   6.107   9.381  1.8768 -0.1340  0.7595
19146SOL     OW61029   0.739   8.419  10.967  0.7915  0.4652  0.3123
19146SOL    HW161030   0.781   8.466  10.895  1.2659  0.1111  0.3598
19146SOL    HW261031   0.660   8.382  10.928  1.0198  0.3163 -0.0120
19147SOL     OW61032  10.880   9.800   1.984 -0.4781 -0.5405  0.2905
19147SOL    HW161033  10.941   9.738   1.944 -0.9186 -0.8214  0.0625
19147SOL    HW261034  10.937   9.868   2.022 -0.0793  0.1989 -1.5533
19148SOL     OW61035   7.473   6.517   0.471  0.2020 -0.2524  0.2765
19148SOL    HW161036   7.395   6.569   0.490 -0.0938  0.1742 -1.8300
19148SOL    HW261037   7.443   6.426   0.472 -0.2494 -0.1130 -0.1548
19149SOL     OW61038   9.205   0.954   3.879 -0.5357  0.1677 -0.0585
19149SOL    HW161039   9.157   1.037   3.888 -0.2620  0.2673  0.5035
19149SOL    HW261040   9.136   0.888   3.871 -0.8025  0.6970 -3.4287
19150SOL     OW61041   1.364   9.674   9.669 -0.0019 -0.4044  0.7762
19150SOL    HW161042   1.296   9.607   9.678 -1.3000  0.9240  1.4626
19150SOL    HW261043   1.349   9.712   9.583 -0.5210  0.2493  1.1387
19151SOL     OW61044   7.177   6.385   3.922 -0.5676  0.2777 -0.3125
19151SOL    HW161045   7.149   6.400   3.831 -0.7663  0.4261 -0.2268
19151SOL    HW261046   7.228   6.463   3.945  0.1508 -0.1059 -0.5555
19152SOL     OW61047   7.260   3.846   8.055 -0.3287  0.0618  0.5904
19152SOL    HW161048   7.228   3.841   8.145 -1.5692 -1.9648  0.0955
19152SOL    HW261049   7.207   3.915   8.015 -1.0366 -0.2510  0.9622
19153SOL     OW61050   1.280   5.361   4.869  0.7992 -0.4363  0.5403
19153SOL    HW161051   1.192   5.393   4.847  0.7696  0.3357  1.6891
19153SOL    HW261052   1.264   5.292   4.934  0.9960 -0.9393  0.0524
19154SOL     OW61053   4.768   5.219   1.771  0.1741 -0.6107 -0.7293
19154SOL    HW161054   4.770   5.170   1.853 -3.3465 -1.3224 -0.9175
19154SOL    HW261055   4.722   5.162   1.710 -3.7287  2.4775 -1.1059
19155SOL     OW61056   0.992   4.533   8.989 -0.5187 -0.3003 -0.0843
19155SOL    HW161057   1.063   4.476   8.960 -1.0843 -3.0369  3.1886
19155SOL    HW261058   0.928   4.530   8.918  1.3908  0.0508 -1.9295
19156SOL     OW61059   3.975   8.164   2.834 -0.3492 -0.0969 -0.1639
19156SOL    HW161060   3.923   8.228   2.882  0.0811  0.7031 -0.7375
19156SOL    HW261061   3.944   8.170   2.744 -0.9983 -1.4298 -0.0494
19157SOL     OW61062   2.397   5.991   8.146 -0.3833  0.1402 -0.2866
19157SOL    HW161063   2.446   6.074   8.146  1.1123 -0.6328  2.0383
19157SOL    HW261064   2.330   6.003   8.213 -0.1600 -0.4985  0.0598
19158SOL     OW61065   7.352   0.858   5.188 -0.2381  0.3742  0.0368
19158SOL    HW161066   7.399   0.806   5.254 -1.7689 -0.7704  0.3041
19158SOL    HW261067   7.308   0.792   5.133  0.6080  1.3263 -1.8569
19159SOL     OW61068   6.817   4.542   9.458  0.1720 -0.0104  0.5066
19159SOL    HW161069   6.859   4.494   9.387 -0.2732 -1.2208  1.0331
19159SOL    HW261070   6.732   4.569   9.423  0.0983 -0.2967  0.4675
19160SOL     OW61071   9.357  10.309   3.736 -0.2161 -0.4104  0.1279
19160SOL    HW161072   9.337  10.379   3.799 -0.1456 -0.2966  0.0243
19160SOL    HW261073   9.296  10.239   3.759 -0.2891 -0.3150  0.2313
19161SOL     OW61074   8.121   5.750   7.373  0.5339  0.1989 -0.1379
19161SOL    HW161075   8.148   5.738   7.464 -0.9362  0.0884  0.3187
19161SOL    HW261076   8.149   5.669   7.329  1.5229  0.3821  0.1285
19162SOL     OW61077   5.176   4.605   5.081 -0.2443 -0.1240  0.4642
19162SOL    HW161078   5.153   4.674   5.144  2.3002 -0.8495  2.3722
19162SOL    HW261079   5.126   4.528   5.111 -1.6554  0.3572 -0.5465
19163SOL     OW61080   5.961   5.769   3.794  0.5983  0.2630 -0.4540
19163SOL    HW161081   5.916   5.836   3.742  0.7231  0.7682  0.0852
19163SOL    HW261082   5.931   5.686   3.756 -0.8524  0.5791 -0.0650
19164SOL     OW61083   1.059   4.548   3.716  0.4919 -0.2761 -0.1568
19164SOL    HW161084   1.100   4.560   3.802  1.3360  2.3642 -0.8272
19164SOL    HW261085   1.044   4.453   3.710  1.4103 -0.6781  2.4235
19165SOL     OW61086   3.312   9.050   6.775  1.0568 -0.0757 -0.2925
19165SOL    HW161087   3.281   9.128   6.728  0.6578 -0.1374 -0.1403
19165SOL    HW261088   3.372   9.085   6.841 -1.5119  0.4964  1.9166
19166SOL     OW61089   5.586   6.364   7.129  0.1233 -0.1890 -0.0778
19166SOL    HW161090   5.534   6.295   7.169 -2.2835  1.2993 -0.4359
19166SOL    HW261091   5.677   6.342   7.151 -0.6901 -2.3801  1.4174
19167SOL     OW61092   8.280   0.122   8.079  0.0123  0.3200 -0.3774
19167SOL    HW161093   8.264   0.215   8.093 -0.4240  0.0772  0.8544
19167SOL    HW261094   8.195   0.086   8.055 -0.5358 -0.2504  2.1172
19168SOL     OW61095   0.598   7.136   5.037 -0.1413 -0.1269 -0.2861
19168SOL    HW161096   0.664   7.191   5.079 -2.5237  1.3165  1.9294
19168SOL    HW261097   0.595   7.057   5.091  0.0829 -0.3617 -0.6231
19169SOL     OW61098   1.841   5.342   2.747  0.5303 -0.0698  0.1389
19169SOL    HW161099   1.816   5.286   2.673  0.7913 -0.5539  0.4105
19169SOL    HW261100   1.873   5.423   2.707 -2.1796  0.9294 -0.2318
19170SOL     OW61101   0.186   0.243   1.638 -0.9226  0.5021  0.0361
19170SOL    HW161102   0.135   0.249   1.718 -1.3599 -1.7656 -0.0070
19170SOL    HW261103   0.121   0.240   1.568 -0.7567 -1.3842 -0.0859
19171SOL     OW61104   8.478   1.642   1.339  0.4147 -0.4028 -0.4853
19171SOL    HW161105   8.551   1.618   1.282  0.8488  0.1237 -0.1606
19171SOL    HW261106   8.492   1.591   1.419 -0.4860 -1.5518 -1.0127
19172SOL     OW61107   2.216   6.900   7.066  0.4335  0.0141  0.3745
19172SOL    HW161108   2.304   6.862   7.070 -0.3199 -1.9093 -0.1539
19172SOL    HW261109   2.190   6.890   6.974 -0.8878 -0.7864  0.8116
19173SOL     OW61110   7.748   1.475   4.120 -0.2233 -0.1727 -0.3306
19173SOL    HW161111   7.683   1.459   4.051  0.6340 -2.0207 -0.7891
19173SOL    HW261112   7.818   1.412   4.102  1.4279  1.3161  0.5138
19174SOL     OW61113   8.681   4.369   3.310  0.2462  0.0033  0.2565
19174SOL    HW161114   8.646   4.280   3.313  1.5885 -0.5527  0.3372
19174SOL    HW261115   8.621   4.417   3.252 -0.9823 -0.7108  0.9057
19175SOL     OW61116   8.127   5.334   6.944 -0.0279  0.5989  0.6067
19175SOL    HW161117   8.093   5.255   6.903  0.1117  0.7212  0.2578
19175SOL    HW261118   8.052   5.370   6.992 -0.2537  0.5862  0.2688
19176SOL     OW61119   9.986   6.810   4.124  0.0491  0.1766 -0.0926
19176SOL    HW161120   9.921   6.872   4.158 -1.0743 -0.5825 -0.7967
19176SOL    HW261121  10.041   6.788   4.199 -1.5264 -0.4062  0.9270
19177SOL     OW61122   0.857   9.370  10.388 -0.4783  0.5104 -0.5097
19177SOL    HW161123   0.831   9.429  10.317  0.5601  0.6547 -0.7849
19177SOL    HW261124   0.942   9.404  10.417 -1.0520  0.6825  1.0648
19178SOL     OW61125   7.326   6.714   6.808 -0.5603 -0.2407 -0.6251
19178SOL    HW161126   7.276   6.680   6.735 -2.6444 -0.7501  0.9621
19178SOL    HW261127   7.283   6.796   6.831  0.3259  0.1316 -0.2202
19179SOL     OW61128   7.658  10.101   4.505  0.3060  0.2795 -0.1276
19179SOL    HW161129   7.680  10.011   4.480 -0.9337  0.3860 -1.7727
19179SOL    HW261130   7.741  10.148   4.496  1.1488 -0.7903  1.4688
19180SOL     OW61131   8.900   1.866   2.987  0.3572  0.2029  0.4313
19180SOL    HW161132   8.987   1.903   2.969  2.4974 -3.4076  2.1466
19180SOL    HW261133   8.888   1.800   2.919 -0.6156  0.0231  0.7673
19181SOL     OW61134   3.820   0.035   2.341  0.1177 -0.1476  0.2599
19181SOL    HW161135   3.833   0.047   2.435 -0.6809  0.2702  0.3259
19181SOL    HW261136   3.858  -0.050   2.322  1.2179  0.2184  0.7675
19182SOL     OW61137   4.764   7.599   7.476 -0.1376 -0.3423 -0.4904
19182SOL    HW161138   4.857   7.611   7.495 -0.5583  1.0394  0.9397
19182SOL    HW261139   4.719   7.652   7.542 -1.9678 -1.5944 -0.6560
19183SOL     OW61140   3.532   1.355  10.740 -0.1514 -0.4919  0.0557
19183SOL    HW161141   3.485   1.283  10.698 -0.4811 -0.4094  0.2799
19183SOL    HW261142   3.465   1.424  10.752  0.2634  0.0315 -0.5809
19184SOL     OW61143   3.958   3.747   4.432 -0.2002 -0.3313 -0.1798
19184SOL    HW161144   3.893   3.817   4.429  0.0618 -0.0982 -2.2853
19184SOL    HW261145   3.924   3.680   4.374  0.5380 -1.0455  0.1928
19185SOL     OW61146   9.021   7.586   7.780  0.4023  0.8862  0.4349
19185SOL    HW161147   9.097   7.530   7.765 -0.4440  0.2875 -2.0783
19185SOL    HW261148   8.959   7.531   7.829  0.2731  0.1787 -0.4919
19186SOL     OW61149   4.929   0.912   7.142  0.0450  0.2575 -0.2629
19186SOL    HW161150   4.957   0.963   7.218 -0.2831  1.6619 -1.0535
19186SOL    HW261151   5.003   0.855   7.122  0.4978  0.5683  0.5153
19187SOL     OW61152   5.221   4.453   7.206  0.2447 -0.0259 -0.2449
19187SOL    HW161153   5.197   4.363   7.229  2.0228 -0.5684 -0.3403
19187SOL    HW261154   5.312   4.447   7.178  0.7265  1.9643  0.7224
19188SOL     OW61155   0.237   5.810   6.963  0.2970  0.2410  0.0546
19188SOL    HW161156   0.148   5.778   6.974  0.0259  0.6567 -0.8174
19188SOL    HW261157   0.286   5.736   6.927  0.0968  0.2759 -0.2886
19189SOL     OW61158   8.693   2.161   5.718 -0.2191  0.1868 -0.1140
19189SOL    HW161159   8.743   2.079   5.713  0.3259  0.5500 -0.8870
19189SOL    HW261160   8.671   2.170   5.811  1.4585  0.1727  0.3291
19190SOL     OW61161   1.896   4.668   0.553 -0.5577  0.2154 -0.5853
19190SOL    HW161162   1.872   4.577   0.568 -1.6396  0.4157 -0.9759
19190SOL    HW261163   1.867   4.686   0.464  1.7176  0.3080 -1.3790
19191SOL     OW61164   1.478   3.885   5.028  0.1507  0.2828  0.2754
19191SOL    HW161165   1.430   3.802   5.019 -0.8585  0.9014 -0.3102
19191SOL    HW261166   1.444   3.940   4.957  2.2845  0.5177 -0.6508
19192SOL     OW61167   3.317   1.598   5.609  0.0480 -0.3276  0.2089
19192SOL    HW161168   3.242   1.601   5.549 -0.7528 -1.8381  1.0662
19192SOL    HW261169   3.364   1.518   5.584 -0.2796 -0.9534  1.5195
19193SOL     OW61170   2.172   1.875   8.915  0.1084 -0.6687  0.2757
19193SOL    HW161171   2.102   1.833   8.965  0.3833 -1.4847 -0.0138
19193SOL    HW261172   2.247   1.877   8.975 -0.2036  0.3747  0.6510
19194SOL     OW61173   7.730   9.888   3.619 -0.2206  0.1419  0.4365
19194SOL    HW161174   7.652   9.928   3.656  0.2052  0.0719  1.4622
19194SOL    HW261175   7.766   9.836   3.691 -0.5379 -1.7814 -0.7226
19195SOL     OW61176   5.282   7.584  10.261 -0.2908  0.0462  1.0735
19195SOL    HW161177   5.204   7.632  10.288 -0.0673  0.9730  0.1193
19195SOL    HW261178   5.319   7.635  10.189 -0.6525 -2.1133 -0.7584
19196SOL     OW61179   6.703   4.931  10.273 -0.0588  0.0101 -0.3333
19196SOL    HW161180   6.736   4.879  10.347 -1.7149  0.0621  0.4989
19196SOL    HW261181   6.680   4.866  10.207  1.7083 -0.0194 -0.9545
19197SOL     OW61182   7.746   8.373   7.323 -0.0195 -0.6590  0.4640
19197SOL    HW161183   7.703   8.458   7.334 -1.2396 -1.4055  1.7445
19197SOL    HW261184   7.810   8.387   7.253 -0.0199  1.3748  0.8236
19198SOL     OW61185  10.137   8.909   5.732 -0.5553  0.0804 -0.2190
19198SOL    HW161186  10.108   8.927   5.822 -1.6221 -1.6438 -0.1700
19198SOL    HW261187  10.153   8.995   5.695 -3.1996  1.0516  0.6432
19199SOL     OW61188  10.873   4.072  10.261  0.1984 -0.4873  0.1834
19199SOL    HW161189  10.934   4.137  10.296  1.3317  0.1077 -2.6271
19199SOL    HW261190  10.793   4.084  10.312  0.5175  2.7994  0.1317
19200SOL     OW61191   8.486   0.600   6.808  0.0419  0.0111  0.8195
19200SOL    HW161192   8.543   0.624   6.735 -1.4962 -0.2135 -0.5076
19200SOL    HW261193   8.512   0.511   6.830 -0.3154 -0.3930 -0.3227
19201SOL     OW61194  10.460   6.756   9.492  0.1155 -0.2322 -0.6884
19201SOL    HW161195  10.425   6.843   9.507  0.9858  0.1229 -0.6393
19201SOL    HW261196  10.387   6.697   9.510 -0.8030  0.5286 -1.7615
19202SOL     OW61197   9.245   9.697   0.726  0.5509 -0.3628  0.0371
19202SOL    HW161198   9.283   9.769   0.776  1.0628  0.2013 -1.1311
19202SOL    HW261199   9.255   9.621   0.783  1.4286  0.1895  0.6484
19203SOL     OW61200   2.891   0.196   4.065 -0.2671 -0.1381 -0.5485
19203SOL    HW161201   2.980   0.191   4.031 -0.1062 -2.3638  0.0873
19203SOL    HW261202   2.866   0.106   4.082 -2.6758  0.4325 -0.7068
19204SOL     OW61203   5.593   9.618   2.850  0.1772  0.0014 -0.1284
19204SOL    HW161204   5.686   9.637   2.839  0.3433 -0.8743 -0.3488
19204SOL    HW261205   5.588   9.569   2.932  0.1867 -1.6122 -1.0455
19205SOL     OW61206   0.760   5.991   1.278 -0.1862 -0.1704  0.1518
19205SOL    HW161207   0.668   6.017   1.279  0.2057  1.3442 -0.3118
19205SOL    HW261208   0.807   6.066   1.316  1.0869  0.2138 -1.9545
19206SOL     OW61209   6.287   9.356  10.634  0.2454  0.3949  0.2226
19206SOL    HW161210   6.250   9.270  10.613  0.4031  0.4845 -0.4614
19206SOL    HW261211   6.382   9.344  10.624  0.1918  1.0205 -1.4165
19207SOL     OW61212   1.553   3.091   6.465 -0.1144  0.2456 -0.5255
19207SOL    HW161213   1.564   3.172   6.416 -0.8228  0.9462  0.4318
19207SOL    HW261214   1.474   3.051   6.429  0.0796  0.1152 -0.8091
19208SOL     OW61215   0.304   7.559   8.970  0.3573 -0.7309  0.0490
19208SOL    HW161216   0.243   7.501   9.017 -0.3760 -1.0823 -1.2995
19208SOL    HW261217   0.270   7.562   8.881  2.1796 -0.7080 -0.6710
19209SOL     OW61218   9.553   1.595   7.777  0.3959  0.6130 -0.1693
19209SOL    HW161219   9.648   1.588   7.775  0.5069  1.5164  0.9291
19209SOL    HW261220   9.522   1.520   7.727  1.6248 -2.0854  2.7593
19210SOL     OW61221   2.001   6.464   3.843  0.1812  0.2562  0.1167
19210SOL    HW161222   1.911   6.497   3.843  0.0757 -0.0138  0.8102
19210SOL    HW261223   2.005   6.408   3.920  1.0222  0.4655  0.2243
19211SOL     OW61224   4.633   5.090   6.653  0.4609  0.6910 -0.2976
19211SOL    HW161225   4.641   5.002   6.690  0.1411  0.4996 -0.6764
19211SOL    HW261226   4.592   5.141   6.723  1.2415  0.7034  0.1651
19212SOL     OW61227   8.174   5.733   9.808 -0.2873 -0.4998 -0.1260
19212SOL    HW161228   8.132   5.814   9.778 -0.4408 -0.4573  0.1998
19212SOL    HW261229   8.197   5.751   9.899 -1.4455 -1.2672  0.3380
19213SOL     OW61230   8.925   1.703   6.170 -0.4970  0.0837 -0.2330
19213SOL    HW161231   8.964   1.739   6.091  1.7184 -0.8304  0.3716
19213SOL    HW261232   8.904   1.613   6.148  0.0831 -0.1605  0.1863
19214SOL     OW61233   0.860  10.239   1.575 -0.5648  0.5540 -0.5957
19214SOL    HW161234   0.874  10.268   1.665 -2.0706  1.7628 -0.7163
19214SOL    HW261235   0.828  10.149   1.584  1.5692 -0.2029 -0.0793
19215SOL     OW61236   7.844   3.918   5.596  0.0615  0.0178  0.0169
19215SOL    HW161237   7.837   3.831   5.636 -1.3402  0.2747  0.3768
19215SOL    HW261238   7.883   3.901   5.510 -0.7860 -1.0767 -0.1888
19216SOL     OW61239   3.727   3.662   3.707  0.1244  0.1490 -0.3478
19216SOL    HW161240   3.634   3.653   3.688  0.4151  2.5644 -3.7678
19216SOL    HW261241   3.734   3.748   3.749  0.8085 -0.0368 -0.0773
19217SOL     OW61242   3.941   0.180   5.920  0.4648 -0.8241 -0.1017
19217SOL    HW161243   3.988   0.256   5.886  2.9633 -2.5820 -0.8290
19217SOL    HW261244   3.954   0.186   6.015 -0.4990  0.3118 -0.0122
19218SOL     OW61245   5.184   9.677   7.666  0.1699  0.5829  0.2747
19218SOL    HW161246   5.272   9.644   7.684  0.3754  1.3339  0.6610
19218SOL    HW261247   5.198   9.759   7.619 -0.1098  3.4119  4.5852
19219SOL     OW61248   4.866   9.485   6.966 -0.2139  0.1531  0.0398
19219SOL    HW161249   4.871   9.478   6.871 -1.1299  0.9646 -0.0884
19219SOL    HW261250   4.920   9.561   6.987 -1.4410  1.0932 -0.0484
19220SOL     OW61251   4.180   5.900  10.424  0.2830 -0.3227  0.1086
19220SOL    HW161252   4.117   5.960  10.382  1.2358  0.4183 -0.3041
19220SOL    HW261253   4.220   5.953  10.493  0.1134 -0.9414  0.6835
19221SOL     OW61254   4.869   1.703   1.816 -0.2015 -0.2545 -0.6345
19221SOL    HW161255   4.851   1.725   1.724  1.3542  2.1882 -0.4336
19221SOL    HW261256   4.819   1.768   1.866 -1.0119 -1.5474  0.3063
19222SOL     OW61257   0.559   0.547   3.542  0.0527 -0.9463  0.4527
19222SOL    HW161258   0.603   0.585   3.618  0.1751  0.7807 -0.4376
19222SOL    HW261259   0.503   0.617   3.509 -0.5735 -1.9190 -0.6198
19223SOL     OW61260   5.254   7.798   0.287 -0.4372 -0.8007  0.1841
19223SOL    HW161261   5.201   7.753   0.353 -0.4870 -0.3855  0.4295
19223SOL    HW261262   5.312   7.729   0.253 -0.9056 -1.1800  0.1424
19224SOL     OW61263   7.419   8.162   5.109 -0.0331  0.4571  0.7658
19224SOL    HW161264   7.512   8.175   5.089 -0.4021  0.3925 -1.2370
19224SOL    HW261265   7.381   8.250   5.103 -0.3885  0.2475 -0.2276
19225SOL     OW61266  11.068   4.691   5.126 -0.2001  0.1914 -0.1516
19225SOL    HW161267  10.999   4.629   5.147  1.3655 -0.4556  3.9021
19225SOL    HW261268  11.022   4.768   5.093 -2.4621 -1.5337 -1.3384
19226SOL     OW61269   2.935   8.706   9.083 -0.2127  0.1713  0.6567
19226SOL    HW161270   2.858   8.673   9.037  0.8229 -0.5905 -0.6322
19226SOL    HW261271   2.912   8.701   9.176 -2.0520  0.9094  0.2804
19227SOL     OW61272   1.559   5.290   2.789 -0.3988 -0.5086 -0.0785
19227SOL    HW161273   1.585   5.244   2.868 -0.3295  1.4460  1.1164
19227SOL    HW261274   1.640   5.330   2.756 -0.8664  1.0303  0.5298
19228SOL     OW61275   2.264   2.737   9.963 -0.7182  0.5780 -0.3469
19228SOL    HW161276   2.323   2.703   9.896 -1.8415  0.0234 -1.0842
19228SOL    HW261277   2.311   2.811  10.001  1.9728 -1.8422  1.4883
19229SOL     OW61278   0.781   4.292   1.356 -0.7825  0.2879  0.4148
19229SOL    HW161279   0.832   4.341   1.421  1.9402 -1.1035 -0.5414
19229SOL    HW261280   0.770   4.353   1.283  1.4108  0.0158 -0.2165
19230SOL     OW61281  10.328   3.532  10.023 -0.0961  0.0155 -0.3237
19230SOL    HW161282  10.289   3.447  10.003  2.0519 -0.8153 -1.2541
19230SOL    HW261283  10.414   3.529   9.982 -0.0935  2.8062 -0.7075
19231SOL     OW61284   2.203   0.579   5.854  0.1421  0.7192  0.4943
19231SOL    HW161285   2.200   0.637   5.931 -0.4194  0.2699  0.8227
19231SOL    HW261286   2.278   0.522   5.870 -0.4840  0.0584  1.1416
19232SOL     OW61287   5.209   7.945   6.090  0.2612  0.0805 -0.2958
19232SOL    HW161288   5.153   7.976   6.161  1.0848  1.1433 -0.0758
19232SOL    HW261289   5.262   8.022   6.066 -0.5620  0.0088 -2.6270
19233SOL     OW61290   2.327   1.342  11.038 -0.1170 -0.1958 -0.4902
19233SOL    HW161291   2.349   1.429  11.005  1.3189  0.6412  2.4021
19233SOL    HW261292   2.281   1.359  11.120  2.1411 -2.0773  1.2995
19234SOL     OW61293   9.926   9.300   5.104 -0.0991  0.1906  0.1834
19234SOL    HW161294   9.865   9.248   5.050 -0.2278 -0.4220  0.9088
19234SOL    HW261295   9.889   9.296   5.192  0.0266  1.3194  0.2959
19235SOL     OW61296  10.209   4.210   8.930  1.0124 -0.3482  0.3619
19235SOL    HW161297  10.164   4.217   9.014  0.4831  0.4895  0.0267
19235SOL    HW261298  10.295   4.248   8.946  1.6091 -1.8662  0.9808
19236SOL     OW61299   3.458   3.805   2.083 -0.4261 -0.4157 -0.0996
19236SOL    HW161300   3.501   3.881   2.122 -1.0162  0.3571 -0.9097
19236SOL    HW261301   3.366   3.816   2.105 -0.5903 -0.6109 -0.6787
19237SOL     OW61302   8.064   7.878   5.318 -0.2653  0.2189 -0.2399
19237SOL    HW161303   8.033   7.803   5.267  0.3307  0.4873 -1.0142
19237SOL    HW261304   8.157   7.862   5.331 -0.0912  0.9112 -0.5778
19238SOL     OW61305   5.502   0.478   9.502 -0.1312 -0.3076  0.5180
19238SOL    HW161306   5.569   0.411   9.517  1.2883  1.2594  1.5926
19238SOL    HW261307   5.426   0.430   9.471  0.7938 -2.4272  1.3581
19239SOL     OW61308  10.148   4.350   6.978 -0.5988  0.0917 -0.6394
19239SOL    HW161309  10.213   4.393   6.922 -0.5493  0.2913 -0.4336
19239SOL    HW261310  10.064   4.368   6.936 -0.6300  0.8427 -0.2818
19240SOL     OW61311   1.786   5.994   6.651  0.3328  0.1802 -0.5674
19240SOL    HW161312   1.772   5.956   6.738 -0.2017  2.0062  0.1939
19240SOL    HW261313   1.881   6.007   6.646  0.3239  0.4793 -0.0611
19241SOL     OW61314   3.656   3.386   0.921 -0.3691 -0.7596  0.0920
19241SOL    HW161315   3.745   3.363   0.894  1.0001  0.3191  3.1803
19241SOL    HW261316   3.639   3.470   0.878 -0.4118 -1.5101 -1.4254
19242SOL     OW61317   9.825   3.556   1.598 -0.1409 -0.3969 -0.8345
19242SOL    HW161318   9.781   3.534   1.681  0.7650  0.7242 -0.0278
19242SOL    HW261319   9.915   3.526   1.610  0.1388  0.2771 -1.1740
19243SOL     OW61320   3.915   6.035   4.582  0.4944 -0.1163  0.3936
19243SOL    HW161321   3.932   5.947   4.549 -0.2026 -0.8703  1.9487
19243SOL    HW261322   3.901   6.088   4.503 -2.4379 -2.0875 -0.6057
19244SOL     OW61323   1.223   4.904   7.983  0.6558  0.3160  0.1031
19244SOL    HW161324   1.192   4.993   8.003  1.0258  0.1232  1.7188
19244SOL    HW261325   1.159   4.870   7.920 -0.6095  1.0526  0.9269
19245SOL     OW61326   9.459   5.135   4.577  0.7862 -0.6097  0.1213
19245SOL    HW161327   9.534   5.118   4.520  1.0096  2.0516 -0.5410
19245SOL    HW261328   9.487   5.209   4.631 -0.8044 -0.6201  1.0059
19246SOL     OW61329   5.082   0.156   1.490 -0.0758  0.1840 -0.2356
19246SOL    HW161330   5.040   0.153   1.575 -0.3818  0.4950 -0.3746
19246SOL    HW261331   5.090   0.249   1.469 -1.6077  0.1144 -1.3189
19247SOL     OW61332   0.678   2.410   6.812 -0.0818 -0.0578 -0.7309
19247SOL    HW161333   0.665   2.400   6.717  0.8910 -0.1556 -0.8641
19247SOL    HW261334   0.594   2.444   6.844 -0.6162 -0.5558 -1.5402
19248SOL     OW61335   8.404   0.392  10.652  0.1227  0.1479 -0.3554
19248SOL    HW161336   8.322   0.344  10.666  0.3412 -0.5843 -1.4431
19248SOL    HW261337   8.458   0.332  10.601 -0.1300  2.0217 -3.0305
19249SOL     OW61338   1.659  10.277   6.026  0.2325  0.4131  0.3513
19249SOL    HW161339   1.724  10.326   6.076  1.0176  0.9178 -1.0960
19249SOL    HW261340   1.710  10.211   5.978 -0.5686 -0.4676  0.6911
19250SOL     OW61341   5.008   1.849  10.213 -0.3468  0.5552 -0.3220
19250SOL    HW161342   5.040   1.814  10.297 -0.7413 -0.1439 -0.4580
19250SOL    HW261343   4.995   1.772  10.158  2.3985  1.1182 -1.9723
19251SOL     OW61344   9.160   0.716  10.124  0.2176  0.0021 -0.3162
19251SOL    HW161345   9.154   0.646  10.189  2.1021 -0.0070 -0.1136
19251SOL    HW261346   9.241   0.762  10.145  0.2952  0.6905 -1.9767
19252SOL     OW61347   7.124   0.258   6.273  0.3960 -0.2173  0.4230
19252SOL    HW161348   7.213   0.255   6.307  0.1771 -0.8581  0.9513
19252SOL    HW261349   7.107   0.169   6.242  0.2554  0.1222 -0.5025
19253SOL     OW61350   1.031   3.340   6.127  0.3537 -0.7690 -0.0767
19253SOL    HW161351   1.126   3.352   6.135  0.0770  0.6911  1.4610
19253SOL    HW261352   1.002   3.315   6.215 -0.7646 -0.6378 -0.3949
19254SOL     OW61353   6.497   5.342   2.465 -0.1935  0.3732  0.0566
19254SOL    HW161354   6.497   5.290   2.385 -1.3633  0.2241  0.1277
19254SOL    HW261355   6.562   5.410   2.450  0.5199 -0.4165 -0.5047
19255SOL     OW61356   0.684   9.773   7.928 -0.1903  0.0364  0.5840
19255SOL    HW161357   0.748   9.756   7.997  0.3847  0.1248  0.0864
19255SOL    HW261358   0.612   9.714   7.947  0.3134 -0.5218  0.8000
19256SOL     OW61359   0.615   0.005   7.595 -0.0606  0.2553 -0.2558
19256SOL    HW161360   0.540  -0.036   7.553 -0.3205  0.8548 -0.3780
19256SOL    HW261361   0.688  -0.010   7.534 -0.0031 -0.5949  0.0064
19257SOL     OW61362   8.748  10.966   8.141 -0.8319  0.9357  0.0157
19257SOL    HW161363   8.826  10.944   8.089  0.4162 -1.1833  2.5688
19257SOL    HW261364   8.675  10.932   8.090  0.2732 -0.5017 -0.6849
19258SOL     OW61365   7.515   4.721   9.798 -0.7073 -0.1089 -0.1727
19258SOL    HW161366   7.579   4.662   9.759 -0.2406 -0.1340  0.6220
19258SOL    HW261367   7.456   4.663   9.846 -2.1702 -0.2309 -2.0067
19259SOL     OW61368   5.952   5.375   2.894  0.0831 -0.1084 -0.7837
19259SOL    HW161369   5.995   5.319   2.959 -1.0841  0.1349  0.2309
19259SOL    HW261370   5.861   5.378   2.922 -0.1532  1.1675 -1.6256
19260SOL     OW61371   9.789   3.480   3.237  0.0617  0.2546  0.3364
19260SOL    HW161372   9.748   3.534   3.170 -0.9670 -1.1665 -0.2295
19260SOL    HW261373   9.869   3.527   3.260  0.8116  0.4636 -2.3763
19261SOL     OW61374   3.804   9.080   6.567  0.5600  0.1614  0.0907
19261SOL    HW161375   3.766   9.129   6.494  0.4234 -1.5528 -1.0489
19261SOL    HW261376   3.735   9.019   6.593  1.2588 -0.4997  0.4291
19262SOL     OW61377   7.111  10.162   9.963 -0.1195  0.7330  0.1803
19262SOL    HW161378   7.139  10.100  10.030 -0.3097  0.9783  0.4931
19262SOL    HW261379   7.134  10.121   9.880  2.4997  1.5237  0.4332
19263SOL     OW61380   0.891   8.360   8.064 -0.0289 -0.3930 -0.2113
19263SOL    HW161381   0.883   8.379   8.157 -0.5559  0.2972 -0.3942
19263SOL    HW261382   0.812   8.397   8.025  1.3542  1.5513 -1.2927
19264SOL     OW61383   8.830   1.872   3.997  0.5982  0.4182 -0.1799
19264SOL    HW161384   8.818   1.947   4.055 -0.9181 -0.3627  0.5741
19264SOL    HW261385   8.900   1.821   4.037 -0.0831  0.1562  0.7271
19265SOL     OW61386   8.802   6.366   2.012  0.1596  0.0084  0.0760
19265SOL    HW161387   8.863   6.437   2.032  0.9289 -0.9060  1.0851
19265SOL    HW261388   8.715   6.405   2.025  0.5350  1.0350 -0.3804
19266SOL     OW61389   0.971   9.412   3.458 -0.2032  0.2920 -0.8820
19266SOL    HW161390   1.022   9.442   3.533 -0.9263  0.7965 -0.5819
19266SOL    HW261391   0.928   9.332   3.487 -0.5306  0.5192 -0.7276
19267SOL     OW61392   2.794   6.528  10.861  0.0970  0.2099  0.0045
19267SOL    HW161393   2.793   6.434  10.846  0.8549  0.1885  0.0649
19267SOL    HW261394   2.788   6.567  10.774  0.4013  0.1024 -0.0638
19268SOL     OW61395   7.161   6.057   7.229 -0.2860  0.0237  0.2432
19268SOL    HW161396   7.146   6.070   7.135 -0.1257 -0.7934  0.0982
19268SOL    HW261397   7.118   5.974   7.248  2.9514 -1.8491  0.0526
19269SOL     OW61398   1.341   0.032   7.817 -0.1228 -0.6033  0.2906
19269SOL    HW161399   1.251   0.016   7.788 -0.2399 -1.0488  0.8617
19269SOL    HW261400   1.354   0.126   7.805 -0.3899 -0.6670 -0.5452
19270SOL     OW61401   1.619   6.598   8.394  0.2372  0.2693  0.1582
19270SOL    HW161402   1.643   6.660   8.463  1.3837  0.6148 -0.5244
19270SOL    HW261403   1.670   6.626   8.318 -2.0814  0.8023 -1.2894
19271SOL     OW61404   2.975   9.018  10.163 -0.5104  0.0237  0.2689
19271SOL    HW161405   2.991   8.929  10.195  1.9766 -0.0960 -1.1194
19271SOL    HW261406   3.050   9.069  10.193 -2.4813  2.0895  2.1728
19272SOL     OW61407   1.689   7.205   8.928  0.2947  0.0713  0.9321
19272SOL    HW161408   1.748   7.210   9.004  0.1087  0.8861  1.0351
19272SOL    HW261409   1.719   7.274   8.869 -1.2545  1.3172  1.5141
19273SOL     OW61410   8.705   5.932   2.251  0.6889 -0.2398 -0.4508
19273SOL    HW161411   8.798   5.949   2.235  1.0491  0.1011  1.6953
19273SOL    HW261412   8.700   5.838   2.269  1.2954  0.2084  2.8142
19274SOL     OW61413   2.822   3.978   7.910  0.0806  0.0386 -0.1258
19274SOL    HW161414   2.840   4.061   7.866  0.1318 -0.7093 -1.5561
19274SOL    HW261415   2.786   3.921   7.842 -0.2367 -1.0274  0.8954
19275SOL     OW61416   4.010   5.869   4.090 -0.2013 -0.3234  0.6665
19275SOL    HW161417   4.099   5.879   4.056 -0.3179  2.8708  1.0345
19275SOL    HW261418   4.021   5.822   4.173  1.1053 -0.2712  0.5400
19276SOL     OW61419   5.708   1.022   5.995 -0.2893  0.2120  0.3779
19276SOL    HW161420   5.783   1.029   6.054 -0.7319  0.1199  0.9593
19276SOL    HW261421   5.713   1.100   5.940 -0.0475  0.4510  0.7380
19277SOL     OW61422   6.544   0.502  10.793 -0.5137  0.0549  0.1235
19277SOL    HW161423   6.635   0.523  10.776 -0.6365  0.0255 -0.5739
19277SOL    HW261424   6.519   0.441  10.724 -1.3483  0.8492 -0.3091
19278SOL     OW61425   0.467   4.431   2.509 -0.3346 -1.0098 -0.1753
19278SOL    HW161426   0.464   4.366   2.439 -0.2961  0.1149 -1.2640
19278SOL    HW261427   0.398   4.404   2.571  0.9342 -3.1318  0.4128
19279SOL     OW61428   6.501   6.099   8.171  0.5050 -0.3524  0.0037
19279SOL    HW161429   6.441   6.140   8.109  0.8692  0.1907 -0.0022
19279SOL    HW261430   6.555   6.041   8.118  1.0459  0.3706 -0.2546
19280SOL     OW61431   4.004   5.053   5.664 -0.6188 -0.1090 -0.3508
19280SOL    HW161432   4.049   5.123   5.616 -0.9019  0.9984  0.9344
19280SOL    HW261433   3.918   5.047   5.623  0.2791 -1.5412 -2.1642
19281SOL     OW61434  10.668   4.671  10.704 -0.7500 -0.2657  0.3810
19281SOL    HW161435  10.738   4.648  10.643 -0.2238  1.2203  0.4026
19281SOL    HW261436  10.711   4.721  10.773 -2.0400  2.0574 -0.4130
19282SOL     OW61437   6.493   2.528   7.287  0.4475  0.0408 -0.3720
19282SOL    HW161438   6.472   2.546   7.195 -0.5998 -2.1273 -0.6018
19282SOL    HW261439   6.561   2.461   7.283  1.1581  0.6838  0.4668
19283SOL     OW61440   9.034   1.131   3.073  0.2646 -0.0239 -0.2369
19283SOL    HW161441   8.965   1.131   3.140 -2.4824 -0.9137 -2.8273
19283SOL    HW261442   9.016   1.209   3.021  0.9560 -0.5156 -1.2214
19284SOL     OW61443   1.155   1.273   4.969  0.6788 -0.7438  0.2950
19284SOL    HW161444   1.186   1.183   4.963  1.7700 -0.3248 -1.0586
19284SOL    HW261445   1.233   1.324   4.989  0.5401  0.1209 -1.1744
19285SOL     OW61446   6.692   4.725   3.360 -0.0586 -0.2187  0.9507
19285SOL    HW161447   6.756   4.654   3.353  1.9461  1.5716  0.0890
19285SOL    HW261448   6.638   4.716   3.281 -0.3775 -1.2435  1.2626
19286SOL     OW61449   1.516   4.940   6.135  0.0016 -0.0562  0.4831
19286SOL    HW161450   1.591   4.967   6.081  0.5339  0.1920  1.3159
19286SOL    HW261451   1.462   4.888   6.076  1.5341 -1.4477  0.2199
19287SOL     OW61452   8.058   7.559   3.596  0.1203 -0.9953  0.1863
19287SOL    HW161453   8.062   7.655   3.602 -0.2709 -0.7812 -1.9951
19287SOL    HW261454   8.133   7.529   3.647 -0.4624  0.3727  1.9789
19288SOL     OW61455   4.691   6.367   3.685  0.0881  0.1256  0.5904
19288SOL    HW161456   4.640   6.416   3.749 -0.6080 -0.4962  0.5261
19288SOL    HW261457   4.722   6.290   3.732  0.0629 -0.0406  0.3391
19289SOL     OW61458   8.098   5.279   5.211  0.0835 -0.4351  0.1340
19289SOL    HW161459   8.041   5.217   5.257 -2.8945  2.3139  0.5036
19289SOL    HW261460   8.038   5.331   5.157  2.5242  1.4763 -0.9023
19290SOL     OW61461   1.093   8.908   6.427 -0.6764  0.5290 -0.4592
19290SOL    HW161462   1.001   8.888   6.443 -0.4776 -1.1476 -1.1419
19290SOL    HW261463   1.101   9.002   6.441 -1.9960  0.3596  1.8293
19291SOL     OW61464   6.386   6.510   8.501 -0.1125  0.0253  0.0617
19291SOL    HW161465   6.393   6.468   8.415 -0.2695  1.5795 -0.7428
19291SOL    HW261466   6.414   6.443   8.563 -0.1118 -1.1663 -1.1931
19292SOL     OW61467   4.029  10.525   2.787  0.0752 -0.2171 -0.0463
19292SOL    HW161468   4.091  10.461   2.822  2.4487  1.0827 -1.5802
19292SOL    HW261469   4.083  10.601   2.766 -1.9934  0.8480 -1.8884
19293SOL     OW61470   4.185   3.999   8.069  0.4629  0.1573  0.2677
19293SOL    HW161471   4.155   4.048   8.145 -0.2847  0.8951 -0.4704
19293SOL    HW261472   4.200   4.066   8.002 -0.0894 -0.5723 -0.6044
19294SOL     OW61473   4.436   2.110   2.627 -0.6774 -0.3396  0.0277
19294SOL    HW161474   4.529   2.117   2.649 -1.1622  1.0071  1.8693
19294SOL    HW261475   4.423   2.175   2.559 -0.0446 -1.5127 -1.2902
19295SOL     OW61476  10.565   0.788   8.323 -0.3563  0.2060 -0.1150
19295SOL    HW161477  10.475   0.818   8.313 -0.5873 -0.2132  0.6324
19295SOL    HW261478  10.587   0.806   8.414  0.4575  0.6632 -0.3837
19296SOL     OW61479   8.513   6.027   4.269  0.3777  0.1536  0.1163
19296SOL    HW161480   8.525   5.950   4.213  1.7564  0.4704 -0.0481
19296SOL    HW261481   8.528   6.102   4.211  0.0535  0.5234  0.5035
19297SOL     OW61482   7.877   8.726   9.641 -0.3970  0.2178  0.2926
19297SOL    HW161483   7.908   8.794   9.701 -0.7887  1.2303 -0.6170
19297SOL    HW261484   7.793   8.698   9.677 -0.4148  0.4886  0.4623
19298SOL     OW61485   7.767   5.177   8.087  0.4175 -0.1982 -0.1870
19298SOL    HW161486   7.784   5.108   8.024  1.0280  1.3418 -1.7959
19298SOL    HW261487   7.854   5.211   8.110  0.1485 -0.1589  0.8346
19299SOL     OW61488  10.427   1.901   3.423 -0.2914  0.4366  0.0846
19299SOL    HW161489  10.472   1.921   3.505  0.7178  0.9694 -0.5905
19299SOL    HW261490  10.412   1.986   3.381 -2.6381  0.3652  0.6215
19300SOL     OW61491   2.917   9.354   9.922 -0.2493  0.0351 -0.1017
19300SOL    HW161492   2.853   9.296   9.963  0.2149 -0.3922  0.0225
19300SOL    HW261493   2.877   9.378   9.838  0.2942 -1.8830 -0.9681
19301SOL     OW61494   7.533   4.267   4.079  0.5448 -0.7896  0.5552
19301SOL    HW161495   7.518   4.276   3.985  0.4553 -1.1231  0.5369
19301SOL    HW261496   7.446   4.269   4.118  0.6060 -0.2071  0.6731
19302SOL     OW61497  10.327   4.952   4.180 -0.4979  0.3242 -0.7426
19302SOL    HW161498  10.404   4.930   4.233 -0.1990  0.8381 -0.9510
19302SOL    HW261499  10.272   5.003   4.239 -0.4164  0.4339 -0.7599
19303SOL     OW61500   4.405   5.177   9.615  0.1131  0.3338  0.3350
19303SOL    HW161501   4.464   5.242   9.654 -0.6557  0.0649  2.0391
19303SOL    HW261502   4.464   5.113   9.574  1.0314  0.1966  1.7898
19304SOL     OW61503   9.456   6.190   2.097 -0.1686 -0.4856  0.4303
19304SOL    HW161504   9.399   6.266   2.097  0.4795  0.0099  0.5389
19304SOL    HW261505   9.415   6.129   2.158 -1.0193 -0.4819 -0.1261
19305SOL     OW61506   6.499   8.347   6.324 -0.4662  0.2546 -0.0040
19305SOL    HW161507   6.416   8.299   6.329  0.7444 -1.9452 -0.1179
19305SOL    HW261508   6.565   8.280   6.306  1.0238  2.2484 -2.6528
19306SOL     OW61509   2.230   0.672   8.099  0.0661 -0.2542 -0.6714
19306SOL    HW161510   2.226   0.650   8.006  0.9335  0.4759 -0.8842
19306SOL    HW261511   2.317   0.708   8.112  0.1790 -0.9153  0.5584
19307SOL     OW61512   2.025   5.723   6.431 -0.1769  0.5128  0.3977
19307SOL    HW161513   2.088   5.683   6.371 -1.9232 -2.8471  0.5682
19307SOL    HW261514   2.064   5.712   6.518 -0.7332 -1.2508  0.4697
19308SOL     OW61515   7.114  10.999   0.455  0.6614  0.4909  0.1859
19308SOL    HW161516   7.157  10.964   0.533 -0.2805  0.9078  0.9062
19308SOL    HW261517   7.040  11.050   0.489  0.5239  1.0725 -0.9596
19309SOL     OW61518   8.089   0.043   6.515 -0.5751 -0.3452  0.2350
19309SOL    HW161519   8.172   0.080   6.487 -0.5719 -1.1305 -0.8652
19309SOL    HW261520   8.027   0.115   6.507 -0.4261 -0.3377 -1.1467
19310SOL     OW61521   6.571   6.637   3.163 -0.4847 -0.1539 -0.1926
19310SOL    HW161522   6.615   6.719   3.185 -0.5221 -0.4545  1.0684
19310SOL    HW261523   6.545   6.647   3.071  0.1563  0.9452 -0.2620
19311SOL     OW61524   6.297   0.609   8.176  0.0779 -0.1268 -0.6537
19311SOL    HW161525   6.344   0.622   8.258 -1.1785  0.3158  0.0225
19311SOL    HW261526   6.246   0.689   8.165  1.1686  0.3852 -2.5403
19312SOL     OW61527   5.997   5.257   3.153 -0.0142  0.1235  0.0167
19312SOL    HW161528   5.948   5.196   3.209 -2.9983  2.7156  0.4609
19312SOL    HW261529   6.041   5.315   3.215  1.0693 -0.2149 -0.4124
19313SOL     OW61530   6.511   6.078   6.824  0.4644  0.2155 -0.4058
19313SOL    HW161531   6.524   6.124   6.741  1.0299 -0.1910 -0.5450
19313SOL    HW261532   6.572   6.005   6.821 -0.6875 -0.7819 -0.3530
19314SOL     OW61533   3.072   3.183   2.429 -0.9164 -0.2761  0.4926
19314SOL    HW161534   3.036   3.175   2.517  1.3558 -0.7190  1.4696
19314SOL    HW261535   3.087   3.093   2.400  2.2161 -0.2139  1.4819
19315SOL     OW61536   4.282   0.031   5.302  0.9027 -0.2802 -0.3406
19315SOL    HW161537   4.358   0.029   5.245  0.0818  1.4291 -1.6042
19315SOL    HW261538   4.208   0.015   5.244  0.1984 -0.9990  0.7065
19316SOL     OW61539   6.079   5.105   4.380 -0.0826 -0.4989 -0.0549
19316SOL    HW161540   6.005   5.053   4.351 -0.3361 -0.4448  0.4766
19316SOL    HW261541   6.039   5.185   4.415  0.3509  0.5309 -1.8070
19317SOL     OW61542   7.070   3.846   9.837 -0.5378  0.0618  0.3045
19317SOL    HW161543   6.979   3.874   9.846 -0.1444  1.3705  0.3226
19317SOL    HW261544   7.073   3.762   9.883 -1.6753  0.1235  0.5246
19318SOL     OW61545   9.578   9.676   6.757  0.1873  0.2187  0.3939
19318SOL    HW161546   9.489   9.641   6.760  0.7056 -1.2229 -0.0701
19318SOL    HW261547   9.566   9.771   6.749 -1.2900  0.1095  0.9570
19319SOL     OW61548   2.267  10.846  10.028 -0.4815 -0.3134  0.4096
19319SOL    HW161549   2.204  10.779  10.055 -0.2406 -0.2291  1.2202
19319SOL    HW261550   2.268  10.841   9.933 -0.6367 -1.3209  0.4457
19320SOL     OW61551   5.344   2.981   2.779 -0.5065 -0.1091  0.1250
19320SOL    HW161552   5.331   3.075   2.794 -0.5813  0.1255 -1.2921
19320SOL    HW261553   5.334   2.942   2.866 -0.3167  1.2041  0.7705
19321SOL     OW61554   5.149   4.846   0.270  0.1422 -0.5104  0.3894
19321SOL    HW161555   5.095   4.925   0.281  1.1690  0.2002  0.4828
19321SOL    HW261556   5.191   4.834   0.356  3.5070  1.5350 -0.7652
19322SOL     OW61557   9.883   0.807  10.680  0.2005  0.4819  0.2227
19322SOL    HW161558   9.847   0.719  10.688  0.9379  0.1436 -0.0266
19322SOL    HW261559   9.941   0.816  10.756  1.6784 -0.0297 -0.7860
19323SOL     OW61560  10.977   2.130   1.136  0.1659 -0.2594  0.4677
19323SOL    HW161561  10.939   2.208   1.178  0.0644 -1.2720  2.3443
19323SOL    HW261562  11.067   2.128   1.168  0.6963  0.0310 -0.9693
19324SOL     OW61563   6.498   0.832  10.848  0.4017 -0.4337 -0.5418
19324SOL    HW161564   6.547   0.766  10.898  0.4211  0.4397  0.6366
19324SOL    HW261565   6.439   0.781  10.793  0.8205 -1.4485 -0.0802
19325SOL     OW61566   2.790  10.635   8.347 -0.3714 -0.0601 -0.1622
19325SOL    HW161567   2.735  10.560   8.323 -1.2437  1.0598 -1.8897
19325SOL    HW261568   2.848  10.647   8.272 -0.6360  1.3301 -0.1721
19326SOL     OW61569   1.156   6.170   9.345  0.1555  0.0695  0.1333
19326SOL    HW161570   1.153   6.076   9.364  0.4837 -0.0192 -0.2362
19326SOL    HW261571   1.250   6.190   9.339  0.0825  0.3798  0.0176
19327SOL     OW61572   4.489   4.440   5.265  0.0234 -0.0146 -0.0593
19327SOL    HW161573   4.456   4.500   5.199 -1.5015 -0.0416  0.6503
19327SOL    HW261574   4.576   4.474   5.287 -0.5280  1.5180 -0.1591
19328SOL     OW61575   0.193  10.897  10.907  0.0889 -0.0266  0.4140
19328SOL    HW161576   0.133  10.896  10.832  0.5293  1.9826 -0.0353
19328SOL    HW261577   0.156  10.963  10.966  1.3876  0.6556  0.5035
19329SOL     OW61578   1.211   9.637   1.048 -0.3233 -0.1214  0.0201
19329SOL    HW161579   1.300   9.621   1.081 -0.7205 -2.0866  0.2775
19329SOL    HW261580   1.173   9.549   1.040 -2.6162  0.7159  0.9433
19330SOL     OW61581  10.057   0.204   6.332  0.2995  0.3682 -0.3386
19330SOL    HW161582  10.108   0.130   6.298  2.4972  1.7053 -0.1538
19330SOL    HW261583  10.045   0.183   6.425  0.9657  0.2725 -0.2706
19331SOL     OW61584  10.247   3.885   4.395  0.1213  0.0699 -0.3055
19331SOL    HW161585  10.311   3.926   4.337  0.1132 -2.2016 -2.0497
19331SOL    HW261586  10.282   3.797   4.411 -2.2852 -1.0954 -0.9609
19332SOL     OW61587   9.286   1.036   7.938  0.5188 -0.8357  0.1157
19332SOL    HW161588   9.232   1.093   7.884 -0.2672 -2.0270 -0.4003
19332SOL    HW261589   9.365   1.086   7.955  0.2462  0.0393 -1.0978
19333SOL     OW61590   0.635   4.462   7.155  0.4672 -0.3621 -0.2073
19333SOL    HW161591   0.578   4.469   7.079  1.5359  0.9292 -0.9200
19333SOL    HW261592   0.577   4.478   7.230 -0.3158 -0.2637 -0.8236
19334SOL     OW61593   0.750   9.791   9.965 -0.1423  0.4275  0.3131
19334SOL    HW161594   0.771   9.817   9.875  0.7616 -1.4325 -0.0452
19334SOL    HW261595   0.833   9.765  10.003 -0.7607 -0.3798  1.1661
19335SOL     OW61596   5.938   0.252   5.313 -0.7089 -0.2475  0.2219
19335SOL    HW161597   5.873   0.313   5.278  0.3595  0.1049 -1.2492
19335SOL    HW261598   5.888   0.196   5.373 -2.1102  0.7825  0.0748
19336SOL     OW61599  10.489   3.632   3.197  0.1523  0.2490 -0.6229
19336SOL    HW161600  10.423   3.701   3.188 -0.6903 -0.8103 -3.1932
19336SOL    HW261601  10.566   3.667   3.152 -0.1901 -0.3607 -1.6976
19337SOL     OW61602   6.637   3.212   9.466  0.0712 -0.2683  0.0190
19337SOL    HW161603   6.584   3.287   9.493  1.3280  0.4950  0.4772
19337SOL    HW261604   6.630   3.149   9.538  1.8327  0.9350  1.3359
19338SOL     OW61605   9.992   5.687   0.324 -0.1223 -0.1437  0.2015
19338SOL    HW161606  10.049   5.753   0.364  0.5803  1.1406 -2.6281
19338SOL    HW261607  10.053   5.624   0.286 -0.6378 -0.1135 -0.6999
19339SOL     OW61608   9.885  10.428   4.199  0.2470 -0.3919  0.0054
19339SOL    HW161609   9.843  10.489   4.138  0.4051 -0.9179 -0.6458
19339SOL    HW261610   9.976  10.457   4.204  0.2645 -0.4269 -0.1128
19340SOL     OW61611  10.191   0.184   8.176  0.0820 -0.4163  0.2784
19340SOL    HW161612  10.192   0.248   8.247  2.5384 -0.5083  0.4343
19340SOL    HW261613  10.102   0.150   8.175 -0.5413  1.0186  2.0066
19341SOL     OW61614   4.566  10.820  10.750 -0.1829  0.0617  0.0378
19341SOL    HW161615   4.538  10.731  10.728 -0.8421  0.0115  1.0570
19341SOL    HW261616   4.520  10.876  10.688 -1.0947 -0.1724  0.4955
19342SOL     OW61617   9.541   2.343   4.088  0.2713 -0.7840  0.1704
19342SOL    HW161618   9.585   2.284   4.149  0.5761 -0.0745  0.6394
19342SOL    HW261619   9.508   2.415   4.142 -0.5523 -0.7771 -0.3235
19343SOL     OW61620   1.138   9.271   7.969 -0.0325 -0.7317 -0.7209
19343SOL    HW161621   1.080   9.332   8.014 -0.5885 -1.5108 -0.3600
19343SOL    HW261622   1.107   9.185   7.995 -0.3863 -1.2114 -2.6021
19344SOL     OW61623   7.422   6.371   5.141  0.3604  0.1897  0.0187
19344SOL    HW161624   7.360   6.444   5.136  1.2789  0.9412 -0.8049
19344SOL    HW261625   7.483   6.387   5.069  1.4656 -0.5682  0.7655
19345SOL     OW61626   4.588   8.514   6.116  0.5591  0.0854  0.1080
19345SOL    HW161627   4.548   8.470   6.191 -0.1302  0.2298 -0.1664
19345SOL    HW261628   4.648   8.449   6.080  2.0054  0.5029  1.6212
19346SOL     OW61629   7.637   0.053   6.526  0.3497  0.2779  0.3702
19346SOL    HW161630   7.731   0.064   6.536  0.8746  1.0734 -3.5332
19346SOL    HW261631   7.604   0.142   6.512 -0.8597 -0.0610  0.9744
19347SOL     OW61632   5.304   5.576   5.120 -0.4781 -0.0876 -0.4603
19347SOL    HW161633   5.304   5.598   5.027 -0.0842 -0.9427 -0.6661
19347SOL    HW261634   5.230   5.516   5.131  1.0110 -2.0693 -0.7459
19348SOL     OW61635   0.059   5.152   7.288 -0.2648  0.1368 -0.1919
19348SOL    HW161636   0.133   5.192   7.242  0.4857  0.1241  0.9691
19348SOL    HW261637   0.092   5.134   7.376 -1.4985 -0.3463  0.1950
19349SOL     OW61638   3.944   2.822   0.099 -0.1916 -0.2672 -0.0020
19349SOL    HW161639   4.001   2.824   0.023 -1.4652 -0.8997 -1.0265
19349SOL    HW261640   3.957   2.906   0.142 -0.4716  0.7077 -1.7240
19350SOL     OW61641   5.963   1.159   8.866  0.1037  0.3579 -0.0032
19350SOL    HW161642   5.993   1.240   8.906  2.2512 -0.2741 -0.1762
19350SOL    HW261643   5.912   1.187   8.790  2.6366  1.6282 -1.3673
19351SOL     OW61644   0.153   5.253   3.982  0.5174  0.6838 -0.6698
19351SOL    HW161645   0.139   5.168   3.940 -0.4074 -0.7871  2.3546
19351SOL    HW261646   0.068   5.297   3.975  0.2740  0.3139 -0.1274
19352SOL     OW61647   8.218   9.410   5.147 -0.1130 -0.2187 -0.0882
19352SOL    HW161648   8.281   9.421   5.075 -0.0126 -0.3667 -0.0241
19352SOL    HW261649   8.149   9.474   5.129  0.3528  0.3644  0.1652
19353SOL     OW61650  10.367   7.122   8.849 -0.5105 -0.0857 -0.6450
19353SOL    HW161651  10.357   7.215   8.829 -0.0406  0.5922  1.9188
19353SOL    HW261652  10.292   7.102   8.905 -0.8344 -1.4032 -1.4966
19354SOL     OW61653   5.115   1.059   6.462  0.0793  0.0336  0.0362
19354SOL    HW161654   5.021   1.058   6.442  0.2770  1.4340 -1.0961
19354SOL    HW261655   5.119   1.078   6.556 -0.7866  1.5356 -0.1946
19355SOL     OW61656   4.193   3.119   2.327 -0.3658 -0.0108  0.5269
19355SOL    HW161657   4.263   3.083   2.274 -1.5391 -0.7468 -0.5762
19355SOL    HW261658   4.112   3.089   2.285 -1.3690  1.3758  1.3440
19356SOL     OW61659   3.489   7.561   8.384 -0.3064  0.1784  0.0554
19356SOL    HW161660   3.432   7.625   8.427 -1.0611  0.1559 -0.8915
19356SOL    HW261661   3.565   7.611   8.356 -0.1512  0.3354  0.7192
19357SOL     OW61662   9.183  10.763   2.255  0.2570  0.6146  0.1005
19357SOL    HW161663   9.248  10.807   2.200  0.3614 -1.4276 -1.5280
19357SOL    HW261664   9.230  10.745   2.337  1.1538  0.7972 -0.3557
19358SOL     OW61665   1.719   3.256   1.577  0.0895  0.5453  0.6322
19358SOL    HW161666   1.737   3.346   1.548  1.8850  0.1517  0.4104
19358SOL    HW261667   1.783   3.202   1.531  0.1054 -0.6516  1.9629
19359SOL     OW61668   8.328   5.329   8.488  0.2210 -0.4494  0.2069
19359SOL    HW161669   8.233   5.338   8.483  0.0123 -2.1097  0.8304
19359SOL    HW261670   8.355   5.312   8.397  0.0183  0.6182 -0.0704
19360SOL     OW61671   0.544   5.182   2.772  0.0995 -0.3132  0.1252
19360SOL    HW161672   0.617   5.124   2.755  0.3322  0.0030  0.0459
19360SOL    HW261673   0.563   5.262   2.723  1.5580  1.2328  2.9423
19361SOL     OW61674   7.530   6.011   9.465 -0.7308 -0.8138  0.0002
19361SOL    HW161675   7.575   5.933   9.495  0.2355 -0.5668 -0.7810
19361SOL    HW261676   7.565   6.082   9.519 -2.9719 -1.1266  2.0486
19362SOL     OW61677   6.191   0.945   5.500  0.9829 -0.0952  0.3693
19362SOL    HW161678   6.102   0.978   5.487  0.8251 -0.9851 -1.0000
19362SOL    HW261679   6.185   0.892   5.580  0.6769  1.1360  1.1894
19363SOL     OW61680   1.269   3.704   1.520 -0.0512 -0.1100 -0.6535
19363SOL    HW161681   1.348   3.750   1.493  1.1718 -1.3805  0.5908
19363SOL    HW261682   1.258   3.635   1.455  0.1551 -0.2464 -0.5438
19364SOL     OW61683   5.694   0.188  10.802 -0.4220 -0.1681 -1.0402
19364SOL    HW161684   5.778   0.151  10.774 -0.0355 -0.9021  0.9219
19364SOL    HW261685   5.629   0.138  10.752  0.2595 -0.2879 -1.8411
19365SOL     OW61686   6.270   7.349   2.730 -0.2287 -0.1307  0.1435
19365SOL    HW161687   6.292   7.423   2.787  0.7297 -0.8519  0.7359
19365SOL    HW261688   6.215   7.292   2.784  0.4176 -0.6580  0.2611
19366SOL     OW61689   7.386   7.876   9.968 -0.2926 -0.0081 -0.2266
19366SOL    HW161690   7.430   7.796   9.999  0.1169 -0.0551 -0.9122
19366SOL    HW261691   7.447   7.946   9.991  0.0133 -0.0431 -0.9108
19367SOL     OW61692   5.204   9.177   2.830  0.4801  0.7276 -0.1786
19367SOL    HW161693   5.217   9.220   2.914 -1.0138 -1.5114  1.3060
19367SOL    HW261694   5.265   9.220   2.771  1.8361  2.1390  2.1245
19368SOL     OW61695   7.581   2.134   7.057  0.1948 -0.2861 -0.1472
19368SOL    HW161696   7.518   2.160   7.124  1.1622  0.0564  0.6703
19368SOL    HW261697   7.587   2.210   6.999  1.5753  0.6602  1.1339
19369SOL     OW61698   2.715   5.501   6.629 -0.0275  0.6033 -0.3795
19369SOL    HW161699   2.777   5.571   6.608  0.5080  0.4185  0.5149
19369SOL    HW261700   2.639   5.546   6.666  0.2438  0.7309  0.0315
19370SOL     OW61701   7.162   3.283   3.580 -0.1961 -0.0621  0.1023
19370SOL    HW161702   7.237   3.223   3.573  0.0855  0.0604  1.6407
19370SOL    HW261703   7.093   3.241   3.530  0.3882 -1.0401  0.0832
19371SOL     OW61704   1.355  10.367   3.581  0.3955 -0.3709  0.5266
19371SOL    HW161705   1.439  10.327   3.561  0.4861 -0.2276  0.6182
19371SOL    HW261706   1.371  10.418   3.660  1.4611  3.4402 -1.9010
19372SOL     OW61707   7.287   9.356   0.601  0.4643 -0.2511  0.1568
19372SOL    HW161708   7.226   9.286   0.623 -0.4513  1.0044  1.8359
19372SOL    HW261709   7.274   9.422   0.669  1.5782  1.3902 -1.1282
19373SOL     OW61710   7.305   2.635   5.074  0.2687  0.0185  0.3732
19373SOL    HW161711   7.254   2.713   5.096 -0.4696  0.3081 -2.0510
19373SOL    HW261712   7.300   2.580   5.152 -0.6855  1.6399  1.4969
19374SOL     OW61713   8.329   7.387   2.434  0.6209 -0.6176 -0.1956
19374SOL    HW161714   8.419   7.406   2.405  0.5906 -0.7902 -0.3980
19374SOL    HW261715   8.280   7.466   2.411  1.2355  0.5717  2.2443
19375SOL     OW61716   2.007   2.941   7.023  0.3390  0.7551  0.0630
19375SOL    HW161717   2.008   2.965   6.931 -0.8071 -0.0527 -0.1805
19375SOL    HW261718   1.917   2.914   7.040  0.4086  1.3872  1.5540
19376SOL     OW61719   3.039   8.426   7.636  0.0203 -0.3198  0.3526
19376SOL    HW161720   3.043   8.514   7.675  1.5264 -0.0295 -0.3925
19376SOL    HW261721   3.044   8.367   7.711 -0.2283  0.2259  0.8091
19377SOL     OW61722   8.467   8.715  10.380  0.4351 -0.3117 -0.2132
19377SOL    HW161723   8.551   8.681  10.409  0.5889  0.6201  0.5046
19377SOL    HW261724   8.407   8.698  10.453 -0.2183 -1.7208 -1.0504
19378SOL     OW61725   4.663   4.727   0.878 -0.1282  0.4911 -0.3831
19378SOL    HW161726   4.658   4.815   0.913  1.3299  0.0976  0.9227
19378SOL    HW261727   4.609   4.674   0.937 -0.4464  0.3922 -0.7591
19379SOL     OW61728   2.305   5.022  10.774 -0.2228  0.4328  0.0165
19379SOL    HW161729   2.400   5.019  10.760  0.1748  0.1610  2.2825
19379SOL    HW261730   2.274   4.934  10.753 -0.2200  0.8631 -1.9492
19380SOL     OW61731   7.069  10.299   8.530 -0.0244  0.1986  0.0797
19380SOL    HW161732   7.004  10.323   8.465 -1.8121 -0.0755  1.6588
19380SOL    HW261733   7.026  10.315   8.614  1.2830 -1.7157  1.1954
19381SOL     OW61734  10.572   6.743   8.508  0.3473 -0.6860  0.0668
19381SOL    HW161735  10.522   6.782   8.580  2.0798  0.0865  0.8950
19381SOL    HW261736  10.530   6.776   8.429 -0.7749 -0.5034  0.7054
19382SOL     OW61737   8.759   3.184   7.561  0.3564  0.6727  0.1340
19382SOL    HW161738   8.670   3.176   7.525  0.6604  1.8826 -0.9637
19382SOL    HW261739   8.778   3.097   7.598 -1.1396  0.2980  0.0644
19383SOL     OW61740   0.768  11.080   9.438 -0.1531  0.3124 -0.6656
19383SOL    HW161741   0.733  11.148   9.380 -1.4959 -0.5534 -0.9136
19383SOL    HW261742   0.796  11.127   9.516 -0.9934  1.1707 -0.8644
19384SOL     OW61743  10.814   5.067  10.063 -0.2029  0.4770  0.6751
19384SOL    HW161744  10.883   5.040  10.124 -0.6003 -1.8200  0.1884
19384SOL    HW261745  10.795   4.988  10.012 -0.8078  1.9755 -1.5428
19385SOL     OW61746   6.226   6.284  11.012 -0.1369  0.7942  0.1063
19385SOL    HW161747   6.268   6.225  11.075 -0.2476 -0.4001 -0.9110
19385SOL    HW261748   6.266   6.261  10.928 -1.0918  1.3229 -0.4989
19386SOL     OW61749   3.042   2.947   7.824  0.2656  0.0955 -0.4208
19386SOL    HW161750   2.957   2.934   7.783  0.0643  1.5639 -0.5399
19386SOL    HW261751   3.044   3.040   7.846  0.8924 -0.3757  1.7613
19387SOL     OW61752  10.973   3.444   6.772 -0.1751  0.4336 -0.5069
19387SOL    HW161753  10.981   3.389   6.850  2.3745  0.7850 -0.4352
19387SOL    HW261754  10.973   3.534   6.805 -1.7150  0.5704 -0.7926
19388SOL     OW61755   1.795   7.696   0.202 -0.0135  0.0273 -0.0017
19388SOL    HW161756   1.760   7.609   0.215 -0.3898  0.2776  0.7065
19388SOL    HW261757   1.799   7.707   0.107  1.7075 -1.4165 -0.1341
19389SOL     OW61758   8.744   8.467   2.280 -0.0885 -0.0037  0.1534
19389SOL    HW161759   8.741   8.371   2.277 -3.2232 -0.0036  0.3750
19389SOL    HW261760   8.808   8.486   2.349  0.9712 -1.8760 -0.2250
19390SOL     OW61761   3.851   6.293  10.242 -0.3038  0.4117 -0.0324
19390SOL    HW161762   3.921   6.318  10.182 -1.1581 -0.1497 -1.3069
19390SOL    HW261763   3.828   6.204  10.215 -1.4499  0.5638  0.4168
19391SOL     OW61764  10.847   3.151   1.768  0.7318 -0.5317 -0.0996
19391SOL    HW161765  10.876   3.108   1.688  1.6975 -0.0748 -0.0196
19391SOL    HW261766  10.916   3.130   1.832  0.3941 -0.2068  0.3776
19392SOL     OW61767   9.438   2.196   5.970  0.6558  0.1856 -0.4934
19392SOL    HW161768   9.451   2.259   6.041  0.0590  0.6624 -0.7963
19392SOL    HW261769   9.499   2.125   5.990  1.9108  1.1923 -0.5317
19393SOL     OW61770   4.552   5.502   2.784  0.5538  0.4295  0.3026
19393SOL    HW161771   4.515   5.574   2.733  1.4434  0.8769  0.2664
19393SOL    HW261772   4.611   5.457   2.723 -1.6484 -1.7798 -0.4102
19394SOL     OW61773   5.776   3.392   7.471  0.4819  0.2908 -0.4479
19394SOL    HW161774   5.718   3.446   7.526 -0.4898 -2.1225  1.0552
19394SOL    HW261775   5.864   3.409   7.506  0.2763  1.3107 -0.3907
19395SOL     OW61776  11.098   5.968   9.647 -0.1521 -0.3713 -0.6673
19395SOL    HW161777  11.087   5.972   9.742 -1.8784  1.6711 -0.8671
19395SOL    HW261778  11.038   5.899   9.618 -0.6795 -0.0504 -0.3637
19396SOL     OW61779   7.652   7.913   7.119  0.5427  0.2123  0.4483
19396SOL    HW161780   7.634   7.996   7.162 -0.2984  0.4326 -0.2825
19396SOL    HW261781   7.620   7.846   7.180  1.3362  0.4174  1.0886
19397SOL     OW61782   8.175   1.543   9.989 -0.4227  0.1353 -0.0792
19397SOL    HW161783   8.184   1.550  10.084 -2.8006  1.1386  0.1269
19397SOL    HW261784   8.253   1.495   9.962  1.0803  1.1426  2.1795
19398SOL     OW61785   9.078   9.879  10.308  0.3970  0.3015 -0.3141
19398SOL    HW161786   9.075   9.811  10.375 -1.4167  1.5000  0.9302
19398SOL    HW261787   9.004   9.858  10.250  0.5766  0.5222 -0.6247
19399SOL     OW61788   3.538   8.021   8.953  0.6307  0.1726 -0.1250
19399SOL    HW161789   3.510   8.111   8.936  1.0383  0.2588 -0.3634
19399SOL    HW261790   3.574   7.991   8.870  0.7096 -0.1313  0.0190
19400SOL     OW61791   3.102   8.841   9.557 -0.1893  0.1264  0.1808
19400SOL    HW161792   3.148   8.826   9.639  0.5922 -1.1103 -0.4503
19400SOL    HW261793   3.017   8.798   9.568 -2.0497  3.8454  1.9783
19401SOL     OW61794   7.673   6.841   3.388 -0.0855 -0.4802 -0.0907
19401SOL    HW161795   7.596   6.843   3.332  0.4962 -1.7220 -0.9806
19401SOL    HW261796   7.726   6.915   3.358 -1.5795  1.3814  1.5851
19402SOL     OW61797   2.185   5.548   2.800  0.0590  0.6218  0.2664
19402SOL    HW161798   2.255   5.484   2.788 -0.1873  0.1486  1.1748
19402SOL    HW261799   2.227   5.633   2.791  0.9638  0.3697  1.6938
19403SOL     OW61800   8.866   6.330   3.987 -0.5800  0.4802  0.1589
19403SOL    HW161801   8.816   6.392   3.933 -0.3107 -0.3372 -1.0686
19403SOL    HW261802   8.931   6.384   4.031 -1.1831  1.2524  0.1333
19404SOL     OW61803   0.082   8.556   6.151 -0.0134 -0.6929  0.1149
19404SOL    HW161804   0.067   8.487   6.215  2.2564 -0.7836  0.6599
19404SOL    HW261805   0.084   8.637   6.202 -2.6826 -0.1450 -0.5228
19405SOL     OW61806   1.496  10.627   4.386  0.3508  0.4006 -0.0757
19405SOL    HW161807   1.492  10.701   4.326 -1.5375  1.2204  0.9723
19405SOL    HW261808   1.517  10.552   4.330  1.9754  1.6258 -1.2126
19406SOL     OW61809   5.185   5.021   4.514  0.5227  0.0790  0.1195
19406SOL    HW161810   5.108   5.065   4.477 -0.2220  0.0193  1.5243
19406SOL    HW261811   5.252   5.089   4.517  0.5128  0.1629 -1.0085
19407SOL     OW61812   6.987   5.074   7.931 -0.1140 -1.1146  0.1281
19407SOL    HW161813   6.989   5.163   7.965 -0.9159 -0.9336 -0.2786
19407SOL    HW261814   7.013   5.019   8.006  1.6242 -0.4699  0.0425
19408SOL     OW61815   5.799  10.588   6.352  0.1041 -0.2862  0.1312
19408SOL    HW161816   5.855  10.518   6.384 -0.3686 -0.8112 -0.1541
19408SOL    HW261817   5.710  10.555   6.365 -0.1127 -0.0964 -0.7888
19409SOL     OW61818   3.392   2.901   1.351  0.3827 -0.3452  0.5707
19409SOL    HW161819   3.464   2.961   1.334  0.8791 -1.4145 -1.3348
19409SOL    HW261820   3.315   2.943   1.311  0.7926 -1.0624 -1.0539
19410SOL     OW61821   7.802   7.937   2.116 -0.0687  0.3728 -0.0386
19410SOL    HW161822   7.818   7.875   2.187 -1.1326 -0.6311 -0.6226
19410SOL    HW261823   7.735   7.894   2.062  1.9690  0.2039 -2.6872
19411SOL     OW61824  10.780   9.319   3.238 -0.0708  0.0899  0.1347
19411SOL    HW161825  10.689   9.308   3.265  0.1328 -1.1984  0.3280
19411SOL    HW261826  10.817   9.231   3.240  0.7306  0.3465 -1.5425
19412SOL     OW61827   1.817   1.879   6.304  0.1218  0.1829 -0.7144
19412SOL    HW161828   1.743   1.913   6.254  0.3484  0.4845 -0.8529
19412SOL    HW261829   1.778   1.829   6.375 -0.2072 -0.5614 -1.4026
19413SOL     OW61830   1.311   8.958   5.301 -0.0917 -0.4815 -0.3943
19413SOL    HW161831   1.370   8.976   5.228 -0.2215 -0.6236 -0.5354
19413SOL    HW261832   1.258   9.037   5.309  1.9880  0.8270  1.5533
19414SOL     OW61833   3.237   3.126   9.293  0.0940  0.2712 -0.1813
19414SOL    HW161834   3.275   3.057   9.347  2.4911  0.9205 -0.9245
19414SOL    HW261835   3.196   3.079   9.220 -0.4823 -0.4483  0.5783
19415SOL     OW61836   1.181   8.581   6.640 -0.4636 -0.0639 -0.0100
19415SOL    HW161837   1.222   8.664   6.619 -0.9173 -0.1408 -1.2676
19415SOL    HW261838   1.140   8.595   6.725  0.3793  0.6503  0.2908
19416SOL     OW61839  10.403   3.485   2.324 -0.0930 -0.3915 -0.1479
19416SOL    HW161840  10.437   3.396   2.314 -0.8326 -1.0743  2.6841
19416SOL    HW261841  10.481   3.540   2.330  0.3707 -0.7563 -2.0919
19417SOL     OW61842   4.768  10.905   8.052  0.5637 -0.3588 -0.3384
19417SOL    HW161843   4.837  10.899   7.986 -0.8102 -2.4038 -1.7092
19417SOL    HW261844   4.712  10.977   8.022  0.7467 -0.3174 -0.5868
19418SOL     OW61845   6.575   2.176   9.657 -0.3786  0.0828 -0.5531
19418SOL    HW161846   6.512   2.166   9.586  0.5063 -2.6121 -1.0581
19418SOL    HW261847   6.644   2.113   9.637  1.4938  1.4998  1.0560
19419SOL     OW61848   7.528   0.580   8.175 -0.2399  0.7050  0.5518
19419SOL    HW161849   7.621   0.598   8.158 -0.2500  0.2400 -0.0541
19419SOL    HW261850   7.513   0.494   8.134 -0.5328 -0.0154  2.1058
19420SOL     OW61851   4.487   7.633   0.287 -0.5884 -0.2367  0.0914
19420SOL    HW161852   4.551   7.571   0.251 -0.4799  0.3473 -0.7780
19420SOL    HW261853   4.507   7.715   0.242  0.9272  1.1316  2.9758
19421SOL     OW61854   9.385   1.955   8.078 -0.1705  0.0582 -0.7721
19421SOL    HW161855   9.302   1.967   8.125  0.6708 -1.3205  1.2091
19421SOL    HW261856   9.384   1.863   8.051  0.2512  0.3213 -1.7202
19422SOL     OW61857   5.023   8.414   0.262 -0.5744 -0.0846 -0.1381
19422SOL    HW161858   5.055   8.328   0.236 -0.1377  0.4778 -1.5922
19422SOL    HW261859   5.094   8.474   0.240 -0.2555  0.5225  2.2508
19423SOL     OW61860   9.396   3.285   0.029 -0.6362 -0.2097  1.0060
19423SOL    HW161861   9.372   3.209   0.082 -0.7927 -2.3426 -1.8756
19423SOL    HW261862   9.491   3.279   0.019 -0.9044 -1.6407 -1.3269
19424SOL     OW61863   1.292   9.396   2.473 -0.4522 -0.8543 -0.5894
19424SOL    HW161864   1.219   9.353   2.517 -3.0850  2.4124 -1.3995
19424SOL    HW261865   1.292   9.360   2.385 -2.4482  0.4704 -1.1805
19425SOL     OW61866  10.215   9.487   3.914 -0.1448 -0.0191 -0.4534
19425SOL    HW161867  10.301   9.527   3.929 -0.3194  0.2130 -0.0553
19425SOL    HW261868  10.232   9.417   3.851  0.6020 -0.9745  0.7579
19426SOL     OW61869   3.172   3.301  10.351 -0.1594  0.3465  0.5560
19426SOL    HW161870   3.132   3.276  10.434  0.1091 -0.9643  0.3084
19426SOL    HW261871   3.266   3.294  10.366 -0.1166 -0.3121  0.0253
19427SOL     OW61872   1.882   2.704   4.048  0.1966  0.3731 -0.5384
19427SOL    HW161873   1.863   2.785   4.000  2.1188  1.0056 -0.3085
19427SOL    HW261874   1.909   2.733   4.135 -0.7595 -0.6399  0.1282
19428SOL     OW61875   8.827   3.814   1.461  0.0493 -0.3072 -0.0198
19428SOL    HW161876   8.910   3.769   1.479  0.7749  1.0449  0.1261
19428SOL    HW261877   8.765   3.777   1.524  1.4145  1.0863  2.2631
19429SOL     OW61878   7.516   1.765  10.681 -0.0928  0.2784  0.9012
19429SOL    HW161879   7.594   1.715  10.705 -0.9408 -1.8215 -0.4178
19429SOL    HW261880   7.451   1.740  10.747 -1.0922 -2.0428 -0.7924
19430SOL     OW61881   1.735   6.822   9.170  0.4095  0.1113 -0.2861
19430SOL    HW161882   1.686   6.838   9.089 -1.0964 -0.3133  0.5034
19430SOL    HW261883   1.821   6.791   9.141 -0.1526 -0.1683 -1.7071
19431SOL     OW61884   8.885   2.907   6.250 -0.2067 -0.0389 -0.1917
19431SOL    HW161885   8.802   2.940   6.215 -0.4613 -0.0599  0.3795
19431SOL    HW261886   8.928   2.985   6.287  0.5270  0.1757 -1.4321
19432SOL     OW61887   0.907   2.866  10.498  0.2869 -0.2212  0.9356
19432SOL    HW161888   0.893   2.960  10.485 -2.2684 -0.9490 -3.0666
19432SOL    HW261889   0.851   2.844  10.573  1.5894  1.4640  2.5042
19433SOL     OW61890   3.736   0.296   4.518  0.2300  0.0948 -0.2805
19433SOL    HW161891   3.694   0.321   4.436 -1.6893  0.1001  0.6612
19433SOL    HW261892   3.747   0.379   4.565  1.1820  0.0728 -0.4418
19434SOL     OW61893   6.633   9.438   5.894  0.5170  0.0523  0.3125
19434SOL    HW161894   6.558   9.488   5.927 -0.6020 -2.2275  1.4159
19434SOL    HW261895   6.678   9.499   5.836 -2.0553  1.6096 -0.2184
19435SOL     OW61896   0.352   2.121   2.314  0.2671  0.6923 -0.0708
19435SOL    HW161897   0.443   2.101   2.332 -0.3241 -1.6035  0.6795
19435SOL    HW261898   0.339   2.210   2.347  2.2494  1.1322 -0.3817
19436SOL     OW61899   6.564   9.307   8.920 -0.4095  0.0109  0.4389
19436SOL    HW161900   6.629   9.374   8.943  1.1541 -0.1991 -2.7651
19436SOL    HW261901   6.520   9.342   8.842  0.3827 -2.5083 -1.2787
19437SOL     OW61902   2.951   5.196   9.439  0.2705 -1.0624 -0.1302
19437SOL    HW161903   2.869   5.187   9.390  0.5360 -2.2950 -0.3854
19437SOL    HW261904   3.017   5.158   9.382  0.7495 -1.5845  0.7561
19438SOL     OW61905   5.361   6.894  10.978 -0.1710  0.2512 -0.0055
19438SOL    HW161906   5.423   6.858  10.915  2.9403 -0.1941  3.0029
19438SOL    HW261907   5.320   6.968  10.932  1.4319 -0.3697 -2.6693
19439SOL     OW61908   5.594  10.583   7.802 -0.5536 -0.1783  0.0893
19439SOL    HW161909   5.659  10.514   7.812 -0.1717  0.2307  0.4791
19439SOL    HW261910   5.644  10.659   7.771 -0.9184  0.0066 -0.0579
19440SOL     OW61911   6.659   0.743   4.284 -0.3868 -0.5592 -0.8868
19440SOL    HW161912   6.682   0.653   4.308  1.3106 -0.3980 -1.7733
19440SOL    HW261913   6.700   0.756   4.198 -2.4477  0.3617 -1.7957
19441SOL     OW61914   1.003   9.947  11.084 -0.7012 -0.0884  0.1663
19441SOL    HW161915   0.916   9.914  11.106 -0.3291 -0.2308  1.5133
19441SOL    HW261916   1.032   9.992  11.163 -0.3774  1.7500 -0.9601
19442SOL     OW61917   1.665   6.725   7.507  0.5623  0.7133 -0.1859
19442SOL    HW161918   1.576   6.716   7.473  1.4410  0.2748 -2.5518
19442SOL    HW261919   1.678   6.820   7.514 -1.1535  0.8619  3.5115
19443SOL     OW61920   0.354   2.601   0.785  0.5056 -0.3432 -0.4333
19443SOL    HW161921   0.432   2.569   0.831 -0.2491 -1.1373  0.3451
19443SOL    HW261922   0.385   2.675   0.733  1.3814  0.7569  1.5468
19444SOL     OW61923   7.522  10.931   2.320  0.2812  0.1799 -0.0488
19444SOL    HW161924   7.467  10.978   2.383  1.9563  1.1850  0.7275
19444SOL    HW261925   7.588  10.995   2.294  1.5296 -1.2000 -0.3743
19445SOL     OW61926   6.332   7.693   4.399  0.5043  0.4268 -0.1703
19445SOL    HW161927   6.298   7.611   4.437  1.6132  0.9378  2.1181
19445SOL    HW261928   6.400   7.664   4.338 -1.1284 -0.4202 -1.6929
19446SOL     OW61929   5.694   4.223   4.548  0.2983 -0.1613  0.2189
19446SOL    HW161930   5.699   4.312   4.583 -0.0100 -0.7518  1.8447
19446SOL    HW261931   5.754   4.172   4.603  1.0919 -0.8079 -1.2112
19447SOL     OW61932  10.582  10.823   0.913 -0.3569 -0.2041  0.8125
19447SOL    HW161933  10.616  10.793   0.828  0.6357  0.3164  1.0133
19447SOL    HW261934  10.507  10.766   0.930 -1.6030  0.7188 -1.1811
19448SOL     OW61935   2.960   9.167   5.934  0.3145  0.2432 -0.2084
19448SOL    HW161936   2.973   9.092   5.877 -0.3796  0.6945 -0.9783
19448SOL    HW261937   3.026   9.156   6.003 -1.9849 -3.0606  1.8235
19449SOL     OW61938   7.846   8.031   4.384 -0.0590 -0.3011  0.2753
19449SOL    HW161939   7.939   8.048   4.395  0.1341 -0.9460 -0.3282
19449SOL    HW261940   7.810   8.037   4.473  0.7274 -1.0273  0.6615
19450SOL     OW61941   5.180   4.367   1.695 -0.0196 -0.0998 -0.3830
19450SOL    HW161942   5.232   4.295   1.658  1.1456  0.8524 -0.6539
19450SOL    HW261943   5.198   4.442   1.638  0.2112  0.8676  0.9176
19451SOL     OW61944   0.733   4.200   7.264 -0.3460 -0.0169 -0.4323
19451SOL    HW161945   0.733   4.161   7.177 -0.2181  0.3264 -0.5871
19451SOL    HW261946   0.685   4.282   7.253 -1.1869 -0.4253  0.0275
19452SOL     OW61947   5.174   0.336   5.727  0.3824  0.3153  0.0201
19452SOL    HW161948   5.141   0.246   5.722 -2.3985  1.2587 -0.8180
19452SOL    HW261949   5.152   0.364   5.816  1.1981  0.1914  0.2635
19453SOL     OW61950  10.799   0.916  10.315 -0.1880 -0.3443  0.4522
19453SOL    HW161951  10.864   0.902  10.385 -0.0392  1.3178  0.6891
19453SOL    HW261952  10.715   0.918  10.361  0.0298  2.2183  0.8539
19454SOL     OW61953   0.906   0.182   4.446 -0.3353  1.1309 -0.2882
19454SOL    HW161954   0.983   0.173   4.390  0.9943  0.7814  1.5319
19454SOL    HW261955   0.889   0.094   4.478 -2.4370  0.9114 -1.7742
19455SOL     OW61956   4.849   1.838   3.782  0.5129  0.3529 -0.0824
19455SOL    HW161957   4.757   1.817   3.798  0.1376  1.9378 -0.0234
19455SOL    HW261958   4.869   1.910   3.841  2.2495 -0.9079  0.9737
19456SOL     OW61959   1.108   1.774   7.385 -0.0173  0.1173 -0.5017
19456SOL    HW161960   1.130   1.804   7.297  0.8432  1.2075  0.0571
19456SOL    HW261961   1.154   1.835   7.443 -0.6553 -0.5164  0.7031
19457SOL     OW61962   1.183   3.409  11.016  0.0547 -0.0283  0.5672
19457SOL    HW161963   1.100   3.421  11.062  0.1084 -2.2500  1.3964
19457SOL    HW261964   1.170   3.448  10.930 -1.8870 -0.3819  0.6582
19458SOL     OW61965   1.290   8.989   6.185 -0.0669  0.3031  0.0120
19458SOL    HW161966   1.278   8.986   6.090  1.9309 -2.6327 -0.2719
19458SOL    HW261967   1.208   8.955   6.221 -0.2714 -0.0162 -0.7402
19459SOL     OW61968  10.973   9.814  10.389 -0.2930 -0.0082  0.0205
19459SOL    HW161969  10.888   9.796  10.428 -0.3793  2.0333  0.9232
19459SOL    HW261970  10.972   9.908  10.371  0.8973 -0.3555 -2.1912
19460SOL     OW61971   5.734   7.199   3.406  0.3633 -0.2700  0.0924
19460SOL    HW161972   5.769   7.285   3.426 -0.3081  0.0065  0.1005
19460SOL    HW261973   5.640   7.207   3.421  0.4200 -1.2978  1.1479
19461SOL     OW61974   3.297   9.741   9.362 -0.0509 -0.5176 -0.0269
19461SOL    HW161975   3.214   9.704   9.392  0.4214 -0.5942  1.2538
19461SOL    HW261976   3.275   9.786   9.281 -1.7326  1.0691  1.2166
19462SOL     OW61977   1.845   0.879   2.563 -0.0174  0.1093 -0.3914
19462SOL    HW161978   1.866   0.822   2.636  0.0320  0.4822 -0.1118
19462SOL    HW261979   1.785   0.944   2.599  0.6884  0.8166 -0.4609
19463SOL     OW61980   4.365   6.136   7.886  0.2019  0.0237 -0.0224
19463SOL    HW161981   4.416   6.195   7.830 -0.0518 -0.2908 -0.6005
19463SOL    HW261982   4.403   6.050   7.871  0.5805  0.0405  0.8322
19464SOL     OW61983   2.726   6.848   9.998  1.2525  0.3368  0.4726
19464SOL    HW161984   2.752   6.938   9.979  0.1795  0.5479 -0.0600
19464SOL    HW261985   2.762   6.797   9.925  1.6127  0.3778  0.6219
19465SOL     OW61986   2.315   1.569   3.545  0.1461  0.1645  0.4247
19465SOL    HW161987   2.231   1.586   3.502 -0.2981  0.4791  1.3901
19465SOL    HW261988   2.381   1.602   3.483 -0.6064  4.0932  1.4578
19466SOL     OW61989   3.021   5.373   2.742 -0.1988 -0.1293  0.3708
19466SOL    HW161990   2.972   5.455   2.735  1.2008  0.8143  1.0549
19466SOL    HW261991   3.013   5.332   2.656 -1.3961  0.4303  0.1959
19467SOL     OW61992   7.526  10.254   5.386 -0.5994  0.0663  1.0384
19467SOL    HW161993   7.540  10.174   5.436 -1.0204  0.2562  1.4698
19467SOL    HW261994   7.552  10.231   5.297  1.1699  0.0278  1.5179
19468SOL     OW61995   0.143   9.160   5.187 -0.1644  0.1985  0.4406
19468SOL    HW161996   0.237   9.150   5.204 -0.0729  1.1278  0.5016
19468SOL    HW261997   0.135   9.241   5.137 -1.2032  1.9003  3.1486
19469SOL     OW61998   4.710   6.113   9.508 -0.3825 -0.1807  0.1160
19469SOL    HW161999   4.667   6.030   9.529 -2.3187  1.2315  2.2209
19469SOL    HW262000   4.640   6.178   9.508  1.1595  1.6150 -0.7100
19470SOL     OW62001   1.289   9.419   2.145 -0.4160 -0.2037 -0.3386
19470SOL    HW162002   1.216   9.410   2.084  1.3524 -0.5850 -2.5258
19470SOL    HW262003   1.356   9.467   2.096  2.0826 -2.7257  0.3296
19471SOL     OW62004   1.462   5.061   0.183 -0.0227 -0.2895  0.2325
19471SOL    HW162005   1.514   4.985   0.160 -0.7726 -0.2454 -1.8919
19471SOL    HW262006   1.512   5.136   0.149  0.6360  0.2114  2.1619
19472SOL     OW62007  10.593   8.883   9.681 -0.8925  0.0521  0.3901
19472SOL    HW162008  10.525   8.924   9.628 -0.6730  0.2923  0.2902
19472SOL    HW262009  10.621   8.807   9.630  0.5199  1.2253 -0.6821
19473SOL     OW62010   8.014   6.854   9.007 -0.0099 -0.4552  0.5762
19473SOL    HW162011   8.079   6.920   8.985 -0.4773 -0.3958 -0.7650
19473SOL    HW262012   7.956   6.896   9.070 -0.9896  0.8810 -1.1231
19474SOL     OW62013   8.971   0.026   3.404 -0.0752  0.3176 -0.1903
19474SOL    HW162014   8.879   0.034   3.379 -0.1028  2.4775  0.4142
19474SOL    HW262015   8.972   0.047   3.497  1.0617  0.3885 -0.2101
19475SOL     OW62016   4.982  10.659   9.651  0.4819 -0.7852 -0.3016
19475SOL    HW162017   5.060  10.701   9.615  0.7429 -0.8442  0.1789
19475SOL    HW262018   4.993  10.667   9.746 -0.5039 -0.0651 -0.2433
19476SOL     OW62019   3.543   8.741   8.597  0.3766  0.3265  0.0996
19476SOL    HW162020   3.574   8.815   8.545  0.3890 -0.0559 -0.4601
19476SOL    HW262021   3.451   8.759   8.612 -0.0681 -0.3722 -1.5606
19477SOL     OW62022   7.788   8.388   5.692  0.0923 -0.4278 -0.0650
19477SOL    HW162023   7.736   8.465   5.714 -0.2477 -0.6042 -0.2213
19477SOL    HW262024   7.834   8.365   5.772  1.5460  0.9441 -0.4556
19478SOL     OW62025   8.244   1.032   5.778  0.0345  0.3083 -0.2188
19478SOL    HW162026   8.250   1.124   5.754 -0.5555  0.1465 -1.0211
19478SOL    HW262027   8.170   0.998   5.727  0.0580 -0.5380  0.2894
19479SOL     OW62028   7.256   0.303   6.859 -0.1602  0.1228 -0.1005
19479SOL    HW162029   7.269   0.210   6.840  1.1826  0.1411  0.5758
19479SOL    HW262030   7.197   0.304   6.934  0.5380 -0.2422  0.4704
19480SOL     OW62031   6.072   9.321  11.052 -0.1532  0.3268 -0.2559
19480SOL    HW162032   6.038   9.368  10.976  2.1790  0.8185 -1.1073
19480SOL    HW262033   6.094   9.234  11.019 -0.1408  0.1783  0.1359
19481SOL     OW62034   4.950   2.890   5.382 -0.6098  0.3934 -0.3537
19481SOL    HW162035   5.023   2.911   5.440 -0.4505 -0.4048 -0.2588
19481SOL    HW262036   4.875   2.876   5.441 -0.3961 -0.6395 -0.3063
19482SOL     OW62037  10.950   5.048  10.739 -0.5829  0.2345 -0.8328
19482SOL    HW162038  10.916   5.130  10.704 -0.2105  0.5776 -0.4039
19482SOL    HW262039  11.039   5.068  10.766 -0.2394 -0.4963 -1.3721
19483SOL     OW62040   8.594   8.254   8.294 -0.0769 -0.1003 -0.5012
19483SOL    HW162041   8.568   8.292   8.209 -0.3762 -0.0538 -0.3904
19483SOL    HW262042   8.537   8.298   8.357  0.6796  0.4451 -0.1789
19484SOL     OW62043  10.421  10.226   5.983  0.3466 -0.0928 -0.3117
19484SOL    HW162044  10.453  10.168   6.052 -0.6228 -0.0049  0.2370
19484SOL    HW262045  10.338  10.261   6.018 -0.7052 -0.8507 -1.9170
19485SOL     OW62046   4.889   2.772  10.911  0.0806  0.2463  0.2556
19485SOL    HW162047   4.923   2.714  10.979  1.1775  0.4913 -0.0669
19485SOL    HW262048   4.803   2.799  10.943 -0.2768 -1.2141  0.6093
19486SOL     OW62049   9.478   3.684   1.427 -0.3897 -0.2028 -0.0264
19486SOL    HW162050   9.552   3.679   1.366  2.5066 -2.3752  3.2253
19486SOL    HW262051   9.423   3.609   1.405  0.3604 -0.6852 -0.3057
19487SOL     OW62052   3.242   2.074   2.931  0.4420 -0.1130  0.1059
19487SOL    HW162053   3.171   2.138   2.935  1.2867  1.0948 -2.1368
19487SOL    HW262054   3.217   2.016   2.859  0.8128 -0.8821  0.5877
19488SOL     OW62055   0.022   7.735   5.843  0.2532  0.5411  0.0982
19488SOL    HW162056   0.036   7.821   5.881  2.5484  1.1032 -1.7456
19488SOL    HW262057   0.105   7.688   5.858 -0.2671 -0.6515 -0.5640
19489SOL     OW62058  10.461   0.559   0.623  0.4858  0.6978  0.0175
19489SOL    HW162059  10.552   0.590   0.626  0.7248  0.0013  0.2662
19489SOL    HW262060  10.414   0.618   0.681  0.8414  0.8777  0.1282
19490SOL     OW62061   6.899   7.568  10.768 -0.0709 -0.3578 -0.1499
19490SOL    HW162062   6.946   7.651  10.763  0.8320 -0.6370  2.1950
19490SOL    HW262063   6.873   7.549  10.678 -1.4266  3.0668 -0.6414
19491SOL     OW62064   8.616   6.968   8.860  0.7080 -0.0576  0.1716
19491SOL    HW162065   8.688   6.940   8.804  1.5785 -0.8018  1.6011
19491SOL    HW262066   8.644   7.052   8.896 -0.3036  0.9412 -1.2555
19492SOL     OW62067   4.002   3.948   3.884  0.1057  0.6643 -0.6146
19492SOL    HW162068   4.010   3.961   3.789 -0.1632 -2.5373 -1.1919
19492SOL    HW262069   4.087   3.973   3.919  0.8734  0.1072 -1.9980
19493SOL     OW62070   4.433   0.841   6.882  0.0951  0.4806  0.0422
19493SOL    HW162071   4.509   0.799   6.923 -0.1672  0.1872  0.2405
19493SOL    HW262072   4.410   0.911   6.943 -0.5284 -0.1962  0.6155
19494SOL     OW62073   8.376   5.997   0.452 -0.0228  0.2519 -0.2662
19494SOL    HW162074   8.449   6.058   0.436  1.3893 -1.4062 -0.4266
19494SOL    HW262075   8.404   5.945   0.527 -0.5000 -1.2030 -1.0634
19495SOL     OW62076   8.163   8.535  10.855 -0.0141  0.2419  0.1581
19495SOL    HW162077   8.209   8.469  10.906  0.0943  0.8172  0.8200
19495SOL    HW262078   8.077   8.497  10.837 -0.2078  0.2015  1.1465
19496SOL     OW62079   4.655   2.998   5.739  0.4665  0.3633 -0.2580
19496SOL    HW162080   4.723   3.037   5.794  0.9734 -2.1186  0.9907
19496SOL    HW262081   4.700   2.931   5.688 -0.9940 -1.4971  0.7645
19497SOL     OW62082   1.452   7.604   3.340  0.6270  0.4031  0.3536
19497SOL    HW162083   1.499   7.640   3.264  1.7971 -0.0347  0.8486
19497SOL    HW262084   1.402   7.531   3.304  1.6895 -0.2192  0.1036
19498SOL     OW62085   4.940   0.334   2.290  0.2508 -0.0995 -0.7229
19498SOL    HW162086   5.012   0.396   2.284 -0.8733  1.2037 -1.6321
19498SOL    HW262087   4.962   0.278   2.364  0.6780  2.2802  1.0978
19499SOL     OW62088   0.806   9.388   4.956 -0.5053 -0.3855 -0.0614
19499SOL    HW162089   0.732   9.337   4.923  0.7578 -1.2667 -1.6691
19499SOL    HW262090   0.792   9.476   4.920 -0.8205 -0.5288 -0.2932
19500SOL     OW62091   7.185   3.811   9.596  0.2211  0.3206 -0.4054
19500SOL    HW162092   7.101   3.822   9.551  0.1793 -0.0949 -0.4312
19500SOL    HW262093   7.165   3.829   9.688 -0.1928 -1.0847 -0.1963
19501SOL     OW62094   5.897   2.750   8.950 -0.1108 -0.0621  0.3603
19501SOL    HW162095   5.814   2.768   8.993  0.4426  0.0125  1.4495
19501SOL    HW262096   5.952   2.714   9.020  0.6678 -0.3977 -0.4106
19502SOL     OW62097   9.794   8.608   9.232 -0.3324  0.8420  0.1758
19502SOL    HW162098   9.707   8.632   9.199 -0.2769  0.7386 -0.0444
19502SOL    HW262099   9.776   8.555   9.310 -0.4626  1.0764  0.3105
19503SOL     OW62100   0.711   9.104   8.202  0.0990  0.0654 -0.0717
19503SOL    HW162101   0.727   9.126   8.294 -0.6498  2.0284 -0.3641
19503SOL    HW262102   0.797   9.114   8.160  0.2448  0.1217  0.2364
19504SOL     OW62103   2.847   3.845  11.050 -0.3561  0.3334  0.4084
19504SOL    HW162104   2.830   3.755  11.077  1.1942  0.1506  0.8918
19504SOL    HW262105   2.822   3.848  10.958  1.6031 -1.2341 -0.2346
19505SOL     OW62106   2.727   9.047   1.443 -0.2703 -0.2793  0.5989
19505SOL    HW162107   2.708   8.954   1.428 -1.2452 -0.2047  1.2176
19505SOL    HW262108   2.643   9.083   1.472 -0.3354  1.1569 -1.2330
19506SOL     OW62109   9.401  10.720   3.048  0.1078  0.4483  0.0271
19506SOL    HW162110   9.431  10.793   3.103  0.0150 -0.5553  1.4650
19506SOL    HW262111   9.401  10.645   3.107 -0.8815 -0.4910 -1.1365
19507SOL     OW62112   1.051   3.552   7.091  0.5696  0.6727  0.0664
19507SOL    HW162113   1.068   3.574   6.999  2.2496  1.6423  0.5676
19507SOL    HW262114   1.106   3.476   7.108  0.4997  0.6853  0.3482
19508SOL     OW62115   3.652   8.870   0.515 -0.1178  0.8461  0.4095
19508SOL    HW162116   3.671   8.881   0.422  0.2030 -0.7577  0.2569
19508SOL    HW262117   3.589   8.939   0.535 -1.0653  0.5273 -1.2775
19509SOL     OW62118   7.589   5.430   6.274  0.4633  0.4807 -0.1076
19509SOL    HW162119   7.547   5.469   6.197 -2.1953 -0.5355  0.7344
19509SOL    HW262120   7.517   5.405   6.331  2.2215 -1.6979  1.3342
19510SOL     OW62121   3.481   5.369   7.343  0.3346  0.3834  0.3325
19510SOL    HW162122   3.570   5.399   7.328  0.1662  0.3063 -0.9046
19510SOL    HW262123   3.458   5.321   7.264 -1.2106  1.3666  0.1418
19511SOL     OW62124   7.510   9.537   3.129 -0.5290  0.0136  0.6905
19511SOL    HW162125   7.463   9.545   3.212 -2.9349 -0.2811 -0.5731
19511SOL    HW262126   7.492   9.448   3.100 -1.2681  0.6865 -1.0138
19512SOL     OW62127   3.313  10.136   5.167  0.2219  0.3520  0.1233
19512SOL    HW162128   3.326  10.041   5.167  0.4276  0.3723  1.2351
19512SOL    HW262129   3.389  10.171   5.121 -1.2977 -0.1541 -3.0891
19513SOL     OW62130   1.649   0.706   9.061 -0.4979  0.1586 -0.2215
19513SOL    HW162131   1.726   0.734   9.012 -0.2759 -2.1455 -1.3159
19513SOL    HW262132   1.684   0.670   9.142 -0.5761  0.6058  0.0158
19514SOL     OW62133   4.809   9.579   4.894  0.0755 -0.2700  0.2748
19514SOL    HW162134   4.902   9.583   4.871  0.3583 -0.3614  1.3457
19514SOL    HW262135   4.777   9.500   4.852  1.0257 -1.4639  1.6891
19515SOL     OW62136   9.792   1.135   6.485  0.1957 -0.3685  0.2749
19515SOL    HW162137   9.831   1.223   6.485  1.2601 -0.8245 -0.0961
19515SOL    HW262138   9.699   1.150   6.502  0.7771  0.6386  3.0672
19516SOL     OW62139  10.302   2.975   2.068  0.3410  0.2063  0.9832
19516SOL    HW162140  10.304   2.948   2.160  0.0358 -0.8063  0.7037
19516SOL    HW262141  10.383   2.939   2.032 -0.3861 -0.9672  0.4504
19517SOL     OW62142   0.502   5.324   9.253  0.0801  0.2289 -0.1733
19517SOL    HW162143   0.546   5.256   9.303  1.1154  2.6802  2.4890
19517SOL    HW262144   0.573   5.373   9.211 -0.3013  1.9251  1.0685
19518SOL     OW62145   7.680   9.525   2.470 -0.4965 -0.1604 -0.3011
19518SOL    HW162146   7.591   9.557   2.457 -0.2915  0.2401 -0.7654
19518SOL    HW262147   7.706   9.492   2.384 -0.0655  0.0744 -0.2630
19519SOL     OW62148   4.676   4.659  10.691 -0.0426  0.5244  0.5478
19519SOL    HW162149   4.686   4.564  10.679  0.7817  0.4237  1.8065
19519SOL    HW262150   4.725   4.678  10.771 -2.6347  1.5368  2.0196
19520SOL     OW62151   3.692   0.119   2.626 -0.0584 -0.1141  0.0140
19520SOL    HW162152   3.624   0.081   2.682 -1.9940  0.0611 -2.0631
19520SOL    HW262153   3.772   0.112   2.677 -1.7358  0.4281  2.9712
19521SOL     OW62154   3.310   0.714   0.047 -0.3075 -0.2842  0.2818
19521SOL    HW162155   3.348   0.795   0.013  0.8314  0.0363  2.1728
19521SOL    HW262156   3.356   0.644   0.001  2.0627  0.1178  1.8517
19522SOL     OW62157   4.960   6.327  10.784 -0.7878 -0.3185  0.6625
19522SOL    HW162158   4.943   6.421  10.794 -3.5701 -0.8010  1.1671
19522SOL    HW262159   5.026   6.307  10.851  1.9348  1.6649 -1.1876
19523SOL     OW62160   7.750   6.058  10.184 -0.4468 -0.0914 -0.1587
19523SOL    HW162161   7.840   6.089  10.178 -0.3380 -0.4842 -0.6084
19523SOL    HW262162   7.697   6.132  10.156 -0.2772  0.2159  0.3264
19524SOL     OW62163   7.158   1.621   4.567 -0.0706 -0.2774  0.3714
19524SOL    HW162164   7.122   1.706   4.544  2.2505  0.1506 -2.2184
19524SOL    HW262165   7.176   1.627   4.661 -2.8300  0.8618  0.9040
19525SOL     OW62166   2.434   7.750   5.022 -0.0341 -0.6431  0.7857
19525SOL    HW162167   2.343   7.735   5.049  0.1412 -1.6961  0.8470
19525SOL    HW262168   2.485   7.740   5.103  0.0413  1.1193  0.9799
19526SOL     OW62169   3.291   7.895   4.607  0.5585 -0.0636  0.5202
19526SOL    HW162170   3.261   7.805   4.597 -1.3170  0.5733  0.0439
19526SOL    HW262171   3.360   7.905   4.542  1.4872 -1.4159  1.2515
19527SOL     OW62172   2.365  10.653   9.690 -0.2268 -0.0028  0.0544
19527SOL    HW162173   2.302  10.582   9.703 -1.4841  0.7528 -1.5706
19527SOL    HW262174   2.316  10.733   9.709  0.4612  0.5548 -0.4455
19528SOL     OW62175  10.798   8.525  10.052 -0.2367  0.3975 -0.4436
19528SOL    HW162176  10.821   8.491   9.966 -2.2771  1.0880 -1.3252
19528SOL    HW262177  10.735   8.462  10.087  2.0849 -0.9894  1.5151
19529SOL     OW62178   7.071   5.761   3.076  0.0458 -0.5513 -0.4915
19529SOL    HW162179   6.978   5.738   3.078 -0.3607  0.9677 -0.5566
19529SOL    HW262180   7.097   5.747   2.985 -0.4073 -0.0011 -0.7146
19530SOL     OW62181   9.969   8.401  10.470  0.3793 -0.0038 -0.4117
19530SOL    HW162182   9.899   8.353  10.426 -0.0330  0.3186 -0.1174
19530SOL    HW262183   9.929   8.484  10.495  0.9155  0.2482 -0.3811
19531SOL     OW62184   2.560   9.654   0.821 -0.6705  0.2144  0.0854
19531SOL    HW162185   2.593   9.602   0.748 -1.1897 -0.0438  0.0290
19531SOL    HW262186   2.513   9.726   0.780 -0.8096  0.1686  0.1643
19532SOL     OW62187   2.578   8.132   7.523  0.5788 -0.1212  0.2430
19532SOL    HW162188   2.653   8.184   7.493  1.3134 -0.4978  1.3611
19532SOL    HW262189   2.519   8.131   7.448  2.3302 -1.0591 -1.2102
19533SOL     OW62190   7.700   2.061   4.695 -0.5153 -0.5992 -0.9063
19533SOL    HW162191   7.642   2.060   4.772 -0.2428 -0.3213 -0.6950
19533SOL    HW262192   7.660   2.126   4.636  0.6978  1.1863  0.1306
19534SOL     OW62193   9.392   8.176   6.359  0.0421 -0.1506 -0.2989
19534SOL    HW162194   9.318   8.216   6.404  0.9877  0.6753  0.5679
19534SOL    HW262195   9.402   8.091   6.401 -0.5751 -0.3940 -0.6219
19535SOL     OW62196   5.258   3.775   9.775  0.2974 -0.2865 -0.8185
19535SOL    HW162197   5.189   3.839   9.761 -0.7350 -1.2416 -0.3019
19535SOL    HW262198   5.292   3.795   9.863  0.2928 -0.1691 -0.8430
19536SOL     OW62199   2.002   6.941   5.058 -0.0815  0.1310  0.5254
19536SOL    HW162200   2.094   6.954   5.034 -0.3085 -0.8301 -1.0297
19536SOL    HW262201   2.002   6.939   5.153  1.3738  1.0172  0.5764
19537SOL     OW62202   7.634   8.387   8.398 -0.3797 -0.3290  0.0899
19537SOL    HW162203   7.712   8.441   8.410 -0.4539  0.2477 -1.7786
19537SOL    HW262204   7.588   8.392   8.482  0.3512  1.3247  0.4231
19538SOL     OW62205   0.662   5.945   5.383 -0.1356  0.0706  0.0710
19538SOL    HW162206   0.649   6.039   5.367  1.9785  0.3566 -0.3531
19538SOL    HW262207   0.655   5.935   5.478 -2.5749  0.2196 -0.0446
19539SOL     OW62208   5.297   6.431   2.991  0.1875  0.0754  0.3252
19539SOL    HW162209   5.276   6.443   2.899  0.7040 -1.9472 -0.1050
19539SOL    HW262210   5.364   6.497   3.009 -0.4431  0.9762 -0.5194
19540SOL     OW62211   7.995   6.297   0.819 -0.1335 -0.2426  0.3205
19540SOL    HW162212   8.039   6.342   0.890  0.9510 -0.7014 -0.0386
19540SOL    HW262213   7.921   6.252   0.860 -0.4098  0.7259  0.8949
19541SOL     OW62214   9.352   5.291   2.334 -0.5259 -1.0003  0.2365
19541SOL    HW162215   9.340   5.314   2.426  0.7096 -1.3127  0.4964
19541SOL    HW262216   9.353   5.375   2.288  2.0069 -0.5625  0.9263
19542SOL     OW62217   4.190   8.318   0.843 -0.1967 -0.5414 -0.1658
19542SOL    HW162218   4.221   8.373   0.772  0.6272 -0.6698  0.0801
19542SOL    HW262219   4.133   8.375   0.895  2.2647  0.7706  1.2745
19543SOL     OW62220   6.045   1.534   6.269  0.9265 -0.0527 -0.2727
19543SOL    HW162221   6.039   1.588   6.348  1.1825  0.3938 -0.5517
19543SOL    HW262222   6.080   1.450   6.300  0.1417 -0.2015  0.2299
19544SOL     OW62223   3.650   0.358   8.201 -0.1270  0.2019 -0.0281
19544SOL    HW162224   3.727   0.378   8.254  0.2501 -0.9566 -0.1032
19544SOL    HW262225   3.684   0.338   8.114 -0.4730 -0.5983  0.0084
19545SOL     OW62226  10.662   9.438   7.903  0.1699  0.6384 -0.2804
19545SOL    HW162227  10.725   9.510   7.895  1.8798 -0.8705 -1.3166
19545SOL    HW262228  10.710   9.371   7.952 -0.3686 -0.8066 -1.6783
19546SOL     OW62229  11.069   3.228   0.173  0.5761 -0.2706  0.1955
19546SOL    HW162230  11.085   3.139   0.204 -0.4608 -0.8674 -0.8689
19546SOL    HW262231  10.982   3.249   0.205  0.1731 -0.2644 -0.8496
19547SOL     OW62232   0.891   2.891   0.023 -0.5119  0.6121  0.1858
19547SOL    HW162233   0.956   2.893  -0.047  0.0616  2.0846  0.7118
19547SOL    HW262234   0.808   2.878  -0.021 -0.2481  2.2189 -0.8703
19548SOL     OW62235   4.105  10.623   1.634 -0.0484  0.2808  0.1343
19548SOL    HW162236   4.164  10.607   1.561  1.8583  0.6485  1.5052
19548SOL    HW262237   4.152  10.592   1.711 -2.2179 -0.6287  1.1921
19549SOL     OW62238   6.478   3.457   7.811  0.2255 -0.2693  0.0155
19549SOL    HW162239   6.457   3.486   7.899  2.2641 -0.8785  0.7588
19549SOL    HW262240   6.444   3.527   7.754  0.7588  1.1947  1.4251
19550SOL     OW62241   5.350   1.038   9.273  0.5200  0.1711  0.8102
19550SOL    HW162242   5.290   1.064   9.203 -0.3383  1.3799  1.9478
19550SOL    HW262243   5.376   0.948   9.250 -3.0619 -1.1170  1.0988
19551SOL     OW62244   9.988   8.301   6.007 -0.2560 -0.3835 -0.3581
19551SOL    HW162245   9.987   8.384   6.054  0.6604  0.9726 -2.5583
19551SOL    HW262246   9.895   8.283   5.989 -0.4217  0.8266 -0.8559
19552SOL     OW62247   7.361   2.208   8.144  0.1932  0.1994 -0.6046
19552SOL    HW162248   7.329   2.188   8.056 -0.8112 -0.1757 -0.1686
19552SOL    HW262249   7.306   2.281   8.174 -0.4124 -0.5620  0.2167
19553SOL     OW62250   1.553   3.095   2.250 -0.1064 -0.8478  0.1100
19553SOL    HW162251   1.621   3.161   2.238  0.0646 -1.1725 -0.7526
19553SOL    HW262252   1.488   3.113   2.183 -0.8854 -0.5506  0.9177
19554SOL     OW62253   2.584   2.841   2.385  0.3910  0.2217 -0.0267
19554SOL    HW162254   2.620   2.754   2.401  1.1298  0.1355 -1.9103
19554SOL    HW262255   2.503   2.842   2.436  0.5752 -1.4141  0.3734
19555SOL     OW62256   9.306   0.732   9.855 -0.5281 -0.2555  0.3315
19555SOL    HW162257   9.232   0.672   9.865 -3.2813  2.4373 -1.9646
19555SOL    HW262258   9.314   0.774   9.941 -1.6829 -0.6238  0.6362
19556SOL     OW62259   4.431   4.975   7.711 -0.1159  0.0022  0.0454
19556SOL    HW162260   4.442   5.040   7.643  1.1646  0.4613  0.6578
19556SOL    HW262261   4.351   4.928   7.688 -0.2686  0.8450 -1.1748
19557SOL     OW62262   4.805   3.813   8.122  0.4432  0.5278  0.1280
19557SOL    HW162263   4.744   3.767   8.179  0.5446  0.5705  0.2723
19557SOL    HW262264   4.828   3.749   8.055  2.9274 -0.7305  2.0000
19558SOL     OW62265   0.504   8.528   5.834  0.2412  0.0638  0.1068
19558SOL    HW162266   0.503   8.587   5.909  0.7940 -0.8997  0.8930
19558SOL    HW262267   0.587   8.481   5.842  0.0798 -0.4009 -0.8308
19559SOL     OW62268  10.163   6.079   3.419  0.2000  0.5957  0.3457
19559SOL    HW162269  10.165   6.174   3.430 -1.2307  1.1554 -2.9806
19559SOL    HW262270  10.240   6.048   3.466  0.4995  3.3234  1.8664
19560SOL     OW62271   1.497   2.836   3.514  0.2172  0.4906 -0.4834
19560SOL    HW162272   1.452   2.883   3.445 -0.7660 -2.2252 -1.8430
19560SOL    HW262273   1.457   2.867   3.595 -2.5612 -0.1474 -1.5045
19561SOL     OW62274   8.928   6.200   9.163  0.0088 -0.4568 -0.0648
19561SOL    HW162275   8.850   6.199   9.107 -0.2135 -0.1490  0.2319
19561SOL    HW262276   8.898   6.162   9.246  0.6745 -2.1988 -0.5675
19562SOL     OW62277   3.515   5.752   4.616  0.1199 -0.2221  0.0620
19562SOL    HW162278   3.554   5.779   4.533 -0.7679  0.6136 -0.1145
19562SOL    HW262279   3.561   5.804   4.682 -0.2044  0.2472 -0.0746
19563SOL     OW62280   1.777   5.647   6.384  0.0483  0.0793  0.4737
19563SOL    HW162281   1.713   5.715   6.405  0.0515 -0.5409  2.7495
19563SOL    HW262282   1.859   5.677   6.424  0.7082 -0.0477 -0.7535
19564SOL     OW62283   4.765   8.769   6.149  0.1074 -0.3564 -0.2354
19564SOL    HW162284   4.700   8.699   6.159  0.7592 -1.0271 -0.6047
19564SOL    HW262285   4.829   8.752   6.218 -0.3208  0.5576  0.4084
19565SOL     OW62286   4.124   0.177   8.526  0.1523 -0.4464  0.0361
19565SOL    HW162287   4.131   0.104   8.587 -1.3958 -1.8955 -1.4064
19565SOL    HW262288   4.047   0.226   8.556  1.4850  0.9548  1.3037
19566SOL     OW62289   8.439   5.370   1.491 -0.4364 -0.6536  0.4760
19566SOL    HW162290   8.390   5.431   1.437  0.1474 -0.0107  0.6569
19566SOL    HW262291   8.395   5.286   1.478 -1.1031 -0.2485  0.0394
19567SOL     OW62292   3.543   9.613   2.786 -0.2752  0.4448  0.1264
19567SOL    HW162293   3.630   9.582   2.761 -0.0904  1.0766 -0.0361
19567SOL    HW262294   3.559   9.695   2.833 -0.7805  0.5670  0.0988
19568SOL     OW62295   5.762   0.873   2.650 -0.1206  0.2323 -0.0363
19568SOL    HW162296   5.760   0.824   2.732  1.6130 -0.5372 -0.4060
19568SOL    HW262297   5.727   0.959   2.673 -0.9264 -0.3958  1.1952
19569SOL     OW62298   1.744  10.966   9.051  0.1595 -0.2716 -0.5834
19569SOL    HW162299   1.760  11.057   9.024  0.8167 -0.2355 -0.1036
19569SOL    HW262300   1.668  10.939   9.000  0.0113  0.5219 -0.7981
19570SOL     OW62301   3.530  10.732   0.430  0.3416 -0.5294  0.0203
19570SOL    HW162302   3.539  10.827   0.442 -2.6599 -0.0210 -0.9750
19570SOL    HW262303   3.517  10.722   0.335  0.8706 -1.9864  0.0828
19571SOL     OW62304   9.420   0.302  10.433 -0.1921 -0.1534  0.1934
19571SOL    HW162305   9.375   0.298  10.517 -1.3066 -0.3086 -0.3844
19571SOL    HW262306   9.463   0.217  10.425 -2.2102 -1.2026 -0.4813
19572SOL     OW62307   3.295  11.010   8.755  0.4141 -0.3584  0.1000
19572SOL    HW162308   3.300  11.100   8.788 -4.1201 -0.1661  0.9347
19572SOL    HW262309   3.318  11.017   8.663 -0.7009  1.9047 -0.0811
19573SOL     OW62310   0.476   5.365   1.299 -0.2696  0.7543 -0.3205
19573SOL    HW162311   0.448   5.432   1.361  0.4464 -0.7090  1.6814
19573SOL    HW262312   0.519   5.415   1.229  0.2434  2.4246  1.0852
19574SOL     OW62313   2.725   3.589   2.861  0.6034  0.0358 -0.4030
19574SOL    HW162314   2.729   3.496   2.880  0.6256 -0.4102 -2.3295
19574SOL    HW262315   2.662   3.596   2.789  0.9272  1.4477 -0.5788
19575SOL     OW62316   0.616   6.174   0.828 -0.3892 -0.2379 -0.7797
19575SOL    HW162317   0.691   6.212   0.875 -1.1923 -0.9897  1.2097
19575SOL    HW262318   0.643   6.174   0.736  0.6150  2.8737 -0.6081
19576SOL     OW62319   4.413   3.440   1.509  0.6285  0.1198  0.3287
19576SOL    HW162320   4.464   3.521   1.507  2.1004 -0.8019 -1.4191
19576SOL    HW262321   4.385   3.426   1.419 -0.4038 -0.8521  0.7706
19577SOL     OW62322   0.773   6.184   5.152  0.1212 -0.4024 -0.3435
19577SOL    HW162323   0.687   6.178   5.193  0.8760 -1.2932  1.1845
19577SOL    HW262324   0.797   6.276   5.159 -0.0132 -0.4390  0.7272
19578SOL     OW62325   4.470   5.337   5.159  0.3529  0.1166  0.0379
19578SOL    HW162326   4.483   5.243   5.147  0.0425  0.0708  0.0545
19578SOL    HW262327   4.550   5.376   5.124  0.7444 -0.1838  0.5630
19579SOL     OW62328   1.737   9.595   8.445  0.0999 -0.2984  0.2305
19579SOL    HW162329   1.813   9.596   8.504  0.3082  1.3103 -0.0110
19579SOL    HW262330   1.661   9.596   8.504  0.2993  0.3536  0.4868
19580SOL     OW62331   3.961   8.942   0.601 -0.5267 -0.0712  0.1339
19580SOL    HW162332   3.986   8.991   0.680 -0.3105 -0.9840  0.6516
19580SOL    HW262333   3.882   8.895   0.626  0.7244 -2.0827  0.5640
19581SOL     OW62334   2.130   5.254   1.596  0.0972  1.2165 -0.5627
19581SOL    HW162335   2.079   5.281   1.673 -0.3804  1.1298 -0.8489
19581SOL    HW262336   2.153   5.336   1.553  0.7438  1.2929 -0.0935
19582SOL     OW62337   3.185   5.011   1.014  0.7388 -0.5920  0.8134
19582SOL    HW162338   3.250   5.009   1.084  0.1853 -0.6653  1.3435
19582SOL    HW262339   3.224   4.963   0.942  2.0053  0.9113  0.4500
19583SOL     OW62340  10.134   3.110   9.162 -0.3081  0.9515  0.3591
19583SOL    HW162341  10.079   3.187   9.179  0.9251  2.4885 -2.0652
19583SOL    HW262342  10.162   3.120   9.071  1.5964 -1.3095  0.6056
19584SOL     OW62343   7.059   3.124  10.166 -0.2833  0.1848  0.4265
19584SOL    HW162344   6.970   3.090  10.159  0.7697 -2.5971 -0.9350
19584SOL    HW262345   7.064   3.162  10.254 -2.6358 -0.0426  0.7174
19585SOL     OW62346   6.630   4.520   4.407  0.0400  0.1373  0.0592
19585SOL    HW162347   6.642   4.615   4.407 -0.5598  0.2334 -1.1874
19585SOL    HW262348   6.544   4.507   4.368 -0.9627 -0.8342  2.4066
19586SOL     OW62349  10.775   9.357   8.172 -0.0144 -0.4966  0.3142
19586SOL    HW162350  10.853   9.303   8.161  0.2457  0.3039 -2.4596
19586SOL    HW262351  10.807   9.439   8.210  0.5581 -0.1123 -0.9606
19587SOL     OW62352  10.441   7.410  10.756  0.0655  0.6352 -0.5856
19587SOL    HW162353  10.389   7.339  10.792 -1.2855  1.7908 -0.1651
19587SOL    HW262354  10.465   7.463  10.832  0.8664  0.7565 -0.9148
19588SOL     OW62355   8.339   6.884   5.050  0.0170  0.2339 -0.0900
19588SOL    HW162356   8.316   6.852   4.963 -1.7906  1.7992 -0.2398
19588SOL    HW262357   8.412   6.944   5.034 -0.1296  0.3097 -0.5084
19589SOL     OW62358   1.833   5.667   5.234 -0.1671 -0.1049 -0.4194
19589SOL    HW162359   1.765   5.717   5.279  0.6173  0.2769  0.3720
19589SOL    HW262360   1.785   5.604   5.181 -1.1661  1.0890 -0.9856
19590SOL     OW62361   3.744  11.008   9.679  1.0885  0.4467  0.6108
19590SOL    HW162362   3.784  11.078   9.628  0.1090  1.4209  1.1310
19590SOL    HW262363   3.807  10.990   9.749  1.9516 -0.1547 -0.2856
19591SOL     OW62364   4.526   7.965   9.632  0.3816  0.4679 -0.0548
19591SOL    HW162365   4.551   7.989   9.543  0.8956 -0.0519 -0.0581
19591SOL    HW262366   4.592   8.006   9.687  0.0834  0.7612  0.0816
19592SOL     OW62367   6.390   7.857   2.832  0.1390 -0.1397  0.0454
19592SOL    HW162368   6.443   7.889   2.905  0.4052 -1.8127  0.6364
19592SOL    HW262369   6.376   7.764   2.852 -0.2379 -0.5073 -1.7660
19593SOL     OW62370   1.847   7.116   3.585 -0.2030 -0.7032  0.3048
19593SOL    HW162371   1.779   7.181   3.600 -0.8830 -1.2213 -0.5036
19593SOL    HW262372   1.844   7.060   3.663  0.0454 -0.0939  0.7674
19594SOL     OW62373   8.793   3.475   1.719 -0.4183 -0.4265 -0.5369
19594SOL    HW162374   8.759   3.391   1.689 -0.7932 -0.9368  1.1850
19594SOL    HW262375   8.774   3.476   1.813  0.5457  1.1272 -0.3229
19595SOL     OW62376   3.485   4.079   0.293 -0.2973  0.5284  0.3006
19595SOL    HW162377   3.424   4.079   0.219  0.6926 -0.6012 -0.5514
19595SOL    HW262378   3.478   3.991   0.329  1.8390 -0.1079 -0.7144
19596SOL     OW62379   4.040  10.834   3.271  0.3169 -0.2497  0.0231
19596SOL    HW162380   4.122  10.785   3.268  0.0888 -0.5902 -1.4482
19596SOL    HW262381   4.059  10.910   3.327  1.2829 -0.9239  0.6322
19597SOL     OW62382   0.649   5.799   8.388  0.4720  0.4731  0.3828
19597SOL    HW162383   0.632   5.720   8.439 -1.2057  0.9055  0.5728
19597SOL    HW262384   0.646   5.870   8.452  0.0694  0.8612 -0.0611
19598SOL     OW62385   6.799   8.357  10.520 -0.4873  0.3027 -0.3218
19598SOL    HW162386   6.849   8.364  10.601 -1.6243 -0.0636  0.4220
19598SOL    HW262387   6.766   8.445  10.504 -0.6121  0.2810 -0.1731
19599SOL     OW62388   4.989   3.917   8.920 -0.1377 -0.1902  0.3472
19599SOL    HW162389   5.021   4.000   8.956 -0.7493  0.5742 -0.8063
19599SOL    HW262390   5.067   3.873   8.888  0.1340  0.1678  0.5095
19600SOL     OW62391   6.342   1.928   1.426 -0.2076 -0.1690  0.1723
19600SOL    HW162392   6.427   1.972   1.418  0.6003 -1.3521  1.7042
19600SOL    HW262393   6.364   1.841   1.460 -2.0755 -0.3316  1.0454
19601SOL     OW62394   1.080  10.168   5.959 -0.3113 -0.0467 -0.2299
19601SOL    HW162395   1.117  10.203   6.040 -0.3306 -3.6065  1.5067
19601SOL    HW262396   1.006  10.225   5.940  0.3748  1.5780  1.6240
19602SOL     OW62397   9.415   9.807   3.051 -0.0341 -0.0620 -0.2185
19602SOL    HW162398   9.350   9.829   3.117  0.2443  1.2731 -0.3500
19602SOL    HW262399   9.468   9.738   3.091  0.4928  1.1117  1.2237
19603SOL     OW62400  10.218   5.969   6.833 -0.1902 -0.2465 -0.3211
19603SOL    HW162401  10.139   5.960   6.887 -1.5333  0.7838 -1.9970
19603SOL    HW262402  10.264   6.045   6.870 -0.6162 -0.1217 -0.0413
19604SOL     OW62403   5.107   9.884   3.644 -0.1955 -0.5506 -0.3521
19604SOL    HW162404   5.023   9.844   3.664 -0.6339  0.2906 -0.4602
19604SOL    HW262405   5.086   9.956   3.585  0.3688  0.8428  1.0606
19605SOL     OW62406   8.189   3.120   5.968  0.1743  0.5909 -0.4544
19605SOL    HW162407   8.119   3.062   5.998  0.7239  0.7721  1.2771
19605SOL    HW262408   8.223   3.077   5.890 -0.6279 -0.4745 -0.2468
19606SOL     OW62409   7.156   0.614  10.235 -0.2641  0.3741  0.1468
19606SOL    HW162410   7.177   0.627  10.327  1.7703  0.0529 -0.2148
19606SOL    HW262411   7.199   0.687  10.190  1.3743 -1.0834 -0.7865
19607SOL     OW62412   9.382   9.976   6.965  0.0625  0.0986 -0.1528
19607SOL    HW162413   9.384  10.069   6.985 -3.3025  0.5907 -1.3942
19607SOL    HW262414   9.416   9.969   6.876 -0.8207  0.3467 -0.5183
19608SOL     OW62415   5.004   2.702   6.258  0.2801 -0.0422  0.4736
19608SOL    HW162416   4.948   2.679   6.184  0.9891  0.7746 -0.3560
19608SOL    HW262417   5.070   2.633   6.261  0.1354 -0.1799  0.4572
19609SOL     OW62418   3.102   8.623   1.216  0.3753  0.0900  0.3748
19609SOL    HW162419   3.185   8.609   1.171  0.4508  0.1847  0.4849
19609SOL    HW262420   3.092   8.718   1.219  0.6273  0.0987  1.0218
19610SOL     OW62421   2.171   7.717   5.054 -0.0344  0.3892  0.2426
19610SOL    HW162422   2.148   7.657   4.982 -0.3908  2.6079 -1.6252
19610SOL    HW262423   2.103   7.784   5.051  0.0341  0.6280  2.6383
19611SOL     OW62424   0.661   8.978   0.608 -0.1677  0.4252  0.4454
19611SOL    HW162425   0.682   8.892   0.644 -0.2198  0.4935  0.6372
19611SOL    HW262426   0.693   9.040   0.672 -0.4328  0.5418  0.4679
19612SOL     OW62427   2.864  10.276   0.180 -0.4287  0.2784  0.8620
19612SOL    HW162428   2.771  10.284   0.161 -0.3743 -1.4383 -0.3677
19612SOL    HW262429   2.885  10.185   0.158  1.9305  1.1071 -0.6707
19613SOL     OW62430   3.821   0.784   6.029  0.2429 -0.1081  0.2916
19613SOL    HW162431   3.818   0.846   5.956  1.5360 -0.6697 -0.2670
19613SOL    HW262432   3.737   0.738   6.025  0.0820  0.2425 -0.5075
19614SOL     OW62433   0.372   0.959   3.163  0.8784  0.0443 -0.2881
19614SOL    HW162434   0.318   1.009   3.224  0.0092 -0.0711 -0.9405
19614SOL    HW262435   0.451   0.939   3.213  0.2183 -0.0077  0.7878
19615SOL     OW62436   9.861   6.428   9.803  0.0954  0.1190 -1.0061
19615SOL    HW162437   9.897   6.403   9.888  0.2789  0.0628 -1.1005
19615SOL    HW262438   9.920   6.388   9.739  0.6005  1.0791 -1.1670
19616SOL     OW62439   2.413   4.205   7.162  0.0290 -0.2630  0.0135
19616SOL    HW162440   2.325   4.180   7.133 -0.2032  0.9987 -0.4270
19616SOL    HW262441   2.421   4.298   7.139  0.2697  0.5457  2.9056
19617SOL     OW62442   3.463   6.849   5.041 -0.0292 -0.0747 -0.0085
19617SOL    HW162443   3.540   6.813   4.997  1.0448  2.4521 -0.3349
19617SOL    HW262444   3.391   6.833   4.980  0.3786 -1.5720 -0.1409
19618SOL     OW62445  10.027   2.695   8.899  0.1140 -0.1591 -0.4015
19618SOL    HW162446  10.087   2.725   8.831 -0.9580  0.9014 -0.9237
19618SOL    HW262447  10.082   2.681   8.976  1.0261  0.7520 -0.8645
19619SOL     OW62448   1.126   9.438   9.053  0.4118 -0.4791  0.2456
19619SOL    HW162449   1.169   9.492   8.987  0.1477 -0.5984 -0.0257
19619SOL    HW262450   1.064   9.497   9.096  0.2853 -0.5066  0.1021
19620SOL     OW62451   4.897   0.375   7.000  0.3147  0.4199 -0.4783
19620SOL    HW162452   4.811   0.334   7.009 -0.2467  1.7408  0.6165
19620SOL    HW262453   4.935   0.370   7.088  0.3728  1.8658 -0.3979
19621SOL     OW62454  10.597   4.129   0.633 -0.3599  0.2254 -0.2341
19621SOL    HW162455  10.663   4.060   0.632 -0.2821  0.3056 -0.7159
19621SOL    HW262456  10.619   4.182   0.710 -0.7206 -0.5684  0.4272
19622SOL     OW62457   6.815   9.667   9.741  0.1062  0.1867 -0.0904
19622SOL    HW162458   6.887   9.678   9.679 -2.1980  1.4348 -2.7581
19622SOL    HW262459   6.782   9.579   9.723 -1.4338  1.0456 -1.7746
19623SOL     OW62460   6.526   2.490   8.697 -0.3450  0.1030  0.0219
19623SOL    HW162461   6.575   2.456   8.622 -0.2393  0.0379  0.1189
19623SOL    HW262462   6.593   2.526   8.755 -0.1736 -1.8946  1.1537
19624SOL     OW62463   4.032  10.273   3.881 -0.1248  0.1295 -0.6565
19624SOL    HW162464   3.953  10.326   3.880 -0.0298  0.3647  1.4407
19624SOL    HW262465   4.060  10.271   3.972  0.9236 -1.9937 -0.9547
19625SOL     OW62466   0.210   3.023   2.072 -0.4041 -0.2731 -0.6346
19625SOL    HW162467   0.271   2.976   2.015  0.1494 -0.9591  0.4761
19625SOL    HW262468   0.214   2.975   2.155 -1.6654  0.3095 -0.2136
19626SOL     OW62469   6.756   6.611   5.576 -0.2827 -0.1935  0.5551
19626SOL    HW162470   6.685   6.582   5.519  0.5349  1.5246 -1.4911
19626SOL    HW262471   6.774   6.536   5.633 -0.0658 -2.6983 -2.5352
19627SOL     OW62472   7.582   9.830  10.841  0.5385 -0.5704 -0.6328
19627SOL    HW162473   7.649   9.837  10.773  0.3684 -2.9166 -1.1354
19627SOL    HW262474   7.630   9.798  10.918  0.1750 -1.3806 -0.7305
19628SOL     OW62475   9.401   2.543   2.356  0.6318  0.3722 -0.4768
19628SOL    HW162476   9.446   2.492   2.288  1.5875  0.7344 -0.1344
19628SOL    HW262477   9.346   2.605   2.308  0.8988  0.2734 -0.9132
19629SOL     OW62478  10.106   6.767   3.645 -0.1978  0.0101  0.1261
19629SOL    HW162479  10.112   6.825   3.570 -2.3775  1.6275  1.1040
19629SOL    HW262480  10.095   6.679   3.607  1.2174  0.4409 -1.3770
19630SOL     OW62481   0.567   8.871   8.158 -1.1424 -0.0003 -0.6650
19630SOL    HW162482   0.625   8.946   8.173 -0.7106 -0.6654  1.3078
19630SOL    HW262483   0.485   8.910   8.130 -0.5538  1.1266 -0.8943
19631SOL     OW62484   1.136   3.159   8.416 -0.5403 -0.3639  0.3055
19631SOL    HW162485   1.106   3.079   8.458 -0.0598 -0.1004  1.1748
19631SOL    HW262486   1.171   3.212   8.487 -2.0812  1.2104 -0.0257
19632SOL     OW62487   7.479   7.133   4.081  0.1260 -0.0088  0.2892
19632SOL    HW162488   7.484   7.132   3.985 -0.2485 -2.8403  0.2198
19632SOL    HW262489   7.419   7.205   4.101 -0.1733  0.3285 -1.6521
19633SOL     OW62490   9.845   6.922   3.038  0.0401 -0.3810  0.3047
19633SOL    HW162491   9.919   6.982   3.034  0.0118 -0.3470  0.2927
19633SOL    HW262492   9.811   6.932   3.127 -0.1183 -0.1964  0.2243
19634SOL     OW62493   7.969   1.663   1.374  0.5069 -0.3265 -0.1455
19634SOL    HW162494   7.950   1.742   1.324  0.1094 -0.5156 -0.3005
19634SOL    HW262495   7.912   1.596   1.336  0.0753 -0.4309  0.6531
19635SOL     OW62496   7.243   4.616   3.383 -0.0430  0.7606  0.5126
19635SOL    HW162497   7.204   4.703   3.373  1.2921  1.1514 -2.4591
19635SOL    HW262498   7.303   4.608   3.308  1.0402 -2.1314  1.5447
19636SOL     OW62499   8.634   9.335   7.366 -0.1667  0.1348  0.2120
19636SOL    HW162500   8.571   9.265   7.347  3.1756 -2.9049 -0.8706
19636SOL    HW262501   8.665   9.315   7.454  1.0325  0.0245 -0.2201
19637SOL     OW62502   2.699   8.920   8.988  0.0494  0.5290  0.4336
19637SOL    HW162503   2.664   9.003   9.018 -0.6310  0.1810  0.6133
19637SOL    HW262504   2.631   8.883   8.932  0.3950  0.1524  0.2515
19638SOL     OW62505   9.623   8.455   9.846 -0.2548 -0.2640  0.4350
19638SOL    HW162506   9.604   8.446   9.753 -1.8675  2.3021  0.4298
19638SOL    HW262507   9.575   8.383   9.887 -2.4912  0.6531 -0.4451
19639SOL     OW62508   9.245   6.633   0.999  0.1793 -0.1374  0.1379
19639SOL    HW162509   9.205   6.681   0.926  0.4060  1.4056  0.9768
19639SOL    HW262510   9.172   6.596   1.046  0.0784 -2.2066 -1.5139
19640SOL     OW62511   7.395   1.106   6.842 -0.4236 -0.4268 -0.2299
19640SOL    HW162512   7.483   1.141   6.829 -0.6149 -0.3782 -1.4664
19640SOL    HW262513   7.359   1.097   6.754 -1.4936 -0.8765  0.2363
19641SOL     OW62514   1.640   6.937   3.461  0.5062  0.8157  0.3349
19641SOL    HW162515   1.642   6.973   3.372  0.6497  2.3133  0.9102
19641SOL    HW262516   1.729   6.908   3.478  0.3100 -0.1802 -0.2670
19642SOL     OW62517   0.289   5.093   1.813  0.2960 -0.1701  0.5066
19642SOL    HW162518   0.268   5.119   1.723 -0.5403 -1.0066  0.4441
19642SOL    HW262519   0.332   5.008   1.804  2.0254  0.6377  0.7801
19643SOL     OW62520   8.004   5.191   7.345  0.0024  0.4218  0.3896
19643SOL    HW162521   7.924   5.171   7.297  0.2534  0.5987 -0.1178
19643SOL    HW262522   8.073   5.143   7.298  0.3252  0.9768  0.2801
19644SOL     OW62523   2.914   1.582  10.678 -0.3960  0.6029 -0.5009
19644SOL    HW162524   2.976   1.570  10.607  0.1071  3.0899 -0.5840
19644SOL    HW262525   2.966   1.572  10.758 -0.4122  0.3018 -0.5281
19645SOL     OW62526   3.068   0.504   2.035  0.0183  0.5422  0.1759
19645SOL    HW162527   3.030   0.567   1.974 -0.2253  0.7047  0.4933
19645SOL    HW262528   3.019   0.423   2.020  0.8721  0.1762 -0.8106
19646SOL     OW62529   2.990   6.917  10.811 -0.1207 -0.0859 -0.8309
19646SOL    HW162530   3.023   6.883  10.727  4.2180 -1.0721  1.0173
19646SOL    HW262531   2.968   7.008  10.793  0.4821 -0.3306 -3.1054
19647SOL     OW62532   4.515   1.384   2.891  0.3392 -0.0402  0.2773
19647SOL    HW162533   4.601   1.425   2.895 -0.6267  2.0448  1.3854
19647SOL    HW262534   4.456   1.455   2.866 -1.1698 -1.2212  0.3625
19648SOL     OW62535   8.478   4.870   9.193 -0.3057 -0.1095  0.0736
19648SOL    HW162536   8.533   4.948   9.186 -0.9784  0.3809  0.0819
19648SOL    HW262537   8.526   4.802   9.148  0.0146  0.4703 -0.4725
19649SOL     OW62538  10.618   1.716   5.617  0.2911 -0.3024  0.2625
19649SOL    HW162539  10.576   1.780   5.674  0.3109 -0.5820  0.5967
19649SOL    HW262540  10.617   1.635   5.668 -1.1239 -0.9643 -0.7416
19650SOL     OW62541   8.683   8.825   0.280  0.2534  0.3346 -0.7491
19650SOL    HW162542   8.661   8.917   0.263  0.6388  0.2937 -1.5010
19650SOL    HW262543   8.753   8.829   0.345 -1.7514  0.4699  1.5555
19651SOL     OW62544   2.916  10.457   5.832 -0.0303  0.2168  0.1295
19651SOL    HW162545   2.821  10.448   5.821  0.1116 -0.2918 -0.8999
19651SOL    HW262546   2.951  10.443   5.744  0.9159  1.9429  0.1892
19652SOL     OW62547   4.484   1.282   0.093 -0.2303  0.0538  0.1624
19652SOL    HW162548   4.466   1.373   0.067 -0.3688  0.4628  1.5715
19652SOL    HW262549   4.401   1.252   0.130  0.4877  0.2355  2.0457
19653SOL     OW62550   7.210   9.133   6.970 -0.1408 -0.0329 -0.1935
19653SOL    HW162551   7.192   9.117   6.877 -1.9618 -0.3330  0.1559
19653SOL    HW262552   7.144   9.197   6.996 -0.5027 -0.9316  1.1790
19654SOL     OW62553   6.862   3.284   5.244 -0.1716 -0.1892 -0.3593
19654SOL    HW162554   6.876   3.295   5.150  2.4483  0.6917  0.0551
19654SOL    HW262555   6.942   3.317   5.284 -0.5018 -2.0746  2.1179
19655SOL     OW62556   2.242   0.472  10.105  0.7792  0.0800  0.2696
19655SOL    HW162557   2.190   0.486  10.183  3.1047 -1.2343  2.1948
19655SOL    HW262558   2.209   0.390  10.068 -0.8103  1.0739 -0.6321
19656SOL     OW62559   6.881   7.672   4.334 -0.0979 -0.2998 -0.2323
19656SOL    HW162560   6.924   7.685   4.249 -0.9050 -0.4866 -0.6848
19656SOL    HW262561   6.816   7.742   4.339  0.3983  0.1232  0.5495
19657SOL     OW62562   5.439  10.774   6.636 -0.2189 -0.5613 -0.2342
19657SOL    HW162563   5.389  10.723   6.573  0.7688 -0.2859 -1.2634
19657SOL    HW262564   5.508  10.715   6.667 -0.3515 -0.5139  0.1635
19658SOL     OW62565   4.942   4.594   7.942  0.1466 -0.4858  0.3185
19658SOL    HW162566   4.978   4.652   8.009 -0.7933  0.8527 -0.2960
19658SOL    HW262567   5.015   4.536   7.919  1.1197  0.4403  0.9599
19659SOL     OW62568   7.472   2.959   7.158  0.7001 -0.0529 -0.0390
19659SOL    HW162569   7.524   2.909   7.095  0.5934  0.3300 -0.4371
19659SOL    HW262570   7.399   2.901   7.181  1.5464 -0.7880  0.8946
19660SOL     OW62571   6.989   1.663   8.531  0.4224 -0.5210 -0.4279
19660SOL    HW162572   7.073   1.648   8.487  1.3150  0.6617  0.7860
19660SOL    HW262573   6.970   1.581   8.575  0.5298 -1.0528 -1.3420
19661SOL     OW62574   8.912   0.812   5.205  0.3504 -0.0666  0.1523
19661SOL    HW162575   8.852   0.740   5.230 -1.2803  1.3334  0.4852
19661SOL    HW262576   8.954   0.837   5.288  0.6250 -0.3640  0.1056
19662SOL     OW62577   9.264   7.600   3.225 -0.0769 -0.1074 -0.1887
19662SOL    HW162578   9.309   7.660   3.165  1.7898 -0.4698  0.7681
19662SOL    HW262579   9.233   7.655   3.296 -0.0649 -0.0128 -0.2575
19663SOL     OW62580   4.670   6.373   8.601  0.1155 -0.5115  0.1289
19663SOL    HW162581   4.596   6.336   8.649 -2.2081  1.5040 -1.6255
19663SOL    HW262582   4.660   6.341   8.512  0.6967  0.6635 -0.3822
19664SOL     OW62583   6.844  10.625   8.345 -0.2449 -0.0145  0.6114
19664SOL    HW162584   6.809  10.542   8.311  0.5333 -0.0571 -0.1210
19664SOL    HW262585   6.906  10.598   8.413  0.9027 -0.1152 -0.4379
19665SOL     OW62586   0.293   7.678  10.612 -0.2897 -0.1554 -0.2343
19665SOL    HW162587   0.344   7.756  10.632 -1.0840  0.6538 -1.2585
19665SOL    HW262588   0.330   7.610  10.668 -0.3997  1.2329  1.6371
19666SOL     OW62589   0.183   8.240   0.094 -0.2090 -0.1614  0.1365
19666SOL    HW162590   0.208   8.276   0.179  3.1980 -1.6877 -0.0836
19666SOL    HW262591   0.184   8.145   0.107  2.2321 -0.5183 -1.9439
19667SOL     OW62592   6.351   3.378   1.847 -0.4184 -0.2207  0.0605
19667SOL    HW162593   6.401   3.367   1.766  0.5451 -0.9020  0.7306
19667SOL    HW262594   6.317   3.291   1.866 -1.8814  0.2279 -0.3760
19668SOL     OW62595   2.596   2.071   5.399  0.3377  0.0954 -0.1312
19668SOL    HW162596   2.631   2.004   5.340  1.5418  0.0883  0.5471
19668SOL    HW262597   2.505   2.046   5.413  0.5446 -0.9399 -0.5333
19669SOL     OW62598   9.859   1.238   9.147 -0.0378  0.1319  0.6514
19669SOL    HW162599   9.840   1.330   9.129 -0.2954  0.4863  2.4979
19669SOL    HW262600   9.953   1.229   9.129 -0.4545  0.1156 -1.8366
19670SOL     OW62601   4.973   3.171  10.240  0.2095  0.1301 -0.2109
19670SOL    HW162602   4.993   3.221  10.319 -0.4327 -0.3390  0.2554
19670SOL    HW262603   4.963   3.081  10.270 -0.8267  0.0684 -0.7016
19671SOL     OW62604  10.904   4.889   8.745  0.5860 -0.3151  0.4580
19671SOL    HW162605  10.956   4.828   8.796 -0.1370 -1.4319 -0.1011
19671SOL    HW262606  10.948   4.973   8.756  1.8678 -1.0183  0.8657
19672SOL     OW62607   5.358   0.711   5.045 -0.7091 -0.0613 -0.3764
19672SOL    HW162608   5.453   0.697   5.051 -0.5684  1.2407  2.2918
19672SOL    HW262609   5.320   0.624   5.044  0.4991 -0.6374  0.7215
19673SOL     OW62610   1.195   6.987   0.149  0.7190 -0.0264  0.3014
19673SOL    HW162611   1.124   7.039   0.112  2.2918  1.7011 -0.4818
19673SOL    HW262612   1.187   6.901   0.108  0.1926  0.7166 -1.2342
19674SOL     OW62613   1.291   6.237   9.591  0.2641 -0.2960  0.9694
19674SOL    HW162614   1.361   6.246   9.527  0.1408  0.4702  0.9240
19674SOL    HW262615   1.243   6.320   9.585 -0.2363 -0.5423  1.4741
19675SOL     OW62616   6.455   3.431   2.385  0.3312 -0.2186 -0.0315
19675SOL    HW162617   6.381   3.454   2.329 -2.2720 -2.4494  2.1423
19675SOL    HW262618   6.446   3.488   2.462  1.9677  0.6637 -0.4511
19676SOL     OW62619   8.452   1.519   8.019 -0.2750  0.2285 -0.1378
19676SOL    HW162620   8.471   1.578   7.946  0.0289 -1.1859 -1.2548
19676SOL    HW262621   8.360   1.496   8.009  0.1490 -1.2115 -1.0753
19677SOL     OW62622   5.912   5.096   3.933 -0.6501 -0.2331 -0.0464
19677SOL    HW162623   5.978   5.032   3.961 -2.2858 -1.5149  1.0625
19677SOL    HW262624   5.864   5.052   3.863 -0.5204  0.5784 -0.6555
19678SOL     OW62625   5.230   3.770   2.027  0.3281 -0.0120 -0.2593
19678SOL    HW162626   5.183   3.789   1.945 -0.2698 -0.3573 -0.0035
19678SOL    HW262627   5.161   3.762   2.093  0.9456  3.1640  0.9138
19679SOL     OW62628   7.606   0.130  10.931  0.6163 -0.3035  0.3518
19679SOL    HW162629   7.649   0.151  11.014  1.1338 -1.1063  0.2922
19679SOL    HW262630   7.672   0.148  10.865  0.4974 -0.5163  0.1751
19680SOL     OW62631   3.216   2.979   5.878  0.1985  0.5426  0.5005
19680SOL    HW162632   3.298   2.954   5.835 -0.3913 -1.5774  0.4724
19680SOL    HW262633   3.243   3.015   5.962  1.1604 -1.4920  1.1341
19681SOL     OW62634   9.237   4.304   5.328 -0.2264  0.1909 -0.2296
19681SOL    HW162635   9.149   4.331   5.355 -0.2140  0.2333 -0.2314
19681SOL    HW262636   9.289   4.308   5.409 -0.6250 -1.5067  0.1619
19682SOL     OW62637   0.889   0.654   3.538 -0.2985  0.5014 -0.1462
19682SOL    HW162638   0.843   0.583   3.492 -1.4096  0.8916  0.3189
19682SOL    HW262639   0.820   0.718   3.557 -0.0311  0.0719  2.6292
19683SOL     OW62640   8.681   6.231  10.195  0.1527  0.2026  0.0088
19683SOL    HW162641   8.648   6.199  10.111 -0.1615  0.2166  0.1248
19683SOL    HW262642   8.771   6.199  10.199 -0.2252 -0.8810  0.2202
19684SOL     OW62643   7.358   2.743   7.443 -0.2436  0.3138  0.5365
19684SOL    HW162644   7.308   2.686   7.501 -1.5629  2.7689  2.0170
19684SOL    HW262645   7.292   2.782   7.385  0.3899  1.3015  0.4617
19685SOL     OW62646  11.064   3.765   4.884  0.0907  0.6202  0.4666
19685SOL    HW162647  11.069   3.704   4.810 -4.5597 -0.0021  0.3162
19685SOL    HW262648  11.083   3.850   4.845  3.4188 -0.2040 -0.0348
19686SOL     OW62649   6.542  10.657   6.717 -0.4101  0.6536  0.0414
19686SOL    HW162650   6.480  10.719   6.755 -0.9754  1.7671 -2.4777
19686SOL    HW262651   6.603  10.637   6.788 -1.2555  2.7132  1.4425
19687SOL     OW62652   0.847   2.717   9.409  0.2001 -0.2124  0.5755
19687SOL    HW162653   0.884   2.787   9.462  0.2149  0.7576 -0.6790
19687SOL    HW262654   0.898   2.639   9.433 -1.0747 -0.2804  3.3986
19688SOL     OW62655  10.903   1.316  10.615 -0.3209 -0.3555  0.5220
19688SOL    HW162656  10.900   1.300  10.520  1.1723 -0.4558  0.4622
19688SOL    HW262657  10.972   1.258  10.647  0.2672  0.7839  1.4178
19689SOL     OW62658   2.886   2.570   6.355 -0.5957 -0.6401  0.1931
19689SOL    HW162659   2.922   2.491   6.313  0.0943  0.1869 -0.8193
19689SOL    HW262660   2.880   2.548   6.448 -1.3946 -2.2510 -0.2027
19690SOL     OW62661   7.443   2.643   9.466 -0.5132 -0.1841 -0.3630
19690SOL    HW162662   7.501   2.717   9.482 -1.9525  0.7697  0.6324
19690SOL    HW262663   7.358   2.682   9.446 -0.7385 -1.5375 -2.3290
19691SOL     OW62664   0.813  10.669   0.964  0.1535 -0.3105 -0.1620
19691SOL    HW162665   0.890  10.680   0.908  0.6661  1.4246  0.8284
19691SOL    HW262666   0.849  10.638   1.047 -0.3301 -0.3500  0.0347
19692SOL     OW62667   7.762   9.595   9.026 -0.1855  0.0713  0.1188
19692SOL    HW162668   7.763   9.642   9.109  1.8450 -1.7845  1.2708
19692SOL    HW262669   7.766   9.663   8.959 -1.6806  1.6089  1.5250
19693SOL     OW62670   5.419   7.152   5.622 -0.3026  0.0156 -0.1870
19693SOL    HW162671   5.419   7.202   5.540  0.0700 -2.1325 -1.5586
19693SOL    HW262672   5.329   7.122   5.631 -0.4214  0.5239  0.4032
19694SOL     OW62673   3.876   6.951   7.973  0.2248 -0.1981 -0.3961
19694SOL    HW162674   3.891   6.951   7.879 -0.9710  2.2136 -0.6488
19694SOL    HW262675   3.818   7.025   7.989  1.7669  0.5671  2.4447
19695SOL     OW62676   8.716   5.511  10.846  0.2190 -0.0644 -0.2831
19695SOL    HW162677   8.782   5.553  10.901 -0.7488 -0.1482  0.9959
19695SOL    HW262678   8.645   5.575  10.841 -0.1645 -0.4984 -0.5030
19696SOL     OW62679   9.269  10.991  10.973  0.3007  0.2043 -0.0807
19696SOL    HW162680   9.320  10.960  10.898  2.0830  2.0085  0.3126
19696SOL    HW262681   9.247  11.081  10.951  1.0490  0.8431  1.6129
19697SOL     OW62682   4.018   6.255   2.757  0.0519 -0.6806 -0.5036
19697SOL    HW162683   4.006   6.321   2.825  1.5090 -2.5218  1.6923
19697SOL    HW262684   4.048   6.305   2.680  3.7739  1.1086  1.8075
19698SOL     OW62685   3.447   0.031   2.096 -0.0053 -0.6075 -0.4719
19698SOL    HW162686   3.357   0.056   2.116  1.0237  0.6376  3.6571
19698SOL    HW262687   3.470   0.083   2.019 -2.8167 -1.1961 -1.8312
19699SOL     OW62688   8.864   2.862   1.019 -0.7208  0.4126  0.5233
19699SOL    HW162689   8.862   2.905   0.933 -1.6031 -0.1774  0.2356
19699SOL    HW262690   8.870   2.769   0.999  2.6633  0.3560  1.1349
19700SOL     OW62691   0.533   1.037   7.941 -0.2019 -0.1548 -0.2436
19700SOL    HW162692   0.512   1.056   8.033  0.6555 -0.4024  0.0076
19700SOL    HW262693   0.457   1.070   7.893 -1.1396 -0.9445  0.6277
19701SOL     OW62694   5.015   5.846   2.523  0.5092  0.0396  0.1245
19701SOL    HW162695   5.100   5.889   2.537  0.5665 -0.0242 -0.0238
19701SOL    HW262696   4.955   5.917   2.502  0.2750  0.2216  1.3017
19702SOL     OW62697   6.135  10.749   5.290  0.2649 -0.2967  0.1096
19702SOL    HW162698   6.070  10.801   5.337  1.1735 -0.1717  1.2621
19702SOL    HW262699   6.215  10.802   5.292  0.9217 -1.2765  0.4065
19703SOL     OW62700   4.447   5.558   9.149  0.3773 -0.3472  0.0840
19703SOL    HW162701   4.376   5.521   9.201  0.3227 -0.4255 -0.0483
19703SOL    HW262702   4.439   5.517   9.064 -0.9174  1.4074 -0.7187
19704SOL     OW62703   0.630   5.694   2.056  0.1421 -0.3919 -0.0534
19704SOL    HW162704   0.679   5.617   2.025  1.9988  0.7521 -0.1278
19704SOL    HW262705   0.541   5.680   2.026  0.7926 -1.7427 -1.4955
19705SOL     OW62706   9.501   3.005   9.710 -0.7129  0.0567  0.2386
19705SOL    HW162707   9.486   2.912   9.728 -3.8977  0.7337  1.8560
19705SOL    HW262708   9.455   3.022   9.628  2.3367 -0.2448 -1.6964
19706SOL     OW62709   0.951   1.308  10.067  0.0708 -0.6986  0.1907
19706SOL    HW162710   1.001   1.357  10.001 -0.9381 -1.5131 -1.2341
19706SOL    HW262711   0.990   1.334  10.151  1.0293  0.7970 -0.6730
19707SOL     OW62712  10.771   2.813   4.998  0.5906  0.0737  0.1124
19707SOL    HW162713  10.781   2.872   5.072 -1.1840 -1.0866  1.3368
19707SOL    HW262714  10.845   2.752   5.006  0.7698  0.3436  0.5508
19708SOL     OW62715   0.974   6.438  10.655  0.0080 -0.3383  0.6862
19708SOL    HW162716   0.896   6.446  10.711 -0.5105 -0.8546  0.0502
19708SOL    HW262717   0.955   6.492  10.579 -0.0026 -0.9718  0.2323
19709SOL     OW62718   3.065   4.747   5.185 -0.2737 -0.1735  0.0845
19709SOL    HW162719   3.099   4.820   5.134  1.0024 -0.0087  1.1126
19709SOL    HW262720   2.972   4.767   5.197 -0.1893  0.6920 -0.6235
19710SOL     OW62721   8.665   4.442   6.224 -0.0263 -0.2230  0.2428
19710SOL    HW162722   8.595   4.460   6.288  0.4176 -0.3848  0.7748
19710SOL    HW262723   8.744   4.475   6.266  0.3254 -0.6677 -0.0762
19711SOL     OW62724   2.588   7.831   7.319 -0.2930  0.0913 -0.4225
19711SOL    HW162725   2.672   7.863   7.286 -0.1787 -0.2874 -0.5122
19711SOL    HW262726   2.583   7.741   7.286 -0.0497 -0.3962  0.8042
19712SOL     OW62727   5.069   1.655   3.827  0.4909  0.0666  0.5387
19712SOL    HW162728   5.077   1.748   3.805  1.5228 -0.3646 -1.1446
19712SOL    HW262729   4.979   1.645   3.857  0.6025  1.7452  1.5543
19713SOL     OW62730  10.505   7.785  11.056 -0.0349  0.7077  0.0670
19713SOL    HW162731  10.544   7.806  11.141 -1.5813  0.7554  0.8022
19713SOL    HW262732  10.522   7.691  11.045 -1.7455  0.1515  1.5448
19714SOL     OW62733   6.858   9.067   1.254 -0.1700  0.8235  0.2909
19714SOL    HW162734   6.785   9.037   1.308 -0.7171 -0.6483 -1.1821
19714SOL    HW262735   6.818   9.121   1.187  0.5806  3.2020  1.6323
19715SOL     OW62736   1.508   7.911   3.200 -0.2955  0.5909 -0.0866
19715SOL    HW162737   1.529   7.933   3.109  0.4427  0.3069  0.0086
19715SOL    HW262738   1.413   7.920   3.205 -0.4314 -0.1166 -1.0881
19716SOL     OW62739  10.893   8.226   9.536  0.3832  0.3272  0.5603
19716SOL    HW162740  10.831   8.153   9.524  1.7538 -0.7660 -0.1150
19716SOL    HW262741  10.838   8.304   9.534 -0.8718 -0.5365 -1.2597
19717SOL     OW62742   6.411   7.374   5.207  0.1145  0.2027  0.0619
19717SOL    HW162743   6.335   7.431   5.216  0.0258  0.0269  0.4122
19717SOL    HW262744   6.437   7.385   5.115  0.7475  1.6259  0.3755
19718SOL     OW62745   2.791  10.039   8.169 -0.0623 -0.1716 -0.0813
19718SOL    HW162746   2.840  10.059   8.090 -0.8024  0.5675 -0.3591
19718SOL    HW262747   2.706  10.080   8.157 -0.6013 -1.0324  0.5973
19719SOL     OW62748   7.726   8.434   3.886 -0.2822  0.2258 -0.0465
19719SOL    HW162749   7.764   8.372   3.824  2.4798  1.3345  0.3859
19719SOL    HW262750   7.661   8.383   3.934  1.5893 -2.2770  0.0536
19720SOL     OW62751  10.345   9.469   2.144 -0.3994 -0.7290  0.3702
19720SOL    HW162752  10.369   9.379   2.120  1.5685  0.0621 -0.8582
19720SOL    HW262753  10.424   9.504   2.186 -1.2408  0.3559  1.0821
19721SOL     OW62754   4.169   6.049   0.928  0.1782  0.5603 -0.7873
19721SOL    HW162755   4.092   6.054   0.871 -0.7338  1.0845  0.4364
19721SOL    HW262756   4.242   6.075   0.872 -0.2700 -1.4227 -2.4050
19722SOL     OW62757   0.029  10.982   6.954 -0.3226  0.2410 -0.3224
19722SOL    HW162758   0.015  10.913   7.019 -1.6016 -0.9714 -1.7828
19722SOL    HW262759   0.121  10.975   6.931  0.0535  0.4376  1.0585
19723SOL     OW62760  11.040   5.803   4.703 -0.5030 -0.2558 -0.0592
19723SOL    HW162761  11.090   5.731   4.743 -2.4951 -1.1719  0.9513
19723SOL    HW262762  11.085   5.882   4.731 -0.4692 -0.9796  2.1862
19724SOL     OW62763   8.825  10.086  10.963 -0.3352  0.2490 -0.3270
19724SOL    HW162764   8.893  10.031  11.001 -1.7153 -0.6601  0.9125
19724SOL    HW262765   8.810  10.049  10.876 -0.2375 -0.4312 -0.0615
19725SOL     OW62766   3.523  10.468   9.272  0.8736 -0.3289  0.2239
19725SOL    HW162767   3.445  10.523   9.284 -1.0380 -2.6713 -0.5130
19725SOL    HW262768   3.574  10.481   9.352  0.5803  2.4492  0.0781
19726SOL     OW62769   9.741   4.345   6.468  1.1378 -0.0041 -0.4822
19726SOL    HW162770   9.733   4.289   6.545  1.1997  0.6521  0.0113
19726SOL    HW262771   9.769   4.286   6.398  2.0303 -0.4443  0.2262
19727SOL     OW62772   2.622   5.046   2.661  0.3074 -0.1343  0.6482
19727SOL    HW162773   2.562   5.080   2.728 -0.3528 -3.1342  1.7746
19727SOL    HW262774   2.593   4.955   2.648  2.7521 -0.7622 -1.0166
19728SOL     OW62775   3.899   9.239   6.964 -0.0014  0.2664 -0.0549
19728SOL    HW162776   3.892   9.298   7.039 -1.6169 -1.2300  1.0267
19728SOL    HW262777   3.837   9.274   6.900 -1.2265 -0.4059  0.7257
19729SOL     OW62778   8.897   3.516  10.748 -0.0231  0.0671  0.0563
19729SOL    HW162779   8.858   3.573  10.814  3.3880  0.3630  2.0524
19729SOL    HW262780   8.956   3.459  10.797  2.7038  0.2649 -2.7036
19730SOL     OW62781   7.625   1.366   5.218 -0.2270 -0.2512  0.3304
19730SOL    HW162782   7.530   1.371   5.205 -0.1956  0.1090  0.2464
19730SOL    HW262783   7.650   1.282   5.177 -0.3142  0.2751 -0.8451
19731SOL     OW62784   3.771   3.939   4.209  0.7650 -0.0975 -0.8877
19731SOL    HW162785   3.756   3.865   4.149 -0.1171  0.1892 -1.0483
19731SOL    HW262786   3.773   4.016   4.152 -1.0522  0.2948 -0.5161
19732SOL     OW62787   9.804   9.040   9.297 -0.0420  0.1830 -0.1860
19732SOL    HW162788   9.732   9.054   9.359  1.0402 -2.0054  1.7190
19732SOL    HW262789   9.764   8.991   9.226 -0.5607 -0.6363  0.6438
19733SOL     OW62790  10.919   8.238   7.359 -0.0899 -0.4293  0.5420
19733SOL    HW162791  10.870   8.266   7.281  2.0107 -1.2787 -1.2002
19733SOL    HW262792  10.867   8.167   7.396 -1.5469  0.5453  0.4345
19734SOL     OW62793   5.387   4.541   7.506 -0.0513  0.0369 -0.4897
19734SOL    HW162794   5.473   4.502   7.492  0.2675  0.4227  0.2889
19734SOL    HW262795   5.375   4.600   7.432  0.5189  0.2468 -0.4242
19735SOL     OW62796   4.758   4.951  11.055 -0.5866  0.4377  0.3074
19735SOL    HW162797   4.761   4.991  11.142  0.6391 -2.3720  1.6963
19735SOL    HW262798   4.824   4.999  11.004  0.0950  0.8731  1.5502
19736SOL     OW62799   4.544   1.700  10.981 -0.2265 -0.0724  0.1842
19736SOL    HW162800   4.503   1.616  10.958  2.7630 -1.7546  0.4217
19736SOL    HW262801   4.551   1.697  11.077  0.5561  0.0710  0.1405
19737SOL     OW62802   9.606   5.848   2.506 -0.4944  0.0949  0.1319
19737SOL    HW162803   9.563   5.932   2.522  0.8409  0.7001  0.6399
19737SOL    HW262804   9.695   5.871   2.481 -0.0999 -1.1831  0.3003
19738SOL     OW62805   5.866   4.622   8.273  0.4860 -0.6171  0.4462
19738SOL    HW162806   5.839   4.533   8.296 -0.2892 -0.1134  1.5867
19738SOL    HW262807   5.891   4.616   8.181  0.3162 -1.9811  0.4599
19739SOL     OW62808   3.110  10.894   4.452 -0.2987  0.3431 -0.5413
19739SOL    HW162809   3.199  10.896   4.487  0.7302 -2.3137 -2.6826
19739SOL    HW262810   3.119  10.922   4.361 -1.4841 -0.6861 -1.0038
19740SOL     OW62811  10.174   7.686   1.676 -0.0101  0.1648 -0.3145
19740SOL    HW162812  10.214   7.761   1.631 -1.8062  0.8215 -0.8847
19740SOL    HW262813  10.082   7.709   1.684 -0.4064 -1.5498  0.4577
19741SOL     OW62814   9.368   2.317   4.569 -0.3486  0.0940  0.4334
19741SOL    HW162815   9.461   2.341   4.574 -0.7135  2.1728 -1.3120
19741SOL    HW262816   9.324   2.381   4.626 -0.7289 -1.0267  1.4392
19742SOL     OW62817   8.968   0.891   4.237  0.3133 -0.3167  0.2163
19742SOL    HW162818   8.918   0.954   4.185  0.6621 -0.4514 -0.2931
19742SOL    HW262819   8.982   0.817   4.177  1.6063 -0.0448  0.1547
19743SOL     OW62820  10.237   0.387   6.971  0.4431 -0.4166 -0.0006
19743SOL    HW162821  10.170   0.370   7.037  0.7747  0.4613  0.5819
19743SOL    HW262822  10.196   0.366   6.888  0.0357 -1.6153  0.4805
19744SOL     OW62823   0.344   4.857   4.957 -0.1195 -0.1953  0.2018
19744SOL    HW162824   0.310   4.849   4.868 -1.9157  0.5055  0.7835
19744SOL    HW262825   0.355   4.951   4.971 -2.2761 -0.0523  1.5029
19745SOL     OW62826   0.326   0.087   1.973  0.6124 -0.5614 -0.3081
19745SOL    HW162827   0.406   0.102   1.922  0.1395  0.6171 -0.7456
19745SOL    HW262828   0.320   0.163   2.031 -0.6453 -0.1775 -0.9143
19746SOL     OW62829   6.595   0.794   7.682  0.1871  0.3276  0.4468
19746SOL    HW162830   6.606   0.713   7.732 -0.6461 -0.1194 -0.0582
19746SOL    HW262831   6.607   0.864   7.746 -0.3112 -0.2240  1.1595
19747SOL     OW62832   0.137   5.254   9.705 -0.5488 -0.3113  0.1776
19747SOL    HW162833   0.215   5.286   9.750 -0.1524 -3.1224  1.7202
19747SOL    HW262834   0.169   5.223   9.620 -0.3589  0.2822  0.0277
19748SOL     OW62835   7.564   8.086   9.959 -0.1350  0.2606 -0.3179
19748SOL    HW162836   7.564   8.114   9.867  0.8250 -1.7277 -0.9800
19748SOL    HW262837   7.653   8.053   9.973 -1.3848 -3.3365  0.0381
19749SOL     OW62838   1.637   7.924   3.934  0.4191 -0.4235  0.1210
19749SOL    HW162839   1.620   8.005   3.886  0.1924 -0.3315  0.3563
19749SOL    HW262840   1.632   7.855   3.868 -3.1493 -0.6941  0.5001
19750SOL     OW62841   4.349   4.316   8.946  0.9075  0.2553 -0.4627
19750SOL    HW162842   4.298   4.278   8.875 -0.4604 -0.3898  0.8018
19750SOL    HW262843   4.403   4.383   8.904  0.6733 -0.5855 -2.1889
19751SOL     OW62844   8.637   3.052   7.875  0.3244 -0.2407  0.0715
19751SOL    HW162845   8.672   2.965   7.854 -1.9040 -1.0166 -0.7816
19751SOL    HW262846   8.574   3.036   7.946 -0.8586  0.4797 -0.7796
19752SOL     OW62847   2.182   6.306  10.192  0.6856 -0.3628 -0.2341
19752SOL    HW162848   2.179   6.237  10.126  0.0247 -1.8938  1.3452
19752SOL    HW262849   2.236   6.270  10.262 -0.1133  0.4957  0.8577
19753SOL     OW62850   4.237   3.554   7.697  0.4793 -0.0106  0.3034
19753SOL    HW162851   4.151   3.572   7.657  2.1327  1.3250 -3.0180
19753SOL    HW262852   4.231   3.463   7.727 -1.9073 -0.1346 -0.3341
19754SOL     OW62853   5.029   7.327  10.503  0.3015 -0.0133  0.4159
19754SOL    HW162854   4.973   7.398  10.470 -1.4310 -1.8873 -0.9226
19754SOL    HW262855   5.108   7.332  10.447 -0.1821  0.3107 -0.2560
19755SOL     OW62856   6.571   6.920   5.166 -0.2876  0.1963 -0.5383
19755SOL    HW162857   6.646   6.971   5.196 -0.1482 -0.7209  0.7810
19755SOL    HW262858   6.608   6.851   5.111 -0.1193 -0.3155  0.1914
19756SOL     OW62859  10.001   7.776   5.903 -0.2817  0.0157 -0.6277
19756SOL    HW162860  10.089   7.737   5.908 -0.3860 -0.2917 -1.0601
19756SOL    HW262861   9.968   7.748   5.817 -0.0168  1.8111 -1.3444
19757SOL     OW62862   8.610   9.591   7.298 -0.2582 -0.6751 -0.2730
19757SOL    HW162863   8.532   9.626   7.341 -0.0776  0.3182 -0.7147
19757SOL    HW262864   8.620   9.503   7.333 -1.6209 -0.8470 -0.2702
19758SOL     OW62865  10.288   2.891   3.325 -0.2763 -0.0998 -0.4235
19758SOL    HW162866  10.240   2.893   3.242 -0.2325 -0.5575 -0.4623
19758SOL    HW262867  10.267   2.974   3.367 -1.0672 -0.2724 -0.4587
19759SOL     OW62868   0.873   4.566   8.312  0.0046 -0.6030 -0.2347
19759SOL    HW162869   0.787   4.579   8.271 -0.2054 -1.3940 -0.0671
19759SOL    HW262870   0.894   4.474   8.294  1.9096  0.1453 -2.3011
19760SOL     OW62871   8.322   5.454   0.721 -0.1747  0.2349  0.4129
19760SOL    HW162872   8.406   5.438   0.679 -1.5292  1.8548 -3.3998
19760SOL    HW262873   8.279   5.368   0.722 -0.0370  0.0970 -1.6638
19761SOL     OW62874   0.209   9.457   2.189  0.0750 -0.0683 -0.3495
19761SOL    HW162875   0.189   9.460   2.283  0.5357  0.4802 -0.2656
19761SOL    HW262876   0.269   9.383   2.180  0.8862  0.5255 -0.0300
19762SOL     OW62877   6.810   6.460   9.975  0.4444  0.3227 -0.4824
19762SOL    HW162878   6.728   6.509   9.976  0.0802 -0.2697 -0.7928
19762SOL    HW262879   6.855   6.492   9.897 -0.6187 -1.1399 -1.7507
19763SOL     OW62880   3.053   5.880   2.328 -0.5054 -0.2977  0.8260
19763SOL    HW162881   3.068   5.959   2.380 -1.4834  0.2188  0.3501
19763SOL    HW262882   2.989   5.907   2.262  2.1971 -0.3121 -2.0083
19764SOL     OW62883   4.563   8.995   9.800 -0.3229  0.2368 -0.4992
19764SOL    HW162884   4.508   9.074   9.801 -0.0296  0.4484 -0.7344
19764SOL    HW262885   4.537   8.949   9.720 -0.1084  0.3749 -0.6502
19765SOL     OW62886   3.074   4.115   9.018  0.3453  0.1811 -0.2735
19765SOL    HW162887   3.020   4.172   9.072  1.8194  1.9455 -0.5638
19765SOL    HW262888   3.071   4.155   8.931  0.1314 -1.1100 -0.8777
19766SOL     OW62889   7.960   2.532   0.841 -0.3912 -0.6104 -0.0131
19766SOL    HW162890   7.927   2.598   0.781 -0.4208 -1.5459 -1.0627
19766SOL    HW262891   7.893   2.524   0.909 -1.6256 -1.3934 -1.2855
19767SOL     OW62892   8.576  10.264   7.730  0.1589  0.5348  0.3590
19767SOL    HW162893   8.640  10.270   7.801 -1.4338  2.0262  1.7555
19767SOL    HW262894   8.561  10.354   7.702 -1.1768  0.2061 -0.0756
19768SOL     OW62895   6.563  10.460   1.763  0.5041  0.3367 -0.4755
19768SOL    HW162896   6.509  10.395   1.717 -0.6271 -0.4856  1.8587
19768SOL    HW262897   6.547  10.541   1.714 -2.4668  0.0070 -0.2749
19769SOL     OW62898   7.510   0.272   4.223 -0.3645 -0.7642  0.2424
19769SOL    HW162899   7.516   0.334   4.296 -3.2030 -0.4634  0.3210
19769SOL    HW262900   7.515   0.327   4.144 -1.8153 -0.5010  0.3044
19770SOL     OW62901   5.216   0.342   0.374  0.2627 -0.2450 -0.6372
19770SOL    HW162902   5.298   0.375   0.336  1.6480 -2.7848 -0.0528
19770SOL    HW262903   5.169   0.305   0.299 -0.1316  0.7317 -0.8870
19771SOL     OW62904   5.025   3.616   3.200 -0.3140  0.0913 -0.1328
19771SOL    HW162905   5.036   3.526   3.232  1.8097  0.7861  1.3421
19771SOL    HW262906   4.983   3.606   3.115  0.5908 -2.3772 -0.3903
19772SOL     OW62907   1.985  11.093   6.669 -0.3081 -0.1024  0.5438
19772SOL    HW162908   1.992  11.017   6.612  2.0749  0.0997  0.4668
19772SOL    HW262909   1.994  11.168   6.610  0.6056  0.1408  0.9736
19773SOL     OW62910   0.157  10.964   0.134 -0.2724 -0.3998 -0.6114
19773SOL    HW162911   0.197  11.051   0.135  0.4280 -0.6415  2.6436
19773SOL    HW262912   0.067  10.978   0.165  0.2660 -0.9302  1.3096
19774SOL     OW62913   5.935   9.065   0.359  0.9121 -0.1404 -0.4246
19774SOL    HW162914   5.970   9.021   0.437 -2.3766 -1.8823  0.2539
19774SOL    HW262915   5.960   9.008   0.286 -0.1291 -1.2066  0.0125
19775SOL     OW62916   2.984   0.629   4.768  0.8148  0.3134  0.4652
19775SOL    HW162917   2.899   0.623   4.811  0.4455  0.3361 -0.2474
19775SOL    HW262918   3.024   0.707   4.806  0.4190  0.4349  0.6369
19776SOL     OW62919   3.992   8.141   3.166  0.1716  0.3365  0.4332
19776SOL    HW162920   3.939   8.063   3.150  0.1312  0.2828  0.8271
19776SOL    HW262921   3.993   8.151   3.261 -1.2832  1.8054  0.3489
19777SOL     OW62922   3.193   7.265   9.787 -0.0023  0.3624 -0.4089
19777SOL    HW162923   3.221   7.206   9.718 -0.5544  1.4224 -1.5809
19777SOL    HW262924   3.244   7.345   9.772 -1.2438  1.1540 -0.5741
19778SOL     OW62925   1.832   1.618   6.637  0.0737  0.6011  0.4565
19778SOL    HW162926   1.787   1.681   6.694 -1.7487 -1.5420  1.5657
19778SOL    HW262927   1.781   1.618   6.556 -0.4511  0.0023  0.7726
19779SOL     OW62928   4.630   7.110  11.034  0.2987  0.1797  0.3337
19779SOL    HW162929   4.585   7.032  11.069 -1.3335  1.5172  1.3777
19779SOL    HW262930   4.703   7.124  11.094  0.3500 -0.2904  0.3892
19780SOL     OW62931   1.519   3.093   6.760  0.0033 -0.2864 -0.4259
19780SOL    HW162932   1.485   3.112   6.673 -0.5393 -1.6544 -0.5459
19780SOL    HW262933   1.572   3.014   6.748  0.8640  0.1654  0.2861
19781SOL     OW62934   1.065  10.207   3.190  0.2030 -0.2969  0.1442
19781SOL    HW162935   1.092  10.248   3.271 -0.0787 -1.4135  0.8303
19781SOL    HW262936   1.128  10.136   3.176 -0.8847 -1.3780  0.4776
19782SOL     OW62937   6.043   5.434   3.404  0.4007 -0.4364 -0.0449
19782SOL    HW162938   6.071   5.523   3.425 -0.5237 -0.6659  2.4213
19782SOL    HW262939   5.952   5.443   3.376  0.7278 -0.4814 -1.1774
19783SOL     OW62940   2.107   0.436   8.156 -0.2420 -0.7731  0.1390
19783SOL    HW162941   2.185   0.382   8.158  0.4383  0.1760 -0.1823
19783SOL    HW262942   2.139   0.525   8.147 -1.3792 -0.4296 -0.8407
19784SOL     OW62943   4.454   3.957   9.133  0.2353  0.1326  0.1197
19784SOL    HW162944   4.371   3.932   9.092  0.2607 -1.3755  0.9277
19784SOL    HW262945   4.512   3.882   9.117  1.3940  1.0795 -0.2597
19785SOL     OW62946   5.908   0.559   1.384  0.0403 -0.2925  0.5594
19785SOL    HW162947   5.902   0.649   1.416  0.2044 -0.0248 -0.1411
19785SOL    HW262948   5.983   0.522   1.431 -1.4267 -0.8341  2.6339
19786SOL     OW62949   5.847   1.659   8.405 -0.4020  0.3140 -0.4700
19786SOL    HW162950   5.859   1.634   8.313 -0.4633  0.4283 -0.5090
19786SOL    HW262951   5.928   1.633   8.448 -0.1055  0.8621 -0.6835
19787SOL     OW62952   5.347   4.537   5.973 -0.2526 -0.4855  0.0325
19787SOL    HW162953   5.274   4.512   6.030 -1.6245  0.2146 -1.3526
19787SOL    HW262954   5.359   4.631   5.989 -1.6576  0.0643 -1.8608
19788SOL     OW62955   2.702   8.310   1.151  0.3260  0.1944 -0.1594
19788SOL    HW162956   2.758   8.371   1.199 -0.3607  0.3841  0.4234
19788SOL    HW262957   2.641   8.366   1.104  0.0347 -0.0300 -0.0494
19789SOL     OW62958   1.145   3.345   9.411  0.5578 -0.1902 -0.3634
19789SOL    HW162959   1.218   3.323   9.469  0.5569  3.0669  1.0864
19789SOL    HW262960   1.185   3.359   9.326  1.0711 -1.5751 -0.3865
19790SOL     OW62961   6.482  10.561   6.475 -0.3830 -0.1363  0.4213
19790SOL    HW162962   6.387  10.570   6.476 -0.3067  0.7566  0.5033
19790SOL    HW262963   6.511  10.595   6.560 -0.0400 -1.1529  0.7320
19791SOL     OW62964   7.174   0.225   2.208  0.6748 -0.1281 -0.6690
19791SOL    HW162965   7.198   0.142   2.167 -0.3754 -0.7220 -0.1220
19791SOL    HW262966   7.181   0.290   2.138  3.4202 -0.2972 -0.6660
19792SOL     OW62967   6.454   1.396   5.363 -1.0502 -0.4435  0.1022
19792SOL    HW162968   6.460   1.442   5.279  0.0834 -0.6507  0.0516
19792SOL    HW262969   6.490   1.458   5.426 -2.2314 -0.1503  0.5069
19793SOL     OW62970   4.163   3.554   9.972  0.5293  0.1192  0.2011
19793SOL    HW162971   4.104   3.482   9.998  0.7229  0.2040  0.8982
19793SOL    HW262972   4.111   3.606   9.911 -0.2413  0.3601  1.0413
19794SOL     OW62973   5.141   2.712   3.108  0.3067  0.2419 -0.1796
19794SOL    HW162974   5.225   2.679   3.075  0.0763  0.1385 -0.6805
19794SOL    HW262975   5.141   2.690   3.201  0.8930  0.3607 -0.1514
19795SOL     OW62976   7.208  10.602   4.061 -0.0602 -0.6739 -0.1435
19795SOL    HW162977   7.165  10.566   3.983 -0.2185 -1.2135  0.1858
19795SOL    HW262978   7.136  10.626   4.119  0.0342  0.4870 -0.4822
19796SOL     OW62979   9.848   1.926   5.074  0.0702 -0.1270 -0.2935
19796SOL    HW162980   9.901   1.876   5.136  1.0339  2.5995  1.2435
19796SOL    HW262981   9.762   1.884   5.077  0.6513 -1.3028  1.3788
19797SOL     OW62982   4.437   8.055   8.999 -0.3965  0.4373  0.3886
19797SOL    HW162983   4.507   8.119   9.004 -0.0887  0.1186  0.1907
19797SOL    HW262984   4.457   7.992   9.068  1.5856 -1.6925 -1.9432
19798SOL     OW62985   2.223   2.476   8.001  0.1860 -0.3427 -0.0815
19798SOL    HW162986   2.315   2.469   7.977  0.7819  1.4289  1.4215
19798SOL    HW262987   2.212   2.413   8.073  0.3193 -0.3032 -0.0254
19799SOL     OW62988   7.164   1.734   6.193 -0.4539 -0.8306 -0.2042
19799SOL    HW162989   7.121   1.806   6.238 -0.5264 -1.8816  1.5213
19799SOL    HW262990   7.150   1.658   6.250  0.4138 -2.0142 -1.4852
19800SOL     OW62991   1.548   3.122   4.781 -0.6982 -0.6988 -0.3511
19800SOL    HW162992   1.590   3.044   4.744 -0.4902 -0.4626 -0.6220
19800SOL    HW262993   1.491   3.089   4.850  0.6919 -0.9597  0.7154
19801SOL     OW62994   6.031  10.333   5.500 -0.5761  0.5453 -0.0748
19801SOL    HW162995   6.088  10.392   5.451  1.0811 -0.6413  0.3409
19801SOL    HW262996   6.077  10.318   5.582 -0.9049 -1.3649 -0.1943
19802SOL     OW62997   6.038   9.910   7.512 -0.0682  0.6591  0.4086
19802SOL    HW162998   6.091   9.855   7.570 -1.1776 -0.3793  0.4820
19802SOL    HW262999   6.045   9.998   7.548 -0.9921 -0.0040  2.3473
19803SOL     OW63000   4.942   2.223  10.737 -0.2613  0.2285 -0.5811
19803SOL    HW163001   4.884   2.299  10.728  1.2155  1.6793  1.2002
19803SOL    HW263002   4.948   2.208  10.832  3.0503  0.8878 -0.5563
19804SOL     OW63003  10.211   5.862   9.510 -0.0092  0.0144  0.1029
19804SOL    HW163004  10.252   5.821   9.586  0.8441  0.3269 -0.1821
19804SOL    HW263005  10.176   5.945   9.544  0.6737  0.3149  0.0932
19805SOL     OW63006   7.446   7.483   5.448  0.0804  0.2285  0.3986
19805SOL    HW163007   7.470   7.575   5.460  1.7117 -0.3449  2.2004
19805SOL    HW263008   7.480   7.440   5.527  3.5858 -2.7010 -2.3727
19806SOL     OW63009   0.896  11.086   0.543 -0.3622  0.1003  0.0312
19806SOL    HW163010   0.891  11.158   0.606  0.4713  1.0866 -0.9751
19806SOL    HW263011   0.828  11.107   0.478  1.5493  1.4632 -1.6653
19807SOL     OW63012   1.171   7.240   8.388  0.0076 -0.4260 -0.4446
19807SOL    HW163013   1.211   7.217   8.304 -0.7341 -1.6052 -0.5058
19807SOL    HW263014   1.143   7.331   8.378  1.2388 -0.0886 -0.9440
19808SOL     OW63015   1.013   0.762   7.840 -0.2337 -0.6711  0.3167
19808SOL    HW163016   0.938   0.790   7.893 -1.8563 -1.1422 -1.6213
19808SOL    HW263017   1.074   0.836   7.843 -0.7758 -0.2549  1.8708
19809SOL     OW63018   7.442   4.052   6.895 -0.1224 -0.1835 -0.3967
19809SOL    HW163019   7.411   4.137   6.864 -2.1450  0.0240  1.9155
19809SOL    HW263020   7.538   4.058   6.892 -0.2377  1.9409 -0.8438
19810SOL     OW63021   6.645   8.493   5.468 -0.4669 -0.0365  0.2063
19810SOL    HW163022   6.606   8.508   5.381 -0.0614  4.1903  0.5485
19810SOL    HW263023   6.593   8.548   5.527  2.1103  0.8850  1.7597
19811SOL     OW63024   2.598   9.622  10.018  0.1918  0.9069 -0.1077
19811SOL    HW163025   2.585   9.575  10.100  0.9666 -0.2144 -0.5912
19811SOL    HW263026   2.514   9.615   9.972 -0.0047  0.8685  0.2576
19812SOL     OW63027   5.677   1.145   2.651 -0.0881 -0.0050  0.2760
19812SOL    HW163028   5.644   1.219   2.599 -0.9930  1.1030  2.3280
19812SOL    HW263029   5.772   1.149   2.640 -0.1942  0.8071 -0.5044
19813SOL     OW63030   6.203   7.401   7.837 -0.4925 -0.3147  0.0389
19813SOL    HW163031   6.190   7.313   7.801  0.3783 -0.9153  1.1212
19813SOL    HW263032   6.298   7.413   7.836 -0.6441  0.9501 -0.8252
19814SOL     OW63033   0.456   1.547   6.312  0.6798  0.2413  0.2362
19814SOL    HW163034   0.480   1.598   6.389  1.2657 -0.7722  0.7460
19814SOL    HW263035   0.362   1.534   6.320  0.5275  1.2412  0.0956
19815SOL     OW63036   7.919   0.545   0.015 -0.2853  0.1804  0.0734
19815SOL    HW163037   7.890   0.583  -0.068  0.1706 -1.3272 -0.8180
19815SOL    HW263038   7.872   0.594   0.082  0.1750  2.1772 -1.0041
19816SOL     OW63039  10.830   8.854   0.150 -0.1759 -0.1144 -0.1394
19816SOL    HW163040  10.829   8.944   0.116 -1.1915 -1.1671 -3.1751
19816SOL    HW263041  10.917   8.821   0.126 -0.3140 -0.3602 -0.3050
19817SOL     OW63042   9.377   0.980   3.384  0.3084  0.7841 -0.7790
19817SOL    HW163043   9.289   0.996   3.417  0.3582 -0.3969  0.0032
19817SOL    HW263044   9.364   0.953   3.293 -0.1626  0.3552 -0.5875
19818SOL     OW63045   3.060   6.014  10.835 -0.1902 -0.0778  0.1124
19818SOL    HW163046   3.033   5.979  10.750 -1.0784  0.2436  0.2479
19818SOL    HW263047   3.039   6.107  10.831 -0.3080 -0.0730  0.7099
19819SOL     OW63048   1.927   8.590   9.088 -0.2470  0.1254 -0.0660
19819SOL    HW163049   1.905   8.498   9.073  0.3730 -0.1497  0.6461
19819SOL    HW263050   1.844   8.631   9.114 -0.1427 -0.6726  1.5846
19820SOL     OW63051  10.803   4.243   2.825  0.0826 -0.2695 -0.1020
19820SOL    HW163052  10.867   4.252   2.754 -0.1598 -0.7616 -0.3882
19820SOL    HW263053  10.837   4.299   2.895  1.6108 -1.6468  0.3155
19821SOL     OW63054   4.849   2.069   5.627  0.4309  0.1519 -0.6003
19821SOL    HW163055   4.768   2.116   5.610  0.0154 -0.2888  0.0823
19821SOL    HW263056   4.904   2.086   5.551 -0.0544  0.9877 -0.7694
19822SOL     OW63057   0.892   1.616   6.798 -0.2564  0.3575  0.1142
19822SOL    HW163058   0.853   1.529   6.789  1.1085 -0.0641 -3.1804
19822SOL    HW263059   0.856   1.666   6.725  2.5812  0.9727 -0.9920
19823SOL     OW63060   4.176   8.496   2.548  0.2886  0.5109  0.1780
19823SOL    HW163061   4.223   8.513   2.466 -0.6328  0.0107 -0.4726
19823SOL    HW263062   4.083   8.502   2.524 -0.0104 -0.7690  0.9337
19824SOL     OW63063   7.374   9.120   3.975  0.4373 -0.3804  0.7537
19824SOL    HW163064   7.305   9.061   4.004 -1.3120  0.9732 -0.4745
19824SOL    HW263065   7.390   9.177   4.050  0.6454 -1.0551  1.2313
19825SOL     OW63066   8.321   2.013   9.719 -0.1525 -0.3144 -0.5108
19825SOL    HW163067   8.276   1.988   9.639  0.8713  0.1518 -1.2568
19825SOL    HW263068   8.412   1.987   9.705  0.4754  1.6598 -0.3828
19826SOL     OW63069   5.439   3.234   7.337 -0.1417  0.0566 -0.1098
19826SOL    HW163070   5.428   3.271   7.425 -2.1188  0.8402 -0.6124
19826SOL    HW263071   5.349   3.222   7.305  0.4630  1.8308 -2.8406
19827SOL     OW63072  10.707   3.371   1.225  0.1302 -0.0716 -0.2110
19827SOL    HW163073  10.799   3.354   1.205  0.4383 -0.1838  1.1803
19827SOL    HW263074  10.686   3.310   1.296 -0.2836  1.6233  1.2027
19828SOL     OW63075   1.439   6.380   9.935  0.2213 -0.0894  0.1960
19828SOL    HW163076   1.441   6.297   9.887  1.3224  1.3243 -2.4268
19828SOL    HW263077   1.349   6.386   9.968  0.2497 -2.5037  0.8964
19829SOL     OW63078   8.296   1.082   3.567  0.5726  0.2319  0.5365
19829SOL    HW163079   8.283   1.140   3.643  1.1165 -0.1305  0.9158
19829SOL    HW263080   8.229   1.109   3.505 -1.2571 -0.7986  1.9492
19830SOL     OW63081   3.572   7.982   4.834 -0.0441 -0.1206 -0.2027
19830SOL    HW163082   3.623   8.027   4.901  0.6557 -2.2396  0.7692
19830SOL    HW263083   3.621   7.902   4.816 -1.2331 -0.5426 -1.8410
19831SOL     OW63084   3.556  11.013   6.464  0.0778 -0.6370 -0.2059
19831SOL    HW163085   3.555  10.973   6.378 -0.6591  0.0373 -0.5239
19831SOL    HW263086   3.498  11.089   6.456  1.3896  0.4786  0.3709
19832SOL     OW63087   2.020   0.213   8.396  0.0541  0.0235  0.0347
19832SOL    HW163088   2.112   0.236   8.383 -0.4373  2.1011 -0.2090
19832SOL    HW263089   1.993   0.174   8.312  0.6533 -0.4083  0.0401
19833SOL     OW63090   8.085   6.958   3.989  0.0513 -0.4755 -0.2806
19833SOL    HW163091   8.140   7.025   4.028 -0.9613 -0.6220  1.5087
19833SOL    HW263092   8.100   6.880   4.043 -0.3747 -1.0986 -1.0339
19834SOL     OW63093   3.778   2.827   2.836  0.1339  0.4233  0.0701
19834SOL    HW163094   3.809   2.900   2.783 -1.0163  0.7571 -0.1755
19834SOL    HW263095   3.856   2.794   2.880  0.6441  1.9112  0.3323
19835SOL     OW63096   1.778   8.511   0.557 -0.2044  0.2340 -0.0515
19835SOL    HW163097   1.727   8.590   0.541 -0.1784  0.2746  0.0701
19835SOL    HW263098   1.862   8.542   0.591 -1.2945  0.0827  3.1066
19836SOL     OW63099   5.609   0.248   0.942 -0.1393 -0.2120  0.3325
19836SOL    HW163100   5.629   0.339   0.965 -1.0110  0.6850 -2.1047
19836SOL    HW263101   5.695   0.206   0.935  0.2599  0.2798  1.8993
19837SOL     OW63102   7.840   4.829   3.953 -0.1037 -0.0412  0.0543
19837SOL    HW163103   7.755   4.836   3.910  0.4678 -1.2732 -1.3758
19837SOL    HW263104   7.867   4.739   3.937  0.7141 -0.1645  1.9726
19838SOL     OW63105   8.073   5.854   8.230  0.2452 -0.2275  0.4328
19838SOL    HW163106   8.076   5.758   8.231 -0.8492 -0.2807 -0.1882
19838SOL    HW263107   8.060   5.877   8.138 -1.8496  0.4189  0.8451
19839SOL     OW63108   6.152   8.317   8.373 -0.6274 -0.0688  0.0479
19839SOL    HW163109   6.181   8.405   8.349  2.3714 -0.7965  0.6516
19839SOL    HW263110   6.106   8.329   8.456  0.2255  0.8766  0.4052
19840SOL     OW63111   5.393   2.953   8.210  0.4207 -0.2595 -0.3724
19840SOL    HW163112   5.361   2.892   8.276 -2.3648  1.1213 -0.2911
19840SOL    HW263113   5.317   2.970   8.154  1.6256  1.6080 -1.5655
19841SOL     OW63114   7.942  10.329   7.985  0.0638 -0.6388 -0.1496
19841SOL    HW163115   7.903  10.263   8.042 -3.3623  0.5217 -0.9109
19841SOL    HW263116   8.011  10.369   8.039 -1.4090 -1.2037  2.3294
19842SOL     OW63117   0.977   4.180   4.897  0.4490  0.2981 -0.1778
19842SOL    HW163118   0.976   4.218   4.809 -1.2785  2.0659  0.5324
19842SOL    HW263119   0.931   4.097   4.888  1.3129 -0.0993 -1.1355
19843SOL     OW63120   5.967   2.241   2.966 -0.1923  0.3272  0.8870
19843SOL    HW163121   5.991   2.291   2.888 -0.0582 -0.9625  0.0691
19843SOL    HW263122   6.008   2.289   3.038  0.0505  1.3041  0.1264
19844SOL     OW63123  10.114   8.847   3.485  0.0135 -0.3083 -0.1227
19844SOL    HW163124  10.184   8.906   3.456 -1.6918  2.6173  1.2138
19844SOL    HW263125  10.122   8.845   3.580 -0.7515 -1.2274 -0.0713
19845SOL     OW63126   4.625   1.385   8.103  0.0932 -0.6147 -0.6669
19845SOL    HW163127   4.703   1.342   8.140  0.8542  0.5219 -0.9084
19845SOL    HW263128   4.617   1.347   8.015 -0.5585 -1.8632 -0.1047
19846SOL     OW63129   8.497   3.561   1.989 -0.3166 -0.3734 -0.0258
19846SOL    HW163130   8.424   3.503   1.968 -0.2708 -0.2491 -0.5475
19846SOL    HW263131   8.562   3.505   2.032 -1.8119  0.0015  3.0306
19847SOL     OW63132   5.577   3.459   1.400  0.5230 -0.1243  0.6163
19847SOL    HW163133   5.505   3.436   1.459 -0.4460 -0.0581 -0.5139
19847SOL    HW263134   5.536   3.508   1.329  1.8204  0.6777  0.3878
19848SOL     OW63135   6.460   5.136   8.923  0.2486 -0.7004  0.3597
19848SOL    HW163136   6.395   5.193   8.964 -0.3833 -0.1734 -1.2989
19848SOL    HW263137   6.530   5.195   8.895 -1.5777 -0.1147 -3.7598
19849SOL     OW63138   9.286   8.327   3.849  0.2772  0.1456  0.3402
19849SOL    HW163139   9.191   8.321   3.833  0.1696  0.6407  0.7664
19849SOL    HW263140   9.301   8.264   3.920  0.2243  0.2526  0.4466
19850SOL     OW63141   7.731   6.806   0.576  0.1783 -0.0516 -0.1596
19850SOL    HW163142   7.795   6.795   0.505  0.4804 -0.9735  0.2443
19850SOL    HW263143   7.767   6.876   0.630 -0.3854  1.1435 -1.2574
19851SOL     OW63144   4.044   3.397   7.989  0.1167 -0.1772  0.1213
19851SOL    HW163145   4.065   3.351   7.908 -1.8262 -0.9774  0.0318
19851SOL    HW263146   3.984   3.467   7.962 -1.0041 -0.8009  0.9060
19852SOL     OW63147   0.486   4.571  10.368 -0.1484  0.0070  0.6375
19852SOL    HW163148   0.392   4.587  10.375 -0.7716 -2.3002 -1.2089
19852SOL    HW263149   0.510   4.535  10.453 -0.9046  0.6699  1.1506
19853SOL     OW63150   9.888   7.922   6.664 -0.0143  0.1201 -0.6787
19853SOL    HW163151   9.825   7.852   6.650  0.7450 -0.6604 -0.2571
19853SOL    HW263152   9.843   7.984   6.722 -0.1039 -0.8448  0.3145
19854SOL     OW63153   1.344   8.848   7.061  0.0765 -0.2349  0.4276
19854SOL    HW163154   1.391   8.770   7.033  0.0870 -0.2671  0.5360
19854SOL    HW263155   1.375   8.865   7.150 -0.0566 -0.2117  0.4712
19855SOL     OW63156   5.206   7.346   8.146  0.5835 -0.0981 -0.5408
19855SOL    HW163157   5.231   7.264   8.187 -1.2774 -0.7982 -0.6963
19855SOL    HW263158   5.255   7.413   8.194  0.7519 -1.1526  0.8097
19856SOL     OW63159   5.520   1.670   8.682  0.2975  0.1173  0.4147
19856SOL    HW163160   5.610   1.689   8.707  0.1178 -0.6670  1.7400
19856SOL    HW263161   5.518   1.683   8.587  1.3846  1.7482  0.5861
19857SOL     OW63162   5.689   5.347   8.891 -0.0764 -0.3259 -0.5321
19857SOL    HW163163   5.671   5.282   8.823 -0.5908  1.0345 -1.7650
19857SOL    HW263164   5.706   5.296   8.970 -1.8619 -1.9295 -1.1026
19858SOL     OW63165   2.277   4.564   4.277 -0.2758  0.1423  0.9788
19858SOL    HW163166   2.232   4.513   4.344  0.0005 -0.2357  0.8779
19858SOL    HW263167   2.232   4.648   4.277 -0.8293 -0.1524  1.0427
19859SOL     OW63168   2.062   9.789   8.268  0.2610  0.2399  0.1537
19859SOL    HW163169   2.045   9.788   8.362  0.6924 -1.2821  0.2363
19859SOL    HW263170   2.142   9.738   8.257  0.2944  0.5138 -1.0312
19860SOL     OW63171   1.350   0.302   7.776 -0.1218 -0.0592  0.2286
19860SOL    HW163172   1.290   0.362   7.731 -1.7720 -0.9304  1.1801
19860SOL    HW263173   1.436   0.344   7.768 -1.3341  3.0221  1.8043
19861SOL     OW63174   2.385  10.481   9.963  0.3915  0.3780  0.2595
19861SOL    HW163175   2.379  10.434  10.046 -0.9151  1.3591  0.7456
19861SOL    HW263176   2.347  10.421   9.899  0.0265  0.2094  0.6304
19862SOL     OW63177   1.117   7.059   9.059  0.0646 -0.0439  0.4806
19862SOL    HW163178   1.038   7.047   9.112 -0.0782  3.0545  1.1965
19862SOL    HW263179   1.131   7.154   9.059  0.6986  0.1159 -4.1542
19863SOL     OW63180   9.034   4.095   1.303  0.2430  0.2177  0.0339
19863SOL    HW163181   9.042   4.002   1.323  0.8246  0.5508  1.4821
19863SOL    HW263182   9.123   4.129   1.309  0.0778  0.8204 -0.7853
19864SOL     OW63183   3.425   1.958   9.490 -0.5907  0.2151  0.1715
19864SOL    HW163184   3.494   1.937   9.428 -0.6732  1.0055 -0.2049
19864SOL    HW263185   3.411   2.053   9.480 -1.4333  0.1457  0.5397
19865SOL     OW63186   7.146   8.819   6.136  0.2877 -0.1830  0.1784
19865SOL    HW163187   7.140   8.841   6.229  0.3137 -0.4253  0.2389
19865SOL    HW263188   7.211   8.879   6.101 -0.0893  0.2490  0.2087
19866SOL     OW63189   4.856  10.720   0.277 -0.2054 -0.1981 -1.0679
19866SOL    HW163190   4.943  10.689   0.302  0.0472  1.0672 -0.3180
19866SOL    HW263191   4.798  10.690   0.348  0.0520  1.0493 -0.3021
19867SOL     OW63192   3.424   0.227   3.633  0.1138 -0.5390 -0.0683
19867SOL    HW163193   3.368   0.297   3.663  0.5374  0.6051 -1.8036
19867SOL    HW263194   3.493   0.220   3.700  1.2116  2.1220 -0.8034
19868SOL     OW63195   7.613   6.234   2.700  0.1428 -0.4059 -0.6026
19868SOL    HW163196   7.637   6.323   2.676  1.6433 -0.3956  0.7530
19868SOL    HW263197   7.657   6.219   2.784 -0.3916 -2.2866 -0.6089
19869SOL     OW63198   9.145   9.389   4.121  0.0505 -0.1097 -0.2265
19869SOL    HW163199   9.158   9.385   4.216  2.8728  0.1307 -0.5128
19869SOL    HW263200   9.174   9.304   4.089  1.3387  0.5999 -1.0316
19870SOL     OW63201   8.401   8.030  10.913 -0.0901 -0.5335  0.1855
19870SOL    HW163202   8.320   8.028  10.964 -0.2722 -2.8956 -0.1233
19870SOL    HW263203   8.470   8.014  10.977  0.0583  0.4255  0.2793
19871SOL     OW63204   7.347   8.269  10.040 -0.1048  0.5169  0.0087
19871SOL    HW163205   7.416   8.203  10.032  1.1874  1.9478 -1.4230
19871SOL    HW263206   7.266   8.218  10.044  0.9923 -1.3166  3.3347
19872SOL     OW63207   9.948   2.568   7.758  0.1105  0.1221  0.0861
19872SOL    HW163208  10.000   2.490   7.780 -0.2975 -0.5574 -1.2606
19872SOL    HW263209   9.873   2.563   7.817 -1.0641 -1.7757 -1.4318
19873SOL     OW63210   1.726   7.974   7.128 -0.1051 -0.3256  0.2117
19873SOL    HW163211   1.809   7.999   7.168 -0.8036  1.5037  0.5916
19873SOL    HW263212   1.675   7.936   7.200 -0.0936 -0.2398  0.2644
19874SOL     OW63213   8.077   3.902   0.711 -0.0579 -0.2675 -0.0610
19874SOL    HW163214   8.168   3.927   0.694 -0.0570 -1.3458 -1.9963
19874SOL    HW263215   8.083   3.825   0.767  0.3998 -1.7252 -1.9859
19875SOL     OW63216   7.183   7.328   6.289 -0.3632 -0.1743 -0.4170
19875SOL    HW163217   7.177   7.394   6.358  2.9562  1.6380 -1.6322
19875SOL    HW263218   7.184   7.245   6.336 -2.3533  0.7012  1.3397
19876SOL     OW63219  10.084   7.852   4.451 -0.1814  0.2156  0.8615
19876SOL    HW163220  10.143   7.798   4.504 -0.0921  1.1572  1.7522
19876SOL    HW263221  10.003   7.858   4.503 -1.6832 -2.2464 -0.9623
19877SOL     OW63222   4.407   6.017   6.022  0.2287 -0.3348 -0.3063
19877SOL    HW163223   4.356   5.969   6.087 -0.9072 -0.2201 -1.0769
19877SOL    HW263224   4.344   6.076   5.981  0.4891 -1.5308 -2.6136
19878SOL     OW63225   7.313  10.742   1.689 -0.0633  0.5065  0.3094
19878SOL    HW163226   7.352  10.655   1.687 -2.0342 -0.4419  0.6777
19878SOL    HW263227   7.261  10.747   1.609 -1.0751  0.7863  0.9652
19879SOL     OW63228   0.019   5.934   5.090 -0.2059  0.0691 -0.2783
19879SOL    HW163229  -0.005   5.861   5.147  1.9094  0.8827  1.7683
19879SOL    HW263230  -0.038   6.006   5.117 -1.2945 -0.3743 -1.3167
19880SOL     OW63231   7.672   8.790  10.989  0.2526  0.6828 -0.4480
19880SOL    HW163232   7.615   8.774  10.914  0.2206 -1.3769 -0.0388
19880SOL    HW263233   7.633   8.740  11.061  0.1939  2.7238  1.0320
19881SOL     OW63234   6.462   2.615   3.651 -1.2335  0.0581  0.1150
19881SOL    HW163235   6.407   2.546   3.614 -0.3340  0.3342 -1.8614
19881SOL    HW263236   6.471   2.679   3.580  0.3046  0.7933  0.9329
19882SOL     OW63237   6.144   4.597   3.970  0.0265 -0.2699 -0.4290
19882SOL    HW163238   6.093   4.571   4.047 -0.2065 -0.3809 -0.6179
19882SOL    HW263239   6.213   4.531   3.964 -0.8743 -1.1740 -1.2112
19883SOL     OW63240   1.019   7.290   7.468  0.2393 -0.3511  0.2358
19883SOL    HW163241   1.020   7.203   7.428  1.7834  0.1949 -1.0365
19883SOL    HW263242   0.934   7.326   7.445 -0.4551 -1.5283  0.8437
19884SOL     OW63243   0.714  10.571   5.545  0.3373  0.3155  0.0192
19884SOL    HW163244   0.689  10.505   5.610 -0.2749 -0.9844 -1.4667
19884SOL    HW263245   0.763  10.637   5.595  1.6808 -1.6425  1.4400
19885SOL     OW63246   4.585   4.716   4.744  0.2812 -0.1597 -0.1582
19885SOL    HW163247   4.628   4.665   4.813 -0.8685 -0.2249  0.5342
19885SOL    HW263248   4.543   4.789   4.791 -1.5508 -0.8779 -0.5848
19886SOL     OW63249   1.772   5.444   5.112 -0.2099  0.0621 -0.2742
19886SOL    HW163250   1.815   5.359   5.116 -0.1881  0.1041  0.6018
19886SOL    HW263251   1.778   5.470   5.020  0.9214 -0.2953 -0.3136
19887SOL     OW63252  11.078   0.429   5.792 -0.1086  0.3103 -0.1370
19887SOL    HW163253  11.135   0.439   5.716  0.3003 -2.0912 -0.2150
19887SOL    HW263254  11.092   0.339   5.821  0.5892  1.4468  3.4855
19888SOL     OW63255   7.016   7.157   3.083 -0.0080 -0.1180 -0.1612
19888SOL    HW163256   7.048   7.247   3.072 -1.9131  0.2885 -4.1016
19888SOL    HW263257   6.924   7.167   3.106 -0.0397 -1.1140  0.1873
19889SOL     OW63258   3.272   4.847   6.705  0.0476 -0.2602  0.5195
19889SOL    HW163259   3.295   4.928   6.660 -0.7880 -2.0143 -3.4759
19889SOL    HW263260   3.180   4.859   6.730  0.6137  0.8560  2.2501
19890SOL     OW63261   0.068  10.934  10.476  0.7022  0.4524 -0.5280
19890SOL    HW163262   0.140  10.870  10.469  0.3872 -0.1572  1.2588
19890SOL    HW263263  -0.011  10.880  10.479  0.0994  1.1296 -2.7029
19891SOL     OW63264  10.155   6.356   1.769  0.3391 -0.0509  0.9716
19891SOL    HW163265  10.178   6.340   1.678  0.2698  3.0189  0.3196
19891SOL    HW263266  10.061   6.373   1.767  0.4980  0.9203  1.4577
19892SOL     OW63267   5.508   9.206   7.372  0.0420 -0.1201  0.5345
19892SOL    HW163268   5.521   9.295   7.405  0.4262  0.6529 -1.5554
19892SOL    HW263269   5.508   9.216   7.277 -0.9775 -2.2228  0.2627
19893SOL     OW63270   3.933   7.950   6.373  0.3498  0.0765 -0.8782
19893SOL    HW163271   3.845   7.931   6.406  0.1080 -0.3600 -1.7465
19893SOL    HW263272   3.984   7.968   6.451  0.0973 -2.1332 -0.1292
19894SOL     OW63273   0.497   9.173   7.335 -0.2429  0.3547  0.3202
19894SOL    HW163274   0.484   9.218   7.251  1.5038 -0.5246 -0.4556
19894SOL    HW263275   0.423   9.112   7.341  0.0974 -0.2258 -1.0349
19895SOL     OW63276   3.688   4.386   9.918 -0.5188 -0.7790  0.1866
19895SOL    HW163277   3.659   4.296   9.905 -2.2723 -0.0299 -1.6675
19895SOL    HW263278   3.614   4.429   9.962  0.0064 -0.0828  0.4129
19896SOL     OW63279   4.795   7.070   0.978  0.3369  0.4200  0.5286
19896SOL    HW163280   4.834   6.991   0.942  1.6417  0.1735  2.3569
19896SOL    HW263281   4.711   7.041   1.015  0.3538  0.0855  0.3022
19897SOL     OW63282   0.363   2.556   7.157  0.5524  0.0889  0.5198
19897SOL    HW163283   0.443   2.590   7.116  0.7277 -1.3660 -0.4228
19897SOL    HW263284   0.292   2.594   7.105  0.6885  0.2930  0.4803
19898SOL     OW63285   4.603   9.043   5.606 -0.1094  0.1822 -0.4971
19898SOL    HW163286   4.544   9.040   5.531 -0.8350 -2.2482  0.0675
19898SOL    HW263287   4.668   8.975   5.588  1.6126  1.7125 -0.3398
19899SOL     OW63288   0.509  10.186  10.710  0.5240 -0.4708  0.2311
19899SOL    HW163289   0.448  10.154  10.643  0.5186  0.9198 -0.4637
19899SOL    HW263290   0.465  10.260  10.750  1.7336  0.5888 -0.3069
19900SOL     OW63291   0.838   2.767   4.095 -0.1404 -0.2680 -0.4393
19900SOL    HW163292   0.832   2.756   4.190 -0.0806 -1.3125 -0.5413
19900SOL    HW263293   0.886   2.848   4.083  0.5412 -0.5276  0.4297
19901SOL     OW63294   8.703   6.530   5.184 -0.4277 -0.6453  0.1518
19901SOL    HW163295   8.634   6.585   5.145 -0.2119 -1.1182 -0.9170
19901SOL    HW263296   8.660   6.488   5.259 -1.1640 -0.5372 -0.1963
19902SOL     OW63297   5.335   8.609  10.471 -0.0385 -0.5565  0.3353
19902SOL    HW163298   5.258   8.647  10.428 -1.0966 -0.5704  2.0930
19902SOL    HW263299   5.314   8.613  10.565  2.6988  0.7439  1.0030
19903SOL     OW63300   4.553   6.471  10.458  0.0560  0.0223 -0.3543
19903SOL    HW163301   4.627   6.468  10.397  0.5901 -2.1382  0.3348
19903SOL    HW263302   4.496   6.539  10.422  1.6530  0.7184 -1.7287
19904SOL     OW63303   7.705   5.079   0.484  0.0040  0.0531  0.6259
19904SOL    HW163304   7.627   5.033   0.517 -1.0808  0.2402 -1.4369
19904SOL    HW263305   7.740   5.019   0.418  1.3057  0.2266  1.1473
19905SOL     OW63306   0.793   3.237   5.698 -0.3414  0.1244  0.0889
19905SOL    HW163307   0.713   3.184   5.697  0.5257 -1.2473 -1.3194
19905SOL    HW263308   0.833   3.218   5.783 -0.1628 -1.3682 -0.2936
19906SOL     OW63309   5.869   9.627   2.806 -0.3197 -0.2836  0.7246
19906SOL    HW163310   5.928   9.659   2.738 -1.0531  0.7051  0.5395
19906SOL    HW263311   5.873   9.532   2.798  0.5174 -0.2060  0.0975
19907SOL     OW63312   6.970   1.075   2.729  0.1868 -0.3098  0.0055
19907SOL    HW163313   6.974   1.061   2.634 -0.7947 -1.0583  0.0564
19907SOL    HW263314   7.058   1.104   2.753  0.5481 -0.4681 -1.0774
19908SOL     OW63315   3.527   9.186   8.070 -0.5096 -0.0128 -0.6536
19908SOL    HW163316   3.515   9.183   7.975 -2.2246 -1.0459 -0.4492
19908SOL    HW263317   3.542   9.094   8.095  0.2096  0.2857  0.0492
19909SOL     OW63318   5.765   8.630   5.808 -0.0656  0.0440  0.2044
19909SOL    HW163319   5.800   8.664   5.890 -0.7063 -1.5781  1.1962
19909SOL    HW263320   5.670   8.637   5.818 -0.2474 -2.1654  0.5699
19910SOL     OW63321   9.980  10.910   5.415 -0.6746 -0.0847  0.1200
19910SOL    HW163322  10.012  10.921   5.504 -1.2783  1.9928  0.1375
19910SOL    HW263323   9.912  10.977   5.406  0.2376  0.6269 -2.2962
19911SOL     OW63324   6.235   6.354   5.922  0.8234  0.0136 -0.1690
19911SOL    HW163325   6.202   6.397   6.000  0.4313 -1.8122  0.7230
19911SOL    HW263326   6.318   6.398   5.903  0.7773  0.6700  1.0806
19912SOL     OW63327   1.303   5.270   0.020 -0.0211 -0.7776  0.4520
19912SOL    HW163328   1.312   5.175   0.014  1.0939 -0.6034 -1.7520
19912SOL    HW263329   1.392   5.301   0.038 -0.2377 -0.1116  0.3979
19913SOL     OW63330   0.127   5.627   4.794 -0.0711  0.2387  0.0145
19913SOL    HW163331   0.191   5.666   4.854  0.6530 -0.5430 -0.2272
19913SOL    HW263332   0.114   5.538   4.829 -0.8387  0.3066 -0.0893
19914SOL     OW63333   7.327   2.396   6.863 -0.2125  0.4547 -0.0926
19914SOL    HW163334   7.331   2.489   6.885 -0.4168  0.4384  0.0194
19914SOL    HW263335   7.249   2.364   6.909  1.1030 -0.2724  1.8156
19915SOL     OW63336   5.648   0.780   0.235  0.4514  0.0983  0.8067
19915SOL    HW163337   5.565   0.826   0.247  1.3922  2.5870 -1.4713
19915SOL    HW263338   5.636   0.698   0.283 -3.2351  0.4151  0.7047
19916SOL     OW63339   6.039   8.253   3.429 -0.4562  0.3672 -0.3116
19916SOL    HW163340   6.080   8.278   3.346  1.2436 -0.0926  0.3504
19916SOL    HW263341   6.059   8.160   3.438 -1.6217  0.1443  0.0744
19917SOL     OW63342   0.494   4.847   4.570  0.0264 -0.1332  0.7014
19917SOL    HW163343   0.496   4.818   4.479  1.6953  0.6116  0.4607
19917SOL    HW263344   0.402   4.842   4.595 -0.3531 -1.1295 -0.7581
19918SOL     OW63345   8.568   8.854   6.571 -0.1961  0.6311 -0.4830
19918SOL    HW163346   8.494   8.810   6.615  1.3951 -1.3800  0.3277
19918SOL    HW263347   8.582   8.933   6.624  0.1171 -0.5091  1.2437
19919SOL     OW63348   2.257   0.206   8.738  0.5058 -0.4016 -0.0158
19919SOL    HW163349   2.170   0.170   8.724  0.8597 -1.1334 -0.4445
19919SOL    HW263350   2.256   0.239   8.828 -0.3584  0.0467 -0.1843
19920SOL     OW63351   4.547   1.223   8.905 -0.8423 -0.2377 -0.4998
19920SOL    HW163352   4.597   1.157   8.952 -1.6189  1.1604  2.5363
19920SOL    HW263353   4.608   1.297   8.896 -1.1969  0.0998 -0.1737
19921SOL     OW63354   9.391   0.903   1.193 -0.2765 -0.8326  1.1326
19921SOL    HW163355   9.468   0.955   1.218  0.6120 -1.9282  0.7284
19921SOL    HW263356   9.317   0.964   1.201  0.4122 -0.1717  3.0576
19922SOL     OW63357   9.029   7.192   6.056  0.0308 -0.6531  0.7005
19922SOL    HW163358   9.071   7.251   6.118 -0.6856 -0.0258  0.6031
19922SOL    HW263359   8.974   7.135   6.110 -1.2644  0.4530  0.6020
19923SOL     OW63360   9.305   0.748   7.959 -0.1799  0.0591 -0.2155
19923SOL    HW163361   9.286   0.842   7.959 -0.4960  0.0305  1.8669
19923SOL    HW263362   9.397   0.742   7.986 -0.0790 -0.2262 -0.6131
19924SOL     OW63363   7.001   8.915   2.670  0.0820  0.6275  0.9282
19924SOL    HW163364   6.975   9.007   2.667  1.0288  0.8916 -0.2145
19924SOL    HW263365   6.992   8.885   2.579 -0.0092 -0.3529  1.2495
19925SOL     OW63366   0.242   0.677   5.458 -0.1590  0.3100 -0.1549
19925SOL    HW163367   0.330   0.664   5.424  0.1263  0.6620  0.4229
19925SOL    HW263368   0.190   0.705   5.383  0.3632  0.6980 -0.3706
19926SOL     OW63369   4.823   5.228   1.252 -0.1824  0.5023  0.5688
19926SOL    HW163370   4.852   5.161   1.314  0.1567  0.9316  0.8804
19926SOL    HW263371   4.838   5.311   1.297 -0.5004  0.7946  0.1443
19927SOL     OW63372   8.850   7.041  10.706  0.3926 -0.9639  0.0664
19927SOL    HW163373   8.805   7.078  10.631  1.2130 -1.4586 -0.6862
19927SOL    HW263374   8.801   7.074  10.782  0.3134  0.5877 -0.6174
19928SOL     OW63375   9.750   9.154   9.752 -0.1324  0.1898 -0.3306
19928SOL    HW163376   9.753   9.229   9.812  0.4935 -1.0360  1.2220
19928SOL    HW263377   9.727   9.080   9.808  0.6080 -1.0258 -1.5867
19929SOL     OW63378   9.317   5.948   1.058 -0.1106  0.0764 -0.4453
19929SOL    HW163379   9.406   5.966   1.087  1.0609 -3.1928 -1.5096
19929SOL    HW263380   9.263   5.955   1.137  1.3803  0.3728  0.5806
19930SOL     OW63381   5.457   7.470   7.129 -0.0217  0.4182  0.0584
19930SOL    HW163382   5.382   7.458   7.187  0.1570  0.3245  0.2687
19930SOL    HW263383   5.478   7.381   7.099  1.3435  0.1514  1.6700
19931SOL     OW63384   3.874   1.492   6.690 -0.0175 -0.2783 -0.1732
19931SOL    HW163385   3.849   1.498   6.782  0.8620  0.7410  0.0288
19931SOL    HW263386   3.931   1.568   6.676 -2.1672  1.0914 -2.2351
19932SOL     OW63387   4.358   1.868   0.454  0.4456 -0.1998  0.3699
19932SOL    HW163388   4.375   1.897   0.543  2.7771  2.2295 -0.7395
19932SOL    HW263389   4.293   1.930   0.421  0.7015 -0.1617 -0.0687
19933SOL     OW63390  10.683  10.682   7.040  0.0695 -0.2727 -0.4201
19933SOL    HW163391  10.641  10.738   7.104 -1.2163 -0.0436 -1.4210
19933SOL    HW263392  10.717  10.742   6.974  0.8902 -0.5341 -0.2456
19934SOL     OW63393   3.191   6.536   0.242 -0.0548 -0.2962 -0.1880
19934SOL    HW163394   3.239   6.618   0.252  1.0244 -1.1307  1.9717
19934SOL    HW263395   3.250   6.468   0.274 -0.3661 -2.1854 -3.1563
19935SOL     OW63396   7.297   6.505   9.982 -0.0077 -0.3796  0.2218
19935SOL    HW163397   7.339   6.554  10.053 -0.5688 -0.8344  0.8796
19935SOL    HW263398   7.250   6.571   9.932 -1.6302 -0.3285  1.7165
19936SOL     OW63399   5.199   5.095   1.313 -0.6600  0.5574 -0.1635
19936SOL    HW163400   5.273   5.114   1.256  0.8614 -0.0763  1.4909
19936SOL    HW263401   5.202   5.000   1.325  0.1170  0.7928  2.1801
19937SOL     OW63402   3.297   0.279   6.838  0.1522  0.1895  0.0351
19937SOL    HW163403   3.315   0.186   6.850  0.2726  0.1861 -0.1737
19937SOL    HW263404   3.216   0.294   6.887  0.6152  0.1715  0.8166
19938SOL     OW63405   5.201   8.922   3.255 -0.2219  0.0456  0.0763
19938SOL    HW163406   5.183   8.877   3.172  1.3650  1.3154 -1.0267
19938SOL    HW263407   5.137   8.993   3.258 -0.3957 -0.1075  0.0255
19939SOL     OW63408   5.143   5.400   9.684 -0.3136  0.3755  0.3977
19939SOL    HW163409   5.194   5.352   9.749  0.5049  1.9996  1.0171
19939SOL    HW263410   5.054   5.401   9.719 -0.0248  0.6021  1.1439
19940SOL     OW63411   9.211   9.294   7.305  0.1134 -0.1163  0.2574
19940SOL    HW163412   9.299   9.286   7.268  0.1708 -1.4861  0.6420
19940SOL    HW263413   9.226   9.335   7.391  0.0408  2.4448 -0.8737
19941SOL     OW63414   2.016   7.505   1.717  0.1876  0.1459  0.3144
19941SOL    HW163415   1.947   7.568   1.696 -0.2157  0.2802  1.9068
19941SOL    HW263416   2.098   7.554   1.702 -0.1115  0.9171  1.0913
19942SOL     OW63417   5.989   1.913   0.775  0.2520 -0.3704  0.2902
19942SOL    HW163418   6.062   1.976   0.771 -0.2682  0.1902 -1.0403
19942SOL    HW263419   6.016   1.850   0.842  1.4766  0.4179  0.5875
19943SOL     OW63420   5.329   6.355   5.396  0.0140  0.0813  0.6033
19943SOL    HW163421   5.306   6.411   5.322 -0.5558 -0.9308  0.0021
19943SOL    HW263422   5.332   6.415   5.471 -2.6602  0.6218  0.3704
19944SOL     OW63423   9.469   6.071   8.480 -0.0425  0.1133 -0.2580
19944SOL    HW163424   9.559   6.102   8.468 -0.0229 -0.0508 -0.5664
19944SOL    HW263425   9.414   6.142   8.445 -0.0100 -0.0490 -0.6455
19945SOL     OW63426   2.378   3.175   2.713  0.2071  0.4153 -0.7269
19945SOL    HW163427   2.468   3.194   2.739  0.1443  1.9947 -1.5318
19945SOL    HW263428   2.381   3.171   2.617 -0.7097  1.3776 -0.8216
19946SOL     OW63429   1.235   2.676   7.407 -0.6679 -0.6031 -0.2020
19946SOL    HW163430   1.141   2.695   7.409 -0.6050 -0.2163 -0.6984
19946SOL    HW263431   1.246   2.618   7.332 -0.5202 -0.7305 -0.0840
19947SOL     OW63432   1.472  10.109   1.712  0.1978 -0.0799  0.2269
19947SOL    HW163433   1.450  10.018   1.731  0.7622 -0.4130 -0.6653
19947SOL    HW263434   1.564  10.118   1.740  0.0172  0.3377  0.7052
19948SOL     OW63435   7.115  10.772  10.401 -0.5562  0.1936  0.5976
19948SOL    HW163436   7.090  10.859  10.433 -1.4836 -0.4360  1.6981
19948SOL    HW263437   7.183  10.789  10.336 -1.2856  1.7899  0.1795
19949SOL     OW63438  10.957   1.005   8.033  0.4021  0.0056 -0.0617
19949SOL    HW163439  10.996   0.918   8.045  0.1212 -0.0880  0.1714
19949SOL    HW263440  10.921   1.027   8.119  2.4869  1.3538  0.5489
19950SOL     OW63441  10.964   6.206   8.468  0.7781  0.4223  0.3212
19950SOL    HW163442  10.875   6.235   8.487  0.4861 -0.6474  0.6322
19950SOL    HW263443  11.018   6.248   8.535  0.4771  0.8487  0.3025
19951SOL     OW63444   7.191   1.165  10.374 -0.1494  0.6788 -0.3870
19951SOL    HW163445   7.205   1.236  10.311  0.9849  0.7476 -0.0869
19951SOL    HW263446   7.117   1.195  10.427 -1.2270  0.5309 -1.7866
19952SOL     OW63447   7.154   2.805   1.188  0.4444 -0.1561  0.0966
19952SOL    HW163448   7.179   2.752   1.263  0.1478  1.8199  1.7039
19952SOL    HW263449   7.236   2.845   1.158  0.2634  0.8697  0.9038
19953SOL     OW63450   7.577   0.941   2.786 -0.9134 -0.1554  0.6204
19953SOL    HW163451   7.663   0.958   2.826 -1.2545 -1.7920  2.1972
19953SOL    HW263452   7.596   0.929   2.693  0.5538 -0.3512  0.9197
19954SOL     OW63453   6.214   9.196   4.557  0.2118 -0.2388 -0.1122
19954SOL    HW163454   6.276   9.230   4.493 -0.2602 -0.9549 -0.9681
19954SOL    HW263455   6.209   9.265   4.624  1.3898  0.1286 -0.3755
19955SOL     OW63456   8.004   8.983   0.950  0.1830 -0.0049 -0.0539
19955SOL    HW163457   7.972   8.995   1.039 -0.9696 -0.5303 -0.3742
19955SOL    HW263458   7.945   9.036   0.896 -0.3822 -1.2387 -0.6918
19956SOL     OW63459   3.156   9.528   7.949 -0.2024 -0.0566  0.1738
19956SOL    HW163460   3.115   9.612   7.967  0.6356 -0.1180  2.9150
19956SOL    HW263461   3.247   9.539   7.977  0.3873 -1.3791 -1.0627
19957SOL     OW63462   1.426   5.972   6.580  0.2109  0.0288 -0.4019
19957SOL    HW163463   1.435   6.067   6.587  0.1200 -0.0116  0.3901
19957SOL    HW263464   1.348   5.951   6.632 -0.0695 -0.4294 -0.9845
19958SOL     OW63465  10.179   9.165   6.858 -0.3858 -0.0562 -0.5362
19958SOL    HW163466  10.113   9.224   6.823  0.6474  0.8459 -1.0545
19958SOL    HW263467  10.186   9.190   6.951  0.6764  1.3292 -0.9391
19959SOL     OW63468   9.935   6.175   5.128 -0.4221  0.1479 -0.5582
19959SOL    HW163469   9.997   6.239   5.093 -0.5605  0.6907  0.1753
19959SOL    HW263470   9.897   6.217   5.204  0.0136 -1.0771  0.3701
19960SOL     OW63471   9.786   5.746   4.862  0.4257  0.1717  0.1975
19960SOL    HW163472   9.703   5.783   4.832 -0.2795 -1.2790  0.2555
19960SOL    HW263473   9.777   5.742   4.958 -0.1271 -1.4396  0.1143
19961SOL     OW63474   4.467   2.610  10.867 -0.1065  0.1559 -0.2559
19961SOL    HW163475   4.498   2.609  10.777 -0.0776 -0.4004 -0.2435
19961SOL    HW263476   4.486   2.522  10.900  1.2078  0.7940  0.7447
19962SOL     OW63477   6.679   9.291   3.338 -0.2301 -0.2707  0.4362
19962SOL    HW163478   6.736   9.237   3.283  0.2963  0.3074  0.3948
19962SOL    HW263479   6.590   9.260   3.319  0.1279 -2.1214  1.5029
19963SOL     OW63480   0.997   7.894   7.420  0.8655 -0.2968 -0.3008
19963SOL    HW163481   0.961   7.979   7.446  0.5358 -0.8321  1.0634
19963SOL    HW263482   1.080   7.915   7.378  1.0519  0.6721  0.5117
19964SOL     OW63483   1.672   8.711   4.122  0.0308  0.4308  0.5348
19964SOL    HW163484   1.676   8.805   4.140  1.1879  0.5254 -0.1286
19964SOL    HW263485   1.757   8.690   4.083 -0.4517 -0.7708  0.0778
19965SOL     OW63486   3.233   1.363   6.625 -0.0058 -0.6276 -0.0198
19965SOL    HW163487   3.296   1.411   6.679 -1.1159  0.2556  0.5333
19965SOL    HW263488   3.249   1.271   6.647 -0.7233 -0.2836  2.2183
19966SOL     OW63489   6.747   7.700   8.159 -0.3637 -0.0193  0.7528
19966SOL    HW163490   6.764   7.614   8.121  1.7941  1.5329 -2.2257
19966SOL    HW263491   6.824   7.718   8.213  0.3753  0.9300 -0.5609
19967SOL     OW63492  10.404   0.037   6.488 -0.5882  0.6034  0.3025
19967SOL    HW163493  10.405   0.129   6.516  1.5422 -0.0493  2.7060
19967SOL    HW263494  10.353  -0.008   6.555 -1.8675  0.0208 -1.0200
19968SOL     OW63495   9.551   9.226   9.154 -0.1178 -0.2283  0.6273
19968SOL    HW163496   9.455   9.224   9.154 -0.1274 -2.0754 -0.1911
19968SOL    HW263497   9.574   9.301   9.099 -1.1412 -1.1229 -1.1046
19969SOL     OW63498  10.609   9.822   5.401  0.5262 -0.2172 -0.2475
19969SOL    HW163499  10.686   9.803   5.347  0.0053 -1.3678 -0.6153
19969SOL    HW263500  10.537   9.778   5.356 -0.5197  1.5011 -0.3574
19970SOL     OW63501   8.697   7.452   0.196 -0.2164 -0.1816 -0.1183
19970SOL    HW163502   8.622   7.496   0.157 -0.9871 -2.4986 -1.4773
19970SOL    HW263503   8.666   7.363   0.213  2.3116 -1.3512 -1.1086
19971SOL     OW63504   7.756   4.590   5.778  0.1598  0.6657 -0.7094
19971SOL    HW163505   7.805   4.508   5.770  0.7148  0.9597 -0.3450
19971SOL    HW263506   7.664   4.563   5.767  0.2713 -0.1178  0.0667
19972SOL     OW63507   5.677   3.249   3.394 -0.0962 -0.4617 -0.4095
19972SOL    HW163508   5.675   3.340   3.424  0.2913 -0.0768 -1.5046
19972SOL    HW263509   5.668   3.255   3.299 -3.0522 -1.7100 -0.3314
19973SOL     OW63510   9.607   1.985   5.991  0.1415 -0.1867  0.3596
19973SOL    HW163511   9.560   1.923   5.936  0.4993 -0.7899  0.7292
19973SOL    HW263512   9.685   1.938   6.021 -0.1080  0.0704  1.4774
19974SOL     OW63513   7.289   6.546   7.463  0.1221 -0.1105  0.0913
19974SOL    HW163514   7.313   6.638   7.452  2.7417 -0.5988  1.0610
19974SOL    HW263515   7.250   6.541   7.550 -1.8429  0.3462 -0.7090
19975SOL     OW63516   3.998   2.690   2.949 -0.4164 -0.1979  0.0803
19975SOL    HW163517   4.070   2.727   2.897  0.1970  0.3675  1.2937
19975SOL    HW263518   3.989   2.600   2.918  1.2487 -0.4785  0.3449
19976SOL     OW63519   5.448   7.085   9.942 -0.8267 -0.3023  0.0983
19976SOL    HW163520   5.422   6.993   9.936 -1.9602  0.0192 -0.2258
19976SOL    HW263521   5.387   7.131   9.884 -0.9973  0.7934  1.1072
19977SOL     OW63522   1.693   1.242   9.634 -0.0464  0.1044 -0.2344
19977SOL    HW163523   1.723   1.235   9.725  0.8417  1.3266 -0.4015
19977SOL    HW263524   1.671   1.335   9.624  3.1662  0.8207 -2.1626
19978SOL     OW63525  10.864   0.505   8.051 -0.0010  0.3872  0.6186
19978SOL    HW163526  10.790   0.560   8.076 -1.2140 -0.6713 -0.4423
19978SOL    HW263527  10.823   0.424   8.019  1.6182 -0.1516 -0.1879
19979SOL     OW63528   7.018   5.861   1.261  0.4876 -0.0727  0.4722
19979SOL    HW163529   6.968   5.817   1.193 -0.2553 -1.0181  1.5742
19979SOL    HW263530   7.091   5.800   1.279  1.7253  1.0025 -0.6868
19980SOL     OW63531   5.445  10.159   5.201  0.3044 -0.0740  0.1784
19980SOL    HW163532   5.441  10.121   5.289  2.5624 -0.3514  0.2119
19980SOL    HW263533   5.517  10.221   5.204 -0.8612  1.4168 -0.9684
19981SOL     OW63534   2.637  10.388   3.729  0.0724 -0.4723 -0.3459
19981SOL    HW163535   2.548  10.358   3.713  0.2294 -0.4931 -1.2472
19981SOL    HW263536   2.667  10.337   3.804 -1.2069  0.6656  0.9891
19982SOL     OW63537   3.023  10.675   5.947 -0.2502  0.1949  0.2274
19982SOL    HW163538   3.001  10.592   5.904  1.1534 -0.1988  0.1975
19982SOL    HW263539   3.006  10.659   6.039 -2.0112  0.5994 -0.0071
19983SOL     OW63540   5.533  10.530   1.782 -0.0452 -0.3994  0.0615
19983SOL    HW163541   5.553  10.497   1.870 -1.2906 -2.1307 -0.2546
19983SOL    HW263542   5.608  10.503   1.729  0.4090  0.0843  0.4449
19984SOL     OW63543   1.573   7.131   0.724  0.2077  0.2894  0.8425
19984SOL    HW163544   1.482   7.104   0.742  0.5794 -0.4838  1.6164
19984SOL    HW263545   1.564   7.200   0.658 -0.8633 -0.8567 -0.2866
19985SOL     OW63546   7.747   0.126   8.878  0.8638 -0.0604  0.5659
19985SOL    HW163547   7.660   0.163   8.891  0.3382 -1.4294  1.0531
19985SOL    HW263548   7.747   0.045   8.929  1.9896 -0.7321 -0.4459
19986SOL     OW63549   8.375   0.708   7.105 -0.3429 -0.0252  0.6939
19986SOL    HW163550   8.301   0.768   7.108 -0.9529 -0.8024  1.8609
19986SOL    HW263551   8.431   0.743   7.035  0.0669  2.7502  2.2780
19987SOL     OW63552   7.489  10.839   9.333  0.3238 -0.0153  0.0335
19987SOL    HW163553   7.517  10.906   9.396 -0.3696 -1.0629  1.5284
19987SOL    HW263554   7.395  10.853   9.323  0.2335 -0.5438  0.0972
19988SOL     OW63555  10.836   6.375   8.085  0.5489  0.5460 -0.2868
19988SOL    HW163556  10.753   6.346   8.122 -0.3681  1.3051 -1.6992
19988SOL    HW263557  10.902   6.334   8.141 -0.7580  0.3585  1.1844
19989SOL     OW63558   3.689   5.397   6.711  0.0571 -0.3784  0.1530
19989SOL    HW163559   3.720   5.339   6.641 -0.7441 -1.4418  0.6588
19989SOL    HW263560   3.677   5.339   6.786  0.0419  0.6019  0.9205
19990SOL     OW63561   7.569  10.893   6.940  0.2008 -0.1890  0.3721
19990SOL    HW163562   7.643  10.942   6.974  1.0256 -0.4122 -1.0091
19990SOL    HW263563   7.539  10.943   6.864 -0.4479 -0.6069  0.3379
19991SOL     OW63564   7.779   5.904   0.216  0.1964  0.4012  0.4643
19991SOL    HW163565   7.741   5.964   0.152 -0.3498 -1.2582 -0.8440
19991SOL    HW263566   7.784   5.820   0.170  2.3651 -0.2209  1.7144
19992SOL     OW63567   7.748   7.174   6.463 -0.4393  0.3738 -0.3983
19992SOL    HW163568   7.768   7.249   6.519 -0.9480  0.1013  0.1488
19992SOL    HW263569   7.654   7.182   6.444 -0.5646 -0.2935 -0.0846
19993SOL     OW63570   9.976  10.472   9.827 -0.1630  0.9947 -0.2235
19993SOL    HW163571  10.057  10.424   9.809 -0.2527  0.1238  1.4658
19993SOL    HW263572   9.911  10.432   9.768  0.2625  0.5532 -0.4022
19994SOL     OW63573   6.805   4.526  10.782  0.5061 -0.1198 -0.7384
19994SOL    HW163574   6.744   4.594  10.753  1.4101  0.7412 -0.6962
19994SOL    HW263575   6.750   4.464  10.830 -0.0797  1.7232  1.1762
19995SOL     OW63576   0.172  10.980   1.938  0.2730 -0.1952 -0.2734
19995SOL    HW163577   0.079  11.003   1.938  0.2606 -0.2005  0.6647
19995SOL    HW263578   0.216  11.059   1.969  0.5883 -0.1651 -0.8026
19996SOL     OW63579  10.843   9.106   5.017  0.0590  0.7172  0.0130
19996SOL    HW163580  10.881   9.145   4.938  1.0695 -0.9946 -0.3908
19996SOL    HW263581  10.783   9.039   4.985  0.8291 -0.3198  0.6647
19997SOL     OW63582  10.769   7.023   5.025 -0.3444 -0.2309  0.0926
19997SOL    HW163583  10.798   6.943   5.070 -0.3307 -0.5829 -0.5217
19997SOL    HW263584  10.695   6.995   4.972 -0.2829  0.1472 -0.1973
19998SOL     OW63585   8.405   5.408   7.215 -0.1785 -0.0339 -0.0357
19998SOL    HW163586   8.485   5.376   7.174 -0.1745 -1.8102  1.2756
19998SOL    HW263587   8.434   5.483   7.267  0.6634 -0.6649  0.4353
19999SOL     OW63588   1.100   2.177   0.496 -0.3480 -0.2719  0.1496
19999SOL    HW163589   1.038   2.185   0.424  1.0504  0.8038 -0.9878
19999SOL    HW263590   1.184   2.157   0.455  1.3288  3.9717  0.9629
20000SOL     OW63591   2.554   8.771   5.716 -0.1539  0.1995 -0.2616
20000SOL    HW163592   2.515   8.752   5.801  0.2538 -0.6286 -0.2475
20000SOL    HW263593   2.539   8.865   5.703  0.3452  0.4753  1.0210
20001SOL     OW63594  10.209   4.272   8.520 -0.5466 -0.2541  0.2298
20001SOL    HW163595  10.168   4.232   8.597  1.9317 -0.9844  1.2892
20001SOL    HW263596  10.242   4.356   8.552 -0.7542  0.0757 -0.4230
20002SOL     OW63597   8.063   0.765   8.129  0.3688  0.0485 -0.2158
20002SOL    HW163598   8.091   0.813   8.207 -1.7997 -0.7525  1.1612
20002SOL    HW263599   8.035   0.834   8.068 -0.6703  0.6514  0.8922
20003SOL     OW63600   4.906   6.185   1.403  0.6208  0.7251  0.3507
20003SOL    HW163601   4.851   6.160   1.329  0.8149  1.2550  0.0292
20003SOL    HW263602   4.972   6.243   1.366 -0.4083  2.5635  1.2557
20004SOL     OW63603   7.656   8.231   6.083  0.2267 -0.6771  0.1647
20004SOL    HW163604   7.730   8.280   6.047  1.2271 -1.1212  1.5616
20004SOL    HW263605   7.610   8.293   6.139  0.6845 -0.9352  0.8340
20005SOL     OW63606   9.884   7.748   4.253  0.7347  0.4549  0.7168
20005SOL    HW163607   9.946   7.768   4.322  0.2124  0.2025  1.2705
20005SOL    HW263608   9.929   7.771   4.172  1.7612 -0.2639  1.0681
20006SOL     OW63609  11.028   7.248   2.588  0.1155 -0.0573  0.4091
20006SOL    HW163610  11.099   7.312   2.583 -0.1079  0.2273  0.8219
20006SOL    HW263611  10.949   7.298   2.564  0.3571 -0.9522 -2.6295
20007SOL     OW63612   3.325   6.248   3.240 -0.4520 -0.7222 -0.4148
20007SOL    HW163613   3.347   6.161   3.209  1.8024 -0.3727  0.0679
20007SOL    HW263614   3.404   6.300   3.226 -1.8330  1.3582 -1.0098
20008SOL     OW63615   0.470   5.582   4.610 -0.4005  0.2035 -0.5974
20008SOL    HW163616   0.398   5.641   4.588 -0.2797  0.8036  0.5601
20008SOL    HW263617   0.472   5.581   4.705  0.1391 -1.0320 -0.5980
20009SOL     OW63618   2.063   7.121   4.653  0.5210  0.1279  0.9330
20009SOL    HW163619   2.157   7.114   4.673  0.9350  0.8460 -0.6188
20009SOL    HW263620   2.053   7.208   4.614  0.3098 -1.8913 -4.1539
20010SOL     OW63621   7.971   3.455   1.011 -0.1627  0.2835 -0.3751
20010SOL    HW163622   7.916   3.394   0.961  1.2729 -1.3523 -0.0863
20010SOL    HW263623   7.926   3.466   1.094  0.0978 -1.3510  0.0161
20011SOL     OW63624   8.965   5.111   4.510 -0.1553  0.6853  0.2778
20011SOL    HW163625   9.056   5.085   4.496  0.0764  1.8586 -0.6321
20011SOL    HW263626   8.961   5.137   4.602 -0.4834 -2.6839  1.3313
20012SOL     OW63627   0.179   8.755   6.801 -0.3168  0.2073  0.6614
20012SOL    HW163628   0.252   8.696   6.783 -0.8635  0.0054 -1.1591
20012SOL    HW263629   0.205   8.803   6.879  1.1346 -0.8414  0.8603
20013SOL     OW63630   2.662   5.442   8.284  0.0135 -0.0268 -0.3528
20013SOL    HW163631   2.740   5.469   8.332  0.0929 -0.3503 -0.2926
20013SOL    HW263632   2.590   5.454   8.346 -0.7068  4.5525 -1.7690
20014SOL     OW63633   6.638   6.919   1.453 -0.1360 -0.0457  0.4051
20014SOL    HW163634   6.672   6.983   1.515  0.2890 -0.0502  0.1832
20014SOL    HW263635   6.692   6.841   1.467 -0.2234 -0.1386  0.2293
20015SOL     OW63636   5.404   5.137  10.652 -0.0542 -0.3018  0.4456
20015SOL    HW163637   5.406   5.041  10.657  2.3130 -0.2567  1.9027
20015SOL    HW263638   5.476   5.165  10.708 -1.0668  2.3857  0.5300
20016SOL     OW63639   9.373   2.723   3.120  0.1960  0.2721  0.6623
20016SOL    HW163640   9.328   2.682   3.046  4.2489  0.5991 -2.3157
20016SOL    HW263641   9.367   2.659   3.190 -2.7195 -0.6452 -0.2588
20017SOL     OW63642   5.443   4.631   8.609 -0.2609  0.0852  0.3848
20017SOL    HW163643   5.423   4.595   8.696 -1.3007  2.6270  1.3003
20017SOL    HW263644   5.383   4.585   8.550  1.8013 -3.1204  0.5391
20018SOL     OW63645   0.240   4.167   8.167 -0.5285  0.4478  0.0830
20018SOL    HW163646   0.252   4.149   8.260 -1.5413 -0.2366  0.1033
20018SOL    HW263647   0.162   4.222   8.162 -0.1121  1.0194 -0.3272
20019SOL     OW63648   9.945   7.719   0.649  0.5735  0.2589 -0.1895
20019SOL    HW163649   9.951   7.813   0.633  1.2855  0.3396  0.5137
20019SOL    HW263650   9.980   7.679   0.570  1.3692  0.6038 -0.0175
20020SOL     OW63651   6.874  10.385   7.427 -0.4488  0.0652 -0.2917
20020SOL    HW163652   6.893  10.443   7.501 -2.5725  0.9699 -0.3720
20020SOL    HW263653   6.844  10.304   7.468 -1.7325  0.6041 -0.1002
20021SOL     OW63654   9.050   0.348   7.056  0.2114 -0.9664 -0.4005
20021SOL    HW163655   9.038   0.348   6.961 -1.0839 -2.0033 -0.2646
20021SOL    HW263656   9.048   0.256   7.081  0.7730 -0.7148  0.6100
20022SOL     OW63657   8.221   4.360   2.444 -0.0070 -0.0686  0.2955
20022SOL    HW163658   8.269   4.415   2.505 -0.6193 -0.9499  1.6314
20022SOL    HW263659   8.286   4.330   2.381  0.1767  2.8918 -1.0859
20023SOL     OW63660   2.349   2.125   8.627 -0.5932  0.2847  0.1079
20023SOL    HW163661   2.372   2.209   8.587  2.2260 -1.6312 -2.7893
20023SOL    HW263662   2.267   2.100   8.586 -2.0559  1.9855  1.8109
20024SOL     OW63663   5.680   6.775   3.339 -0.1322 -0.3574 -0.5995
20024SOL    HW163664   5.618   6.848   3.343  0.0738 -0.1614 -0.9613
20024SOL    HW263665   5.703   6.758   3.431 -0.7539 -0.4612 -0.4587
20025SOL     OW63666   1.185   4.686   4.513  0.5409 -0.3352  0.2418
20025SOL    HW163667   1.100   4.703   4.472 -0.1046 -1.6818  0.9500
20025SOL    HW263668   1.209   4.770   4.554  1.0012  0.9296 -2.3760
20026SOL     OW63669   9.484   1.410   8.960 -1.0134 -0.4510 -0.0303
20026SOL    HW163670   9.479   1.365   9.044 -0.8096  0.0758  0.2732
20026SOL    HW263671   9.500   1.502   8.983  1.5872 -0.6786 -0.6836
20027SOL     OW63672   7.706   6.421   0.688  0.0565 -0.5299 -0.5161
20027SOL    HW163673   7.779   6.370   0.653 -0.4583 -2.1379  0.6228
20027SOL    HW263674   7.657   6.448   0.610  1.1088 -0.5993 -1.2222
20028SOL     OW63675   5.260   8.845   8.904 -0.3797  0.8360 -0.3494
20028SOL    HW163676   5.308   8.825   8.985  0.1472  1.0659 -0.5992
20028SOL    HW263677   5.251   8.941   8.906  2.4768  1.2620 -2.0962
20029SOL     OW63678   2.494   8.535   6.388  0.0041 -0.3031  0.2400
20029SOL    HW163679   2.412   8.583   6.373 -0.2887 -0.8899 -0.1013
20029SOL    HW263680   2.562   8.601   6.380 -0.3921  0.0605 -0.2046
20030SOL     OW63681   9.002   6.035   5.116  0.3271 -0.2432  0.0623
20030SOL    HW163682   9.097   6.024   5.114  0.0918 -2.9012 -1.8753
20030SOL    HW263683   8.989   6.130   5.121  3.1447  0.4133 -2.2495
20031SOL     OW63684   2.990   1.370   4.975  0.4008 -0.0513  0.3406
20031SOL    HW163685   3.041   1.324   4.908 -0.5127 -0.4155 -0.1165
20031SOL    HW263686   2.934   1.430   4.927 -1.0919 -1.1196  0.6461
20032SOL     OW63687   0.104   7.388   2.810 -0.6170 -0.0813  0.3447
20032SOL    HW163688   0.060   7.368   2.892  0.3600  0.4217  1.0123
20032SOL    HW263689   0.055   7.461   2.772 -0.3687  0.4775  1.0797
20033SOL     OW63690   8.478   3.005   5.244 -0.0937  0.2094  0.4146
20033SOL    HW163691   8.552   3.064   5.226 -1.7799  2.5771  0.7398
20033SOL    HW263692   8.424   3.011   5.165 -1.4154  0.9163  1.3540
20034SOL     OW63693   6.621   4.155   1.874 -0.3658 -0.0493  0.2415
20034SOL    HW163694   6.636   4.062   1.893  2.8467  0.2526 -0.2076
20034SOL    HW263695   6.618   4.160   1.779  0.4939  0.3804  0.2217
20035SOL     OW63696   2.843   7.901   8.155 -0.3341  0.1501 -0.2660
20035SOL    HW163697   2.835   7.806   8.165 -3.7487 -0.1739 -3.7304
20035SOL    HW263698   2.791   7.938   8.227 -0.7133 -0.7043 -0.0958
20036SOL     OW63699  10.011   4.041  10.998  0.1024  0.0364 -0.4464
20036SOL    HW163700  10.039   3.951  10.983 -1.5454 -0.6516  0.2720
20036SOL    HW263701  10.066   4.094  10.941  1.2703 -1.3995 -0.7015
20037SOL     OW63702   7.349   3.946   8.541  0.1660  0.0457 -0.2954
20037SOL    HW163703   7.307   3.914   8.462 -0.9594 -1.4819  0.8718
20037SOL    HW263704   7.385   3.868   8.584 -1.6800  0.3581  2.0652
20038SOL     OW63705  10.375   2.834   1.482  0.0884  0.3336 -0.3032
20038SOL    HW163706  10.283   2.858   1.493  0.3364  0.6671  1.1826
20038SOL    HW263707  10.386   2.824   1.387 -1.6874 -0.5816 -0.4448
20039SOL     OW63708   4.788   7.773   0.049 -0.0672  0.2922  0.0606
20039SOL    HW163709   4.791   7.680   0.071 -0.4201  0.6911  1.9958
20039SOL    HW263710   4.875   7.806   0.072  0.3804  0.2882 -1.5228
20040SOL     OW63711   9.541   3.395   6.538  0.1947 -0.0980  0.5260
20040SOL    HW163712   9.475   3.367   6.475 -0.5456  1.2621  0.6617
20040SOL    HW263713   9.508   3.363   6.622 -0.7519  1.2630  0.7083
20041SOL     OW63714   9.906   9.758   6.643  0.5730  0.7809  0.7383
20041SOL    HW163715   9.949   9.843   6.644  1.6165  0.2675  0.3685
20041SOL    HW263716   9.887   9.739   6.736  1.6903  0.7462  0.9659
20042SOL     OW63717   2.713   9.287   2.484  0.7760  0.3411 -0.0733
20042SOL    HW163718   2.797   9.282   2.439  1.0311  2.9051 -0.0402
20042SOL    HW263719   2.671   9.365   2.448 -0.4807  0.5513  1.7003
20043SOL     OW63720   5.953   9.330   7.307 -0.3273 -0.2124 -0.5120
20043SOL    HW163721   6.037   9.377   7.308  0.1041 -0.9480  0.3990
20043SOL    HW263722   5.890   9.393   7.272  0.6787  0.2167 -1.6280
20044SOL     OW63723   3.881   1.333   7.789  0.4252  0.0965 -0.3364
20044SOL    HW163724   3.811   1.396   7.775 -0.2121 -0.5301 -0.0293
20044SOL    HW263725   3.888   1.286   7.707  1.8450  1.4490 -1.0556
20045SOL     OW63726   4.058   7.768  10.716 -0.0257  0.0917  0.6540
20045SOL    HW163727   4.137   7.799  10.762 -0.8084  2.4453  0.5383
20045SOL    HW263728   4.079   7.778  10.623 -0.2582  0.1956  0.6125
20046SOL     OW63729   9.802   6.103   7.938 -0.3445 -0.1219 -0.1427
20046SOL    HW163730   9.732   6.076   7.878  1.2597 -1.7511 -1.3915
20046SOL    HW263731   9.795   6.041   8.011 -1.4277  0.9986  0.7503
20047SOL     OW63732  10.309   1.448  10.576 -0.3367  0.0512  0.4065
20047SOL    HW163733  10.335   1.356  10.566 -0.4153  0.0590  0.1116
20047SOL    HW263734  10.219   1.451  10.544  0.3920  0.6528 -1.7983
20048SOL     OW63735   9.796   1.315  10.654 -0.8814  0.1060  0.5826
20048SOL    HW163736   9.776   1.255  10.726 -1.9038 -0.6346 -0.2861
20048SOL    HW263737   9.724   1.303  10.592  1.2509 -1.2224 -1.8223
20049SOL     OW63738   3.118   7.519   3.477 -0.1936 -0.3938  0.3221
20049SOL    HW163739   3.169   7.588   3.433 -1.0978 -0.6178 -1.1236
20049SOL    HW263740   3.183   7.469   3.526  0.7219  0.4281 -0.0172
20050SOL     OW63741   4.503   3.941   5.159  0.1524  0.4199 -0.4360
20050SOL    HW163742   4.512   4.031   5.128 -0.1267  0.8929  0.7779
20050SOL    HW263743   4.556   3.889   5.099  2.5481  1.7353  0.4108
20051SOL     OW63744   4.209  10.545   6.206  0.0657 -0.1036  0.2233
20051SOL    HW163745   4.124  10.586   6.190  0.9209  2.5721  1.8307
20051SOL    HW263746   4.189  10.468   6.259 -1.4003  0.0699 -0.0337
20052SOL     OW63747   6.772   8.884   2.832 -0.0068  0.2517 -0.3188
20052SOL    HW163748   6.853   8.917   2.792 -0.6957  1.3272 -0.8793
20052SOL    HW263749   6.741   8.818   2.770  0.3862 -0.0840 -0.1585
20053SOL     OW63750   9.786   0.342   2.106 -0.6273  0.8408 -1.0295
20053SOL    HW163751   9.706   0.383   2.074  0.3552  0.8997 -3.6534
20053SOL    HW263752   9.831   0.411   2.154 -3.4094  0.0203  3.2546
20054SOL     OW63753   8.831   5.930   1.068 -0.7079 -0.4097 -0.0483
20054SOL    HW163754   8.855   6.020   1.047 -1.3616 -0.4652 -1.1437
20054SOL    HW263755   8.735   5.931   1.073 -0.6553 -0.6374  1.9981
20055SOL     OW63756   5.408   0.007   2.893  0.0925 -0.4116 -0.6948
20055SOL    HW163757   5.370  -0.044   2.964  0.2738 -1.0651 -1.0640
20055SOL    HW263758   5.493  -0.034   2.876 -0.2338 -0.6956 -1.7429
20056SOL     OW63759   3.612   7.871   5.172 -0.3823 -0.0346 -0.1279
20056SOL    HW163760   3.585   7.815   5.245 -0.6846  0.0569 -0.1656
20056SOL    HW263761   3.639   7.810   5.104 -0.0137 -0.1186  0.0917
20057SOL     OW63762   6.309   4.699   3.529  0.5498  0.3953  0.5432
20057SOL    HW163763   6.397   4.699   3.565  0.7258  1.4226  0.1317
20057SOL    HW263764   6.320   4.667   3.440  0.3471 -0.4905  0.8211
20058SOL     OW63765   3.385   3.065   6.397  0.3026  0.0144 -0.4961
20058SOL    HW163766   3.394   3.084   6.490 -1.0255 -1.6393  0.0275
20058SOL    HW263767   3.464   3.016   6.374  1.3855  1.7550 -0.6744
20059SOL     OW63768   9.550   1.028  10.802  1.0404  0.0978 -0.7289
20059SOL    HW163769   9.602   0.957  10.839  2.3838  0.0495 -2.5579
20059SOL    HW263770   9.471   0.985  10.769  1.4187 -0.4214 -0.9784
20060SOL     OW63771   1.100   6.705   3.899 -0.4429 -0.2348 -0.2406
20060SOL    HW163772   1.014   6.667   3.882 -1.4017  1.0728  1.4107
20060SOL    HW263773   1.114   6.764   3.825 -2.5080  1.9981  1.0127
20061SOL     OW63774   3.252   0.447   7.189 -0.3188 -0.2930 -0.5543
20061SOL    HW163775   3.276   0.488   7.272 -1.5631  0.1626 -0.4062
20061SOL    HW263776   3.229   0.520   7.132 -1.3815 -0.6953 -0.6654
20062SOL     OW63777  11.091   7.152   8.752 -0.3422 -0.4805  0.1456
20062SOL    HW163778  11.173   7.112   8.724  0.9111  1.4685  0.8260
20062SOL    HW263779  11.023   7.103   8.706  1.3725  0.2622 -3.5337
20063SOL     OW63780   5.793   9.668   6.160  0.0147 -0.0903  0.1341
20063SOL    HW163781   5.848   9.738   6.195 -0.3689 -0.0858  0.7572
20063SOL    HW263782   5.808   9.594   6.219  2.0815 -1.2812 -1.7582
20064SOL     OW63783   2.920   5.255   8.856  0.2559  0.2856  0.6488
20064SOL    HW163784   2.881   5.206   8.928  0.0594  0.8887  0.9514
20064SOL    HW263785   2.848   5.307   8.820  0.0414 -0.9001 -0.7596
20065SOL     OW63786   8.885   8.219   5.386 -0.1113 -0.2111  0.2385
20065SOL    HW163787   8.931   8.174   5.457 -1.2835 -1.8011  0.0330
20065SOL    HW263788   8.793   8.214   5.411 -0.6878 -1.9117 -1.9515
20066SOL     OW63789   7.937   7.202   8.754  0.2685  0.1803  0.1878
20066SOL    HW163790   8.006   7.229   8.693  0.0075  0.2469 -0.0814
20066SOL    HW263791   7.928   7.108   8.740 -0.0413  0.2568 -0.1377
20067SOL     OW63792   8.913   6.477   0.333  0.0448 -0.1195  0.2190
20067SOL    HW163793   8.992   6.455   0.382 -1.5804 -1.9618  2.2211
20067SOL    HW263794   8.931   6.564   0.296  2.3327  0.2699  2.0017
20068SOL     OW63795   4.067   4.244   8.165  0.7032 -0.2282 -0.5820
20068SOL    HW163796   4.122   4.270   8.091  0.8378 -0.3403 -0.5215
20068SOL    HW263797   4.129   4.229   8.237  0.6830 -1.2545 -0.7650
20069SOL     OW63798   6.794   3.937   0.294  0.0706  0.4978  0.3186
20069SOL    HW163799   6.700   3.922   0.296 -0.1755  1.8789  2.8571
20069SOL    HW263800   6.808   3.999   0.223 -0.5276 -1.6626 -1.7834
20070SOL     OW63801   7.307  10.397   5.356 -0.0633 -0.0254 -0.2969
20070SOL    HW163802   7.356  10.328   5.401  0.8055  0.2872 -0.7360
20070SOL    HW263803   7.366  10.427   5.287  0.5852  2.7932  1.3263
20071SOL     OW63804   4.039  10.000   6.843  0.0148  0.4507 -0.1832
20071SOL    HW163805   4.101   9.933   6.812 -1.2971 -0.1364 -1.6941
20071SOL    HW263806   4.085  10.083   6.830  0.2346  0.0788 -2.0380
20072SOL     OW63807   6.345   7.841   6.393 -0.0371 -0.1866 -0.1142
20072SOL    HW163808   6.329   7.876   6.480 -0.3101 -1.1715  0.2430
20072SOL    HW263809   6.424   7.789   6.402  1.2573  1.5281 -0.9924
20073SOL     OW63810   0.989   9.257   5.095 -0.7160  0.5996  0.0080
20073SOL    HW163811   0.977   9.162   5.103  0.5698  0.4464  0.4804
20073SOL    HW263812   0.917   9.286   5.039  0.2907 -1.0184 -2.2964
20074SOL     OW63813  11.024   0.112   6.137  0.4192  0.2524  0.0984
20074SOL    HW163814  11.005   0.059   6.059 -0.9951  2.2107 -0.9613
20074SOL    HW263815  11.112   0.146   6.120  0.2571  0.3986 -0.4872
20075SOL     OW63816   9.500   9.954  11.084  0.2369 -0.0670 -0.0491
20075SOL    HW163817   9.460   9.869  11.098  1.0020 -0.4974 -0.3868
20075SOL    HW263818   9.511   9.960  10.989 -1.3440  1.1400 -0.1899
20076SOL     OW63819   1.292   9.598  10.184 -0.5303  0.0445 -0.0529
20076SOL    HW163820   1.218   9.594  10.122 -0.1972  2.6725 -0.7551
20076SOL    HW263821   1.253   9.629  10.265 -0.7535 -2.2172  0.7771
20077SOL     OW63822  10.854   3.966   2.738  0.3430  0.2443  0.3990
20077SOL    HW163823  10.864   3.904   2.666  2.1928 -0.1866  0.9750
20077SOL    HW263824  10.775   3.936   2.784 -1.2139  0.8630 -1.6989
20078SOL     OW63825   7.483  10.056   8.619  0.3186 -0.1088 -0.0946
20078SOL    HW163826   7.426  10.126   8.588  2.1594  1.6709  0.3050
20078SOL    HW263827   7.425   9.999   8.671 -1.4683  0.3863 -1.4275
20079SOL     OW63828   9.922   8.285  10.709 -0.5636  0.2664  0.4498
20079SOL    HW163829   9.995   8.310  10.765  0.4116  1.5224 -1.3020
20079SOL    HW263830   9.933   8.337  10.629 -2.2709 -0.9500 -0.6591
20080SOL     OW63831   7.529   7.536   2.705 -0.1068  0.8622 -0.5343
20080SOL    HW163832   7.574   7.472   2.761  1.6055  2.1657 -0.3474
20080SOL    HW263833   7.600   7.587   2.666 -1.4055  2.1377 -1.3069
20081SOL     OW63834   5.472   9.983  11.089  0.1284 -0.7238 -0.3386
20081SOL    HW163835   5.455  10.072  11.120  1.1976  0.0873 -1.9483
20081SOL    HW263836   5.431   9.927  11.155  0.4414  0.9140  1.3424
20082SOL     OW63837   4.076   0.384   5.780  0.3000  0.2759  0.2661
20082SOL    HW163838   4.054   0.477   5.780 -1.5371 -0.0196 -3.0464
20082SOL    HW263839   4.149   0.375   5.719  0.2507 -0.4758  0.2994
20083SOL     OW63840  10.146   1.439   1.811  0.0748  0.2343 -0.0077
20083SOL    HW163841  10.163   1.368   1.873  3.0807  2.2581  1.7262
20083SOL    HW263842  10.121   1.513   1.866 -0.9825  1.1066 -1.5961
20084SOL     OW63843   1.718   0.868   7.758  0.8438 -0.0169 -0.3431
20084SOL    HW163844   1.670   0.785   7.749 -2.2214  1.2972  2.1421
20084SOL    HW263845   1.664   0.932   7.711  0.6058  1.3544  1.6821
20085SOL     OW63846   0.258   3.649   4.831 -0.6055  0.0090 -0.0486
20085SOL    HW163847   0.273   3.575   4.890 -1.2626  0.4661  0.7160
20085SOL    HW263848   0.165   3.646   4.812 -0.4787  0.1332 -0.7210
20086SOL     OW63849  10.969   0.794   0.277  0.3034 -0.2524 -0.2206
20086SOL    HW163850  11.027   0.765   0.206  1.2285 -1.7358  1.0787
20086SOL    HW263851  11.022   0.785   0.356 -0.8950  0.8288  0.7509
20087SOL     OW63852   5.685   9.884   0.229 -0.3239  0.1956  0.4314
20087SOL    HW163853   5.692   9.894   0.134  1.2489  0.1351  0.5040
20087SOL    HW263854   5.615   9.820   0.242 -0.9926  0.6820 -0.6409
20088SOL     OW63855   0.961   6.559   7.782 -0.4157  0.6232  0.2657
20088SOL    HW163856   0.906   6.581   7.858 -0.2223  1.4931  0.1631
20088SOL    HW263857   0.901   6.517   7.721 -0.7358  0.5878  0.5972
20089SOL     OW63858   8.635   0.034   6.019  0.1202  0.0261 -0.7424
20089SOL    HW163859   8.604   0.124   6.020  2.6836  0.9788  0.0570
20089SOL    HW263860   8.680   0.025   5.935  0.6157 -0.2386 -0.4510
20090SOL     OW63861   6.134   2.429   7.566 -0.2327 -0.1241  0.1729
20090SOL    HW163862   6.041   2.407   7.576 -0.5589 -1.2074 -3.6251
20090SOL    HW263863   6.174   2.350   7.532  1.8961  0.6810  0.6616
20091SOL     OW63864   9.664   1.270   1.050  0.4034  0.5839 -0.0814
20091SOL    HW163865   9.618   1.354   1.054 -0.5204  0.0823  0.1781
20091SOL    HW263866   9.644   1.228   1.134  1.9254  0.6452  0.3244
20092SOL     OW63867   1.161   1.555   3.430 -0.2759 -0.1093 -0.1780
20092SOL    HW163868   1.123   1.594   3.509  0.7092  1.0595 -0.2616
20092SOL    HW263869   1.254   1.547   3.449 -0.1945 -0.8388 -0.8239
20093SOL     OW63870   5.097   5.147   3.139  0.0035 -0.6430  0.4341
20093SOL    HW163871   5.167   5.103   3.091  0.0129 -1.3006  1.0277
20093SOL    HW263872   5.130   5.235   3.156 -0.2487 -0.1896 -1.2898
20094SOL     OW63873   8.284   8.354  10.282 -0.2549  0.2029 -0.1261
20094SOL    HW163874   8.258   8.362  10.190  3.1996  0.0823 -1.2623
20094SOL    HW263875   8.259   8.438  10.321 -3.3516 -0.3685 -0.5854
20095SOL     OW63876   2.280  10.154   5.071 -0.2484 -0.4232 -0.5509
20095SOL    HW163877   2.350  10.124   5.129  2.1448  0.3683 -2.8477
20095SOL    HW263878   2.269  10.247   5.093  0.9466 -0.0175 -1.5291
20096SOL     OW63879   0.917   4.440   5.960  0.2240  0.1825  0.2239
20096SOL    HW163880   0.998   4.464   5.915 -0.9222  1.3231 -1.3789
20096SOL    HW263881   0.914   4.345   5.957  0.2029  0.2005 -2.2516
20097SOL     OW63882  10.848   2.215  11.107  0.0166 -0.0813  0.7206
20097SOL    HW163883  10.801   2.205  11.024 -1.0344  0.2778  1.2458
20097SOL    HW263884  10.872   2.126  11.132  0.7328 -0.1511 -0.1786
20098SOL     OW63885   5.280  10.989   2.083 -0.4957  0.1003 -0.0905
20098SOL    HW163886   5.353  11.048   2.106  0.1719 -0.4878 -0.6509
20098SOL    HW263887   5.231  11.036   2.016  0.9534 -0.5942 -1.7205
20099SOL     OW63888   6.916   5.002   7.652 -0.2671 -0.3210 -0.0726
20099SOL    HW163889   6.991   5.002   7.593 -0.6305  3.3965 -0.7958
20099SOL    HW263890   6.953   5.020   7.738 -0.2058  1.9856 -0.4988
20100SOL     OW63891   7.662   5.080   3.196  0.3180 -0.0040  0.2489
20100SOL    HW163892   7.690   5.082   3.287 -0.4287 -0.7997  0.5187
20100SOL    HW263893   7.581   5.132   3.194 -0.0719 -0.5971  0.2049
20101SOL     OW63894   6.051   0.790   2.772  0.2106  0.2306 -0.0404
20101SOL    HW163895   6.032   0.869   2.823  0.1170  0.4720 -0.4492
20101SOL    HW263896   6.101   0.821   2.696 -2.0926  0.2860 -1.6329
20102SOL     OW63897   7.119  10.405   1.372  0.2631 -0.3016 -0.3831
20102SOL    HW163898   7.148  10.343   1.305 -1.5708 -0.5592 -1.0221
20102SOL    HW263899   7.119  10.490   1.328 -0.3760 -0.3830 -0.5616
20103SOL     OW63900   2.015   6.086  10.307  0.1578 -0.2544 -0.2255
20103SOL    HW163901   2.059   6.145  10.368  0.3130 -0.2466 -0.3426
20103SOL    HW263902   1.923   6.088  10.333  0.0088  0.7423 -0.7831
20104SOL     OW63903   0.641   5.196  10.961  0.3673  0.3091  0.1801
20104SOL    HW163904   0.614   5.288  10.964 -1.1685 -0.0926 -0.6419
20104SOL    HW263905   0.559   5.147  10.960  1.0957 -0.9962 -1.8946
20105SOL     OW63906   4.387   1.655   2.074 -0.6044 -0.0207 -0.2453
20105SOL    HW163907   4.425   1.741   2.092  0.0826 -0.0155 -1.6260
20105SOL    HW263908   4.385   1.648   1.979 -2.5083 -0.7386 -0.2079
20106SOL     OW63909   5.362   3.250   6.562 -0.3299 -0.1325  0.3573
20106SOL    HW163910   5.303   3.190   6.609  1.2400 -1.5041  0.6723
20106SOL    HW263911   5.426   3.192   6.521  2.2065  1.3500  1.9655
20107SOL     OW63912   1.766   0.710   1.797  0.2724 -0.1499  0.0121
20107SOL    HW163913   1.786   0.684   1.887  0.2077  0.7525  0.2993
20107SOL    HW263914   1.843   0.683   1.747  0.1279 -1.0532  0.2504
20108SOL     OW63915  10.600   8.953   4.129  0.0312  0.3122 -0.1124
20108SOL    HW163916  10.572   8.936   4.219 -1.5442  1.0069 -0.4298
20108SOL    HW263917  10.543   9.024   4.099  1.0905  0.6742 -1.3936
20109SOL     OW63918   6.975  10.518  10.358  0.4748  0.0924 -0.3801
20109SOL    HW163919   6.883  10.532  10.383  0.6127  2.2060 -0.8489
20109SOL    HW263920   7.014  10.605  10.363  2.7109 -0.8929  0.6465
20110SOL     OW63921   7.551   2.650   2.493 -0.2896  0.3986 -0.1880
20110SOL    HW163922   7.555   2.742   2.468 -2.6522  0.5700 -0.1453
20110SOL    HW263923   7.621   2.608   2.442  0.3925  2.0834 -0.6988
20111SOL     OW63924   2.027   6.210   1.199 -0.1019  0.4679  0.3253
20111SOL    HW163925   2.043   6.246   1.112  0.6256 -1.6422 -0.4590
20111SOL    HW263926   2.115   6.197   1.236 -0.1220 -2.9326 -0.5170
20112SOL     OW63927   4.614   7.973   6.890  0.4381 -0.0956 -0.1354
20112SOL    HW163928   4.702   7.955   6.922  0.2517  0.0006  0.4383
20112SOL    HW263929   4.563   7.989   6.969 -0.1029 -0.1904 -0.4649
20113SOL     OW63930  10.768   3.044   6.405 -0.7959  0.4114 -0.4632
20113SOL    HW163931  10.715   3.114   6.366 -0.5911  0.4721 -0.6363
20113SOL    HW263932  10.726   3.025   6.488 -1.2698  0.2439 -0.7404
20114SOL     OW63933   6.611  10.823   1.208 -0.1135  0.1327 -0.4474
20114SOL    HW163934   6.689  10.807   1.260 -0.7984 -0.3635  0.4467
20114SOL    HW263935   6.601  10.745   1.154  0.4796  0.5609 -1.1985
20115SOL     OW63936  10.634   0.292   1.794 -0.7960  0.1984  0.3880
20115SOL    HW163937  10.625   0.341   1.875  0.7720 -0.1737  0.8132
20115SOL    HW263938  10.553   0.240   1.788 -1.5745  1.3047  0.9388
20116SOL     OW63939   2.775  10.313   2.507 -0.3621  0.4201  0.2489
20116SOL    HW163940   2.749  10.378   2.573 -2.8329  0.7887 -0.9628
20116SOL    HW263941   2.854  10.272   2.544 -0.7708  1.6332  2.7152
20117SOL     OW63942   4.486   6.182  10.501  0.8089 -0.0065  0.6298
20117SOL    HW163943   4.508   6.274  10.513  0.5264  0.1638 -0.1079
20117SOL    HW263944   4.518   6.161  10.414 -0.3362 -0.2316  0.2385
20118SOL     OW63945   5.252   2.210   5.626  0.6153 -0.0426  0.1253
20118SOL    HW163946   5.234   2.237   5.536  0.7525 -2.2171 -0.5994
20118SOL    HW263947   5.333   2.159   5.620  0.0719 -1.0808  1.3116
20119SOL     OW63948   3.773   3.047   3.331  0.0823  0.1566  0.1320
20119SOL    HW163949   3.863   3.028   3.358 -0.3628 -3.6252 -0.4034
20119SOL    HW263950   3.780   3.073   3.239  0.6528  0.4777  0.2634
20120SOL     OW63951   0.487   7.521   1.393  0.0004  0.5849  0.7211
20120SOL    HW163952   0.570   7.488   1.361 -0.7520 -1.4896  0.7721
20120SOL    HW263953   0.423   7.494   1.327 -0.7918  1.1329  1.2427
20121SOL     OW63954   7.585   2.042   8.438  0.2119 -0.1163  0.1047
20121SOL    HW163955   7.574   2.088   8.522  2.2915 -0.3168  0.5253
20121SOL    HW263956   7.675   2.060   8.412 -0.6821  0.8392 -2.6746
20122SOL     OW63957   5.988   6.102   9.867 -0.0822 -0.4024  0.3752
20122SOL    HW163958   5.978   6.172   9.932 -0.5958 -0.8923  0.8397
20122SOL    HW263959   5.900   6.085   9.836  0.0324 -0.8717  0.2989
20123SOL     OW63960   2.882   5.626  10.295 -0.4387 -0.0297 -0.4360
20123SOL    HW163961   2.917   5.715  10.310  0.3821 -0.6180  1.5187
20123SOL    HW263962   2.929   5.595  10.218  1.3758  0.2720  0.4684
20124SOL     OW63963   7.940   3.764   3.927 -0.5620  0.0127  0.3247
20124SOL    HW163964   7.866   3.802   3.880 -0.8040  0.2981  0.9167
20124SOL    HW263965   7.899   3.716   4.000 -0.1629  0.2272  0.6926
20125SOL     OW63966   8.066   2.595   4.831 -0.0150  0.3157 -0.0322
20125SOL    HW163967   7.979   2.566   4.859 -0.0352 -0.0856 -0.4941
20125SOL    HW263968   8.115   2.514   4.817  0.1459  0.5123 -0.6639
20126SOL     OW63969   2.090   5.828   3.794 -0.3593  0.4589  0.3171
20126SOL    HW163970   2.108   5.779   3.874  1.8530 -0.3035 -0.5657
20126SOL    HW263971   2.106   5.920   3.819 -0.0397  0.2674  0.8540
20127SOL     OW63972   7.036   6.747   9.579 -0.2095  0.8139 -0.1941
20127SOL    HW163973   6.976   6.772   9.510  0.0906 -0.4634 -0.9448
20127SOL    HW263974   7.107   6.701   9.534  0.2070  0.3361  0.9067
20128SOL     OW63975   8.742   6.894   1.662 -0.7246  0.1470  0.5143
20128SOL    HW163976   8.835   6.879   1.679 -1.1643 -1.1639  1.9914
20128SOL    HW263977   8.729   6.869   1.571  0.2893 -0.0752  0.4210
20129SOL     OW63978   7.868   3.904   7.777 -0.1953 -1.0401  1.0337
20129SOL    HW163979   7.933   3.917   7.846 -0.8741 -1.8676  1.8648
20129SOL    HW263980   7.795   3.859   7.821 -0.3907 -2.1451 -0.3433
20130SOL     OW63981   8.020   3.702   2.026  0.3478 -0.1290 -0.2632
20130SOL    HW163982   8.076   3.663   2.092  0.3409 -0.6368 -0.5510
20130SOL    HW263983   7.937   3.655   2.033  0.9018 -1.4502 -1.8104
20131SOL     OW63984   6.739   5.380   6.422 -0.6897 -0.2894  0.5403
20131SOL    HW163985   6.724   5.286   6.420  0.5963 -0.5063  0.2935
20131SOL    HW263986   6.765   5.398   6.513  1.9197 -0.6959 -0.0352
20132SOL     OW63987   6.382   8.735   9.941  0.1686  0.0192  0.1683
20132SOL    HW163988   6.372   8.735  10.036 -1.5096 -0.7434  0.0417
20132SOL    HW263989   6.442   8.663   9.923 -1.9730 -1.9862  0.5327
20133SOL     OW63990   5.238   9.500   3.584  0.1437  1.0539 -0.4928
20133SOL    HW163991   5.209   9.409   3.596 -1.0685  1.1476 -2.2302
20133SOL    HW263992   5.157   9.549   3.569  0.8320  2.3184 -0.2365
20134SOL     OW63993   2.651   7.994   9.758 -0.6399  0.5051  0.1641
20134SOL    HW163994   2.663   7.965   9.667 -3.0757  0.0827 -0.0774
20134SOL    HW263995   2.558   7.981   9.775 -0.2311  0.5619  2.7534
20135SOL     OW63996   2.544  11.067   7.545  0.6552 -0.3856 -0.0740
20135SOL    HW163997   2.527  11.004   7.614 -0.8613  0.1515  0.0658
20135SOL    HW263998   2.583  11.142   7.590  1.1497 -0.6530 -0.0453
20136SOL     OW63999   4.962   2.910   8.081 -0.0687 -0.6518  0.1357
20136SOL    HW164000   4.988   2.883   7.993  0.7127  1.3735 -0.3164
20136SOL    HW264001   5.045   2.928   8.127 -0.3971 -2.7407  1.7146
20137SOL     OW64002  10.270   9.249  10.727  0.3482 -0.0890  0.0956
20137SOL    HW164003  10.330   9.176  10.713  1.6458  0.9828 -0.1383
20137SOL    HW264004  10.215   9.221  10.800  1.4198 -0.9337  0.6108
20138SOL     OW64005   6.491   1.192   5.539 -0.5763 -0.3351  0.4729
20138SOL    HW164006   6.579   1.207   5.574 -1.6959  2.8069  2.3667
20138SOL    HW264007   6.478   1.262   5.476 -2.2318  0.2429  1.3933
20139SOL     OW64008   9.273   2.354   8.327  0.3482  0.1338 -0.3851
20139SOL    HW164009   9.219   2.275   8.330  2.2722 -1.3312 -1.6705
20139SOL    HW264010   9.350   2.332   8.379  0.2652  1.7466  0.4672
20140SOL     OW64011   3.702   6.254   0.300 -0.5127  0.3687 -0.2249
20140SOL    HW164012   3.654   6.180   0.337  1.0742 -0.4553  0.3074
20140SOL    HW264013   3.747   6.293   0.374 -0.5713  1.2936 -0.6586
20141SOL     OW64014   6.740   1.691   6.840 -0.1868 -0.5799 -0.3363
20141SOL    HW164015   6.699   1.610   6.809  2.0811 -1.8140 -0.3165
20141SOL    HW264016   6.825   1.693   6.796  0.5360  0.8777  1.0242
20142SOL     OW64017   6.887   3.810   6.563  1.0751  0.0280 -0.1372
20142SOL    HW164018   6.902   3.850   6.477 -0.5964  1.6542  0.2631
20142SOL    HW264019   6.970   3.819   6.608  2.0841 -1.1337 -1.6403
20143SOL     OW64020   2.144   1.393   0.122 -0.3658 -1.0964  1.0305
20143SOL    HW164021   2.178   1.456   0.185  1.6091 -2.3885  1.3660
20143SOL    HW264022   2.063   1.360   0.162 -1.5881  1.3244  0.7111
20144SOL     OW64023   6.333   0.349   1.093  0.8307  0.4620  0.2699
20144SOL    HW164024   6.335   0.375   1.001  2.0598 -1.7921 -0.4247
20144SOL    HW264025   6.241   0.327   1.110  0.6301  0.7179 -0.4661
20145SOL     OW64026   6.211   4.978  11.099  0.1563  0.1328  0.7821
20145SOL    HW164027   6.275   4.925  11.146 -0.5816 -0.0120  1.6480
20145SOL    HW264028   6.208   5.060  11.148  0.5149  0.5788  0.0689
20146SOL     OW64029   4.729   9.779   8.484 -0.1766  0.2671  0.1560
20146SOL    HW164030   4.754   9.862   8.443 -0.4606  0.7213  0.8749
20146SOL    HW264031   4.635   9.789   8.501  0.5764  1.9860  4.9317
20147SOL     OW64032   9.547   5.371   7.313 -0.1876 -0.3918 -0.3878
20147SOL    HW164033   9.480   5.396   7.376 -0.9179  0.0869 -1.3409
20147SOL    HW264034   9.628   5.371   7.364 -1.1032 -2.7939  1.2294
20148SOL     OW64035   5.288   6.976   1.031  0.2639 -0.2712  0.8189
20148SOL    HW164036   5.336   7.046   0.987  0.0819 -0.4919  0.2632
20148SOL    HW264037   5.273   7.009   1.119  1.0938 -0.0325  0.8820
20149SOL     OW64038   7.557   2.295   1.641  0.2375  0.0947  1.1179
20149SOL    HW164039   7.483   2.333   1.687  0.1714 -0.3340  1.3714
20149SOL    HW264040   7.528   2.290   1.550 -0.9487 -2.1660  1.5486
20150SOL     OW64041   6.234   8.354   9.659  0.1182 -0.4950 -0.2571
20150SOL    HW164042   6.160   8.394   9.614 -1.2739  0.4815  2.6194
20150SOL    HW264043   6.249   8.410   9.735  3.3010 -1.1638 -0.2310
20151SOL     OW64044   8.131   8.346   5.285  0.8703 -0.0830 -0.0237
20151SOL    HW164045   8.067   8.370   5.352  0.2760  0.9769 -0.9402
20151SOL    HW264046   8.094   8.269   5.242  0.1500  0.5794 -0.6079
20152SOL     OW64047   0.197   3.447   9.724  0.5682  0.7441 -0.1629
20152SOL    HW164048   0.110   3.434   9.686  0.6490  0.1532 -0.1553
20152SOL    HW264049   0.183   3.509   9.795 -0.2039 -0.8248  1.1130
20153SOL     OW64050   6.158   3.152  11.065 -0.1640 -0.1128  0.2319
20153SOL    HW164051   6.064   3.143  11.046  0.0460 -1.2435 -0.4200
20153SOL    HW264052   6.164   3.147  11.160 -0.8138  0.6106  0.3226
20154SOL     OW64053   3.369   1.013   8.397  0.3856 -0.3392 -0.0055
20154SOL    HW164054   3.442   1.057   8.354  0.1202  0.0365 -0.0800
20154SOL    HW264055   3.296   1.020   8.335 -0.8236  2.6704  1.5358
20155SOL     OW64056   1.847   3.872  10.414  0.9421  0.7252 -0.4445
20155SOL    HW164057   1.873   3.794  10.365  1.8006  0.7635 -0.0692
20155SOL    HW264058   1.814   3.932  10.347  3.2040  1.2416 -1.1960
20156SOL     OW64059   0.031   8.078  10.244 -0.1291 -0.2863  0.3160
20156SOL    HW164060   0.085   8.018  10.294  0.7656  0.6487  0.4851
20156SOL    HW264061  -0.056   8.071  10.284  0.0584 -1.1537  0.5913
20157SOL     OW64062   2.709   5.965  10.983 -0.2672 -0.3937  0.1473
20157SOL    HW164063   2.674   5.966  10.894  1.4374  0.2288 -0.5560
20157SOL    HW264064   2.639   5.927  11.036 -2.4087  1.7558 -0.9600
20158SOL     OW64065   1.302   3.317   7.512  0.6817 -0.4906 -0.2319
20158SOL    HW164066   1.348   3.388   7.557 -0.5009  0.5906 -0.6513
20158SOL    HW264067   1.366   3.283   7.449  0.8702  1.1296 -0.9709
20159SOL     OW64068   0.427   9.244   4.983 -0.0646  0.3618  0.2231
20159SOL    HW164069   0.485   9.214   5.053  0.8262  0.4085 -0.4805
20159SOL    HW264070   0.482   9.245   4.905 -1.0874  0.1582 -0.5202
20160SOL     OW64071  10.319   2.560   2.585 -0.0282  0.0477  0.5436
20160SOL    HW164072  10.272   2.485   2.622 -0.5153  0.2001  0.2286
20160SOL    HW264073  10.408   2.551   2.621  0.4660 -1.7457 -0.9820
20161SOL     OW64074   0.012   1.741   7.429 -0.5183 -0.6440  0.2217
20161SOL    HW164075   0.047   1.742   7.518 -0.6223 -1.6051  0.2831
20161SOL    HW264076  -0.053   1.671   7.429 -0.6331 -0.5502 -0.5681
20162SOL     OW64077   8.681   6.953   0.402 -0.2747  0.3356  0.1210
20162SOL    HW164078   8.730   6.891   0.456  0.2562 -0.3165 -1.0774
20162SOL    HW264079   8.594   6.957   0.444  0.7710  1.6107  2.3497
20163SOL     OW64080   6.262   4.146   2.091  0.2810  0.3837  0.2696
20163SOL    HW164081   6.205   4.160   2.166 -0.4890  0.8200 -0.3805
20163SOL    HW264082   6.341   4.107   2.128 -1.1423 -2.0540  0.9869
20164SOL     OW64083   9.346   8.122  10.423 -0.4761  0.2151  0.1127
20164SOL    HW164084   9.427   8.121  10.474  0.1785  2.9573 -0.6799
20164SOL    HW264085   9.363   8.185  10.353 -2.6888 -0.5080 -1.1907
20165SOL     OW64086   8.937   0.565   5.777 -0.2876 -0.0756 -0.0545
20165SOL    HW164087   8.992   0.639   5.802 -0.3684 -0.0637  0.0863
20165SOL    HW264088   8.961   0.495   5.838 -0.9007  0.1335  0.4353
20166SOL     OW64089   3.202   1.702   2.057  0.1003 -0.0546 -0.3125
20166SOL    HW164090   3.119   1.671   2.020 -0.0896 -0.1251  0.1610
20166SOL    HW264091   3.267   1.643   2.020 -0.1145 -0.2696 -0.3545
20167SOL     OW64092   2.576   4.607   1.928  0.6048 -0.1515  0.5925
20167SOL    HW164093   2.538   4.548   1.992 -0.3052  0.8757  1.0175
20167SOL    HW264094   2.537   4.581   1.844  1.5775 -1.3042  0.4787
20168SOL     OW64095   4.509  10.785   8.431  0.3295  0.4788 -0.2499
20168SOL    HW164096   4.604  10.790   8.427  0.3800  1.4061  1.3492
20168SOL    HW264097   4.492  10.729   8.507 -0.4333 -1.5234 -1.7929
20169SOL     OW64098  10.280   4.049   6.909  0.1188 -0.2395  0.3046
20169SOL    HW164099  10.264   4.074   6.818  1.8235  0.7814  0.2610
20169SOL    HW264100  10.345   3.979   6.904 -0.2497 -0.6228  0.7288
20170SOL     OW64101   9.128   8.280   8.651  0.1543  0.3248  0.0816
20170SOL    HW164102   9.080   8.294   8.733  0.1635  0.9604 -0.0235
20170SOL    HW264103   9.089   8.341   8.589  0.6689  0.3886 -0.1828
20171SOL     OW64104   3.076   8.133  10.954  0.4514 -0.2359 -0.2357
20171SOL    HW164105   3.023   8.143  10.875  0.5650 -1.0296 -0.4130
20171SOL    HW264106   3.161   8.171  10.931  0.3453 -0.0610 -0.3404
20172SOL     OW64107   9.686  10.557   2.473 -0.5290 -0.2676 -0.3749
20172SOL    HW164108   9.742  10.601   2.408  0.6211 -0.0055  0.7640
20172SOL    HW264109   9.675  10.468   2.438  0.5527 -0.3075 -0.6562
20173SOL     OW64110   9.080   1.510   0.995  0.0493  0.2149 -0.5361
20173SOL    HW164111   9.029   1.479   1.070  2.1474 -0.5858  0.6442
20173SOL    HW264112   9.029   1.585   0.961 -1.1652  0.3595  1.4282
20174SOL     OW64113   6.661   0.470   4.422  0.0427  0.3249 -0.5810
20174SOL    HW164114   6.671   0.499   4.513 -1.8473  1.3131 -0.6504
20174SOL    HW264115   6.567   0.468   4.407  0.1956 -2.4149 -1.7455
20175SOL     OW64116   8.437   4.714   1.818  0.1633 -0.1820 -0.0433
20175SOL    HW164117   8.428   4.733   1.725 -1.2072 -0.7585 -0.0367
20175SOL    HW264118   8.489   4.787   1.851  1.0248 -0.1801 -1.3178
20176SOL     OW64119  10.459   3.654   7.043  0.4283  0.7917 -0.5596
20176SOL    HW164120  10.473   3.563   7.019  0.0284  0.6325 -0.1853
20176SOL    HW264121  10.448   3.653   7.138  0.6222  1.2553 -0.5271
20177SOL     OW64122   1.477   3.232   3.372 -0.0184  0.9619 -0.3081
20177SOL    HW164123   1.398   3.282   3.351  0.0862  1.0828 -0.4165
20177SOL    HW264124   1.444   3.152   3.412 -0.2228  0.7084 -0.9733
20178SOL     OW64125   3.861   4.437   9.706 -0.1039 -0.3141 -0.2913
20178SOL    HW164126   3.888   4.347   9.688  0.5597 -0.5070  1.4307
20178SOL    HW264127   3.782   4.429   9.759 -0.9616  0.1646 -1.4824
20179SOL     OW64128   5.973   0.202   3.482 -0.1431 -0.4042  0.1129
20179SOL    HW164129   5.992   0.166   3.569 -1.3494  0.7895  0.9099
20179SOL    HW264130   6.022   0.284   3.479 -1.9409  0.7520  0.6588
20180SOL     OW64131   1.849   8.638   6.645  0.2305  0.4197  0.1001
20180SOL    HW164132   1.772   8.603   6.690  1.2242 -0.7947  0.9172
20180SOL    HW264133   1.847   8.597   6.559  0.0928  0.2287  0.1942
20181SOL     OW64134   3.540   2.288   6.964 -0.7684 -0.1989  0.8528
20181SOL    HW164135   3.573   2.211   7.010 -0.1728  0.3924  1.4479
20181SOL    HW264136   3.493   2.337   7.031  0.7259  1.0414  1.0601
20182SOL     OW64137   2.022   4.468   3.852 -0.0588  0.3767  0.4803
20182SOL    HW164138   2.019   4.401   3.784 -0.5416 -0.7217  1.5553
20182SOL    HW264139   2.115   4.483   3.868  0.0890 -1.5001  1.6065
20183SOL     OW64140   7.848   8.944   1.654  0.0689 -0.0511 -0.1984
20183SOL    HW164141   7.885   8.947   1.565  1.2120  1.2424  0.2880
20183SOL    HW264142   7.768   8.892   1.644 -0.1600  0.5564 -2.1232
20184SOL     OW64143  10.404   8.392  10.967 -0.1964 -0.1072 -0.6516
20184SOL    HW164144  10.460   8.351  11.033  1.0662  0.0309 -1.6097
20184SOL    HW264145  10.382   8.477  11.005 -0.6202 -0.5620  0.1672
20185SOL     OW64146   0.761   2.808   8.346 -0.0412  0.2946 -0.0845
20185SOL    HW164147   0.690   2.777   8.291  0.3174  2.4324 -1.8919
20185SOL    HW264148   0.749   2.762   8.429 -3.1686  0.1729 -0.5000
20186SOL     OW64149  10.165   4.875   1.453  0.4099 -0.2367  0.0680
20186SOL    HW164150  10.082   4.829   1.443 -1.0727  1.8594  1.8591
20186SOL    HW264151  10.181   4.877   1.547  2.4303 -0.3770 -0.2115
20187SOL     OW64152   6.392   6.969   9.205 -0.0796  0.4961 -0.1734
20187SOL    HW164153   6.426   6.977   9.295 -1.1229 -0.2208  0.2935
20187SOL    HW264154   6.307   7.012   9.208 -0.2288  0.2425 -0.7691
20188SOL     OW64155   6.924   1.223  10.979  0.2623  0.0045  0.8409
20188SOL    HW164156   6.852   1.247  10.920  0.8604  1.3779  0.6236
20188SOL    HW264157   6.982   1.170  10.925 -0.9328 -1.7611  1.2326
20189SOL     OW64158   8.288   3.809   1.242 -0.2446 -0.5825 -0.2521
20189SOL    HW164159   8.245   3.730   1.276  0.5544 -1.0288 -0.2579
20189SOL    HW264160   8.381   3.795   1.260  0.1121 -0.4311 -1.8025
20190SOL     OW64161   4.788   9.969   5.660 -0.6556 -0.4451  0.3355
20190SOL    HW164162   4.735  10.010   5.729  0.5587 -0.7533  1.4794
20190SOL    HW264163   4.765   9.877   5.665 -1.8687 -0.2462 -0.8848
20191SOL     OW64164   0.229   6.127   8.109 -0.3666  0.1420 -0.4484
20191SOL    HW164165   0.158   6.163   8.162  2.0799  2.2320  1.7229
20191SOL    HW264166   0.293   6.096   8.173  1.4815  0.0771 -2.2277
20192SOL     OW64167   0.432   6.482   4.359  0.8481  0.1897 -0.1608
20192SOL    HW164168   0.404   6.573   4.366  1.5429  0.2785  2.2757
20192SOL    HW264169   0.527   6.485   4.363  0.8406 -0.6925  1.5970
20193SOL     OW64170   8.601   6.302   2.635 -0.0561 -0.7022  0.2081
20193SOL    HW164171   8.684   6.317   2.681  0.7837  0.2597 -1.5455
20193SOL    HW264172   8.626   6.260   2.553 -1.3422 -0.6822 -0.2141
20194SOL     OW64173   2.589   4.570   8.842 -0.2065 -0.2359 -0.5940
20194SOL    HW164174   2.595   4.582   8.937 -0.7880 -0.9083 -0.4616
20194SOL    HW264175   2.662   4.621   8.807 -0.2945  0.4430  0.1741
20195SOL     OW64176   7.896   1.968   8.343  0.1496  0.0118 -0.4187
20195SOL    HW164177   7.902   2.043   8.402  4.5547 -0.4558  0.0649
20195SOL    HW264178   7.907   2.005   8.255 -1.3859  0.1912 -0.5721
20196SOL     OW64179   4.426   5.853   9.842 -0.5355 -0.3923  0.1488
20196SOL    HW164180   4.390   5.942   9.837 -1.3075 -0.7583 -1.2690
20196SOL    HW264181   4.521   5.866   9.849 -0.6804  0.5416  0.5793
20197SOL     OW64182   6.904   1.032   1.589 -0.8278 -0.1036 -0.0910
20197SOL    HW164183   6.893   1.127   1.585 -1.2066 -0.1891 -2.1336
20197SOL    HW264184   6.851   1.005   1.664 -0.0689  1.3522  1.0275
20198SOL     OW64185   2.402  10.894   0.748  0.7756  0.4098 -0.0954
20198SOL    HW164186   2.462  10.911   0.676  0.6823  0.7812 -0.0915
20198SOL    HW264187   2.453  10.843   0.811  0.4772 -1.0197 -0.9774
20199SOL     OW64188  10.989  10.223   9.231 -0.2732 -0.2960  0.3339
20199SOL    HW164189  10.913  10.227   9.172 -0.7187 -0.6331  0.8698
20199SOL    HW264190  11.044  10.296   9.205 -1.7173  1.1784  1.2103
20200SOL     OW64191   3.839   4.647   4.457 -0.3252  0.1631 -0.1451
20200SOL    HW164192   3.836   4.570   4.514 -0.3891  0.6116  0.4683
20200SOL    HW264193   3.766   4.701   4.487 -0.5091  0.2947 -0.8214
20201SOL     OW64194   9.368   9.862   1.771 -0.4536  0.4983 -0.2612
20201SOL    HW164195   9.314   9.928   1.815 -0.8305 -1.1138  1.8861
20201SOL    HW264196   9.436   9.840   1.835  1.0305  0.3950 -1.8004
20202SOL     OW64197   9.170   7.759   8.024 -0.1358  0.3145 -0.4965
20202SOL    HW164198   9.230   7.815   8.074  0.4215 -0.8550  0.1805
20202SOL    HW264199   9.114   7.720   8.091 -0.5340  0.0833 -0.9662
20203SOL     OW64200  10.951   5.302   4.776 -0.9268 -0.1399  0.1480
20203SOL    HW164201  10.942   5.313   4.682  0.2354 -0.3084  0.0060
20203SOL    HW264202  10.864   5.324   4.811 -1.3678 -0.0690 -0.9474
20204SOL     OW64203   1.235   9.098  11.079 -0.1819  0.0422  0.2448
20204SOL    HW164204   1.255   9.189  11.055  2.2500 -0.8197 -1.3375
20204SOL    HW264205   1.239   9.050  10.996 -1.5055 -1.5341  1.0409
20205SOL     OW64206   5.651   9.715   9.600  0.3108 -0.8174  0.3812
20205SOL    HW164207   5.617   9.793   9.642  0.5939  0.2841 -1.3183
20205SOL    HW264208   5.728   9.745   9.551  1.9331 -2.6394  1.6545
20206SOL     OW64209   2.455   9.663   9.562 -0.1433  0.6508 -0.3326
20206SOL    HW164210   2.493   9.751   9.559  1.5845  0.0780  1.9027
20206SOL    HW264211   2.422   9.655   9.652  0.6129 -1.2882 -0.1816
20207SOL     OW64212   4.297  10.725   5.575  0.5746  0.3367  0.3110
20207SOL    HW164213   4.223  10.772   5.538  1.4597  1.5450  0.0226
20207SOL    HW264214   4.298  10.641   5.527  0.7142  1.2036 -1.2773
20208SOL     OW64215   1.656   8.148   9.903  0.0521  0.4986 -0.6316
20208SOL    HW164216   1.664   8.154   9.808 -0.1649  0.3767 -0.6570
20208SOL    HW264217   1.688   8.233   9.935 -1.2857  1.1231 -0.8998
20209SOL     OW64218   7.953   8.994   2.097 -0.5953  1.0962  0.3649
20209SOL    HW164219   7.886   9.001   2.164  1.6234  2.8080  2.5569
20209SOL    HW264220   7.989   8.906   2.108 -1.7612  0.5023 -0.2398
20210SOL     OW64221   7.339   7.337   4.585 -0.1476  0.0863  0.0079
20210SOL    HW164222   7.307   7.425   4.565  0.5565  0.9450  2.3322
20210SOL    HW264223   7.355   7.338   4.679 -0.6333 -2.7350  0.2021
20211SOL     OW64224   3.511   4.764   5.075 -0.4096  0.0453  0.0151
20211SOL    HW164225   3.603   4.790   5.081 -0.7052  0.8772  1.1656
20211SOL    HW264226   3.462   4.841   5.104 -1.4308 -0.7801  0.5502
20212SOL     OW64227   0.879   7.172   4.894  0.3969  0.0642 -0.1537
20212SOL    HW164228   0.893   7.162   4.800 -0.6399 -1.4879 -0.1832
20212SOL    HW264229   0.786   7.151   4.907  0.7458 -0.7331  1.3262
20213SOL     OW64230   2.002   5.687   3.085  0.5306  0.2399  0.2634
20213SOL    HW164231   2.061   5.641   3.145  1.4806  0.8996 -0.1420
20213SOL    HW264232   1.943   5.620   3.053  1.2988 -0.5116  0.3966
20214SOL     OW64233  10.039   6.405   4.147  0.3281 -0.2700 -0.4626
20214SOL    HW164234  10.008   6.443   4.229 -1.6799  1.0540 -1.7536
20214SOL    HW264235  10.133   6.393   4.160 -0.0145 -0.6488  2.2115
20215SOL     OW64236   1.161   7.326   3.794 -0.5801  0.3569  0.1451
20215SOL    HW164237   1.164   7.362   3.882 -1.1628 -1.8898  1.1647
20215SOL    HW264238   1.152   7.402   3.737 -0.7906  1.8395  2.0540
20216SOL     OW64239   9.596   5.494   2.147  0.3034 -0.3678 -0.1798
20216SOL    HW164240   9.577   5.586   2.170  1.7724  0.0938 -0.7381
20216SOL    HW264241   9.518   5.466   2.099 -1.1495 -0.1513  1.8712
20217SOL     OW64242   4.962   2.763   0.960  0.8481  0.2028 -0.1144
20217SOL    HW164243   5.045   2.808   0.946  0.2916  0.9487 -1.1307
20217SOL    HW264244   4.953   2.705   0.884  0.3911  0.2000 -0.0635
20218SOL     OW64245   3.757   4.956   7.775 -0.0833  0.0175 -0.1624
20218SOL    HW164246   3.814   4.969   7.700 -1.1753 -0.7768 -1.1701
20218SOL    HW264247   3.796   5.008   7.845  2.1153 -0.8415 -0.6652
20219SOL     OW64248   6.387   9.784   4.076 -0.0947 -0.7251 -0.1441
20219SOL    HW164249   6.326   9.712   4.092 -1.7841  0.8643  0.9036
20219SOL    HW264250   6.421   9.806   4.163 -1.2087  1.0641 -0.1215
20220SOL     OW64251   2.113   8.272   6.508 -0.7136  0.6880  0.3348
20220SOL    HW164252   2.132   8.356   6.466  1.1436 -0.5633 -1.5178
20220SOL    HW264253   2.055   8.227   6.447  1.4229 -0.8605 -0.6964
20221SOL     OW64254   1.982   3.582  10.557 -0.0758 -0.5439 -0.2184
20221SOL    HW164255   1.894   3.559  10.587 -0.4304 -0.5362 -1.2278
20221SOL    HW264256   1.992   3.535  10.474  0.5695  0.1072 -0.5149
20222SOL     OW64257   4.945   1.950   1.356  0.0096  0.6729 -0.5595
20222SOL    HW164258   4.932   1.917   1.267 -1.0756 -2.3419  0.5594
20222SOL    HW264259   5.037   1.930   1.374 -0.4656 -1.4460 -0.1286
20223SOL     OW64260   9.076   4.338   6.271  0.3311 -0.0230 -0.9070
20223SOL    HW164261   9.029   4.388   6.337 -0.9664 -2.0157 -0.2287
20223SOL    HW264262   9.014   4.332   6.198 -0.2187 -1.9426 -0.3425
20224SOL     OW64263   0.838   1.911   3.847 -0.0367  0.4215  0.4557
20224SOL    HW164264   0.844   1.836   3.907  0.0904  0.2162  0.1913
20224SOL    HW264265   0.783   1.975   3.893  3.0110  1.8446  2.4755
20225SOL     OW64266   2.628   4.914   7.099 -0.0299  0.8642  0.1015
20225SOL    HW164267   2.634   4.928   7.004  0.1477 -0.9034 -0.1749
20225SOL    HW264268   2.697   4.971   7.135  1.7049 -0.3748 -1.0724
20226SOL     OW64269   7.639   7.694   3.744 -0.1480  0.2919 -0.2410
20226SOL    HW164270   7.642   7.645   3.826  0.0903  0.4152 -0.1775
20226SOL    HW264271   7.545   7.701   3.724 -0.2397  0.8470  0.3696
20227SOL     OW64272  10.638   5.957   0.218 -0.0582 -0.2682 -0.3109
20227SOL    HW164273  10.665   6.047   0.236 -1.5102 -0.1022  1.2673
20227SOL    HW264274  10.603   5.960   0.129  1.3690  0.3484 -0.8824
20228SOL     OW64275   5.505   5.364   5.226 -0.7726  0.8550 -1.1540
20228SOL    HW164276   5.446   5.438   5.211 -0.9505  1.2380  1.0982
20228SOL    HW264277   5.567   5.396   5.291  1.4243  0.1478 -2.7699
20229SOL     OW64278  10.218   3.766   8.225  0.1652  0.3118  0.4653
20229SOL    HW164279  10.274   3.842   8.242  4.3916 -1.7354 -2.5689
20229SOL    HW264280  10.239   3.705   8.296 -0.2278  0.4876  0.7367
20230SOL     OW64281   4.542   8.472   8.833 -0.2845 -0.0834  0.7167
20230SOL    HW164282   4.600   8.401   8.807  1.2738  1.5016 -0.3217
20230SOL    HW264283   4.454   8.435   8.825  0.2598 -1.0134 -2.9195
20231SOL     OW64284   2.395   4.038   0.768 -0.0479  0.2394 -0.2489
20231SOL    HW164285   2.323   4.094   0.736  0.7330  1.1545 -0.4483
20231SOL    HW264286   2.391   3.961   0.712 -0.2566  0.7264 -0.9248
20232SOL     OW64287  10.971   7.322   3.006  0.6466  0.6269 -0.2983
20232SOL    HW164288  10.957   7.242   2.955  0.4320  1.1221 -1.0351
20232SOL    HW264289  10.930   7.391   2.954  2.3281  1.4999 -0.5486
20233SOL     OW64290  11.011   6.232   5.779 -0.1340  0.1901  0.0040
20233SOL    HW164291  11.017   6.136   5.775 -1.9947  0.0902 -1.2882
20233SOL    HW264292  10.980   6.250   5.868 -1.5813 -0.5577 -0.3146
20234SOL     OW64293   2.436   1.895   0.686 -0.0327 -0.7569  0.2559
20234SOL    HW164294   2.451   1.975   0.635 -1.2682 -0.7399 -0.1057
20234SOL    HW264295   2.514   1.842   0.669  0.7265  0.2942  0.3711
20235SOL     OW64296   2.286   4.352   2.448 -0.1394 -0.2612 -0.0424
20235SOL    HW164297   2.246   4.272   2.483  0.5443  0.1248  1.7745
20235SOL    HW264298   2.344   4.322   2.378  0.1856 -1.3884  0.6786
20236SOL     OW64299   1.178   8.568   4.570  0.1933  0.3258  0.0631
20236SOL    HW164300   1.241   8.638   4.555 -0.5615  0.9549 -0.2081
20236SOL    HW264301   1.220   8.490   4.534  2.5932 -0.1483  3.4131
20237SOL     OW64302   7.254   7.724   0.610 -0.3495  0.4510 -0.3281
20237SOL    HW164303   7.274   7.736   0.517 -1.5203  1.8425 -0.4336
20237SOL    HW264304   7.311   7.787   0.655 -0.9748  0.9792 -0.2564
20238SOL     OW64305   7.980   1.794  11.059  0.1612 -0.1928  0.5314
20238SOL    HW164306   8.009   1.828  11.143  0.0389 -2.6149  1.6338
20238SOL    HW264307   8.046   1.826  10.996  0.8855  0.7240  1.7174
20239SOL     OW64308   3.687   2.712   0.964  0.2140 -0.2485  0.2257
20239SOL    HW164309   3.593   2.726   0.960  0.2640 -0.1341 -1.6047
20239SOL    HW264310   3.697   2.623   0.999 -0.5047  0.1269  1.4551
20240SOL     OW64311   7.024   7.390   7.511 -0.3305  0.2465  0.0434
20240SOL    HW164312   6.952   7.411   7.570  1.2505 -1.3145  2.7554
20240SOL    HW264313   6.988   7.328   7.449 -1.5865  0.3394  0.6539
20241SOL     OW64314   2.772   9.168   8.844 -0.0032 -1.0214  0.1846
20241SOL    HW164315   2.859   9.207   8.832 -0.2922 -0.5177 -0.2821
20241SOL    HW264316   2.757   9.173   8.938  0.8088 -1.8440  0.3774
20242SOL     OW64317   8.251   9.591   9.815  0.4620 -0.5603  0.5555
20242SOL    HW164318   8.248   9.526   9.885 -0.5859  0.2707  1.3173
20242SOL    HW264319   8.225   9.542   9.736  0.5734 -1.2634  0.9457
20243SOL     OW64320   1.089   5.318   8.919 -0.0608 -0.3691 -0.3486
20243SOL    HW164321   1.100   5.314   9.014 -1.0705  1.1581 -0.1311
20243SOL    HW264322   1.001   5.284   8.903  0.0366 -0.4571 -0.7097
20244SOL     OW64323   0.577   0.273   6.952 -0.3633 -0.1651  0.0271
20244SOL    HW164324   0.652   0.217   6.972 -1.6234 -1.6686  0.7486
20244SOL    HW264325   0.588   0.349   7.010  0.3875 -0.5511  0.4110
20245SOL     OW64326   0.643   4.789  10.492 -0.3025  0.7252  0.3314
20245SOL    HW164327   0.591   4.869  10.489  0.0259  0.9121 -1.5620
20245SOL    HW264328   0.603   4.731  10.426  1.6373  0.7799 -0.9856
20246SOL     OW64329   9.750   6.858   2.044  0.0771  0.2459  0.6517
20246SOL    HW164330   9.824   6.915   2.064 -0.3754  0.6758  1.1432
20246SOL    HW264331   9.779   6.770   2.066 -0.0817  0.5886  2.3386
20247SOL     OW64332   0.364   1.137   8.877 -0.7960  0.1147 -0.4677
20247SOL    HW164333   0.367   1.202   8.948  1.0412  1.1223 -1.3975
20247SOL    HW264334   0.273   1.106   8.877 -1.0838  0.7923  1.6701
20248SOL     OW64335   5.778   2.970   2.991  0.2843  0.2205  0.6031
20248SOL    HW164336   5.755   3.061   2.973 -0.5891  0.0198  0.6419
20248SOL    HW264337   5.738   2.921   2.920  1.2627 -0.0856  0.2512
20249SOL     OW64338   0.702   9.131   3.665  0.4314 -0.4705 -0.6265
20249SOL    HW164339   0.782   9.140   3.614  0.0011 -0.4328 -1.3102
20249SOL    HW264340   0.699   9.039   3.690  2.0633  0.0244  1.7359
20250SOL     OW64341   9.031   1.234   5.314  0.3743  0.0932 -0.1542
20250SOL    HW164342   8.997   1.307   5.366  0.3331  0.3822 -0.5854
20250SOL    HW264343   9.088   1.186   5.375  0.3310  0.4319  0.1581
20251SOL     OW64344   1.113  10.421   6.996 -0.1432  0.0901  0.2439
20251SOL    HW164345   1.111  10.436   6.901 -0.7186 -1.2948  0.0007
20251SOL    HW264346   1.031  10.459   7.028 -0.0197  0.4256  0.1618
20252SOL     OW64347   8.169   7.678   3.914  0.6033  0.3523 -0.1736
20252SOL    HW164348   8.231   7.653   3.982  0.0988 -1.0820 -0.1995
20252SOL    HW264349   8.219   7.673   3.833  1.0247  1.3881  0.0120
20253SOL     OW64350   3.885   2.004   6.334 -0.4464 -0.1193 -0.2074
20253SOL    HW164351   3.900   1.983   6.242 -1.4577  0.1662 -0.4530
20253SOL    HW264352   3.972   2.016   6.371  0.0143 -1.2160 -0.8862
20254SOL     OW64353  10.931  10.403   7.736 -0.6352  0.6969  0.8916
20254SOL    HW164354  10.948  10.495   7.756  0.9667  0.9873 -1.3972
20254SOL    HW264355  10.871  10.406   7.662 -1.0029 -0.1297  1.1521
20255SOL     OW64356   0.101   0.576   7.453 -0.4629 -0.4068 -0.2677
20255SOL    HW164357   0.009   0.604   7.461 -0.3683 -0.3592  0.8937
20255SOL    HW264358   0.140   0.600   7.538  0.5183 -0.8113 -0.5946
20256SOL     OW64359   3.177   4.548   4.680  0.5572  0.9216  0.3418
20256SOL    HW164360   3.188   4.534   4.774 -0.4592  0.8470  0.4646
20256SOL    HW264361   3.158   4.461   4.645  0.9314  0.9507  0.0626
20257SOL     OW64362   1.117   8.913   7.318  0.3979  0.1366  0.4193
20257SOL    HW164363   1.108   8.986   7.257 -0.5507  0.5401  1.0081
20257SOL    HW264364   1.070   8.942   7.396  0.7650 -0.7560  0.9857
20258SOL     OW64365  10.996   0.317  10.375 -0.1918 -0.4643 -0.2950
20258SOL    HW164366  11.077   0.279  10.343  0.0878 -0.3921  0.3042
20258SOL    HW264367  10.929   0.252  10.355  0.3685 -1.5958  1.2731
20259SOL     OW64368   7.908   0.958   5.868 -0.0782 -0.1443 -0.2017
20259SOL    HW164369   7.833   1.015   5.886  0.7519  0.9721 -0.1541
20259SOL    HW264370   7.872   0.869   5.873 -1.6060  0.3730 -1.1864
20260SOL     OW64371   4.191   0.128   2.392 -0.3878 -0.1152  0.3068
20260SOL    HW164372   4.285   0.113   2.392  0.1220  2.3866 -1.8367
20260SOL    HW264373   4.157   0.068   2.326  0.0256  0.3590 -0.3517
20261SOL     OW64374   3.422   7.407  10.696 -0.2516  0.4048  0.2786
20261SOL    HW164375   3.406   7.374  10.607 -1.5929  0.4719  0.4741
20261SOL    HW264376   3.337   7.402  10.739  0.2081  1.1333  1.3182
20262SOL     OW64377   8.248   7.135   9.014 -0.2295 -0.2932  0.8140
20262SOL    HW164378   8.320   7.194   9.038  0.5890  0.0750 -2.0854
20262SOL    HW264379   8.169   7.184   9.033  0.3850  0.6414  1.0227
20263SOL     OW64380   3.124   4.044   1.989  0.1283  0.0912  0.1092
20263SOL    HW164381   3.193   4.025   2.053 -0.7893 -0.9074  0.8430
20263SOL    HW264382   3.044   4.008   2.029 -1.0395  2.1507 -0.1958
20264SOL     OW64383   1.395   1.693   8.021  0.1444 -0.1908  0.4975
20264SOL    HW164384   1.382   1.615   8.076  0.5375 -0.1876  0.5973
20264SOL    HW264385   1.310   1.737   8.022  0.0994 -0.2828  0.9601
20265SOL     OW64386   2.680   0.278   1.576 -0.0455  0.2246  0.1389
20265SOL    HW164387   2.618   0.298   1.507 -1.4053  1.1217  1.5640
20265SOL    HW264388   2.698   0.184   1.567 -2.2475 -0.2346  0.1943
20266SOL     OW64389   9.349  10.583   8.416 -0.3664 -0.2296  0.5666
20266SOL    HW164390   9.358  10.656   8.355  2.7270 -2.9687 -2.6156
20266SOL    HW264391   9.434  10.575   8.458 -1.1667 -1.0704  2.1524
20267SOL     OW64392   5.723   1.659   4.995  0.5925  0.0002  0.1106
20267SOL    HW164393   5.697   1.568   4.986  1.2746 -0.2147  0.2613
20267SOL    HW264394   5.791   1.672   4.928 -0.5882  0.8278 -0.9746
20268SOL     OW64395   8.394  10.908   6.347  0.2552 -0.5078 -0.6824
20268SOL    HW164396   8.379  10.877   6.258  0.5095 -0.7294 -0.6479
20268SOL    HW264397   8.437  10.835   6.391 -0.5899 -0.6981 -0.1563
20269SOL     OW64398   2.274   0.248   1.260 -0.0037  0.1155  0.4953
20269SOL    HW164399   2.221   0.169   1.245  1.4873 -0.6936 -0.7985
20269SOL    HW264400   2.214   0.320   1.242 -0.7448 -0.7556 -0.7175
20270SOL     OW64401   1.540   4.315   4.949  0.1020 -0.8946 -0.5029
20270SOL    HW164402   1.469   4.291   5.009  0.3134 -0.7844 -0.2065
20270SOL    HW264403   1.534   4.410   4.942  1.0018 -0.7451  0.5176
20271SOL     OW64404   8.807  11.041   7.331  0.0449  0.0168 -0.2699
20271SOL    HW164405   8.889  10.998   7.355  0.7993  0.4282 -1.9673
20271SOL    HW264406   8.807  11.122   7.381 -0.0650 -0.6635  0.8694
20272SOL     OW64407   2.030   7.583   0.316 -0.0069 -0.2898 -0.2160
20272SOL    HW164408   2.092   7.545   0.253 -1.1114 -0.5064 -1.1968
20272SOL    HW264409   1.961   7.620   0.262  0.1598  1.6089  0.7956
20273SOL     OW64410   3.625   2.168   1.206 -0.0402  0.0899 -0.1730
20273SOL    HW164411   3.708   2.121   1.223  0.1079  0.7634  1.1238
20273SOL    HW264412   3.647   2.260   1.221 -1.1610  0.2166  0.8075
20274SOL     OW64413   8.714   1.100   3.759  0.2951  0.2503  0.0463
20274SOL    HW164414   8.674   1.043   3.825 -1.2668 -1.2978 -2.1303
20274SOL    HW264415   8.644   1.157   3.730  0.8725  0.7014 -0.5025
20275SOL     OW64416   4.715   6.135   0.761  0.2678 -0.4356  0.1123
20275SOL    HW164417   4.796   6.109   0.804  0.1611 -2.8075 -0.9491
20275SOL    HW264418   4.663   6.054   0.757 -1.8473  0.8350  0.0763
20276SOL     OW64419   9.686   2.216   9.976 -0.7205 -0.1340  0.4530
20276SOL    HW164420   9.670   2.133   9.930 -1.9789  0.9047 -1.0691
20276SOL    HW264421   9.775   2.207  10.011  0.2109 -1.1139 -1.9432
20277SOL     OW64422   9.767   7.215   9.451  0.3280  0.1491  0.1228
20277SOL    HW164423   9.679   7.206   9.416  1.1223  1.2917 -2.4205
20277SOL    HW264424   9.781   7.310   9.457  1.5562 -0.0034 -0.0369
20278SOL     OW64425   3.821   6.984   8.452  0.2483 -0.1789 -0.2211
20278SOL    HW164426   3.813   7.041   8.528 -2.4635 -0.2973 -0.3007
20278SOL    HW264427   3.912   6.992   8.425  0.1859  3.7083  0.0832
20279SOL     OW64428   7.732   4.800   1.577  0.0355  0.5026 -0.0365
20279SOL    HW164429   7.821   4.767   1.565 -0.0827  0.4064 -0.7264
20279SOL    HW264430   7.726   4.822   1.669  0.1551 -1.3409  0.4506
20280SOL     OW64431   2.162  10.625   5.592 -0.5234  0.1180  0.3013
20280SOL    HW164432   2.123  10.687   5.532  0.2091 -0.2527 -0.5877
20280SOL    HW264433   2.089  10.589   5.641 -1.3045 -0.4575 -1.2186
20281SOL     OW64434   1.767   3.878   2.905 -0.1236  0.0732 -0.5092
20281SOL    HW164435   1.819   3.798   2.913  0.1166  0.0880 -1.8231
20281SOL    HW264436   1.759   3.893   2.811 -2.2353  0.2656 -0.3451
20282SOL     OW64437   6.194   1.944   4.942 -0.1951  0.1502 -0.0118
20282SOL    HW164438   6.263   1.909   4.999  0.5591 -1.1585 -1.6208
20282SOL    HW264439   6.186   1.879   4.872  0.5452  2.6812 -2.6436
20283SOL     OW64440   0.731   9.393   9.199 -0.5351  0.0387 -0.0084
20283SOL    HW164441   0.771   9.319   9.152 -1.1995  0.9309 -2.1094
20283SOL    HW264442   0.791   9.466   9.183  0.1132 -0.0032  2.0487
20284SOL     OW64443   4.519   0.721   1.238  0.1633  0.5750 -0.4543
20284SOL    HW164444   4.435   0.736   1.196 -0.8673 -0.6669  1.0432
20284SOL    HW264445   4.531   0.626   1.236  0.5045  0.5515  1.1952
20285SOL     OW64446   1.736   4.228   1.402 -0.2956 -0.1389 -0.0597
20285SOL    HW164447   1.796   4.279   1.457 -0.3127  0.8631 -0.9463
20285SOL    HW264448   1.788   4.155   1.370  0.5778  0.9178 -1.1138
20286SOL     OW64449   7.545  10.915  10.301  0.2389 -0.0503  0.1603
20286SOL    HW164450   7.636  10.906  10.327  0.3550 -1.8454 -0.7626
20286SOL    HW264451   7.539  11.005  10.266  1.5948  0.1457  0.3856
20287SOL     OW64452   1.604   9.348   3.330 -0.4024  0.3015  0.4653
20287SOL    HW164453   1.614   9.346   3.234 -1.0102  0.2857  0.3961
20287SOL    HW264454   1.671   9.410   3.360 -0.7678  0.9565 -0.0487
20288SOL     OW64455   5.219  10.649   6.044  0.5060  0.0327 -0.3762
20288SOL    HW164456   5.238  10.666   5.952  1.4411  1.2822  0.0153
20288SOL    HW264457   5.297  10.604   6.077  0.3003 -0.1426 -0.1158
20289SOL     OW64458   2.566   5.470   2.410 -0.2008 -0.1984 -0.2121
20289SOL    HW164459   2.548   5.377   2.427  1.2324 -0.8066 -1.8250
20289SOL    HW264460   2.533   5.485   2.321 -0.8534  0.9913  0.2064
20290SOL     OW64461  10.770   8.267   5.214 -0.3303 -0.1382  0.6089
20290SOL    HW164462  10.843   8.246   5.272  0.7007  1.3766 -0.0994
20290SOL    HW264463  10.810   8.284   5.129 -1.3727  1.6077  0.4115
20291SOL     OW64464   2.384   7.929   9.778  0.5648  0.1148 -0.5017
20291SOL    HW164465   2.341   8.013   9.765 -0.3479 -0.1880  0.4220
20291SOL    HW264466   2.335   7.868   9.722 -0.7972 -0.3986  1.1906
20292SOL     OW64467   1.801   9.254   2.078  0.4541  0.0594  0.3505
20292SOL    HW164468   1.766   9.290   1.996 -1.0798  2.1776  1.8068
20292SOL    HW264469   1.878   9.308   2.096  1.5056 -1.1984 -0.2565
20293SOL     OW64470   6.654  10.861   2.806  0.1749  0.0962  0.1911
20293SOL    HW164471   6.687  10.937   2.757  0.5501 -0.7093 -0.8397
20293SOL    HW264472   6.729  10.834   2.860  1.2353 -1.5816 -1.9680
20294SOL     OW64473   5.749   9.657   1.432 -0.6466 -0.4226  0.7805
20294SOL    HW164474   5.685   9.714   1.475 -1.0301  0.1322 -0.4741
20294SOL    HW264475   5.711   9.570   1.437 -2.5048  0.1354 -1.6020
20295SOL     OW64476   2.480   1.462   5.038 -0.1952  0.3231 -0.4728
20295SOL    HW164477   2.494   1.555   5.017 -0.2181  0.3558 -0.3400
20295SOL    HW264478   2.566   1.422   5.030 -0.2172  0.3217 -0.7073
20296SOL     OW64479  10.393   4.361   1.793 -0.0633 -0.3097  0.2552
20296SOL    HW164480  10.345   4.332   1.717  1.4546 -1.6909 -0.2356
20296SOL    HW264481  10.389   4.457   1.789 -2.0225 -0.3733 -0.1838
20297SOL     OW64482   7.992   5.282   1.419 -0.7829  0.8936 -0.8415
20297SOL    HW164483   7.936   5.229   1.475 -0.6207  1.3417 -0.2328
20297SOL    HW264484   8.046   5.219   1.371  0.0978  0.5011  0.5867
20298SOL     OW64485   8.130   0.711   0.836  0.4412  0.0997  0.0668
20298SOL    HW164486   8.145   0.620   0.863 -0.2515  1.2003  5.3183
20298SOL    HW264487   8.209   0.758   0.863 -0.5296  1.5028  0.6100
20299SOL     OW64488   1.168   5.910   8.109 -0.1580  0.4782  0.8082
20299SOL    HW164489   1.157   5.959   8.190  1.3187  0.1881  1.2039
20299SOL    HW264490   1.256   5.932   8.079 -0.2761 -0.2783 -0.1304
20300SOL     OW64491   8.022   4.081   1.923 -0.2261 -0.4174 -0.0757
20300SOL    HW164492   8.093   4.017   1.913  0.2198  0.2507 -1.3920
20300SOL    HW264493   8.000   4.078   2.016 -0.1177 -2.3763 -0.0694
20301SOL     OW64494   3.056   5.543   3.204 -0.1809  0.6150  0.1473
20301SOL    HW164495   3.032   5.471   3.146 -1.1772  1.0003  0.0505
20301SOL    HW264496   3.019   5.621   3.162  3.0922  1.6498 -1.1541
20302SOL     OW64497   9.806   6.585   9.542  0.1413  0.6483  0.2435
20302SOL    HW164498   9.711   6.599   9.540  0.1848  0.9999  0.6350
20302SOL    HW264499   9.823   6.546   9.628  0.2863  0.0649 -0.0405
20303SOL     OW64500   8.040   1.825   2.753  0.3341 -0.5708  0.1845
20303SOL    HW164501   7.961   1.776   2.774 -0.1349  0.1992  0.2263
20303SOL    HW264502   8.053   1.883   2.827  2.1653 -2.1733  1.2173
20304SOL     OW64503   6.702   2.379   9.867  0.9109 -0.6337  0.4554
20304SOL    HW164504   6.726   2.408   9.780  2.3054  1.4300  1.4604
20304SOL    HW264505   6.625   2.324   9.854  0.5485  0.3650 -1.9623
20305SOL     OW64506  10.390   8.360   3.529 -0.5062  0.1283  0.3133
20305SOL    HW164507  10.454   8.331   3.464 -0.9372  0.7880 -0.4326
20305SOL    HW264508  10.305   8.345   3.487 -0.7817  0.9316  0.5660
20306SOL     OW64509   4.584   7.608   3.986  0.3137  0.0263 -0.0974
20306SOL    HW164510   4.502   7.573   3.951 -0.3041 -0.4371  1.6964
20306SOL    HW264511   4.576   7.703   3.975 -0.3747 -0.0326 -0.1312
20307SOL     OW64512   1.219   3.725   1.215 -0.0310 -0.2099 -0.1122
20307SOL    HW164513   1.306   3.737   1.252 -0.4288  3.5598  0.0111
20307SOL    HW264514   1.185   3.647   1.259  2.2945 -0.2858  1.7779
20308SOL     OW64515   9.548   8.352   6.186  0.4936 -0.0968 -0.2171
20308SOL    HW164516   9.593   8.408   6.248  0.1118 -0.0972  0.0616
20308SOL    HW264517   9.504   8.286   6.240  0.6492 -0.4508 -0.5201
20309SOL     OW64518   9.614   3.501   3.822  0.4343 -0.8100 -0.2760
20309SOL    HW164519   9.603   3.415   3.862 -0.2912  0.2528  2.0053
20309SOL    HW264520   9.528   3.543   3.831  0.9090  0.3382 -0.8526
20310SOL     OW64521  10.622   1.777   8.399 -0.7286  0.0070 -0.1404
20310SOL    HW164522  10.544   1.825   8.426 -0.0031  0.7919  0.6135
20310SOL    HW264523  10.660   1.745   8.481 -0.0312 -0.0141 -0.4668
20311SOL     OW64524   1.967   0.236   6.480  0.4817 -0.3946  0.0305
20311SOL    HW164525   1.909   0.275   6.414  1.6715  0.7309 -0.4033
20311SOL    HW264526   2.027   0.181   6.430 -0.1280 -1.4782  0.4669
20312SOL     OW64527   8.891   7.325   2.440  0.0225  0.0384  0.1109
20312SOL    HW164528   8.886   7.383   2.364 -0.4922  0.1684  0.2369
20312SOL    HW264529   8.814   7.269   2.432 -0.3354  0.4144  0.8179
20313SOL     OW64530   9.436  10.668   1.829  0.1481  0.1945  0.5875
20313SOL    HW164531   9.520  10.656   1.784  1.5371  0.5534  2.8994
20313SOL    HW264532   9.421  10.763   1.825 -1.9296 -0.1461 -2.6641
20314SOL     OW64533   2.878   6.173   8.818  0.2684  0.6363  0.4884
20314SOL    HW164534   2.819   6.132   8.881 -1.5743 -1.6036 -2.4001
20314SOL    HW264535   2.958   6.121   8.823  0.5928  1.2312  1.7488
20315SOL     OW64536   2.745  11.028   0.307  0.0615 -0.4925  0.2211
20315SOL    HW164537   2.753  10.942   0.350 -0.2856 -0.1389  1.0084
20315SOL    HW264538   2.835  11.054   0.290  0.1449 -1.4367 -0.8925
20316SOL     OW64539   8.574   1.751   3.913 -0.6363  0.0481  0.1143
20316SOL    HW164540   8.537   1.778   3.997  0.5491 -0.4127  0.8214
20316SOL    HW264541   8.668   1.765   3.923 -0.6223  1.8162 -1.8460
20317SOL     OW64542   0.927   4.506   3.453  0.5470  0.3987 -0.2381
20317SOL    HW164543   0.970   4.431   3.410  0.7956  0.6444 -0.4194
20317SOL    HW264544   0.985   4.580   3.435  0.5001  0.5609  0.2786
20318SOL     OW64545   7.774   8.190   6.554  0.2471 -0.2713 -0.1253
20318SOL    HW164546   7.699   8.220   6.604  0.3343 -0.7953  0.3346
20318SOL    HW264547   7.737   8.147   6.477  0.0997  0.0741 -0.2489
20319SOL     OW64548  10.886   8.459   6.141  0.1935 -0.5566 -0.0280
20319SOL    HW164549  10.797   8.470   6.176 -1.3898  0.0994 -3.8137
20319SOL    HW264550  10.927   8.545   6.153  0.4025 -0.8684  1.7645
20320SOL     OW64551  10.313  10.023   9.010 -0.6088  0.3068  0.3814
20320SOL    HW164552  10.350   9.964   8.944  1.1276  0.9265  0.7535
20320SOL    HW264553  10.233  10.057   8.969 -1.4401 -1.9231 -0.0061
20321SOL     OW64554  10.491   8.245   5.751  0.2198  0.3320  0.4803
20321SOL    HW164555  10.439   8.195   5.814 -1.6208  1.5542 -0.0083
20321SOL    HW264556  10.455   8.222   5.666 -1.0170  2.7388  0.2640
20322SOL     OW64557   5.723   9.265   1.834  0.2081  0.4918  0.1221
20322SOL    HW164558   5.764   9.255   1.748  0.1909  0.2821  0.1370
20322SOL    HW264559   5.631   9.282   1.815  0.0854 -0.1632  0.1084
20323SOL     OW64560   4.337   1.540   5.435  0.1521  0.6803 -0.0061
20323SOL    HW164561   4.246   1.559   5.413  0.1854  0.8734  0.0167
20323SOL    HW264562   4.385   1.618   5.406  0.4266  0.2322 -0.8048
20324SOL     OW64563   2.436   9.352   6.160  0.0594  0.1433  0.2808
20324SOL    HW164564   2.421   9.280   6.099  0.8420  0.3826 -0.2084
20324SOL    HW264565   2.387   9.327   6.238 -2.8012  0.8330 -1.1379
20325SOL     OW64566   0.707   0.815   1.827  0.2785  0.3343  0.0573
20325SOL    HW164567   0.782   0.760   1.849  0.2477  0.5382  0.6873
20325SOL    HW264568   0.639   0.754   1.799  0.2775  0.0577  0.6593
20326SOL     OW64569   7.060   8.683   9.019  0.4548 -0.2597  0.3051
20326SOL    HW164570   7.124   8.729   9.074 -0.5396  1.6446 -0.0473
20326SOL    HW264571   7.039   8.604   9.069  2.1614 -0.3366  0.9883
20327SOL     OW64572   0.601   8.971   0.156  0.0304 -1.0515  0.4139
20327SOL    HW164573   0.530   8.942   0.098 -0.2828 -0.6876  0.6055
20327SOL    HW264574   0.679   8.970   0.101 -0.5787  1.1357 -0.6137
20328SOL     OW64575   6.343  10.696  10.076 -0.0420  0.2117  0.0154
20328SOL    HW164576   6.372  10.679   9.986 -1.3935  0.7854 -0.5598
20328SOL    HW264577   6.281  10.626  10.095  1.7037 -1.0734  1.2762
20329SOL     OW64578   6.690   6.840   6.797 -0.1770  0.6083 -0.5240
20329SOL    HW164579   6.690   6.775   6.727 -0.5932 -0.7470  0.6975
20329SOL    HW264580   6.611   6.892   6.782 -0.7423 -0.2430 -0.5614
20330SOL     OW64581   5.578   4.670   7.035  0.1839  0.0822  1.0686
20330SOL    HW164582   5.556   4.577   7.044 -1.4655  0.3084 -0.1549
20330SOL    HW264583   5.673   4.671   7.025  0.1841 -1.5292  0.6059
20331SOL     OW64584   9.370   1.532   6.847 -0.1261 -0.1883 -0.1908
20331SOL    HW164585   9.436   1.571   6.904 -0.4687 -0.4501  0.4010
20331SOL    HW264586   9.414   1.457   6.806 -0.1387 -0.5583  0.4492
20332SOL     OW64587   8.758   6.355   6.567  0.2347 -0.1338 -0.1734
20332SOL    HW164588   8.695   6.372   6.637  0.0578 -0.6236 -0.2092
20332SOL    HW264589   8.817   6.430   6.569 -0.1931  0.1996  0.0326
20333SOL     OW64590   3.643   8.704   8.847  0.3233 -0.1646  0.1499
20333SOL    HW164591   3.722   8.754   8.833 -1.3318  3.5186  2.4756
20333SOL    HW264592   3.588   8.722   8.770  0.5353 -0.1297  0.0081
20334SOL     OW64593   4.891   5.736   8.282  0.1925  0.6454  0.1677
20334SOL    HW164594   4.962   5.801   8.279 -0.2033  1.0438 -1.3383
20334SOL    HW264595   4.901   5.686   8.201  1.0378 -1.8372  1.6923
20335SOL     OW64596   5.801   6.050   1.999 -0.7659 -0.1104 -0.5228
20335SOL    HW164597   5.879   6.059   1.944 -1.3948 -0.4008 -1.4883
20335SOL    HW264598   5.756   6.134   1.991  0.3617  0.7363  1.5182
20336SOL     OW64599   8.481   5.129   8.027 -0.2418  0.0185 -0.2405
20336SOL    HW164600   8.414   5.162   7.967 -0.2757 -0.7440 -0.6340
20336SOL    HW264601   8.561   5.126   7.974  0.1368  1.0008  0.2491
20337SOL     OW64602   9.927  10.418   4.622 -0.2330  0.2116 -0.2680
20337SOL    HW164603   9.935  10.460   4.536 -2.6980 -0.4994 -0.9181
20337SOL    HW264604  10.005  10.363   4.630  0.1745  0.5113 -1.9185
20338SOL     OW64605   3.017   4.716   7.813 -0.5079 -0.4485 -0.3095
20338SOL    HW164606   3.036   4.630   7.849 -0.8343  1.0554  3.9275
20338SOL    HW264607   3.103   4.752   7.791 -0.2502 -1.2402 -0.6298
20339SOL     OW64608   6.130   2.016   1.651 -0.0999 -0.2366  0.2320
20339SOL    HW164609   6.150   1.998   1.560 -0.2698  1.3240 -0.1506
20339SOL    HW264610   6.213   2.045   1.690 -0.0849 -0.6341  0.5004
20340SOL     OW64611   8.551   1.219   0.453 -0.0709  0.2095 -0.2459
20340SOL    HW164612   8.561   1.304   0.496  0.2703 -0.1845  0.4935
20340SOL    HW264613   8.612   1.222   0.379 -1.0722  1.1055 -1.0500
20341SOL     OW64614  10.414   6.369  10.255 -0.0833 -0.3327 -0.6343
20341SOL    HW164615  10.431   6.277  10.273 -1.7610 -0.4936  0.2498
20341SOL    HW264616  10.416   6.375  10.159  0.3337 -1.2106 -0.6903
20342SOL     OW64617   8.949   7.182   2.114  0.1584  0.5674  0.1576
20342SOL    HW164618   8.963   7.275   2.098  0.3005  0.3113 -1.3863
20342SOL    HW264619   8.858   7.167   2.086  1.1643 -0.3738 -3.0139
20343SOL     OW64620   0.304  10.179   7.047 -0.3263  0.2927 -0.1183
20343SOL    HW164621   0.257  10.102   7.078 -0.0131 -0.3098 -1.0796
20343SOL    HW264622   0.241  10.224   6.990 -1.2115  1.8745  1.9661
20344SOL     OW64623  10.291   4.611   5.930  0.2539 -0.0790 -0.5143
20344SOL    HW164624  10.282   4.567   6.014  0.1832  0.0371 -0.4611
20344SOL    HW264625  10.286   4.705   5.951  1.7587  0.0147 -0.4407
20345SOL     OW64626   3.628   9.187   7.192  0.0598 -0.1118 -0.6426
20345SOL    HW164627   3.596   9.270   7.157 -1.0494 -0.4745 -0.5483
20345SOL    HW264628   3.609   9.123   7.123  0.3879 -0.3733 -0.4919
20346SOL     OW64629   1.297  10.268   9.436 -0.0753 -0.3584 -0.1399
20346SOL    HW164630   1.216  10.320   9.437 -0.3120 -0.7120 -0.5976
20346SOL    HW264631   1.294  10.218   9.518 -0.0110  0.0877  0.1425
20347SOL     OW64632   4.237   2.750  11.110 -0.1334  0.3698 -0.1249
20347SOL    HW164633   4.330   2.772  11.101  0.6171 -2.0008  0.9848
20347SOL    HW264634   4.203   2.755  11.021  1.7793 -1.4043 -1.0580
20348SOL     OW64635  10.455   1.883   2.346 -0.3320  0.1597 -0.1938
20348SOL    HW164636  10.408   1.855   2.267  0.0686  0.5851 -0.5825
20348SOL    HW264637  10.543   1.848   2.335 -0.7623 -1.4699  0.9777
20349SOL     OW64638   7.152   6.023  10.353  0.2209 -0.0188  0.3136
20349SOL    HW164639   7.192   5.937  10.368  1.7892  0.7050  0.5514
20349SOL    HW264640   7.084   6.030  10.419 -0.4752 -1.3903 -0.2202
20350SOL     OW64641   6.546   8.711   1.428 -0.3168  0.8315  0.6381
20350SOL    HW164642   6.494   8.730   1.506  0.3922  0.9122  1.1013
20350SOL    HW264643   6.483   8.716   1.356 -0.5182  3.3778  0.9002
20351SOL     OW64644   6.455   8.528   0.760 -0.5793 -0.2214  0.1914
20351SOL    HW164645   6.487   8.444   0.725 -0.2290 -1.0306  2.2887
20351SOL    HW264646   6.523   8.591   0.736 -0.4604 -0.6717 -0.7231
20352SOL     OW64647   1.928   8.029   9.620  0.1579 -0.1538 -0.5309
20352SOL    HW164648   2.007   8.052   9.670 -0.9455  0.4874  0.9845
20352SOL    HW264649   1.872   8.106   9.626 -1.5285 -1.3826  0.3750
20353SOL     OW64650   8.401   8.970   5.635  0.2656  0.4334 -0.1747
20353SOL    HW164651   8.416   8.888   5.586 -0.4807  0.7780 -1.0121
20353SOL    HW264652   8.365   8.942   5.719  2.3348 -0.2228  0.5493
20354SOL     OW64653   4.848   9.115   4.845 -0.4879  0.1212 -0.7512
20354SOL    HW164654   4.849   9.160   4.930 -3.1428  0.6063 -0.9108
20354SOL    HW264655   4.826   9.183   4.782 -0.1167 -0.5607 -1.6386
20355SOL     OW64656   5.282   8.970   7.890 -0.1210  0.3912 -0.2578
20355SOL    HW164657   5.308   8.887   7.930  1.0587  1.3050  0.9643
20355SOL    HW264658   5.321   9.037   7.946  0.0683  1.7675 -1.9530
20356SOL     OW64659   9.776   1.933   9.414 -0.3611  0.0687 -0.2181
20356SOL    HW164660   9.744   2.021   9.431 -0.1502 -0.0523  0.8776
20356SOL    HW264661   9.814   1.905   9.497  0.4329 -0.6932 -0.8217
20357SOL     OW64662   3.663   3.205  10.200 -0.1002 -0.6545  0.6401
20357SOL    HW164663   3.593   3.142  10.185  0.0453 -0.0868 -3.7812
20357SOL    HW264664   3.742   3.152  10.208 -0.2851 -1.1617 -0.6483
20358SOL     OW64665   9.060  10.929   3.186  0.1501  0.5131  0.0254
20358SOL    HW164666   9.082  10.849   3.140  1.4394  1.2419 -0.6512
20358SOL    HW264667   8.976  10.957   3.148 -2.1343 -2.1905  2.5248
20359SOL     OW64668   7.846   4.634   7.361 -0.0064  0.0975  0.0729
20359SOL    HW164669   7.923   4.658   7.310  0.9420 -1.5527  0.6629
20359SOL    HW264670   7.865   4.546   7.395 -1.3708  0.3845  1.7447
20360SOL     OW64671   5.260   9.402   0.845 -0.2285 -0.0935 -0.2634
20360SOL    HW164672   5.252   9.317   0.889 -0.9526 -0.5135 -1.1647
20360SOL    HW264673   5.317   9.385   0.770  1.3385  0.7105  0.6912
20361SOL     OW64674   7.506   1.410   8.371  0.0932  0.3499  0.5321
20361SOL    HW164675   7.547   1.421   8.457 -1.6980  1.0617  1.3611
20361SOL    HW264676   7.446   1.336   8.383  1.8661 -1.4250 -0.9779
20362SOL     OW64677   6.432   2.168   3.529 -0.4645 -0.0037  0.3163
20362SOL    HW164678   6.406   2.104   3.594 -2.0459 -2.4284 -2.4398
20362SOL    HW264679   6.377   2.245   3.547 -0.1334 -0.1950  2.3465
20363SOL     OW64680   3.817   1.133   2.073 -0.1909  0.1267  0.0068
20363SOL    HW164681   3.768   1.095   2.146 -0.5154  0.1311 -0.2093
20363SOL    HW264682   3.879   1.193   2.114 -1.6023  1.5241  0.1676
20364SOL     OW64683   1.700   7.210   9.298 -0.6062  0.3518 -0.0934
20364SOL    HW164684   1.739   7.138   9.346  0.4482  0.6160 -0.5144
20364SOL    HW264685   1.768   7.236   9.235 -1.6063  0.5828 -1.1213
20365SOL     OW64686   6.954   1.014   8.719 -0.2828  0.5859 -0.4034
20365SOL    HW164687   6.896   0.957   8.668 -0.9837  0.1439  0.8182
20365SOL    HW264688   7.041   1.000   8.682 -0.3929 -1.5140 -0.0014
20366SOL     OW64689   6.307   1.962   6.834  0.5782  0.0120 -0.0686
20366SOL    HW164690   6.384   1.910   6.812  0.2301  0.4026 -2.4713
20366SOL    HW264691   6.326   2.049   6.801 -0.3415  0.4709  0.5592
20367SOL     OW64692   5.864   1.284   8.195  0.2931 -0.3062 -0.1971
20367SOL    HW164693   5.954   1.313   8.180  0.2459  0.9501  1.6872
20367SOL    HW264694   5.826   1.279   8.107  2.2618 -1.2186 -1.0792
20368SOL     OW64695   3.473   5.978   1.549 -0.3412  0.6677  0.2225
20368SOL    HW164696   3.555   6.018   1.580 -0.1285 -0.0225  0.5705
20368SOL    HW264697   3.404   6.036   1.581  0.0155  1.3558 -0.2260
20369SOL     OW64698   9.663   2.198   0.599 -0.0544 -0.1956 -0.1789
20369SOL    HW164699   9.694   2.134   0.663  1.8521  0.8343  0.0159
20369SOL    HW264700   9.604   2.255   0.648 -0.9856 -1.1880 -0.1169
20370SOL     OW64701   9.384  10.450   1.366  0.0419  0.6548  0.3223
20370SOL    HW164702   9.326  10.508   1.318  1.8648  1.6425 -0.8045
20370SOL    HW264703   9.427  10.397   1.299 -1.2129 -1.7553  1.2873
20371SOL     OW64704   8.139   3.840   9.103  0.2345 -0.3473  0.2352
20371SOL    HW164705   8.200   3.913   9.111 -0.8582  0.6674 -0.3207
20371SOL    HW264706   8.077   3.869   9.036  0.6115 -2.3931 -1.0869
20372SOL     OW64707   9.909   7.459   4.099  0.4511 -0.0099  0.1725
20372SOL    HW164708   9.941   7.549   4.097  0.4741 -0.0309 -0.4084
20372SOL    HW264709   9.987   7.406   4.084  0.2400 -0.0812 -0.6930
20373SOL     OW64710   0.384   2.494   3.362  0.4773 -0.6570  0.0262
20373SOL    HW164711   0.462   2.454   3.323  1.3431  0.5517  0.4351
20373SOL    HW264712   0.329   2.517   3.287  1.9363  1.2681 -0.5479
20374SOL     OW64713   3.193   2.327   7.309 -0.2724 -0.4655 -0.1640
20374SOL    HW164714   3.145   2.374   7.377 -0.3883 -2.2618  1.0458
20374SOL    HW264715   3.218   2.244   7.349  2.0295 -0.4827 -1.4336
20375SOL     OW64716   3.104   5.345   1.800 -0.3168  0.0569  0.1202
20375SOL    HW164717   3.178   5.389   1.757 -1.1885  1.9548  0.4509
20375SOL    HW264718   3.042   5.416   1.819 -1.0518 -1.0826  2.2592
20376SOL     OW64719   2.575   9.761   5.965 -0.3521  0.1991  0.0647
20376SOL    HW164720   2.623   9.700   5.908 -0.0223  1.7121 -1.3518
20376SOL    HW264721   2.573   9.717   6.050  4.5346  0.4192  0.6124
20377SOL     OW64722   1.201   6.794   0.563  0.0737  0.3639 -0.0904
20377SOL    HW164723   1.232   6.884   0.563 -0.0341  0.4063 -0.8074
20377SOL    HW264724   1.127   6.794   0.623 -0.7680  1.0523 -1.1031
20378SOL     OW64725   0.560   7.578   7.878  0.4976  0.1388 -0.3098
20378SOL    HW164726   0.655   7.579   7.887  0.8532  0.6813 -3.0326
20378SOL    HW264727   0.527   7.607   7.963  2.6962 -0.9260  0.9986
20379SOL     OW64728   7.122   0.310   8.585 -0.1064 -0.1401  0.5999
20379SOL    HW164729   7.065   0.271   8.520 -1.2996  0.7927  1.0562
20379SOL    HW264730   7.172   0.376   8.537 -0.2400 -0.1659  0.4265
20380SOL     OW64731  10.217   5.033   1.750  0.6204 -0.3135 -0.5290
20380SOL    HW164732  10.219   5.064   1.841  0.1156 -0.9764 -0.2784
20380SOL    HW264733  10.152   5.089   1.707  0.2546 -0.5352 -0.2690
20381SOL     OW64734   9.261   3.579   5.297  0.1200  0.5113  0.3141
20381SOL    HW164735   9.226   3.538   5.218  0.0298  1.2303 -0.0170
20381SOL    HW264736   9.185   3.619   5.339  0.1800  0.2047  0.7325
20382SOL     OW64737   9.945   5.582   6.008  0.0551  0.0822 -0.0222
20382SOL    HW164738   9.902   5.661   6.039  0.5734  0.8155 -1.1155
20382SOL    HW264739   9.897   5.558   5.928  0.0682 -0.5614  0.1538
20383SOL     OW64740   7.373  10.228  10.254 -0.1625 -0.0424 -0.2665
20383SOL    HW164741   7.430  10.171  10.202  1.8663 -0.0138  1.7539
20383SOL    HW264742   7.369  10.186  10.340 -1.3545  1.1603  0.2995
20384SOL     OW64743   8.732   1.216  10.397 -0.0624 -0.4777 -0.0402
20384SOL    HW164744   8.763   1.223  10.487  1.5263  1.1139 -0.6625
20384SOL    HW264745   8.741   1.304  10.361 -0.5062 -1.1114 -1.8238
20385SOL     OW64746   8.256   7.172   2.728  0.7055 -0.1900  0.0631
20385SOL    HW164747   8.327   7.217   2.776  0.6719 -0.4744  0.3862
20385SOL    HW264748   8.198   7.140   2.797  0.2920 -0.0132 -0.2012
20386SOL     OW64749   3.790   2.869  10.040  0.0516 -0.4173  0.3354
20386SOL    HW164750   3.858   2.811  10.074  1.3339  0.9373  0.1886
20386SOL    HW264751   3.831   2.911   9.964 -1.1471  0.0498 -0.0800
20387SOL     OW64752   1.139   1.127   1.048  0.1597 -0.5775  0.2527
20387SOL    HW164753   1.169   1.212   1.080 -0.7235 -0.1088 -0.1366
20387SOL    HW264754   1.118   1.141   0.956  0.4454 -1.3414  0.0554
20388SOL     OW64755   1.180   4.725   4.864 -0.2276 -0.1110  0.6488
20388SOL    HW164756   1.197   4.784   4.790 -0.2773  0.1970  0.8790
20388SOL    HW264757   1.088   4.702   4.855  0.0152 -0.8887  0.0371
20389SOL     OW64758   5.053   5.191   4.869  0.6528  1.1423  0.0184
20389SOL    HW164759   5.139   5.170   4.832  1.2960  2.3142  0.7557
20389SOL    HW264760   5.073   5.254   4.939 -0.8796  2.0858 -0.3482
20390SOL     OW64761   5.481   8.463   4.535 -0.0098  0.3121 -0.3155
20390SOL    HW164762   5.467   8.380   4.491  0.3834  0.7455 -1.2899
20390SOL    HW264763   5.568   8.455   4.574  1.1161  1.1138 -2.4895
20391SOL     OW64764   0.047   6.884   6.679  0.1650 -0.5325  0.2454
20391SOL    HW164765   0.075   6.975   6.672  0.8294 -0.6469  1.3252
20391SOL    HW264766  -0.030   6.887   6.735 -0.2226 -0.5735 -0.2711
20392SOL     OW64767  10.700   4.623   2.501  0.0385  0.5329 -0.2191
20392SOL    HW164768  10.628   4.668   2.547  0.2576  0.1555  0.4993
20392SOL    HW264769  10.769   4.615   2.566 -0.5504 -2.2441  0.2051
20393SOL     OW64770   3.559  10.786   5.532  0.0694 -0.2472  0.3008
20393SOL    HW164771   3.496  10.795   5.604  0.1661  0.4403  0.3096
20393SOL    HW264772   3.506  10.762   5.456 -0.1803  0.1608  0.3467
20394SOL     OW64773   8.797   0.563   9.468  0.5196  0.1850  0.3485
20394SOL    HW164774   8.886   0.549   9.436  0.3983  0.6515 -0.2183
20394SOL    HW264775   8.764   0.637   9.417 -1.0583 -1.4902 -1.2359
20395SOL     OW64776   6.669   1.886   0.287 -0.0812  0.3203  0.0742
20395SOL    HW164777   6.670   1.806   0.340 -0.9516  0.6653  0.6231
20395SOL    HW264778   6.761   1.900   0.264  0.0759 -0.8649 -0.0820
20396SOL     OW64779   9.167   9.024   2.666  0.1108 -0.3899 -0.0150
20396SOL    HW164780   9.260   9.046   2.675 -0.1742  0.3709  1.5005
20396SOL    HW264781   9.165   8.928   2.667  0.9434 -0.4367 -1.1078
20397SOL     OW64782   4.119   3.358  10.258 -0.1757  0.1255 -0.1315
20397SOL    HW164783   4.060   3.345  10.183 -0.2634  0.9248 -0.2143
20397SOL    HW264784   4.197   3.308  10.236 -0.3114  0.1300 -0.6400
20398SOL     OW64785   0.988   9.623   1.546  0.3036 -0.2627 -0.0479
20398SOL    HW164786   1.044   9.657   1.616  1.6939 -0.5287 -1.0032
20398SOL    HW264787   1.049   9.594   1.478 -0.9618 -1.4639 -0.7176
20399SOL     OW64788   7.114   5.010   5.760 -0.0655 -0.5545  1.0828
20399SOL    HW164789   7.093   4.959   5.682  1.5223  1.9448 -1.1859
20399SOL    HW264790   7.035   5.061   5.778 -0.3478 -0.9295  0.9134
20400SOL     OW64791   3.055   9.351   4.851  0.2152  0.4437 -0.2541
20400SOL    HW164792   3.042   9.304   4.933  1.3696  1.5715  0.6177
20400SOL    HW264793   2.995   9.425   4.857  0.1033  0.3761 -0.5511
20401SOL     OW64794  10.032   5.327   3.296  0.2236  0.0478  0.1535
20401SOL    HW164795  10.032   5.413   3.252  1.4971  0.5905  1.1410
20401SOL    HW264796  10.088   5.272   3.241  0.0086  0.0774 -0.0923
20402SOL     OW64797   7.102   4.536   9.146  0.6219  0.2044  0.4892
20402SOL    HW164798   7.166   4.488   9.094  0.7508  1.5835 -0.7087
20402SOL    HW264799   7.021   4.533   9.094  0.5357  0.9406  0.5671
20403SOL     OW64800   8.669   6.841   2.582  0.0380  0.6968  0.1017
20403SOL    HW164801   8.676   6.759   2.534  0.2263  0.3757  0.6688
20403SOL    HW264802   8.581   6.873   2.562  0.1494  0.6157 -0.5261
20404SOL     OW64803   1.668   0.974  11.000  0.3978 -0.4217  0.4838
20404SOL    HW164804   1.590   0.922  10.980  2.0371 -2.3839 -1.3020
20404SOL    HW264805   1.727   0.912  11.043  1.3624  0.7499  0.8873
20405SOL     OW64806  10.310   9.713   8.249 -0.0420  0.3814  0.5429
20405SOL    HW164807  10.232   9.679   8.206  0.8034  0.1143 -0.8440
20405SOL    HW264808  10.382   9.665   8.208  0.9059  1.1560  1.2644
20406SOL     OW64809   3.004   7.864   0.398 -0.3398 -0.3952  0.4398
20406SOL    HW164810   3.066   7.878   0.469 -1.6258  1.6374  1.2333
20406SOL    HW264811   3.034   7.784   0.356  1.4628 -0.7155  2.1937
20407SOL     OW64812  10.070   4.037   7.915  0.1581  0.1832 -0.0530
20407SOL    HW164813  10.038   3.953   7.883  1.8794 -0.6248  0.1995
20407SOL    HW264814   9.992   4.091   7.924 -0.9726 -1.3186 -0.4145
20408SOL     OW64815   5.191   1.138   7.312 -0.3635  0.2510 -0.1879
20408SOL    HW164816   5.282   1.116   7.295  0.3378  2.7500 -0.0093
20408SOL    HW264817   5.182   1.129   7.407 -0.4414 -0.4378 -0.2579
20409SOL     OW64818   1.261   5.697   0.263  0.4362 -0.0857 -0.0516
20409SOL    HW164819   1.192   5.685   0.197 -1.2191 -0.4767  1.6506
20409SOL    HW264820   1.325   5.629   0.244  1.0440  1.0434 -2.4380
20410SOL     OW64821   4.782   0.073   8.586 -0.3685 -0.8227  0.2734
20410SOL    HW164822   4.760   0.077   8.494  0.1755  1.9396  0.1716
20410SOL    HW264823   4.878   0.078   8.588 -0.4478  2.8006  0.9524
20411SOL     OW64824   5.263   6.861   6.698 -0.6596  0.2809  0.1457
20411SOL    HW164825   5.299   6.903   6.620 -0.8496  0.9527  0.4163
20411SOL    HW264826   5.340   6.827   6.744 -0.5943 -0.6991 -0.6538
20412SOL     OW64827   6.917   2.441   5.921 -0.3603  0.0767  0.1404
20412SOL    HW164828   6.983   2.388   5.965 -0.4575 -1.3707 -1.3095
20412SOL    HW264829   6.839   2.385   5.919 -1.0492  1.0019  0.1356
20413SOL     OW64830   5.405   3.457   8.887 -0.9729  0.0608  0.0234
20413SOL    HW164831   5.489   3.416   8.867 -1.4056 -0.5344 -0.5847
20413SOL    HW264832   5.416   3.490   8.977 -0.0689  0.0644 -0.0756
20414SOL     OW64833   0.968   1.176   1.436  0.6490 -0.2963 -0.0060
20414SOL    HW164834   0.933   1.129   1.361 -1.4829  1.7044 -0.3968
20414SOL    HW264835   0.937   1.127   1.512 -2.2696  0.7135 -0.3749
20415SOL     OW64836   1.062   2.022   6.668  0.2972  0.4020  0.4885
20415SOL    HW164837   1.042   1.968   6.591 -1.5424  1.3931  0.2195
20415SOL    HW264838   0.978   2.058   6.695  1.1201  1.2350  2.1225
20416SOL     OW64839   3.996   3.274   3.246  0.7007 -0.1997 -0.1904
20416SOL    HW164840   3.938   3.256   3.172 -0.3832 -1.2178  0.8591
20416SOL    HW264841   4.013   3.188   3.285  1.3261  0.2984  0.6886
20417SOL     OW64842   9.736   2.594   2.370 -0.1365 -0.0585 -0.3195
20417SOL    HW164843   9.717   2.671   2.424  1.2237 -0.4810  0.8396
20417SOL    HW264844   9.751   2.524   2.434  1.3141 -0.6344 -1.2533
20418SOL     OW64845   0.439  10.890   4.082  0.1087 -0.6322  0.6214
20418SOL    HW164846   0.473  10.827   4.019 -0.4478  0.2099 -0.5528
20418SOL    HW264847   0.517  10.927   4.124  0.7115  0.8922 -1.6543
20419SOL     OW64848   2.864  10.248   1.849 -0.1915 -0.3456  0.6390
20419SOL    HW164849   2.945  10.206   1.877  0.7358  0.8385 -0.1695
20419SOL    HW264850   2.854  10.323   1.908 -1.3920 -1.1672  1.5391
20420SOL     OW64851   1.290   1.203   2.129  0.1140  0.1013  0.1553
20420SOL    HW164852   1.346   1.127   2.138  0.3582  0.0248 -1.6093
20420SOL    HW264853   1.318   1.244   2.047 -1.9705  0.3883 -0.4934
20421SOL     OW64854   0.642   6.913   1.207 -0.8845  0.2137 -1.0598
20421SOL    HW164855   0.581   6.979   1.240 -0.2868 -0.7666  2.3625
20421SOL    HW264856   0.586   6.842   1.176 -1.6182 -0.3819  1.4010
20422SOL     OW64857   6.027   1.986   6.444  0.1317  0.2640 -0.4865
20422SOL    HW164858   5.971   1.908   6.442 -0.0748  0.3502  1.1414
20422SOL    HW264859   5.970   2.056   6.412  0.0781 -0.0842 -1.1911
20423SOL     OW64860   8.626   4.326   8.784 -0.3234  0.4718 -0.3675
20423SOL    HW164861   8.648   4.238   8.755 -1.4021  0.3085 -0.7130
20423SOL    HW264862   8.557   4.355   8.725 -2.3245  0.2830  1.7410
20424SOL     OW64863   2.782   5.542   2.538  0.0416 -0.0337 -0.1318
20424SOL    HW164864   2.710   5.538   2.475  1.0604 -1.4412 -1.2666
20424SOL    HW264865   2.772   5.463   2.592  1.2709 -0.7669 -0.9416
20425SOL     OW64866   0.156   4.986   9.982 -0.6896 -0.2497  0.3126
20425SOL    HW164867   0.135   4.913   9.924 -0.8005  0.3335 -0.4064
20425SOL    HW264868   0.250   5.001   9.969 -0.4277 -0.9694  1.3023
20426SOL     OW64869   8.405   2.355   9.656 -0.3135 -0.7647 -0.1863
20426SOL    HW164870   8.331   2.413   9.671  0.8552  0.5714  0.7132
20426SOL    HW264871   8.433   2.329   9.744  0.7905 -0.5647 -0.4644
20427SOL     OW64872   3.916  10.717   9.381 -0.8088  0.1906 -0.5403
20427SOL    HW164873   3.830  10.710   9.423 -0.2952 -1.2040  0.3541
20427SOL    HW264874   3.896  10.733   9.289 -2.1442 -2.3943 -0.7921
20428SOL     OW64875   5.329   3.249  10.386  0.1401 -0.2820 -0.0813
20428SOL    HW164876   5.417   3.228  10.355  0.4635  0.7091  0.1134
20428SOL    HW264877   5.305   3.327  10.335 -0.4910 -0.3571  0.1012
20429SOL     OW64878   9.504   5.366   8.534 -0.1418 -0.5962 -0.0050
20429SOL    HW164879   9.516   5.434   8.601 -0.2125 -0.1203 -0.4719
20429SOL    HW264880   9.414   5.338   8.545 -0.5910  0.4681 -0.8004
20430SOL     OW64881   1.241   1.273  10.982  0.5332  0.1749 -0.0526
20430SOL    HW164882   1.242   1.224  11.064  2.8044  0.8375  0.3902
20430SOL    HW264883   1.266   1.209  10.915  1.8262  0.3047  0.2768
20431SOL     OW64884   0.806   6.611   0.953  0.1801 -0.8071  0.0629
20431SOL    HW164885   0.875   6.665   0.991 -0.3625  0.4064 -0.6485
20431SOL    HW264886   0.774   6.559   1.026  0.0488  0.5391  0.9939
20432SOL     OW64887   3.617   0.012   3.987  0.0466  0.0619  0.2791
20432SOL    HW164888   3.673   0.016   4.064 -0.0049 -4.1638  0.7573
20432SOL    HW264889   3.528   0.008   4.021 -0.0522 -0.6250 -0.0442
20433SOL     OW64890   7.547   0.380   0.388 -0.6958  0.0964  0.6510
20433SOL    HW164891   7.459   0.347   0.372 -0.9079  1.8723 -2.6811
20433SOL    HW264892   7.593   0.368   0.305  2.2588 -0.6551  2.2182
20434SOL     OW64893   9.693  10.393   1.778  0.1763  0.2133 -0.2412
20434SOL    HW164894   9.641  10.435   1.709 -0.3772  1.3196  0.8059
20434SOL    HW264895   9.756  10.460   1.803  1.3200 -0.6924 -0.6416
20435SOL     OW64896   6.933   4.218   4.550  0.0108  0.6052  0.5376
20435SOL    HW164897   6.966   4.252   4.466  0.0863 -0.0614  0.2913
20435SOL    HW264898   7.011   4.184   4.594 -0.4191 -2.0493 -0.5453
20436SOL     OW64899   4.377   3.076   3.807 -0.0798 -0.5565  0.2251
20436SOL    HW164900   4.324   3.065   3.886 -1.9863 -0.2825 -0.9520
20436SOL    HW264901   4.390   3.170   3.799  3.1098 -0.7131  2.0068
20437SOL     OW64902  10.418   9.768   8.481 -0.3296 -0.3316 -0.0555
20437SOL    HW164903  10.356   9.775   8.409 -0.3842  0.5640  0.0695
20437SOL    HW264904  10.458   9.682   8.469 -2.1602 -1.2883  0.3427
20438SOL     OW64905   9.922  10.754   0.691 -0.2233  0.8419  0.5730
20438SOL    HW164906   9.912  10.689   0.760  0.5158 -0.2352 -0.2843
20438SOL    HW264907   9.963  10.829   0.734  1.3957 -0.2765  1.0893
20439SOL     OW64908   5.947   1.154   2.700  0.1196  0.0592 -0.2966
20439SOL    HW164909   5.991   1.156   2.615  1.5582 -0.5077  0.3986
20439SOL    HW264910   5.987   1.226   2.749 -0.4442  0.1595  0.0171
20440SOL     OW64911   0.409   0.866   5.834  0.1409  0.2141 -0.1914
20440SOL    HW164912   0.416   0.957   5.862 -1.9158  1.6366 -3.6505
20440SOL    HW264913   0.494   0.845   5.797  0.4869  0.8732  0.2173
20441SOL     OW64914   5.454   3.415  10.719  0.1649 -0.1660  0.1250
20441SOL    HW164915   5.421   3.500  10.688  0.0160  0.2981  1.4817
20441SOL    HW264916   5.376   3.364  10.737  0.2561 -0.6554 -0.8058
20442SOL     OW64917   5.544   0.369   3.545  0.4653  0.4568 -0.3566
20442SOL    HW164918   5.591   0.452   3.555  1.0133  0.3714 -1.9269
20442SOL    HW264919   5.612   0.307   3.517  0.2262 -0.7444  1.5609
20443SOL     OW64920   4.322   2.507   7.748  0.2323 -0.0422  0.2896
20443SOL    HW164921   4.356   2.458   7.823 -0.2058 -2.5384 -1.0567
20443SOL    HW264922   4.230   2.483   7.744 -0.4183  2.1943  0.4883
20444SOL     OW64923  11.076   1.390   0.594 -0.1967  0.0041 -0.5816
20444SOL    HW164924  11.067   1.297   0.616  0.2441  0.2636  0.8389
20444SOL    HW264925  10.987   1.418   0.574 -0.5843 -0.3893  0.5028
20445SOL     OW64926   4.593   0.168   2.023  0.1626  0.0755  0.1595
20445SOL    HW164927   4.498   0.155   2.020  0.0762  0.8272 -1.8814
20445SOL    HW264928   4.606   0.234   2.092 -1.0319  1.4094 -0.8223
20446SOL     OW64929   2.525   8.517   1.092  0.1236 -0.1868 -0.0845
20446SOL    HW164930   2.507   8.444   1.032  1.1918  0.5374 -1.3118
20446SOL    HW264931   2.480   8.592   1.053  1.5737  0.4949 -0.4991
20447SOL     OW64932   1.758   9.960   0.307  0.4516 -0.8485 -0.3473
20447SOL    HW164933   1.797  10.001   0.229  1.4117  0.2699  0.6887
20447SOL    HW264934   1.710   9.885   0.272  1.3924 -0.7552 -1.9593
20448SOL     OW64935  10.499   0.967   1.427  0.4531  0.7269  0.4419
20448SOL    HW164936  10.553   0.902   1.472  0.5782 -0.5150 -1.3714
20448SOL    HW264937  10.561   1.032   1.396  0.5735  0.7109  0.6481
20449SOL     OW64938   0.568   4.867   9.702 -0.6255  0.1613 -0.1768
20449SOL    HW164939   0.516   4.794   9.667 -1.6423  0.3004  0.9789
20449SOL    HW264940   0.641   4.824   9.747 -1.5405 -0.2142  1.0156
20450SOL     OW64941   8.444   4.134   0.482  0.3894  0.5431  0.1404
20450SOL    HW164942   8.407   4.133   0.394 -0.4129  0.5711  0.4683
20450SOL    HW264943   8.531   4.173   0.471  0.4598  0.1734 -0.6925
20451SOL     OW64944   9.593   8.572   6.664 -0.2749 -0.1383  0.1860
20451SOL    HW164945   9.594   8.580   6.759 -0.2877 -2.2897  0.4069
20451SOL    HW264946   9.510   8.528   6.645 -1.0717  1.7567 -0.9968
20452SOL     OW64947   0.781   6.496   8.711 -0.2962  0.1115  0.1131
20452SOL    HW164948   0.777   6.401   8.718  0.4616  0.1143  0.7808
20452SOL    HW264949   0.774   6.527   8.801 -0.4555  0.6800 -0.0956
20453SOL     OW64950   9.829   6.197   6.928  0.0364  0.6553  0.0043
20453SOL    HW164951   9.794   6.108   6.920  0.0034  0.3879  2.3347
20453SOL    HW264952   9.753   6.254   6.918 -0.4138  0.2665  1.0357
20454SOL     OW64953   2.155   3.863   7.164  0.4119  0.3965 -0.7020
20454SOL    HW164954   2.218   3.878   7.093 -1.4000  0.8677 -2.3002
20454SOL    HW264955   2.104   3.944   7.168  0.1913  0.2052  0.8685
20455SOL     OW64956   9.758   4.760   9.163 -0.2593  0.2597  0.4482
20455SOL    HW164957   9.677   4.709   9.168  0.6751 -1.8064 -2.2216
20455SOL    HW264958   9.742   4.824   9.094 -0.6856  2.2098  2.2838
20456SOL     OW64959   7.664   6.704   1.071  0.7365  0.0571 -0.0211
20456SOL    HW164960   7.633   6.706   0.980  1.1941 -1.0084 -0.2212
20456SOL    HW264961   7.696   6.615   1.083  1.1320  0.3271  1.0425
20457SOL     OW64962   6.304   5.297   1.355 -0.4366 -0.3056 -0.0527
20457SOL    HW164963   6.360   5.228   1.321  0.5812  0.5843 -0.2679
20457SOL    HW264964   6.293   5.276   1.448  2.6253  0.9111  0.7432
20458SOL     OW64965   6.934   7.196  10.288  0.2341  0.0999  0.3738
20458SOL    HW164966   6.994   7.147  10.344  1.1747  0.1617 -0.5520
20458SOL    HW264967   6.848   7.182  10.328  0.6589 -1.1698  0.9119
20459SOL     OW64968   4.771   9.231   9.575  0.1182 -0.4091 -0.2021
20459SOL    HW164969   4.708   9.302   9.589  0.2499  0.0797 -1.8654
20459SOL    HW264970   4.848   9.258   9.625  0.7021  1.4165 -1.9363
20460SOL     OW64971   5.341  10.664   4.464  0.5536  0.2682 -0.0795
20460SOL    HW164972   5.301  10.647   4.378  0.5927 -1.0003  0.1291
20460SOL    HW264973   5.413  10.602   4.470 -0.8468 -1.3159  1.7794
20461SOL     OW64974   1.731   9.043   8.172 -1.0300  0.4995  0.1802
20461SOL    HW164975   1.820   9.059   8.203 -0.8267  0.8194 -0.5534
20461SOL    HW264976   1.682   9.122   8.198 -0.5297  1.4082 -1.5305
20462SOL     OW64977   2.027   5.702   8.185 -0.2551 -0.2100  0.1305
20462SOL    HW164978   2.084   5.778   8.186 -1.0024  0.3841 -0.8043
20462SOL    HW264979   2.044   5.660   8.101 -0.3373 -0.7048  0.3537
20463SOL     OW64980   2.727   3.975   2.845 -0.5227  0.2238  0.6266
20463SOL    HW164981   2.671   4.041   2.804 -0.7681  0.1483  0.8395
20463SOL    HW264982   2.666   3.910   2.879 -0.2421 -0.9334 -0.9515
20464SOL     OW64983   2.966   1.776   5.310 -0.6879 -0.1348 -0.7034
20464SOL    HW164984   3.045   1.799   5.263  0.6069  0.9302  1.8095
20464SOL    HW264985   2.945   1.854   5.362 -1.9857 -1.2296  0.5122
20465SOL     OW64986   1.223   7.955   8.157  0.0057 -0.1259 -0.0635
20465SOL    HW164987   1.221   7.983   8.066  0.6188 -0.6458 -0.2392
20465SOL    HW264988   1.137   7.915   8.171 -0.0488 -0.1476 -0.4448
20466SOL     OW64989   1.782   2.572   5.902 -0.1812 -0.2426 -0.4768
20466SOL    HW164990   1.791   2.500   5.839  0.7395  0.1825 -0.8433
20466SOL    HW264991   1.784   2.651   5.849  0.6664  0.1252  0.0795
20467SOL     OW64992   7.608   5.675  10.746  0.1495  0.1825  0.2332
20467SOL    HW164993   7.532   5.715  10.789 -0.3403 -1.6061  1.1664
20467SOL    HW264994   7.671   5.746  10.737 -1.1072  1.4118  0.7045
20468SOL     OW64995   4.368   7.575   1.358 -0.0604 -0.1032  0.0361
20468SOL    HW164996   4.377   7.559   1.452 -0.9278  2.9598  0.7658
20468SOL    HW264997   4.351   7.669   1.351  0.3366 -0.1387 -3.2445
20469SOL     OW64998   4.918   0.847   2.397 -0.2210  0.1412  0.2161
20469SOL    HW164999   4.864   0.898   2.457 -0.9050 -1.0279  0.6377
20469SOL    HW265000   5.008   0.873   2.417 -0.5388  0.9705  0.5943
20470SOL     OW65001   2.970   6.991   6.748 -0.1283  0.2951  0.2019
20470SOL    HW165002   2.935   6.911   6.787 -0.1914  0.2811  0.1167
20470SOL    HW265003   2.896   7.029   6.701  0.1713 -0.1705 -0.6812
20471SOL     OW65004   2.171   7.318   3.568  0.0543  0.7099  0.2150
20471SOL    HW165005   2.195   7.233   3.531 -1.0275 -1.4751  3.9721
20471SOL    HW265006   2.251   7.370   3.560  1.2937 -1.2026 -0.8042
20472SOL     OW65007   8.419   9.539   3.193  0.0979  0.7794  0.0177
20472SOL    HW165008   8.500   9.558   3.145  0.7115 -1.1927  0.1747
20472SOL    HW265009   8.352   9.587   3.145  0.6792 -1.0584 -2.8998
20473SOL     OW65010   2.064   7.064   1.364  0.0321  0.2467 -0.2423
20473SOL    HW165011   2.101   7.131   1.422 -1.1334  0.1001  0.7014
20473SOL    HW265012   2.133   6.998   1.358  0.1539  0.2261  1.0554
20474SOL     OW65013   0.401   5.182   7.685  0.0080  0.1655  0.0555
20474SOL    HW165014   0.480   5.131   7.664  0.1490  0.7840 -0.9599
20474SOL    HW265015   0.429   5.273   7.682 -0.8077  0.4106 -0.6335
20475SOL     OW65016   9.140   7.181   2.673  0.8413 -0.6251 -0.5510
20475SOL    HW165017   9.120   7.157   2.764  2.8509  1.6405  0.6172
20475SOL    HW265018   9.159   7.099   2.629  1.4383 -1.6686  1.5365
20476SOL     OW65019   0.720   5.404   3.497  0.3447 -0.2406 -0.3076
20476SOL    HW165020   0.656   5.354   3.445  1.8731 -1.3909 -1.1600
20476SOL    HW265021   0.781   5.439   3.432  0.8483  0.4489  0.5271
20477SOL     OW65022   6.843  10.898   6.005 -0.1139  0.0173 -0.3810
20477SOL    HW165023   6.864  10.991   6.007  0.4581 -0.0019 -2.9095
20477SOL    HW265024   6.928  10.854   6.002 -0.3567 -0.6727  1.4484
20478SOL     OW65025  10.584   4.470   7.230  0.0793  0.2814 -0.1442
20478SOL    HW165026  10.585   4.429   7.316  0.8824 -0.3029 -0.4197
20478SOL    HW265027  10.584   4.564   7.248  1.0046  0.1699  0.5022
20479SOL     OW65028   0.055   6.233   7.610 -0.2720 -0.0125 -0.0753
20479SOL    HW165029   0.007   6.166   7.561 -0.0670 -0.4765  0.3556
20479SOL    HW265030  -0.014   6.286   7.650 -0.4460 -0.6806  0.5437
20480SOL     OW65031   1.570   4.201   2.655  0.1817 -0.2555 -0.0223
20480SOL    HW165032   1.512   4.177   2.583  0.7160  0.0561 -0.5697
20480SOL    HW265033   1.574   4.296   2.652  1.2804 -0.3051 -0.4507
20481SOL     OW65034   8.659   8.428   7.846  0.1754 -0.3016  0.6172
20481SOL    HW165035   8.732   8.367   7.845  0.1996 -0.2772  1.0850
20481SOL    HW265036   8.581   8.373   7.841  0.2168 -0.3303  0.1965
20482SOL     OW65037   0.914   7.244  10.377  0.4015 -0.3107  0.5215
20482SOL    HW165038   0.989   7.268  10.323  0.8682 -2.2284  0.2298
20482SOL    HW265039   0.947   7.244  10.467  0.5565 -0.4397  0.4646
20483SOL     OW65040   8.886   6.606   1.779  0.1916 -0.5930  0.3412
20483SOL    HW165041   8.957   6.662   1.810 -0.3852 -0.6157  1.7624
20483SOL    HW265042   8.870   6.636   1.690  0.5253  0.8805  0.7422
20484SOL     OW65043   0.612   2.394   6.529 -0.0082  0.1089 -0.0259
20484SOL    HW165044   0.555   2.318   6.517 -0.1635  0.3915 -1.2930
20484SOL    HW265045   0.551   2.468   6.541  0.1412 -0.1301  2.7251
20485SOL     OW65046   9.957   5.153   2.489 -0.1324  0.7278 -0.1550
20485SOL    HW165047   9.913   5.213   2.429 -0.1242  0.2208 -0.6783
20485SOL    HW265048   9.914   5.167   2.573 -0.2459  1.3392 -0.3041
20486SOL     OW65049   5.853   8.103  10.412 -0.0563  0.0401 -0.1512
20486SOL    HW165050   5.825   8.190  10.382  0.3091 -0.2700 -1.4799
20486SOL    HW265051   5.783   8.044  10.384  0.4081 -0.2927 -0.6445
20487SOL     OW65052   5.298   4.420   3.337  0.0291  0.5549 -0.0607
20487SOL    HW165053   5.387   4.437   3.308  0.3193 -0.7213  0.0593
20487SOL    HW265054   5.245   4.427   3.258  0.2506  1.1306 -0.1639
20488SOL     OW65055   6.639   3.994  10.773 -0.2080 -0.3684 -0.0390
20488SOL    HW165056   6.558   3.944  10.783 -0.5702  0.1754 -0.1701
20488SOL    HW265057   6.686   3.980  10.855 -0.1352 -1.2053 -0.2173
20489SOL     OW65058   5.222   3.366   0.477  0.7212  0.5988 -0.2926
20489SOL    HW165059   5.304   3.403   0.509  0.9878  0.1917 -0.4970
20489SOL    HW265060   5.192   3.427   0.410  0.5886  1.0195  0.1457
20490SOL     OW65061   6.464   4.266  10.763 -0.2524 -0.1545  0.6978
20490SOL    HW165062   6.382   4.217  10.760  0.7149 -1.8318 -0.8224
20490SOL    HW265063   6.487   4.280  10.672  0.1440  2.1560  1.0946
20491SOL     OW65064   7.992  10.655   7.940 -0.5459 -0.4511 -0.2042
20491SOL    HW165065   8.025  10.579   7.988  2.0360 -0.5290 -1.8725
20491SOL    HW265066   8.008  10.729   7.999 -1.7981 -0.9968  0.8732
20492SOL     OW65067   9.749   2.860   5.553 -0.3127 -0.2002  0.0150
20492SOL    HW165068   9.723   2.776   5.590  1.2180 -0.6385  0.1844
20492SOL    HW265069   9.730   2.852   5.459  0.4540 -1.0083 -0.0794
20493SOL     OW65070   2.057   9.746   5.058 -0.1348 -0.3695  0.1710
20493SOL    HW165071   2.030   9.837   5.073  0.1153 -0.7543  3.8159
20493SOL    HW265072   2.152   9.751   5.047  0.0701 -0.2373  1.7427
20494SOL     OW65073   0.607  10.415   9.272  0.5772 -0.1116 -0.2386
20494SOL    HW165074   0.689  10.420   9.320  0.7690 -0.6922 -0.4942
20494SOL    HW265075   0.594  10.321   9.257 -0.8152 -0.1597  0.9961
20495SOL     OW65076   9.869   7.827   1.379  0.4753  0.0269  0.3665
20495SOL    HW165077   9.852   7.921   1.373  1.2700  0.1709  0.1948
20495SOL    HW265078   9.959   7.818   1.348  0.3649 -0.8059  0.2853
20496SOL     OW65079   5.499   8.149   9.650 -0.0691 -0.1893  0.0843
20496SOL    HW165080   5.594   8.156   9.644  0.0960 -1.2177  1.0491
20496SOL    HW265081   5.475   8.088   9.580 -0.1224  0.6305 -0.6307
20497SOL     OW65082  10.738  10.828  10.175  0.6439  0.2291  0.3742
20497SOL    HW165083  10.803  10.886  10.217  0.8225 -1.3492  2.4583
20497SOL    HW265084  10.712  10.768  10.245 -1.2289 -0.7656 -1.1027
20498SOL     OW65085   4.076   4.936   4.533 -0.2989 -0.1174  0.8510
20498SOL    HW165086   4.154   4.970   4.577 -1.5242  2.7774  1.0731
20498SOL    HW265087   4.090   4.842   4.525  3.0360  0.2587  1.1666
20499SOL     OW65088   3.836   4.529   8.783 -0.8372  0.3069 -0.2219
20499SOL    HW165089   3.904   4.510   8.847 -1.4394 -1.1440  0.0318
20499SOL    HW265090   3.848   4.621   8.761 -0.6834  0.8964  2.0824
20500SOL     OW65091   8.138  10.840   1.217 -0.4558 -0.2545 -0.7084
20500SOL    HW165092   8.071  10.888   1.168  0.0263  1.4439  0.2267
20500SOL    HW265093   8.091  10.767   1.257 -1.5982  0.4856 -0.6542
20501SOL     OW65094   5.842   2.141   7.535  0.2582 -0.3771 -0.2506
20501SOL    HW165095   5.750   2.120   7.523  0.5052 -0.3514 -2.6817
20501SOL    HW265096   5.845   2.236   7.543  0.2052 -0.1665 -2.3086
20502SOL     OW65097   9.099  10.946   5.724 -0.6716  0.1505  0.5569
20502SOL    HW165098   9.167  10.900   5.774 -0.6530 -1.1499 -0.6090
20502SOL    HW265099   9.139  10.964   5.639 -1.3621  0.5226  0.2997
20503SOL     OW65100  10.036   5.507   1.161 -0.4528  0.4521 -0.1776
20503SOL    HW165101  10.054   5.460   1.080 -0.0707 -1.5685  1.0041
20503SOL    HW265102   9.941   5.520   1.161 -0.3126  1.7081 -1.5418
20504SOL     OW65103   3.830   7.971   2.995 -0.3601  0.2424  0.4580
20504SOL    HW165104   3.813   7.886   2.954 -0.0818  0.4498 -0.0921
20504SOL    HW265105   3.906   8.006   2.949 -0.1557  0.5695  1.0249
20505SOL     OW65106   4.832  10.761   2.873  0.1742 -0.2343  0.0369
20505SOL    HW165107   4.775  10.782   2.799  0.3532 -1.3183 -0.4368
20505SOL    HW265108   4.774  10.760   2.948  0.3674  3.2253  0.3945
20506SOL     OW65109   2.154   9.156   2.158 -0.1993 -0.2795  0.4469
20506SOL    HW165110   2.236   9.157   2.207 -0.3613  0.1635  0.7173
20506SOL    HW265111   2.174   9.108   2.078  0.4458  0.2071  0.3049
20507SOL     OW65112   8.931   5.281   3.566  0.2586  0.4636 -0.1813
20507SOL    HW165113   8.852   5.227   3.568  0.4184  0.1970 -0.7875
20507SOL    HW265114   8.984   5.248   3.639  1.6118 -2.1894 -2.1589
20508SOL     OW65115   8.851   7.249   2.752 -0.2169 -0.5812  0.0526
20508SOL    HW165116   8.804   7.308   2.693 -0.5138  0.7236  1.5196
20508SOL    HW265117   8.925   7.217   2.701 -0.7446  0.0957 -1.1701
20509SOL     OW65118   0.685  11.058  10.471 -0.0286 -0.0161 -0.2117
20509SOL    HW165119   0.706  10.996  10.401 -0.0329 -0.7000  0.3832
20509SOL    HW265120   0.593  11.082  10.456  0.7811  2.2749 -2.2792
20510SOL     OW65121   4.785   8.389   5.992  0.2572 -0.0489  0.0854
20510SOL    HW165122   4.795   8.440   5.912 -1.3967 -0.9136 -0.7471
20510SOL    HW265123   4.874   8.380   6.027  1.0873  0.0004 -1.8899
20511SOL     OW65124   5.009   9.630   9.799  0.1929  0.0209 -0.2528
20511SOL    HW165125   5.067   9.655   9.871  0.5110 -0.5382 -0.3063
20511SOL    HW265126   4.926   9.609   9.842  0.7305 -1.5144  0.1270
20512SOL     OW65127   9.229   6.235   3.693  0.2584 -0.0827 -0.2532
20512SOL    HW165128   9.182   6.294   3.752  0.3998 -1.9602  1.8934
20512SOL    HW265129   9.299   6.289   3.656 -0.9345  1.6299 -0.1128
20513SOL     OW65130   9.295   2.632   1.746 -0.2318  0.1186  0.0074
20513SOL    HW165131   9.213   2.658   1.789  1.0106  1.3695  1.7502
20513SOL    HW265132   9.285   2.661   1.656 -1.1709  1.5698  0.5435
20514SOL     OW65133  10.408   0.555   4.571  0.2092 -0.5307  0.0205
20514SOL    HW165134  10.399   0.622   4.503 -0.1486 -0.0642  0.5285
20514SOL    HW265135  10.319   0.532   4.594  0.3113  0.2537  1.2630
20515SOL     OW65136   5.348   1.056   1.085 -0.1841  0.4992  0.1124
20515SOL    HW165137   5.322   1.130   1.031  2.0292  1.3657  0.1259
20515SOL    HW265138   5.339   1.088   1.175  1.4950  1.0859  0.1095
20516SOL     OW65139   3.275   3.331   1.903  0.1026  0.0577  0.1917
20516SOL    HW165140   3.208   3.278   1.946 -1.3067  1.8914  0.4049
20516SOL    HW265141   3.251   3.329   1.810  0.9243 -0.8345 -0.0194
20517SOL     OW65142   4.911   1.175   7.857  0.4132  0.3439  0.0525
20517SOL    HW165143   4.965   1.097   7.872  0.5914  0.3231 -0.6517
20517SOL    HW265144   4.834   1.142   7.810  0.1310  0.4841  0.4118
20518SOL     OW65145   0.471   2.511   1.179  0.3531 -0.0396  0.4650
20518SOL    HW165146   0.462   2.604   1.158 -0.2399  0.4113  2.4339
20518SOL    HW265147   0.467   2.466   1.095 -1.5074  1.5577 -0.3809
20519SOL     OW65148   6.843   9.322   9.190  0.8954 -0.4714  0.2034
20519SOL    HW165149   6.828   9.238   9.147  0.4954 -0.5739  0.5360
20519SOL    HW265150   6.898   9.371   9.129  1.8266 -1.2837  0.3658
20520SOL     OW65151   7.912   9.559   6.495 -0.2026  0.5047 -0.4893
20520SOL    HW165152   7.830   9.583   6.452  1.1184  1.2748 -2.7326
20520SOL    HW265153   7.936   9.637   6.545 -0.9166  0.1970  0.3604
20521SOL     OW65154   0.101   5.594   7.351 -0.7190  0.7221 -1.0134
20521SOL    HW165155   0.194   5.584   7.332 -0.5331 -1.1133  0.5855
20521SOL    HW265156   0.058   5.590   7.266  0.5502  0.1614 -1.6484
20522SOL     OW65157   6.453   4.208   0.278  0.1441 -0.0311  0.3173
20522SOL    HW165158   6.488   4.122   0.253  0.7734  0.2877  0.0767
20522SOL    HW265159   6.479   4.266   0.207 -1.8564  0.0126 -0.4181
20523SOL     OW65160   3.092   1.486   7.142  0.4333 -0.0733  0.7221
20523SOL    HW165161   3.030   1.519   7.206 -0.9575  2.1381 -1.5585
20523SOL    HW265162   3.087   1.391   7.150 -1.6386  0.0952  2.1025
20524SOL     OW65163  10.675   8.194  10.552  0.6855 -0.6060 -0.6228
20524SOL    HW165164  10.699   8.276  10.509 -0.3908 -0.5184 -1.0992
20524SOL    HW265165  10.584   8.180  10.526  0.8117 -1.8766 -0.4166
20525SOL     OW65166   0.599  11.056   7.888 -0.1333  0.5465 -0.0220
20525SOL    HW165167   0.519  11.008   7.913 -0.4051  0.7945 -0.4038
20525SOL    HW265168   0.605  11.046   7.793 -0.1125  1.1387 -0.0889
20526SOL     OW65169   2.462   8.643   3.998  0.2458 -0.2288  0.6954
20526SOL    HW165170   2.518   8.590   4.056  0.7093 -1.8311 -1.1252
20526SOL    HW265171   2.384   8.589   3.985  0.4364 -0.1962 -0.6611
20527SOL     OW65172   8.876   1.408   1.585  0.5139 -0.2226 -0.1702
20527SOL    HW165173   8.901   1.402   1.678  0.3313  0.4589 -0.0723
20527SOL    HW265174   8.866   1.317   1.557 -1.6319 -0.4267  1.0696
20528SOL     OW65175  10.563   0.720   2.538  1.0489  0.7279 -0.7190
20528SOL    HW165176  10.586   0.628   2.525  2.0014  0.9811 -0.8644
20528SOL    HW265177  10.479   0.717   2.585  2.1031 -0.2191  1.2042
20529SOL     OW65178   7.192   4.075   8.965 -0.0547 -0.5430 -0.4168
20529SOL    HW165179   7.105   4.038   8.952 -0.0154 -1.6376  1.9605
20529SOL    HW265180   7.250   3.999   8.972  0.8196  0.1238 -0.2102
20530SOL     OW65181   5.418   6.825   9.891  0.5072 -0.3636 -0.4812
20530SOL    HW165182   5.488   6.770   9.926  2.7994  2.6369  0.0494
20530SOL    HW265183   5.435   6.827   9.797 -0.5696 -1.7341 -0.7419
20531SOL     OW65184   8.180   5.433   1.919 -0.1516 -0.4710  0.2017
20531SOL    HW165185   8.253   5.479   1.959 -0.3130  1.1374 -1.2481
20531SOL    HW265186   8.211   5.412   1.830 -0.4930 -2.2200  0.4537
20532SOL     OW65187   5.778   9.826   9.335 -0.0912 -0.6390  0.6390
20532SOL    HW165188   5.835   9.771   9.390  0.2308 -0.2884  0.6555
20532SOL    HW265189   5.740   9.765   9.272  0.6491 -0.8006  0.3429
20533SOL     OW65190   6.318   8.953   9.482  0.4601  0.0300 -0.5891
20533SOL    HW165191   6.372   8.952   9.404  0.9025  0.6412 -0.3003
20533SOL    HW265192   6.378   8.977   9.553 -0.1567  0.5973 -0.2428
20534SOL     OW65193   6.079  10.371   7.941  0.1911 -0.3215  0.0720
20534SOL    HW165194   5.991  10.346   7.914  0.2547  0.3268 -0.7781
20534SOL    HW265195   6.086  10.463   7.916  1.4952 -0.6571 -0.9227
20535SOL     OW65196   0.909   5.456   1.123  0.0530 -0.4507 -0.0299
20535SOL    HW165197   0.818   5.431   1.106 -0.1743 -0.1806  0.7667
20535SOL    HW265198   0.945   5.473   1.036 -0.8112 -0.0341 -0.3178
20536SOL     OW65199   3.372   1.788   8.230  0.2842 -0.4931 -0.6941
20536SOL    HW165200   3.281   1.791   8.259  0.7180  1.4603  0.7189
20536SOL    HW265201   3.367   1.767   8.136 -1.5076 -1.7033 -0.3757
20537SOL     OW65202   7.258   0.108   3.615 -0.2601 -0.8367 -0.7668
20537SOL    HW165203   7.179   0.126   3.666 -1.3853  0.1303 -2.7481
20537SOL    HW265204   7.316   0.063   3.676 -1.2406  0.8603  1.5731
20538SOL     OW65205   5.142   2.135  10.532  0.5028 -0.0978 -0.0176
20538SOL    HW165206   5.138   2.039  10.526 -0.4644 -0.0490 -0.2407
20538SOL    HW265207   5.068   2.159  10.587  1.3461  0.4675  0.9123
20539SOL     OW65208   7.153   9.498   4.638  0.0615 -0.2063 -0.5143
20539SOL    HW165209   7.138   9.581   4.683 -1.0468 -0.2490 -0.7686
20539SOL    HW265210   7.193   9.522   4.555 -0.1448  0.0611 -0.5375
20540SOL     OW65211   0.868   1.655   9.889 -0.7317 -0.3091  0.6443
20540SOL    HW165212   0.849   1.640   9.796  0.3280 -3.5279  0.8289
20540SOL    HW265213   0.938   1.720   9.889 -1.1939  0.2175 -0.7668
20541SOL     OW65214   3.997   7.810   5.256 -0.8167  0.1280 -0.3967
20541SOL    HW165215   3.938   7.824   5.331  1.2989  0.3798  1.3273
20541SOL    HW265216   3.978   7.883   5.197 -0.3840  1.8027  1.4184
20542SOL     OW65217   2.534   5.274   5.629  0.0334 -0.0798 -0.3178
20542SOL    HW165218   2.500   5.363   5.620 -0.4586 -0.1068  1.0685
20542SOL    HW265219   2.497   5.227   5.554  0.5567  0.9332 -1.2532
20543SOL     OW65220   5.981  10.275  10.410  0.5652 -0.1448 -0.1225
20543SOL    HW165221   6.061  10.325  10.390 -0.4124  1.0303 -1.3054
20543SOL    HW265222   6.000  10.186  10.380  0.9154  0.4591 -1.7896
20544SOL     OW65223   9.449   6.496   3.184  0.0560  0.1487 -0.2243
20544SOL    HW165224   9.536   6.527   3.210  0.2474 -0.9457  0.5700
20544SOL    HW265225   9.389   6.566   3.209  0.4332 -0.1729  1.7915
20545SOL     OW65226   6.894   7.386   3.238  0.5106  0.2009 -0.2944
20545SOL    HW165227   6.823   7.396   3.175  0.3526  0.1435 -0.1238
20545SOL    HW265228   6.863   7.321   3.300  1.3022 -0.9419 -1.0579
20546SOL     OW65229   3.589   7.265   4.083  0.0138 -0.1357 -0.4567
20546SOL    HW165230   3.605   7.319   4.161  0.3040 -1.4681  0.4381
20546SOL    HW265231   3.673   7.264   4.037  0.4737 -1.1524  0.3893
20547SOL     OW65232   8.015   2.941  10.200 -0.0388  0.1451 -0.3780
20547SOL    HW165233   7.996   2.901  10.115  0.0818  0.0990 -0.3833
20547SOL    HW265234   8.048   3.028  10.179  1.3225 -0.3604 -0.4446
20548SOL     OW65235   3.048   7.921   3.928  0.1827  0.3697 -0.0549
20548SOL    HW165236   3.004   7.968   3.998  0.2835  2.7831 -1.5034
20548SOL    HW265237   3.140   7.949   3.934  0.2411  0.4161 -0.9706
20549SOL     OW65238   9.702   3.891   6.159 -0.2480  0.6581 -0.4118
20549SOL    HW165239   9.620   3.866   6.115  0.9063 -1.4771 -1.5243
20549SOL    HW265240   9.738   3.961   6.105 -0.9480  1.0542 -0.3699
20550SOL     OW65241  10.505   8.056  10.991 -0.0461 -0.5095  1.1040
20550SOL    HW165242  10.523   7.967  11.019 -1.5387 -0.7586  1.3505
20550SOL    HW265243  10.552   8.066  10.908  1.4007 -0.9828  1.8367
20551SOL     OW65244   1.522   4.631   0.094 -0.5847 -0.2716  0.1735
20551SOL    HW165245   1.469   4.551   0.094 -0.9106 -0.0708 -0.5996
20551SOL    HW265246   1.513   4.665   0.005 -0.7154  0.8087  0.5831
20552SOL     OW65247   6.877   9.421   1.259  0.1723  0.2067 -0.0271
20552SOL    HW165248   6.798   9.397   1.212 -0.3038 -0.1646  0.9377
20552SOL    HW265249   6.946   9.369   1.219  0.5133  2.5607 -2.7775
20553SOL     OW65250   5.779   8.161   2.790 -0.4089  0.2026 -0.0285
20553SOL    HW165251   5.715   8.090   2.788 -0.1844 -0.0626  1.4784
20553SOL    HW265252   5.843   8.134   2.855  1.5522  0.2326 -1.8465
20554SOL     OW65253   7.368   2.876   5.211  0.1198  0.6495  0.1910
20554SOL    HW165254   7.442   2.890   5.270  0.8953  1.6544 -0.9832
20554SOL    HW265255   7.405   2.882   5.123 -1.1839  0.1221 -0.4194
20555SOL     OW65256   3.311   4.988   9.577 -0.3393 -0.2908  0.7486
20555SOL    HW165257   3.335   4.900   9.547  0.3707  0.0031  0.4312
20555SOL    HW265258   3.221   4.979   9.608 -0.5357 -0.9765  0.0296
20556SOL     OW65259   1.957   7.805   9.448 -0.0018  0.1601  0.1312
20556SOL    HW165260   2.042   7.762   9.456 -0.5848 -0.9812  0.5120
20556SOL    HW265261   1.948   7.855   9.530 -0.1319 -0.5582  0.5671
20557SOL     OW65262   8.651   4.077   4.489 -0.0166  0.1199  0.3827
20557SOL    HW165263   8.691   4.031   4.415 -1.3821  0.3110 -0.5023
20557SOL    HW265264   8.679   4.027   4.566  1.2552 -0.2047 -0.2594
20558SOL     OW65265   6.796  10.213   7.650 -0.1992  0.3153 -0.0781
20558SOL    HW165266   6.846  10.134   7.628  4.1102  2.3766  1.1381
20558SOL    HW265267   6.803  10.220   7.745 -0.3619  2.1675 -0.1615
20559SOL     OW65268   6.213   6.823   8.334  0.1396 -0.1268  0.1209
20559SOL    HW165269   6.171   6.823   8.248 -0.5544 -1.3919  0.4361
20559SOL    HW265270   6.298   6.865   8.320  0.5163 -1.3203 -1.4297
20560SOL     OW65271   2.659  10.284   7.313  0.0395  0.0265  0.3445
20560SOL    HW165272   2.619  10.360   7.355 -1.9451 -1.3722  1.1185
20560SOL    HW265273   2.630  10.210   7.366  1.6691 -1.3193 -0.5729
20561SOL     OW65274   0.556  11.068   6.831  0.1116  0.3440 -0.6916
20561SOL    HW165275   0.627  11.036   6.886  0.5160  2.8837  0.4226
20561SOL    HW265276   0.568  11.023   6.747  1.5771 -1.0540  0.2189
20562SOL     OW65277   9.362   8.269   0.015 -0.0974 -0.3730 -0.6077
20562SOL    HW165278   9.405   8.354   0.018 -0.4921 -0.1163 -1.7726
20562SOL    HW265279   9.414   8.214   0.074  0.3372  0.5796 -0.0704
20563SOL     OW65280   4.324   9.071   2.816 -0.5516  0.1207 -0.5328
20563SOL    HW165281   4.327   9.056   2.721 -1.9758 -0.9053 -0.4519
20563SOL    HW265282   4.238   9.111   2.830 -0.7018 -0.5088  0.4099
20564SOL     OW65283  10.158   1.465   5.499 -0.3596 -0.2933 -0.1777
20564SOL    HW165284  10.150   1.427   5.411 -2.9340  0.6820 -0.4682
20564SOL    HW265285  10.137   1.557   5.487  1.4183  0.3266  1.1793
20565SOL     OW65286   0.745   2.074  11.061 -0.2886 -0.1127  0.3276
20565SOL    HW165287   0.699   2.028  10.991  0.0891 -0.8569  0.5482
20565SOL    HW265288   0.695   2.154  11.075  0.9178  1.2119 -2.3436
20566SOL     OW65289   6.103   2.454   9.775  0.2779 -0.3069  0.1376
20566SOL    HW165290   6.177   2.471   9.834  1.4419  1.1102 -1.6404
20566SOL    HW265291   6.062   2.374   9.810  0.4759  0.8268  3.2248
20567SOL     OW65292   5.846   1.743   6.450 -0.0371 -0.6704 -0.0863
20567SOL    HW165293   5.791   1.747   6.371 -2.0396  0.1836  1.2476
20567SOL    HW265294   5.838   1.653   6.481  0.9815 -1.0854 -0.9603
20568SOL     OW65295   0.513   5.213   8.592  0.1790  0.5056  0.4605
20568SOL    HW165296   0.440   5.203   8.653  0.3440  0.2566  0.6234
20568SOL    HW265297   0.590   5.185   8.643  0.5321  1.6870  0.6113
20569SOL     OW65298   0.430   8.233   6.196  0.1511 -0.0145  0.3859
20569SOL    HW165299   0.375   8.295   6.148 -1.9413 -1.3454  0.9623
20569SOL    HW265300   0.369   8.168   6.230  2.0097 -1.1147  1.7777
20570SOL     OW65301   3.256   8.229   4.577 -0.1269  0.3643  0.1206
20570SOL    HW165302   3.344   8.191   4.583 -0.3842 -0.2047  0.3113
20570SOL    HW265303   3.210   8.175   4.514  0.2014  1.7638 -1.3873
20571SOL     OW65304   4.102   3.850   6.044  0.1923 -0.0302 -0.1019
20571SOL    HW165305   4.088   3.944   6.036  1.1863  0.1319 -0.1006
20571SOL    HW265306   4.184   3.834   5.997  0.3934 -0.7831  0.4804
20572SOL     OW65307   0.646  10.791   5.770 -0.0597  0.2358  0.5480
20572SOL    HW165308   0.554  10.769   5.758  0.3207 -0.3042 -1.9079
20572SOL    HW265309   0.679  10.726   5.832 -0.7741 -1.2082 -0.5327
20573SOL     OW65310   7.221   2.975   5.446 -0.4106 -0.1114  0.2585
20573SOL    HW165311   7.231   2.918   5.523  3.6759 -0.7993 -0.5744
20573SOL    HW265312   7.253   2.922   5.373 -1.4524  1.5254 -1.4779
20574SOL     OW65313   8.465   6.409  10.367 -0.4280 -0.7940  0.2130
20574SOL    HW165314   8.393   6.373  10.315 -0.2300 -2.9039  1.2609
20574SOL    HW265315   8.535   6.345  10.358  0.9028  0.6174  0.1849
20575SOL     OW65316   0.443   5.257   0.877  0.0326  0.2337  0.0442
20575SOL    HW165317   0.433   5.312   0.799 -0.3614  1.1095  0.6958
20575SOL    HW265318   0.376   5.288   0.937  0.9648  0.2303  1.1145
20576SOL     OW65319   9.616   4.322   5.348  0.0616 -0.0469 -0.0493
20576SOL    HW165320   9.590   4.237   5.312 -0.7772  0.2458 -0.1534
20576SOL    HW265321   9.616   4.309   5.442  0.4277 -0.2976 -0.0809
20577SOL     OW65322   8.385   3.014   1.485 -0.3881  0.2259 -0.1739
20577SOL    HW165323   8.437   3.067   1.425  0.9481 -1.2969 -0.4316
20577SOL    HW265324   8.437   2.935   1.499 -0.4134  0.6660  3.3321
20578SOL     OW65325   3.844   4.325   4.893  0.2855 -0.1148 -0.3918
20578SOL    HW165326   3.812   4.386   4.826 -0.4666  0.0407  0.1019
20578SOL    HW265327   3.806   4.356   4.975  1.1516 -0.3401  0.1119
20579SOL     OW65328   5.065   4.462   8.252 -0.0996  0.2657 -0.1399
20579SOL    HW165329   5.053   4.542   8.201 -3.8527  0.3460  0.5925
20579SOL    HW265330   5.055   4.391   8.188 -0.3299  0.3632 -0.2116
20580SOL     OW65331   0.361   9.553   3.324 -1.2921 -0.0487  0.2557
20580SOL    HW165332   0.382   9.584   3.412 -0.0853 -1.6428  0.5736
20580SOL    HW265333   0.280   9.503   3.334 -0.8075 -0.7712  0.5894
20581SOL     OW65334   3.793  11.014   9.008  0.4038  0.4070 -0.4663
20581SOL    HW165335   3.763  11.083   8.949 -0.5192  0.5403  0.1461
20581SOL    HW265336   3.887  11.029   9.018  0.0630  2.1473  0.3925
20582SOL     OW65337  10.220   9.534  11.012 -0.4542 -0.5173 -0.6062
20582SOL    HW165338  10.277   9.580  11.074 -0.9867  0.1939 -0.6337
20582SOL    HW265339  10.182   9.603  10.959 -2.0977 -0.8874  0.0381
20583SOL     OW65340   1.757   0.165   8.490  0.0068 -0.7367 -0.1801
20583SOL    HW165341   1.842   0.191   8.455 -0.1517 -2.3596 -1.9235
20583SOL    HW265342   1.772   0.079   8.529 -0.1809  0.3549  2.5025
20584SOL     OW65343   5.771   6.573   1.567  0.0214 -0.6893  0.4988
20584SOL    HW165344   5.865   6.560   1.581 -0.0976 -3.3549 -0.6098
20584SOL    HW265345   5.762   6.587   1.473 -0.7543 -1.7046  0.3979
20585SOL     OW65346   8.300   3.068   9.539  0.0223  0.1270  0.8089
20585SOL    HW165347   8.259   3.143   9.582 -3.3137 -0.6103 -0.7345
20585SOL    HW265348   8.227   3.010   9.518  2.1900 -2.4701 -0.2070
20586SOL     OW65349   6.804   5.143   1.714 -0.2596 -0.4758 -0.2472
20586SOL    HW165350   6.724   5.178   1.676 -0.5839 -1.7964 -0.8500
20586SOL    HW265351   6.839   5.085   1.646  0.2665 -1.2835  0.6915
20587SOL     OW65352   6.836   4.786   9.566  0.4154 -0.1557  0.0242
20587SOL    HW165353   6.873   4.706   9.528 -0.3655  0.0812 -1.2789
20587SOL    HW265354   6.851   4.854   9.500  0.0497  0.5214  0.6239
20588SOL     OW65355   0.326   6.247  10.392 -0.0994 -0.0211  0.3486
20588SOL    HW165356   0.351   6.207  10.308  0.3321 -1.1223  0.9740
20588SOL    HW265357   0.232   6.232  10.399 -0.0527 -0.3539  0.2769
20589SOL     OW65358   4.244   4.213   6.618  0.0333 -0.5228  0.6651
20589SOL    HW165359   4.162   4.261   6.605 -0.7138 -2.2574 -1.5299
20589SOL    HW265360   4.234   4.173   6.705 -2.1918 -1.9755 -0.1732
20590SOL     OW65361   6.032   5.805   4.051  0.2378 -0.1285  0.3492
20590SOL    HW165362   6.009   5.801   3.958 -3.8396  1.3247  1.0717
20590SOL    HW265363   6.031   5.714   4.080 -0.7721 -0.4528 -0.6080
20591SOL     OW65364   2.742   7.348   7.052 -0.3470  0.3780  0.1466
20591SOL    HW165365   2.697   7.412   7.107 -0.6652  0.4319 -0.1742
20591SOL    HW265366   2.763   7.396   6.972  0.2253  0.3351  0.2697
20592SOL     OW65367   9.811   3.329   8.562 -0.0040  0.4434  0.1439
20592SOL    HW165368   9.810   3.242   8.602 -0.2962  0.6252  0.5329
20592SOL    HW265369   9.834   3.389   8.633  2.6181  0.4559 -0.6078
20593SOL     OW65370   0.742   7.014  10.078  0.1371  0.0082  0.2668
20593SOL    HW165371   0.751   6.961   9.999 -0.2649  1.8314 -1.0865
20593SOL    HW265372   0.832   7.042  10.098  0.1880 -0.0565  0.1328
20594SOL     OW65373   1.116   6.984   7.583  0.2287  0.1006 -0.2025
20594SOL    HW165374   1.072   6.899   7.592  1.1157 -0.2890  0.6008
20594SOL    HW265375   1.161   6.978   7.499 -0.0655 -0.0539 -0.3533
20595SOL     OW65376  10.227   5.380   6.295  0.4583  0.3499  0.6266
20595SOL    HW165377  10.296   5.347   6.237 -0.7047  0.9028 -1.1280
20595SOL    HW265378  10.256   5.467   6.320  1.1814 -0.0649  1.2698
20596SOL     OW65379   5.096   9.139   2.106  0.1132 -0.0362 -0.0983
20596SOL    HW165380   5.122   9.148   2.198  0.1793 -0.8973 -0.0233
20596SOL    HW265381   5.007   9.173   2.103 -0.0612 -0.4306  0.3896
20597SOL     OW65382   4.028   2.445   1.626 -0.2284 -0.1475  0.0073
20597SOL    HW165383   3.968   2.466   1.554 -0.7864  0.5302  0.6523
20597SOL    HW265384   3.996   2.497   1.699  0.3701 -0.7889  0.7349
20598SOL     OW65385   6.790   2.018   9.596  0.0100 -0.6073  0.2476
20598SOL    HW165386   6.793   2.006   9.501  0.2074 -0.8574  0.2844
20598SOL    HW265387   6.865   2.073   9.616  0.2820 -0.9985  0.3210
20599SOL     OW65388   3.617  10.140   3.404 -0.3394  0.4645  0.0310
20599SOL    HW165389   3.669  10.197   3.460 -1.4467  1.1409  0.4003
20599SOL    HW265390   3.681  10.085   3.359  0.7384  1.8738 -0.2009
20600SOL     OW65391   7.327  10.821   3.298  0.2626 -0.1201 -0.1017
20600SOL    HW165392   7.269  10.856   3.366  1.8281  2.4643  0.0110
20600SOL    HW265393   7.333  10.727   3.319 -3.0418 -0.3541  0.4123
20601SOL     OW65394   6.248   1.989   3.667  0.5285 -0.2078  0.0019
20601SOL    HW165395   6.169   1.945   3.635 -0.8318  3.0035 -1.4959
20601SOL    HW265396   6.219   2.033   3.747  1.6536 -1.3087  1.0560
20602SOL     OW65397  10.225   5.356  10.102  0.0266 -0.4152  0.0025
20602SOL    HW165398  10.262   5.307  10.028 -0.1253 -1.4902  0.6174
20602SOL    HW265399  10.275   5.438  10.103  0.2084 -0.4839 -1.1186
20603SOL     OW65400   0.299   4.961   3.667  0.0077  0.3088  0.0273
20603SOL    HW165401   0.390   4.964   3.696 -0.2048 -0.3127  0.8060
20603SOL    HW265402   0.287   4.871   3.634 -0.2477  0.4702 -0.3250
20604SOL     OW65403  10.676   4.023   2.479  0.2352 -0.0865 -0.1099
20604SOL    HW165404  10.714   4.108   2.460  1.3059 -0.9201 -1.9910
20604SOL    HW265405  10.750   3.963   2.480 -0.6524 -1.2450 -0.4835
20605SOL     OW65406   5.961   4.744   7.255 -0.1730 -0.0016 -0.2210
20605SOL    HW165407   6.035   4.785   7.210 -0.9463  2.2233  0.4032
20605SOL    HW265408   5.994   4.723   7.343 -0.3555  1.3029  0.1708
20606SOL     OW65409   8.212   7.314   7.050  0.3391 -0.4238  0.2982
20606SOL    HW165410   8.278   7.382   7.062 -0.1807  0.3048 -0.7542
20606SOL    HW265411   8.132   7.351   7.089  0.6983 -1.6197  2.2782
20607SOL     OW65412  10.693   8.662   8.078  0.7270  0.0577 -0.1711
20607SOL    HW165413  10.692   8.574   8.040  2.6035 -0.1056  0.0560
20607SOL    HW265414  10.631   8.658   8.150 -2.5658  0.2277 -2.7682
20608SOL     OW65415   2.768  10.250   8.486 -0.7717  0.4464  0.3236
20608SOL    HW165416   2.712  10.190   8.536 -1.7689  0.1525 -1.0671
20608SOL    HW265417   2.720  10.332   8.485 -2.1695 -0.2740 -2.3522
20609SOL     OW65418   4.342   8.573   9.570  0.3421  0.5517  0.0997
20609SOL    HW165419   4.369   8.631   9.499  0.3273  1.5132  0.8517
20609SOL    HW265420   4.386   8.490   9.552 -0.6178  0.3674 -1.6839
20610SOL     OW65421   4.053   3.355   3.867 -0.5860  0.4250 -0.0188
20610SOL    HW165422   3.987   3.384   3.805 -0.4499  2.2022  0.6041
20610SOL    HW265423   4.135   3.394   3.835 -0.3679  0.6538  0.7884
20611SOL     OW65424   6.957   1.381   8.552 -0.3876  0.1730  0.6095
20611SOL    HW165425   7.029   1.367   8.614  0.4826  1.5835 -0.0146
20611SOL    HW265426   6.993   1.353   8.468 -1.6861 -2.0929  0.7251
20612SOL     OW65427   5.114   3.268   1.615 -0.0649 -0.2946  0.0637
20612SOL    HW165428   5.032   3.250   1.660  0.0783 -0.5445  0.2269
20612SOL    HW265429   5.137   3.186   1.571  0.4357 -0.4262  0.5614
20613SOL     OW65430   0.235   0.257   1.072  0.0414  0.4627  0.0504
20613SOL    HW165431   0.277   0.281   1.154 -0.1871  1.3620 -0.0832
20613SOL    HW265432   0.303   0.270   1.006  0.6934 -1.6493  0.2144
20614SOL     OW65433   5.326   2.998   3.857 -0.0394 -0.2635  0.0634
20614SOL    HW165434   5.415   2.977   3.885 -0.4260  0.1368  1.7107
20614SOL    HW265435   5.295   2.918   3.814  1.1213 -0.3715 -0.6155
20615SOL     OW65436   7.455   9.342   9.788  0.3512 -0.0221  0.1272
20615SOL    HW165437   7.369   9.338   9.829  0.1256  0.3968 -0.3091
20615SOL    HW265438   7.438   9.345   9.694  0.8441 -0.0733  0.0305
20616SOL     OW65439   7.448   5.604   7.446  0.5542  0.4404  0.1941
20616SOL    HW165440   7.471   5.541   7.514 -1.6202 -1.7072 -0.8871
20616SOL    HW265441   7.525   5.605   7.388  1.1312 -0.2428  0.9129
20617SOL     OW65442   2.917  10.216   9.822 -0.3193  0.2995 -0.5807
20617SOL    HW165443   2.922  10.312   9.818 -0.7659  0.3642  0.1618
20617SOL    HW265444   3.007  10.189   9.838 -0.3495  0.6728  0.2935
20618SOL     OW65445   1.211   3.954   9.196 -0.1075  0.1985  0.2400
20618SOL    HW165446   1.292   3.961   9.145  0.8453  2.4282  1.8838
20618SOL    HW265447   1.219   3.872   9.244 -0.0018 -0.8106 -1.4155
20619SOL     OW65448   5.600   5.199   6.076  0.1011 -0.2517 -0.3172
20619SOL    HW165449   5.691   5.196   6.046  0.0596  0.6305 -0.5478
20619SOL    HW265450   5.604   5.249   6.158 -0.3673  1.1238 -1.1068
20620SOL     OW65451   0.268   2.789   6.293 -0.2203  0.2166  0.9593
20620SOL    HW165452   0.209   2.715   6.310 -1.3395  0.9583  0.4290
20620SOL    HW265453   0.212   2.856   6.254  1.4636 -0.0639 -2.2395
20621SOL     OW65454   8.068   2.247   7.855  0.0065  0.1224 -0.0557
20621SOL    HW165455   8.069   2.253   7.951 -1.9533 -2.0777  0.2033
20621SOL    HW265456   7.976   2.229   7.834  0.3896  0.6032 -2.3902
20622SOL     OW65457  10.146   4.109   1.847 -0.0456  0.6854  0.2954
20622SOL    HW165458  10.197   4.125   1.768  0.3968  1.2668  0.6919
20622SOL    HW265459  10.057   4.091   1.816  0.6113 -1.4575 -0.4774
20623SOL     OW65460   9.667   3.420   7.732 -0.7098 -0.0342  0.3782
20623SOL    HW165461   9.688   3.404   7.641 -0.3893  0.0203  0.4427
20623SOL    HW265462   9.715   3.500   7.755 -1.7329  0.6329  0.2576
20624SOL     OW65463   6.097  10.312   7.285 -0.1116 -0.1713 -0.8123
20624SOL    HW165464   6.152  10.387   7.306 -1.4235  0.9226 -1.1077
20624SOL    HW265465   6.060  10.332   7.199  0.2039 -1.5849 -1.3113
20625SOL     OW65466   0.243  10.207   1.533  1.0950  0.3590  0.0359
20625SOL    HW165467   0.309  10.258   1.579  1.0229  0.0888  0.4484
20625SOL    HW265468   0.180  10.184   1.601  0.4337  0.8399 -0.4053
20626SOL     OW65469  10.480   1.075   6.187 -0.0527  0.6313  0.2845
20626SOL    HW165470  10.471   1.119   6.103  3.5103  2.1572  0.5131
20626SOL    HW265471  10.509   0.987   6.166  1.8961  1.3371 -0.1619
20627SOL     OW65472   9.279   4.795   7.492  0.4932  0.3644 -0.0330
20627SOL    HW165473   9.283   4.729   7.422 -0.3640 -0.5411  0.7306
20627SOL    HW265474   9.216   4.860   7.459 -0.5713 -0.5040  0.2291
20628SOL     OW65475  10.141   8.600   0.242 -0.2559  0.2373 -0.4384
20628SOL    HW165476  10.124   8.668   0.178  0.1523  0.5167 -0.2578
20628SOL    HW265477  10.206   8.639   0.301 -1.3678  0.3567  0.7341
20629SOL     OW65478   3.033  10.061   8.020 -0.0517  0.2173 -0.5194
20629SOL    HW165479   3.042  10.126   7.950  1.5636  1.6977  0.9857
20629SOL    HW265480   3.099  10.085   8.084 -3.5912  1.0875  3.2210
20630SOL     OW65481   7.043   3.388   1.115 -0.2690  0.3613  0.4277
20630SOL    HW165482   6.997   3.393   1.198 -0.3702  1.0499  0.3319
20630SOL    HW265483   7.033   3.475   1.076  0.4603  0.2887  0.0607
20631SOL     OW65484   7.812   7.508   8.758  0.5979 -0.1307 -0.5464
20631SOL    HW165485   7.864   7.452   8.815 -0.0686  0.8780  1.1170
20631SOL    HW265486   7.774   7.449   8.693 -0.4108 -1.6966  1.3741
20632SOL     OW65487   1.946   0.747   0.634 -0.5557 -0.2936 -0.0122
20632SOL    HW165488   1.905   0.813   0.691 -0.8755  0.2014 -0.8063
20632SOL    HW265489   1.893   0.748   0.554  0.1473 -0.6754 -0.4893
20633SOL     OW65490   0.147   4.330   3.241  0.0028 -0.0366 -0.0477
20633SOL    HW165491   0.226   4.382   3.257 -1.6841  2.6616  0.1002
20633SOL    HW265492   0.139   4.328   3.145 -1.1079  2.0507 -0.0584
20634SOL     OW65493  10.671  10.780   2.485  0.6264 -0.1091 -0.6594
20634SOL    HW165494  10.761  10.775   2.516 -0.2414 -1.0859  2.0326
20634SOL    HW265495  10.640  10.690   2.485 -0.4533  0.2387 -1.1979
20635SOL     OW65496   3.462   4.974  10.532  0.1471  0.1213  0.2713
20635SOL    HW165497   3.464   4.951  10.439  3.4835 -1.3895  0.5876
20635SOL    HW265498   3.417   5.058  10.535 -0.2044  0.1445 -2.6675
20636SOL     OW65499   8.657   5.680   4.647 -0.1069 -0.0789 -0.0202
20636SOL    HW165500   8.628   5.764   4.682  0.2994  0.3845 -0.7624
20636SOL    HW265501   8.580   5.624   4.653 -0.4209  0.3809  0.3717
20637SOL     OW65502   7.123   9.678   5.092 -0.5256 -0.0015 -0.4867
20637SOL    HW165503   7.215   9.674   5.066 -0.6570  0.2686 -0.9994
20637SOL    HW265504   7.117   9.760   5.142 -0.5205  0.0536 -0.5770
20638SOL     OW65505   8.098   6.673   8.536 -0.0018 -0.3373  0.5065
20638SOL    HW165506   8.015   6.626   8.543 -0.1280  0.0016  1.4819
20638SOL    HW265507   8.107   6.717   8.620  0.9259  0.0365  0.2195
20639SOL     OW65508   9.330   0.509   4.018  0.1610 -0.3887  0.2511
20639SOL    HW165509   9.401   0.559   4.059  0.4076  1.5755 -2.2787
20639SOL    HW265510   9.368   0.423   4.001  0.0248 -1.3519  3.9256
20640SOL     OW65511   4.260   0.867   1.071  0.0648  0.6650  0.1164
20640SOL    HW165512   4.202   0.831   1.138  0.5691  2.4566  1.6226
20640SOL    HW265513   4.203   0.920   1.016 -0.2001 -0.0783 -0.3456
20641SOL     OW65514  10.626  10.490   2.872  0.1578  0.5074  0.1327
20641SOL    HW165515  10.611  10.395   2.864  1.3671  0.3326 -0.1864
20641SOL    HW265516  10.549  10.522   2.919  0.3873 -0.8606  1.5306
20642SOL     OW65517   5.100  10.443   1.203  0.8419  0.5002  0.0718
20642SOL    HW165518   5.194  10.428   1.201  0.8460  0.4467 -2.5294
20642SOL    HW265519   5.079  10.478   1.116 -1.6046  0.0926  0.4231
20643SOL     OW65520   3.196   0.389   3.677  0.0286  0.3903 -0.1109
20643SOL    HW165521   3.170   0.481   3.678  0.3288  0.4799  1.5342
20643SOL    HW265522   3.114   0.341   3.669 -0.1520  0.7864 -0.6862
20644SOL     OW65523   4.056   5.075   9.503  0.1971  0.4501  0.0297
20644SOL    HW165524   4.086   5.019   9.574 -0.8002  0.6595  0.6463
20644SOL    HW265525   4.131   5.131   9.482  0.7809 -0.2289  0.2955
20645SOL     OW65526   0.717   9.441   0.331  0.3738  0.1070 -0.1018
20645SOL    HW165527   0.766   9.385   0.391  0.1844 -1.1408 -1.0812
20645SOL    HW265528   0.709   9.524   0.377  0.7648 -0.6290  1.3391
20646SOL     OW65529  10.911   4.797   9.783 -0.3253 -0.5797 -0.2176
20646SOL    HW165530  10.997   4.790   9.823 -0.0249 -0.9110 -0.9086
20646SOL    HW265531  10.920   4.866   9.717 -0.9129  0.2180  0.5120
20647SOL     OW65532   2.196   0.798   1.660  0.2298 -0.4946 -0.3021
20647SOL    HW165533   2.154   0.884   1.651 -0.1052 -0.6973 -0.7489
20647SOL    HW265534   2.236   0.799   1.747 -1.2820 -0.5321  0.4219
20648SOL     OW65535   1.350  10.895   3.248  0.6222 -0.1996  0.1758
20648SOL    HW165536   1.421  10.946   3.287  0.3467  1.2416 -1.1003
20648SOL    HW265537   1.272  10.949   3.259 -0.3216 -1.7305  1.4969
20649SOL     OW65538   9.489   7.027   8.061 -0.3212 -0.3272 -0.3103
20649SOL    HW165539   9.491   6.962   7.990 -1.6819 -1.3164  0.5120
20649SOL    HW265540   9.407   7.010   8.106  0.4865  0.3131  1.4879
20650SOL     OW65541   9.955   2.086   6.284 -0.1282  0.3204 -0.2408
20650SOL    HW165542  10.001   2.036   6.351  0.0994 -0.1737 -0.7590
20650SOL    HW265543   9.863   2.063   6.296 -0.2525  1.2416  0.7372
20651SOL     OW65544   8.701   4.233   0.441 -0.6191  0.3699 -0.6287
20651SOL    HW165545   8.772   4.181   0.403 -3.0096 -2.3874 -1.7377
20651SOL    HW265546   8.693   4.309   0.384  1.3788  0.7832 -0.4438
20652SOL     OW65547   6.590   4.405   5.813 -0.2763 -0.1533 -0.1215
20652SOL    HW165548   6.549   4.319   5.800 -1.3577  0.2528  0.5128
20652SOL    HW265549   6.531   4.452   5.872  0.6765  0.7693  0.1449
20653SOL     OW65550   4.146   7.237   4.483 -0.2517  0.0547  0.6771
20653SOL    HW165551   4.060   7.280   4.481  1.3510  3.7740  2.0128
20653SOL    HW265552   4.180   7.247   4.395 -0.4263  0.3242  0.6395
20654SOL     OW65553   3.977   6.119   7.374 -0.5122  0.2561  0.0513
20654SOL    HW165554   3.971   6.214   7.366 -1.2338  0.2264  0.2149
20654SOL    HW265555   4.014   6.090   7.291 -0.7074  0.6411 -0.1720
20655SOL     OW65556   8.281   1.996   3.874  0.3452  0.1982 -0.4119
20655SOL    HW165557   8.218   2.052   3.920  0.5509 -0.8200  1.1885
20655SOL    HW265558   8.232   1.917   3.853 -0.0443  1.0198 -2.9774
20656SOL     OW65559  11.017   3.146   6.338 -0.4200  0.3770 -0.1805
20656SOL    HW165560  10.944   3.101   6.380 -0.5100  0.4466 -0.2603
20656SOL    HW265561  11.014   3.235   6.374  0.6283 -0.0537  1.0675
20657SOL     OW65562   0.658   0.023   0.413 -0.6065 -1.0578  0.9374
20657SOL    HW165563   0.567   0.026   0.442 -0.6456  0.9206  0.7071
20657SOL    HW265564   0.653   0.028   0.318 -0.2433  1.6858  0.9903
20658SOL     OW65565   0.853   3.216   8.811  0.3715 -0.5714  0.6140
20658SOL    HW165566   0.829   3.227   8.903  1.5939  1.5486  0.7438
20658SOL    HW265567   0.772   3.235   8.763 -0.0122 -0.6560  1.2193
20659SOL     OW65568   0.378   0.830   1.065  0.3420 -0.5850 -0.2501
20659SOL    HW165569   0.350   0.756   1.011  2.4794 -0.3556 -1.7976
20659SOL    HW265570   0.443   0.792   1.125 -1.1062 -0.5888  1.3874
20660SOL     OW65571   0.744  10.282   4.503 -0.2130 -0.0703  0.0585
20660SOL    HW165572   0.793  10.320   4.430 -0.6521 -0.4125 -0.4208
20660SOL    HW265573   0.793  10.309   4.581 -0.7269  1.8395 -0.2204
20661SOL     OW65574   6.399   8.193   3.918  0.1278  0.4975  0.0984
20661SOL    HW165575   6.405   8.098   3.923  0.2954  0.5185  0.3205
20661SOL    HW265576   6.487   8.224   3.938  0.2888  0.6726 -0.8491
20662SOL     OW65577   7.868   5.936   3.635 -0.0188  0.1250  0.5119
20662SOL    HW165578   7.948   5.972   3.672 -0.2073  0.4323  0.6165
20662SOL    HW265579   7.807   5.931   3.709  0.3102 -1.3108  0.7232
20663SOL     OW65580   9.222   8.939   8.839 -0.0523 -0.6045  0.2428
20663SOL    HW165581   9.233   9.014   8.780  0.1275 -0.1634  0.8249
20663SOL    HW265582   9.132   8.946   8.871  0.1145 -0.3576  0.6669
20664SOL     OW65583  10.669   1.271   7.678 -0.1469  0.2308 -0.3483
20664SOL    HW165584  10.587   1.308   7.644  0.4201  1.2413 -0.6280
20664SOL    HW265585  10.736   1.335   7.656  1.1799 -1.6895 -2.3685
20665SOL     OW65586   7.770   4.970  10.813 -0.5700 -0.4688  0.6825
20665SOL    HW165587   7.765   4.970  10.717 -0.8109 -1.7358  0.6788
20665SOL    HW265588   7.821   4.892  10.835 -0.2121  0.0045  1.5763
20666SOL     OW65589   1.884   8.073  10.638  0.4477 -0.7142  0.4120
20666SOL    HW165590   1.928   8.140  10.586 -0.6059 -0.2105  0.1490
20666SOL    HW265591   1.949   8.046  10.703  1.3337 -0.4123 -0.3404
20667SOL     OW65592   9.236   0.455   7.248 -0.1360 -0.3035  0.3437
20667SOL    HW165593   9.255   0.546   7.224 -0.5155 -0.0955  0.7954
20667SOL    HW265594   9.167   0.428   7.188 -0.0454 -0.2786  0.2291
20668SOL     OW65595   8.568   6.956   5.556 -0.4216  0.1551 -0.1497
20668SOL    HW165596   8.633   7.007   5.508  1.1013 -1.7012 -0.1718
20668SOL    HW265597   8.566   6.872   5.511  0.9061 -1.5919  2.7652
20669SOL     OW65598   0.268   7.480   1.144 -0.2334  0.7202 -0.3631
20669SOL    HW165599   0.349   7.429   1.134 -0.7459  0.1018 -1.6513
20669SOL    HW265600   0.204   7.416   1.175 -1.1164  0.2601 -2.8717
20670SOL     OW65601   6.374  10.799  10.649  0.2200  0.1051  0.0975
20670SOL    HW165602   6.352  10.888  10.676 -0.3107  0.1858 -0.5644
20670SOL    HW265603   6.295  10.749  10.666 -0.4363  0.3348 -2.0413
20671SOL     OW65604   6.513   0.486   1.876  0.5109  0.0631 -0.2598
20671SOL    HW165605   6.551   0.463   1.791  0.7238  0.5551 -0.3038
20671SOL    HW265606   6.531   0.580   1.885 -1.0767  0.4169 -0.4751
20672SOL     OW65607   8.021   1.543   9.491  0.0423 -0.2987  0.2278
20672SOL    HW165608   7.958   1.495   9.438 -0.6707  0.4638  0.3694
20672SOL    HW265609   7.968   1.592   9.554  0.6085  1.6968 -0.7396
20673SOL     OW65610   5.891   6.321   6.670 -0.5159 -0.4211  0.2118
20673SOL    HW165611   5.842   6.253   6.715 -0.0086 -0.5035  0.6517
20673SOL    HW265612   5.829   6.392   6.657 -1.8881 -1.9679 -2.7232
20674SOL     OW65613   6.687   1.728   7.915  0.0478  0.2721  0.7091
20674SOL    HW165614   6.591   1.728   7.918 -0.1315 -3.2713  0.3669
20674SOL    HW265615   6.708   1.755   7.825 -0.7361 -0.0238  0.4233
20675SOL     OW65616   2.686   8.780   3.293 -0.4156 -0.1416  0.1148
20675SOL    HW165617   2.627   8.711   3.324 -1.6467 -1.0958 -3.7233
20675SOL    HW265618   2.720   8.821   3.373 -2.2656 -2.9387  2.5523
20676SOL     OW65619   4.599  10.477  10.097  0.4857  0.3232 -0.1335
20676SOL    HW165620   4.504  10.468  10.090  0.4706 -0.5433  0.9471
20676SOL    HW265621   4.625  10.519  10.015 -0.8206  0.5655 -0.4511
20677SOL     OW65622   3.314   1.825   7.968  0.4568  0.3152 -0.3310
20677SOL    HW165623   3.407   1.845   7.960  0.5075  0.5839  0.7222
20677SOL    HW265624   3.270   1.906   7.942  0.5431  0.4187 -0.1611
20678SOL     OW65625   8.049  10.183   7.766  0.0921 -0.0740 -0.6269
20678SOL    HW165626   8.012  10.231   7.692 -0.1435  3.0918  1.3489
20678SOL    HW265627   7.998  10.212   7.842  1.9708 -1.1222  1.1497
20679SOL     OW65628   1.927   7.317   3.966  0.0584 -0.3941 -0.3328
20679SOL    HW165629   1.895   7.313   3.876  0.2855 -0.5020 -0.4095
20679SOL    HW265630   1.865   7.264   4.016 -1.1347  1.1340 -0.1012
20680SOL     OW65631   7.056   3.301   5.526 -0.3971 -0.2665  0.3822
20680SOL    HW165632   6.980   3.338   5.570  0.3280  1.1787  0.4722
20680SOL    HW265633   7.120   3.287   5.596 -0.7037 -1.9157  0.3817
20681SOL     OW65634   3.078   6.813   0.708  0.5367  0.2005 -0.4355
20681SOL    HW165635   3.153   6.811   0.767  0.3411 -1.4556 -0.1942
20681SOL    HW265636   3.043   6.901   0.716  2.4984  1.0359 -0.6264
20682SOL     OW65637   4.024   0.110   1.396  0.1635 -0.3431  0.0777
20682SOL    HW165638   4.092   0.109   1.463 -0.0597  0.7307  0.3428
20682SOL    HW265639   4.069   0.086   1.315  0.7607 -0.0875  0.3299
20683SOL     OW65640   5.936   3.239   4.521 -0.1433 -0.1662 -0.4280
20683SOL    HW165641   5.989   3.232   4.601 -0.2857 -1.4754 -0.4255
20683SOL    HW265642   5.857   3.189   4.541 -0.4805  0.0662 -1.1592
20684SOL     OW65643   9.431   2.851   9.941 -0.1287 -0.4177 -0.4406
20684SOL    HW165644   9.371   2.855   9.867 -0.3955  0.6874 -0.1880
20684SOL    HW265645   9.455   2.942   9.957 -2.1140 -0.2622  2.4458
20685SOL     OW65646  11.022   2.146   6.634  0.4288 -0.0287  0.0743
20685SOL    HW165647  10.949   2.186   6.681 -0.2882  0.7603 -1.5978
20685SOL    HW265648  10.995   2.055   6.621  0.8876 -0.4127  1.6088
20686SOL     OW65649   9.772   5.345   2.354 -0.0657 -0.6188  0.3319
20686SOL    HW165650   9.714   5.374   2.284 -0.3439 -0.2451  0.7196
20686SOL    HW265651   9.843   5.410   2.355 -1.7758  1.4255  2.6447
20687SOL     OW65652   0.718   0.498   7.080  0.3126  0.2882 -0.4905
20687SOL    HW165653   0.680   0.517   7.166  0.2797 -0.9875 -0.2110
20687SOL    HW265654   0.661   0.544   7.018  0.6077  1.6070  0.1847
20688SOL     OW65655   9.109   6.386   2.909 -0.3033 -0.3233  0.3032
20688SOL    HW165656   9.201   6.389   2.880 -0.4011  0.1693  0.0240
20688SOL    HW265657   9.085   6.294   2.904  0.0466 -0.3996 -0.0505
20689SOL     OW65658   6.121   7.730   8.236 -0.1112  0.7262 -0.1106
20689SOL    HW165659   6.136   7.820   8.207  1.2184  0.8898  0.9999
20689SOL    HW265660   6.127   7.678   8.156  0.2188  1.5046 -0.6019
20690SOL     OW65661   0.672   8.477   3.691  0.2438  0.0399  0.0294
20690SOL    HW165662   0.754   8.520   3.667 -0.2020 -0.4447 -2.7414
20690SOL    HW265663   0.606   8.546   3.686  0.0559 -0.1860 -0.9183
20691SOL     OW65664   4.537   6.874   5.253  0.0221 -0.0605  0.3758
20691SOL    HW165665   4.602   6.922   5.305  0.3164 -1.3605  1.2936
20691SOL    HW265666   4.470   6.938   5.232  0.0595  0.6144  2.1195
20692SOL     OW65667   6.795   4.348   6.426  0.1875 -0.3861 -0.1062
20692SOL    HW165668   6.721   4.295   6.457 -0.3667 -0.5009 -1.5417
20692SOL    HW265669   6.831   4.387   6.505 -1.1014 -0.7246  0.6846
20693SOL     OW65670   5.657   6.634   1.813 -0.7224  0.5066 -0.1102
20693SOL    HW165671   5.678   6.622   1.720 -0.3253  1.4237 -0.1569
20693SOL    HW265672   5.678   6.550   1.854  0.3207  0.4926 -0.6428
20694SOL     OW65673  10.417  10.032  10.340  0.5103 -0.1090 -0.7378
20694SOL    HW165674  10.407  10.051  10.434 -0.9143  1.1426 -1.0936
20694SOL    HW265675  10.348   9.969  10.321 -0.8125  1.4356 -1.3617
20695SOL     OW65676  10.912   1.818   6.935  0.0814 -0.2906 -0.3001
20695SOL    HW165677  10.915   1.839   7.028  1.4114 -0.7404 -0.2322
20695SOL    HW265678  10.899   1.723   6.932 -0.7283 -0.1785 -0.5864
20696SOL     OW65679   3.197   7.499   9.576  0.0690 -0.2505 -0.1189
20696SOL    HW165680   3.275   7.448   9.555 -0.0079  0.2715 -1.8283
20696SOL    HW265681   3.188   7.560   9.503 -0.5923  1.3224  1.2190
20697SOL     OW65682   8.903   9.017   5.681  0.4538 -0.6065 -0.3693
20697SOL    HW165683   8.865   8.956   5.617 -2.2285  0.7570 -0.2018
20697SOL    HW265684   8.845   9.012   5.756  0.6748  1.4835 -0.0066
20698SOL     OW65685   7.438  10.221   6.359  0.4656  0.2499 -0.4416
20698SOL    HW165686   7.357  10.175   6.379  0.1605  1.3638  1.0108
20698SOL    HW265687   7.422  10.263   6.275  0.3638 -1.3498 -1.2584
20699SOL     OW65688   3.126   7.147   6.462 -0.1662 -0.1345  0.0372
20699SOL    HW165689   3.209   7.192   6.450 -1.4591  2.2250 -0.8237
20699SOL    HW265690   3.115   7.140   6.557  1.8507 -2.2842  0.1765
20700SOL     OW65691  10.082   3.132   7.286  0.3696 -0.0806  0.2542
20700SOL    HW165692   9.995   3.103   7.314 -0.1402  0.8783 -0.3027
20700SOL    HW265693  10.141   3.100   7.354 -0.1361 -2.5060 -0.3540
20701SOL     OW65694  10.588   7.585   6.839  0.3587  0.0512 -0.3115
20701SOL    HW165695  10.562   7.511   6.785  1.1341 -1.3683  1.1730
20701SOL    HW265696  10.653   7.549   6.900  0.9429  2.0068  0.3085
20702SOL     OW65697   1.148   1.466  10.296 -0.3785  0.0532  0.3470
20702SOL    HW165698   1.150   1.561  10.283  0.5901 -0.1062 -0.8672
20702SOL    HW265699   1.083   1.452  10.365  0.8391  1.7348  1.9106
20703SOL     OW65700   6.191   4.758   2.650  0.0455 -0.5727  0.2869
20703SOL    HW165701   6.166   4.676   2.692 -3.1853 -0.7170 -1.6059
20703SOL    HW265702   6.185   4.740   2.556  1.6125  1.2169 -0.2274
20704SOL     OW65703   5.571   8.010   3.154  0.2245 -0.0343  0.0542
20704SOL    HW165704   5.527   8.007   3.240 -1.9210 -2.2823 -0.9945
20704SOL    HW265705   5.663   7.994   3.174  0.2744  2.0998  2.1109
20705SOL     OW65706   4.588   8.061   3.676 -0.0175  0.1250  0.8983
20705SOL    HW165707   4.587   7.985   3.618 -0.8427 -1.1372  2.4572
20705SOL    HW265708   4.552   8.132   3.624  0.8131 -0.5160 -0.6260
20706SOL     OW65709   8.922   6.064   3.520 -0.0951 -0.0518  0.0294
20706SOL    HW165710   8.926   6.124   3.446  0.3234 -0.1815 -0.0574
20706SOL    HW265711   8.850   6.096   3.574  0.6440  1.0116  0.4089
20707SOL     OW65712   5.495   4.046  10.636 -0.0914  0.1563 -0.0131
20707SOL    HW165713   5.416   4.101  10.637 -0.9940 -0.9353 -2.4494
20707SOL    HW265714   5.469   3.965  10.678 -0.1353 -0.0295 -0.3935
20708SOL     OW65715  10.759   1.839  10.242  0.0309 -0.5627  0.2326
20708SOL    HW165716  10.673   1.851  10.200  0.8169  1.6959 -0.9144
20708SOL    HW265717  10.822   1.853  10.172  1.3661 -1.7097  1.1622
20709SOL     OW65718   6.818   4.868   1.589 -0.1878  0.3627 -0.5807
20709SOL    HW165719   6.736   4.829   1.560 -1.1911  0.5824  1.7189
20709SOL    HW265720   6.886   4.809   1.556 -1.2792 -0.1023 -2.0948
20710SOL     OW65721   3.023   9.091   9.456  0.0803  0.1473 -0.0363
20710SOL    HW165722   2.953   9.054   9.403 -0.0788  0.7885 -0.2775
20710SOL    HW265723   3.067   9.015   9.494 -0.7349 -0.2617  0.1079
20711SOL     OW65724  11.090   4.767   8.908 -0.4161  0.4529  0.4491
20711SOL    HW165725  11.148   4.692   8.894 -0.6441  0.3649 -0.0774
20711SOL    HW265726  11.148   4.839   8.931  0.0308  0.6153 -1.0385
20712SOL     OW65727   3.329  10.517   4.653 -0.1900  0.3104 -0.2713
20712SOL    HW165728   3.239  10.506   4.685 -0.6249  3.3596 -0.1360
20712SOL    HW265729   3.321  10.509   4.558 -0.6681  0.7993 -0.2794
20713SOL     OW65730   1.834   2.667   7.876 -0.3754  0.2184  0.2834
20713SOL    HW165731   1.789   2.644   7.794 -0.0719 -3.9076  1.0579
20713SOL    HW265732   1.927   2.654   7.857 -0.2868 -0.5658  1.1564
20714SOL     OW65733   8.251   1.944   9.475  0.0957  0.5397  0.6395
20714SOL    HW165734   8.310   1.884   9.430 -1.0358  0.5043 -0.8627
20714SOL    HW265735   8.256   2.025   9.425 -1.7103  0.2817 -0.0144
20715SOL     OW65736   1.690   0.262   1.176  0.0714  0.0425  0.2140
20715SOL    HW165737   1.762   0.267   1.239 -0.1429 -2.0468  0.7114
20715SOL    HW265738   1.701   0.177   1.133 -1.0183  0.5028 -1.0661
20716SOL     OW65739  10.715   1.606   9.081 -0.4748  0.2231 -0.2247
20716SOL    HW165740  10.623   1.629   9.067 -0.6018  0.1707  0.4791
20716SOL    HW265741  10.717   1.570   9.170  0.3166  0.6969 -0.0459
20717SOL     OW65742   1.756   6.063   9.940  0.0859 -0.1481 -0.0925
20717SOL    HW165743   1.690   6.091  10.003 -1.7459  2.8803 -3.0315
20717SOL    HW265744   1.712   5.999   9.885  0.8140 -0.8221  0.0900
20718SOL     OW65745   9.314   5.753   7.669  0.0917  0.1326 -0.9315
20718SOL    HW165746   9.399   5.795   7.674  0.3399 -0.5292  1.1181
20718SOL    HW265747   9.302   5.711   7.754 -2.3145  0.2611 -1.1295
20719SOL     OW65748   1.010   7.129   1.581 -0.2016  0.5846 -0.8203
20719SOL    HW165749   0.963   7.126   1.664 -0.1474  0.4655 -0.7936
20719SOL    HW265750   0.948   7.170   1.520 -0.8601 -0.7604 -1.1147
20720SOL     OW65751   9.837   7.963   3.180 -0.0005 -0.0302  0.0654
20720SOL    HW165752   9.844   8.057   3.163 -1.6710  0.8795  3.5113
20720SOL    HW265753   9.878   7.952   3.266 -1.1216 -2.2063  0.3687
20721SOL     OW65754   5.526   7.522   0.432  0.0049  0.0838 -0.2058
20721SOL    HW165755   5.621   7.507   0.424  0.1142  0.3691  0.4637
20721SOL    HW265756   5.487   7.452   0.380  0.5461 -1.4666  1.3552
20722SOL     OW65757   1.834   9.536   9.152 -0.1464  0.3658 -0.2190
20722SOL    HW165758   1.760   9.478   9.171  0.6076 -0.7965 -0.6674
20722SOL    HW265759   1.886   9.534   9.232 -0.1114  0.4014 -0.2408
20723SOL     OW65760   4.846   1.371   5.617  0.1416  0.3887  0.3903
20723SOL    HW165761   4.865   1.422   5.696  1.4609 -0.4640  0.6762
20723SOL    HW265762   4.873   1.428   5.545 -0.2637  0.8492  0.5994
20724SOL     OW65763   2.619   6.479   6.691 -0.3968  0.0068 -0.9030
20724SOL    HW165764   2.691   6.421   6.717 -1.9518 -1.7324 -0.2534
20724SOL    HW265765   2.645   6.566   6.723  1.1227 -0.6917 -0.1492
20725SOL     OW65766   6.801   9.603   2.716 -0.1501  0.1608  0.3729
20725SOL    HW165767   6.774   9.679   2.768 -0.6985  0.4760 -0.3583
20725SOL    HW265768   6.896   9.599   2.728 -0.0577  1.2178  0.0894
20726SOL     OW65769   9.389   1.716   9.261  0.4986 -0.5156  0.0299
20726SOL    HW165770   9.294   1.729   9.264  0.7543  1.4188  1.9485
20726SOL    HW265771   9.402   1.628   9.296 -0.5900 -1.1190 -0.9804
20727SOL     OW65772  10.410   0.157   1.812 -0.1278  0.0366  0.1953
20727SOL    HW165773  10.346   0.152   1.884 -1.2816 -0.2876 -0.8132
20727SOL    HW265774  10.364   0.118   1.737  2.2769 -3.0282  0.1007
20728SOL     OW65775   6.053   5.869  10.356 -0.1020 -0.4215 -0.7762
20728SOL    HW165776   6.077   5.942  10.299 -2.5974  0.3584 -0.9176
20728SOL    HW265777   5.984   5.823  10.309 -0.4970 -1.2419  0.5387
20729SOL     OW65778   5.539   9.317   0.265 -0.1580  0.3790  0.0599
20729SOL    HW165779   5.552   9.386   0.330  1.1882 -1.3679  1.7768
20729SOL    HW265780   5.626   9.279   0.254 -0.5930 -0.1256 -1.9364
20730SOL     OW65781   9.152   9.119   4.096 -0.3758  0.2109 -0.1384
20730SOL    HW165782   9.089   9.104   4.167 -0.1969 -0.3829 -0.1009
20730SOL    HW265783   9.146   9.040   4.042  1.0632 -0.3202  0.4301
20731SOL     OW65784   2.947   5.572   1.811 -0.2570 -0.0290 -0.2999
20731SOL    HW165785   2.984   5.660   1.821 -1.6111  0.4002  1.3262
20731SOL    HW265786   2.892   5.579   1.733 -0.6594  0.6974  0.0319
20732SOL     OW65787   1.672   7.023   4.559  0.6329 -0.1979  0.1200
20732SOL    HW165788   1.752   6.980   4.589  0.6389 -0.4926 -0.3025
20732SOL    HW265789   1.687   7.116   4.575  0.6841 -0.3336  0.8971
20733SOL     OW65790   6.130   8.845   1.290  0.0361  0.1485  0.6495
20733SOL    HW165791   6.207   8.789   1.300  0.9605  1.3311  0.3906
20733SOL    HW265792   6.068   8.813   1.356  2.3518  1.7458  3.8858
20734SOL     OW65793   4.315   3.566   2.089 -0.1363 -0.3657  0.0242
20734SOL    HW165794   4.219   3.574   2.087 -0.0378  1.0335 -0.7827
20734SOL    HW265795   4.331   3.482   2.131 -1.6982 -0.1232  1.2207
20735SOL     OW65796   9.480   9.366   9.394  0.0242  0.2295 -0.1162
20735SOL    HW165797   9.390   9.398   9.401  0.1329  0.3288  1.0031
20735SOL    HW265798   9.479   9.308   9.318 -0.5719  1.5584 -1.1687
20736SOL     OW65799   1.453   3.458   8.064  0.4108  0.4640  0.1598
20736SOL    HW165800   1.424   3.367   8.058  0.2616  0.5717 -0.9608
20736SOL    HW265801   1.538   3.454   8.106  0.9052 -0.3016 -0.8776
20737SOL     OW65802   7.084   5.870   3.618  0.0008 -0.0085 -0.0459
20737SOL    HW165803   7.100   5.835   3.530  0.3830 -0.4893  0.2067
20737SOL    HW265804   7.120   5.958   3.617  0.8573 -0.3540 -0.0938
20738SOL     OW65805   8.483   7.282   9.037 -0.0317 -0.0765 -0.2288
20738SOL    HW165806   8.505   7.375   9.025  0.4790 -0.1631  0.0237
20738SOL    HW265807   8.487   7.269   9.132 -0.1846 -0.3375 -0.2584
20739SOL     OW65808   9.609   7.572   2.729 -0.0574  0.2127 -0.3379
20739SOL    HW165809   9.679   7.511   2.753 -0.5834  0.2733  1.5706
20739SOL    HW265810   9.596   7.559   2.635  0.5857 -1.8164 -0.1918
20740SOL     OW65811   6.478   3.869   2.519  0.2922  0.2264 -0.4361
20740SOL    HW165812   6.486   3.925   2.596  1.6204 -0.1959 -0.2437
20740SOL    HW265813   6.394   3.824   2.530  0.0288  0.8752  0.2713
20741SOL     OW65814   5.751   4.879   7.846 -0.7533  0.0003 -0.5849
20741SOL    HW165815   5.696   4.942   7.892 -0.8771  0.1835 -0.9825
20741SOL    HW265816   5.837   4.921   7.843 -0.4637 -0.4801  0.4404
20742SOL     OW65817  10.144   0.905   2.954  0.0499 -0.7307 -0.0049
20742SOL    HW165818  10.141   0.811   2.971 -2.1224 -0.1739  3.6957
20742SOL    HW265819  10.187   0.942   3.031 -0.9218  1.4621 -0.4313
20743SOL     OW65820  10.278   4.683   7.562  0.1235 -0.1921  0.1223
20743SOL    HW165821  10.368   4.656   7.545  1.2305  1.0608  3.1984
20743SOL    HW265822  10.283   4.777   7.578 -2.3039  0.5304 -2.4788
20744SOL     OW65823   4.381   0.679   4.890  0.3709 -0.0433 -0.3443
20744SOL    HW165824   4.285   0.676   4.889  0.2917 -0.7168  2.1263
20744SOL    HW265825   4.402   0.757   4.941  1.3462  2.8629 -4.6458
20745SOL     OW65826   4.412   7.539   6.491 -0.2269 -0.1270 -0.1806
20745SOL    HW165827   4.443   7.572   6.407  1.5227  2.4673  1.3786
20745SOL    HW265828   4.374   7.453   6.470  2.4133 -0.7288 -3.2182
20746SOL     OW65829   4.928   2.532  10.546  0.0061 -0.2627  0.3774
20746SOL    HW165830   4.869   2.498  10.614  0.8802 -1.2197  0.6929
20746SOL    HW265831   4.951   2.620  10.576 -0.8850 -0.0586  0.4827
20747SOL     OW65832   0.801  10.503   8.754  0.3618  0.3706  0.3995
20747SOL    HW165833   0.762  10.502   8.842  0.1318 -0.7896  0.3028
20747SOL    HW265834   0.879  10.448   8.762  0.6840  0.7643  0.0164
20748SOL     OW65835   1.535   5.697   5.042  0.4021  0.7555 -0.1481
20748SOL    HW165836   1.515   5.620   5.096  1.1799  0.7217  0.0956
20748SOL    HW265837   1.482   5.684   4.963  0.6309 -0.1081 -0.1747
20749SOL     OW65838   2.762   8.484   8.030  0.1230 -0.5865  0.3386
20749SOL    HW165839   2.793   8.574   8.041 -0.8799  0.0811 -1.7554
20749SOL    HW265840   2.835   8.439   7.988 -0.1872 -0.1265 -0.7149
20750SOL     OW65841   4.408   0.779   8.712 -0.0628 -0.1286 -0.1009
20750SOL    HW165842   4.411   0.702   8.655 -0.1557  0.6634 -1.2218
20750SOL    HW265843   4.482   0.833   8.684 -1.1414  1.0908 -0.7024
20751SOL     OW65844   2.896   1.435   7.764 -0.3104 -0.1981  0.6129
20751SOL    HW165845   2.952   1.424   7.686  0.6440 -1.6184  1.4435
20751SOL    HW265846   2.864   1.524   7.758  1.3456  0.3833 -0.4056
20752SOL     OW65847   9.456   8.574   0.383 -0.2318  0.3420  0.4048
20752SOL    HW165848   9.438   8.647   0.442 -1.0133 -0.1361  0.7623
20752SOL    HW265849   9.382   8.515   0.394 -0.7998  0.5965 -1.6140
20753SOL     OW65850   8.175   6.359   9.610 -0.1868 -1.0460 -0.2806
20753SOL    HW165851   8.236   6.324   9.675  0.9214  3.5942  1.6258
20753SOL    HW265852   8.232   6.393   9.541 -0.5044  2.0591  0.8278
20754SOL     OW65853   6.453   3.731   7.004 -0.0059 -0.7381  0.6576
20754SOL    HW165854   6.405   3.807   7.037 -1.4352 -1.1777 -0.2818
20754SOL    HW265855   6.420   3.657   7.056  0.8568 -0.8288  1.0927
20755SOL     OW65856   8.555   5.407   0.610 -0.1089 -0.2323 -0.0044
20755SOL    HW165857   8.628   5.461   0.641  0.2924 -0.7414 -0.0275
20755SOL    HW265858   8.548   5.428   0.517 -0.4250  0.3041  0.1397
20756SOL     OW65859   3.969   7.134  10.997  0.2210 -0.1274 -0.5650
20756SOL    HW165860   3.960   7.088  10.913 -2.0764  0.5651 -0.7642
20756SOL    HW265861   3.917   7.083  11.058 -1.8655  1.7351 -0.6480
20757SOL     OW65862   0.180   5.971   0.088 -0.2576 -0.1552 -0.1663
20757SOL    HW165863   0.096   6.013   0.069 -0.5286  0.0470  1.3773
20757SOL    HW265864   0.212   6.015   0.167  1.4531 -0.0348 -0.8775
20758SOL     OW65865   0.178   7.884   5.580 -0.5471 -0.8051  0.0910
20758SOL    HW165866   0.107   7.929   5.534 -0.3098 -0.0871  0.3982
20758SOL    HW265867   0.248   7.878   5.515 -0.2808  0.0372  0.2800
20759SOL     OW65868   8.678  10.689   2.780 -0.1570 -0.4655  0.1704
20759SOL    HW165869   8.663  10.678   2.686  0.0243 -1.1864  0.2155
20759SOL    HW265870   8.771  10.711   2.786 -0.2156 -0.2176  0.1680
20760SOL     OW65871   9.185   8.816   1.865  0.3755 -0.2463 -0.3825
20760SOL    HW165872   9.145   8.901   1.881  1.4251  0.3945 -1.0191
20760SOL    HW265873   9.136   8.755   1.920 -1.2992  0.5236 -0.9705
20761SOL     OW65874  10.163   1.685   6.472  0.5241  0.4329  0.2627
20761SOL    HW165875  10.254   1.660   6.455 -0.0878 -0.5439 -1.9153
20761SOL    HW265876  10.141   1.636   6.552  1.1840 -1.3962 -0.5957
20762SOL     OW65877   3.938   3.066   5.212 -0.3883 -0.0400 -0.2455
20762SOL    HW165878   3.955   2.990   5.269  1.4552  1.7561  1.7787
20762SOL    HW265879   3.965   3.038   5.125  0.8029 -1.5484  0.5633
20763SOL     OW65880   4.986   8.675   8.918  0.0498  0.2268 -0.0191
20763SOL    HW165881   4.895   8.681   8.888 -1.2655 -0.5011  3.3069
20763SOL    HW265882   5.038   8.705   8.844 -2.8949  0.9040 -2.0003
20764SOL     OW65883   7.633   4.811   4.745 -0.0203  0.4383 -0.0890
20764SOL    HW165884   7.694   4.808   4.671  0.1699  1.0422  0.0300
20764SOL    HW265885   7.662   4.741   4.803  1.8777  1.9655  0.9357
20765SOL     OW65886   0.651  10.939   9.139  0.4390  0.9508  0.5742
20765SOL    HW165887   0.630  10.940   9.232  0.6056  0.3487  0.6203
20765SOL    HW265888   0.586  10.879   9.101  0.3251  1.2509  0.2922
20766SOL     OW65889   3.194   8.826   2.503  0.2581 -0.9609 -0.2492
20766SOL    HW165890   3.190   8.751   2.563 -1.3230 -1.4832 -0.9556
20766SOL    HW265891   3.149   8.796   2.424 -1.2518  1.0110 -0.2107
20767SOL     OW65892   3.547   9.348   5.396 -0.0785  0.5117 -0.0480
20767SOL    HW165893   3.588   9.265   5.372 -2.5250 -0.2878 -1.8384
20767SOL    HW265894   3.568   9.359   5.489  2.5256 -0.7038 -0.3981
20768SOL     OW65895   5.671   2.273   2.283 -0.0827 -0.0306 -0.1929
20768SOL    HW165896   5.634   2.194   2.323 -1.1776  0.8888  0.6589
20768SOL    HW265897   5.608   2.342   2.303  1.5340  1.3664  0.3249
20769SOL     OW65898   4.215   4.288   9.686  0.3342 -0.1882 -0.3532
20769SOL    HW165899   4.134   4.243   9.710  0.6393 -0.5883 -0.0433
20769SOL    HW265900   4.218   4.364   9.744  0.5474 -0.5846  0.1669
20770SOL     OW65901   9.911  11.090   7.373  0.2336  0.3624  0.6372
20770SOL    HW165902   9.990  11.059   7.329 -0.3678  1.0605 -1.0234
20770SOL    HW265903   9.853  11.015   7.374  1.1584 -0.3871  2.5782
20771SOL     OW65904   4.677   2.068   9.446  0.8231 -0.2365  0.3206
20771SOL    HW165905   4.601   2.125   9.433  1.0134 -0.2888 -1.1800
20771SOL    HW265906   4.738   2.121   9.497  0.7777  0.7296 -0.5909
20772SOL     OW65907   1.355   8.385   5.052  0.2307 -0.3615  0.3215
20772SOL    HW165908   1.425   8.349   4.997  1.0915  1.1148  0.3801
20772SOL    HW265909   1.398   8.406   5.135 -0.1998  0.8161  0.2680
20773SOL     OW65910   6.846  10.372   2.755  0.7195  0.5708  0.5817
20773SOL    HW165911   6.913  10.419   2.705  0.1119  0.3263 -0.4953
20773SOL    HW265912   6.769  10.430   2.753 -0.4178 -0.8617 -1.7496
20774SOL     OW65913   0.086   9.621   4.062  0.0623 -0.1618 -0.4720
20774SOL    HW165914   0.140   9.583   4.132  0.5627  0.6885 -0.3831
20774SOL    HW265915   0.149   9.656   4.000 -0.3766 -1.2078 -1.5497
20775SOL     OW65916   5.720   4.218   7.003  0.4641 -0.1296 -0.1054
20775SOL    HW165917   5.795   4.234   6.946  2.3196 -0.0211  2.2024
20775SOL    HW265918   5.737   4.131   7.041 -0.7847 -0.2723  0.1747
20776SOL     OW65919   5.434   0.073   9.948 -0.6203 -0.6507 -0.2040
20776SOL    HW165920   5.374   0.020   9.896  0.4803 -0.4209 -1.7663
20776SOL    HW265921   5.452   0.149   9.894  1.2631 -0.8358  0.1172
20777SOL     OW65922   3.270   5.591   4.655  0.2612 -0.2310  0.2788
20777SOL    HW165923   3.288   5.499   4.674  1.8729 -0.1324 -0.5925
20777SOL    HW265924   3.355   5.634   4.663 -0.6586  1.4158  1.8293
20778SOL     OW65925   2.930   7.259  10.321 -0.1710  0.4027  0.1641
20778SOL    HW165926   2.997   7.246  10.389 -0.3102  2.3174  0.7063
20778SOL    HW265927   2.854   7.210  10.353  0.0620  0.5266  0.9241
20779SOL     OW65928   5.774   6.475   2.502 -0.4605  0.2895  0.6251
20779SOL    HW165929   5.737   6.414   2.565 -2.0353 -0.1826 -0.6893
20779SOL    HW265930   5.787   6.556   2.552 -0.5180 -0.4240  1.8352
20780SOL     OW65931   5.102   1.168   9.624 -0.3358  0.0511  0.3337
20780SOL    HW165932   5.142   1.102   9.567 -2.8643 -1.4422  0.1287
20780SOL    HW265933   5.148   1.249   9.602  1.0928 -1.1202 -1.3381
20781SOL     OW65934   6.453  11.086   7.382 -0.2134  0.1251  0.1603
20781SOL    HW165935   6.487  11.102   7.470 -1.0648 -2.1901  0.9957
20781SOL    HW265936   6.403  11.005   7.390 -0.0631 -0.3292 -2.5428
20782SOL     OW65937  10.786   6.331   7.382  0.3439 -0.0983  0.2360
20782SOL    HW165938  10.759   6.340   7.290 -0.4911  0.4006  0.5192
20782SOL    HW265939  10.726   6.387   7.430 -0.4551 -1.7708  1.3081
20783SOL     OW65940   8.699   8.836   6.859 -0.0487  0.3796 -0.6101
20783SOL    HW165941   8.746   8.900   6.806  2.8212 -0.2904  0.9476
20783SOL    HW265942   8.753   8.757   6.857 -1.9113 -0.9988  0.0390
20784SOL     OW65943   8.812   5.449   2.869  0.6114  0.2534 -0.5015
20784SOL    HW165944   8.812   5.354   2.860 -0.8172  0.1592  0.2178
20784SOL    HW265945   8.905   5.472   2.875  0.9533 -1.2579  0.7888
20785SOL     OW65946   4.353   2.810  10.138  0.6806 -0.1160 -0.8572
20785SOL    HW165947   4.394   2.896  10.130  0.9979 -0.1096  0.6118
20785SOL    HW265948   4.385   2.762  10.062  0.4044  1.0855 -1.7715
20786SOL     OW65949   4.711   3.144   5.102 -0.5628  0.1580 -0.1242
20786SOL    HW165950   4.759   3.063   5.118 -1.6779 -0.4620  0.0958
20786SOL    HW265951   4.770   3.195   5.046  0.6544 -0.2861  0.7190
20787SOL     OW65952   6.118   4.403  10.656 -0.4915 -0.0350  0.2700
20787SOL    HW165953   6.119   4.497  10.638 -1.0420 -0.1132 -0.2171
20787SOL    HW265954   6.048   4.370  10.600 -0.7693 -0.6279  0.9665
20788SOL     OW65955   4.562   0.742   6.465 -0.8111 -0.1511 -0.4446
20788SOL    HW165956   4.477   0.729   6.421 -0.7724  1.3060 -1.0005
20788SOL    HW265957   4.544   0.806   6.533  0.0907  1.2200 -1.4433
20789SOL     OW65958   4.951   3.694   6.634  0.1085  0.0829  0.3001
20789SOL    HW165959   4.957   3.789   6.624  1.1636 -0.1514 -2.0091
20789SOL    HW265960   4.865   3.671   6.598 -0.1629  0.1610  0.8956
20790SOL     OW65961   9.902   5.189   1.248  0.1180  0.0068  0.4760
20790SOL    HW165962   9.972   5.128   1.223  0.2311  1.0071 -1.8606
20790SOL    HW265963   9.828   5.132   1.269 -0.4724 -1.1182 -3.7016
20791SOL     OW65964   6.972   5.617   5.217 -0.5501 -0.4605 -0.1504
20791SOL    HW165965   7.034   5.631   5.145 -0.5786  0.5869  0.0098
20791SOL    HW265966   6.918   5.696   5.217  0.3272  0.2126  1.8805
20792SOL     OW65967   7.926   6.558   0.951  0.0570 -0.8386  0.2197
20792SOL    HW165968   7.906   6.547   0.858 -0.0765 -1.1079  0.2801
20792SOL    HW265969   7.855   6.513   0.997  1.1021 -2.3691  0.4294
20793SOL     OW65970   4.247   1.314   6.554  0.1436  0.3230 -0.4926
20793SOL    HW165971   4.179   1.380   6.571  0.1434 -0.1215  1.4178
20793SOL    HW265972   4.317   1.334   6.616  1.5108  0.3714 -1.9923
20794SOL     OW65973   0.421   7.627   4.227  0.0072  0.1035  0.4052
20794SOL    HW165974   0.419   7.595   4.317 -2.6935  1.4996  0.9717
20794SOL    HW265975   0.424   7.722   4.235  1.3955  0.2281 -1.0570
20795SOL     OW65976   0.117   0.832   6.409 -0.3527  0.3586 -0.2739
20795SOL    HW165977   0.125   0.766   6.478  0.3970 -1.5904 -2.1287
20795SOL    HW265978   0.027   0.863   6.416 -0.8141 -1.0614  0.4872
20796SOL     OW65979   0.540  10.224   6.890  0.5398 -0.3201  0.0209
20796SOL    HW165980   0.543  10.128   6.884 -1.3196 -0.3256 -1.5309
20796SOL    HW265981   0.482  10.241   6.964  0.5064 -0.4013  0.0136
20797SOL     OW65982  10.978   2.060  10.554  0.3035 -0.3666 -0.1524
20797SOL    HW165983  10.926   1.984  10.581 -0.0669  0.4783  1.6795
20797SOL    HW265984  11.068   2.037  10.577  0.1819 -0.2458  0.4710
20798SOL     OW65985   3.066   1.221  10.013  0.6575  0.4723  0.3861
20798SOL    HW165986   3.083   1.236   9.920 -3.5433 -2.4510 -1.1795
20798SOL    HW265987   3.104   1.135  10.031 -0.0545  0.2351  0.8043
20799SOL     OW65988   8.171   4.300   5.237  0.5125 -0.0728  0.6725
20799SOL    HW165989   8.231   4.226   5.232  0.7606  0.2200 -1.1672
20799SOL    HW265990   8.084   4.260   5.238  0.6768 -0.4250  0.8484
20800SOL     OW65991   5.957   2.097   8.311  0.1310 -0.0212  0.1499
20800SOL    HW165992   5.972   2.003   8.325 -2.2699 -0.3169  1.3217
20800SOL    HW265993   5.933   2.131   8.397 -1.6553  1.0787 -0.7116
20801SOL     OW65994   0.664   5.118   9.315  0.4817  0.2435  0.4168
20801SOL    HW165995   0.747   5.088   9.277  0.2413  1.1373 -0.8787
20801SOL    HW265996   0.607   5.041   9.314  0.9807 -0.1308  0.4355
20802SOL     OW65997   4.980   4.148   1.452  0.5579  0.4216  0.2402
20802SOL    HW165998   5.061   4.160   1.403  0.1101  1.0136 -0.3849
20802SOL    HW265999   4.924   4.219   1.422 -0.5577 -0.5677 -0.0801
20803SOL     OW66000   1.361   6.132   7.109 -0.4343 -0.3101 -0.1947
20803SOL    HW166001   1.382   6.212   7.158  1.3881 -0.1484 -1.1628
20803SOL    HW266002   1.424   6.067   7.140 -1.0251 -1.0045 -0.4011
20804SOL     OW66003  10.735  11.074   4.705 -0.8823 -0.7593 -0.0775
20804SOL    HW166004  10.799  11.024   4.655 -1.0941 -0.6624 -0.4462
20804SOL    HW266005  10.779  11.092   4.789 -0.9263 -1.8293  0.1842
20805SOL     OW66006  10.927   4.826   6.719  0.1398  0.0989  0.3214
20805SOL    HW166007  10.866   4.863   6.654 -1.0613  1.6806  2.2329
20805SOL    HW266008  10.875   4.760   6.765 -0.1330  1.3250  1.8390
20806SOL     OW66009   0.488  10.026   4.718 -0.4046  0.4029  0.7445
20806SOL    HW166010   0.497  10.022   4.813 -1.9697  0.0329  0.9106
20806SOL    HW266011   0.409   9.974   4.699  1.7314 -2.4513 -1.1174
20807SOL     OW66012   0.226   6.872   5.121  0.3659 -0.0706  0.1209
20807SOL    HW166013   0.293   6.804   5.128 -1.2365 -1.5761  1.7831
20807SOL    HW266014   0.237   6.907   5.033  0.2890 -3.5920 -1.4616
20808SOL     OW66015   4.176   6.617   0.834 -0.0388 -0.4894  0.1274
20808SOL    HW166016   4.105   6.564   0.798  1.2146 -0.9353 -1.7948
20808SOL    HW266017   4.241   6.553   0.864  0.5832 -0.0817 -0.3142
20809SOL     OW66018  10.242   3.241   8.297 -0.1751 -0.8054 -0.8598
20809SOL    HW166019  10.235   3.146   8.286  0.8086 -1.2041  1.2580
20809SOL    HW266020  10.331   3.262   8.267 -0.5471 -0.4623 -1.7476
20810SOL     OW66021   5.329   5.502   9.909 -0.1908  0.6538 -0.0300
20810SOL    HW166022   5.275   5.555   9.968  0.9270 -0.1191  1.7605
20810SOL    HW266023   5.342   5.419   9.956  0.1619 -0.2747 -1.6873
20811SOL     OW66024   7.395   4.909   3.323  0.2584 -0.0429  0.3922
20811SOL    HW166025   7.491   4.914   3.322  0.2832 -0.5623  0.0074
20811SOL    HW266026   7.368   4.966   3.250  0.3436 -1.1833 -0.5559
20812SOL     OW66027  10.990   9.194   8.067 -0.2607 -0.5343  0.1254
20812SOL    HW166028  10.905   9.163   8.036 -1.6301  1.7499  1.3728
20812SOL    HW266029  11.054   9.149   8.011 -2.3337 -0.9783 -2.0131
20813SOL     OW66030   8.692   4.639   1.970  0.4599 -0.1654  0.2957
20813SOL    HW166031   8.724   4.643   2.060 -1.5883  0.1715  1.0628
20813SOL    HW266032   8.631   4.713   1.963  0.8833  0.0780 -1.5202
20814SOL     OW66033   6.516   3.861  10.138 -0.1438  0.1963 -0.2758
20814SOL    HW166034   6.605   3.827  10.148 -0.3515 -0.2194  0.2381
20814SOL    HW266035   6.460   3.784  10.147 -0.5336  0.3743 -1.1431
20815SOL     OW66036   4.835   3.254   7.638 -0.0003  1.0447  1.0313
20815SOL    HW166037   4.745   3.260   7.604 -0.1672 -1.0274  0.9738
20815SOL    HW266038   4.890   3.266   7.560 -0.3313 -0.9072  0.4399
20816SOL     OW66039   9.315   6.346   9.699 -0.1763  0.1482 -0.1136
20816SOL    HW166040   9.273   6.298   9.627 -0.2187  0.3077 -0.1966
20816SOL    HW266041   9.300   6.292   9.776  1.1489 -0.7680 -0.4697
20817SOL     OW66042   6.002   2.494   3.870  0.0273 -0.5022  0.3494
20817SOL    HW166043   5.927   2.538   3.831  0.6880 -2.3907 -3.5310
20817SOL    HW266044   6.078   2.527   3.822  1.1455 -1.9442  1.0170
20818SOL     OW66045   5.925   0.699   0.286  0.2104  0.0144  0.3302
20818SOL    HW166046   5.834   0.727   0.272 -0.7409 -2.1875  1.5305
20818SOL    HW266047   5.937   0.704   0.381  1.2014 -0.1452  0.2259
20819SOL     OW66048   7.058   1.971   4.229  0.1337 -0.0890 -0.4135
20819SOL    HW166049   7.004   2.032   4.280  0.5066  1.3211 -1.6207
20819SOL    HW266050   7.000   1.897   4.211 -0.6708  0.3652  0.2361
20820SOL     OW66051   1.335   6.617   4.661  0.5611  0.3941  0.6179
20820SOL    HW166052   1.327   6.709   4.639  1.1198  0.9559  2.5607
20820SOL    HW266053   1.266   6.601   4.726  0.4776 -0.5574  0.3186
20821SOL     OW66054   7.671   5.693   1.152  0.4170 -0.5712 -0.0877
20821SOL    HW166055   7.630   5.617   1.194  0.8301 -0.3275  0.7813
20821SOL    HW266056   7.685   5.666   1.061  1.3442 -1.8770  0.4074
20822SOL     OW66057   5.327   7.133   0.563  0.6611  0.3165 -0.3377
20822SOL    HW166058   5.289   7.221   0.554  1.3730  0.9506  2.0651
20822SOL    HW266059   5.266   7.076   0.517 -1.0460  1.8031 -0.0448
20823SOL     OW66060   9.802   7.085   6.221  0.7194 -0.4051 -0.2697
20823SOL    HW166061   9.887   7.043   6.235  0.0363 -1.3029  1.5837
20823SOL    HW266062   9.805   7.118   6.131  3.1862  0.0007 -0.0819
20824SOL     OW66063   6.849   5.594   6.143 -0.0007  0.1928 -0.4208
20824SOL    HW166064   6.841   5.633   6.230 -1.5855 -2.2578  0.6509
20824SOL    HW266065   6.836   5.667   6.082 -1.2958  1.5857  1.4131
20825SOL     OW66066   4.267  10.694   0.761 -0.3289  0.1766  0.2279
20825SOL    HW166067   4.276  10.655   0.674 -2.3578  1.7997 -0.7799
20825SOL    HW266068   4.325  10.770   0.759  1.6572 -1.2092  1.3027
20826SOL     OW66069   9.405   1.443   7.579 -0.0678 -0.1833  0.0381
20826SOL    HW166070   9.326   1.490   7.605  0.4086 -1.0387  3.4428
20826SOL    HW266071   9.373   1.362   7.539 -0.8374  1.1662 -2.3021
20827SOL     OW66072   0.622   7.800   3.370  0.0742 -0.8829  0.2920
20827SOL    HW166073   0.677   7.763   3.439 -0.6907 -0.9842  0.8576
20827SOL    HW266074   0.549   7.739   3.362 -0.3077 -0.3997  0.0254
20828SOL     OW66075  10.673   7.360   5.002 -0.0666  0.6661  0.3084
20828SOL    HW166076  10.755   7.352   5.052 -0.0186 -0.8088  0.0386
20828SOL    HW266077  10.661   7.454   4.991  0.3497  0.9933  2.3814
20829SOL     OW66078   2.651   3.008   0.105  0.0737  0.0067 -0.0361
20829SOL    HW166079   2.626   2.963   0.186  0.3651  2.4945  1.5330
20829SOL    HW266080   2.609   2.957   0.036 -3.2227 -0.2493  1.9212
20830SOL     OW66081   2.597   4.380   1.275  0.0738 -0.6128 -0.3791
20830SOL    HW166082   2.545   4.443   1.225  1.2197 -0.2429 -1.1418
20830SOL    HW266083   2.632   4.430   1.348 -2.5020 -1.3982  1.5635
20831SOL     OW66084   8.392   6.555  10.805 -0.0852  0.2639 -0.1243
20831SOL    HW166085   8.300   6.571  10.828  0.6087  2.7702  1.4157
20831SOL    HW266086   8.435   6.538  10.889  0.8062 -1.4922 -0.8830
20832SOL     OW66087   7.777   2.666   8.228  0.3700  0.1833 -0.1609
20832SOL    HW166088   7.847   2.686   8.165  0.1544 -0.3890 -0.5955
20832SOL    HW266089   7.769   2.745   8.281 -0.5495  1.3465 -1.9098
20833SOL     OW66090   2.292   5.914   6.871 -0.1994  0.0864  0.2608
20833SOL    HW166091   2.341   5.872   6.800  0.3642  2.0447 -0.5504
20833SOL    HW266092   2.355   5.924   6.942  0.1080  0.9958 -0.1339
20834SOL     OW66093  10.559   2.845   1.983  0.3533 -0.4423 -0.1810
20834SOL    HW166094  10.516   2.759   1.986 -0.6391  0.0139 -0.8965
20834SOL    HW266095  10.630   2.838   2.047  0.5924 -1.9618 -0.5654
20835SOL     OW66096   8.129  10.482  10.729 -0.4149  0.0546  0.1269
20835SOL    HW166097   8.100  10.559  10.679 -0.1113  0.2617  0.2613
20835SOL    HW266098   8.218  10.465  10.696 -0.0654  0.4233  0.8513
20836SOL     OW66099   7.170   4.227   1.908  0.5841 -0.3577  0.6810
20836SOL    HW166100   7.171   4.202   2.000 -0.9048 -0.5448  0.6715
20836SOL    HW266101   7.105   4.168   1.868 -0.0939  0.8865 -0.1201
20837SOL     OW66102   1.754   8.503   0.115  0.3254  0.2016  0.0010
20837SOL    HW166103   1.839   8.460   0.116 -0.7924 -2.3555 -1.9489
20837SOL    HW266104   1.700   8.452   0.176 -0.6277 -0.2863 -1.2040
20838SOL     OW66105   3.894   2.323   6.735 -0.2678 -0.3519 -0.7219
20838SOL    HW166106   3.932   2.385   6.673 -1.0032  0.3619 -0.4768
20838SOL    HW266107   3.886   2.374   6.816 -0.0419 -1.0413 -0.2609
20839SOL     OW66108   4.842   3.291  10.649  0.3985  0.2408  0.1396
20839SOL    HW166109   4.786   3.369  10.653 -0.3693 -0.3384  1.3428
20839SOL    HW266110   4.872   3.278  10.739  1.4168 -0.2281 -0.2505
20840SOL     OW66111   1.995   0.132   8.673  0.1569  0.1234  0.1532
20840SOL    HW166112   1.946   0.059   8.712  1.6594  0.2595  2.4692
20840SOL    HW266113   2.004   0.107   8.581 -2.9175 -0.5802 -0.0533
20841SOL     OW66114   8.974   3.772   0.320  0.9183  0.2767 -0.2339
20841SOL    HW166115   9.003   3.743   0.406 -0.0484 -2.8703 -0.8443
20841SOL    HW266116   9.054   3.791   0.272  1.5029  0.9524  0.9773
20842SOL     OW66117   9.246   4.790   1.187  0.3563  0.1750 -0.4684
20842SOL    HW166118   9.160   4.751   1.169  0.9263 -1.9973  1.0389
20842SOL    HW266119   9.226   4.874   1.227 -0.9722  1.1351 -2.9212
20843SOL     OW66120   4.777   6.368   3.431 -0.4678 -0.1451 -0.5041
20843SOL    HW166121   4.725   6.379   3.510  0.0022  0.4521 -0.2712
20843SOL    HW266122   4.856   6.321   3.459 -0.0267  0.5791 -0.4915
20844SOL     OW66123   3.042   1.257   3.391 -0.1975 -0.4412  0.1922
20844SOL    HW166124   3.106   1.317   3.352 -0.6623  0.2343  0.4472
20844SOL    HW266125   3.089   1.175   3.401  0.5375 -0.0418  0.0859
20845SOL     OW66126   4.297   8.452   8.145 -0.1954 -0.1747 -0.4422
20845SOL    HW166127   4.239   8.409   8.207  0.7199 -1.4064 -0.4160
20845SOL    HW266128   4.352   8.382   8.110  0.1336  0.6943 -1.7276
20846SOL     OW66129   7.284   3.942   1.997  0.1839 -0.2938  0.1849
20846SOL    HW166130   7.276   3.880   1.925  0.8347 -0.7967  0.5364
20846SOL    HW266131   7.332   4.016   1.961  0.0631 -0.3210 -0.0310
20847SOL     OW66132   9.544   1.974   2.036  0.2093 -0.4133  0.2532
20847SOL    HW166133   9.534   1.903   2.100 -1.3146 -1.7888 -1.4038
20847SOL    HW266134   9.456   2.011   2.026  1.0833  2.3240  1.6264
20848SOL     OW66135  10.942  11.036   8.873 -0.3750  0.5724 -0.0156
20848SOL    HW166136  10.913  10.985   8.949 -0.1381  0.9870  0.3568
20848SOL    HW266137  10.893  11.118   8.880  0.1078  0.8564  0.0313
20849SOL     OW66138   7.342   0.370   8.788  0.0137 -0.6883  0.3098
20849SOL    HW166139   7.413   0.329   8.738  0.5681 -3.8755  3.3125
20849SOL    HW266140   7.268   0.311   8.777 -1.5737  1.4413 -1.0037
20850SOL     OW66141   8.016   2.736   0.460 -0.5325  0.7652 -1.1062
20850SOL    HW166142   8.097   2.686   0.457 -1.1168 -0.5802  1.6349
20850SOL    HW266143   7.947   2.671   0.444 -1.1368  1.7454 -2.6643
20851SOL     OW66144   4.274   4.004   0.409  0.2397  0.2559  0.2541
20851SOL    HW166145   4.191   3.967   0.438  0.3421 -0.5049 -0.3806
20851SOL    HW266146   4.254   4.095   0.386 -0.5829 -0.1141 -0.5604
20852SOL     OW66147   8.065   8.504   3.952 -0.2236  0.0044  0.2387
20852SOL    HW166148   8.031   8.483   3.865  1.5869  1.6309 -0.9622
20852SOL    HW266149   8.028   8.590   3.972  1.5027  0.9178 -0.2424
20853SOL     OW66150   5.362   3.773   8.549  0.8412  0.1166 -0.0758
20853SOL    HW166151   5.455   3.757   8.563  0.6655  0.2364  1.5041
20853SOL    HW266152   5.321   3.688   8.565  0.5364  0.4803  1.2542
20854SOL     OW66153   3.528   9.867   8.532 -0.3022 -0.4795 -0.0086
20854SOL    HW166154   3.529   9.891   8.439 -1.7407 -0.8767 -0.1626
20854SOL    HW266155   3.437   9.882   8.559 -0.1353 -1.2804  1.0810
20855SOL     OW66156   0.349   5.861   8.614 -0.4060  0.5805  0.2272
20855SOL    HW166157   0.317   5.772   8.596 -1.1081  1.0583 -0.9993
20855SOL    HW266158   0.387   5.855   8.701  0.8442 -1.2716 -0.3870
20856SOL     OW66159   8.172   7.670  10.375 -0.9244  0.0571 -0.1369
20856SOL    HW166160   8.122   7.745  10.408  1.2237  1.4892  0.0585
20856SOL    HW266161   8.180   7.611  10.451  1.2722  1.8494  1.1538
20857SOL     OW66162   9.220   3.112   9.079 -0.3941 -0.8602  0.3433
20857SOL    HW166163   9.311   3.100   9.051 -0.4367 -0.1821 -0.1363
20857SOL    HW266164   9.181   3.025   9.073  0.2705 -1.1924  0.7308
20858SOL     OW66165   2.466   9.393   0.901 -0.2235  0.0437 -0.1868
20858SOL    HW166166   2.505   9.473   0.935  2.5325 -1.8359  1.5080
20858SOL    HW266167   2.507   9.381   0.815 -0.8333  0.5237 -0.5571
20859SOL     OW66168   3.400   2.472   6.788 -0.1977  0.6544 -0.1929
20859SOL    HW166169   3.405   2.393   6.842  0.5451  1.4950  1.0171
20859SOL    HW266170   3.491   2.493   6.768 -0.4669  0.1852 -2.0893
20860SOL     OW66171   5.543   5.134   1.462 -0.4693 -0.5567  0.4552
20860SOL    HW166172   5.592   5.199   1.512 -0.2904 -0.1677 -0.2038
20860SOL    HW266173   5.502   5.184   1.392  1.3474 -1.3874 -1.3403
20861SOL     OW66174   4.915   4.861   7.030  0.1970  0.2011  0.1669
20861SOL    HW166175   4.977   4.804   7.076  2.9318  3.3292  0.7206
20861SOL    HW266176   4.853   4.888   7.097  0.2304 -0.3445  0.4254
20862SOL     OW66177   6.856   4.995   0.273  0.2087  0.0983 -0.2944
20862SOL    HW166178   6.907   4.976   0.195 -0.7211 -0.5614 -0.7646
20862SOL    HW266179   6.782   5.048   0.242 -1.3158 -1.8801 -0.2852
20863SOL     OW66180   0.066   5.093   4.491  0.4440  0.1054  0.2571
20863SOL    HW166181   0.019   5.043   4.424 -1.0772 -1.1149  2.1076
20863SOL    HW266182   0.111   5.026   4.543  1.4264  0.9975  0.5784
20864SOL     OW66183   1.030   0.832   0.142  0.0568  0.6145 -0.0137
20864SOL    HW166184   1.044   0.759   0.082  1.6074  0.8164  0.0744
20864SOL    HW266185   0.978   0.895   0.092 -1.3542 -0.5310 -0.0727
20865SOL     OW66186   2.611   8.408   0.097 -0.4672 -0.4107  0.0135
20865SOL    HW166187   2.626   8.410   0.003 -0.0727 -0.5793  0.0713
20865SOL    HW266188   2.561   8.327   0.111 -1.0638 -0.0720 -0.1245
20866SOL     OW66189   1.560   1.962   4.659 -0.4865  0.6495 -0.3894
20866SOL    HW166190   1.482   1.960   4.604  1.0404 -1.0272 -2.7191
20866SOL    HW266191   1.627   1.918   4.607  1.6860  0.8155  2.0379
20867SOL     OW66192   7.811   0.185  11.085 -0.2251  0.2842  1.0142
20867SOL    HW166193   7.902   0.215  11.084 -0.2736  0.4632 -0.7928
20867SOL    HW266194   7.817   0.090  11.088  0.0459  0.2656  0.0275
20868SOL     OW66195   4.012   9.043   7.372 -0.4441  0.1175  0.1706
20868SOL    HW166196   4.050   9.067   7.456 -3.1869  2.5576  0.8702
20868SOL    HW266197   3.985   8.951   7.383  0.3607  0.0144  1.4733
20869SOL     OW66198   4.663   8.353   4.593 -0.0450  0.5023 -0.2315
20869SOL    HW166199   4.636   8.444   4.608 -0.0538  0.4161  0.2947
20869SOL    HW266200   4.730   8.359   4.525 -3.1157  0.5061 -3.5533
20870SOL     OW66201   4.232   5.280   8.223  0.1319  0.4085 -0.3187
20870SOL    HW166202   4.271   5.221   8.158  0.4187  1.0373 -0.7398
20870SOL    HW266203   4.180   5.341   8.170 -0.6829  0.1323  0.1647
20871SOL     OW66204   2.903   3.075   0.002  0.1907  0.0062  0.5382
20871SOL    HW166205   2.810   3.055   0.013  0.4985 -1.2014  1.1150
20871SOL    HW266206   2.915   3.079  -0.093 -0.0738 -1.8386  0.3903
20872SOL     OW66207   0.828   2.678   7.488  0.3002 -0.4295 -0.1908
20872SOL    HW166208   0.909   2.628   7.481 -0.7278 -2.5160  1.5537
20872SOL    HW266209   0.765   2.629   7.435 -0.2604  0.1674 -0.0867
20873SOL     OW66210   7.771   7.155   0.290 -0.0945 -0.0104  0.0243
20873SOL    HW166211   7.685   7.124   0.259 -0.1924 -0.8446  1.0914
20873SOL    HW266212   7.834   7.102   0.242 -0.2379 -0.9907  0.8927
20874SOL     OW66213   7.969   3.820   5.359 -0.0950  0.3744 -0.5120
20874SOL    HW166214   8.028   3.749   5.384  1.7903  1.6669 -1.0957
20874SOL    HW266215   7.937   3.794   5.272  0.2855  0.0525 -0.5589
20875SOL     OW66216   7.213   6.522   5.339  0.2462 -0.2611 -0.6595
20875SOL    HW166217   7.217   6.512   5.244 -0.2389  1.0409 -0.8344
20875SOL    HW266218   7.122   6.544   5.358  0.7318  1.5509 -0.1419
20876SOL     OW66219   6.451   8.274   2.785 -0.1953  0.1538  0.3838
20876SOL    HW166220   6.512   8.271   2.859  0.6804  0.9074 -0.2898
20876SOL    HW266221   6.487   8.340   2.727 -0.7604 -0.5722 -0.8271
20877SOL     OW66222   1.776   4.662   3.443  0.1849 -0.2375 -0.0864
20877SOL    HW166223   1.825   4.612   3.378 -0.1325  0.2948 -0.7551
20877SOL    HW266224   1.824   4.745   3.451  0.1833 -0.2715  0.3102
20878SOL     OW66225   3.055   6.659  10.301  0.3203  0.3200 -0.0672
20878SOL    HW166226   3.106   6.599  10.247  0.8570  0.6684  0.0514
20878SOL    HW266227   3.024   6.726  10.240 -0.0003  0.1135 -0.1369
20879SOL     OW66228   5.608   6.552   5.825 -0.0563 -0.5983 -0.1914
20879SOL    HW166229   5.567   6.626   5.870 -1.6341 -0.7207 -1.3021
20879SOL    HW266230   5.687   6.534   5.874  0.0978  1.4928  0.4242
20880SOL     OW66231  10.482   2.398   5.365 -0.7379 -0.1867 -0.1388
20880SOL    HW166232  10.526   2.436   5.441 -0.4163 -1.9362  0.6187
20880SOL    HW266233  10.544   2.334   5.331 -1.1450  0.1121 -1.4953
20881SOL     OW66234   7.968   1.306   8.781  0.4509  0.1325 -0.7410
20881SOL    HW166235   8.023   1.229   8.796 -0.2135 -0.0464  0.9438
20881SOL    HW266236   7.914   1.282   8.706  0.2401 -1.0534 -0.2271
20882SOL     OW66237   9.555   7.066  10.565  0.4200  0.2101  0.3452
20882SOL    HW166238   9.489   6.998  10.577 -1.0608  1.4724 -0.1791
20882SOL    HW266239   9.507   7.148  10.579  2.2718  1.1460  1.5896
20883SOL     OW66240   2.167   7.340   8.509  0.1212  0.0355 -0.1609
20883SOL    HW166241   2.150   7.246   8.503  1.1151 -0.1108 -0.9073
20883SOL    HW266242   2.144   7.374   8.423  0.5234  0.3441 -0.1480
20884SOL     OW66243   3.437  11.069   1.098 -0.1627 -0.5375 -0.0658
20884SOL    HW166244   3.514  11.049   1.151 -0.3457 -1.0655  0.0054
20884SOL    HW266245   3.379  11.118   1.157  0.0916 -0.1844 -0.1047
20885SOL     OW66246   2.945   9.665   8.809 -0.0004  0.3640  0.1652
20885SOL    HW166247   2.866   9.612   8.798  0.1442  0.0789  0.4877
20885SOL    HW266248   2.953   9.713   8.727  0.2822 -0.6752 -0.4275
20886SOL     OW66249   5.607   2.972   8.044  0.1997 -0.3592  0.3800
20886SOL    HW166250   5.528   2.947   8.092  0.1654 -1.0945 -0.0504
20886SOL    HW266251   5.656   3.026   8.106 -0.1953 -0.6759  0.9855
20887SOL     OW66252   9.532   0.579   9.820 -0.0517 -0.7055 -0.8893
20887SOL    HW166253   9.474   0.654   9.812  0.0639 -0.6265 -0.9810
20887SOL    HW266254   9.486   0.507   9.777  0.8654 -0.1305 -2.9389
20888SOL     OW66255   6.802   8.262   4.284  0.4831 -0.2385 -0.1701
20888SOL    HW166256   6.854   8.184   4.265 -0.7557 -1.4628  1.2127
20888SOL    HW266257   6.712   8.236   4.265 -0.0040  0.6998  0.7212
20889SOL     OW66258   7.720   0.178   9.395 -0.4528  0.4478  0.0099
20889SOL    HW166259   7.688   0.103   9.445 -3.6553  1.1461 -0.7621
20889SOL    HW266260   7.764   0.233   9.460 -1.7842 -0.1130  1.4507
20890SOL     OW66261   3.961  10.782   9.935  0.4277  1.0065  0.1954
20890SOL    HW166262   4.026  10.820   9.996  3.0111 -0.5398 -1.3910
20890SOL    HW266263   3.972  10.688   9.945 -2.2388  0.6591  0.4056
20891SOL     OW66264   4.428  10.095   0.820  0.1537  0.2536  0.0482
20891SOL    HW166265   4.355  10.158   0.818  0.6534  0.8902  1.1084
20891SOL    HW266266   4.507  10.150   0.816  0.6454 -0.4718 -2.7601
20892SOL     OW66267   7.277   8.688   5.581  0.1153 -0.1408 -0.1905
20892SOL    HW166268   7.324   8.762   5.619  1.8209 -0.4923 -1.4893
20892SOL    HW266269   7.218   8.658   5.650  1.1903  0.8696  1.2123
20893SOL     OW66270   9.285   1.812   6.759 -0.1264  0.3674 -0.3738
20893SOL    HW166271   9.293   1.725   6.798  0.4928 -0.3646 -2.0386
20893SOL    HW266272   9.375   1.842   6.749 -0.3285  1.0612 -0.1111
20894SOL     OW66273   0.909   7.779   9.462  0.3048 -0.1469 -0.4672
20894SOL    HW166274   0.914   7.772   9.367  0.8076  0.1255 -0.4624
20894SOL    HW266275   0.976   7.843   9.486  0.1242 -0.1467  0.0623
20895SOL     OW66276   2.799   7.787   4.121 -0.0238  0.1335  0.4739
20895SOL    HW166277   2.826   7.802   4.030 -1.0805 -0.5258  0.0225
20895SOL    HW266278   2.731   7.852   4.137  0.5390  0.6017  0.9823
20896SOL     OW66279   9.653   8.573   8.667 -0.5012 -0.2327  0.4619
20896SOL    HW166280   9.602   8.554   8.745  0.5486 -1.1322  0.9591
20896SOL    HW266281   9.742   8.588   8.699 -0.0632 -0.5613 -0.5543
20897SOL     OW66282   1.286   8.133   8.709  0.0708  0.0058  0.5531
20897SOL    HW166283   1.274   8.138   8.804  0.6110  0.5288  0.6044
20897SOL    HW266284   1.367   8.083   8.699 -1.5783 -2.8239  0.2464
20898SOL     OW66285   5.998   4.675   8.534 -0.3803 -0.0066  0.3280
20898SOL    HW166286   5.955   4.650   8.452 -0.2420 -1.0705  0.5601
20898SOL    HW266287   6.048   4.597   8.559  2.3035  1.3918 -0.3053
20899SOL     OW66288   5.625   3.565   7.629  0.1790  0.0511 -1.0227
20899SOL    HW166289   5.625   3.656   7.599 -1.0152  0.1407 -0.8002
20899SOL    HW266290   5.533   3.540   7.629 -0.7901  1.3484  6.1756
20900SOL     OW66291   6.498   1.487   2.950  0.3327 -0.1659 -0.1693
20900SOL    HW166292   6.475   1.506   2.859 -0.3342  0.5786  0.1409
20900SOL    HW266293   6.567   1.421   2.944  0.4651  0.0473 -1.2190
20901SOL     OW66294   7.004   9.686   5.430 -0.1399 -0.0367  0.6120
20901SOL    HW166295   7.000   9.702   5.525  0.3363  2.0929  0.3275
20901SOL    HW266296   7.096   9.667   5.413  0.0177  0.7957  0.4512
20902SOL     OW66297   4.554   7.080   5.826 -0.1095  0.6196  0.0299
20902SOL    HW166298   4.553   6.999   5.776 -2.8001  1.2295 -1.0778
20902SOL    HW266299   4.505   7.059   5.906  0.6187  0.7463  0.5200
20903SOL     OW66300   5.411   0.823   3.935  0.3176  0.0356  0.2804
20903SOL    HW166301   5.337   0.806   3.993 -0.6488  2.3608 -0.1526
20903SOL    HW266302   5.425   0.917   3.941  1.9150 -0.0544 -1.2298
20904SOL     OW66303   6.664   2.164   8.902  0.4140  0.2254  0.0862
20904SOL    HW166304   6.606   2.121   8.964  0.0896 -0.9600 -0.9961
20904SOL    HW266305   6.746   2.115   8.907 -0.2796 -1.2855 -1.8858
20905SOL     OW66306   8.797   0.559   8.258  0.3011  0.0070  0.2409
20905SOL    HW166307   8.808   0.605   8.342  0.7930  0.1375  0.1049
20905SOL    HW266308   8.709   0.584   8.229  1.1234  2.1249 -0.5855
20906SOL     OW66309  10.426   0.030   7.631 -0.2536  0.1466 -0.2856
20906SOL    HW166310  10.453   0.100   7.690 -0.1381 -1.0601  1.1428
20906SOL    HW266311  10.445   0.064   7.543 -1.4409  2.4110  0.2645
20907SOL     OW66312   4.829   2.478   3.237  0.0623  0.7468  0.1119
20907SOL    HW166313   4.900   2.489   3.301 -0.4961 -0.2706  0.9419
20907SOL    HW266314   4.870   2.495   3.153  0.9611  1.5636  0.6950
20908SOL     OW66315   4.663   2.681   7.860  0.5049  0.4290 -0.5820
20908SOL    HW166316   4.618   2.696   7.777 -1.3555 -0.9675  0.1016
20908SOL    HW266317   4.644   2.758   7.913 -1.3010 -0.1946 -0.2588
20909SOL     OW66318  10.339   6.511   4.014  0.0905  0.2043 -0.5475
20909SOL    HW166319  10.324   6.604   4.002  0.2847  0.1954 -0.8650
20909SOL    HW266320  10.412   6.491   3.955  0.7348  0.0683  0.2674
20910SOL     OW66321   9.588   2.565   5.089 -0.1383 -0.4413 -0.0113
20910SOL    HW166322   9.557   2.647   5.050  1.3526 -0.6295 -1.7613
20910SOL    HW266323   9.578   2.577   5.183 -0.1657  1.6847 -0.2419
20911SOL     OW66324  11.041   6.042   1.604  0.5368  0.0012 -0.3161
20911SOL    HW166325  11.089   6.121   1.577 -0.0793  1.1867  1.7955
20911SOL    HW266326  11.104   5.993   1.657  0.8675 -0.8921 -1.4981
20912SOL     OW66327  10.513   8.150   5.246 -0.3302 -0.1099 -0.9482
20912SOL    HW166328  10.454   8.212   5.204 -0.9034 -0.0094 -0.0183
20912SOL    HW266329  10.598   8.195   5.247 -0.7008  0.5938 -0.4374
20913SOL     OW66330   9.436   5.694   0.734 -0.2715 -0.2502 -0.6049
20913SOL    HW166331   9.490   5.756   0.686  0.2015 -0.3243 -0.1701
20913SOL    HW266332   9.423   5.621   0.673  2.4649 -1.5377  0.2128
20914SOL     OW66333   3.302   8.996   5.165 -0.8556 -0.1087 -0.0503
20914SOL    HW166334   3.381   8.971   5.212 -0.8142 -0.3383 -0.2444
20914SOL    HW266335   3.290   9.089   5.186 -0.3284  0.0247 -0.3280
20915SOL     OW66336   1.629   9.696   8.210  0.4017 -0.5275  0.1609
20915SOL    HW166337   1.666   9.641   8.279 -0.8191 -0.0474  1.2456
20915SOL    HW266338   1.605   9.777   8.255 -1.9667 -0.8213 -0.4279
20916SOL     OW66339   2.248   7.491   4.693 -0.1848 -0.6541 -0.0807
20916SOL    HW166340   2.293   7.407   4.687  2.0321  0.3151  1.5948
20916SOL    HW266341   2.194   7.483   4.772 -0.7742 -0.8389 -0.4978
20917SOL     OW66342   7.748   5.583   7.559  0.0397  0.3813  0.2361
20917SOL    HW166343   7.826   5.528   7.557  0.6876  1.2086  1.1410
20917SOL    HW266344   7.677   5.524   7.585  0.5034 -0.2462  0.0916
20918SOL     OW66345   3.108   9.779   8.146 -0.4101 -0.4413  0.3963
20918SOL    HW166346   3.187   9.738   8.180  0.7113 -0.9429 -2.4822
20918SOL    HW266347   3.135   9.869   8.123 -0.4813 -0.7491 -1.0102
20919SOL     OW66348   2.463   0.571  11.014  0.2331 -0.3831 -0.0570
20919SOL    HW166349   2.537   0.626  10.988  0.5427 -1.3715 -1.3178
20919SOL    HW266350   2.498   0.482  11.015 -0.5526 -0.6918  0.8624
20920SOL     OW66351   7.992   0.214   3.635  0.4555  0.3374 -0.0051
20920SOL    HW166352   7.898   0.232   3.645 -0.0918 -1.9486 -0.5893
20920SOL    HW266353   8.022   0.281   3.574 -0.6942  1.3072  0.4255
20921SOL     OW66354   1.761   0.371   2.949 -0.3778  0.0584 -0.4245
20921SOL    HW166355   1.835   0.410   2.902 -0.2348 -0.5240 -0.7046
20921SOL    HW266356   1.766   0.407   3.037 -0.0567  0.4092 -0.5830
20922SOL     OW66357   5.127   9.454   8.338 -0.1179 -0.0486 -0.5953
20922SOL    HW166358   5.160   9.387   8.278  1.4355  1.1469 -1.1511
20922SOL    HW266359   5.205   9.505   8.362 -0.9763  0.5061  1.1731
20923SOL     OW66360   3.755  10.569   2.825  0.0655  0.1532 -0.1635
20923SOL    HW166361   3.850  10.566   2.819  0.0651 -1.8067  0.2029
20923SOL    HW266362   3.726  10.481   2.804 -1.6224  0.4542  0.6609
20924SOL     OW66363   0.765  10.606   1.806  0.3045 -0.5058 -0.0726
20924SOL    HW166364   0.728  10.693   1.790 -0.2535 -0.7976 -0.4217
20924SOL    HW266365   0.689  10.548   1.809  0.5108 -0.7318  2.0674
20925SOL     OW66366  10.377   6.874   1.492  0.0543  0.5150 -0.5400
20925SOL    HW166367  10.308   6.832   1.441 -0.2961  0.1232  0.2292
20925SOL    HW266368  10.335   6.894   1.576  1.4864 -1.9368  0.8642
20926SOL     OW66369   7.177   5.402   9.301  0.5769 -0.6447  0.2131
20926SOL    HW166370   7.224   5.321   9.322 -1.9270 -1.7204  2.1239
20926SOL    HW266371   7.105   5.374   9.244  0.3236  0.4182 -0.0070
20927SOL     OW66372   7.844   6.547   7.784 -0.4605  0.6266 -0.6756
20927SOL    HW166373   7.761   6.528   7.827 -0.0207 -0.1628 -0.1265
20927SOL    HW266374   7.895   6.593   7.851  0.4901 -1.2374 -0.0449
20928SOL     OW66375   0.291   7.099   7.777  0.5470 -0.1368  0.4987
20928SOL    HW166376   0.216   7.085   7.834  0.8341  1.1104  1.2078
20928SOL    HW266377   0.330   7.012   7.766  0.2002 -0.4654  1.7966
20929SOL     OW66378   4.313   5.321   0.657 -0.0980  0.3741  0.3886
20929SOL    HW166379   4.349   5.395   0.704  0.6877  0.7653 -0.7908
20929SOL    HW266380   4.285   5.260   0.725  0.6613  1.0806  1.3503
20930SOL     OW66381   5.508   9.081   5.706 -0.2112  0.2436 -0.2189
20930SOL    HW166382   5.526   9.039   5.790  0.7756  0.4959 -0.2958
20930SOL    HW266383   5.441   9.147   5.725  0.7518  1.0063  0.5754
20931SOL     OW66384   2.374   1.312   7.749  0.7870 -0.1871 -0.4314
20931SOL    HW166385   2.451   1.316   7.693 -0.1823  1.3967 -1.7597
20931SOL    HW266386   2.302   1.337   7.691 -0.5599 -0.5233  1.0486
20932SOL     OW66387   8.786  10.367   3.109  0.1998 -0.2098 -0.0044
20932SOL    HW166388   8.871  10.383   3.067  0.1080 -1.0812 -0.5434
20932SOL    HW266389   8.722  10.380   3.039 -0.1752  1.0391  0.5445
20933SOL     OW66390   9.319  10.992   9.483  0.0880 -0.6285  0.1820
20933SOL    HW166391   9.353  10.943   9.407 -0.0022 -1.2330  0.5214
20933SOL    HW266392   9.349  10.941   9.559 -1.5435 -1.1840  0.5021
20934SOL     OW66393   3.293   5.302   9.754  0.2844 -0.4903  0.1282
20934SOL    HW166394   3.290   5.397   9.742  1.5599 -0.0349  2.6343
20934SOL    HW266395   3.381   5.277   9.725 -0.1173 -0.9637 -0.7152
20935SOL     OW66396   7.676  10.369   7.738 -0.2577 -0.1001  0.2522
20935SOL    HW166397   7.607  10.427   7.771 -0.1830 -0.0415  0.3053
20935SOL    HW266398   7.715  10.418   7.666  0.7385  0.5216  1.1849
20936SOL     OW66399   2.273   8.652   2.859  0.2614 -0.1055 -0.2285
20936SOL    HW166400   2.241   8.589   2.922 -0.5521  0.7694  0.2582
20936SOL    HW266401   2.338   8.704   2.907 -1.8893  1.9694  0.6208
20937SOL     OW66402   2.187  10.462   9.673 -0.2669 -0.1303  0.1093
20937SOL    HW166403   2.203  10.378   9.717  1.3639  0.5906  0.9397
20937SOL    HW266404   2.199  10.443   9.580  0.2721 -0.7810  0.3062
20938SOL     OW66405   4.718   0.981   4.831  0.3824 -0.2312 -0.3063
20938SOL    HW166406   4.779   1.035   4.881  0.5368 -1.0222  0.3933
20938SOL    HW266407   4.656   0.949   4.897 -1.3335  1.2389 -1.1257
20939SOL     OW66408   8.676  10.389   6.021 -0.2775 -0.2436 -0.0623
20939SOL    HW166409   8.642  10.465   6.068 -1.1552 -0.5007 -0.2614
20939SOL    HW266410   8.607  10.367   5.958  0.5702 -0.3541 -0.9705
20940SOL     OW66411   7.697   1.173   2.538 -0.0976  0.4751  0.7840
20940SOL    HW166412   7.768   1.234   2.518 -0.7765  2.1123  2.9218
20940SOL    HW266413   7.693   1.172   2.634 -1.3738 -1.5148  0.7757
20941SOL     OW66414   9.629   7.287   7.536  0.1058  0.1202 -0.1801
20941SOL    HW166415   9.571   7.225   7.491  0.7707  0.5243 -1.6625
20941SOL    HW266416   9.711   7.283   7.486  1.0161  0.3216  1.2467
20942SOL     OW66417   8.327   4.693   3.154 -0.3213  0.0051  0.3463
20942SOL    HW166418   8.284   4.653   3.230 -0.3986  1.0872  0.8958
20942SOL    HW266419   8.326   4.787   3.173 -3.7402  0.8329 -2.6565
20943SOL     OW66420   7.631   6.997   1.403 -0.4696  0.3057 -0.0489
20943SOL    HW166421   7.576   7.047   1.343 -0.0801  1.5189  0.5915
20943SOL    HW266422   7.648   7.056   1.476  0.3908 -0.5964  0.5086
20944SOL     OW66423  11.016   7.840   0.309  0.4709 -0.3618  0.0297
20944SOL    HW166424  11.084   7.906   0.326  0.4377 -0.2479 -0.2826
20944SOL    HW266425  10.979   7.865   0.225  1.3440 -1.5158 -0.7333
20945SOL     OW66426   8.197  10.436   4.990  0.1234  0.1894  0.2567
20945SOL    HW166427   8.182  10.396   4.904 -2.2871 -0.5427  0.9519
20945SOL    HW266428   8.147  10.382   5.051  2.1377  0.4311  2.2315
20946SOL     OW66429   8.286  10.094   3.258  0.2278  0.2179 -0.0691
20946SOL    HW166430   8.349  10.157   3.222  2.0649 -1.1474  0.6558
20946SOL    HW266431   8.242  10.058   3.181  1.7907 -0.2868 -0.7531
20947SOL     OW66432   3.758   5.649   6.609  0.4734 -0.3529  0.2290
20947SOL    HW166433   3.753   5.631   6.515 -0.6213 -0.2515  0.2553
20947SOL    HW266434   3.737   5.566   6.650  1.3760 -0.5073  0.4006
20948SOL     OW66435   2.183   8.196   2.278  0.0677 -0.1044 -0.2364
20948SOL    HW166436   2.254   8.260   2.289  0.1204  0.2396 -2.1643
20948SOL    HW266437   2.154   8.208   2.188 -0.2682 -2.4785 -0.5084
20949SOL     OW66438   3.888   3.588   6.981  0.2756  0.0378 -0.3220
20949SOL    HW166439   3.944   3.603   7.056  2.2107 -0.6693 -1.5527
20949SOL    HW266440   3.869   3.675   6.946 -0.6656  0.3740  0.9361
20950SOL     OW66441   4.590   4.068   0.922 -0.0990 -0.6873 -0.0234
20950SOL    HW166442   4.572   4.075   0.828  2.1215  0.7175 -0.4405
20950SOL    HW266443   4.518   4.017   0.957 -1.4489 -0.5189 -2.3533
20951SOL     OW66444   1.097   9.392   0.978 -0.8066 -0.1315 -0.2257
20951SOL    HW166445   1.060   9.373   1.064  0.6286 -1.5952  0.1247
20951SOL    HW266446   1.109   9.306   0.937 -2.1416  0.5527 -2.2331
20952SOL     OW66447  11.032   1.261   5.991  0.2842  0.1653 -0.1354
20952SOL    HW166448  10.947   1.237   6.026  0.3787  0.8079  0.5542
20952SOL    HW266449  11.094   1.204   6.036  0.3038  0.2973  0.0047
20953SOL     OW66450  10.634   5.508   8.136  0.1509  0.0343  0.2435
20953SOL    HW166451  10.625   5.598   8.107  0.3218 -0.1610 -0.4264
20953SOL    HW266452  10.577   5.458   8.078  1.2821 -0.4958 -0.4348
20954SOL     OW66453   5.623  10.224   8.434  0.6159 -0.2166 -0.1946
20954SOL    HW166454   5.574  10.264   8.362 -1.1798 -0.6388  0.7134
20954SOL    HW266455   5.685  10.291   8.461  0.5356  0.3696 -1.3893
20955SOL     OW66456   7.063  11.005   1.262  0.1256  0.3473  0.2872
20955SOL    HW166457   7.158  10.996   1.271 -0.0702 -1.7375  0.7670
20955SOL    HW266458   7.030  11.002   1.352 -0.3936  1.6710  0.1707
20956SOL     OW66459   6.298   6.322   4.087  0.4347  0.0137  0.0521
20956SOL    HW166460   6.205   6.343   4.092  0.8159  1.5370  1.6184
20956SOL    HW266461   6.304   6.233   4.124 -0.3151  0.2309  0.7317
20957SOL     OW66462  10.705   1.191   9.364 -0.7123 -0.0326  0.8308
20957SOL    HW166463  10.719   1.284   9.377  1.2396 -0.0870 -0.4128
20957SOL    HW266464  10.677   1.183   9.272  1.5579 -0.7927  0.1310
20958SOL     OW66465   5.913   7.256   7.364  0.2038  0.2149 -0.2203
20958SOL    HW166466   5.867   7.321   7.310 -1.3775 -1.0962 -0.5317
20958SOL    HW266467   5.921   7.298   7.450  0.6935  1.4404 -0.8414
20959SOL     OW66468   5.165   4.525   3.120  0.3618 -0.2157  0.0839
20959SOL    HW166469   5.081   4.486   3.143  0.5767 -0.5414  0.3278
20959SOL    HW266470   5.166   4.527   3.024  0.1577 -0.3848  0.0789
20960SOL     OW66471   4.476   2.281   4.415  0.3452  0.2114  0.1101
20960SOL    HW166472   4.433   2.224   4.479  0.8201  0.4219  0.6301
20960SOL    HW266473   4.568   2.283   4.444  0.2672  1.5308  0.3136
20961SOL     OW66474   5.656   9.838   7.363 -0.0979  0.2609 -0.1356
20961SOL    HW166475   5.705   9.772   7.315  2.8833  1.7595  0.6174
20961SOL    HW266476   5.674   9.819   7.455 -1.3693  0.5971  0.2116
20962SOL     OW66477  10.404   0.002  10.272 -0.3807 -0.2248  0.0547
20962SOL    HW166478  10.382  -0.048  10.193  0.8149 -0.6434 -0.0336
20962SOL    HW266479  10.420  -0.065  10.338 -0.0330  0.0840  0.2832
20963SOL     OW66480   5.945   8.759   7.457  0.3259  0.0677  0.0689
20963SOL    HW166481   5.961   8.751   7.551  1.3903 -0.6999 -0.1624
20963SOL    HW266482   5.857   8.796   7.451 -0.7956 -2.1314  1.3651
20964SOL     OW66483  10.110  10.345   7.320  0.0278 -0.8104  0.0682
20964SOL    HW166484  10.197  10.343   7.280 -0.2447 -0.9714 -0.5275
20964SOL    HW266485  10.051  10.316   7.251 -0.3226 -2.3317  0.9454
20965SOL     OW66486   6.985   1.050   3.866  0.1177 -0.0874 -0.1980
20965SOL    HW166487   7.020   1.139   3.876 -0.0205 -0.1906  1.6916
20965SOL    HW266488   7.061   0.996   3.847  0.0992  0.5121 -2.1772
20966SOL     OW66489   1.662   0.528   0.632  0.1592  0.0219  0.3182
20966SOL    HW166490   1.628   0.444   0.663  0.0888  0.4035  1.3190
20966SOL    HW266491   1.586   0.585   0.629  0.4329  0.4585  1.1160
20967SOL     OW66492   4.885   7.617   6.719 -0.0833 -0.2430  0.5214
20967SOL    HW166493   4.839   7.533   6.731 -0.1262 -0.1681  0.9042
20967SOL    HW266494   4.970   7.593   6.682 -0.5790 -0.3541 -0.5910
20968SOL     OW66495   0.294  10.231   5.669 -0.3521 -0.0932  0.5068
20968SOL    HW166496   0.264  10.250   5.580 -0.5960 -0.6647  0.4623
20968SOL    HW266497   0.215  10.235   5.723 -0.4276 -1.0588  0.4771
20969SOL     OW66498   3.252   1.404   2.540  0.1182 -0.3227  0.3521
20969SOL    HW166499   3.280   1.350   2.614 -0.9734 -1.2999  0.0809
20969SOL    HW266500   3.189   1.349   2.493 -0.2412  0.8076 -0.5258
20970SOL     OW66501   4.516  10.214   5.955 -0.0025  0.4452 -0.1625
20970SOL    HW166502   4.542  10.283   5.894 -0.5798  0.5623 -0.2780
20970SOL    HW266503   4.528  10.252   6.042  2.0808 -0.1534 -0.1243
20971SOL     OW66504   1.014   8.320   5.851  0.7162  0.1880  0.3833
20971SOL    HW166505   1.080   8.388   5.836  0.0559  0.7387 -0.1059
20971SOL    HW266506   1.045   8.274   5.928  1.6610  0.4551  0.1851
20972SOL     OW66507   0.808   8.973  10.841  0.1232 -0.2261  0.2792
20972SOL    HW166508   0.818   9.058  10.799 -2.6080 -0.5769 -1.3007
20972SOL    HW266509   0.759   8.920  10.778  0.7200 -2.6123  1.6885
20973SOL     OW66510   6.292   5.740   8.921  0.1511 -0.2079  1.0546
20973SOL    HW166511   6.249   5.706   8.999  0.8498  1.5566  2.2984
20973SOL    HW266512   6.360   5.676   8.901  0.5207 -0.2914  2.4545
20974SOL     OW66513   9.447  10.067   1.556 -0.5603  0.0670  0.2088
20974SOL    HW166514   9.408  10.026   1.634 -0.0042  1.4774  1.2659
20974SOL    HW266515   9.449   9.997   1.491  0.3572 -1.6160  1.9437
20975SOL     OW66516   8.849   4.380  10.693  0.0470  0.0424  0.4661
20975SOL    HW166517   8.783   4.416  10.635 -0.2058  0.0217  0.7348
20975SOL    HW266518   8.890   4.456  10.733  0.3233  0.0595  0.1461
20976SOL     OW66519   5.632   5.220   6.727  0.0698 -0.1112  0.3365
20976SOL    HW166520   5.712   5.254   6.768 -0.0518 -0.7843  1.1741
20976SOL    HW266521   5.563   5.239   6.790 -0.1653 -0.9246  0.3388
20977SOL     OW66522  11.090  10.903   6.318  0.1459 -0.6426 -1.0653
20977SOL    HW166523  11.002  10.938   6.333  1.1371  2.0201 -0.7592
20977SOL    HW266524  11.089  10.872   6.228 -0.9200  0.0029 -1.2972
20978SOL     OW66525   3.868   8.887   3.476  0.0081  0.6189  0.9567
20978SOL    HW166526   3.883   8.953   3.543 -1.1891  1.8751  0.0500
20978SOL    HW266527   3.784   8.912   3.437 -0.5284 -1.5005  0.6457
20979SOL     OW66528   8.076   6.657   8.816 -0.1852 -0.4105 -0.1496
20979SOL    HW166529   7.984   6.637   8.829 -0.6108 -0.2654 -2.5477
20979SOL    HW266530   8.102   6.705   8.895 -2.4254  0.4470  0.1261
20980SOL     OW66531   5.805   9.730   5.056 -0.4749  0.2207  0.2832
20980SOL    HW166532   5.789   9.757   4.966 -1.6874  0.9802  0.6934
20980SOL    HW266533   5.801   9.634   5.053 -1.4248  0.2611 -0.3375
20981SOL     OW66534   7.284   4.548   5.093 -0.4272 -0.0328 -0.0763
20981SOL    HW166535   7.358   4.547   5.033  1.1044  0.3456  1.7070
20981SOL    HW266536   7.244   4.462   5.085  2.0574 -1.3939  1.0440
20982SOL     OW66537   0.481   7.851   7.424  0.3134 -0.4902 -0.0865
20982SOL    HW166538   0.509   7.925   7.369 -1.7673  0.2980 -0.1876
20982SOL    HW266539   0.537   7.778   7.396  1.8472  0.8193 -0.5865
20983SOL     OW66540   2.237   1.071   9.122 -0.2162  0.5811  0.1661
20983SOL    HW166541   2.154   1.097   9.082 -0.4921  0.0370  0.3771
20983SOL    HW266542   2.229   1.096   9.213 -0.6062 -0.5022  0.4416
20984SOL     OW66543   6.328   7.610  10.273 -0.3543  0.4092  0.6654
20984SOL    HW166544   6.343   7.590  10.366 -0.2685  3.1012  1.2954
20984SOL    HW266545   6.241   7.576  10.255  1.0164 -3.5990  0.5762
20985SOL     OW66546   3.109   1.678   6.532  0.3283 -0.1850 -0.7581
20985SOL    HW166547   3.083   1.694   6.442  1.3520  0.9605 -0.8687
20985SOL    HW266548   3.191   1.726   6.543  0.4549 -0.6637  0.6553
20986SOL     OW66549   1.522   5.948   7.236 -0.5719 -0.1362  0.1964
20986SOL    HW166550   1.539   5.964   7.329 -0.2629  0.9459 -0.0359
20986SOL    HW266551   1.526   5.852   7.227  0.6665 -0.1849  1.0570
20987SOL     OW66552   2.647   0.907   6.815  0.4359 -0.2434  0.5873
20987SOL    HW166553   2.576   0.969   6.800  0.3379 -0.5536 -0.3012
20987SOL    HW266554   2.640   0.883   6.907 -1.4686 -1.3091  0.2111
20988SOL     OW66555   5.846   5.938   6.900  0.0798 -0.4827 -0.0343
20988SOL    HW166556   5.878   5.950   6.811  1.5079 -0.7148  0.4175
20988SOL    HW266557   5.826   5.844   6.906  0.2630 -0.5203 -0.0184
20989SOL     OW66558   2.202   6.598   3.160 -0.5183 -0.0433  0.1538
20989SOL    HW166559   2.295   6.610   3.177 -0.8439  0.9057  1.4697
20989SOL    HW266560   2.198   6.529   3.094  1.0729 -0.9930  0.9805
20990SOL     OW66561   5.991   4.329   6.869 -0.1526 -0.0956  0.0573
20990SOL    HW166562   6.056   4.370   6.813  1.2436 -1.5550  0.5411
20990SOL    HW266563   5.982   4.389   6.944 -0.6124  0.9096 -0.7768
20991SOL     OW66564   1.741  10.784   2.734  0.6650 -0.0837 -0.3582
20991SOL    HW166565   1.724  10.732   2.655  1.3581  1.4139 -1.5423
20991SOL    HW266566   1.803  10.852   2.705  1.0047  0.4478  1.5061
20992SOL     OW66567   0.806   1.426   8.670 -0.4994 -0.3886  0.1767
20992SOL    HW166568   0.715   1.411   8.696 -1.0947 -0.1802 -1.6463
20992SOL    HW266569   0.829   1.349   8.618  0.5366 -0.6439  0.9729
20993SOL     OW66570   4.557   2.354   8.252  0.1649 -0.1113  0.3702
20993SOL    HW166571   4.652   2.348   8.245  0.2879 -0.1256  1.7932
20993SOL    HW266572   4.530   2.270   8.288 -0.4971 -0.4158 -0.7609
20994SOL     OW66573   9.178   5.181   0.304 -0.3767 -0.3635 -0.3524
20994SOL    HW166574   9.100   5.182   0.250 -1.1764  2.6667  0.6343
20994SOL    HW266575   9.148   5.151   0.390 -0.4185  0.5413 -0.0432
20995SOL     OW66576   6.550  10.075   5.487 -0.2916  0.5590  0.0759
20995SOL    HW166577   6.585  10.000   5.535 -0.4367  0.1111 -0.5064
20995SOL    HW266578   6.459  10.082   5.518 -0.1275  0.8056  0.4995
20996SOL     OW66579   5.064   6.340   8.335 -0.0271  0.3360  0.1092
20996SOL    HW166580   5.126   6.322   8.406 -0.0149 -0.4882 -0.0963
20996SOL    HW266581   4.999   6.398   8.374  0.1766  0.1884  0.6861
20997SOL     OW66582   8.553   2.036   2.839  0.5485  0.0491 -0.4984
20997SOL    HW166583   8.529   2.061   2.929 -1.8564  0.9502 -1.2923
20997SOL    HW266584   8.573   1.943   2.845 -0.5568 -0.1480  0.8496
20998SOL     OW66585   3.650   1.318   0.268 -0.3180 -0.3456 -0.1416
20998SOL    HW166586   3.685   1.314   0.357  0.5338  1.8585 -0.3116
20998SOL    HW266587   3.559   1.345   0.279  0.0764  0.9437  0.0442
20999SOL     OW66588   9.771   2.719   2.657 -0.3038 -0.0868  0.1694
20999SOL    HW166589   9.680   2.727   2.685 -0.6883 -0.1345 -1.0318
20999SOL    HW266590   9.792   2.803   2.617  0.0402 -0.2334  0.0336
21000SOL     OW66591   4.445   3.088  10.200  0.4632 -0.7301  0.3148
21000SOL    HW166592   4.427   3.126  10.114 -0.7389 -1.6412  0.1391
21000SOL    HW266593   4.533   3.051  10.193  1.3915  1.3534  0.2750
21001SOL     OW66594   1.912   3.070   9.352  0.2493  0.6572  0.4970
21001SOL    HW166595   1.938   3.096   9.263 -1.5712  0.5709 -0.0944
21001SOL    HW266596   1.845   3.002   9.339  0.3115  0.2770  1.9523
21002SOL     OW66597   6.212   9.247   3.418 -0.4673 -0.3014  0.5015
21002SOL    HW166598   6.214   9.203   3.333  1.1771 -0.6532  0.7086
21002SOL    HW266599   6.183   9.336   3.397 -1.2669 -0.7159 -0.2528
21003SOL     OW66600   4.525   5.140  10.288 -0.3287  0.1273  0.1163
21003SOL    HW166601   4.542   5.217  10.234 -0.6622  1.4015  1.7290
21003SOL    HW266602   4.590   5.146  10.358 -1.4688 -0.0771  1.2233
21004SOL     OW66603   0.999   0.452   3.745 -0.7841 -0.4658 -0.1797
21004SOL    HW166604   1.064   0.468   3.814 -0.1554 -0.5777 -0.7409
21004SOL    HW266605   0.998   0.533   3.694 -1.2285 -0.3945 -0.0663
21005SOL     OW66606  10.087   9.443   2.889  0.1791 -0.4892  0.5003
21005SOL    HW166607  10.150   9.371   2.879  1.5294  0.6639  0.4443
21005SOL    HW266608  10.118   9.491   2.965  0.0489  0.7580 -0.2074
21006SOL     OW66609   6.746   9.067   9.987  0.6108 -0.1386 -0.1682
21006SOL    HW166610   6.800   9.103   9.917  0.9641  0.8043  0.5658
21006SOL    HW266611   6.757   8.972   9.980  1.2351 -0.0188 -0.9142
21007SOL     OW66612   7.905   0.255   7.995 -0.3718 -0.0527 -0.0965
21007SOL    HW166613   7.837   0.246   7.929  0.7839  0.3279 -1.4001
21007SOL    HW266614   7.904   0.347   8.019 -0.5393 -0.1144  0.1344
21008SOL     OW66615   2.036   9.374   8.721  0.3558  0.6410  0.4786
21008SOL    HW166616   2.120   9.399   8.682  0.3388 -0.2075 -0.1224
21008SOL    HW266617   2.055   9.365   8.815  0.6528  1.6254  0.5198
21009SOL     OW66618   4.275   9.109   1.206  0.6742 -0.0335  0.8232
21009SOL    HW166619   4.314   9.102   1.293  1.0199 -2.8871  0.5164
21009SOL    HW266620   4.338   9.066   1.148  0.0816  1.1116 -0.7438
21010SOL     OW66621   9.328  10.309   4.738 -0.1944 -0.4805 -0.3229
21010SOL    HW166622   9.394  10.242   4.754 -0.1361 -0.2882  0.2732
21010SOL    HW266623   9.336  10.330   4.645  0.0990 -0.9652 -0.4080
21011SOL     OW66624   0.531   3.199   0.010  0.1744  0.1774 -0.1673
21011SOL    HW166625   0.536   3.182   0.103  0.4496  0.8284 -0.0555
21011SOL    HW266626   0.482   3.125  -0.026  1.4448 -0.8986  0.2558
21012SOL     OW66627   3.162   7.949   7.587  0.2051  0.2975 -0.1859
21012SOL    HW166628   3.097   7.892   7.628  2.3192 -1.8147  0.4451
21012SOL    HW266629   3.178   7.909   7.502  1.5788  0.0424  0.1769
21013SOL     OW66630   6.456   1.496  10.270 -0.0355  0.1102 -0.1914
21013SOL    HW166631   6.387   1.518  10.208 -2.8051 -1.2491  2.1958
21013SOL    HW266632   6.462   1.401  10.268 -1.3126 -0.1342  2.5634
21014SOL     OW66633   0.252   0.767   0.187 -0.3897  0.1186 -0.4880
21014SOL    HW166634   0.300   0.685   0.174  0.4959  0.7299 -1.2112
21014SOL    HW266635   0.320   0.834   0.192 -1.1176  0.8544 -0.2407
21015SOL     OW66636   0.170   0.007   3.258 -0.2672  0.2148  0.1166
21015SOL    HW166637   0.167  -0.023   3.349  1.5361 -2.3166 -0.5524
21015SOL    HW266638   0.163   0.102   3.264  0.8515  0.2179  3.0076
21016SOL     OW66639   7.724   2.104   2.277 -0.0467  0.0309  0.5072
21016SOL    HW166640   7.671   2.093   2.355 -0.8265  1.0314  0.1350
21016SOL    HW266641   7.750   2.197   2.278 -1.3097  0.4610 -1.1582
21017SOL     OW66642   1.196   5.533   6.878 -0.0645 -0.1403 -0.0485
21017SOL    HW166643   1.192   5.611   6.823  1.2864 -0.3901 -0.5450
21017SOL    HW266644   1.156   5.559   6.961  0.4563  1.1019 -0.1743
21018SOL     OW66645   6.642   7.347   9.027 -0.3668 -0.2155  0.0077
21018SOL    HW166646   6.683   7.260   9.032  0.0353  0.0344  2.7821
21018SOL    HW266647   6.548   7.329   9.030 -0.2852 -0.5901  2.4050
21019SOL     OW66648  10.070   4.802   7.178  0.1571  0.1355 -0.2731
21019SOL    HW166649  10.103   4.723   7.134 -1.6697 -0.1386 -1.2365
21019SOL    HW266650  10.045   4.771   7.266  0.8391 -0.0114 -0.1233
21020SOL     OW66651   7.716   3.245   0.117  0.3212 -0.0085  0.2032
21020SOL    HW166652   7.673   3.202   0.043 -0.6452  2.5446 -0.8500
21020SOL    HW266653   7.798   3.198   0.128  0.6787 -0.2651 -2.7755
21021SOL     OW66654   3.537   8.053   6.224 -0.3542  0.2943 -0.8359
21021SOL    HW166655   3.582   8.063   6.307 -0.8797  1.0830 -0.6333
21021SOL    HW266656   3.548   7.960   6.201 -0.6708 -0.0582  0.3771
21022SOL     OW66657   6.364   6.475   6.751  0.0311 -0.7594 -0.7007
21022SOL    HW166658   6.393   6.566   6.744  0.2267 -0.7905 -0.3275
21022SOL    HW266659   6.269   6.481   6.755  0.0073 -0.6172 -1.3374
21023SOL     OW66660   5.003   1.502   2.973  0.2311 -0.0615 -0.5890
21023SOL    HW166661   5.088   1.500   2.929  0.8793 -2.1037  0.5812
21023SOL    HW266662   5.024   1.528   3.063 -0.2391 -1.2099 -0.1210
21024SOL     OW66663   4.426   2.653   5.977 -0.0267 -0.2557  0.5783
21024SOL    HW166664   4.375   2.575   5.958  2.2462 -1.4081 -1.2859
21024SOL    HW266665   4.385   2.722   5.924 -0.6195 -0.7273  0.4096
21025SOL     OW66666   3.576   5.494   9.897 -0.1648 -0.5074 -0.2874
21025SOL    HW166667   3.508   5.513   9.832 -1.9881 -2.9290  0.7221
21025SOL    HW266668   3.558   5.555   9.968 -1.5532 -1.3265  0.0987
21026SOL     OW66669   0.355   1.685   7.591  0.3059 -0.7010 -0.4922
21026SOL    HW166670   0.323   1.710   7.504  1.3229  1.4454 -0.3067
21026SOL    HW266671   0.421   1.617   7.573  0.7717 -0.0222 -1.4313
21027SOL     OW66672   6.279   6.296   6.352  0.0088  0.5308 -0.4839
21027SOL    HW166673   6.247   6.235   6.419  0.3286 -1.3054 -1.9049
21027SOL    HW266674   6.323   6.240   6.289  1.4964  2.4259 -1.2247
21028SOL     OW66675   7.811   3.564   3.215 -0.1933 -0.1103 -0.3358
21028SOL    HW166676   7.857   3.483   3.237  2.1790  0.5501 -2.3355
21028SOL    HW266677   7.749   3.538   3.146  0.5111 -0.2789 -0.9229
21029SOL     OW66678   0.204   6.773   1.258 -0.3183  0.3097  0.1665
21029SOL    HW166679   0.133   6.831   1.234 -0.6171  0.6285  1.7091
21029SOL    HW266680   0.163   6.687   1.268 -0.4836  0.4726  0.9513
21030SOL     OW66681   7.274   1.044   8.999 -0.2852 -0.1104 -0.1730
21030SOL    HW166682   7.276   1.106   9.071 -1.0118 -0.6581  0.3348
21030SOL    HW266683   7.359   1.054   8.956  0.7720 -0.8291  1.6479
21031SOL     OW66684   9.345   3.928   5.638 -0.9855 -0.2131  0.7959
21031SOL    HW166685   9.275   3.878   5.680 -0.4121 -0.3410  1.6126
21031SOL    HW266686   9.413   3.936   5.705 -0.3391  0.1655  0.1110
21032SOL     OW66687   4.023   1.303   2.886  0.4253  0.7702  0.2698
21032SOL    HW166688   4.116   1.306   2.866  0.4228  0.6675  0.2416
21032SOL    HW266689   3.985   1.246   2.818  0.2622  1.2239 -0.0191
21033SOL     OW66690   9.816   4.933   9.734  0.2304  0.0062 -0.1178
21033SOL    HW166691   9.859   4.964   9.813  1.5631 -1.4991 -0.2220
21033SOL    HW266692   9.774   5.012   9.698  2.0961  1.3583  0.4871
21034SOL     OW66693   3.646   8.614   3.553 -0.0126 -0.6565  0.1394
21034SOL    HW166694   3.583   8.543   3.561 -0.6789 -0.1814 -0.7144
21034SOL    HW266695   3.609   8.672   3.487  1.0510 -0.0740  0.0248
21035SOL     OW66696   1.004   7.223   6.597  0.3164  0.5965  0.0517
21035SOL    HW166697   1.015   7.318   6.591 -1.7925  0.8984  0.3252
21035SOL    HW266698   0.995   7.205   6.691 -0.0197  0.2283 -0.0460
21036SOL     OW66699   6.291   0.128   6.722  0.3714  0.1754  0.0281
21036SOL    HW166700   6.342   0.048   6.735  0.1560  0.0244 -0.0486
21036SOL    HW266701   6.247   0.142   6.806  1.4818  0.9818  0.4995
21037SOL     OW66702  10.360   0.048   0.855  0.4960 -1.0327  0.0489
21037SOL    HW166703  10.325   0.009   0.935 -0.8733  0.2515  0.1264
21037SOL    HW266704  10.448   0.077   0.879 -0.9027  2.0211  2.1011
21038SOL     OW66705   7.199   4.317   3.953  0.1791 -0.2885  0.3634
21038SOL    HW166706   7.133   4.264   3.908  1.9563 -1.6191 -0.8113
21038SOL    HW266707   7.198   4.401   3.907 -1.7167  0.3134  1.3683
21039SOL     OW66708   6.885   1.944   2.699  0.0455  0.3723 -0.0457
21039SOL    HW166709   6.815   1.901   2.650 -0.8162  0.7172  0.8681
21039SOL    HW266710   6.935   1.992   2.632 -1.4309  1.2747 -0.5476
21040SOL     OW66711   8.776   2.360   9.859 -0.3558 -0.2191 -0.1807
21040SOL    HW166712   8.780   2.369   9.764  1.8274  2.0532  0.0047
21040SOL    HW266713   8.721   2.283   9.874 -1.3108 -0.2613 -3.2276
21041SOL     OW66714   1.239   0.065   8.922 -0.3312 -0.1743  0.4858
21041SOL    HW166715   1.214   0.054   9.014 -1.2093 -1.0402  0.1652
21041SOL    HW266716   1.209  -0.016   8.879  0.5970 -0.0393 -0.4526
21042SOL     OW66717   8.297   7.623   9.420  0.3529  0.0829 -0.3322
21042SOL    HW166718   8.303   7.714   9.392  0.4534 -0.2774 -1.5476
21042SOL    HW266719   8.235   7.583   9.358 -0.0045 -0.5830  0.4333
21043SOL     OW66720   1.473   2.894   3.803 -0.1768 -0.0736 -0.4694
21043SOL    HW166721   1.564   2.868   3.786 -0.1652 -1.2508  1.1187
21043SOL    HW266722   1.476   2.936   3.889 -1.3774 -2.0252  0.6197
21044SOL     OW66723   4.930   4.291   6.318  0.1040  0.3805 -0.7241
21044SOL    HW166724   4.850   4.294   6.266 -1.2381  0.9727  1.2583
21044SOL    HW266725   4.970   4.207   6.296 -2.1506 -0.8871 -0.2756
21045SOL     OW66726   6.831   9.207   8.190 -0.2092  0.2823  0.0261
21045SOL    HW166727   6.879   9.127   8.172 -2.8211 -1.5421  0.6475
21045SOL    HW266728   6.845   9.223   8.283  1.9351  1.7999 -0.4721
21046SOL     OW66729   1.480   5.137   8.944 -0.0701 -0.4939  0.0203
21046SOL    HW166730   1.460   5.218   8.991  1.5474  0.2631 -0.5085
21046SOL    HW266731   1.513   5.077   9.011 -0.9840 -0.6286  0.3640
21047SOL     OW66732   4.338   5.363   2.905 -0.2574 -0.7104  0.0816
21047SOL    HW166733   4.416   5.416   2.887 -0.8421  0.7184  1.5164
21047SOL    HW266734   4.337   5.298   2.835  1.0855  0.5294 -1.1728
21048SOL     OW66735   0.473   0.525   6.682  0.1740  0.1204  0.0411
21048SOL    HW166736   0.446   0.433   6.687 -0.4030  0.3183  0.6392
21048SOL    HW266737   0.437   0.555   6.598 -2.2379  0.6024  1.1794
21049SOL     OW66738   9.231   2.288   8.692  0.3852  0.2666 -0.6360
21049SOL    HW166739   9.136   2.276   8.693  0.6188 -2.0425 -0.8569
21049SOL    HW266740   9.264   2.210   8.649  2.3410  1.6902 -1.8454
21050SOL     OW66741   9.131   6.635   6.947 -0.3354  0.3361 -0.5922
21050SOL    HW166742   9.215   6.645   6.991 -2.0064 -0.8726  3.3456
21050SOL    HW266743   9.137   6.550   6.903  1.0282  1.0631 -1.8905
21051SOL     OW66744   4.309   8.193   2.712 -0.2330 -0.0902 -0.2153
21051SOL    HW166745   4.260   8.200   2.793 -0.4250 -2.2557 -0.0786
21051SOL    HW266746   4.367   8.269   2.712  0.0078 -0.2038  2.1116
21052SOL     OW66747   9.651   9.662  10.079  0.2450 -0.1450  0.0186
21052SOL    HW166748   9.726   9.645  10.022 -1.8500 -1.4999 -2.5653
21052SOL    HW266749   9.653   9.757  10.093  2.3635 -0.1401  0.0201
21053SOL     OW66750   3.414   2.272   3.297 -0.1039 -1.2168 -0.3420
21053SOL    HW166751   3.453   2.308   3.377 -1.5944 -0.4999  0.1064
21053SOL    HW266752   3.483   2.278   3.231  0.0046  1.8090 -0.0922
21054SOL     OW66753   0.355   8.281   2.913  0.0268  0.0010  0.3467
21054SOL    HW166754   0.354   8.345   2.842  1.7401  0.8097  0.9872
21054SOL    HW266755   0.376   8.198   2.870  0.8322  0.4444 -0.1479
21055SOL     OW66756   7.226  10.381  10.076  0.4113  0.3892 -0.1465
21055SOL    HW166757   7.297  10.345  10.128 -0.4875  0.3837  1.1139
21055SOL    HW266758   7.193  10.307  10.025  1.4565  0.4509 -0.9488
21056SOL     OW66759   4.217  10.612   0.251  0.0920  0.0697 -0.4044
21056SOL    HW166760   4.172  10.629   0.333 -0.2912  0.6659 -0.7306
21056SOL    HW266761   4.223  10.516   0.247  0.2106  0.0405  0.3600
21057SOL     OW66762   1.202   4.482   2.230  0.2178 -0.5822  0.0947
21057SOL    HW166763   1.176   4.484   2.322 -0.5089  2.0894 -0.1065
21057SOL    HW266764   1.124   4.453   2.183  0.8196 -2.7428  0.3085
21058SOL     OW66765   1.031   4.863   0.118  0.2552  0.2020  0.6749
21058SOL    HW166766   0.979   4.850   0.039 -1.7189  0.1965  1.9044
21058SOL    HW266767   1.122   4.867   0.087 -0.4217 -0.1854 -1.5181
21059SOL     OW66768   4.806   7.530   4.981 -0.4423 -0.4032 -0.0880
21059SOL    HW166769   4.813   7.618   4.944 -1.5742 -0.0689  0.4496
21059SOL    HW266770   4.896   7.505   5.001 -0.1356  0.7833  0.1012
21060SOL     OW66771   2.166   0.653   4.954 -0.7834 -0.5457 -0.5549
21060SOL    HW166772   2.205   0.731   4.994  1.7064 -0.8773 -2.1540
21060SOL    HW266773   2.220   0.580   4.985 -0.4127 -1.1031 -2.4191
21061SOL     OW66774   8.626   2.202   4.080 -0.5746  0.3926  0.0327
21061SOL    HW166775   8.597   2.185   3.990 -0.2160 -1.5543  0.2262
21061SOL    HW266776   8.679   2.282   4.074  1.3806 -0.9159 -1.9709
21062SOL     OW66777  10.384   5.714   3.719  0.0344 -0.2046 -0.1968
21062SOL    HW166778  10.429   5.776   3.662  2.9748 -2.9824 -1.1790
21062SOL    HW266779  10.340   5.654   3.659 -0.7581 -0.4942  0.6406
21063SOL     OW66780   1.690   2.212   7.552  0.1466 -0.2026 -0.2844
21063SOL    HW166781   1.692   2.270   7.628 -1.1563 -0.6107  0.0888
21063SOL    HW266782   1.698   2.124   7.588  1.6449 -0.3123 -0.8120
21064SOL     OW66783   7.729   6.485   2.687  0.8573  0.4018 -0.0206
21064SOL    HW166784   7.794   6.497   2.755  0.7305  0.9338  0.0098
21064SOL    HW266785   7.780   6.474   2.606  1.0504 -1.3658  0.2976
21065SOL     OW66786   2.907   4.356   8.234  0.2247 -0.3874  0.5661
21065SOL    HW166787   2.913   4.399   8.148 -2.3907 -0.2666  0.3641
21065SOL    HW266788   2.976   4.397   8.286  0.6271  0.9235 -0.9146
21066SOL     OW66789   4.553   9.196  10.950 -0.4995 -0.4126  0.4019
21066SOL    HW166790   4.646   9.185  10.933 -0.9589 -0.9450 -2.3194
21066SOL    HW266791   4.519   9.238  10.871 -2.3089  1.4936  2.0619
21067SOL     OW66792  11.025   4.015   4.176 -0.8639  0.1191  0.2875
21067SOL    HW166793  11.044   3.921   4.180  1.6376  0.5172 -0.5224
21067SOL    HW266794  10.992   4.029   4.088 -1.0531  0.0332  0.3445
21068SOL     OW66795   0.203   7.628   8.435 -0.2609  0.1192 -0.3460
21068SOL    HW166796   0.163   7.545   8.411 -0.6073  0.4311 -0.8419
21068SOL    HW266797   0.130   7.684   8.461 -0.1462  0.6539 -1.1483
21069SOL     OW66798   6.260  10.344   0.424 -0.0573  0.1675 -0.1437
21069SOL    HW166799   6.224  10.391   0.349  0.1544  0.6337  0.0411
21069SOL    HW266800   6.237  10.253   0.408 -0.6340  0.3536 -0.4177
21070SOL     OW66801  10.267   0.848   5.141  0.1780  0.5099 -0.1687
21070SOL    HW166802  10.340   0.787   5.141 -0.1237  0.0837 -2.3530
21070SOL    HW266803  10.236   0.847   5.232  1.5470 -0.8909  0.3341
21071SOL     OW66804   7.108   8.553   5.754 -0.1420 -0.5795 -0.3554
21071SOL    HW166805   7.084   8.461   5.744  1.3381 -1.2313  1.4640
21071SOL    HW266806   7.033   8.593   5.797  0.6984 -1.9234  2.5984
21072SOL     OW66807   5.512   6.055   1.555 -0.2851 -0.1882  0.4028
21072SOL    HW166808   5.580   6.003   1.510 -1.0592 -0.9816  0.1106
21072SOL    HW266809   5.561   6.120   1.605  0.6559  0.0493 -0.7567
21073SOL     OW66810   5.690   0.381   1.533  0.5983 -0.1860 -0.2431
21073SOL    HW166811   5.723   0.340   1.613  0.1903  2.1910  1.2247
21073SOL    HW266812   5.766   0.423   1.494  0.4194  0.3162 -0.0486
21074SOL     OW66813   1.824   2.076   3.136  0.2720 -0.1080 -0.1483
21074SOL    HW166814   1.812   2.159   3.091 -0.5813 -0.4062 -0.5032
21074SOL    HW266815   1.872   2.021   3.074 -0.4947 -0.3659 -0.5303
21075SOL     OW66816   5.085   6.039   3.909 -0.8865 -0.2807  0.2912
21075SOL    HW166817   5.141   6.035   3.986 -0.1550  1.2574 -0.1367
21075SOL    HW266818   5.045   5.952   3.904 -0.8203 -0.4573  2.2936
21076SOL     OW66819   3.238   0.437   5.579 -0.2802  0.1132 -0.2764
21076SOL    HW166820   3.278   0.505   5.633 -0.3338 -0.6626  0.7702
21076SOL    HW266821   3.167   0.401   5.632 -2.5177  1.5054 -2.1206
21077SOL     OW66822   6.894   0.291   1.960 -0.1548 -0.2714 -0.0563
21077SOL    HW166823   6.925   0.366   2.012 -0.8836  0.5941 -0.8243
21077SOL    HW266824   6.807   0.273   1.995  0.0387 -0.7973  0.1552
21078SOL     OW66825  10.651  10.656   5.615 -0.2443  0.6200  0.2626
21078SOL    HW166826  10.609  10.571   5.606  1.4898 -0.5020  2.0616
21078SOL    HW266827  10.629  10.702   5.534 -1.8046 -1.2538 -0.4501
21079SOL     OW66828   3.832   4.609  10.408 -1.0273  0.7475 -0.0225
21079SOL    HW166829   3.909   4.664  10.400 -0.8019  0.3571 -0.7115
21079SOL    HW266830   3.865   4.527  10.444 -1.0196  0.4115 -0.7603
21080SOL     OW66831   7.580   7.687  11.025  0.0915 -0.2352 -0.2260
21080SOL    HW166832   7.564   7.632  10.949  0.5272 -1.1945  0.3574
21080SOL    HW266833   7.675   7.698  11.028  0.3258 -2.2414  1.5285
21081SOL     OW66834   5.889   7.783   5.552 -0.1230 -0.1717 -0.2077
21081SOL    HW166835   5.906   7.757   5.461  1.4667 -1.2769  0.3722
21081SOL    HW266836   5.798   7.755   5.567  0.3374 -2.1504 -0.7640
21082SOL     OW66837   1.528   9.593   3.636  0.7501 -0.0314  0.1722
21082SOL    HW166838   1.468   9.631   3.572 -0.0005  1.0874  1.4814
21082SOL    HW266839   1.481   9.516   3.670  1.4847 -1.1024 -1.1411
21083SOL     OW66840   0.550   5.597   4.863 -0.1997  0.2437  0.1993
21083SOL    HW166841   0.515   5.668   4.918 -2.8640 -1.1190  0.3980
21083SOL    HW266842   0.547   5.519   4.919  1.3049 -0.3695 -0.4971
21084SOL     OW66843  10.849   4.805   7.782  0.2678  0.1005 -0.0540
21084SOL    HW166844  10.865   4.883   7.835  1.5569  0.4674 -0.9277
21084SOL    HW266845  10.887   4.733   7.832 -2.7808 -0.4061  1.7824
21085SOL     OW66846   5.005   7.490   7.029 -0.2293  0.6475  0.1186
21085SOL    HW166847   4.962   7.421   7.080 -0.8012  0.5654 -0.4569
21085SOL    HW266848   4.997   7.568   7.083  1.6018  0.0138  1.3838
21086SOL     OW66849   1.669   0.279   9.628  0.0408  0.1096  0.4470
21086SOL    HW166850   1.656   0.185   9.615 -0.9606  0.1326  1.1026
21086SOL    HW266851   1.712   0.309   9.548  1.0912 -1.0333  0.5567
21087SOL     OW66852   4.428   1.679   1.296 -0.1743 -0.3152  0.4419
21087SOL    HW166853   4.373   1.679   1.374 -1.0514  0.2812 -0.1552
21087SOL    HW266854   4.465   1.767   1.293 -0.8186 -0.0589 -0.2641
21088SOL     OW66855  11.052   1.470   2.233 -0.0598  0.3893 -0.2305
21088SOL    HW166856  11.051   1.375   2.225 -2.1646  0.3517 -0.2329
21088SOL    HW266857  11.074   1.487   2.325  2.7817  0.0479 -0.7620
21089SOL     OW66858   6.445  10.114   6.481  0.0315  1.0393 -0.5855
21089SOL    HW166859   6.524  10.164   6.503 -0.1786  0.8430  0.7236
21089SOL    HW266860   6.379  10.180   6.464 -0.0400  1.2297  0.3614
21090SOL     OW66861   7.890  10.593   8.713  0.7293  0.2054  0.3316
21090SOL    HW166862   7.840  10.598   8.795  0.9195  2.0356  0.3696
21090SOL    HW266863   7.966  10.649   8.728  1.4348 -0.4438 -0.6785
21091SOL     OW66864  10.775   9.653   1.213 -0.5543 -0.0764  0.0180
21091SOL    HW166865  10.770   9.746   1.233 -0.5364 -0.5280  2.4835
21091SOL    HW266866  10.694   9.617   1.250 -1.9539 -0.7168 -3.3758
21092SOL     OW66867   0.991   1.798   2.252 -0.1714  0.0421  0.3950
21092SOL    HW166868   1.023   1.708   2.259 -2.0758 -0.7888 -0.6546
21092SOL    HW266869   0.975   1.810   2.158 -2.3164  0.5705  0.7854
21093SOL     OW66870   8.281   5.996   7.741 -0.3833  0.6186 -0.7690
21093SOL    HW166871   8.333   6.063   7.785  0.4169 -0.0099 -0.7399
21093SOL    HW266872   8.344   5.945   7.691 -0.9631 -0.1517 -0.7410
21094SOL     OW66873   4.316   6.501   8.996 -0.2867  0.1115 -0.8629
21094SOL    HW166874   4.276   6.448   9.065 -1.7607 -0.6839 -2.2591
21094SOL    HW266875   4.367   6.567   9.043 -1.0871 -0.5116  0.9726
21095SOL     OW66876   6.902   1.571   7.325  0.1776 -0.6535  0.0884
21095SOL    HW166877   6.843   1.497   7.335  1.0048 -1.3684 -0.2591
21095SOL    HW266878   6.844   1.648   7.324 -0.6887 -1.2925  0.3595
21096SOL     OW66879   8.675  10.505   3.834  0.4110  0.7687  0.1887
21096SOL    HW166880   8.650  10.567   3.902  0.0208  0.1606  0.6069
21096SOL    HW266881   8.673  10.555   3.753  0.9424  1.5154  0.6290
21097SOL     OW66882   8.766  10.681  10.033 -0.0810  0.2774 -0.1221
21097SOL    HW166883   8.675  10.706  10.051 -0.1793 -0.0304 -0.1893
21097SOL    HW266884   8.773  10.686   9.938  0.1742  0.9922 -0.0675
21098SOL     OW66885   2.633   8.347   3.918  0.2562  0.1782  0.3844
21098SOL    HW166886   2.643   8.418   3.855 -1.8166  0.8959  0.7546
21098SOL    HW266887   2.646   8.389   4.003  2.3404 -0.6354  0.5204
21099SOL     OW66888   7.449   0.327   2.889 -0.1585  0.2215  0.6965
21099SOL    HW166889   7.414   0.256   2.836  0.2376  0.1601  0.5129
21099SOL    HW266890   7.373   0.381   2.911 -0.5090 -0.4550  1.1364
21100SOL     OW66891   0.661   4.374   7.629 -0.0643 -0.1617 -0.2255
21100SOL    HW166892   0.579   4.400   7.587  0.1643 -0.2819 -0.7523
21100SOL    HW266893   0.675   4.439   7.698 -0.0262  0.5091 -0.8644
21101SOL     OW66894   0.768   1.794   2.397  0.1408  0.1938  0.2866
21101SOL    HW166895   0.848   1.803   2.345  0.6672  2.0179  1.3183
21101SOL    HW266896   0.795   1.744   2.474 -0.0334 -0.3099  0.0241
21102SOL     OW66897  10.451   1.361   0.880 -0.4911 -0.0332  0.0178
21102SOL    HW166898  10.454   1.293   0.948  1.0052  0.9296  0.9596
21102SOL    HW266899  10.471   1.314   0.799 -0.2390 -0.8386  0.5323
21103SOL     OW66900   9.597   4.341   6.103  0.3785 -0.1796 -0.0393
21103SOL    HW166901   9.647   4.266   6.071  2.4793  1.2679 -0.4142
21103SOL    HW266902   9.513   4.335   6.058  1.3702 -1.0037 -1.9282
21104SOL     OW66903   0.515   3.395  10.781  0.0077  0.4725  0.0117
21104SOL    HW166904   0.427   3.380  10.816 -0.5770  0.6014 -1.3606
21104SOL    HW266905   0.572   3.379  10.856 -1.1281 -0.2596  0.7763
21105SOL     OW66906   7.347   1.987   3.715 -0.4652 -0.2315 -0.4569
21105SOL    HW166907   7.285   1.952   3.778 -1.9896  3.4390  0.2746
21105SOL    HW266908   7.433   1.962   3.749 -1.3702 -1.8936  0.7270
21106SOL     OW66909   7.206   8.753   9.857 -0.2083  0.3426  0.1756
21106SOL    HW166910   7.201   8.706   9.940 -1.9732 -0.1241 -0.1446
21106SOL    HW266911   7.236   8.688   9.794  0.6099  0.5565  0.3345
21107SOL     OW66912   6.116   9.488   3.313 -0.2789 -0.3584  0.0571
21107SOL    HW166913   6.045   9.474   3.250 -1.5806  0.7636  1.2328
21107SOL    HW266914   6.183   9.535   3.263 -1.7958  1.6118 -0.2399
21108SOL     OW66915   6.590   4.056   6.892 -0.0407 -0.7650  0.1605
21108SOL    HW166916   6.624   4.013   6.969  0.7111  0.2002  0.3901
21108SOL    HW266917   6.641   4.137   6.885 -2.5910  1.0571  0.8534
21109SOL     OW66918   9.634   9.818   9.127 -0.2408 -0.2611  0.5465
21109SOL    HW166919   9.704   9.762   9.094 -0.2462 -0.0154  0.1097
21109SOL    HW266920   9.641   9.813   9.223  0.5550 -0.0165  0.5069
21110SOL     OW66921   3.077   7.290   3.763  0.7604  0.0515 -0.1370
21110SOL    HW166922   3.075   7.203   3.803 -0.0600  0.0943 -0.0740
21110SOL    HW266923   3.166   7.322   3.780  0.0120  0.7280  3.0830
21111SOL     OW66924   1.773   3.187   0.501 -0.6436 -0.4116  0.7472
21111SOL    HW166925   1.692   3.214   0.459 -0.5874 -0.7960  0.3866
21111SOL    HW266926   1.802   3.264   0.550 -0.7686 -0.0009  0.1729
21112SOL     OW66927   0.763   0.543   6.638  0.5043  0.3881  0.6478
21112SOL    HW166928   0.795   0.537   6.548  0.3161 -1.7682  0.6703
21112SOL    HW266929   0.670   0.519   6.632  0.2032  1.3510  1.2803
21113SOL     OW66930  11.035   5.029   6.043 -0.7421 -0.0803  0.0661
21113SOL    HW166931  11.120   4.985   6.049 -0.8642 -0.3034  0.1972
21113SOL    HW266932  11.006   5.036   6.134  0.0793  1.8724  0.2243
21114SOL     OW66933   3.617   0.373   1.472 -0.3027  0.1926  0.0838
21114SOL    HW166934   3.575   0.456   1.453  0.5262  0.5571 -0.2261
21114SOL    HW266935   3.582   0.346   1.557 -0.1085  1.1650  0.4754
21115SOL     OW66936   7.041   2.370   6.916  0.5077  0.0106  0.0834
21115SOL    HW166937   6.980   2.301   6.942  2.5283 -1.9073  0.0028
21115SOL    HW266938   7.015   2.446   6.969 -0.5993 -1.3548  1.6060
21116SOL     OW66939   2.799   8.538  10.332 -0.1588 -0.1974  0.6059
21116SOL    HW166940   2.727   8.586  10.374 -0.4897  0.1391 -0.3249
21116SOL    HW266941   2.874   8.598  10.337 -0.9287  1.1492 -1.8871
21117SOL     OW66942   3.708   6.484   7.302  0.1312 -0.4976 -0.0267
21117SOL    HW166943   3.794   6.460   7.337  0.6225  0.3981 -0.5753
21117SOL    HW266944   3.664   6.401   7.287  1.0502 -0.9830 -0.0908
21118SOL     OW66945   8.187   8.425   2.711  0.3671  0.4510  0.6638
21118SOL    HW166946   8.138   8.345   2.727  0.3762  0.2442 -0.3031
21118SOL    HW266947   8.120   8.494   2.705  0.0618  0.0243 -1.6276
21119SOL     OW66948   7.509   4.042   5.102 -0.3298  0.3389 -0.4949
21119SOL    HW166949   7.564   4.059   5.179 -1.4023 -0.6219  0.5234
21119SOL    HW266950   7.571   4.018   5.033  0.6034  0.2205  0.3597
21120SOL     OW66951   7.481   5.629   2.050  0.5653 -0.2036  0.3101
21120SOL    HW166952   7.491   5.608   1.958  0.0127  2.1720 -0.3710
21120SOL    HW266953   7.571   5.633   2.084  1.0093  1.9036 -0.9373
21121SOL     OW66954   7.457   7.393   8.174 -0.9471 -0.3814  0.6132
21121SOL    HW166955   7.428   7.349   8.254  0.5262 -1.1501  0.7521
21121SOL    HW266956   7.499   7.473   8.205  2.9585 -2.3571  1.0503
21122SOL     OW66957   7.223   7.567   8.570  0.2788 -0.0561 -0.3834
21122SOL    HW166958   7.188   7.567   8.481  0.5164  0.7007 -0.4859
21122SOL    HW266959   7.155   7.610   8.623  1.7118  3.1979 -0.9026
21123SOL     OW66960   9.112   9.424   8.603  0.2293  0.1221 -0.1917
21123SOL    HW166961   9.145   9.511   8.627  1.0676 -0.2888  0.2213
21123SOL    HW266962   9.018   9.436   8.591  0.5494  1.4190 -1.7571
21124SOL     OW66963  10.921   6.395  10.698 -0.1764  0.1344  0.3223
21124SOL    HW166964  11.014   6.376  10.690  0.0111  0.5167  1.4869
21124SOL    HW266965  10.899   6.372  10.788 -1.6182 -1.6111 -0.4044
21125SOL     OW66966   2.149   7.789   5.980  0.3571  0.1342 -0.1410
21125SOL    HW166967   2.166   7.833   5.897  1.5820 -0.3359 -0.1596
21125SOL    HW266968   2.186   7.848   6.046  1.0554 -0.3458 -0.0866
21126SOL     OW66969   5.682   0.073   6.931 -0.4312 -0.5494  0.1254
21126SOL    HW166970   5.676  -0.022   6.943 -0.8050 -0.5024  0.3175
21126SOL    HW266971   5.741   0.083   6.856 -0.2022 -0.9241  0.2508
21127SOL     OW66972   9.646   8.223  10.687  0.0479  0.3704  0.0234
21127SOL    HW166973   9.630   8.281  10.613  0.6649 -1.2332 -1.4166
21127SOL    HW266974   9.740   8.230  10.703 -0.1446  1.0512  1.0007
21128SOL     OW66975   3.656   6.223   2.451 -0.6085 -0.2543 -0.5288
21128SOL    HW166976   3.749   6.227   2.429 -0.2790 -0.8381  0.6976
21128SOL    HW266977   3.653   6.180   2.536 -1.9861  0.0673 -0.3928
21129SOL     OW66978   4.301   0.523   9.897  0.3582  0.0304 -0.0693
21129SOL    HW166979   4.389   0.489   9.912  0.7912  1.2486  0.2257
21129SOL    HW266980   4.314   0.615   9.875 -0.5164 -0.6233 -4.1467
21130SOL     OW66981   2.336   8.050   2.864 -0.1556 -0.1410  0.2736
21130SOL    HW166982   2.273   8.116   2.894  0.3482  0.3908  0.1812
21130SOL    HW266983   2.313   8.035   2.772  0.9381  1.3841 -0.3001
21131SOL     OW66984   5.176   0.755   7.451  0.2535  0.4656 -0.0744
21131SOL    HW166985   5.155   0.672   7.493 -1.0331  0.3984 -0.8188
21131SOL    HW266986   5.238   0.797   7.511 -0.4570 -0.2439  1.1952
21132SOL     OW66987   0.114   6.293   3.905  0.2004  0.4374 -0.5275
21132SOL    HW166988   0.176   6.334   3.965  1.0193 -2.2625  0.6321
21132SOL    HW266989   0.169   6.244   3.844 -0.7342  0.0724 -1.0995
21133SOL     OW66990   9.958   7.805   6.180 -0.0571 -0.3487 -0.2851
21133SOL    HW166991   9.962   7.795   6.085 -0.9422 -2.9565 -0.1171
21133SOL    HW266992  10.015   7.736   6.214  1.3455  1.3911  1.1415
21134SOL     OW66993   0.390   6.442   0.694 -0.8010 -0.3056  0.1800
21134SOL    HW166994   0.379   6.347   0.685 -3.3833 -0.0231 -0.3849
21134SOL    HW266995   0.337   6.465   0.770  1.3362  0.5175  1.5337
21135SOL     OW66996   6.590   0.764   5.210  0.0300 -0.1994  0.1085
21135SOL    HW166997   6.672   0.715   5.202  0.2578  0.2853 -0.6114
21135SOL    HW266998   6.523   0.697   5.224  0.4050 -0.6813 -0.3679
21136SOL     OW66999   2.653   7.431   9.966  0.2329  0.2604 -0.0074
21136SOL    HW167000   2.705   7.460  10.041  0.2504  0.1423  0.0269
21136SOL    HW267001   2.709   7.447   9.890  0.4654 -0.1908  0.0607
21137SOL     OW67002   5.543   5.719   5.683  0.2260  0.4071  0.0600
21137SOL    HW167003   5.621   5.756   5.642 -0.6211  0.8944 -1.1379
21137SOL    HW267004   5.550   5.625   5.666 -0.7622  0.7234 -2.4140
21138SOL     OW67005   5.139   4.558   6.946  0.1188  0.3339  0.4185
21138SOL    HW167006   5.195   4.635   6.951 -0.5592  0.8464  0.2152
21138SOL    HW267007   5.130   4.529   7.037 -1.9990  2.2411  0.9055
21139SOL     OW67008   8.348   5.400  10.821  0.0826 -0.2763  0.2379
21139SOL    HW167009   8.427   5.347  10.808 -0.6507 -1.2935 -0.2328
21139SOL    HW267010   8.380   5.486  10.848  1.3785 -0.4856 -0.5554
21140SOL     OW67011   0.705   6.430   1.130  0.1388  0.0287 -0.5050
21140SOL    HW167012   0.613   6.412   1.147 -0.1378  0.3451 -1.6110
21140SOL    HW267013   0.750   6.405   1.211 -0.7375 -1.4782 -0.4575
21141SOL     OW67014   0.358   5.493   2.608  0.2008  0.2814 -0.3807
21141SOL    HW167015   0.422   5.535   2.550  0.4983  1.4579  0.7638
21141SOL    HW267016   0.338   5.410   2.564  0.7022  0.9504 -1.9655
21142SOL     OW67017   2.033   2.719   2.550 -0.1029 -0.4201  0.3977
21142SOL    HW167018   2.020   2.673   2.633 -0.3056  0.0037  0.6037
21142SOL    HW267019   2.095   2.664   2.501  0.9862 -0.0456  1.3228
21143SOL     OW67020   2.600   1.486   8.697 -0.4036  0.5563 -0.4184
21143SOL    HW167021   2.540   1.430   8.647  0.8782  0.9736 -2.5534
21143SOL    HW267022   2.608   1.565   8.644  2.4815  0.2605 -0.5799
21144SOL     OW67023   5.952   4.507   1.678 -0.2193  0.6113 -0.1040
21144SOL    HW167024   5.882   4.561   1.642 -0.4065  0.2338 -0.3151
21144SOL    HW267025   6.029   4.564   1.676  0.1725  0.1174 -2.6582
21145SOL     OW67026   8.323   1.901   2.319 -0.3026  0.6176 -0.5202
21145SOL    HW167027   8.312   1.894   2.414 -0.4855 -0.6871 -0.6169
21145SOL    HW267028   8.265   1.833   2.284  1.9824 -0.9464 -1.4411
21146SOL     OW67029   4.947   3.230   6.069 -0.1324  0.4446  0.3974
21146SOL    HW167030   5.019   3.220   6.131  0.1881  1.2279  0.1635
21146SOL    HW267031   4.954   3.321   6.038 -0.4815  0.1645 -0.5424
21147SOL     OW67032   7.833   2.380   2.384 -0.3954 -0.2090 -0.7670
21147SOL    HW167033   7.812   2.462   2.339 -1.2735  0.0150  0.0247
21147SOL    HW267034   7.924   2.362   2.359  0.0082  1.3110 -0.4915
21148SOL     OW67035   8.223  10.247   1.964 -0.0600 -0.2313 -0.6576
21148SOL    HW167036   8.185  10.290   2.041 -0.3661 -0.5622 -0.6230
21148SOL    HW267037   8.273  10.174   1.999  0.4555  0.0904 -0.7177
21149SOL     OW67038   5.824   1.781   7.238  0.2316 -0.4399 -0.4989
21149SOL    HW167039   5.813   1.763   7.332  1.9319  0.8110 -0.0137
21149SOL    HW267040   5.738   1.810   7.209 -0.1980 -0.3660  0.8002
21150SOL     OW67041   1.052   8.529  10.575 -0.1186  0.1299 -0.6050
21150SOL    HW167042   1.072   8.450  10.525  1.1923  0.0529 -0.0170
21150SOL    HW267043   1.033   8.595  10.508 -0.3283 -0.4497 -1.1299
21151SOL     OW67044   8.757   8.742   6.220  0.0746 -0.1877 -0.1985
21151SOL    HW167045   8.689   8.798   6.182  0.6445  1.2425  0.8024
21151SOL    HW267046   8.741   8.656   6.183 -0.6534  0.6919 -2.0502
21152SOL     OW67047   0.212   3.294   5.259 -0.4122  0.2946  0.3704
21152SOL    HW167048   0.207   3.384   5.290  2.5967  0.9381 -0.7151
21152SOL    HW267049   0.264   3.249   5.324  1.8425  0.4918 -1.1989
21153SOL     OW67050   9.614   6.032  10.350 -0.0463  0.6079 -0.2834
21153SOL    HW167051   9.583   6.081  10.274 -0.0461 -0.6340 -1.1191
21153SOL    HW267052   9.589   6.085  10.425 -2.8959  0.3918 -0.9822
21154SOL     OW67053   2.720   6.471   8.583 -0.1001  0.4494  0.0243
21154SOL    HW167054   2.759   6.522   8.654  0.8035 -0.8926  0.5312
21154SOL    HW267055   2.636   6.514   8.566  0.1166  1.3994  1.2069
21155SOL     OW67056   6.779   0.913   7.488 -0.4218  0.0024 -0.4640
21155SOL    HW167057   6.750   0.905   7.397  0.6042 -1.7191 -0.6763
21155SOL    HW267058   6.705   0.880   7.539  0.1980 -2.2050 -0.8867
21156SOL     OW67059   5.192   7.032   8.171 -0.4749 -0.1586 -0.2594
21156SOL    HW167060   5.268   7.004   8.223  0.1719  0.6827 -0.7232
21156SOL    HW267061   5.140   6.953   8.160 -0.1179 -0.5653  0.8182
21157SOL     OW67062   2.043  10.204   6.539 -0.4283  0.1008 -0.1739
21157SOL    HW167063   1.979  10.149   6.494 -1.3346 -0.4634  1.7162
21157SOL    HW267064   2.102  10.142   6.582  0.5460  0.6325 -0.6882
21158SOL     OW67065   9.924   2.346   6.346 -0.3566  0.2094 -0.2855
21158SOL    HW167066   9.912   2.364   6.253  0.3620 -0.1335 -0.4424
21158SOL    HW267067   9.955   2.256   6.350 -0.0085  0.3515  0.2654
21159SOL     OW67068   5.829   2.728   7.735 -0.2366  0.0377 -0.7140
21159SOL    HW167069   5.783   2.645   7.725  0.9297 -0.5027 -1.8771
21159SOL    HW267070   5.922   2.706   7.723  0.0172  1.6402 -2.1449
21160SOL     OW67071   4.875   5.386   0.247  0.6146  0.2385  0.3532
21160SOL    HW167072   4.792   5.399   0.200  0.0144  0.6355  1.4845
21160SOL    HW267073   4.925   5.327   0.191 -0.2768  0.3049 -0.5431
21161SOL     OW67074   1.475   9.317   6.054 -0.0365 -0.1506  0.0221
21161SOL    HW167075   1.463   9.223   6.062  0.2962 -0.3318 -1.3104
21161SOL    HW267076   1.433   9.354   6.131 -0.1032 -1.3911  0.5949
21162SOL     OW67077   7.006  10.252   7.128  0.4495 -0.4199 -0.2527
21162SOL    HW167078   6.991  10.160   7.149  0.3107 -0.7280 -1.6334
21162SOL    HW267079   7.095  10.255   7.094  0.7955  0.1274  0.6750
21163SOL     OW67080   8.128   0.470   2.828 -0.1199  0.3621  0.3827
21163SOL    HW167081   8.051   0.519   2.856  0.0283  0.9324 -0.1913
21163SOL    HW267082   8.148   0.412   2.902 -1.9915 -0.8983 -0.0166
21164SOL     OW67083  10.427   5.913   8.335 -0.3516  0.1254  0.1171
21164SOL    HW167084  10.333   5.895   8.322 -0.3481 -0.2626  0.5764
21164SOL    HW267085  10.445   5.989   8.281 -1.4767  1.7263  1.8818
21165SOL     OW67086   1.990   1.319   1.344  0.1578  0.1122  0.6590
21165SOL    HW167087   2.013   1.254   1.277  0.4084  3.1194 -2.3918
21165SOL    HW267088   1.904   1.291   1.375  0.3749 -1.8149 -0.2957
21166SOL     OW67089   8.308   8.782   7.704  0.3778  0.0076 -0.4170
21166SOL    HW167090   8.281   8.873   7.717 -1.2776 -0.6124  0.9415
21166SOL    HW267091   8.318   8.774   7.609  0.1627  1.5069 -0.5952
21167SOL     OW67092   9.168   6.855   6.764  0.2083 -0.3707  0.4360
21167SOL    HW167093   9.249   6.904   6.772  0.1739  0.4590 -2.9053
21167SOL    HW267094   9.175   6.786   6.830  2.4486  1.1647  1.9290
21168SOL     OW67095   1.853   9.274  10.686 -0.2324 -0.3491 -0.1391
21168SOL    HW167096   1.834   9.351  10.740 -0.3843 -0.3839 -0.1438
21168SOL    HW267097   1.915   9.224  10.739  0.0305 -0.1222 -0.2270
21169SOL     OW67098   0.198   1.098   7.119 -0.2318 -0.2033  0.3478
21169SOL    HW167099   0.255   1.062   7.188 -1.2745  1.5579  2.2427
21169SOL    HW267100   0.245   1.176   7.089 -0.5661 -0.0367  0.2617
21170SOL     OW67101   9.300   1.423   6.181 -0.5351  0.4935 -0.4452
21170SOL    HW167102   9.341   1.509   6.191 -0.8523  0.7450 -1.2259
21170SOL    HW267103   9.252   1.429   6.099 -0.2149 -0.5729 -0.7301
21171SOL     OW67104   9.398   7.433   1.921  0.3874  0.0607  0.3957
21171SOL    HW167105   9.455   7.369   1.964 -0.2220 -0.6551  0.1648
21171SOL    HW267106   9.355   7.384   1.851  1.9271  1.3594 -1.5925
21172SOL     OW67107   5.052   2.045   0.212 -0.2568 -0.3664  0.1731
21172SOL    HW167108   5.106   2.113   0.253  0.0400 -0.5904  0.1560
21172SOL    HW267109   5.051   1.974   0.276  0.0346 -0.6340 -0.1163
21173SOL     OW67110   3.847   5.068   9.033  0.0076 -0.2914  0.3796
21173SOL    HW167111   3.859   4.974   9.030 -2.6810 -0.7209  0.5159
21173SOL    HW267112   3.807   5.085   9.118 -1.9839  0.5727 -0.6562
21174SOL     OW67113   2.831   7.079   8.523 -0.0090  0.0223 -0.1226
21174SOL    HW167114   2.820   7.119   8.609 -0.7962  2.4566 -1.2701
21174SOL    HW267115   2.925   7.059   8.519  0.1405  0.3478  1.1019
21175SOL     OW67116   0.413   2.505   6.863  0.1714 -0.1929  0.0380
21175SOL    HW167117   0.338   2.564   6.860  0.1663 -0.1769 -2.8925
21175SOL    HW267118   0.382   2.429   6.912 -0.6249  1.1354  1.7032
21176SOL     OW67119   5.377   1.445   5.795 -0.2325 -0.2714  0.2275
21176SOL    HW167120   5.374   1.400   5.711 -0.7934  1.8666 -0.9547
21176SOL    HW267121   5.308   1.403   5.847  0.6909 -2.2008 -0.0061
21177SOL     OW67122   3.504   6.992   5.484 -0.1899  0.4687  0.1397
21177SOL    HW167123   3.597   7.012   5.496  0.1415 -0.0940 -1.2463
21177SOL    HW267124   3.458   7.073   5.507  0.7785  1.3402 -0.9240
21178SOL     OW67125   5.343   6.424   7.444 -0.6393  0.1429  0.7534
21178SOL    HW167126   5.254   6.455   7.426 -0.6976 -1.1649 -1.5347
21178SOL    HW267127   5.399   6.489   7.402 -0.6361 -0.5445 -0.3420
21179SOL     OW67128   3.690   4.635   2.386 -0.0427  0.3561 -0.0104
21179SOL    HW167129   3.677   4.698   2.456 -1.4291  0.3514 -0.2400
21179SOL    HW267130   3.606   4.591   2.377  0.1511  0.2384 -1.5601
21180SOL     OW67131   3.073   2.166   4.760  0.2908  0.0986  0.3174
21180SOL    HW167132   3.148   2.115   4.732 -0.4721 -0.9940  0.2182
21180SOL    HW267133   2.998   2.124   4.718 -0.2903  1.7688 -0.3994
21181SOL     OW67134   2.744  10.936   2.168  0.4107  0.0971  0.3945
21181SOL    HW167135   2.656  10.908   2.194 -1.4632  2.3546 -2.8320
21181SOL    HW267136   2.797  10.856   2.172 -2.7169 -2.2756 -1.1440
21182SOL     OW67137   3.014   2.433   8.951 -0.3665 -0.1247  0.1997
21182SOL    HW167138   2.927   2.395   8.964 -0.9826  0.5297 -1.6890
21182SOL    HW267139   3.045   2.395   8.870  0.6622  0.4633  0.3023
21183SOL     OW67140   9.044  11.060   4.294 -0.2512  0.0347  0.1161
21183SOL    HW167141   9.112  11.112   4.337 -1.1093  0.2693  1.2519
21183SOL    HW267142   9.044  10.977   4.342 -1.4689  0.4310  0.8646
21184SOL     OW67143   1.895   1.535  11.096 -0.1885 -0.0664  0.1484
21184SOL    HW167144   1.973   1.480  11.102  0.0256  0.0671 -1.1329
21184SOL    HW267145   1.822   1.474  11.099  0.0216 -0.3458 -0.2382
21185SOL     OW67146   2.717   1.317   0.864  0.6770  0.0332  0.0483
21185SOL    HW167147   2.706   1.227   0.831 -1.2129 -0.1260  0.9707
21185SOL    HW267148   2.704   1.372   0.787 -1.0539 -0.4123 -0.0106
21186SOL     OW67149   2.496  10.045   8.268 -0.0971  0.0538 -0.8510
21186SOL    HW167150   2.455  10.117   8.221  0.6374  0.5863 -0.6881
21186SOL    HW267151   2.446  10.037   8.349  0.1545  0.7424 -0.6234
21187SOL     OW67152   4.555   7.834   6.387  0.5813 -0.2297  0.0487
21187SOL    HW167153   4.591   7.827   6.476  0.8580  2.3282  0.1993
21187SOL    HW267154   4.530   7.744   6.365  1.1576 -1.0584  2.4214
21188SOL     OW67155   3.737  10.206   7.552 -0.6401 -0.6252  0.1583
21188SOL    HW167156   3.733  10.142   7.622 -1.9490 -1.8705 -0.9713
21188SOL    HW267157   3.803  10.172   7.492 -0.7576 -0.4996 -0.0446
21189SOL     OW67158   6.677  10.393   3.445  0.2677 -0.1662 -0.3399
21189SOL    HW167159   6.705  10.390   3.536 -2.4082 -0.0828  0.5706
21189SOL    HW267160   6.622  10.316   3.433  0.6851 -0.2622 -1.9555
21190SOL     OW67161   5.165   4.724   0.512 -0.4068 -0.3943 -0.3609
21190SOL    HW167162   5.257   4.704   0.525 -0.3771  0.9375  2.1899
21190SOL    HW267163   5.121   4.639   0.512  0.6315 -0.9445  0.2185
21191SOL     OW67164   2.126   1.025   7.330 -0.4547  0.2629 -0.0868
21191SOL    HW167165   2.153   0.963   7.263  1.6121  2.0497 -1.0213
21191SOL    HW267166   2.038   1.052   7.303 -1.3385 -2.0356  0.2612
21192SOL     OW67167   6.242   8.592   2.206 -0.0103 -0.2907  0.1793
21192SOL    HW167168   6.262   8.515   2.152  0.7432 -1.5253  2.1091
21192SOL    HW267169   6.149   8.585   2.225 -0.4701  0.6057 -1.5688
21193SOL     OW67170   4.111   2.819   8.120  0.0342  0.4723 -0.7372
21193SOL    HW167171   4.028   2.801   8.076  0.2805 -1.2033 -0.5796
21193SOL    HW267172   4.177   2.778   8.065  0.5916  0.4068 -0.0340
21194SOL     OW67173   0.448   2.725   5.856 -0.1114 -0.8110  0.0343
21194SOL    HW167174   0.516   2.791   5.846 -0.5633 -0.4695 -0.9596
21194SOL    HW267175   0.454   2.697   5.948 -1.6948  2.5899  1.3315
21195SOL     OW67176   7.722  10.804   1.947 -0.0863  0.2831 -0.0283
21195SOL    HW167177   7.740  10.842   1.861 -1.7202  1.7189  0.2175
21195SOL    HW267178   7.730  10.709   1.933  0.7417  0.5394 -1.4833
21196SOL     OW67179   1.628   6.011   7.502  0.0494  0.7475 -0.1676
21196SOL    HW167180   1.711   5.965   7.518  0.3556  1.7681  1.4061
21196SOL    HW267181   1.561   5.955   7.542 -0.0038  0.0999 -1.1254
21197SOL     OW67182   0.757   7.236   3.229  0.3481 -0.6032 -0.2800
21197SOL    HW167183   0.761   7.292   3.307  1.7934 -1.5333  0.3703
21197SOL    HW267184   0.736   7.149   3.262 -0.9787 -0.6582 -1.1793
21198SOL     OW67185   8.578   4.545   7.722  0.0446  0.6556  0.0951
21198SOL    HW167186   8.518   4.583   7.658 -0.5122  0.9852  0.7995
21198SOL    HW267187   8.527   4.538   7.802  0.7122  0.1885  0.4953
21199SOL     OW67188   9.045   0.031   9.875  0.4903  0.3151  0.4271
21199SOL    HW167189   8.956   0.041   9.842  1.0472 -0.9280 -1.6731
21199SOL    HW267190   9.044  -0.053   9.920  0.7139  0.0754 -0.0154
21200SOL     OW67191   3.794   6.615   1.688 -0.1437 -0.3550 -0.3697
21200SOL    HW167192   3.820   6.621   1.596 -1.8273  1.3635 -0.7969
21200SOL    HW267193   3.699   6.607   1.686 -0.1485 -1.0202  1.2287
21201SOL     OW67194   7.835   8.127   9.850  0.2407 -0.7752  0.4461
21201SOL    HW167195   7.843   8.186   9.776 -0.5722 -1.7531 -0.4477
21201SOL    HW267196   7.839   8.185   9.927  2.2585  0.1356 -0.2741
21202SOL     OW67197   6.702   8.407   2.431 -0.1911  0.2547  0.9332
21202SOL    HW167198   6.685   8.424   2.523 -0.5388  2.0340  0.5787
21202SOL    HW267199   6.797   8.401   2.424 -0.2084 -2.8148  1.8126
21203SOL     OW67200   1.017   6.122   3.478  0.0321  0.0587  0.4195
21203SOL    HW167201   1.013   6.034   3.442  1.6977 -0.3438  1.1442
21203SOL    HW267202   0.994   6.179   3.404  0.1712 -0.9099 -0.3909
21204SOL     OW67203   3.530   3.564   7.820  0.1785  0.1532 -0.1226
21204SOL    HW167204   3.603   3.608   7.864  0.4541  1.6951 -1.9959
21204SOL    HW267205   3.463   3.632   7.812 -1.4769 -1.1896  1.4263
21205SOL     OW67206   5.163   9.087  10.448 -0.9823 -0.6153 -0.5606
21205SOL    HW167207   5.094   9.034  10.408 -1.4121 -1.1844  0.8598
21205SOL    HW267208   5.237   9.027  10.459 -1.0972 -0.6544  0.0691
21206SOL     OW67209   6.481  10.425   7.858 -0.1155 -0.1141  0.1198
21206SOL    HW167210   6.401  10.477   7.861 -0.2389 -0.2462 -0.6808
21206SOL    HW267211   6.513  10.435   7.768  1.1769  0.5404  0.6180
21207SOL     OW67212   5.414   9.890   7.502 -0.2451 -0.3661 -0.7033
21207SOL    HW167213   5.364   9.962   7.464 -0.8726 -0.0712  0.6098
21207SOL    HW267214   5.478   9.867   7.435 -0.1769  1.2491 -1.2380
21208SOL     OW67215   2.024   8.922   4.742  0.2050 -0.3465  0.5819
21208SOL    HW167216   1.934   8.917   4.774 -0.5399 -1.8588 -1.5798
21208SOL    HW267217   2.068   8.847   4.783  0.5008  0.3378  1.5622
21209SOL     OW67218   0.876   0.507   0.091  0.3900 -0.1562 -0.1128
21209SOL    HW167219   0.895   0.414   0.103  1.1228 -0.0190 -0.1501
21209SOL    HW267220   0.943   0.537   0.030  0.5359  0.5367  0.3831
21210SOL     OW67221   9.498   7.279   4.358 -0.5264 -0.3715 -0.1753
21210SOL    HW167222   9.541   7.195   4.342  2.4869  0.7153  1.4707
21210SOL    HW267223   9.533   7.337   4.290  0.7352  0.5388  1.1920
21211SOL     OW67224   5.849   0.382   4.269  0.0201 -0.0691 -0.1377
21211SOL    HW167225   5.795   0.334   4.331  0.1067 -1.0670 -0.8090
21211SOL    HW267226   5.793   0.453   4.238 -0.7108 -0.7340 -0.3799
21212SOL     OW67227  10.832   3.712  10.514 -0.2025  0.3037 -0.1017
21212SOL    HW167228  10.800   3.745  10.429  1.7730  1.5759 -0.4289
21212SOL    HW267229  10.848   3.619  10.499  2.5290  0.9481 -2.0345
21213SOL     OW67230   2.846   7.724   4.497  0.0792  0.1481  0.4167
21213SOL    HW167231   2.881   7.797   4.549  2.1627  0.8868 -1.8582
21213SOL    HW267232   2.764   7.757   4.462 -0.2865  0.4155  1.4903
21214SOL     OW67233   6.992   8.860   1.112  1.0131 -0.0564 -0.2420
21214SOL    HW167234   7.061   8.847   1.178 -0.8908 -0.5806  1.7736
21214SOL    HW267235   6.933   8.924   1.151  0.3958  0.4820 -1.9761
21215SOL     OW67236   7.573  10.357   3.982  0.0122  0.5139 -0.6106
21215SOL    HW167237   7.499  10.381   4.037  1.4451 -1.0166  2.1541
21215SOL    HW267238   7.631  10.433   3.985 -0.0740  0.5667 -0.3106
21216SOL     OW67239   0.865  10.425   4.958 -0.3213 -0.1650 -0.8810
21216SOL    HW167240   0.808  10.490   4.998 -0.9958 -0.1622 -1.8276
21216SOL    HW267241   0.947  10.432   5.008 -0.1631  1.8293 -1.3317
21217SOL     OW67242   9.358   2.791  10.768 -0.2888 -0.4277 -0.4134
21217SOL    HW167243   9.431   2.740  10.802 -1.5638 -1.0016  1.6308
21217SOL    HW267244   9.360   2.775  10.674  2.2733 -0.3038 -0.4503
21218SOL     OW67245  10.843   1.932   1.705 -0.0709  0.1498  0.4605
21218SOL    HW167246  10.826   1.839   1.722  0.8396 -0.0215  0.4858
21218SOL    HW267247  10.759   1.967   1.678 -0.5369 -0.5789  0.9247
21219SOL     OW67248   6.757   6.657   1.966  0.2924 -0.4010  0.4320
21219SOL    HW167249   6.738   6.564   1.972 -0.6513 -0.3635 -1.3790
21219SOL    HW267250   6.833   6.663   1.908  1.4617 -0.0966  1.9114
21220SOL     OW67251   6.949   4.379   9.662 -0.3526  0.2789 -0.0774
21220SOL    HW167252   6.996   4.341   9.589 -0.9164 -0.1641 -0.2191
21220SOL    HW267253   6.971   4.472   9.659 -0.0520  0.1961 -0.5610
21221SOL     OW67254   9.113   9.159   6.709 -0.2687  0.4959  1.2146
21221SOL    HW167255   9.071   9.234   6.750 -0.6326  1.0197 -0.0916
21221SOL    HW267256   9.167   9.196   6.640 -0.3810 -0.4266  0.6138
21222SOL     OW67257   9.466  10.598   0.977  0.7220 -0.6954  0.0398
21222SOL    HW167258   9.521  10.538   1.028  1.8381  0.5768  0.4053
21222SOL    HW267259   9.390  10.614   1.033  0.2938 -1.8937 -0.1541
21223SOL     OW67260   3.162   0.259   5.200  0.2946 -0.2784  0.1154
21223SOL    HW167261   3.114   0.294   5.125 -0.9911  1.5956  1.6976
21223SOL    HW267262   3.097   0.208   5.248  0.8705 -0.7305  0.4246
21224SOL     OW67263   1.459   8.233   6.616 -0.1481 -0.1749 -0.5546
21224SOL    HW167264   1.431   8.289   6.689  0.3714 -0.5178 -0.0822
21224SOL    HW267265   1.425   8.276   6.538  0.6201  1.0391 -0.2340
21225SOL     OW67266   9.868   3.277   0.403  0.2215  0.4537 -0.1426
21225SOL    HW167267   9.892   3.345   0.340 -0.6928  0.8218 -0.1061
21225SOL    HW267268   9.835   3.205   0.349 -0.6326  0.7978 -0.0994
21226SOL     OW67269   8.348  10.206   9.316  0.1004  0.6675  0.2819
21226SOL    HW167270   8.439  10.193   9.340  0.3371  0.2878 -0.7439
21226SOL    HW267271   8.333  10.144   9.244 -0.5086  1.7802 -0.5987
21227SOL     OW67272   9.553   6.517   2.773 -0.0335  0.3843  0.2496
21227SOL    HW167273   9.634   6.541   2.817 -0.0971  0.5574  0.2732
21227SOL    HW267274   9.576   6.512   2.681 -0.1168  0.9600  0.1940
21228SOL     OW67275  10.632   2.694   9.244  0.2409  0.2995  0.9128
21228SOL    HW167276  10.539   2.709   9.230 -0.2619 -0.9651  2.6163
21228SOL    HW267277  10.642   2.599   9.241  1.8410  0.4639 -1.1726
21229SOL     OW67278   3.794   6.554   7.730  0.3975  0.2566 -0.5766
21229SOL    HW167279   3.870   6.522   7.778  0.2773  1.7376  0.6556
21229SOL    HW267280   3.742   6.475   7.713  1.4286 -0.5601 -0.0637
21230SOL     OW67281   6.665   6.581   6.023  0.2917  0.2006 -0.5465
21230SOL    HW167282   6.759   6.572   6.012  0.4933  0.0194  1.1277
21230SOL    HW267283   6.644   6.526   6.098 -1.3848 -0.9198 -1.7432
21231SOL     OW67284   1.767   4.739   8.033  0.0122 -0.0454 -0.0792
21231SOL    HW167285   1.718   4.658   8.044  0.6680 -0.2216  2.1795
21231SOL    HW267286   1.702   4.803   8.005 -1.0532 -0.7894  0.6101
21232SOL     OW67287   1.653   8.732   7.448  0.3331  0.0633 -0.0316
21232SOL    HW167288   1.671   8.639   7.465 -1.5546 -0.3989 -0.3579
21232SOL    HW267289   1.558   8.736   7.437  0.1398  2.3437  1.8311
21233SOL     OW67290   4.305   2.673   0.940 -0.0310 -0.3127 -0.3019
21233SOL    HW167291   4.343   2.597   0.984  0.6521  0.2478  0.0861
21233SOL    HW267292   4.318   2.655   0.846  0.5929 -0.4289 -0.1928
21234SOL     OW67293   9.940   8.098   4.973 -0.2904  0.2271  0.0534
21234SOL    HW167294   9.990   8.050   4.907 -0.0962  0.7694 -0.1974
21234SOL    HW267295   9.892   8.030   5.021  0.4474 -0.2721  0.1005
21235SOL     OW67296   7.136   5.757  10.487  0.6531  0.4097  0.2864
21235SOL    HW167297   7.084   5.772  10.566  0.3152 -0.0209  0.1487
21235SOL    HW267298   7.219   5.800  10.505  2.2242 -3.1161  2.6319
21236SOL     OW67299  10.260   9.119   3.707  0.1627  0.2368 -0.5765
21236SOL    HW167300  10.197   9.102   3.777  1.4895  0.4702  0.7194
21236SOL    HW267301  10.210   9.169   3.641 -1.6542 -1.7355 -0.7975
21237SOL     OW67302   1.141   9.724   7.040 -0.0008 -1.0312  0.1604
21237SOL    HW167303   1.046   9.718   7.037  0.0216 -1.2776 -0.0083
21237SOL    HW267304   1.170   9.707   6.951  0.0921  1.1894 -0.3080
21238SOL     OW67305   1.347   1.478  11.105 -0.5042 -0.5837 -0.3596
21238SOL    HW167306   1.292   1.551  11.076  0.2436  0.3956  0.6241
21238SOL    HW267307   1.306   1.401  11.065 -0.8661  0.4254 -2.0645
21239SOL     OW67308   1.534   9.950  10.668  0.1894  0.4845 -0.1174
21239SOL    HW167309   1.601   9.993  10.615  2.6489  1.3298  3.2820
21239SOL    HW267310   1.503  10.019  10.727 -1.7387 -0.5797  0.2101
21240SOL     OW67311   7.518   3.816   2.430  0.0753 -0.2856 -0.8086
21240SOL    HW167312   7.587   3.841   2.491 -0.8383  0.2940  0.0114
21240SOL    HW267313   7.494   3.897   2.386 -0.3314 -0.4130 -0.8239
21241SOL     OW67314  10.721   9.931   0.976  0.3707  0.8317  0.4490
21241SOL    HW167315  10.734   9.978   0.894  1.1226 -1.4604 -0.8610
21241SOL    HW267316  10.635   9.891   0.968  1.0724 -0.6791  0.0175
21242SOL     OW67317   3.900   8.206   5.956 -0.0532 -0.0337 -0.2425
21242SOL    HW167318   3.946   8.275   6.005  0.0135 -0.3791  0.1903
21242SOL    HW267319   3.915   8.228   5.864 -0.6237  0.9291 -0.1249
21243SOL     OW67320   2.646   3.330   7.538 -0.4264  0.1490 -0.4342
21243SOL    HW167321   2.597   3.256   7.572 -2.6468  0.9064 -1.7346
21243SOL    HW267322   2.644   3.395   7.608 -1.1081  0.0674 -0.3696
21244SOL     OW67323   0.420   2.577   1.585  0.3468 -0.1800  0.1676
21244SOL    HW167324   0.506   2.541   1.564  1.0587  1.0942  0.8121
21244SOL    HW267325   0.367   2.500   1.606  1.2328 -1.0049 -0.4903
21245SOL     OW67326   3.609   7.780   3.844  0.2824 -0.3828  0.1895
21245SOL    HW167327   3.622   7.790   3.939  0.2401 -2.0008  0.3862
21245SOL    HW267328   3.697   7.763   3.810  0.0991 -1.2719  0.1463
21246SOL     OW67329   1.643   9.325   9.159  0.0909 -0.2226 -0.3080
21246SOL    HW167330   1.638   9.266   9.084 -0.4427 -0.1929 -0.2948
21246SOL    HW267331   1.716   9.290   9.211 -0.0404 -0.7067 -0.4445
21247SOL     OW67332   1.131   9.397   7.373 -0.4202 -0.4487  0.0328
21247SOL    HW167333   1.072   9.468   7.399  0.2666 -0.0880  0.6111
21247SOL    HW267334   1.093   9.319   7.415  0.8438  0.1604  2.5490
21248SOL     OW67335   7.929   8.297   8.986 -0.0632 -0.4375 -0.4544
21248SOL    HW167336   8.020   8.281   9.008 -0.2418  0.9717  1.5959
21248SOL    HW267337   7.928   8.309   8.891  2.3829  2.2159 -0.2810
21249SOL     OW67338   6.643   6.209   3.020  0.4306  0.4522  0.4712
21249SOL    HW167339   6.641   6.229   3.113 -3.1381 -2.8982  1.3932
21249SOL    HW267340   6.692   6.126   3.014  0.9002  0.7851 -0.7310
21250SOL     OW67341   9.038   7.221  11.069 -0.1184  0.6436 -0.5783
21250SOL    HW167342   9.014   7.230  11.161 -0.4975 -0.4133 -0.5533
21250SOL    HW267343   9.017   7.130  11.048  0.3535  0.7550 -1.5982
21251SOL     OW67344   4.198   7.192   5.387 -0.6224 -0.4367  0.2889
21251SOL    HW167345   4.262   7.121   5.401 -2.3111 -2.3336 -1.0201
21251SOL    HW267346   4.249   7.272   5.397  1.7471 -1.8415  0.2650
21252SOL     OW67347  10.204   6.610   6.299  0.2658  0.0710  0.2843
21252SOL    HW167348  10.267   6.563   6.245 -1.1367 -1.4515 -0.1167
21252SOL    HW267349  10.163   6.673   6.239  0.5601  0.2351  0.2531
21253SOL     OW67350   5.879   6.601   4.469  0.5421 -0.3938 -1.0747
21253SOL    HW167351   5.843   6.657   4.400 -0.8363  0.2323  0.0900
21253SOL    HW267352   5.973   6.615   4.465  0.3349  0.9881 -1.6904
21254SOL     OW67353   2.138   1.572   8.335  0.3736 -0.6414 -0.0975
21254SOL    HW167354   2.176   1.540   8.254  1.4327  0.7338 -0.1892
21254SOL    HW267355   2.214   1.594   8.390 -0.2435  1.5417 -0.0199
21255SOL     OW67356   9.512   9.751   1.108  0.2343 -0.2476 -0.0808
21255SOL    HW167357   9.496   9.814   1.038 -0.0465 -0.9524 -0.6603
21255SOL    HW267358   9.578   9.794   1.164 -0.1115  0.6446 -0.3387
21256SOL     OW67359  10.769   3.608   4.872 -0.0379  0.3295 -0.4041
21256SOL    HW167360  10.781   3.693   4.914  0.6018  0.8088 -1.5245
21256SOL    HW267361  10.824   3.611   4.794  0.5394 -1.3773 -0.1139
21257SOL     OW67362   0.311  10.143   0.423  0.5029  0.0746 -0.2149
21257SOL    HW167363   0.326  10.235   0.399 -0.1965  0.0361 -0.8301
21257SOL    HW267364   0.227  10.144   0.469 -0.9209 -0.6078 -2.6170
21258SOL     OW67365  10.241   6.582   1.067  0.1207 -0.6528  0.3242
21258SOL    HW167366  10.211   6.497   1.099 -0.0246 -1.2155 -1.2085
21258SOL    HW267367  10.245   6.572   0.971  2.3595  0.3168  0.2447
21259SOL     OW67368   0.848   4.876   8.925  0.1852  0.3880  0.5580
21259SOL    HW167369   0.806   4.921   8.852 -1.3374 -0.0353  1.1395
21259SOL    HW267370   0.813   4.787   8.923 -0.4092  0.5509  2.1904
21260SOL     OW67371   6.183  10.420   1.799  0.3002  0.4287 -0.2658
21260SOL    HW167372   6.152  10.388   1.883 -0.3104  0.3401 -0.5172
21260SOL    HW267373   6.147  10.509   1.793 -0.4853  0.0839 -0.8520
21261SOL     OW67374   2.611   0.702   1.212  0.2488  0.1898  0.5222
21261SOL    HW167375   2.684   0.753   1.176  1.4344 -0.8304  1.4132
21261SOL    HW267376   2.559   0.677   1.135  0.0329  2.0554 -0.0068
21262SOL     OW67377   3.253   4.711   3.590  0.2735 -0.0664 -0.0193
21262SOL    HW167378   3.333   4.659   3.582 -1.3900 -2.5833 -2.0591
21262SOL    HW267379   3.253   4.768   3.513  1.1533  1.6864  1.2088
21263SOL     OW67380   7.707   7.044  10.965 -0.1396 -0.2025  0.1703
21263SOL    HW167381   7.727   6.969  11.021  0.8916 -0.9355 -1.1196
21263SOL    HW267382   7.614   7.035  10.945 -0.1806 -0.7449  0.5850
21264SOL     OW67383   9.434   5.544  10.091  0.0150  0.4492  0.0768
21264SOL    HW167384   9.409   5.626  10.047  1.7813  0.6268 -0.6967
21264SOL    HW267385   9.525   5.557  10.115  0.1546 -1.0944  0.4674
21265SOL     OW67386   0.284   4.139   1.805  0.0132  0.2266  0.3015
21265SOL    HW167387   0.313   4.228   1.783 -0.0471  0.0136 -0.6899
21265SOL    HW267388   0.363   4.096   1.839  0.8832 -0.2586 -2.0918
21266SOL     OW67389   1.985   1.767   0.093  0.2414 -0.4394  0.0521
21266SOL    HW167390   2.077   1.764   0.067  0.7771 -1.0193  1.9036
21266SOL    HW267391   1.952   1.679   0.074  0.4547 -0.6636  0.7182
21267SOL     OW67392   9.492   3.718   5.404  0.0527 -0.3733  0.0588
21267SOL    HW167393   9.430   3.711   5.331  1.2626  0.2440 -1.0774
21267SOL    HW267394   9.441   3.695   5.481 -0.9558 -2.4526 -1.1248
21268SOL     OW67395   0.480   3.740   9.904  0.5694 -0.2078 -0.3727
21268SOL    HW167396   0.571   3.766   9.918  0.0117  1.1466  1.0594
21268SOL    HW267397   0.482   3.644   9.910  1.5642 -0.1161  2.2406
21269SOL     OW67398   8.783   5.764   3.626 -0.0705 -0.1794  0.3427
21269SOL    HW167399   8.812   5.691   3.572  1.4699  2.0103 -2.0136
21269SOL    HW267400   8.709   5.802   3.579 -1.5880 -0.7590  2.1052
21270SOL     OW67401   2.348   4.346   1.689  0.5319 -0.4321  0.1978
21270SOL    HW167402   2.284   4.381   1.750  0.7140 -0.1703  0.2406
21270SOL    HW267403   2.421   4.408   1.692  0.3072 -0.1126 -0.7059
21271SOL     OW67404   0.705   7.472   5.209 -0.3582 -0.0548  0.6668
21271SOL    HW167405   0.785   7.521   5.189  1.1314 -1.8285  1.9295
21271SOL    HW267406   0.657   7.471   5.126  1.3042  0.3997 -0.3632
21272SOL     OW67407   2.943   8.578   5.356  0.5761 -0.2926  0.1156
21272SOL    HW167408   2.856   8.553   5.325  1.0754  0.9741 -2.5754
21272SOL    HW267409   2.969   8.507   5.415 -0.6829 -2.7362 -2.0862
21273SOL     OW67410   4.574   6.749  10.042 -0.2372 -0.0147 -0.0106
21273SOL    HW167411   4.608   6.679   9.986  2.6094  1.6722 -0.5756
21273SOL    HW267412   4.576   6.827   9.987  0.8985  1.3555  1.8681
21274SOL     OW67413   6.619  10.335   6.580  0.1296 -0.5754  0.2728
21274SOL    HW167414   6.666  10.327   6.497  0.6225 -0.4567  0.5377
21274SOL    HW267415   6.540  10.384   6.558  0.1048 -0.8141 -0.1860
21275SOL     OW67416  10.018   7.351   1.280  0.1724  0.2644 -0.2804
21275SOL    HW167417  10.060   7.396   1.353 -1.6134 -0.8819  1.5545
21275SOL    HW267418   9.959   7.416   1.242 -1.1850  0.0332  1.3206
21276SOL     OW67419   5.005   4.273   9.294  0.3969  0.1401 -0.4139
21276SOL    HW167420   4.982   4.182   9.277  1.7409 -0.3123  0.0918
21276SOL    HW267421   5.100   4.274   9.302  0.3070  1.2703  1.2749
21277SOL     OW67422   6.315  10.738   1.786 -0.1915  0.7767  0.0328
21277SOL    HW167423   6.355  10.669   1.734  0.2877  0.2671  1.0458
21277SOL    HW267424   6.222  10.716   1.790 -0.5550  1.6980 -1.9209
21278SOL     OW67425   0.869   4.524   7.832 -0.3236  0.0718 -0.1794
21278SOL    HW167426   0.935   4.546   7.897 -0.4179 -0.1624 -0.0010
21278SOL    HW267427   0.899   4.566   7.752 -1.1733  1.9575  0.4409
21279SOL     OW67428   6.285   0.895   9.260  0.1173  0.0241  0.1613
21279SOL    HW167429   6.189   0.900   9.259  0.0657 -0.7981 -0.9810
21279SOL    HW267430   6.306   0.850   9.341 -0.5774 -1.4459 -0.4428
21280SOL     OW67431   2.056   7.983   5.062 -0.0058 -0.1443  0.3075
21280SOL    HW167432   1.987   7.964   5.125 -1.4859  2.6947 -0.2912
21280SOL    HW267433   2.128   8.019   5.115 -1.7703  3.5827  0.4532
21281SOL     OW67434   3.278   4.828   5.768 -0.5195 -0.4643 -0.0597
21281SOL    HW167435   3.217   4.854   5.700 -1.4217  1.2791  1.3278
21281SOL    HW267436   3.232   4.847   5.850  0.6473 -2.1751  1.0713
21282SOL     OW67437   2.939   5.934  10.002  0.1514  0.0669  0.5975
21282SOL    HW167438   2.857   5.889  10.021 -0.6370  1.3972  0.5239
21282SOL    HW267439   2.997   5.911  10.074 -0.5498 -0.2932  1.0576
21283SOL     OW67440  10.335  10.202   6.701 -0.8206 -0.3164  0.6220
21283SOL    HW167441  10.387  10.218   6.780 -2.4244 -0.0589  1.6894
21283SOL    HW267442  10.354  10.111   6.678 -0.8526 -0.6240  1.7392
21284SOL     OW67443   0.630   3.535   8.941  1.0001  0.2045  0.1703
21284SOL    HW167444   0.661   3.546   8.851  0.2786 -0.0306 -0.1115
21284SOL    HW267445   0.696   3.580   8.994 -0.5068  3.7971 -0.7143
21285SOL     OW67446   2.272   9.975   9.989 -0.4451  0.4772  0.3906
21285SOL    HW167447   2.231   9.898  10.029 -0.6922 -0.4902 -1.5803
21285SOL    HW267448   2.345   9.996  10.047 -0.3534 -1.2843  0.9772
21286SOL     OW67449  10.671   2.498   7.418 -0.0735 -0.0516 -0.6351
21286SOL    HW167450  10.760   2.469   7.401 -0.0014 -0.3683  0.2056
21286SOL    HW267451  10.641   2.536   7.336  1.1517  0.8901 -0.6725
21287SOL     OW67452   8.015   6.585   2.871  0.3419 -0.1793 -0.2934
21287SOL    HW167453   8.009   6.678   2.852 -0.3428  0.4854  2.7836
21287SOL    HW267454   8.103   6.573   2.908 -0.6019 -0.1212  2.0917
21288SOL     OW67455   4.991   8.900   7.848 -0.0449  0.2916 -0.0451
21288SOL    HW167456   5.039   8.826   7.811 -1.3212 -0.3615 -0.4542
21288SOL    HW267457   5.051   8.937   7.912  0.5240 -1.2782  0.3858
21289SOL     OW67458   8.304   3.761   7.480 -0.0530 -0.6602  0.0257
21289SOL    HW167459   8.279   3.777   7.571 -1.5844 -4.6987  0.5295
21289SOL    HW267460   8.399   3.771   7.479  0.0283 -0.7614  2.1334
21290SOL     OW67461   6.352   6.634   9.438 -0.5541 -0.3778 -0.2484
21290SOL    HW167462   6.428   6.682   9.406 -1.0098 -1.0510 -2.5277
21290SOL    HW267463   6.384   6.585   9.514  0.9638  0.2796 -0.4308
21291SOL     OW67464  10.032   7.436   3.599  0.1554  0.0687  0.4612
21291SOL    HW167465  10.017   7.345   3.626 -0.6760  0.2002  0.4684
21291SOL    HW267466   9.956   7.484   3.631 -0.4532  0.3850 -1.3266
21292SOL     OW67467   2.460   1.102   0.065 -0.1362 -0.1350 -0.6184
21292SOL    HW167468   2.527   1.148   0.116  0.7261 -0.8629 -1.0552
21292SOL    HW267469   2.433   1.165  -0.002  0.0667  0.1890 -0.3953
21293SOL     OW67470   7.771   5.000   2.427  0.4884  0.5196  0.1244
21293SOL    HW167471   7.739   5.057   2.497  0.7839  1.8984 -0.8054
21293SOL    HW267472   7.862   5.027   2.414  0.3143  0.5979 -1.0583
21294SOL     OW67473   8.449   2.419   6.798 -0.3129  0.6044 -0.9041
21294SOL    HW167474   8.418   2.506   6.823 -0.1607  0.4616 -0.1903
21294SOL    HW267475   8.542   2.432   6.779  0.2126  0.2444  1.1943
21295SOL     OW67476   7.174   2.660   8.614 -0.1084  0.3486 -0.2863
21295SOL    HW167477   7.211   2.713   8.543  1.1081  0.2859  0.2654
21295SOL    HW267478   7.130   2.723   8.671 -0.1382  0.5407 -0.5231
21296SOL     OW67479   2.415   8.786   3.600 -0.3723 -0.0611  0.3825
21296SOL    HW167480   2.462   8.838   3.665 -1.1957 -0.0577  0.9973
21296SOL    HW267481   2.332   8.764   3.643 -0.5462 -0.8442 -0.3294
21297SOL     OW67482   0.063   1.057   2.424 -0.8676 -0.2734  0.2144
21297SOL    HW167483   0.098   1.136   2.383 -2.4408  1.4421  1.9284
21297SOL    HW267484   0.121   1.040   2.498  0.1110 -1.4452 -0.7826
21298SOL     OW67485   8.219   1.302   9.703  0.5884 -0.1270 -0.3956
21298SOL    HW167486   8.288   1.265   9.648  1.6147  0.9498  0.1150
21298SOL    HW267487   8.266   1.351   9.771 -0.6829  0.7224 -0.0916
21299SOL     OW67488  10.142   6.953   2.526 -0.0027 -0.4742  0.1633
21299SOL    HW167489  10.149   6.867   2.484 -1.0970 -0.9314  0.8630
21299SOL    HW267490  10.186   7.012   2.466 -0.2719 -1.3393 -0.9300
21300SOL     OW67491   5.855   7.404   9.387 -0.1790  0.4779 -0.6333
21300SOL    HW167492   5.921   7.335   9.384  1.4949  1.9409  0.2910
21300SOL    HW267493   5.829   7.408   9.479 -0.8981  0.5243 -0.8357
21301SOL     OW67494   7.705   9.246   6.418 -0.6052 -0.0586 -0.1000
21301SOL    HW167495   7.651   9.246   6.339 -1.0228 -0.3228  0.1827
21301SOL    HW267496   7.767   9.319   6.405 -1.9234  1.1529  0.1679
21302SOL     OW67497   8.745   2.668   1.952 -0.0735  0.3298 -0.5730
21302SOL    HW167498   8.705   2.746   1.992 -0.5099 -1.2812  2.4304
21302SOL    HW267499   8.680   2.640   1.887 -1.7527  0.4095  0.9594
21303SOL     OW67500   6.618   4.858   3.999  0.1864  0.0756  0.0225
21303SOL    HW167501   6.546   4.815   3.953  0.9031  0.4240 -1.4651
21303SOL    HW267502   6.691   4.855   3.938  1.6705 -0.8592  1.7410
21304SOL     OW67503   1.394  10.745   5.190  0.0905 -0.1516 -0.1727
21304SOL    HW167504   1.386  10.736   5.285  0.1911 -3.7632 -0.3805
21304SOL    HW267505   1.313  10.706   5.156  0.8059 -0.4364 -1.6075
21305SOL     OW67506   8.144   6.557   9.213  0.7036  0.5450 -0.1305
21305SOL    HW167507   8.053   6.560   9.183  0.8463  1.4785 -0.4749
21305SOL    HW267508   8.174   6.469   9.190 -0.0087  0.3497 -0.3213
21306SOL     OW67509   6.204   6.000   4.945  0.1392  0.1356  0.1679
21306SOL    HW167510   6.263   5.934   4.907 -1.2109 -1.0644  0.0558
21306SOL    HW267511   6.145   5.950   5.001 -0.1968  1.4293  1.0159
21307SOL     OW67512   0.490   7.613   8.663 -0.2811  0.1957 -0.3277
21307SOL    HW167513   0.544   7.592   8.587 -1.1717  1.6529 -1.4221
21307SOL    HW267514   0.531   7.692   8.699 -1.0942  0.7397 -0.5783
21308SOL     OW67515   3.748   9.493   3.358 -0.2284 -0.2558 -0.1937
21308SOL    HW167516   3.662   9.523   3.388  0.1547  1.7507 -0.9837
21308SOL    HW267517   3.778   9.435   3.428 -2.0614 -0.7317  0.2576
21309SOL     OW67518   8.816   5.936   0.102 -0.5584 -0.3230  0.0466
21309SOL    HW167519   8.810   5.872   0.173  0.5189 -1.4420 -0.8288
21309SOL    HW267520   8.869   6.007   0.138 -1.0303 -0.3104  0.7405
21310SOL     OW67521   6.880   9.046   8.765 -0.0844  0.2346 -0.2781
21310SOL    HW167522   6.879   9.085   8.678  0.6492  0.8441 -0.0190
21310SOL    HW267523   6.794   9.067   8.801  0.4032  1.9040 -0.0261
21311SOL     OW67524  10.605   9.857   7.025 -0.1554 -0.6340 -0.7958
21311SOL    HW167525  10.535   9.816   6.974  1.1605 -0.3678 -2.9748
21311SOL    HW267526  10.584   9.838   7.116 -2.9250 -0.7354 -1.3829
21312SOL     OW67527   8.214   8.373   2.397  0.7025 -0.2858 -0.4973
21312SOL    HW167528   8.226   8.379   2.492  2.4353 -3.3262 -0.4061
21312SOL    HW267529   8.121   8.352   2.386  0.7777 -1.2979  0.6308
21313SOL     OW67530   8.754   8.124   7.193 -0.7455 -0.3889  0.8890
21313SOL    HW167531   8.739   8.040   7.151  2.1369 -1.3378  1.5086
21313SOL    HW267532   8.801   8.176   7.127  0.5703 -0.5809  1.6275
21314SOL     OW67533   2.710   5.161   6.131  0.7679  0.2704 -0.6338
21314SOL    HW167534   2.739   5.120   6.212  1.9972  1.0625 -0.6429
21314SOL    HW267535   2.719   5.092   6.065 -1.9365 -0.9328  0.1456
21315SOL     OW67536   9.325   6.196   4.322 -0.0897 -0.0024 -0.0689
21315SOL    HW167537   9.346   6.104   4.337  1.1271  0.5048  1.6674
21315SOL    HW267538   9.409   6.237   4.302 -0.7538  0.6032 -1.7621
21316SOL     OW67539   0.323   6.707   1.494 -0.0333  0.0212 -0.5841
21316SOL    HW167540   0.397   6.665   1.449  0.8500  0.1329  0.7162
21316SOL    HW267541   0.309   6.788   1.445  1.1381  0.3130 -0.4800
21317SOL     OW67542   6.469   9.937   0.568  0.3195 -0.9907  1.1962
21317SOL    HW167543   6.397   9.897   0.520  0.5073  1.7265 -1.6579
21317SOL    HW267544   6.548   9.894   0.534  0.2534 -1.7773  2.0081
21318SOL     OW67545   9.808   9.638   0.799  0.1140  0.7438  0.1736
21318SOL    HW167546   9.786   9.572   0.865 -1.8040 -1.5342 -2.4931
21318SOL    HW267547   9.893   9.610   0.765 -0.4951 -0.1656 -0.6511
21319SOL     OW67548   1.396   1.605  10.436 -0.6165  0.1313 -0.5677
21319SOL    HW167549   1.407   1.593  10.341 -3.2807 -0.0413 -0.9328
21319SOL    HW267550   1.302   1.615  10.448 -0.4897 -1.0943  2.2370
21320SOL     OW67551   0.133   6.956   5.950  0.1937  0.2273 -0.1117
21320SOL    HW167552   0.179   6.931   6.030 -0.4284 -0.7800 -0.0501
21320SOL    HW267553   0.084   6.878   5.925  0.5223  0.4548 -1.5858
21321SOL     OW67554   6.287  10.461   8.986 -0.0425 -0.3964  0.1418
21321SOL    HW167555   6.206  10.492   9.026 -1.0367 -1.2595 -1.1601
21321SOL    HW267556   6.285  10.494   8.897  1.8830  1.0059  0.5344
21322SOL     OW67557   1.546   1.594   1.882  0.1955 -0.1058 -0.1291
21322SOL    HW167558   1.579   1.509   1.911 -1.2302 -0.6925 -0.1466
21322SOL    HW267559   1.525   1.581   1.790 -0.8858 -0.0234  0.0929
21323SOL     OW67560   0.455   2.453   7.953  0.1612 -1.1823  0.3636
21323SOL    HW167561   0.421   2.496   7.874  0.8274 -0.4922  0.4477
21323SOL    HW267562   0.527   2.508   7.981  0.7806 -2.1470  0.7081
21324SOL     OW67563   9.086  10.522   3.777 -0.2011 -0.1260  0.0670
21324SOL    HW167564   9.022  10.502   3.708 -0.6582 -0.1489  0.4882
21324SOL    HW267565   9.041  10.498   3.858  1.1776 -2.3621  0.2650
21325SOL     OW67566   8.395   9.837   3.331  0.2302  0.2095 -0.1814
21325SOL    HW167567   8.377   9.931   3.319  0.5243  0.3504  0.4528
21325SOL    HW267568   8.316   9.803   3.374  0.3037  0.2552 -0.0095
21326SOL     OW67569   1.015   0.652   4.747 -0.9467  0.0940  0.2937
21326SOL    HW167570   1.089   0.667   4.805 -0.5275 -0.1003 -0.1853
21326SOL    HW267571   0.939   0.677   4.799 -0.6233 -0.5053  1.0927
21327SOL     OW67572   4.191   7.605   8.224  0.3204 -0.2657 -0.1500
21327SOL    HW167573   4.107   7.641   8.196  0.0773 -0.2261  0.6102
21327SOL    HW267574   4.256   7.661   8.182 -0.0522  1.0301  0.9381
21328SOL     OW67575   7.839   4.248   0.266  0.1015 -0.5007  0.1126
21328SOL    HW167576   7.893   4.175   0.234  0.5660  0.0545 -0.4042
21328SOL    HW267577   7.856   4.251   0.360 -0.6935 -1.6796  0.3135
21329SOL     OW67578  10.236   1.719   9.590 -1.0522  0.0184  0.0465
21329SOL    HW167579  10.247   1.642   9.645  0.1655  0.5213  0.5482
21329SOL    HW267580  10.224   1.792   9.651  0.1192  0.5543 -0.3221
21330SOL     OW67581  10.615  10.361   1.165  0.0046  0.1561  0.4466
21330SOL    HW167582  10.611  10.442   1.216  0.8260  1.1084 -0.9164
21330SOL    HW267583  10.555  10.376   1.092  0.1959 -0.4367  0.1631
21331SOL     OW67584  10.782   0.899   1.947 -0.0224 -0.3093 -0.2784
21331SOL    HW167585  10.847   0.837   1.913 -1.7033 -1.4079 -1.6673
21331SOL    HW267586  10.698   0.860   1.925 -1.1670  1.4560  0.7460
21332SOL     OW67587   6.419   6.338   8.307 -0.3751  0.1169  0.0683
21332SOL    HW167588   6.431   6.257   8.357  0.4051  1.5507  2.3471
21332SOL    HW267589   6.413   6.309   8.216 -1.0804 -2.5703  0.8805
21333SOL     OW67590   2.415   4.222   2.238  0.3772 -0.4195  0.2191
21333SOL    HW167591   2.358   4.168   2.184  2.6839 -1.3811 -1.4047
21333SOL    HW267592   2.504   4.202   2.207  1.4947  2.6032  1.1314
21334SOL     OW67593   0.610  10.618   2.431 -0.2451  0.4499  0.2313
21334SOL    HW167594   0.536  10.563   2.457  0.8388 -0.9134  0.5453
21334SOL    HW267595   0.648  10.575   2.355  0.1286  1.2319 -0.0453
21335SOL     OW67596   7.243  10.416   4.892 -0.1171  0.1938  0.1278
21335SOL    HW167597   7.257  10.508   4.913 -2.2386  1.0445 -1.7587
21335SOL    HW267598   7.249  10.412   4.797  1.3999 -1.9557  0.2409
21336SOL     OW67599   3.024   2.838   6.337  0.0802  0.1442  0.4363
21336SOL    HW167600   3.022   2.884   6.421 -0.0584  0.7704  0.0993
21336SOL    HW267601   2.953   2.774   6.342 -0.6629  0.9490  0.3760
21337SOL     OW67602   6.647   6.763   7.113  0.0956  0.1232  0.1424
21337SOL    HW167603   6.686   6.810   7.040  1.1955  0.1986  0.7636
21337SOL    HW267604   6.577   6.822   7.144  0.4777  0.6796 -0.0313
21338SOL     OW67605  11.068   8.978   5.946 -0.5153  0.4127 -0.1819
21338SOL    HW167606  10.994   9.038   5.933 -1.6010 -1.0648 -1.1644
21338SOL    HW267607  11.026   8.893   5.961  0.9074  0.1208  2.8576
21339SOL     OW67608   0.016   4.594   9.446  0.1355  0.2395 -0.1270
21339SOL    HW167609  -0.045   4.589   9.520  0.5501 -0.8908  0.1525
21339SOL    HW267610   0.054   4.506   9.440  1.3613  0.7801 -0.6168
21340SOL     OW67611   7.641   2.552   9.634 -0.4942  0.0239  0.2265
21340SOL    HW167612   7.581   2.564   9.562 -0.3813  1.7536  0.3860
21340SOL    HW267613   7.642   2.636   9.680 -0.8395 -1.1103  2.4610
21341SOL     OW67614   7.871  10.842  10.822 -0.1061  0.2409 -0.0885
21341SOL    HW167615   7.925  10.921  10.815 -0.1976  0.5844  2.1295
21341SOL    HW267616   7.786  10.874  10.852  0.4747 -0.7459  3.0404
21342SOL     OW67617   6.234   6.752   0.465  0.6706 -0.6641  0.4707
21342SOL    HW167618   6.298   6.681   0.474  2.8647  0.6403 -2.9762
21342SOL    HW267619   6.153   6.708   0.438  1.1941 -2.0537  1.0928
21343SOL     OW67620   3.932   7.312   5.889  0.3823 -0.2299  0.4774
21343SOL    HW167621   3.882   7.389   5.861  0.0962 -0.4973  0.2574
21343SOL    HW267622   4.002   7.305   5.824  0.0439 -0.5235  0.1484
21344SOL     OW67623  10.179   2.403   8.778 -0.5190 -0.3292 -0.0868
21344SOL    HW167624  10.256   2.370   8.732 -0.6124 -1.6833  0.6781
21344SOL    HW267625  10.143   2.470   8.719  0.6082 -0.4447 -0.9470
21345SOL     OW67626  10.267   8.367   7.812  0.1534  0.2389  0.6509
21345SOL    HW167627  10.184   8.348   7.767  0.8340 -0.2122 -0.4650
21345SOL    HW267628  10.311   8.282   7.816  0.5665  0.4744  1.2450
21346SOL     OW67629   6.546   5.729   0.919  0.0598 -0.8197 -0.3340
21346SOL    HW167630   6.599   5.805   0.943 -0.7600 -0.9248  1.9756
21346SOL    HW267631   6.545   5.674   0.997  0.5745 -3.2327 -1.8959
21347SOL     OW67632   9.718   8.555   3.594 -0.6482 -0.2083  0.3774
21347SOL    HW167633   9.666   8.529   3.518 -0.4200  3.9590 -1.5182
21347SOL    HW267634   9.783   8.616   3.558  2.5702 -1.5201  3.3387
21348SOL     OW67635   8.583   4.904   0.773  0.0418  0.0740  0.0204
21348SOL    HW167636   8.639   4.827   0.781 -0.0763 -0.0856 -0.6465
21348SOL    HW267637   8.501   4.872   0.736 -0.0336  0.5087 -0.2025
21349SOL     OW67638   0.592   1.711   9.590  0.9609  0.1576 -0.5948
21349SOL    HW167639   0.578   1.689   9.682  2.8896  1.1357 -0.0284
21349SOL    HW267640   0.612   1.627   9.548  0.4122 -0.2424 -0.0805
21350SOL     OW67641  10.511   9.337  10.101 -0.4175 -0.1101  0.0259
21350SOL    HW167642  10.512   9.246  10.130 -0.9341 -0.1374 -0.0370
21350SOL    HW267643  10.418   9.356  10.084 -0.1049 -0.3330 -2.3273
21351SOL     OW67644  11.050   8.606   6.788  0.2824 -0.0524 -0.1908
21351SOL    HW167645  11.107   8.672   6.829 -1.5067  2.1739 -1.0941
21351SOL    HW267646  11.004   8.566   6.862  0.3599  0.7404  0.3047
21352SOL     OW67647   9.014   1.708   4.095  0.0828 -0.3300  0.2293
21352SOL    HW167648   8.949   1.637   4.091  0.5099 -0.7143 -0.0512
21352SOL    HW267649   9.084   1.673   4.150 -0.0844  0.2061  0.7975
21353SOL     OW67650   0.357  10.204  10.178  0.1954  0.2203  0.7721
21353SOL    HW167651   0.262  10.216  10.175  0.0974  0.6185  3.2522
21353SOL    HW267652   0.392  10.274  10.122 -0.9560 -0.3698 -0.7430
21354SOL     OW67653   3.236   9.587   9.993 -0.9902  0.2920  0.4441
21354SOL    HW167654   3.211   9.603   9.902  1.0857  1.4110 -0.0025
21354SOL    HW267655   3.206   9.665  10.040  1.1953  1.5013 -0.0393
21355SOL     OW67656   4.264   5.003   2.796 -0.1033 -0.2694 -0.5980
21355SOL    HW167657   4.303   5.071   2.742  2.4022 -1.5225 -0.5568
21355SOL    HW267658   4.181   4.981   2.753 -0.4281  1.9770 -1.2120
21356SOL     OW67659   0.622   1.480   5.386 -0.8290 -0.2687 -0.2060
21356SOL    HW167660   0.621   1.423   5.462  0.8381 -1.2645 -0.8707
21356SOL    HW267661   0.665   1.560   5.416 -1.1778 -0.2210  0.1690
21357SOL     OW67662  10.207  10.746   9.126 -0.0906  0.2281 -0.2365
21357SOL    HW167663  10.206  10.693   9.206  0.7304  0.7727  0.1641
21357SOL    HW267664  10.217  10.683   9.055  0.1895 -0.2061  0.1789
21358SOL     OW67665   1.187   7.498   6.779  0.8652  0.5930 -0.2777
21358SOL    HW167666   1.247   7.569   6.759 -0.0119  1.0583 -1.3816
21358SOL    HW267667   1.150   7.473   6.695  0.2415 -0.3451  0.2508
21359SOL     OW67668   1.253   7.952   3.225 -0.3024  0.3160 -0.7079
21359SOL    HW167669   1.247   7.959   3.321 -1.6387  0.8448 -0.8131
21359SOL    HW267670   1.181   7.894   3.201 -1.0057  1.4979 -1.5229
21360SOL     OW67671   3.787   3.372   2.431  0.1539  0.2624  0.3105
21360SOL    HW167672   3.869   3.416   2.406  1.1382 -1.2673  0.7092
21360SOL    HW267673   3.763   3.322   2.352  0.8545 -1.0532  0.8933
21361SOL     OW67674   3.144  10.544   3.734 -0.2331  0.2347  0.7679
21361SOL    HW167675   3.112  10.617   3.681  0.5527 -0.3141 -0.5062
21361SOL    HW267676   3.185  10.586   3.810  0.1843  1.1372  0.0684
21362SOL     OW67677   5.986   2.815  10.000 -0.4683  1.0710 -0.1329
21362SOL    HW167678   5.933   2.839   9.924 -1.3570 -1.9075 -0.5693
21362SOL    HW267679   5.930   2.758  10.052  1.0833  0.8251  1.3590
21363SOL     OW67680   7.940   7.100   6.241  0.1020 -0.1326  0.3855
21363SOL    HW167681   7.877   7.131   6.306  0.3310  1.0551  0.0616
21363SOL    HW267682   7.888   7.049   6.179 -0.1994 -0.8367  1.2016
21364SOL     OW67683  10.505   0.889   0.460  0.5202  0.0498  0.0609
21364SOL    HW167684  10.447   0.826   0.417  1.3579 -0.5872 -0.1589
21364SOL    HW267685  10.575   0.905   0.397  0.6947  0.6622  0.3975
21365SOL     OW67686   5.725   5.280   8.285  0.6651  0.4246  0.0768
21365SOL    HW167687   5.674   5.200   8.270  1.3752  0.1196 -0.7889
21365SOL    HW267688   5.773   5.262   8.366  1.8737 -0.6065 -0.8271
21366SOL     OW67689   0.724   2.394   8.986  0.2203  0.6437 -0.0804
21366SOL    HW167690   0.739   2.436   9.071  0.5929  1.8975 -0.7394
21366SOL    HW267691   0.636   2.422   8.960  0.1006  0.2510 -0.1112
21367SOL     OW67692   2.690   2.191   8.580 -0.0072  0.5774  0.2976
21367SOL    HW167693   2.614   2.228   8.535  0.7096  2.0882  0.2897
21367SOL    HW267694   2.668   2.197   8.673 -1.9967 -3.6090  0.3447
21368SOL     OW67695   4.470   3.506   4.633  0.6451  0.1367 -0.6325
21368SOL    HW167696   4.380   3.528   4.610  1.0956  1.2901 -1.3590
21368SOL    HW267697   4.513   3.590   4.646  1.9326 -0.3620 -1.5140
21369SOL     OW67698   0.874   2.148   9.201 -0.1296 -0.3782  0.4323
21369SOL    HW167699   0.819   2.225   9.210  0.6968  0.1914  0.7456
21369SOL    HW267700   0.962   2.179   9.222  0.1317 -1.5314  1.1472
21370SOL     OW67701   2.531   7.177   0.829 -0.3788  0.1234  0.1297
21370SOL    HW167702   2.565   7.232   0.758 -1.1749 -0.6300 -0.8765
21370SOL    HW267703   2.533   7.233   0.907  0.2023  1.0853 -0.5594
21371SOL     OW67704   8.107  10.903   8.048 -0.3492  0.2049 -0.5197
21371SOL    HW167705   8.062  10.984   8.068 -1.1604 -0.5997  1.0639
21371SOL    HW267706   8.175  10.928   7.985 -0.6434  2.0702 -0.1415
21372SOL     OW67707   4.909   8.773   5.202  0.3034  0.0579  0.1164
21372SOL    HW167708   4.821   8.807   5.221  0.3378  1.0907 -1.3860
21372SOL    HW267709   4.910   8.686   5.242 -1.8434 -0.4621 -0.7919
21373SOL     OW67710   0.656  11.059   0.922  0.0445 -0.0230  0.0114
21373SOL    HW167711   0.633  11.092   1.009 -0.1508  1.1690 -0.4720
21373SOL    HW267712   0.581  11.082   0.867  0.5293 -0.0044 -0.6512
21374SOL     OW67713   4.550   8.239  10.566 -0.0057 -0.0509  0.1561
21374SOL    HW167714   4.472   8.255  10.514 -0.4318 -0.4250  0.6691
21374SOL    HW267715   4.614   8.303  10.534  0.3352 -1.3860 -1.9764
21375SOL     OW67716   0.319   0.308   1.345 -0.6259 -0.1299  0.4502
21375SOL    HW167717   0.231   0.286   1.376 -0.6128  1.1389  1.4454
21375SOL    HW267718   0.321   0.404   1.345  0.4223 -0.1370 -0.5402
21376SOL     OW67719   5.376   2.664   0.645  0.0066  0.5741 -0.5352
21376SOL    HW167720   5.459   2.617   0.647 -0.0943  0.3997 -0.3960
21376SOL    HW267721   5.401   2.756   0.653  0.3151  0.6942 -2.4488
21377SOL     OW67722   3.476   3.935   5.307  0.0340  0.2626 -0.3848
21377SOL    HW167723   3.485   3.867   5.240 -1.1865 -0.5109  0.2093
21377SOL    HW267724   3.429   4.006   5.262 -0.1246  0.0531 -0.5503
21378SOL     OW67725   1.780   8.888   3.151  0.0606  0.5161 -0.2353
21378SOL    HW167726   1.855   8.935   3.187  1.4456 -1.6422 -0.1172
21378SOL    HW267727   1.817   8.828   3.087 -2.1600  3.0573 -4.2989
21379SOL     OW67728   4.643   0.822  10.716 -0.1488 -0.3894  0.5247
21379SOL    HW167729   4.718   0.783  10.760  0.1996 -0.0882  0.1977
21379SOL    HW267730   4.580   0.838  10.786 -0.2276 -1.3695  0.6968
21380SOL     OW67731   1.700   4.397   3.049 -0.1376  0.2472 -0.3459
21380SOL    HW167732   1.661   4.351   3.123 -1.5867  0.3981 -0.9738
21380SOL    HW267733   1.670   4.488   3.059  1.7087  0.8349  0.2249
21381SOL     OW67734   3.218   8.226   8.045  0.2678 -0.2816 -0.2864
21381SOL    HW167735   3.287   8.254   8.104  0.5026  1.2335 -1.2403
21381SOL    HW267736   3.227   8.130   8.042  1.5177 -0.2145  0.5531
21382SOL     OW67737   8.035   8.403   3.345  0.0957 -0.2560  0.0108
21382SOL    HW167738   8.123   8.422   3.312  0.0439 -0.4052 -0.2181
21382SOL    HW267739   8.005   8.485   3.383  0.9992 -0.6434  1.6411
21383SOL     OW67740  10.250   3.331   1.362 -0.0174  0.8152  0.1014
21383SOL    HW167741  10.334   3.378   1.356 -0.1263  1.1450  1.0707
21383SOL    HW267742  10.270   3.254   1.416 -0.8272  2.0801  2.2987
21384SOL     OW67743   8.015   3.553   2.647 -0.1210 -0.2145 -0.6581
21384SOL    HW167744   8.063   3.624   2.604 -0.9838  2.1904  2.0528
21384SOL    HW267745   7.978   3.593   2.725 -1.2320 -3.5500  0.6969
21385SOL     OW67746   5.774   1.657   4.257  0.6012  0.1526  0.1435
21385SOL    HW167747   5.779   1.715   4.333 -0.0785 -0.8386  0.9909
21385SOL    HW267748   5.788   1.569   4.294  0.8312 -0.2902 -0.9711
21386SOL     OW67749   0.845   4.601  11.071  0.5381  0.1491  0.2872
21386SOL    HW167750   0.924   4.565  11.030 -0.1692  0.2615 -1.2804
21386SOL    HW267751   0.835   4.687  11.030  0.0394  0.4709  1.0734
21387SOL     OW67752   8.570   1.013   8.550  0.2118 -0.2165  0.5340
21387SOL    HW167753   8.665   1.013   8.538  0.1036  0.1753 -0.4936
21387SOL    HW267754   8.557   1.034   8.642  1.1125  1.1220  0.3939
21388SOL     OW67755   6.511   5.167   5.763 -0.2330 -0.3454 -0.0201
21388SOL    HW167756   6.531   5.141   5.853 -0.4158 -0.3616  0.0161
21388SOL    HW267757   6.535   5.260   5.759 -0.0379 -0.3949 -0.0124
21389SOL     OW67758   8.947   4.761   1.184  0.2039 -0.1665 -0.2759
21389SOL    HW167759   8.873   4.791   1.131  0.1608  0.7321  0.2908
21389SOL    HW267760   8.916   4.765   1.274  0.6089 -0.7562 -0.1036
21390SOL     OW67761   9.419   3.002   4.451  0.0038 -0.4049 -0.1629
21390SOL    HW167762   9.343   2.984   4.396  0.3332 -1.3356 -0.3363
21390SOL    HW267763   9.477   2.928   4.436 -0.4330 -1.3546  2.3866
21391SOL     OW67764   3.101   6.999   8.522  0.3162  0.0552  0.2033
21391SOL    HW167765   3.125   6.918   8.478  2.4453  1.5450 -1.6550
21391SOL    HW267766   3.143   6.994   8.608 -0.8561 -1.3905  0.7211
21392SOL     OW67767   9.657  10.799   0.861  0.0023 -0.2676 -0.2282
21392SOL    HW167768   9.588  10.746   0.902  0.6135 -0.5096  0.5096
21392SOL    HW267769   9.736  10.746   0.867  0.3588  0.2009 -0.6347
21393SOL     OW67770   0.769  10.546   9.470  0.1486  0.1715  0.1220
21393SOL    HW167771   0.770  10.620   9.530 -1.0245 -0.5811  1.1220
21393SOL    HW267772   0.748  10.471   9.525  1.2783 -0.9243 -0.8659
21394SOL     OW67773   7.784   3.607   3.475  0.1687  0.4302  0.0408
21394SOL    HW167774   7.766   3.700   3.461  0.5540  0.2544 -1.8908
21394SOL    HW267775   7.802   3.573   3.388 -0.4850 -1.5878  0.6401
21395SOL     OW67776   4.611   1.819   5.771  0.5490  0.3032  0.1649
21395SOL    HW167777   4.703   1.793   5.778  0.3327 -0.7267 -0.5077
21395SOL    HW267778   4.589   1.801   5.679 -0.8088 -1.1791  0.7438
21396SOL     OW67779   2.052   7.584   7.092 -1.2296  0.1163 -0.0471
21396SOL    HW167780   2.029   7.667   7.134 -1.2721  0.0948 -0.0272
21396SOL    HW267781   2.126   7.552   7.141 -1.5318 -0.1060  0.2664
21397SOL     OW67782   1.048   4.453   0.612 -0.0140 -0.3917  0.1354
21397SOL    HW167783   1.008   4.536   0.639  0.4578 -0.6953  1.9302
21397SOL    HW267784   1.140   4.474   0.597  0.2312 -0.6625  1.1516
21398SOL     OW67785   6.103   9.891   8.064 -0.1959 -0.1403  0.5200
21398SOL    HW167786   6.156   9.931   8.133  1.0204  1.3859 -1.2008
21398SOL    HW267787   6.084   9.963   8.003  1.3816 -1.9090 -2.3072
21399SOL     OW67788   8.029   5.110   2.388  0.1153 -0.0468 -0.3487
21399SOL    HW167789   8.115   5.069   2.401  0.1863  0.3429  0.4483
21399SOL    HW267790   8.048   5.203   2.378 -0.2205  0.0527 -0.0854
21400SOL     OW67791   4.318   4.149   6.242 -0.5326 -0.3146  0.1627
21400SOL    HW167792   4.229   4.129   6.211 -0.4581 -0.0391 -0.2427
21400SOL    HW267793   4.368   4.070   6.222 -0.7065 -0.5025  0.4723
21401SOL     OW67794   6.897   9.988   7.252  0.2324  0.5202 -0.1756
21401SOL    HW167795   6.918  10.025   7.338  0.3663 -1.0448  0.4889
21401SOL    HW267796   6.806   9.959   7.261  0.1584  0.5952 -0.6697
21402SOL     OW67797  10.876   5.915   7.282 -0.2433 -0.1956  0.1578
21402SOL    HW167798  10.917   5.835   7.313  0.6560 -1.0485 -2.8515
21402SOL    HW267799  10.813   5.886   7.215 -0.9049  1.5259 -0.0264
21403SOL     OW67800   2.762   7.041   0.583  0.8884 -0.4042 -0.2223
21403SOL    HW167801   2.686   6.998   0.623 -0.2207  1.1126 -0.6297
21403SOL    HW267802   2.773   6.996   0.499 -0.4028  0.2072 -0.7466
21404SOL     OW67803   6.040  11.073   9.988 -0.1691  0.6197  0.2259
21404SOL    HW167804   6.027  11.097  10.080  0.6269  0.1518  0.4716
21404SOL    HW267805   5.958  11.099   9.945 -1.3136 -0.8680  1.3932
21405SOL     OW67806   1.385  10.089   0.026 -0.0547 -0.1477  0.5456
21405SOL    HW167807   1.309  10.106   0.081 -0.7497 -0.3758 -0.3269
21405SOL    HW267808   1.417  10.177   0.003 -1.8535  0.0771 -1.4911
21406SOL     OW67809   8.219   3.253   4.741 -0.0814  0.2314 -0.2521
21406SOL    HW167810   8.262   3.263   4.826 -0.2846  1.1438 -0.2450
21406SOL    HW267811   8.260   3.319   4.685 -0.1476 -0.1713 -0.7909
21407SOL     OW67812   8.380   4.421   1.681  0.8526 -0.1339  0.5265
21407SOL    HW167813   8.416   4.480   1.614  0.2683  0.7979  1.0122
21407SOL    HW267814   8.438   4.345   1.680  2.8902  1.3215  1.3270
21408SOL     OW67815  10.284   6.846   9.769 -0.0034  0.1249 -0.7847
21408SOL    HW167816  10.202   6.885   9.801  0.2985 -0.1631  0.3948
21408SOL    HW267817  10.318   6.910   9.707  1.2472  2.5913  2.1631
21409SOL     OW67818   8.978   3.246  10.831 -0.7326  0.3574  0.0867
21409SOL    HW167819   9.069   3.250  10.859 -0.2279  0.3709 -1.4921
21409SOL    HW267820   8.943   3.168  10.874  0.0865  0.2251  0.5210
21410SOL     OW67821   6.750   2.851   5.165  0.2847 -0.0843  0.1115
21410SOL    HW167822   6.781   2.767   5.130  0.0918  0.0517 -0.3918
21410SOL    HW267823   6.814   2.873   5.233  1.3715  0.2379 -0.9682
21411SOL     OW67824   8.394   7.890   1.694 -0.6793  0.0024  0.0608
21411SOL    HW167825   8.395   7.953   1.622  0.5578 -0.8974 -0.7262
21411SOL    HW267826   8.341   7.934   1.762 -0.6405  1.4810 -0.8081
21412SOL     OW67827   6.897   1.888   8.016  0.3389 -0.3535  0.5964
21412SOL    HW167828   6.820   1.832   8.019  0.7399 -0.8731  1.5292
21412SOL    HW267829   6.942   1.863   7.936 -0.1413 -0.4867  0.3676
21413SOL     OW67830   2.218   2.233   3.068 -0.2013  0.5735 -0.1421
21413SOL    HW167831   2.306   2.236   3.106  0.2666  1.0912 -1.2141
21413SOL    HW267832   2.213   2.147   3.026  0.4265  1.1523 -1.4682
21414SOL     OW67833   0.138   5.994  10.556  0.2699 -0.3054  0.6035
21414SOL    HW167834   0.112   6.075  10.600  2.4139  0.6702  0.2230
21414SOL    HW267835   0.059   5.964  10.512 -0.4638  1.9243  0.2634
21415SOL     OW67836  10.612   5.440  10.180 -0.5834  0.3789 -0.0376
21415SOL    HW167837  10.702   5.475  10.186 -0.4430  0.0815 -0.3848
21415SOL    HW267838  10.607   5.375  10.250  0.1955 -1.1856 -1.3657
21416SOL     OW67839   5.605   3.363   5.893  0.3628 -0.3613  0.5860
21416SOL    HW167840   5.640   3.340   5.979 -1.4060 -1.5722  1.0320
21416SOL    HW267841   5.565   3.282   5.861 -1.8764  0.8791  0.0831
21417SOL     OW67842   8.850   7.296   9.542 -0.6775  0.4535  0.5487
21417SOL    HW167843   8.927   7.239   9.549 -0.8614  0.1637  0.1658
21417SOL    HW267844   8.810   7.291   9.629 -1.5250 -1.1667  0.0983
21418SOL     OW67845   5.756   7.875   6.700  0.2954  0.3690  0.2356
21418SOL    HW167846   5.835   7.825   6.677  0.1040  0.5838 -0.9831
21418SOL    HW267847   5.784   7.932   6.771  0.3352 -1.9297  2.1925
21419SOL     OW67848   0.983   1.687   0.782  0.4984 -0.0859  1.0095
21419SOL    HW167849   1.060   1.630   0.772 -0.7410 -1.5229 -1.0071
21419SOL    HW267850   0.984   1.741   0.703  0.5398  1.3451  1.9649
21420SOL     OW67851   0.801   1.911   6.856  0.3737  0.1086 -0.3656
21420SOL    HW167852   0.785   1.821   6.883  1.3721 -0.0973 -0.4256
21420SOL    HW267853   0.737   1.963   6.905  1.7026 -0.3023  1.9245
21421SOL     OW67854   8.563   6.690   3.010  0.5171  0.0049  0.1730
21421SOL    HW167855   8.621   6.761   2.983 -0.0979  0.4829  0.1021
21421SOL    HW267856   8.616   6.611   3.001  0.6067  0.2419 -1.6001
21422SOL     OW67857   8.203   0.132   2.785  0.4209 -0.2620 -0.8394
21422SOL    HW167858   8.265   0.119   2.713  0.5300 -0.6426 -0.6776
21422SOL    HW267859   8.243   0.199   2.839  0.2162  0.2140 -1.2722
21423SOL     OW67860   6.878   4.500   2.379 -0.4830 -0.1739  0.2495
21423SOL    HW167861   6.788   4.474   2.398 -0.7978  0.9158  0.2891
21423SOL    HW267862   6.927   4.418   2.383 -1.7657 -1.1076 -1.6310
21424SOL     OW67863   0.349   0.949   7.310 -0.4785  0.3415  0.1341
21424SOL    HW167864   0.277   0.935   7.371 -0.2218 -2.2590 -0.0578
21424SOL    HW267865   0.351   0.870   7.256  3.0484 -0.1141  0.7002
21425SOL     OW67866   0.843   7.753   9.714 -0.5410 -1.0402  0.0479
21425SOL    HW167867   0.828   7.770   9.621  0.6781  0.7351  0.1186
21425SOL    HW267868   0.935   7.774   9.728 -1.3485  1.6818  2.2030
21426SOL     OW67869   8.227   3.978   6.297 -0.8189 -0.3569  0.1097
21426SOL    HW167870   8.269   3.894   6.276  0.2435 -0.1164  1.2375
21426SOL    HW267871   8.234   4.029   6.216  0.5963 -0.5215  0.1097
21427SOL     OW67872   9.505   4.774   9.804 -0.0027  0.2111 -0.3378
21427SOL    HW167873   9.454   4.745   9.880  2.9947 -0.4419  1.5889
21427SOL    HW267874   9.521   4.867   9.820  0.5929  0.0841 -0.1852
21428SOL     OW67875   6.780   1.246   6.830 -0.3779 -0.1424  0.1330
21428SOL    HW167876   6.760   1.198   6.750  2.4833  2.3251 -2.3640
21428SOL    HW267877   6.713   1.314   6.835 -0.4007 -0.1180 -0.4104
21429SOL     OW67878   2.720   2.931   6.048 -0.3196  0.3725 -0.4075
21429SOL    HW167879   2.800   2.911   5.999  0.1403 -0.2946  0.5896
21429SOL    HW267880   2.723   2.873   6.124 -1.7884  0.3071 -0.3819
21430SOL     OW67881   7.889   8.326   0.505  0.1343  0.4013  0.1972
21430SOL    HW167882   7.796   8.309   0.519  0.0928  0.5303  0.0855
21430SOL    HW267883   7.890   8.398   0.442  0.3091  0.5545  0.3763
21431SOL     OW67884   0.947   6.236   6.793  0.4611  0.7145  0.0224
21431SOL    HW167885   0.883   6.209   6.727 -0.1022  1.5949  0.1947
21431SOL    HW267886   1.026   6.187   6.771  0.2201  0.8237 -1.1818
21432SOL     OW67887   0.528  10.793   7.857 -0.3836 -0.1409 -0.0876
21432SOL    HW167888   0.577  10.743   7.791  0.0950 -0.8242  0.7715
21432SOL    HW267889   0.459  10.836   7.807 -0.3355 -1.0434 -0.9679
21433SOL     OW67890   8.088   7.025   0.442  0.2089 -0.0299 -0.3367
21433SOL    HW167891   8.012   6.994   0.393 -1.8923 -0.5401  2.9066
21433SOL    HW267892   8.118   6.949   0.491  0.8997  0.8717  0.6937
21434SOL     OW67893   9.733   5.388   7.497  0.4199  0.2557 -0.6332
21434SOL    HW167894   9.795   5.321   7.466  0.1496 -0.1163 -0.3878
21434SOL    HW267895   9.786   5.466   7.508  1.0544 -0.3041  0.4751
21435SOL     OW67896   3.168   1.111   7.957 -0.1163  0.0290 -0.4849
21435SOL    HW167897   3.102   1.180   7.945  0.5164  0.4486 -1.7195
21435SOL    HW267898   3.251   1.157   7.947  0.3248 -0.8313 -0.7524
21436SOL     OW67899  10.683   6.868   3.730 -0.1900  0.5362 -0.8651
21436SOL    HW167900  10.640   6.784   3.747 -0.0591  0.4881 -0.7700
21436SOL    HW267901  10.621   6.916   3.674  0.0257  0.1115 -1.4865
21437SOL     OW67902   6.889   3.582   7.205 -0.2265 -0.2632  0.3180
21437SOL    HW167903   6.856   3.514   7.147  1.5514 -0.3080 -0.7355
21437SOL    HW267904   6.861   3.664   7.165  0.6561 -0.3076 -0.4427
21438SOL     OW67905   7.800   1.981   3.912  0.4520  0.4784 -0.7669
21438SOL    HW167906   7.891   2.001   3.932  0.4115 -0.0363  0.0218
21438SOL    HW267907   7.798   1.966   3.818  1.5164 -1.0698 -0.5870
21439SOL     OW67908   8.470   2.453   0.770 -0.3916  0.1118 -0.1218
21439SOL    HW167909   8.565   2.441   0.776 -0.3168 -0.9390 -2.2256
21439SOL    HW267910   8.436   2.417   0.852  0.9304 -1.3738 -0.1681
21440SOL     OW67911  10.420   9.180   1.298  0.2429  0.1730  0.0077
21440SOL    HW167912  10.512   9.186   1.274 -0.2980  1.7457 -1.9738
21440SOL    HW267913  10.397   9.088   1.284  1.1439  0.0836 -1.0216
21441SOL     OW67914  10.646   7.647   1.809 -0.4587  0.5315  0.0636
21441SOL    HW167915  10.665   7.708   1.880 -0.1841  0.7491 -0.1900
21441SOL    HW267916  10.682   7.690   1.731  0.1281 -0.1458 -0.0538
21442SOL     OW67917   3.715   7.168   2.041 -0.1415  0.0083  0.0875
21442SOL    HW167918   3.720   7.103   2.111 -1.4524  0.0815  0.2726
21442SOL    HW267919   3.791   7.225   2.056  0.5625 -0.9769  0.4068
21443SOL     OW67920   8.739   6.339   4.544  0.1339 -0.0576 -0.3499
21443SOL    HW167921   8.728   6.359   4.451  2.8112 -1.0834 -0.9861
21443SOL    HW267922   8.702   6.252   4.555 -2.9018  1.1669  0.3286
21444SOL     OW67923   8.693   8.214   9.952 -0.2822 -0.1156 -0.3525
21444SOL    HW167924   8.713   8.194   9.860  0.5014  0.6751 -0.3719
21444SOL    HW267925   8.619   8.275   9.947 -0.0387  0.1749 -0.4828
21445SOL     OW67926  10.083   4.452   1.726  0.4094 -0.5101  0.2282
21445SOL    HW167927  10.158   4.476   1.672  0.0247 -0.1952 -0.1674
21445SOL    HW267928  10.032   4.392   1.671 -0.3918  0.4201 -0.0685
21446SOL     OW67929   9.248   5.172   5.855 -0.2625  0.3485  0.5141
21446SOL    HW167930   9.305   5.228   5.803  0.1532 -0.3333  0.2170
21446SOL    HW267931   9.207   5.113   5.791  2.2146 -2.2664  1.0968
21447SOL     OW67932   6.638   8.382   7.007 -0.3312  0.2557  0.3312
21447SOL    HW167933   6.637   8.451   6.941  0.3046  0.1941  0.2491
21447SOL    HW267934   6.722   8.394   7.052  0.2313 -1.0502 -0.3103
21448SOL     OW67935   8.890  11.066   2.892 -0.0915  0.7135 -0.4789
21448SOL    HW167936   8.804  11.026   2.882 -0.6104  1.1848  1.5722
21448SOL    HW267937   8.952  10.996   2.873 -0.8949  0.4240 -2.2047
21449SOL     OW67938   8.098   2.878   8.321 -0.8056  0.4072 -0.5301
21449SOL    HW167939   8.123   2.971   8.318  0.2767  0.1370 -0.4842
21449SOL    HW267940   8.132   2.847   8.405 -2.5886  0.3314  0.2147
21450SOL     OW67941   4.860   7.494   0.402 -0.1731 -0.2310 -0.4008
21450SOL    HW167942   4.816   7.423   0.449 -0.7187  0.6106  0.3969
21450SOL    HW267943   4.790   7.559   0.386  0.3959  0.3079 -0.7365
21451SOL     OW67944   6.819  11.089   7.234 -0.1143 -0.3496 -0.3984
21451SOL    HW167945   6.906  11.051   7.223 -0.1707 -0.1765 -1.5222
21451SOL    HW267946   6.805  11.088   7.329  0.7538 -1.1685 -0.2602
21452SOL     OW67947   4.737   2.988   2.376 -0.1284  0.1029 -0.4729
21452SOL    HW167948   4.775   2.903   2.354  1.0364 -0.5943  3.5263
21452SOL    HW267949   4.799   3.052   2.340  1.9443 -0.9329  1.0438
21453SOL     OW67950   0.904   0.107   4.013 -0.3789  0.7820  0.0196
21453SOL    HW167951   0.968   0.120   3.944 -1.9782  1.9107 -1.3057
21453SOL    HW267952   0.889   0.012   4.014  0.8398  0.5689 -0.0254
21454SOL     OW67953   0.806   0.496   0.517 -0.4577  0.3923 -0.3308
21454SOL    HW167954   0.714   0.506   0.492 -0.7495  0.2761  0.6555
21454SOL    HW267955   0.851   0.479   0.435 -1.6677 -2.0984 -0.5771
21455SOL     OW67956  10.536   2.976   7.214  0.3061  0.2144 -0.0521
21455SOL    HW167957  10.477   2.903   7.238 -0.2773  0.6223 -0.2158
21455SOL    HW267958  10.617   2.957   7.260  0.0048 -0.3027  0.2807
21456SOL     OW67959   3.822   4.031   0.293 -0.1159  0.1355 -0.3179
21456SOL    HW167960   3.846   3.961   0.354  1.0917  0.1286 -0.7734
21456SOL    HW267961   3.764   3.988   0.230 -0.5311 -0.1058  0.2206
21457SOL     OW67962   6.479   3.572  10.575 -0.0965  0.4735 -0.2140
21457SOL    HW167963   6.564   3.614  10.570 -0.2453  0.7709 -0.2251
21457SOL    HW267964   6.495   3.482  10.544  0.1003  0.6946 -0.7557
21458SOL     OW67965  10.988   3.377   8.290 -0.0549  0.2438 -0.2833
21458SOL    HW167966  10.918   3.416   8.237 -0.7691 -1.4036 -0.6395
21458SOL    HW267967  10.942   3.316   8.348  1.0589 -0.6625 -0.3184
21459SOL     OW67968  10.069   6.343   1.181  0.8780 -0.1859  0.1459
21459SOL    HW167969   9.993   6.286   1.194 -1.3910  2.9553  2.4781
21459SOL    HW267970  10.127   6.323   1.255  0.1998  0.3287  0.8305
21460SOL     OW67971  10.918   6.574  10.115  0.4666  0.3257  0.5651
21460SOL    HW167972  10.927   6.498  10.057  1.1356  0.2587  0.7390
21460SOL    HW267973  10.969   6.642  10.071  0.3395  0.5018  0.6939
21461SOL     OW67974   5.657   2.181   2.669  0.1078  0.1600  0.2037
21461SOL    HW167975   5.657   2.121   2.594 -0.2949  0.7579 -0.2876
21461SOL    HW267976   5.700   2.260   2.636 -0.8017  0.7268  0.3495
21462SOL     OW67977   3.305   0.405   1.638 -0.4995 -0.5018 -0.0550
21462SOL    HW167978   3.269   0.492   1.648 -0.5511 -0.3126 -1.6323
21462SOL    HW267979   3.381   0.403   1.696  0.4386  1.1529 -1.1495
21463SOL     OW67980   2.562   1.767   4.305 -0.1912  0.4350  0.6493
21463SOL    HW167981   2.470   1.769   4.330 -0.3509  0.8286  0.0398
21463SOL    HW267982   2.583   1.674   4.294 -0.3003  0.2993  1.5598
21464SOL     OW67983   6.614   3.174   5.790  0.6226  0.5875 -0.2769
21464SOL    HW167984   6.548   3.222   5.740  0.1793  0.8367  0.5284
21464SOL    HW267985   6.624   3.091   5.744 -0.5908  0.3577 -0.1535
21465SOL     OW67986   8.316   5.894   9.060  0.0426  0.3706 -0.1877
21465SOL    HW167987   8.349   5.962   9.119  0.5129 -0.4956  0.5858
21465SOL    HW267988   8.221   5.897   9.069  0.1329 -0.5055  1.5502
21466SOL     OW67989  10.752   7.877   3.457  0.4624  0.4092 -0.0700
21466SOL    HW167990  10.822   7.884   3.523  0.8677 -0.2567 -0.4240
21466SOL    HW267991  10.789   7.917   3.378  0.0546  1.0060  0.0302
21467SOL     OW67992   0.435   2.837   7.546 -0.2229  0.5345  0.2735
21467SOL    HW167993   0.348   2.810   7.515  0.4644 -1.4485 -0.0223
21467SOL    HW267994   0.492   2.764   7.525  1.5797  1.8410  0.3711
21468SOL     OW67995   9.759   8.594   5.738 -0.1197 -0.1568 -0.1444
21468SOL    HW167996   9.764   8.660   5.669 -3.2165 -0.1346 -0.5039
21468SOL    HW267997   9.695   8.629   5.800 -1.1213 -2.3583  0.1594
21469SOL     OW67998   6.965   2.540   3.122 -0.1043 -0.8915 -0.0255
21469SOL    HW167999   6.917   2.589   3.056 -0.6171 -1.2999  0.0405
21469SOL    HW268000   6.909   2.465   3.143  0.2624 -1.0230  0.5280
21470SOL     OW68001   4.947   8.987   3.029 -0.6281  0.4010  0.5138
21470SOL    HW168002   4.921   8.943   2.949  0.3860 -1.7234  1.2768
21470SOL    HW268003   4.976   9.074   3.001 -0.7076 -0.1516 -1.3540
21471SOL     OW68004   4.214   0.809   9.513 -0.4217 -0.0680 -0.2723
21471SOL    HW168005   4.297   0.846   9.541 -1.1794  0.1839  1.8684
21471SOL    HW268006   4.200   0.844   9.425  1.8264 -0.3295 -0.7790
21472SOL     OW68007   5.501   6.437   9.295  0.0862 -0.6153 -0.5940
21472SOL    HW168008   5.532   6.407   9.209 -0.1903 -0.0892 -0.8807
21472SOL    HW268009   5.475   6.528   9.281  0.7044 -0.2976  0.2159
21473SOL     OW68010   1.260   4.826  11.055  0.3722  0.0798 -0.2137
21473SOL    HW168011   1.321   4.873  10.998  0.9087  0.7953  0.9070
21473SOL    HW268012   1.261   4.736  11.021  3.9081 -0.5658  1.1113
21474SOL     OW68013   1.377   8.436   7.613  0.5094  0.0943  0.0685
21474SOL    HW168014   1.354   8.343   7.607  0.9072  0.0083 -0.1493
21474SOL    HW268015   1.393   8.462   7.522 -1.4711  0.8581 -0.1254
21475SOL     OW68016   7.637   6.911  10.476  0.3080  0.1775 -0.2213
21475SOL    HW168017   7.689   6.917  10.557  0.7371 -0.2179 -0.4642
21475SOL    HW268018   7.696   6.870  10.413 -0.3185 -0.3157 -0.4953
21476SOL     OW68019   5.739   8.505   9.976 -0.3902  0.1655  0.4842
21476SOL    HW168020   5.648   8.491   9.952 -0.4236  1.3236 -0.1409
21476SOL    HW268021   5.786   8.505   9.893 -0.1879  1.9975  0.5449
21477SOL     OW68022  10.514   5.318   8.787 -0.0051 -0.3073 -0.3820
21477SOL    HW168023  10.601   5.357   8.778  0.1256 -0.8192 -1.5447
21477SOL    HW268024  10.461   5.386   8.829  0.4500  0.7937 -1.5288
21478SOL     OW68025   3.973  10.546   3.155 -0.2315 -0.0515  0.1199
21478SOL    HW168026   4.048  10.490   3.134  1.4529  0.9702  2.8676
21478SOL    HW268027   3.988  10.626   3.104 -0.5917 -0.6302 -0.9093
21479SOL     OW68028   9.912   5.004  10.007  0.2644  0.2923  0.2545
21479SOL    HW168029   9.983   4.951  10.042 -0.3662  1.0771  3.0170
21479SOL    HW268030   9.942   5.094  10.019 -0.8803  0.6165  0.8425
21480SOL     OW68031   3.659  10.615   3.832 -0.0640  0.3162  0.3389
21480SOL    HW168032   3.585  10.625   3.771  0.3424 -0.4492 -0.2930
21480SOL    HW268033   3.643  10.681   3.899 -1.3418  0.1500  0.2236
21481SOL     OW68034   9.930   1.789   0.764 -0.1671 -0.2385  0.6968
21481SOL    HW168035   9.993   1.859   0.749  0.3946 -0.5044  1.7167
21481SOL    HW268036   9.960   1.747   0.845 -1.7509 -0.2543  1.3110
21482SOL     OW68037   8.026   5.259   8.106 -0.7830  0.1962 -0.6541
21482SOL    HW168038   8.044   5.313   8.029  1.9160  0.1047 -0.1833
21482SOL    HW268039   8.092   5.190   8.103 -1.3624 -0.4848  1.1259
21483SOL     OW68040   0.041   7.748   7.581  0.0251 -0.0947  0.2106
21483SOL    HW168041   0.047   7.655   7.602  0.8204  0.0989  0.8952
21483SOL    HW268042  -0.044   7.757   7.537 -0.7189 -0.8909  1.4217
21484SOL     OW68043   0.405   0.109   4.181 -0.3998  0.2494 -0.0995
21484SOL    HW168044   0.460   0.187   4.181 -0.0048  0.0046 -1.5879
21484SOL    HW268045   0.467   0.036   4.189 -0.5461  0.0056 -1.0397
21485SOL     OW68046   1.068   2.209   5.719  0.0948  0.1900 -0.0436
21485SOL    HW168047   1.141   2.271   5.719  1.0045 -0.8087  1.5584
21485SOL    HW268048   1.005   2.247   5.781 -0.1910  0.4050 -0.4558
21486SOL     OW68049   1.084   8.099  11.037  0.2018 -0.2404 -0.3686
21486SOL    HW168050   1.132   8.054  10.968  0.9800 -1.0402  0.6642
21486SOL    HW268051   0.992   8.089  11.014  0.4725  0.2741 -1.7460
21487SOL     OW68052   8.803   7.292   9.145  0.0815  0.1999 -0.9104
21487SOL    HW168053   8.853   7.364   9.184 -1.4900  1.2809 -0.7913
21487SOL    HW268054   8.731   7.277   9.206 -0.3382 -0.6035 -1.5856
21488SOL     OW68055   6.669   6.269   0.455  0.0503 -0.2063 -0.0678
21488SOL    HW168056   6.587   6.262   0.408  0.6895 -0.7738 -1.1293
21488SOL    HW268057   6.737   6.264   0.387  0.9561  0.7622  0.7178
21489SOL     OW68058  10.553   1.078   4.124 -0.1175 -0.0289 -0.7278
21489SOL    HW168059  10.469   1.100   4.166  0.8145 -0.2932  1.4401
21489SOL    HW268060  10.528   1.033   4.044 -2.0529  0.5225 -0.4970
21490SOL     OW68061  10.246   4.143   3.382 -0.2278  0.4913 -0.4875
21490SOL    HW168062  10.238   4.235   3.356  1.8617  2.0398  3.5435
21490SOL    HW268063  10.339   4.124   3.376 -0.5092 -1.0874 -0.3163
21491SOL     OW68064   0.606   8.507   0.528  0.2884 -0.0248 -0.0520
21491SOL    HW168065   0.671   8.481   0.463 -0.7469  1.1544 -1.6315
21491SOL    HW268066   0.563   8.584   0.490 -1.6179 -0.3962  1.1987
21492SOL     OW68067   3.143   5.464   3.701  0.1877 -0.4733  0.1446
21492SOL    HW168068   3.229   5.461   3.742  0.3795 -0.0301 -0.2114
21492SOL    HW268069   3.159   5.506   3.616 -0.8291  2.4659  1.2584
21493SOL     OW68070   2.017   9.976  10.113  0.6211 -0.4669  0.0620
21493SOL    HW168071   2.012   9.990  10.018  0.3587  0.3362  0.1893
21493SOL    HW268072   1.926   9.975  10.142  0.7100  2.1677  0.6927
21494SOL     OW68073   1.972  10.616   7.808 -0.2736 -0.0058 -0.3108
21494SOL    HW168074   1.990  10.674   7.733  1.5697  0.2090  0.2505
21494SOL    HW268075   1.897  10.656   7.851  1.2505  2.3815  0.3736
21495SOL     OW68076   5.906   3.593   8.617  0.0067  0.0517  0.3060
21495SOL    HW168077   5.917   3.511   8.569 -0.7026 -0.0076  0.2355
21495SOL    HW268078   5.925   3.661   8.553 -0.7931 -0.0309 -0.0280
21496SOL     OW68079   4.809   2.474   3.677  0.5168  0.0368 -0.0805
21496SOL    HW168080   4.748   2.543   3.701  1.9291  2.3850 -2.7167
21496SOL    HW268081   4.761   2.419   3.615  0.1746  0.1325  0.0982
21497SOL     OW68082  10.946   5.283   5.934  0.1467 -0.5456  0.3814
21497SOL    HW168083  10.953   5.191   5.962  0.0781 -0.0374  2.2186
21497SOL    HW268084  10.869   5.316   5.980 -0.8276  0.0287 -1.5699
21498SOL     OW68085   3.066   2.748   1.160  0.4667  0.4272 -0.5269
21498SOL    HW168086   3.094   2.749   1.068 -0.5387 -0.0003 -0.8553
21498SOL    HW268087   3.064   2.656   1.184 -0.7538  0.4267 -0.5678
21499SOL     OW68088   7.213   6.163   4.414  0.0789 -0.3767  0.1757
21499SOL    HW168089   7.248   6.241   4.456  1.3860 -0.4745 -0.6597
21499SOL    HW268090   7.234   6.092   4.474 -1.1943 -0.1057  0.9808
21500SOL     OW68091   3.494   8.238   2.524  0.5462 -0.1340 -0.4793
21500SOL    HW168092   3.446   8.314   2.490  1.6462  0.3049 -1.0835
21500SOL    HW268093   3.501   8.178   2.449  0.6703 -0.3382 -0.3062
21501SOL     OW68094   9.388   9.138   1.841  0.2562  0.6797 -0.6282
21501SOL    HW168095   9.359   9.229   1.834 -1.8911  0.2153  1.1198
21501SOL    HW268096   9.326   9.098   1.902  1.2634 -1.9179 -1.1916
21502SOL     OW68097   7.699   0.841   2.102  0.0656 -0.4945  0.1662
21502SOL    HW168098   7.709   0.792   2.020  0.6516  0.1277 -0.1464
21502SOL    HW268099   7.733   0.783   2.169 -1.4701 -1.4702  0.1399
21503SOL     OW68100   1.887   5.904   8.848  1.1964 -0.4128 -0.7347
21503SOL    HW168101   1.905   5.834   8.911  0.3406 -0.0593 -0.0790
21503SOL    HW268102   1.867   5.857   8.767 -0.0415 -0.9772 -0.1343
21504SOL     OW68103   8.771  10.906   7.656  0.6953  0.4317  0.0376
21504SOL    HW168104   8.840  10.863   7.606  0.1158  1.3220 -1.5991
21504SOL    HW268105   8.795  10.999   7.657 -0.9043  0.9161 -1.4041
21505SOL     OW68106   9.243   3.815   7.530  0.4117 -0.0410  0.0691
21505SOL    HW168107   9.270   3.825   7.621  0.6595 -0.0164 -0.0069
21505SOL    HW268108   9.301   3.874   7.481 -0.1060  0.3835 -0.0378
21506SOL     OW68109   0.202   6.780   3.441  0.1914 -0.2722  0.0558
21506SOL    HW168110   0.146   6.848   3.479  1.3898  0.3412  0.7857
21506SOL    HW268111   0.227   6.815   3.355 -0.8167 -0.7216 -0.4434
21507SOL     OW68112   5.430   9.455   1.127  0.1161  0.4390  0.2170
21507SOL    HW168113   5.341   9.487   1.118  0.0933  0.1080 -0.7780
21507SOL    HW268114   5.484   9.534   1.126 -0.2269  0.7549  2.1636
21508SOL     OW68115   6.473   3.284   6.285 -0.3380 -0.1368  0.5288
21508SOL    HW168116   6.522   3.212   6.243  1.2766  0.8933  0.5434
21508SOL    HW268117   6.384   3.274   6.253 -0.0122 -1.7698  0.0206
21509SOL     OW68118   6.762   5.912   8.457  0.2526  0.3319  0.2023
21509SOL    HW168119   6.764   5.941   8.548  0.3976  0.5532  0.1295
21509SOL    HW268120   6.699   5.970   8.415  0.1581  0.2060  0.1668
21510SOL     OW68121   7.036   9.106   2.929  0.2055 -0.4974 -0.9571
21510SOL    HW168122   6.959   9.145   2.971  0.9753  0.3183 -0.2685
21510SOL    HW268123   7.028   9.131   2.836  0.7809  1.5442 -0.5077
21511SOL     OW68124   7.422   1.856  10.427 -0.0745  0.2509  0.3080
21511SOL    HW168125   7.442   1.826  10.515  1.5219  0.1874 -0.0524
21511SOL    HW268126   7.385   1.779  10.383 -3.1957  0.8724  1.5441
21512SOL     OW68127  10.595   9.648   8.992  0.0043  0.3575  0.1547
21512SOL    HW168128  10.547   9.698   9.058 -1.5713  0.4917 -1.0270
21512SOL    HW268129  10.673   9.700   8.975 -0.5469  1.3313  0.4831
21513SOL     OW68130   7.766   2.249   3.722  0.2786  0.8005  0.4533
21513SOL    HW168131   7.671   2.246   3.710  0.1593 -1.2134  1.3590
21513SOL    HW268132   7.798   2.170   3.678  1.7344  2.1425 -1.0091
21514SOL     OW68133   4.734   4.299   0.888  0.0446 -0.3936  0.0749
21514SOL    HW168134   4.681   4.220   0.901 -1.2013  0.6714  1.9589
21514SOL    HW268135   4.802   4.293   0.955 -0.7855  0.6641  1.0506
21515SOL     OW68136   1.902   2.152   9.718 -0.3159  0.0651 -0.5031
21515SOL    HW168137   1.951   2.070   9.716 -0.1122  0.1879 -2.0159
21515SOL    HW268138   1.811   2.126   9.732 -0.1451 -0.3489 -0.1509
21516SOL     OW68139   6.205   1.041   6.507  0.8883 -0.3980  0.0686
21516SOL    HW168140   6.135   1.025   6.444  0.9751  0.2838 -0.2016
21516SOL    HW268141   6.230   0.953   6.537  1.4466 -0.7939 -1.4915
21517SOL     OW68142   6.979   9.423   8.181  0.2503 -0.7757  0.0660
21517SOL    HW168143   7.072   9.403   8.187  0.1432 -1.5898 -0.7300
21517SOL    HW268144   6.937   9.338   8.168 -0.5274 -0.3389 -0.3761
21518SOL     OW68145   6.686   6.692   2.756 -0.0517 -0.1349  1.3097
21518SOL    HW168146   6.657   6.645   2.678  2.4377  1.5954 -0.8347
21518SOL    HW268147   6.774   6.659   2.773  0.0831  0.7029  2.3895
21519SOL     OW68148   5.300   4.197   3.542  0.2150 -0.3062  0.4485
21519SOL    HW168149   5.234   4.136   3.507 -0.9146  0.6369  0.8585
21519SOL    HW268150   5.316   4.258   3.470 -1.3573  1.0288  1.1527
21520SOL     OW68151   0.419   6.761   8.345 -0.2927 -0.2707 -0.0755
21520SOL    HW168152   0.407   6.759   8.440 -2.0965  1.6200 -0.2027
21520SOL    HW268153   0.422   6.854   8.322  0.4451 -0.6823 -1.8448
21521SOL     OW68154   8.418   2.795   8.903 -0.1052  0.3590  0.4593
21521SOL    HW168155   8.342   2.759   8.948 -0.2813 -1.2845 -1.0695
21521SOL    HW268156   8.380   2.857   8.840 -0.2365 -0.5775 -0.4140
21522SOL     OW68157   4.043   3.873   0.416 -0.1870 -0.2513  0.3319
21522SOL    HW168158   4.025   3.847   0.507 -1.2672 -0.0909  0.1791
21522SOL    HW268159   4.069   3.791   0.373  1.4204 -0.1405  1.0215
21523SOL     OW68160   3.780   4.993   2.198  0.1704  0.0197 -0.1063
21523SOL    HW168161   3.792   5.052   2.272 -1.2563  0.4975 -0.2265
21523SOL    HW268162   3.805   4.907   2.231  0.4811  0.3831  0.6254
21524SOL     OW68163   0.801   8.274  10.454 -0.0599 -0.1089  0.3663
21524SOL    HW168164   0.819   8.327  10.532 -0.4371 -0.5137  0.7320
21524SOL    HW268165   0.729   8.320  10.411  0.0199  0.0083  0.3570
21525SOL     OW68166   9.410  10.062   6.483 -0.1345 -0.3595 -0.4196
21525SOL    HW168167   9.499  10.082   6.455  0.0414  1.0859  1.0738
21525SOL    HW268168   9.355  10.123   6.434  0.0223  0.9691  0.9797
21526SOL     OW68169  11.068   5.381   8.423 -0.3002 -0.1768 -0.2809
21526SOL    HW168170  11.148   5.430   8.444  0.7118 -1.7100 -0.3775
21526SOL    HW268171  11.100   5.298   8.387 -1.9585 -0.3505 -1.4750
21527SOL     OW68172   9.350   1.326   7.081 -0.3506 -0.0694 -0.0464
21527SOL    HW168173   9.425   1.286   7.126  0.6200  0.2835 -1.3091
21527SOL    HW268174   9.385   1.407   7.044 -1.7568  0.8752  0.6271
21528SOL     OW68175   0.331   0.986   9.179  0.0096 -0.2433 -0.0382
21528SOL    HW168176   0.349   1.020   9.092 -2.3415  2.1081  0.2843
21528SOL    HW268177   0.236   0.981   9.184  0.0443  0.3068  2.6211
21529SOL     OW68178   4.630   3.071   9.554 -0.0772 -0.0058  0.4239
21529SOL    HW168179   4.604   3.001   9.615 -0.8573  0.3472  0.5098
21529SOL    HW268180   4.549   3.121   9.540  0.2338  0.2577 -0.4569
21530SOL     OW68181   5.975   8.509   3.742  0.2053 -0.1001 -0.4011
21530SOL    HW168182   5.953   8.423   3.776 -0.1808  0.1284 -0.0597
21530SOL    HW268183   5.902   8.531   3.684 -1.3134  1.3073  1.8810
21531SOL     OW68184   1.301   3.392   9.695 -0.1320  0.1498  0.5368
21531SOL    HW168185   1.292   3.478   9.656 -1.0829  0.6242  1.7138
21531SOL    HW268186   1.395   3.380   9.709  0.0722  0.6235 -0.4047
21532SOL     OW68187  10.517   4.200   0.099 -0.3324 -0.2230 -0.0064
21532SOL    HW168188  10.562   4.279   0.070 -0.0017  0.0868  1.2696
21532SOL    HW268189  10.534   4.196   0.193 -0.1599 -1.9240 -0.0719
21533SOL     OW68190   8.154   6.315   3.839 -0.1334  0.3753  0.4490
21533SOL    HW168191   8.168   6.292   3.931  1.6129  0.3272  0.1998
21533SOL    HW268192   8.189   6.404   3.831  1.7321 -0.4116 -0.6188
21534SOL     OW68193   5.156   1.534   4.050 -0.2497  0.2167  0.2462
21534SOL    HW168194   5.149   1.616   4.099 -0.2674 -0.5664  1.6149
21534SOL    HW268195   5.122   1.555   3.963 -1.2447  1.3969  0.8819
21535SOL     OW68196   8.257   4.074   3.790 -0.2317 -0.2737 -0.2055
21535SOL    HW168197   8.301   4.014   3.731  0.6835  1.0173 -0.8706
21535SOL    HW268198   8.185   4.110   3.738 -0.3326 -0.2459 -0.0470
21536SOL     OW68199   8.399   8.568   1.684  0.1664  0.5544  0.4705
21536SOL    HW168200   8.374   8.522   1.604  1.6615 -0.1330  0.3616
21536SOL    HW268201   8.377   8.507   1.755  0.9360  0.2003  0.4143
21537SOL     OW68202   9.418   3.522   1.830 -0.5109 -0.3370  0.5549
21537SOL    HW168203   9.415   3.460   1.902 -0.6805 -0.6753  0.2620
21537SOL    HW268204   9.363   3.482   1.762  0.7466 -0.6952 -0.2953
21538SOL     OW68205  10.657   7.132   0.036  0.2405  0.2069 -0.8114
21538SOL    HW168206  10.605   7.104   0.111  1.1568  0.0584 -0.2064
21538SOL    HW268207  10.609   7.102  -0.040  0.4777 -1.8046 -0.2194
21539SOL     OW68208   5.120   6.478   9.208 -0.6817 -0.1313  0.1535
21539SOL    HW168209   5.125   6.573   9.216  1.4926 -0.1724 -0.1398
21539SOL    HW268210   5.032   6.461   9.176 -1.6682  1.6549  1.7158
21540SOL     OW68211   1.775  10.089   1.852  0.1590 -0.1791 -0.6901
21540SOL    HW168212   1.870  10.090   1.868 -0.1116 -2.6643  1.7131
21540SOL    HW268213   1.740  10.151   1.915  0.0020 -1.2612  0.3029
21541SOL     OW68214   9.752   0.576  10.148 -0.5177  0.2541  0.3957
21541SOL    HW168215   9.692   0.520  10.196  0.1240 -0.1683  0.7235
21541SOL    HW268216   9.731   0.560  10.056  1.4782 -2.7287  0.3143
21542SOL     OW68217   3.164   2.380   3.205  0.1695  0.3071  0.2971
21542SOL    HW168218   3.097   2.398   3.272  0.7952 -0.5164  1.1757
21542SOL    HW268219   3.231   2.330   3.251  0.5322 -0.4627 -1.0028
21543SOL     OW68220   9.145   0.402   9.131 -0.0956 -0.8488 -0.3743
21543SOL    HW168221   9.176   0.328   9.184  0.7659 -0.2287 -0.0014
21543SOL    HW268222   9.181   0.479   9.174  0.2397 -0.3046 -1.5991
21544SOL     OW68223   5.297   8.410   1.281 -0.2172 -0.3051  0.0958
21544SOL    HW168224   5.389   8.438   1.285 -0.0643 -0.9352  1.2526
21544SOL    HW268225   5.295   8.345   1.210  0.3723 -0.7723  0.4960
21545SOL     OW68226   8.452   3.541   5.077 -0.2763  0.0902 -0.7910
21545SOL    HW168227   8.502   3.504   5.150  1.7654  0.1750 -2.0539
21545SOL    HW268228   8.422   3.465   5.027 -2.5299 -0.0098  0.5766
21546SOL     OW68229   2.420   8.749   3.068  0.1912 -0.3629  0.1255
21546SOL    HW168230   2.441   8.842   3.081 -0.3493 -0.0915 -0.8205
21546SOL    HW268231   2.392   8.719   3.154 -3.2289  1.3304 -0.2401
21547SOL     OW68232   3.591   5.632   3.582  0.9080  0.1348 -0.0522
21547SOL    HW168233   3.613   5.589   3.500  0.7711  0.2306 -0.1397
21547SOL    HW268234   3.671   5.677   3.608  0.9792  0.0276 -0.0846
21548SOL     OW68235   7.157   4.535   0.491  0.4488 -0.5798 -0.9478
21548SOL    HW168236   7.072   4.538   0.448  0.1012  2.0515 -0.2893
21548SOL    HW268237   7.139   4.499   0.578 -0.1580  0.4592 -0.6128
21549SOL     OW68238   2.291   8.048   4.668  0.1382 -0.1619 -0.6335
21549SOL    HW168239   2.340   8.129   4.657  1.4347 -0.9167 -0.6502
21549SOL    HW268240   2.336   8.001   4.737 -2.2652  0.3108  1.4128
21550SOL     OW68241   6.405   7.724   7.288 -0.1051 -0.8934 -0.3765
21550SOL    HW168242   6.445   7.726   7.201  0.5072  0.7789 -0.0877
21550SOL    HW268243   6.351   7.803   7.292  2.4527  0.9400  1.8657
21551SOL     OW68244   1.663   6.413   0.410  0.2231  0.6628 -0.2782
21551SOL    HW168245   1.648   6.353   0.336 -1.1266 -1.1974  1.4075
21551SOL    HW268246   1.740   6.377   0.455 -0.9605 -0.2604  1.0949
21552SOL     OW68247   0.154   4.481   5.603 -0.2780 -0.0587  0.2730
21552SOL    HW168248   0.228   4.537   5.579  0.0087 -0.8797 -0.8589
21552SOL    HW268249   0.182   4.437   5.683  0.4973 -0.3903 -0.1652
21553SOL     OW68250   7.343   7.356  10.040  0.3483  0.1721 -0.2328
21553SOL    HW168251   7.420   7.316  10.080  0.6259 -0.3795 -1.2917
21553SOL    HW268252   7.332   7.311   9.957 -0.3126  1.1788 -0.7184
21554SOL     OW68253   7.005   0.500   1.473 -0.1117 -0.2246  0.6014
21554SOL    HW168254   6.934   0.513   1.411 -1.5507  1.4269  2.4753
21554SOL    HW268255   7.067   0.443   1.426 -2.0362 -0.7232 -1.5473
21555SOL     OW68256   9.426  10.178   9.542 -0.5068  0.2638  0.2714
21555SOL    HW168257   9.498  10.138   9.590 -0.2852 -0.1416 -0.3901
21555SOL    HW268258   9.445  10.160   9.450 -0.9944  0.9120  0.0338
21556SOL     OW68259   5.581   2.833   2.834  0.2072 -0.0835  0.1793
21556SOL    HW168260   5.558   2.892   2.762 -0.0950  0.4448  0.6995
21556SOL    HW268261   5.503   2.780   2.848  0.7482 -1.2017 -0.8309
21557SOL     OW68262   3.803   8.163   9.606 -0.4209  0.0998 -0.5252
21557SOL    HW168263   3.779   8.108   9.681 -0.9207  0.6299 -0.2864
21557SOL    HW268264   3.887   8.202   9.631 -1.7081  2.1806  0.8617
21558SOL     OW68265   4.236  10.699  10.847 -0.2279 -0.5011  0.5180
21558SOL    HW168266   4.220  10.689  10.753 -2.6940 -0.8418  0.9129
21558SOL    HW268267   4.149  10.699  10.887  0.7428 -0.2394  2.8145
21559SOL     OW68268   7.161   1.256   1.163  0.4267  0.7991  0.6023
21559SOL    HW168269   7.150   1.275   1.257  3.7710  1.4180  1.0114
21559SOL    HW268270   7.222   1.323   1.133 -1.6369  1.4846 -2.4652
21560SOL     OW68271   5.034   1.023   3.515  0.4177  0.1506  0.2709
21560SOL    HW168272   5.008   1.115   3.517  1.3297  0.4124  2.1360
21560SOL    HW268273   5.129   1.024   3.511  0.4228 -0.7405 -0.3133
21561SOL     OW68274   6.212   2.271   0.530  0.1573  0.5746 -0.1586
21561SOL    HW168275   6.209   2.209   0.603 -0.9549  0.1530 -0.5356
21561SOL    HW268276   6.120   2.285   0.507  0.4923  0.3511 -1.7616
21562SOL     OW68277   4.293   1.734   3.535  0.2868  0.3356  0.2887
21562SOL    HW168278   4.276   1.704   3.624 -2.1101 -1.0431 -0.5256
21562SOL    HW268279   4.234   1.808   3.522 -1.5364 -1.2393 -0.9645
21563SOL     OW68280   7.020   5.727  10.974 -0.8774  0.3008 -0.2466
21563SOL    HW168281   6.957   5.672  11.020 -1.5332  1.4000  0.2271
21563SOL    HW268282   7.009   5.814  11.014  0.1496  0.7655 -0.9309
21564SOL     OW68283   7.284   0.752   6.951  0.4103 -0.9035  0.1556
21564SOL    HW168284   7.225   0.691   6.996  1.8343 -3.5962 -1.3238
21564SOL    HW268285   7.277   0.727   6.858  1.3745  0.9754 -0.4792
21565SOL     OW68286   4.734  10.052   9.652 -0.0943  0.2660 -0.2120
21565SOL    HW168287   4.663  10.072   9.590 -0.2930 -0.0055 -0.0736
21565SOL    HW268288   4.795   9.999   9.602 -0.0729  0.3557 -0.2817
21566SOL     OW68289   3.862   5.089   1.331  0.4505 -0.3647 -0.6542
21566SOL    HW168290   3.809   5.150   1.382  1.2189 -1.0212  1.0047
21566SOL    HW268291   3.952   5.110   1.354  0.7696 -1.4329 -0.8683
21567SOL     OW68292  10.905   8.704   1.021  0.0114  0.2335  0.5418
21567SOL    HW168293  10.846   8.679   0.950 -0.1991  0.9407  0.4559
21567SOL    HW268294  10.856   8.771   1.070  0.8143  0.9906  0.3427
21568SOL     OW68295   1.925  10.471   2.402 -0.3862  0.0084 -0.6325
21568SOL    HW168296   1.899  10.471   2.310  0.1475  0.2963 -0.7842
21568SOL    HW268297   1.842  10.480   2.450 -0.5619  1.2885 -1.1187
21569SOL     OW68298   0.803   6.649   9.267  0.3165  0.4563 -0.3263
21569SOL    HW168299   0.757   6.733   9.268 -0.0452  0.3105 -1.7591
21569SOL    HW268300   0.804   6.625   9.174  0.9853 -0.8107  0.0015
21570SOL     OW68301   1.507   6.970   9.614  0.0317 -0.5120 -0.3504
21570SOL    HW168302   1.440   6.931   9.670  1.1189 -3.1359 -0.7544
21570SOL    HW268303   1.502   6.920   9.533  3.5633 -1.9915  0.1997
21571SOL     OW68304  10.545  10.031   6.154 -0.3681  0.2619 -0.3683
21571SOL    HW168305  10.469   9.977   6.176  0.9833 -1.4450  0.4563
21571SOL    HW268306  10.558  10.087   6.231 -0.7865  0.5620 -0.5149
21572SOL     OW68307   4.006   5.118  10.914  0.1473 -0.0377 -0.3583
21572SOL    HW168308   4.078   5.055  10.904 -0.3670 -0.3865 -2.4694
21572SOL    HW268309   4.019   5.156  11.000  3.3012  0.4067 -0.9100
21573SOL     OW68310   8.716   1.790  10.127 -0.3288  0.0693  0.0970
21573SOL    HW168311   8.670   1.778  10.210 -1.4850  0.2425 -0.5130
21573SOL    HW268312   8.780   1.718  10.125 -2.2554 -1.7255 -0.1742
21574SOL     OW68313   6.739  10.183   0.616 -0.1431  0.3508  0.0941
21574SOL    HW168314   6.646  10.199   0.631 -0.0767  0.1916  0.6963
21574SOL    HW268315   6.741  10.099   0.570 -0.2694  0.0845  0.5694
21575SOL     OW68316   1.381  11.042  10.485 -0.6035 -0.6757  0.2283
21575SOL    HW168317   1.287  11.040  10.502 -0.7108  1.1323  0.0466
21575SOL    HW268318   1.418  11.089  10.559 -0.3117  1.6009 -1.2350
21576SOL     OW68319   3.738   5.445   0.979 -0.0811  0.7743  0.1514
21576SOL    HW168320   3.710   5.458   1.070  1.6676  0.1070  0.8147
21576SOL    HW268321   3.803   5.375   0.983 -0.9763 -0.2530 -1.8155
21577SOL     OW68322   7.614   8.220   4.042 -0.3444 -0.1615 -0.0095
21577SOL    HW168323   7.569   8.138   4.021 -0.5021 -0.0928  0.0608
21577SOL    HW268324   7.645   8.208   4.132  0.3182 -0.4491 -0.2711
21578SOL     OW68325  11.095   7.075   4.652  0.3023  0.3348 -0.0271
21578SOL    HW168326  11.033   7.113   4.713 -0.6975  0.7808 -1.2858
21578SOL    HW268327  11.041   7.031   4.586  1.3696 -0.9485 -0.0884
21579SOL     OW68328  10.505   0.342   8.986 -0.7593  0.0108  0.3413
21579SOL    HW168329  10.559   0.300   9.052  0.5513  0.2728 -0.5272
21579SOL    HW268330  10.427   0.372   9.033 -0.6824 -1.3763  1.3978
21580SOL     OW68331   9.944   8.839   7.196 -0.4387  0.1305  0.4240
21580SOL    HW168332   9.988   8.920   7.170  3.1211 -1.6150  0.3115
21580SOL    HW268333   9.992   8.810   7.274 -0.2490 -2.7934 -0.6586
21581SOL     OW68334   5.339   8.832   6.164 -0.6067  0.0389  0.6684
21581SOL    HW168335   5.355   8.911   6.216 -0.0515  1.4254 -1.4643
21581SOL    HW268336   5.359   8.858   6.074  0.1909 -2.7268 -0.0608
21582SOL     OW68337   2.770   2.237   0.418  0.1153 -0.3476 -0.1514
21582SOL    HW168338   2.750   2.308   0.358  1.3439 -0.3923 -0.6444
21582SOL    HW268339   2.832   2.275   0.481  0.1352 -0.7533  0.0781
21583SOL     OW68340   9.091   8.839   4.874  0.0366 -0.2819  0.3658
21583SOL    HW168341   9.150   8.899   4.920  1.1787 -2.3094  1.6788
21583SOL    HW268342   9.148   8.774   4.835 -1.1726 -0.5230 -1.1046
21584SOL     OW68343  10.685   7.427   1.968  0.1820  0.1596  0.1615
21584SOL    HW168344  10.663   7.442   2.060 -2.2613 -1.8241  0.0012
21584SOL    HW268345  10.662   7.509   1.924 -0.7317  0.3649  0.9989
21585SOL     OW68346   4.232   2.506   6.202 -0.3424  0.0753 -0.1322
21585SOL    HW168347   4.208   2.599   6.204  0.6613  0.3855 -1.4034
21585SOL    HW268348   4.273   2.493   6.117 -0.1105 -1.4558  0.1817
21586SOL     OW68349   2.638   9.830   4.801 -0.6048 -0.0750  0.0866
21586SOL    HW168350   2.638   9.737   4.824  0.0065  0.3655  2.0429
21586SOL    HW268351   2.645   9.831   4.706  4.4198 -2.0671  0.1616
21587SOL     OW68352   8.065   3.551   9.179 -0.3380 -0.4696  0.3624
21587SOL    HW168353   8.033   3.473   9.224 -0.2906 -0.4334  0.4594
21587SOL    HW268354   8.146   3.574   9.225 -0.4111 -0.2978  0.4080
21588SOL     OW68355   9.291   2.056  10.082  0.3139 -0.5732  0.2600
21588SOL    HW168356   9.355   1.986  10.097  1.4215  0.4696  0.5105
21588SOL    HW268357   9.328   2.132  10.125 -1.7418 -0.2432  1.5537
21589SOL     OW68358   1.857   7.232   8.447  0.0771  0.0738  0.2859
21589SOL    HW168359   1.919   7.291   8.403  0.3236 -0.0844  0.4161
21589SOL    HW268360   1.912   7.162   8.481 -0.3526 -0.8585 -0.8947
21590SOL     OW68361   5.194   0.706   0.526  0.1597  0.4066  0.2365
21590SOL    HW168362   5.188   0.618   0.564 -3.5133  0.5266  0.2981
21590SOL    HW268363   5.264   0.699   0.461 -0.9201 -3.0210 -0.8017
21591SOL     OW68364   0.788   2.106   5.822 -0.2538  0.0972  0.2667
21591SOL    HW168365   0.754   2.196   5.826  1.2022  0.6597  0.9136
21591SOL    HW268366   0.750   2.063   5.899 -0.9206  0.1640 -0.0191
21592SOL     OW68367   2.339   9.431   5.828 -0.1457  0.1082  0.0633
21592SOL    HW168368   2.424   9.473   5.817 -0.8396  1.1831 -1.5741
21592SOL    HW268369   2.353   9.340   5.800  0.7575 -0.0863  1.1144
21593SOL     OW68370   3.675   2.836   8.111 -0.6826  0.3242  0.4410
21593SOL    HW168371   3.617   2.877   8.175 -1.9096 -0.3409 -0.2172
21593SOL    HW268372   3.673   2.743   8.132  1.0564  0.3978  1.1002
21594SOL     OW68373   0.173   2.248   8.137  0.2137 -0.5443  0.1178
21594SOL    HW168374   0.174   2.262   8.042  1.6479 -0.4090  0.1278
21594SOL    HW268375   0.089   2.206   8.154 -0.5610  0.4583 -1.0489
21595SOL     OW68376   4.317   4.353   3.937  0.2467 -0.2352  0.3614
21595SOL    HW168377   4.410   4.350   3.958  0.0309 -0.5934  1.3300
21595SOL    HW268378   4.313   4.347   3.841  1.1898 -0.7400  0.3434
21596SOL     OW68379   2.913  10.009   4.818 -0.5702  1.3003 -0.4809
21596SOL    HW168380   2.927   9.934   4.761  1.8645  0.6418  0.8377
21596SOL    HW268381   2.822  10.002   4.846 -0.8594 -0.1946 -1.6828
21597SOL     OW68382   4.347   3.376   8.021 -0.0675 -0.1675 -0.2238
21597SOL    HW168383   4.324   3.413   8.106  0.5776 -1.3167  0.4714
21597SOL    HW268384   4.270   3.393   7.966 -0.6253  0.2959  0.6707
21598SOL     OW68385   6.417   8.558   7.313  0.0945  0.1217  0.4440
21598SOL    HW168386   6.461   8.508   7.382 -0.3091 -0.9126 -0.0370
21598SOL    HW268387   6.487   8.612   7.275  0.7855 -0.8979  0.2365
21599SOL     OW68388   1.414   0.953   5.215  0.1435 -0.3707 -0.3261
21599SOL    HW168389   1.502   0.976   5.245  0.0974 -0.1532 -0.3501
21599SOL    HW268390   1.368   0.924   5.294  0.9738 -2.9016 -0.7140
21600SOL     OW68391   7.942   0.362   2.265 -0.2307 -0.0197 -0.0231
21600SOL    HW168392   7.967   0.325   2.180 -1.7144 -0.0107 -0.5007
21600SOL    HW268393   7.849   0.339   2.274  0.2927 -1.5843  2.4236
21601SOL     OW68394   9.887   8.872   0.426 -0.4135  0.0688 -0.4823
21601SOL    HW168395   9.823   8.918   0.372 -2.1203 -1.3846  0.1980
21601SOL    HW268396   9.876   8.780   0.403  0.6011 -0.3314  0.5262
21602SOL     OW68397   1.517   2.547   5.388  0.0927 -0.0319  0.0801
21602SOL    HW168398   1.612   2.540   5.398 -0.0555  0.5086  2.6815
21602SOL    HW268399   1.489   2.597   5.465 -2.3245 -0.3411 -0.5247
21603SOL     OW68400   4.021  10.148   1.639  0.3850 -0.5918  0.2508
21603SOL    HW168401   4.009  10.241   1.658 -1.5070 -1.1150  1.9706
21603SOL    HW268402   3.967  10.132   1.562  0.3874 -0.3300  0.1938
21604SOL     OW68403   5.951   9.069   3.810  0.3338 -0.1220 -0.2430
21604SOL    HW168404   5.866   9.064   3.854 -0.5530  2.1586 -1.5470
21604SOL    HW268405   6.014   9.076   3.882 -0.7477  0.0137  0.7330
21605SOL     OW68406   8.631   8.720   4.427 -0.5295  0.1817 -1.0262
21605SOL    HW168407   8.710   8.751   4.383 -0.4826  1.3573 -0.1604
21605SOL    HW268408   8.639   8.625   4.427  1.1799  0.2969 -0.4529
21606SOL     OW68409   7.159   0.906   1.481  0.4670  0.0570  0.1281
21606SOL    HW168410   7.092   0.973   1.494 -0.2264 -0.6699  0.3572
21606SOL    HW268411   7.163   0.860   1.564  0.4861 -0.5848 -0.2201
21607SOL     OW68412   4.016   8.911   0.335 -0.0267 -0.1083  0.3830
21607SOL    HW168413   3.940   8.907   0.277 -0.5184  2.7970  0.6810
21607SOL    HW268414   3.979   8.922   0.422  0.6640  1.8357  0.4809
21608SOL     OW68415  10.869   2.943   0.964 -0.3318 -0.1469  0.4407
21608SOL    HW168416  10.961   2.933   0.938 -0.3073  1.0293  0.0250
21608SOL    HW268417  10.826   2.864   0.931  0.1089  0.3162 -1.3395
21609SOL     OW68418   9.911   0.888   6.643 -0.0138  0.1458 -0.5514
21609SOL    HW168419   9.896   0.946   6.567  1.0283  0.8020 -0.2655
21609SOL    HW268420   9.895   0.944   6.719  1.9275  0.3571 -0.2550
21610SOL     OW68421   9.235   8.943   4.312  0.1902 -0.4182  0.4141
21610SOL    HW168422   9.317   8.963   4.267  0.8889 -2.7362  0.5355
21610SOL    HW268423   9.190   8.882   4.253 -0.9456 -0.0278  0.8532
21611SOL     OW68424   0.339  10.243   8.913 -0.4179 -0.0533 -0.5522
21611SOL    HW168425   0.350  10.327   8.958 -2.3689 -0.9006  1.6978
21611SOL    HW268426   0.331  10.179   8.983 -1.6461 -1.7555 -2.1612
21612SOL     OW68427   0.644   8.048   1.329 -0.4602 -0.6951  0.3427
21612SOL    HW168428   0.718   8.102   1.303 -0.4489 -0.6154  0.5319
21612SOL    HW268429   0.668   7.959   1.303  0.0792 -0.8054  1.1669
21613SOL     OW68430   6.835   8.560   1.326  0.5511 -0.2433  0.0340
21613SOL    HW168431   6.778   8.636   1.339  0.9492 -0.3094  2.6102
21613SOL    HW268432   6.841   8.520   1.412 -0.6647 -4.0178 -1.4366
21614SOL     OW68433  10.411   4.497   0.194  0.3619  0.1467 -0.0147
21614SOL    HW168434  10.322   4.477   0.223 -0.0452  0.0848 -1.2410
21614SOL    HW268435  10.459   4.515   0.274 -0.7217  0.0319  0.6799
21615SOL     OW68436   8.032   9.068   6.663 -0.3315  0.0346  0.3074
21615SOL    HW168437   7.942   9.052   6.632 -0.2557 -0.4790  0.3355
21615SOL    HW268438   8.045   9.162   6.652 -0.1940 -0.1545 -1.5814
21616SOL     OW68439   0.985   0.545   5.095  0.0032 -0.0572  0.2050
21616SOL    HW168440   0.964   0.472   5.037 -0.3717 -0.1976  0.5095
21616SOL    HW268441   0.953   0.622   5.048  1.2388  0.0188 -0.5348
21617SOL     OW68442   4.409   2.966   5.492 -0.0539 -0.4562 -0.0558
21617SOL    HW168443   4.359   3.045   5.514  1.1347  0.3061 -0.0312
21617SOL    HW268444   4.489   2.998   5.451  0.1380 -1.6797 -0.6959
21618SOL     OW68445   6.709   7.091   9.439  0.4012 -0.0502  0.0773
21618SOL    HW168446   6.793   7.120   9.472  1.4078 -0.4386 -1.9580
21618SOL    HW268447   6.650   7.165   9.451  1.3341  0.6266  0.5087
21619SOL     OW68448   4.241   2.807   9.779  0.0379 -0.0293 -0.0204
21619SOL    HW168449   4.225   2.762   9.696  0.7522  0.4434 -0.4241
21619SOL    HW268450   4.329   2.778   9.805 -0.0943 -0.0053  0.4655
21620SOL     OW68451   4.050   2.437   1.082  0.8904  0.1125  0.4680
21620SOL    HW168452   3.989   2.406   1.149 -1.7156  1.5928 -1.0567
21620SOL    HW268453   4.050   2.532   1.091  0.0647  0.4030 -1.8512
21621SOL     OW68454   1.657   7.487  10.220 -0.0176 -0.0489 -0.6466
21621SOL    HW168455   1.703   7.571  10.217 -1.8880  1.0209 -2.3193
21621SOL    HW268456   1.722   7.423  10.190  1.5950  0.6453  1.1397
21622SOL     OW68457   3.386   0.672  10.446  0.0979  0.3963  0.1269
21622SOL    HW168458   3.424   0.755  10.475  0.5286 -0.3588  1.8284
21622SOL    HW268459   3.460   0.615  10.429 -0.2005  0.2926 -0.9028
21623SOL     OW68460   4.982   4.549   2.789  0.3488 -0.6559 -0.5354
21623SOL    HW168461   4.924   4.482   2.751 -0.1325  0.9262 -2.8006
21623SOL    HW268462   5.062   4.543   2.736  1.2624 -1.0185  0.8379
21624SOL     OW68463   8.026   4.646   0.114 -0.2637 -0.2782  0.2686
21624SOL    HW168464   8.021   4.719   0.053 -1.0959 -0.7838 -0.2942
21624SOL    HW268465   7.937   4.612   0.118  0.4186 -2.3749 -0.8880
21625SOL     OW68466   8.951   7.376   8.465  0.0505  0.4056 -0.4971
21625SOL    HW168467   8.890   7.302   8.465  1.2741 -0.6527 -1.9913
21625SOL    HW268468   8.895   7.453   8.469 -1.2782 -0.5660  0.6639
21626SOL     OW68469   0.318   0.212  10.727 -0.6538  0.2744  0.3012
21626SOL    HW168470   0.264   0.252  10.658  1.5425  1.2076 -0.9669
21626SOL    HW268471   0.392   0.173  10.680  1.8080  2.3776  2.1337
21627SOL     OW68472   8.862   6.839   3.083 -0.1348  0.3581  0.2195
21627SOL    HW168473   8.840   6.839   2.989 -0.6361 -0.0534  0.3291
21627SOL    HW268474   8.857   6.931   3.108 -0.4089  0.4277 -0.0716
21628SOL     OW68475   0.052   8.571   8.068 -0.2577  0.3684 -0.3095
21628SOL    HW168476  -0.024   8.608   8.024 -0.2010  2.3249  1.1169
21628SOL    HW268477   0.026   8.563   8.160  0.8327 -0.1521 -0.0228
21629SOL     OW68478   8.139   5.597   4.029  0.4704 -0.3760  0.0164
21629SOL    HW168479   8.158   5.552   3.947  1.1168 -2.5845  1.3064
21629SOL    HW268480   8.044   5.598   4.035  0.2587  2.2951 -1.9908
21630SOL     OW68481   7.739   0.552   6.684  0.7669  0.1620 -0.3329
21630SOL    HW168482   7.792   0.572   6.761 -0.2720  0.1146  0.4149
21630SOL    HW268483   7.704   0.636   6.656  0.1467  0.0286  0.0109
21631SOL     OW68484   1.623   9.015   0.960 -0.2193 -0.0084 -0.3501
21631SOL    HW168485   1.543   9.042   0.914  0.1999  0.3910 -0.8567
21631SOL    HW268486   1.634   8.923   0.934  1.0631  0.7081 -2.6772
21632SOL     OW68487   1.521  10.088   7.722  0.1629 -0.3489 -0.3349
21632SOL    HW168488   1.468  10.084   7.643 -0.4571 -1.6870  0.1293
21632SOL    HW268489   1.497  10.172   7.762 -0.0955 -0.0188 -1.1489
21633SOL     OW68490  10.955   0.846   9.520 -0.1489 -0.1378  0.0087
21633SOL    HW168491  10.980   0.755   9.508  0.7074  0.3314 -2.3220
21633SOL    HW268492  10.919   0.873   9.435  0.8526  2.0238  0.1993
21634SOL     OW68493   2.231   3.910   6.338  0.3211  0.0029  0.2476
21634SOL    HW168494   2.213   3.949   6.252 -0.7964 -0.8143  0.0856
21634SOL    HW268495   2.275   3.827   6.318  1.1994  0.3875  0.5297
21635SOL     OW68496   8.023  10.950   7.578 -0.4678 -0.9393 -0.0634
21635SOL    HW168497   8.117  10.930   7.573 -0.3097 -0.0195 -1.6541
21635SOL    HW268498   8.020  11.038   7.617 -0.6019 -0.6224 -0.7790
21636SOL     OW68499   7.119   4.429   2.729  0.0087 -0.7946 -0.2572
21636SOL    HW168500   7.189   4.415   2.793 -0.3468 -0.5767  0.1870
21636SOL    HW268501   7.105   4.524   2.730 -0.0704 -0.8017 -0.5874
21637SOL     OW68502   6.791   9.388   2.051  0.2392 -0.0455 -0.4762
21637SOL    HW168503   6.853   9.409   1.982 -1.4577  0.7998 -1.8244
21637SOL    HW268504   6.731   9.324   2.011 -0.7006  0.3682  0.2344
21638SOL     OW68505   6.965   0.412   4.216 -0.0443 -0.6824 -0.0546
21638SOL    HW168506   7.004   0.326   4.234 -0.2220 -0.7960 -0.2100
21638SOL    HW268507   6.929   0.440   4.300 -1.9626 -1.7574 -0.4587
21639SOL     OW68508   6.542   2.534   4.691 -0.2506 -0.0477 -0.2556
21639SOL    HW168509   6.615   2.585   4.727  0.1989  0.3829 -1.7446
21639SOL    HW268510   6.574   2.501   4.607 -0.5927 -2.6630  0.5326
21640SOL     OW68511   7.731   7.629   7.048  0.3194  0.7236  0.5558
21640SOL    HW168512   7.673   7.554   7.057  1.0862  0.1985  1.3176
21640SOL    HW268513   7.699   7.692   7.111  0.5248  0.4658  0.9203
21641SOL     OW68514   9.854   1.608   2.343 -0.3237 -0.3975  0.9337
21641SOL    HW168515   9.855   1.701   2.322  0.3164 -0.8852 -1.6230
21641SOL    HW268516   9.946   1.584   2.354 -0.2833 -1.1070 -0.6642
21642SOL     OW68517   5.278   2.692   0.158  0.6338  0.2127  0.7989
21642SOL    HW168518   5.260   2.666   0.248  1.5828 -0.5618  0.7798
21642SOL    HW268519   5.368   2.723   0.159 -0.2419  3.0234  0.6856
21643SOL     OW68520   5.021   3.274   9.241  0.0311  0.1009  0.3909
21643SOL    HW168521   5.082   3.212   9.200  1.4595  0.3072  2.0627
21643SOL    HW268522   4.982   3.224   9.313 -1.1877  0.2286 -0.1640
21644SOL     OW68523   5.400  10.077   8.984 -0.3002  0.7561 -0.1839
21644SOL    HW168524   5.341  10.037   9.048 -0.5907  1.6837  0.1567
21644SOL    HW268525   5.456  10.135   9.037  0.3635  0.5065 -0.6067
21645SOL     OW68526   3.786   3.570   1.403  0.6561  0.2166  0.4535
21645SOL    HW168527   3.849   3.637   1.375 -0.0184  0.2536 -1.0734
21645SOL    HW268528   3.833   3.487   1.392  0.1580  0.1658 -1.6686
21646SOL     OW68529  10.161   4.379   9.846 -0.1641  0.8456 -0.0639
21646SOL    HW168530  10.235   4.428   9.810  0.1363  0.0674 -0.5203
21646SOL    HW268531  10.087   4.440   9.840  0.0126  0.9587 -1.4355
21647SOL     OW68532   9.373   0.988   5.794  0.2075 -0.0830 -0.3759
21647SOL    HW168533   9.322   1.059   5.754  0.9542  1.4796  1.2622
21647SOL    HW268534   9.422   0.950   5.722 -0.0371  1.2611 -1.2977
21648SOL     OW68535   3.697   6.260   6.218  0.3129  0.3605  0.8964
21648SOL    HW168536   3.695   6.208   6.299  0.4874  0.7269  1.1420
21648SOL    HW268537   3.786   6.249   6.185  0.5752  1.0603  1.3303
21649SOL     OW68538   7.231   2.625  10.104 -0.0379  0.0047  0.3162
21649SOL    HW168539   7.242   2.719  10.095  0.1993  0.0908  1.4654
21649SOL    HW268540   7.314   2.588  10.074  0.2180  0.2093  0.7711
21650SOL     OW68541   6.703   9.451  10.990 -0.1829 -0.0689  0.5332
21650SOL    HW168542   6.646   9.517  10.951  0.3809 -0.0793 -0.3340
21650SOL    HW268543   6.643   9.384  11.024 -0.6739 -0.2375 -0.6451
21651SOL     OW68544   1.944   3.038   9.072  0.6518 -0.6640 -0.0509
21651SOL    HW168545   1.898   3.113   9.033  0.2277  0.0515  1.7354
21651SOL    HW268546   1.962   2.980   8.998 -0.1083  0.6221 -1.2994
21652SOL     OW68547   0.580   8.607   6.328  0.0982  0.5899  0.5723
21652SOL    HW168548   0.536   8.538   6.378 -0.0715  0.3105  0.0576
21652SOL    HW268549   0.660   8.625   6.376  0.1930 -0.0458  0.6615
21653SOL     OW68550   4.030   6.001   4.935  0.0569  0.6597  0.0204
21653SOL    HW168551   4.059   5.960   4.853 -3.1673  2.2575 -2.1457
21653SOL    HW268552   3.997   5.928   4.987  2.0877 -0.3883 -0.0584
21654SOL     OW68553   4.258   9.902   7.193 -0.0006 -0.5271 -0.0098
21654SOL    HW168554   4.283   9.813   7.218 -3.2933 -0.6241  4.0184
21654SOL    HW268555   4.170   9.892   7.156  1.0840  0.8135 -3.2917
21655SOL     OW68556  10.810   3.812   1.379 -0.1276 -0.1600 -0.2685
21655SOL    HW168557  10.759   3.799   1.459  1.0561  0.2496  0.5770
21655SOL    HW268558  10.749   3.853   1.317 -0.4629  1.6075  1.1737
21656SOL     OW68559   2.359   1.127   4.388  0.2445  0.1308  0.4988
21656SOL    HW168560   2.354   1.137   4.293 -2.4948  0.2593  0.5838
21656SOL    HW268561   2.335   1.213   4.423  0.2315 -0.1915  1.3058
21657SOL     OW68562   9.083   5.943   4.523 -0.1313  0.4424 -0.5205
21657SOL    HW168563   9.130   5.907   4.447  0.3840 -0.6602  0.2968
21657SOL    HW268564   8.997   5.901   4.519 -0.9658  2.1466 -1.7796
21658SOL     OW68565   2.439   2.871   4.817 -0.3091 -0.5350 -0.0523
21658SOL    HW168566   2.398   2.917   4.891  0.4538 -1.6129  1.0903
21658SOL    HW268567   2.490   2.938   4.772 -2.5454  0.6559 -0.9964
21659SOL     OW68568   0.449   6.908   7.433 -0.1336 -0.8751 -0.0755
21659SOL    HW168569   0.514   6.855   7.480  0.6333 -0.2195 -0.3791
21659SOL    HW268570   0.455   6.994   7.473  0.4607 -0.3301 -1.2936
21660SOL     OW68571   5.598   3.226   4.017  0.4479  0.0587  0.3182
21660SOL    HW168572   5.657   3.197   4.087  0.2575 -0.0126  0.4526
21660SOL    HW268573   5.564   3.145   3.980 -1.5211  0.0641  1.9203
21661SOL     OW68574   9.945  10.718   7.969 -0.3243  0.2948 -0.0076
21661SOL    HW168575   9.998  10.647   7.933 -1.4334 -1.3140  1.3780
21661SOL    HW268576   9.974  10.796   7.922  1.9741 -0.8061 -0.5529
21662SOL     OW68577   2.829   9.369   0.883 -0.0927  0.2368 -0.0702
21662SOL    HW168578   2.847   9.282   0.917 -0.6038 -0.0566 -0.5271
21662SOL    HW268579   2.911   9.396   0.841  0.2903  0.2769  0.6887
21663SOL     OW68580   3.105   7.005   7.699 -0.3825  0.4230 -0.0760
21663SOL    HW168581   3.179   7.009   7.639  1.3041  0.1247  1.8787
21663SOL    HW268582   3.092   7.095   7.728  1.7008  0.0319  2.3572
21664SOL     OW68583   4.138   0.396   0.714  0.4600  0.1809  0.1340
21664SOL    HW168584   4.132   0.431   0.625  2.1911  1.0929  0.3245
21664SOL    HW268585   4.216   0.340   0.713  0.6108  0.3413  1.1120
21665SOL     OW68586   2.271   1.307   7.014  0.5048  0.2084  0.0530
21665SOL    HW168587   2.191   1.344   6.979 -0.1083  0.8307  2.0229
21665SOL    HW268588   2.254   1.213   7.018  0.6012  0.1176 -1.2773
21666SOL     OW68589   9.289   2.379   7.475 -0.0709  0.2457 -0.0363
21666SOL    HW168590   9.283   2.472   7.453  0.4447 -0.0411 -1.5293
21666SOL    HW268591   9.247   2.371   7.560  1.6525  2.1840  1.0824
21667SOL     OW68592  10.279  10.697   2.383  1.0689  0.3048  0.2696
21667SOL    HW168593  10.287  10.662   2.471  0.7952  0.1101  0.2174
21667SOL    HW268594  10.355  10.663   2.336  0.3109 -0.9993 -0.0462
21668SOL     OW68595   6.081   7.314   4.405 -0.6021  0.0063  0.6403
21668SOL    HW168596   6.048   7.299   4.494  0.4454  0.3455  1.0908
21668SOL    HW268597   6.114   7.229   4.377 -0.3667  0.0451  0.8056
21669SOL     OW68598  11.078   5.952   1.335  0.4372 -0.3049 -0.8405
21669SOL    HW168599  11.057   5.958   1.429  1.6471 -0.6752 -0.5322
21669SOL    HW268600  11.096   5.860   1.321 -1.6161 -0.6126 -1.8946
21670SOL     OW68601   9.692   4.317   7.709  0.3363  0.2662 -0.2398
21670SOL    HW168602   9.611   4.264   7.712  1.1000 -1.1161 -1.9972
21670SOL    HW268603   9.675   4.390   7.769 -0.6348 -2.1439  2.7223
21671SOL     OW68604   2.868   2.111   7.460  0.0154 -0.3664  0.0146
21671SOL    HW168605   2.810   2.071   7.395 -1.0771 -0.1966  0.8616
21671SOL    HW268606   2.954   2.111   7.418 -0.9217  1.2579 -2.1538
21672SOL     OW68607   3.619   6.436   4.240 -0.2945  0.0549 -0.0444
21672SOL    HW168608   3.708   6.401   4.244 -0.0339  0.2413 -2.6865
21672SOL    HW268609   3.623   6.508   4.177 -2.5519 -0.8202 -1.3285
21673SOL     OW68610   9.342   1.770   3.021  0.2302  0.4016  0.1516
21673SOL    HW168611   9.389   1.699   2.977  0.6877  0.8060 -0.0249
21673SOL    HW268612   9.311   1.827   2.950 -0.3625  0.2378  0.2795
21674SOL     OW68613   5.954   6.758   1.101  0.1644  0.2847  0.2317
21674SOL    HW168614   5.904   6.835   1.074  0.3504  0.6192  0.8415
21674SOL    HW268615   6.045   6.786   1.100  0.4559 -0.5611 -1.6996
21675SOL     OW68616   5.066   0.846   1.788  0.6167  0.2767 -0.0984
21675SOL    HW168617   5.061   0.933   1.749 -1.2351 -0.1113 -0.8202
21675SOL    HW268618   5.119   0.795   1.726  0.3551  0.4842 -0.4955
21676SOL     OW68619   0.987   3.575   8.083  0.3363  0.1134  0.1396
21676SOL    HW168620   1.017   3.524   8.008 -0.1187  2.1647 -1.5425
21676SOL    HW268621   1.064   3.582   8.139  1.4470  0.6193 -1.3832
21677SOL     OW68622  10.815   7.282   4.468  0.3008 -0.3177  0.2073
21677SOL    HW168623  10.774   7.198   4.446  0.2360 -0.0423 -0.7518
21677SOL    HW268624  10.896   7.283   4.418  0.6156 -0.0739  0.7098
21678SOL     OW68625   6.974  10.858   5.193  0.3532 -0.1829 -0.1606
21678SOL    HW168626   7.022  10.938   5.215 -0.2530 -0.1865  1.2429
21678SOL    HW268627   6.949  10.870   5.101  0.9099  0.9018 -0.1852
21679SOL     OW68628   9.022   2.649   6.940  0.3130 -0.4957 -0.2571
21679SOL    HW168629   9.029   2.614   6.851  0.6124  0.2070 -0.5183
21679SOL    HW268630   9.008   2.572   6.995 -1.6009 -0.8117 -1.0860
21680SOL     OW68631   0.785   9.083   8.467 -0.3986 -0.3743 -0.3518
21680SOL    HW168632   0.700   9.077   8.509  0.2103 -2.3602  0.7392
21680SOL    HW268633   0.837   9.014   8.509  1.5994  0.4753 -1.3086
21681SOL     OW68634   4.886   0.305  10.412  0.1714  0.0125 -0.0726
21681SOL    HW168635   4.807   0.296  10.359 -0.2549  1.4113  0.2882
21681SOL    HW268636   4.908   0.398  10.407  0.9517 -0.0951  1.0190
21682SOL     OW68637   7.811   6.334   5.812 -0.2747  0.0771 -0.0378
21682SOL    HW168638   7.793   6.423   5.783  0.4941  0.4004  0.4424
21682SOL    HW268639   7.849   6.291   5.736  0.4672  0.5204  0.0716
21683SOL     OW68640   4.591  10.570   0.700 -0.0831  0.3594  0.2783
21683SOL    HW168641   4.634  10.649   0.732  1.4986 -0.6837  0.8916
21683SOL    HW268642   4.518  10.601   0.646  0.4349  2.2087  0.5976
21684SOL     OW68643   0.062   5.957   5.458  0.3656 -0.0115 -0.1325
21684SOL    HW168644   0.062   6.049   5.435 -0.0548 -0.0896 -0.4615
21684SOL    HW268645  -0.026   5.941   5.494 -0.0882 -0.6109 -1.4457
21685SOL     OW68646   7.833   5.825   9.263  0.1292 -0.4115  0.3647
21685SOL    HW168647   7.777   5.766   9.212 -0.1547 -1.1321  1.4680
21685SOL    HW268648   7.780   5.903   9.277 -0.6677 -1.1124  1.4551
21686SOL     OW68649   8.271   0.488  10.012 -0.4174  0.1612 -0.0370
21686SOL    HW168650   8.324   0.457  10.086 -0.5898 -0.7981 -0.3032
21686SOL    HW268651   8.300   0.578   9.998  1.1719 -0.3408 -0.1897
21687SOL     OW68652  10.852   8.434   8.888 -0.2402  0.7599  0.4608
21687SOL    HW168653  10.800   8.426   8.968  0.7737 -5.1108  1.0349
21687SOL    HW268654  10.942   8.447   8.919 -0.0184 -0.3004  0.3279
21688SOL     OW68655   7.038   3.893  11.011 -0.2323 -0.4331  0.2447
21688SOL    HW168656   7.063   3.804  11.039  1.5787  0.3885  1.4913
21688SOL    HW268657   7.081   3.950  11.075  0.4168  1.4325 -1.7581
21689SOL     OW68658   9.507   7.292   7.793  0.6662 -0.3106 -0.2394
21689SOL    HW168659   9.503   7.387   7.797  0.6572 -0.2854 -0.7303
21689SOL    HW268660   9.556   7.273   7.713  1.5278 -0.7172  0.3652
21690SOL     OW68661   4.669   6.224   1.080  0.0840  0.2573 -0.8158
21690SOL    HW168662   4.709   6.310   1.073  0.2747  0.1376 -1.3279
21690SOL    HW268663   4.601   6.233   1.146  0.5768  0.6140 -0.3479
21691SOL     OW68664   9.076   0.463   3.949  0.2203 -0.3728 -0.0109
21691SOL    HW168665   9.156   0.460   4.001 -0.0446  2.2572  0.6772
21691SOL    HW268666   9.106   0.452   3.858  1.0471 -1.6669  0.3815
21692SOL     OW68667   9.303   1.005   6.941  0.3811 -0.2373 -0.0721
21692SOL    HW168668   9.325   0.923   6.897 -1.0313 -0.5472 -0.2331
21692SOL    HW268669   9.356   1.071   6.896  0.1438 -0.7883 -1.1781
21693SOL     OW68670   4.961  10.629   7.358 -0.4376 -0.2123 -0.3267
21693SOL    HW168671   5.027  10.683   7.313 -0.6081  1.7946  1.6584
21693SOL    HW268672   4.998  10.613   7.445 -1.3842 -1.4557 -0.1248
21694SOL     OW68673   6.045   0.320   0.676  0.0348  0.0425 -0.2567
21694SOL    HW168674   6.105   0.356   0.610  2.9074 -0.1238  2.0397
21694SOL    HW268675   6.018   0.396   0.727 -2.5076  0.2302 -1.7164
21695SOL     OW68676   0.572   7.280  10.100 -0.3103 -0.3658 -0.2808
21695SOL    HW168677   0.593   7.373  10.099 -2.7315  0.2422 -0.5424
21695SOL    HW268678   0.476   7.277  10.097 -0.2757 -2.8749 -1.1696
21696SOL     OW68679   2.907   2.081   5.759 -0.4049  0.2185 -0.0006
21696SOL    HW168680   2.949   2.016   5.815 -1.2607 -0.7618 -0.4569
21696SOL    HW268681   2.822   2.096   5.799 -1.1418 -0.7049 -1.1487
21697SOL     OW68682   4.773  10.337  10.248 -0.1953  0.6784 -0.5229
21697SOL    HW168683   4.690  10.374  10.217 -0.7323 -1.2474 -1.5798
21697SOL    HW268684   4.800  10.277  10.179 -0.3668 -2.2973  1.7775
21698SOL     OW68685   9.199   1.882  10.723  0.0434  0.5293 -0.3247
21698SOL    HW168686   9.249   1.957  10.693  1.1466 -0.2681 -0.5702
21698SOL    HW268687   9.223   1.811  10.663 -1.0056 -0.0117 -0.1379
21699SOL     OW68688   9.903   3.750   6.281 -0.7025  0.6653 -0.1194
21699SOL    HW168689   9.827   3.791   6.239 -1.2402  3.0491  2.7753
21699SOL    HW268690   9.965   3.822   6.293  1.3257 -0.8664 -0.7826
21700SOL     OW68691   0.048   8.900   2.428  0.4215 -0.0621 -0.1300
21700SOL    HW168692   0.043   8.966   2.358  0.5424  0.0052 -0.0765
21700SOL    HW268693   0.114   8.935   2.488  0.6988 -0.3717 -0.2504
21701SOL     OW68694   9.697   2.951   7.088 -0.1668  0.3763  0.1767
21701SOL    HW168695   9.713   3.014   7.017  1.2878  0.4970  0.5696
21701SOL    HW268696   9.643   2.883   7.048  0.1546  0.7290 -0.9027
21702SOL     OW68697   9.096   7.099   8.340  0.0952 -0.0462 -0.0102
21702SOL    HW168698   9.001   7.099   8.345 -0.0291 -1.4000 -1.7631
21702SOL    HW268699   9.122   7.178   8.389 -1.9236  0.6289  0.0592
21703SOL     OW68700   9.632  10.934   9.071 -0.7040 -0.2800  0.2615
21703SOL    HW168701   9.700  10.921   9.004 -1.0033 -0.3221 -0.0384
21703SOL    HW268702   9.649  10.867   9.136 -0.8711 -0.7372 -0.1573
21704SOL     OW68703   1.022   4.806   3.600  0.2960  0.2442 -0.2672
21704SOL    HW168704   1.020   4.729   3.656  1.1998 -0.0740 -0.6564
21704SOL    HW268705   1.066   4.778   3.521 -1.3997  0.5494 -1.3873
21705SOL     OW68706   9.439   4.620   6.637 -0.5742  0.8679  0.0005
21705SOL    HW168707   9.468   4.628   6.546  2.3290 -1.8195  0.5212
21705SOL    HW268708   9.468   4.702   6.678 -0.3947  1.3809 -1.0989
21706SOL     OW68709   1.413   1.684  10.167 -0.2809 -0.0521  0.1239
21706SOL    HW168710   1.435   1.624  10.097  0.2804 -1.3565  1.3726
21706SOL    HW268711   1.472   1.759  10.155  0.7661 -0.8846  0.0072
21707SOL     OW68712   0.625   2.870   4.785  0.4769  0.2333 -0.2561
21707SOL    HW168713   0.613   2.956   4.745  1.5978 -0.2622 -1.7799
21707SOL    HW268714   0.716   2.848   4.765  0.1950 -1.3130  0.0674
21708SOL     OW68715   3.244   3.287   7.634  0.5004 -0.3384 -0.1989
21708SOL    HW168716   3.247   3.199   7.671  1.5850 -1.0146 -1.7630
21708SOL    HW268717   3.160   3.322   7.662  0.3702 -1.5737  1.0897
21709SOL     OW68718   9.642   5.196   1.081 -0.6400 -0.1994 -0.8739
21709SOL    HW168719   9.582   5.165   1.013 -0.5357  1.2425 -1.6688
21709SOL    HW268720   9.706   5.250   1.034  1.3832 -1.7462 -0.0820
21710SOL     OW68721   7.334   3.927   6.288  0.4661  0.2216  0.7353
21710SOL    HW168722   7.368   4.013   6.316 -1.0324  0.6233  1.3851
21710SOL    HW268723   7.361   3.921   6.196  2.4476  0.4149  1.2404
21711SOL     OW68724   5.115   1.330   1.342 -0.2057 -0.3583  0.7117
21711SOL    HW168725   5.109   1.376   1.426  0.3890 -2.0816  1.7418
21711SOL    HW268726   5.052   1.258   1.350  0.6553 -1.1935  0.1239
21712SOL     OW68727   9.905   9.142   4.369 -0.0869  0.3286  0.1235
21712SOL    HW168728   9.935   9.227   4.337  1.3522  0.8162  2.5527
21712SOL    HW268729   9.827   9.162   4.420  1.3554  0.5601  2.3593
21713SOL     OW68730   7.460   2.846   0.376 -0.1245  0.2105 -0.0526
21713SOL    HW168731   7.472   2.922   0.433  4.0318 -0.3830  0.1585
21713SOL    HW268732   7.388   2.796   0.416 -0.3705  2.0549  1.9890
21714SOL     OW68733   3.343   1.935   1.247  0.0680  0.8526 -0.2311
21714SOL    HW168734   3.316   1.844   1.258  1.1927  0.7701  2.9027
21714SOL    HW268735   3.438   1.933   1.250  0.1044  2.1888  1.4174
21715SOL     OW68736   2.428   8.339   8.138  0.1742  0.2041 -0.5118
21715SOL    HW168737   2.338   8.355   8.108 -0.8594  0.8652  2.5746
21715SOL    HW268738   2.460   8.425   8.164  1.8631  0.0115 -1.7789
21716SOL     OW68739   4.552   2.495  10.187 -0.3824  0.0376  0.0472
21716SOL    HW168740   4.607   2.417  10.180  1.8926  1.6191 -0.9908
21716SOL    HW268741   4.593   2.547  10.255  0.4596  1.9532 -1.8027
21717SOL     OW68742   4.346   3.177   7.646 -0.1110  0.1120  0.3008
21717SOL    HW168743   4.280   3.198   7.580 -0.9720  1.2977  1.4852
21717SOL    HW268744   4.391   3.100   7.611 -2.9029 -1.5094 -0.0159
21718SOL     OW68745   5.530   1.391   8.469 -0.1981 -0.1358 -0.2211
21718SOL    HW168746   5.526   1.355   8.558 -0.1591 -0.5008 -0.3647
21718SOL    HW268747   5.584   1.328   8.421  0.8772  0.7316 -0.1814
21719SOL     OW68748   6.127   4.921   3.699  0.2934  0.1838 -0.2762
21719SOL    HW168749   6.178   4.980   3.754 -0.0022 -0.1272  0.3482
21719SOL    HW268750   6.047   4.905   3.749  1.2724 -2.4519  0.6364
21720SOL     OW68751   0.678   8.781   4.933  0.2848  0.0962  0.1901
21720SOL    HW168752   0.619   8.814   5.001 -0.1398  0.1765 -0.2196
21720SOL    HW268753   0.657   8.688   4.925  1.0041 -0.1425  0.8476
21721SOL     OW68754   8.147   0.908   1.500 -0.1060 -0.0451 -0.1813
21721SOL    HW168755   8.064   0.888   1.544 -0.0458 -1.4536 -0.6579
21721SOL    HW268756   8.123   0.970   1.431 -0.5832  0.3411  0.3216
21722SOL     OW68757   0.934   9.799   0.372 -0.4476  0.2266 -0.3020
21722SOL    HW168758   0.970   9.726   0.322  1.3969 -0.1275  1.4258
21722SOL    HW268759   0.876   9.758   0.436  1.5761  0.0365  1.5291
21723SOL     OW68760   9.030   2.513   6.718 -0.3392 -0.5299  0.2123
21723SOL    HW168761   9.032   2.418   6.728  1.6665 -0.8063 -1.7777
21723SOL    HW268762   9.106   2.532   6.662 -0.8903  2.2060  0.2635
21724SOL     OW68763   4.149   4.650  10.413  0.0584  0.5745  0.1297
21724SOL    HW168764   4.179   4.628  10.325 -0.6916 -1.4709  0.3276
21724SOL    HW268765   4.202   4.595  10.471 -0.2220  1.0647  0.8703
21725SOL     OW68766   8.712   5.111   3.585  0.5970 -0.1388 -0.0147
21725SOL    HW168767   8.630   5.151   3.612  1.4821  1.4262  0.4991
21725SOL    HW268768   8.746   5.071   3.665  0.3604 -0.7836 -0.2264
21726SOL     OW68769   2.068   8.889   9.940 -0.5231 -0.4847  0.8416
21726SOL    HW168770   2.026   8.829   9.878  0.8250 -1.9543  1.2834
21726SOL    HW268771   2.069   8.841  10.023 -0.8124  0.7938  1.6074
21727SOL     OW68772   7.210   4.137   2.881  0.5089  0.0919  0.4453
21727SOL    HW168773   7.254   4.115   2.798  1.8584  2.0164  0.5924
21727SOL    HW268774   7.152   4.062   2.898  0.0297 -0.2582 -2.3220
21728SOL     OW68775   0.352   8.274   4.923  0.2260  0.1286  0.5968
21728SOL    HW168776   0.412   8.295   4.995  0.5206 -0.2902  0.4796
21728SOL    HW268777   0.273   8.243   4.965  0.6596 -0.8113  0.7371
21729SOL     OW68778   9.365   5.470   2.831 -0.7526 -0.0194  0.0635
21729SOL    HW168779   9.419   5.450   2.908 -0.8011 -1.0064 -0.1448
21729SOL    HW268780   9.288   5.413   2.840  0.0338 -1.4366 -1.5719
21730SOL     OW68781   3.902   9.909   5.879 -0.0079 -0.0174 -0.0995
21730SOL    HW168782   3.857   9.895   5.796  1.0714 -1.5682 -0.4647
21730SOL    HW268783   3.995   9.903   5.857  0.4106  2.3508  0.7558
21731SOL     OW68784   6.726   0.593   1.064 -0.1762 -0.2814  0.2045
21731SOL    HW168785   6.750   0.527   1.129  1.1752 -1.1373 -1.1095
21731SOL    HW268786   6.688   0.664   1.115  0.6544 -1.0167  1.9128
21732SOL     OW68787   7.671   5.943   3.873 -0.0869  0.1726 -0.3852
21732SOL    HW168788   7.693   5.889   3.950 -0.6189  0.6584  0.1159
21732SOL    HW268789   7.675   6.033   3.905 -0.1511  0.3869 -0.9735
21733SOL     OW68790   2.769   1.060   8.931  0.2144 -0.7055  1.1512
21733SOL    HW168791   2.767   0.965   8.944  0.0718 -0.7070  1.1249
21733SOL    HW268792   2.857   1.086   8.955  0.2143 -0.8280  1.2861
21734SOL     OW68793   4.850   8.589   0.386  0.0272  0.6961  0.2155
21734SOL    HW168794   4.765   8.558   0.354 -0.1957  0.7800  0.7137
21734SOL    HW268795   4.914   8.532   0.345 -0.3948 -0.8569  1.5817
21735SOL     OW68796  10.749   4.074   8.216  0.7359  0.2600 -0.0562
21735SOL    HW168797  10.659   4.102   8.234  0.1112 -1.4047 -0.4525
21735SOL    HW268798  10.740   3.989   8.173  2.4650  0.7032 -1.3904
21736SOL     OW68799   1.712   3.994   5.198  0.1079 -0.3060  0.1823
21736SOL    HW168800   1.679   4.068   5.248  1.2461  0.1533  0.2953
21736SOL    HW268801   1.645   3.976   5.133 -0.2887  0.6699  0.3106
21737SOL     OW68802  11.018   7.704   5.279 -0.0325 -0.5303  0.0474
21737SOL    HW168803  10.936   7.742   5.247 -0.4544 -1.1335  0.3947
21737SOL    HW268804  11.084   7.732   5.215 -0.3992  0.4537  0.0867
21738SOL     OW68805   5.188   3.084   2.242  0.0062 -0.1064 -0.6568
21738SOL    HW168806   5.246   3.133   2.184  0.7904  0.0439  0.2479
21738SOL    HW268807   5.228   3.090   2.328 -0.6185 -1.1745 -0.2725
21739SOL     OW68808   2.797   5.473   7.462 -0.1731 -0.1710 -0.2150
21739SOL    HW168809   2.762   5.554   7.426  0.0231  0.1368  0.2808
21739SOL    HW268810   2.885   5.466   7.425  0.3741  0.6177  0.9106
21740SOL     OW68811   9.970   8.822   5.066  0.1645 -0.0638 -0.2298
21740SOL    HW168812  10.018   8.903   5.080 -0.5448  0.1806  0.9229
21740SOL    HW268813   9.899   8.824   5.131 -0.4092 -1.1755 -0.7875
21741SOL     OW68814   9.906   6.905   0.602  0.1922 -0.6169 -0.2813
21741SOL    HW168815   9.897   6.850   0.524 -0.8312 -1.1422  0.1900
21741SOL    HW268816   9.881   6.993   0.573  0.0436 -0.7608 -0.5947
21742SOL     OW68817   4.849   2.859   3.033  0.0251 -0.1702 -0.4858
21742SOL    HW168818   4.904   2.783   3.014  1.1380  0.5598 -0.2552
21742SOL    HW268819   4.868   2.880   3.124  2.0498  2.1799 -1.3236
21743SOL     OW68820   3.160   1.434   8.205  0.5766  0.1483  0.2512
21743SOL    HW168821   3.130   1.425   8.114  0.7719  1.1302  0.0720
21743SOL    HW268822   3.253   1.453   8.198  0.4806  0.8169  0.6150
21744SOL     OW68823   6.875   7.181   0.668 -0.5561 -0.1796 -0.6410
21744SOL    HW168824   6.903   7.092   0.689  2.8489  0.9853  0.4410
21744SOL    HW268825   6.878   7.186   0.572  0.3142 -0.9375 -0.6632
21745SOL     OW68826   1.439   8.565   0.175  0.3211  0.3338  0.2275
21745SOL    HW168827   1.357   8.549   0.129  1.0832  0.3914 -1.2193
21745SOL    HW268828   1.494   8.611   0.111  2.0601 -1.1314  0.5671
21746SOL     OW68829   8.116   4.912   7.557 -0.6061 -0.3052 -0.5809
21746SOL    HW168830   8.152   4.844   7.613  0.6021  0.7956  0.0535
21746SOL    HW268831   8.166   4.906   7.475 -0.2913  0.0068 -0.4126
21747SOL     OW68832   4.597   7.311   8.130 -0.0396  0.4524  0.0493
21747SOL    HW168833   4.592   7.241   8.064 -1.2156 -0.2667  0.8734
21747SOL    HW268834   4.593   7.392   8.079 -2.3346 -0.0826 -0.7329
21748SOL     OW68835   5.071   6.017   7.125 -0.0953  0.1805  0.2970
21748SOL    HW168836   5.081   6.029   7.219  0.3589 -1.1722  0.4439
21748SOL    HW268837   4.996   6.072   7.101 -0.3695  0.3365  1.4814
21749SOL     OW68838   0.377   8.318   3.394  0.2680 -0.4292 -0.5262
21749SOL    HW168839   0.352   8.313   3.486 -0.0063 -1.0711 -0.6321
21749SOL    HW268840   0.473   8.326   3.396  0.2820 -0.6437 -0.1893
21750SOL     OW68841   8.197   7.659   0.988 -0.0901 -0.2599 -0.5182
21750SOL    HW168842   8.164   7.700   0.908 -0.5154 -1.3255 -0.9101
21750SOL    HW268843   8.131   7.681   1.054  0.3289  0.7350 -0.4218
21751SOL     OW68844   6.477   6.713   9.189 -0.0372 -0.7505  0.4453
21751SOL    HW168845   6.392   6.678   9.164 -1.1955  1.7842  0.6148
21751SOL    HW268846   6.464   6.807   9.195  2.1017 -0.4986  3.0784
21752SOL     OW68847   7.475   4.426   1.444  1.2980 -0.2504 -0.0876
21752SOL    HW168848   7.380   4.421   1.429  1.1895 -0.2766  0.5743
21752SOL    HW268849   7.513   4.376   1.372  0.7622 -0.9530  0.0942
21753SOL     OW68850   8.628   3.224   3.468 -0.4200 -0.2805 -0.0054
21753SOL    HW168851   8.549   3.275   3.455  0.6963  1.1164 -1.7220
21753SOL    HW268852   8.605   3.136   3.439 -1.6032 -0.1422  0.4549
21754SOL     OW68853   0.300  10.620   3.605  0.2967 -0.1184 -0.5917
21754SOL    HW168854   0.352  10.696   3.631  1.8416 -0.9221 -1.1570
21754SOL    HW268855   0.270  10.641   3.516 -1.7318  1.0022  0.2994
21755SOL     OW68856   8.582   6.682   0.286  0.0102  0.5257  0.2309
21755SOL    HW168857   8.539   6.665   0.202  1.0307 -0.8341 -0.0382
21755SOL    HW268858   8.604   6.775   0.282  0.7182  0.3269 -1.3528
21756SOL     OW68859   5.696   7.564   8.369 -0.3963 -0.6041 -0.0078
21756SOL    HW168860   5.754   7.606   8.306 -0.8205  1.2861  0.8066
21756SOL    HW268861   5.755   7.521   8.431  0.0537 -0.8046 -0.5629
21757SOL     OW68862   0.836   4.639  10.135  0.5712  0.2371 -0.0956
21757SOL    HW168863   0.902   4.581  10.097  0.1658 -2.2933  2.6961
21757SOL    HW268864   0.885   4.692  10.198  0.3356  0.2002  0.1173
21758SOL     OW68865  10.765   9.705   8.613 -0.7228  0.2212  0.4299
21758SOL    HW168866  10.793   9.759   8.538 -0.5689 -0.7820 -0.2511
21758SOL    HW268867  10.844   9.657   8.639 -0.3278  1.7753  2.3400
21759SOL     OW68868   8.844   7.783   1.246 -0.1524  0.5168  0.0092
21759SOL    HW168869   8.789   7.705   1.251  1.0596 -0.3438  0.4827
21759SOL    HW268870   8.861   7.806   1.337 -0.1870  1.1071 -0.1309
21760SOL     OW68871   5.314   5.044   0.651 -0.1457 -0.3753  0.4568
21760SOL    HW168872   5.255   4.972   0.630 -0.4048 -0.0413  0.0299
21760SOL    HW268873   5.286   5.116   0.595  2.3864 -1.0335 -1.9159
21761SOL     OW68874   1.865   7.360   3.090  0.0567  0.3696 -0.3614
21761SOL    HW168875   1.927   7.407   3.034 -0.1126  2.2654  0.9519
21761SOL    HW268876   1.895   7.379   3.180 -1.2540 -0.3503  0.2504
21762SOL     OW68877   4.035   9.071   0.818 -0.2931 -0.3188  0.3689
21762SOL    HW168878   4.054   9.151   0.867  1.1604 -0.7551  0.5816
21762SOL    HW268879   3.997   9.011   0.882  1.5846 -0.8801  1.0218
21763SOL     OW68880   0.579   6.357   9.656 -0.0179 -0.2409 -0.3415
21763SOL    HW168881   0.657   6.342   9.710 -0.2072 -0.1533 -0.0444
21763SOL    HW268882   0.612   6.403   9.579  0.2536 -0.3711 -0.3032
21764SOL     OW68883   7.239   2.823   8.990  0.7104 -0.8211  0.4245
21764SOL    HW168884   7.332   2.822   8.966  0.5742  2.1413 -0.6676
21764SOL    HW268885   7.193   2.834   8.906 -0.4467  0.1153  1.1571
21765SOL     OW68886  10.556   3.953   8.498  0.4997  0.1572  0.0784
21765SOL    HW168887  10.460   3.957   8.503  0.5420 -0.4333  3.0979
21765SOL    HW268888  10.574   3.860   8.486  0.6329 -0.5395  4.2204
21766SOL     OW68889   4.140   5.462  10.942  0.7739  0.0687  0.0759
21766SOL    HW168890   4.222   5.501  10.913  1.4934 -1.7430 -0.4053
21766SOL    HW268891   4.100   5.427  10.862  0.9029 -1.5188  0.6705
21767SOL     OW68892   1.844   8.283   4.511  0.0254 -0.2448 -0.2716
21767SOL    HW168893   1.888   8.367   4.504  0.1850 -0.1230  1.5357
21767SOL    HW268894   1.777   8.297   4.579 -0.1164 -1.4942 -0.1235
21768SOL     OW68895  10.844   1.032   7.014  0.2268 -0.0781 -0.3286
21768SOL    HW168896  10.798   0.959   6.972  1.7551 -0.9398 -0.5970
21768SOL    HW268897  10.936   1.019   6.989  0.5964  1.6799  0.0239
21769SOL     OW68898   4.837   8.258   6.523 -1.3885 -0.3944  0.2993
21769SOL    HW168899   4.776   8.236   6.454 -1.7481  2.1262 -0.2860
21769SOL    HW268900   4.782   8.279   6.598 -1.2269  0.8814  0.0787
21770SOL     OW68901   5.300   9.414   5.415 -0.0230 -0.0458  0.1509
21770SOL    HW168902   5.318   9.368   5.497 -2.1121 -0.2634  0.5459
21770SOL    HW268903   5.285   9.345   5.351  0.7124  0.1253 -0.2186
21771SOL     OW68904   1.501   7.747   1.496  0.4416  0.0597 -0.2371
21771SOL    HW168905   1.507   7.788   1.410 -1.0412 -0.3823 -0.5889
21771SOL    HW268906   1.573   7.683   1.497  1.2101  0.8946 -0.6558
21772SOL     OW68907   6.008   2.780   4.694 -0.1636  0.1340  0.1291
21772SOL    HW168908   6.019   2.855   4.753  1.3041  0.0671 -0.0040
21772SOL    HW268909   5.916   2.757   4.700 -0.2640  0.8088  1.5761
21773SOL     OW68910   6.505   0.877   9.102  0.5283  0.3736  0.0258
21773SOL    HW168911   6.593   0.896   9.133  0.3028 -0.4331  1.2746
21773SOL    HW268912   6.448   0.899   9.177 -0.1372 -0.8261 -0.1031
21774SOL     OW68913   7.457   8.874   5.314  0.0537 -0.0389 -0.0715
21774SOL    HW168914   7.478   8.942   5.379  0.2152 -0.0746 -0.0850
21774SOL    HW268915   7.519   8.889   5.243  1.2826 -1.2721  0.6761
21775SOL     OW68916   8.661   5.410   9.715  0.2303  0.3915 -0.2290
21775SOL    HW168917   8.677   5.330   9.765  2.2206  1.8087  1.5771
21775SOL    HW268918   8.585   5.451   9.756  0.0448  0.1016 -0.2842
21776SOL     OW68919   2.983   6.750   3.403 -0.7012  0.7859 -0.5562
21776SOL    HW168920   2.982   6.668   3.354  0.7394  0.1117  0.4911
21776SOL    HW268921   2.984   6.724   3.495 -0.9671  1.9942 -0.1826
21777SOL     OW68922   1.684   3.979   6.300 -0.7942 -0.1206  0.3426
21777SOL    HW168923   1.755   3.929   6.341 -0.1225  1.4517  1.1610
21777SOL    HW268924   1.609   3.968   6.358 -0.7232 -0.3467  0.3932
21778SOL     OW68925   5.950   3.298   5.624 -0.1379 -0.3348  0.6369
21778SOL    HW168926   5.864   3.280   5.587  0.8208 -0.8205 -1.4950
21778SOL    HW268927   6.011   3.284   5.552  1.7589 -0.1292  2.1154
21779SOL     OW68928   8.431   8.931   8.382 -0.4008  0.1757 -0.0179
21779SOL    HW168929   8.442   8.839   8.402  1.5548  0.2278 -0.7145
21779SOL    HW268930   8.387   8.967   8.459  1.4753 -0.7780  1.5829
21780SOL     OW68931   0.394   0.688   6.452 -0.4150 -0.1779 -0.0510
21780SOL    HW168932   0.306   0.653   6.463 -0.7025  0.3425 -0.6027
21780SOL    HW268933   0.394   0.769   6.503  0.1416 -0.7899  0.9507
21781SOL     OW68934  11.051   4.252   9.323 -0.6084  0.0787 -0.1784
21781SOL    HW168935  10.975   4.308   9.336 -0.4036 -0.0343  1.7857
21781SOL    HW268936  11.021   4.164   9.344 -0.8129 -0.5918 -2.8314
21782SOL     OW68937   0.643   4.003   6.039 -0.3300  0.6123 -0.2676
21782SOL    HW168938   0.671   4.019   6.130 -0.8579  1.3608 -0.2358
21782SOL    HW268939   0.637   3.907   6.034  0.7865  0.4977  0.1549
21783SOL     OW68940   6.725  10.612   5.214  0.1202 -0.3029  0.6147
21783SOL    HW168941   6.725  10.537   5.273  1.1549 -1.6803 -1.0573
21783SOL    HW268942   6.814  10.615   5.179 -0.0292  1.4575  0.2892
21784SOL     OW68943   0.306   8.804   8.658 -0.5678  0.3818 -0.0077
21784SOL    HW168944   0.247   8.872   8.689  0.9388  1.2277  1.1925
21784SOL    HW268945   0.263   8.766   8.582 -2.1612  1.6189  0.2381
21785SOL     OW68946   4.688   0.507  10.637  0.0065  0.0849 -0.0494
21785SOL    HW168947   4.600   0.543  10.650 -0.9156 -2.1818  0.4541
21785SOL    HW268948   4.745   0.564  10.688 -1.4653  0.4596  1.2693
21786SOL     OW68949   7.956   4.898   6.762 -0.0510  0.2590  0.0287
21786SOL    HW168950   7.914   4.847   6.693  0.3098 -0.9176  0.6342
21786SOL    HW268951   7.905   4.879   6.840 -0.5056  1.6439  0.0904
21787SOL     OW68952   1.660   2.805   4.726  0.3391 -0.1387 -0.3569
21787SOL    HW168953   1.728   2.778   4.664  0.7961 -0.6847  0.3554
21787SOL    HW268954   1.593   2.737   4.720 -0.3840  0.6390 -1.3932
21788SOL     OW68955   7.697   7.083   2.838 -0.3171  0.0112  0.4504
21788SOL    HW168956   7.639   7.013   2.809  1.0430 -1.1528  0.4282
21788SOL    HW268957   7.704   7.071   2.933  0.2383 -0.1632  0.3949
21789SOL     OW68958  10.468   6.020   0.979  0.0689 -0.3044 -0.6275
21789SOL    HW168959  10.544   5.993   0.927  2.1187  0.3040  1.9007
21789SOL    HW268960  10.395   5.972   0.939  2.2759 -3.6636 -1.1017
21790SOL     OW68961   0.483   9.778   6.176 -0.2925  0.2670  0.0294
21790SOL    HW168962   0.512   9.687   6.180  0.5341  0.5312  0.3606
21790SOL    HW268963   0.472   9.796   6.083  0.5459  0.1255 -0.1043
21791SOL     OW68964   1.776   3.721   3.947 -0.1549  0.1543  0.5438
21791SOL    HW168965   1.686   3.737   3.918  0.0875  0.4152 -0.0882
21791SOL    HW268966   1.791   3.786   4.016  0.2801  1.6433 -0.8810
21792SOL     OW68967   2.624  10.126   1.927  0.2076  0.3406 -0.4894
21792SOL    HW168968   2.649  10.177   2.005 -0.3493  1.7312 -1.1957
21792SOL    HW268969   2.688  10.152   1.860 -0.8294  1.0926 -1.2174
21793SOL     OW68970   1.827   7.533   5.230  0.3431 -0.3036  0.0288
21793SOL    HW168971   1.831   7.579   5.146 -0.0529 -1.3218 -0.5609
21793SOL    HW268972   1.916   7.539   5.264  0.9547 -1.3105 -1.2722
21794SOL     OW68973  10.859   9.066   4.609 -0.1739  0.0389 -0.1204
21794SOL    HW168974  10.858   9.149   4.563  0.6688  0.1678  0.0705
21794SOL    HW268975  10.946   9.062   4.649 -0.3359 -0.7657  0.1749
21795SOL     OW68976   0.705   0.908   3.028  0.2369  0.1709  0.8101
21795SOL    HW168977   0.741   0.908   2.940 -2.1904  1.6375 -0.2774
21795SOL    HW268978   0.773   0.866   3.082  1.8239 -0.6713 -1.6876
21796SOL     OW68979   6.160   9.013   2.233 -0.6328 -0.0990 -0.3191
21796SOL    HW168980   6.217   8.975   2.166  0.3135  1.1737 -0.2555
21796SOL    HW268981   6.074   8.972   2.217  0.2036 -1.8738 -0.5570
21797SOL     OW68982   8.076   7.665   9.805 -0.0540 -0.1045  0.1413
21797SOL    HW168983   8.125   7.668   9.888  0.0177 -2.1810  0.2344
21797SOL    HW268984   8.006   7.729   9.816  0.8538  0.7518  1.1958
21798SOL     OW68985   0.489   5.291   4.592  0.1843  0.5319  0.0371
21798SOL    HW168986   0.462   5.380   4.566  0.0254  0.2824 -0.6802
21798SOL    HW268987   0.470   5.237   4.515 -1.8987 -0.5653  1.2460
21799SOL     OW68988   3.562   4.315   3.273  0.4002  0.0667 -0.0380
21799SOL    HW168989   3.600   4.370   3.205  0.0391 -0.0195 -0.3127
21799SOL    HW268990   3.630   4.250   3.292  1.0187  0.8982  0.6418
21800SOL     OW68991   1.748   3.115   3.764 -0.5289  0.6195 -0.6978
21800SOL    HW168992   1.749   3.171   3.686 -1.2819  0.8310 -0.5585
21800SOL    HW268993   1.732   3.027   3.730 -1.0382  0.7367 -0.7722
21801SOL     OW68994   6.036   9.135   1.971  0.0793  0.2107  0.4743
21801SOL    HW168995   6.100   9.090   1.915 -1.0817  0.6649 -1.3329
21801SOL    HW268996   5.955   9.088   1.956 -0.5528  1.1963  0.7261
21802SOL     OW68997   8.686   4.025   7.673  1.0655 -0.3402  0.4582
21802SOL    HW168998   8.640   4.107   7.655 -1.8419 -1.5766  1.5454
21802SOL    HW268999   8.755   4.021   7.608  0.1045  2.0539 -0.8414
21803SOL     OW69000   1.755  11.077   8.685  0.3844 -0.0068  0.1520
21803SOL    HW169001   1.740  10.982   8.684 -0.1817 -0.0664 -4.1571
21803SOL    HW269002   1.668  11.114   8.699  0.4711 -0.1013  0.9865
21804SOL     OW69003   3.744   5.996  10.595 -1.0837 -0.2359  0.2845
21804SOL    HW169004   3.649   5.994  10.592 -1.0689 -0.7500 -1.6239
21804SOL    HW269005   3.771   5.933  10.528  0.6128 -0.5127  1.1704
21805SOL     OW69006   8.438   7.755   7.723  0.0528 -0.1519 -0.4743
21805SOL    HW169007   8.503   7.810   7.679  0.6032 -0.1513  0.3177
21805SOL    HW269008   8.407   7.695   7.655  1.7091 -0.9020 -0.6085
21806SOL     OW69009   2.256   6.977   1.038  0.8996  0.5256  0.0702
21806SOL    HW169010   2.223   6.923   1.110  0.1577  2.0996  0.9746
21806SOL    HW269011   2.184   6.978   0.974  1.7273 -1.2373 -0.9620
21807SOL     OW69012   4.157   3.193   9.502 -0.2347  0.9911 -0.2566
21807SOL    HW169013   4.090   3.216   9.437 -2.2439  1.3453  1.8163
21807SOL    HW269014   4.234   3.172   9.450 -1.5166  1.9589 -2.7171
21808SOL     OW69015   6.473  11.104   4.983 -0.4305  0.2292 -0.1342
21808SOL    HW169016   6.437  11.015   4.981 -1.1284  0.4948 -2.4300
21808SOL    HW269017   6.475  11.131   4.891  1.3698  1.9705  0.3438
21809SOL     OW69018   8.822   1.150   4.125  0.3435  0.3529  0.3089
21809SOL    HW169019   8.847   1.218   4.188 -1.1251  0.6139  0.6566
21809SOL    HW269020   8.878   1.166   4.049  0.1501  1.8712  0.4415
21810SOL     OW69021   7.136   5.694   4.986 -0.4684 -0.1877 -0.4495
21810SOL    HW169022   7.164   5.609   4.951  1.8304  0.5523 -0.5977
21810SOL    HW269023   7.064   5.721   4.929 -0.7275 -1.6763 -0.8772
21811SOL     OW69024   0.519   2.429  10.387  0.4328 -0.4302 -0.0763
21811SOL    HW169025   0.579   2.417  10.313 -0.1095 -0.3761 -0.5417
21811SOL    HW269026   0.574   2.456  10.460  1.3330 -2.9176  0.2444
21812SOL     OW69027   0.845   3.653  10.918  0.0086 -0.2553  0.5995
21812SOL    HW169028   0.793   3.584  10.959  0.1118  0.4260  1.9321
21812SOL    HW269029   0.874   3.615  10.835  0.8255 -2.1833  1.6938
21813SOL     OW69030   1.726   2.705  10.113 -0.2593  0.4828  0.6765
21813SOL    HW169031   1.781   2.739  10.042  0.0364 -0.1728  0.5840
21813SOL    HW269032   1.646   2.758  10.109 -0.6476 -0.1503 -0.7691
21814SOL     OW69033   1.250   9.456   7.117 -0.0493 -0.0240  0.1020
21814SOL    HW169034   1.233   9.420   7.204  2.3212 -0.9662  0.2486
21814SOL    HW269035   1.284   9.543   7.134  3.4523 -1.3160  0.4440
21815SOL     OW69036  10.951   9.937   1.125 -0.0088 -0.1032  0.4565
21815SOL    HW169037  10.875   9.931   1.067 -1.1661 -1.2780  2.0337
21815SOL    HW269038  10.921   9.987   1.200  0.5102 -1.2885  1.4833
21816SOL     OW69039   1.367  10.417   8.207  0.2769  0.9121 -0.4586
21816SOL    HW169040   1.352  10.426   8.113  1.1492  0.7536 -0.6275
21816SOL    HW269041   1.444  10.360   8.213  0.7445  1.5985  0.3291
21817SOL     OW69042   2.311  10.641   0.692 -0.0895 -0.2064  0.2513
21817SOL    HW169043   2.325  10.732   0.718  0.4101 -0.1972 -0.0486
21817SOL    HW269044   2.391  10.617   0.645 -0.7221 -0.4193 -0.7468
21818SOL     OW69045   3.116  10.363   5.327  0.1771  0.0812  0.3731
21818SOL    HW169046   3.158  10.277   5.331 -1.1530 -0.6340 -0.3902
21818SOL    HW269047   3.176  10.417   5.274 -0.3930 -1.2705 -1.7688
21819SOL     OW69048   0.396   6.852  10.554  0.2375 -0.0745 -0.5428
21819SOL    HW169049   0.474   6.802  10.577 -0.3190 -0.8933 -0.4031
21819SOL    HW269050   0.369   6.893  10.636  0.8300  0.6783 -0.7071
21820SOL     OW69051   0.301   6.348   6.641  0.0140  0.0651 -0.3609
21820SOL    HW169052   0.233   6.392   6.591  0.3769 -0.5996 -1.4800
21820SOL    HW269053   0.362   6.417   6.665 -1.9128  1.0477  2.2946
21821SOL     OW69054   0.466   1.006   6.437  0.4593 -0.5785 -0.0938
21821SOL    HW169055   0.440   0.971   6.352  0.1939 -1.2234  0.2478
21821SOL    HW269056   0.478   1.100   6.421 -1.7765 -0.2896 -0.3417
21822SOL     OW69057   3.340   1.421   0.579 -0.3029  0.1054  0.1322
21822SOL    HW169058   3.310   1.502   0.620 -0.2269  0.3137 -0.2261
21822SOL    HW269059   3.291   1.352   0.624 -0.4628  0.3573  0.3472
21823SOL     OW69060   0.593   2.410   1.413 -0.6690 -0.1557 -0.3005
21823SOL    HW169061   0.685   2.425   1.393 -1.1116 -0.4315 -2.8120
21823SOL    HW269062   0.547   2.433   1.333 -3.1859  3.2582  1.8452
21824SOL     OW69063   7.472   2.142   0.932  0.1087  0.2116  0.2584
21824SOL    HW169064   7.412   2.103   0.869  0.6911  0.1359 -0.2559
21824SOL    HW269065   7.559   2.131   0.893  0.5352 -0.2974  1.3013
21825SOL     OW69066   0.716   7.508   0.844 -0.0049 -0.6177  0.1638
21825SOL    HW169067   0.664   7.465   0.912  0.0998  0.4316  0.9295
21825SOL    HW269068   0.798   7.532   0.888  0.4017 -0.6621 -0.5539
21826SOL     OW69069   9.918   6.525   6.107  0.5698  0.1872  0.0159
21826SOL    HW169070   9.895   6.509   6.198 -2.1530 -0.1854 -0.6270
21826SOL    HW269071   9.868   6.604   6.083  1.8971  0.7708 -0.9297
21827SOL     OW69072   5.410   2.802   4.559 -0.0874 -0.4765 -0.7214
21827SOL    HW169073   5.445   2.857   4.489  2.3821  0.5345  1.1281
21827SOL    HW269074   5.463   2.721   4.554 -0.8773 -0.9885 -0.8962
21828SOL     OW69075   3.666   8.467   8.969 -0.2098  0.1229 -0.8336
21828SOL    HW169076   3.672   8.558   8.941  1.5547 -0.2921 -1.9623
21828SOL    HW269077   3.586   8.434   8.928 -1.4617  1.4115  0.4728
21829SOL     OW69078   8.031  10.052   2.731 -0.4093 -0.3430  0.1241
21829SOL    HW169079   7.961   9.986   2.739 -2.4093  1.3188 -2.1103
21829SOL    HW269080   8.077  10.029   2.651  0.6067 -0.4766  0.7239
21830SOL     OW69081   3.121   1.387   9.542  0.0830  0.5041 -0.1649
21830SOL    HW169082   3.046   1.435   9.508 -1.4224 -0.6358  1.3512
21830SOL    HW269083   3.135   1.317   9.479 -0.8985  0.0399  0.1138
21831SOL     OW69084   8.289   8.175   8.224  0.1080  0.8391 -0.2027
21831SOL    HW169085   8.251   8.218   8.148 -2.8128 -1.4260 -0.2128
21831SOL    HW269086   8.233   8.202   8.297 -0.5636 -1.2347  0.1121
21832SOL     OW69087   4.767  10.187   1.054 -0.3039 -0.3222  0.3910
21832SOL    HW169088   4.790  10.255   0.991  1.3135  0.1738  1.4640
21832SOL    HW269089   4.788  10.224   1.139  1.7619 -2.5363  0.9511
21833SOL     OW69090   6.816   2.097   0.643 -0.2436 -0.1671 -0.2774
21833SOL    HW169091   6.750   2.091   0.574 -1.4334  2.3630  0.5144
21833SOL    HW269092   6.787   2.036   0.711 -0.7553 -0.4179 -0.7198
21834SOL     OW69093   6.894   1.871   0.096  0.8095 -0.1893 -0.3381
21834SOL    HW169094   6.968   1.816   0.072  1.3146  1.0346 -1.7666
21834SOL    HW269095   6.821   1.837   0.044  0.7429 -0.4551 -0.0708
21835SOL     OW69096   4.653   2.503   2.431  0.3159 -0.2781  0.1602
21835SOL    HW169097   4.599   2.570   2.474  1.6468  0.2414  1.0832
21835SOL    HW269098   4.714   2.553   2.376 -1.1742 -0.9217 -2.2306
21836SOL     OW69099   0.639   7.671   5.684 -0.1724 -0.3926 -0.3272
21836SOL    HW169100   0.617   7.719   5.765  0.8988 -0.4800  0.0407
21836SOL    HW269101   0.578   7.598   5.681  0.1369 -0.7160  0.7285
21837SOL     OW69102   5.716   9.228   4.832 -0.0317  0.8263 -0.5285
21837SOL    HW169103   5.669   9.146   4.816 -2.5117  2.1667 -0.5361
21837SOL    HW269104   5.808   9.204   4.823 -0.5877 -2.2145  0.6717
21838SOL     OW69105   8.868   8.157   3.089 -0.0295  0.1266  0.0954
21838SOL    HW169106   8.944   8.113   3.051 -0.8250 -0.2335 -1.1414
21838SOL    HW269107   8.795   8.129   3.034 -1.0090  0.7069  1.0755
21839SOL     OW69108   8.045   9.888   1.031 -0.2996 -0.0569  0.5882
21839SOL    HW169109   8.025   9.867   0.939 -0.5013 -0.4421  0.7182
21839SOL    HW269110   7.981   9.837   1.081  2.0988 -2.7856  1.1122
21840SOL     OW69111   9.115   9.671   0.481  0.4651 -0.2606  0.5310
21840SOL    HW169112   9.096   9.764   0.462 -1.6466 -0.7283  0.0261
21840SOL    HW269113   9.147   9.671   0.571  2.7173  1.1645 -0.1800
21841SOL     OW69114   3.360   7.382   5.088 -0.2259 -0.0476  0.4111
21841SOL    HW169115   3.314   7.298   5.095 -3.0991  1.2401 -1.1159
21841SOL    HW269116   3.451   7.358   5.070 -0.1870 -2.7880  3.2993
21842SOL     OW69117   9.312   0.020   7.289 -0.1907 -0.4559  0.4651
21842SOL    HW169118   9.384  -0.020   7.242 -0.4000  1.6865 -1.9004
21842SOL    HW269119   9.352   0.057   7.368  1.2156  0.2062 -0.5332
21843SOL     OW69120   3.264   6.958   3.156 -0.1185  0.1136 -0.1942
21843SOL    HW169121   3.210   6.983   3.231 -1.0301  1.2798 -1.1993
21843SOL    HW269122   3.220   6.882   3.119  1.0351 -1.2716  1.1503
21844SOL     OW69123   8.071   2.011   4.335  0.4757  0.3417 -0.2939
21844SOL    HW169124   8.042   1.920   4.347 -0.7947  0.8989  1.2966
21844SOL    HW269125   8.032   2.058   4.409  0.1920  2.4043 -1.6803
21845SOL     OW69126   8.921   7.518   0.032  0.1749 -0.7834  0.4575
21845SOL    HW169127   8.841   7.509   0.084  0.5260 -0.4461  1.0736
21845SOL    HW269128   8.983   7.562   0.091 -0.0211  1.4511 -0.8631
21846SOL     OW69129   7.198   1.488   9.943 -0.1960  0.1601  0.2601
21846SOL    HW169130   7.264   1.471   9.875 -0.4161 -1.0289  0.3124
21846SOL    HW269131   7.188   1.583   9.944  2.7240  0.5493  1.3982
21847SOL     OW69132   2.385   1.211   4.106 -0.0923 -0.5616 -0.6065
21847SOL    HW169133   2.340   1.138   4.064  1.0723 -0.0705 -2.9222
21847SOL    HW269134   2.478   1.189   4.099  0.2288  0.6713 -0.4880
21848SOL     OW69135   4.097   9.177   5.560  0.6530  0.3619  0.6437
21848SOL    HW169136   4.123   9.194   5.470  3.9755 -0.2076  1.3634
21848SOL    HW269137   4.120   9.257   5.608  1.8667 -0.4324  1.4477
21849SOL     OW69138   6.375  10.501   4.651 -0.1538 -0.1041 -0.2764
21849SOL    HW169139   6.459  10.487   4.606 -0.7163  0.8686 -1.7239
21849SOL    HW269140   6.390  10.579   4.704  0.5330 -1.2941  1.3721
21850SOL     OW69141   1.011   3.767   0.443  0.3194 -0.1590 -0.4507
21850SOL    HW169142   0.937   3.764   0.503  0.3810 -1.0788 -0.3953
21850SOL    HW269143   1.004   3.684   0.394  1.6897 -0.5835  0.0335
21851SOL     OW69144   5.110   6.388  10.560  0.1232 -0.0241  0.5077
21851SOL    HW169145   5.059   6.371  10.639 -0.2002  1.6404  0.7102
21851SOL    HW269146   5.112   6.304  10.514 -1.9575 -0.4067  0.9924
21852SOL     OW69147   6.899   2.808   1.109  0.1514  0.2161 -0.2621
21852SOL    HW169148   6.868   2.891   1.145 -0.1663  0.0516 -0.1463
21852SOL    HW269149   6.990   2.802   1.137  0.1667  0.5142 -0.2500
21853SOL     OW69150   9.669   2.746   0.840  0.1987  0.2399 -0.3268
21853SOL    HW169151   9.660   2.725   0.748 -0.2301  2.4287 -0.8484
21853SOL    HW269152   9.762   2.764   0.852  0.5888 -1.9091  0.1521
21854SOL     OW69153   8.685   7.208  10.904 -1.0494  0.0425 -0.3083
21854SOL    HW169154   8.717   7.298  10.902 -0.9732  0.1981  2.8055
21854SOL    HW269155   8.617   7.205  10.837  0.4049  1.7504 -1.9833
21855SOL     OW69156   6.114   4.909   9.980  0.4090 -0.0919  0.2598
21855SOL    HW169157   6.030   4.872   9.952 -0.7076  1.9049  0.7260
21855SOL    HW269158   6.173   4.891   9.907 -1.0866  0.5742 -1.2059
21856SOL     OW69159   6.799   8.498   6.335 -0.6394  0.0337  0.4959
21856SOL    HW169160   6.800   8.483   6.240  0.5635 -0.2981  0.5538
21856SOL    HW269161   6.708   8.524   6.353 -0.8028  0.4479 -0.7928
21857SOL     OW69162   2.711   8.282   3.073  1.0483 -0.3493  0.0363
21857SOL    HW169163   2.642   8.276   3.140  0.6614 -0.1268 -0.3359
21857SOL    HW269164   2.663   8.291   2.991  1.5268  0.4448 -0.1651
21858SOL     OW69165   9.850   4.332   5.735 -0.0326  0.5599  0.7009
21858SOL    HW169166   9.824   4.275   5.806 -0.4597  1.6739  1.4701
21858SOL    HW269167   9.903   4.400   5.776 -0.0808  1.0834 -0.0668
21859SOL     OW69168   2.041   7.111   0.899 -0.6364  0.1647  0.2734
21859SOL    HW169169   2.076   7.147   0.818 -1.9855  2.3859  0.5909
21859SOL    HW269170   1.972   7.173   0.925 -0.9007 -0.9969  2.6066
21860SOL     OW69171   6.777   3.735   2.561  0.5687  0.6079 -0.3694
21860SOL    HW169172   6.693   3.691   2.549  0.9900 -0.4483  0.4739
21860SOL    HW269173   6.818   3.689   2.634  2.2999  0.4650 -1.3918
21861SOL     OW69174   9.626   1.907   7.721 -0.0184 -0.1102  0.0094
21861SOL    HW169175   9.556   1.853   7.684  0.9528 -1.3409 -0.0962
21861SOL    HW269176   9.680   1.931   7.645  0.6924 -0.7117  0.3177
21862SOL     OW69177   0.748   4.696   9.870 -0.4434 -0.1048 -0.5752
21862SOL    HW169178   0.759   4.672   9.962 -1.4591 -0.6875 -0.6010
21862SOL    HW269179   0.811   4.641   9.823  1.0359  1.1235 -0.1406
21863SOL     OW69180   9.515  10.716   6.789  0.0850  0.3792 -0.3863
21863SOL    HW169181   9.570  10.791   6.767  0.9887 -0.4328 -0.9907
21863SOL    HW269182   9.577  10.644   6.801 -0.7606 -0.2651  0.2225
21864SOL     OW69183  10.071   6.562   6.959 -0.0089  0.0640 -0.0697
21864SOL    HW169184  10.024   6.509   7.024  0.7902  0.3312  0.7399
21864SOL    HW269185  10.143   6.602   7.007  1.2368 -0.5570 -1.3390
21865SOL     OW69186   9.901   0.796   3.706  0.5577  0.4241 -0.1823
21865SOL    HW169187   9.843   0.727   3.675  1.9226  0.2514 -2.6558
21865SOL    HW269188   9.953   0.754   3.774  0.2031 -0.4880 -0.4563
21866SOL     OW69189   1.864   4.303   9.578 -0.1359  0.3427  0.2114
21866SOL    HW169190   1.908   4.383   9.608 -1.6346  0.5769  1.9594
21866SOL    HW269191   1.827   4.327   9.493 -1.1671  1.7700  1.0140
21867SOL     OW69192   9.303   4.309   9.076  0.0592  0.2787 -0.2831
21867SOL    HW169193   9.236   4.377   9.073 -0.8617 -0.5464  0.7794
21867SOL    HW269194   9.254   4.226   9.076  1.1197 -0.3760 -0.7119
21868SOL     OW69195   7.274   6.220   9.948 -0.6174 -0.0477  0.1063
21868SOL    HW169196   7.345   6.188   9.892 -1.0222  0.3264 -0.6270
21868SOL    HW269197   7.280   6.315   9.943 -1.1026 -0.0130  0.1242
21869SOL     OW69198   0.695   3.729   7.435  0.6627 -0.3380  0.3687
21869SOL    HW169199   0.724   3.757   7.348 -0.2589  0.1756  0.2158
21869SOL    HW269200   0.627   3.663   7.418  0.5523 -0.3132  0.6941
21870SOL     OW69201   3.115   8.359   2.810  0.8674 -0.8171 -0.7531
21870SOL    HW169202   3.065   8.284   2.777 -1.7449  0.2774  0.5068
21870SOL    HW269203   3.192   8.319   2.851 -0.3788 -2.8215 -0.2335
21871SOL     OW69204   1.041  10.777   0.069  0.2330  0.3434  0.1886
21871SOL    HW169205   1.059  10.785   0.163 -0.5908  0.5898  0.3351
21871SOL    HW269206   1.006  10.863   0.044 -1.7835 -0.4072  0.1792
21872SOL     OW69207   9.282   9.562   5.879 -0.2977  0.1799 -0.9398
21872SOL    HW169208   9.200   9.514   5.886  0.0601 -0.4572 -1.0127
21872SOL    HW269209   9.259   9.642   5.832 -1.0257  0.3886 -0.2595
21873SOL     OW69210   1.382   9.044   9.030  0.1394 -0.0995  0.3544
21873SOL    HW169211   1.339   9.109   9.087  1.7505  0.6661  0.7623
21873SOL    HW269212   1.316   9.022   8.965 -1.7466 -0.8961  2.3926
21874SOL     OW69213   1.511   4.874   5.588 -0.2782  0.4448 -0.5584
21874SOL    HW169214   1.487   4.863   5.680  0.0950  0.2809 -0.4819
21874SOL    HW269215   1.557   4.957   5.584  0.8626 -0.1594 -0.3677
21875SOL     OW69216   1.863   0.864   2.305 -0.0492 -0.3995 -0.2340
21875SOL    HW169217   1.793   0.927   2.286  2.0116  2.1608  0.1166
21875SOL    HW269218   1.874   0.868   2.400  0.7459 -0.5664 -0.3136
21876SOL     OW69219  10.094   3.143  10.594  0.3805  0.0267 -0.2446
21876SOL    HW169220  10.174   3.194  10.579  0.1595  0.8768  1.2080
21876SOL    HW269221  10.089   3.134  10.690 -0.1819 -1.8027 -0.4137
21877SOL     OW69222   2.520   2.476  11.106 -0.0168  0.0583 -0.6319
21877SOL    HW169223   2.579   2.550  11.092  0.6486 -0.0522  1.2805
21877SOL    HW269224   2.578   2.402  11.120 -0.6376 -0.3159 -0.0032
21878SOL     OW69225   6.679   9.989   7.998  0.3059  0.0334  0.3134
21878SOL    HW169226   6.650  10.020   8.084  1.5619  1.2427  0.3344
21878SOL    HW269227   6.641   9.901   7.991 -0.2911  0.1287  1.8612
21879SOL     OW69228   4.962  10.607   3.428  0.0230  0.0341 -0.2148
21879SOL    HW169229   4.943  10.655   3.347  0.6137  2.1380  0.8088
21879SOL    HW269230   5.039  10.555   3.408  0.0247  0.3468 -1.0760
21880SOL     OW69231   5.974   0.181   9.657  0.2261  0.3486 -0.3776
21880SOL    HW169232   5.943   0.107   9.606  1.4981 -1.5382  1.4462
21880SOL    HW269233   6.066   0.190   9.635 -0.0867  1.9500 -1.1734
21881SOL     OW69234   8.118   5.577   5.054  0.1278  0.5251 -0.5005
21881SOL    HW169235   8.026   5.556   5.037 -0.2629  1.1167  0.8025
21881SOL    HW269236   8.165   5.539   4.979 -1.1161 -0.2032 -0.9441
21882SOL     OW69237   5.585   4.102   2.478  0.2418  0.3317 -0.1948
21882SOL    HW169238   5.491   4.102   2.459 -0.3441 -0.3554  2.3150
21882SOL    HW269239   5.625   4.057   2.404 -1.4288  0.3801 -1.1653
21883SOL     OW69240   0.252   6.801  10.324 -0.6337 -0.1070  0.0176
21883SOL    HW169241   0.227   6.893  10.313  0.8538  0.1707 -1.4355
21883SOL    HW269242   0.301   6.799  10.406  0.1559  0.6191 -0.4151
21884SOL     OW69243  10.872   8.043   9.121 -0.7680 -0.7566  0.5474
21884SOL    HW169244  10.856   8.127   9.163  0.4964 -0.1020 -0.2468
21884SOL    HW269245  10.928   7.996   9.183  1.4735  0.3829 -0.5039
21885SOL     OW69246   8.283   4.672   4.478 -0.7422  0.3590  0.6415
21885SOL    HW169247   8.334   4.607   4.429  1.4691  1.8481  0.8233
21885SOL    HW269248   8.196   4.668   4.438  0.3399 -0.0763 -1.9046
21886SOL     OW69249   2.508   8.890   6.318 -0.2878 -0.4201  0.3290
21886SOL    HW169250   2.489   8.929   6.403 -0.9218 -0.1945  0.0887
21886SOL    HW269251   2.541   8.964   6.265 -2.8482  0.1866 -0.5790
21887SOL     OW69252   2.758   4.981   3.218  0.0164 -1.0446  0.1353
21887SOL    HW169253   2.828   4.929   3.258  1.5841 -0.6632 -1.9199
21887SOL    HW269254   2.765   4.963   3.124 -0.6121  1.3697 -0.4635
21888SOL     OW69255   5.988   2.938  10.595 -0.2575 -0.2619 -0.2500
21888SOL    HW169256   6.054   3.003  10.570 -0.8093 -0.2603 -1.8399
21888SOL    HW269257   5.921   2.946  10.527 -2.0581 -0.0668  1.4681
21889SOL     OW69258  11.056   4.781  10.804  0.1647 -0.3705 -0.1836
21889SOL    HW169259  11.030   4.873  10.813  0.7653 -0.2811  0.8542
21889SOL    HW269260  10.979   4.733  10.835 -0.4636 -0.2557 -1.5245
21890SOL     OW69261  10.054   3.171   3.947 -0.2319 -0.3935 -0.2554
21890SOL    HW169262   9.992   3.117   3.898 -0.5511 -1.1554  0.9540
21890SOL    HW269263  10.102   3.220   3.880 -3.0434  1.2636 -1.2527
21891SOL     OW69264   3.895   1.873   0.624 -0.3936 -0.1514  0.6755
21891SOL    HW169265   3.947   1.922   0.688 -3.3145  1.7459  1.7795
21891SOL    HW269266   3.818   1.844   0.672  0.3547 -4.5533 -0.3903
21892SOL     OW69267   2.500   4.830   8.739 -0.4902 -0.0667 -0.3681
21892SOL    HW169268   2.579   4.845   8.687 -0.7135 -0.1794 -0.7445
21892SOL    HW269269   2.531   4.789   8.819 -0.3422 -1.7815 -1.2708
21893SOL     OW69270   0.289   1.664   7.973  0.3826 -0.4510  0.3447
21893SOL    HW169271   0.305   1.575   7.941  2.0023 -0.3677  0.8319
21893SOL    HW269272   0.367   1.712   7.947 -0.6095  0.9273 -0.1759
21894SOL     OW69273  10.150   0.796   5.968  0.2841  0.6766 -0.0280
21894SOL    HW169274  10.117   0.881   5.996 -0.2557  0.3041  0.4720
21894SOL    HW269275  10.198   0.763   6.044 -0.2968  0.1283  0.1088
21895SOL     OW69276   8.577   1.202   0.948  0.1397 -0.1368 -0.3895
21895SOL    HW169277   8.642   1.177   1.014  0.8434  0.7361 -0.7248
21895SOL    HW269278   8.580   1.298   0.947 -0.1458 -0.1313 -1.4063
21896SOL     OW69279   3.039   5.763   0.092  0.4468 -0.2541  0.8168
21896SOL    HW169280   2.988   5.765   0.011  3.0975  2.7072 -1.0194
21896SOL    HW269281   3.055   5.671   0.109 -0.5612 -0.9864 -1.8039
21897SOL     OW69282   2.688   5.028   5.008 -0.2520  0.5716  0.3306
21897SOL    HW169283   2.610   5.003   5.058 -0.1868  1.3497  0.8380
21897SOL    HW269284   2.755   5.044   5.074  0.0839  0.7864 -0.0579
21898SOL     OW69285   4.488   0.996   6.117  0.2043 -0.4135  0.1399
21898SOL    HW169286   4.558   0.947   6.159  1.0199 -1.4919 -2.3439
21898SOL    HW269287   4.515   1.087   6.125 -0.1451 -0.4376  2.6668
21899SOL     OW69288   4.617   0.969   7.291  0.7123 -0.0540 -0.0832
21899SOL    HW169289   4.600   0.875   7.293 -0.3743  0.0780 -1.4004
21899SOL    HW269290   4.531   1.008   7.277  1.5410  0.8825 -3.5104
21900SOL     OW69291   4.467  10.518   0.005 -0.5274 -0.2344  0.1559
21900SOL    HW169292   4.394  10.461   0.032 -0.0018 -0.4695  1.1542
21900SOL    HW269293   4.425  10.599  -0.022 -1.1649 -0.2856  0.9272
21901SOL     OW69294   0.159   9.258   4.212 -0.0674 -0.0026 -0.0114
21901SOL    HW169295   0.188   9.168   4.225 -1.0060 -0.1516  1.2789
21901SOL    HW269296   0.118   9.258   4.126  1.3042 -0.4287 -0.6775
21902SOL     OW69297   6.272   0.333   8.111  0.0573 -0.2806 -0.1335
21902SOL    HW169298   6.289   0.423   8.137  1.4777 -0.0509 -1.7246
21902SOL    HW269299   6.248   0.289   8.193 -0.4423  1.4517  0.7088
21903SOL     OW69300  10.175  10.934   2.447  0.2977  0.4019 -0.5910
21903SOL    HW169301  10.197  10.847   2.415  2.2570  1.3488 -2.0225
21903SOL    HW269302  10.224  10.943   2.529 -0.9192 -0.2705  0.2367
21904SOL     OW69303   0.459   9.350   2.896 -0.0597  0.1368  0.2858
21904SOL    HW169304   0.417   9.436   2.902 -1.0839 -0.2968 -0.4853
21904SOL    HW269305   0.551   9.370   2.879 -0.5302  1.1074 -1.4160
21905SOL     OW69306  10.170   3.334   7.977  0.2733  0.0693 -0.5663
21905SOL    HW169307  10.094   3.286   8.009 -0.0368  0.9494  0.0547
21905SOL    HW269308  10.134   3.409   7.930  0.7184  1.2629  0.9141
21906SOL     OW69309   1.941   4.551   4.411  0.4174  0.3659 -0.7720
21906SOL    HW169310   1.911   4.500   4.335  2.9540  0.3572 -1.8704
21906SOL    HW269311   1.948   4.641   4.379  0.4154  0.5735 -0.2012
21907SOL     OW69312   9.120   1.495   7.624  0.3669  0.4750  0.3889
21907SOL    HW169313   9.118   1.542   7.708  0.1893 -0.1820  0.7578
21907SOL    HW269314   9.110   1.564   7.558  1.5179  1.1141  0.8533
21908SOL     OW69315   8.281   6.827   5.859 -0.1496 -0.1900  0.1853
21908SOL    HW169316   8.350   6.842   5.924 -0.3430 -1.1237  0.6259
21908SOL    HW269317   8.298   6.739   5.826 -1.2839 -0.5455  0.5063
21909SOL     OW69318   0.026   8.017   3.214  0.4360 -0.0948 -0.2560
21909SOL    HW169319   0.065   7.968   3.287  1.5024 -0.1478 -0.8360
21909SOL    HW269320   0.092   8.083   3.192 -0.6151  1.0454 -0.0528
21910SOL     OW69321   1.937   6.419   0.453 -0.0197 -0.3492 -0.0609
21910SOL    HW169322   2.012   6.434   0.397  1.4980  0.0979  1.9595
21910SOL    HW269323   1.909   6.507   0.480 -1.0224 -0.5325 -0.4606
21911SOL     OW69324   2.799   0.883   7.327 -0.2426  0.3432 -0.5336
21911SOL    HW169325   2.849   0.870   7.246  2.2192 -1.5064  1.1451
21911SOL    HW269326   2.827   0.969   7.359  0.5909  0.0565 -0.4738
21912SOL     OW69327  10.173   7.065   9.024  0.3416 -0.3630 -0.1058
21912SOL    HW169328  10.108   6.994   9.023 -0.3405  0.2347  0.6764
21912SOL    HW269329  10.121   7.145   9.016  0.9645  0.1432  0.7705
21913SOL     OW69330   9.715   3.793  10.192 -0.2960 -0.5242 -0.4160
21913SOL    HW169331   9.678   3.705  10.182  0.6608 -1.1188  0.9567
21913SOL    HW269332   9.768   3.788  10.272 -0.1078  1.2680 -0.3814
21914SOL     OW69333   0.648   4.437  10.747  0.3185 -0.2294 -0.2940
21914SOL    HW169334   0.721   4.479  10.703  1.0141 -0.1930  0.8395
21914SOL    HW269335   0.683   4.352  10.774 -0.8537 -1.2967 -1.9490
21915SOL     OW69336  10.329   5.630  10.836 -0.0974  0.3733  0.1778
21915SOL    HW169337  10.283   5.693  10.891 -1.1108 -1.1956  1.1918
21915SOL    HW269338  10.263   5.565  10.811  1.0866 -0.7924 -0.0838
21916SOL     OW69339   9.537   3.111   2.616 -0.5621 -0.2265 -0.3377
21916SOL    HW169340   9.508   3.034   2.567  1.0546 -2.0741  1.4213
21916SOL    HW269341   9.617   3.139   2.572 -0.8226  0.1111 -0.6093
21917SOL     OW69342   8.799   6.291   6.296  0.4018  0.3584 -0.2857
21917SOL    HW169343   8.774   6.313   6.386 -0.1992  1.4866 -0.7142
21917SOL    HW269344   8.880   6.240   6.306 -0.4463 -0.8221  0.9618
21918SOL     OW69345   6.748  11.040   3.262  0.2631  0.3991  0.2611
21918SOL    HW169346   6.691  10.964   3.265  0.4711  0.2521  0.4450
21918SOL    HW269347   6.718  11.089   3.185 -1.2505  1.2183  1.3269
21919SOL     OW69348   0.587   3.600   2.431  0.0667 -0.6032 -0.0154
21919SOL    HW169349   0.602   3.632   2.520  2.1238  0.0004 -0.5097
21919SOL    HW269350   0.602   3.506   2.436  1.2940 -0.4259  0.1160
21920SOL     OW69351   7.587   9.132   9.938 -0.0681  0.0902 -0.1479
21920SOL    HW169352   7.538   9.184   9.874  0.4559  1.6739  0.7008
21920SOL    HW269353   7.523   9.109  10.005 -0.3774 -0.6929 -0.6905
21921SOL     OW69354  10.590   5.047   1.954  0.2781 -0.3303 -0.0487
21921SOL    HW169355  10.560   5.087   1.872 -1.5942  0.4479  0.9670
21921SOL    HW269356  10.518   4.990   1.981  1.1394 -1.0631  0.7543
21922SOL     OW69357  10.522   6.619   4.638  0.2538 -0.2193 -0.5489
21922SOL    HW169358  10.540   6.708   4.669  1.5234 -0.4893 -0.4415
21922SOL    HW269359  10.502   6.630   4.545 -0.2635  0.2418 -0.3877
21923SOL     OW69360  10.314  10.492   1.125  0.1613  0.1450 -0.4522
21923SOL    HW169361  10.386  10.537   1.170  2.7053 -1.7040 -2.3987
21923SOL    HW269362  10.298  10.414   1.178 -0.8407  0.8070  0.2576
21924SOL     OW69363   7.919   6.303   3.631 -0.0564  0.5158  0.1943
21924SOL    HW169364   7.921   6.390   3.593  1.0073 -0.3109 -1.8480
21924SOL    HW269365   7.970   6.311   3.712  0.4730  1.6721 -0.2306
21925SOL     OW69366   7.952   1.226   0.457 -0.0576 -0.0949  0.3096
21925SOL    HW169367   8.026   1.208   0.515  1.4217  0.3844 -1.3491
21925SOL    HW269368   7.955   1.320   0.442 -0.3653 -0.2224 -0.6085
21926SOL     OW69369   0.325   4.560   8.074 -0.1809  0.1901  0.2454
21926SOL    HW169370   0.321   4.655   8.083  0.9080  0.2450  0.3323
21926SOL    HW269371   0.279   4.525   8.150 -1.4635  0.6337 -0.3010
21927SOL     OW69372   9.001  10.884   2.103 -0.7111  0.7311  0.5683
21927SOL    HW169373   9.045  10.830   2.168  1.1076  2.8597  1.2003
21927SOL    HW269374   9.039  10.857   2.020 -0.5996  0.3102  0.7525
21928SOL     OW69375   9.627   0.688   6.177  0.5530  0.2298  0.2946
21928SOL    HW169376   9.559   0.656   6.117  1.8547 -1.6503 -0.2801
21928SOL    HW269377   9.609   0.642   6.260  0.0330  1.1693  0.7118
21929SOL     OW69378   5.203   7.006   6.443 -0.2531  0.2787  1.1392
21929SOL    HW169379   5.169   6.995   6.354  0.8480 -0.7026  0.8063
21929SOL    HW269380   5.199   7.100   6.458  0.6527  0.6095 -0.4288
21930SOL     OW69381   4.409  10.946   0.457  0.4273 -0.4180 -0.4325
21930SOL    HW169382   4.440  11.015   0.399  2.0561  0.8356  1.7903
21930SOL    HW269383   4.316  10.938   0.437  0.5065  1.4218 -1.7338
21931SOL     OW69384  10.099   9.602   0.233  0.1000  0.4040  0.3528
21931SOL    HW169385  10.038   9.655   0.181 -1.5368  0.9817  2.6659
21931SOL    HW269386  10.179   9.654   0.236  0.3384  0.2355 -1.6995
21932SOL     OW69387   8.958   5.196   8.381  0.0108 -0.4503 -0.6217
21932SOL    HW169388   8.906   5.246   8.319  3.1725  2.5953 -1.1794
21932SOL    HW269389   9.021   5.148   8.326 -0.0031 -1.3023  0.0902
21933SOL     OW69390   5.487   8.593   5.856 -0.0317  0.2475  0.1498
21933SOL    HW169391   5.429   8.591   5.933  0.2135  0.0074  0.3299
21933SOL    HW269392   5.432   8.565   5.784  0.0277 -0.6324  0.4367
21934SOL     OW69393   5.746   2.147  10.425  0.2141  0.0947  0.0034
21934SOL    HW169394   5.676   2.178  10.482  0.4887  1.4573 -0.3630
21934SOL    HW269395   5.815   2.213  10.433  0.6246 -0.1554 -1.2028
21935SOL     OW69396   7.537   5.618   7.883  0.3703 -0.3494 -0.1514
21935SOL    HW169397   7.583   5.535   7.883  0.8358 -0.1069  1.0833
21935SOL    HW269398   7.582   5.671   7.817  1.0373 -0.5628  0.1341
21936SOL     OW69399   5.213   0.018   7.853  0.2780  0.2901 -0.5475
21936SOL    HW169400   5.177   0.095   7.896  0.8762  0.8525 -1.0143
21936SOL    HW269401   5.200   0.035   7.759  0.5240 -0.1167 -0.6585
21937SOL     OW69402   7.127   0.856   7.229 -0.3079  0.1068  1.0138
21937SOL    HW169403   7.168   0.843   7.315  0.4890 -0.7194  0.5212
21937SOL    HW269404   7.198   0.882   7.171 -0.5763 -0.7004  0.2948
21938SOL     OW69405   8.665   5.238  10.832  0.2952  0.1503 -0.2523
21938SOL    HW169406   8.682   5.331  10.846 -0.1048  0.0917  0.6890
21938SOL    HW269407   8.610   5.212  10.906  0.8802 -0.9671 -0.1763
21939SOL     OW69408   7.502   6.564   8.374 -0.8674 -0.0778  0.1950
21939SOL    HW169409   7.446   6.533   8.445 -2.8474  1.3662 -0.6386
21939SOL    HW269410   7.458   6.535   8.294  0.0040  0.4040 -0.4772
21940SOL     OW69411   3.237   2.034  10.177  0.1602  0.0673  0.1987
21940SOL    HW169412   3.264   2.121  10.205 -1.0130  0.9021 -1.1034
21940SOL    HW269413   3.190   2.049  10.095 -0.1681 -1.7867  0.0023
21941SOL     OW69414  10.458   5.675   7.869  0.1171 -0.6310 -0.3259
21941SOL    HW169415  10.469   5.715   7.955 -1.0590  1.2006 -0.9613
21941SOL    HW269416  10.539   5.695   7.823 -0.0814  0.2317 -0.3152
21942SOL     OW69417   3.944   8.792   7.429 -0.2249  0.0308  0.0012
21942SOL    HW169418   3.992   8.710   7.415  1.0875  0.7756 -0.0545
21942SOL    HW269419   3.911   8.786   7.519 -0.0848 -0.5236  0.0187
21943SOL     OW69420   7.739   6.459  10.292  0.2852  0.5223  0.1576
21943SOL    HW169421   7.749   6.469  10.387 -0.0961 -0.6652  0.3327
21943SOL    HW269422   7.645   6.467  10.276  0.3655  0.9007 -0.1481
21944SOL     OW69423   1.992   1.391   9.327  0.0033  0.7528 -0.0358
21944SOL    HW169424   1.940   1.311   9.325  2.0582 -0.6463 -1.3889
21944SOL    HW269425   1.937   1.454   9.373 -2.0186 -1.1857  0.3788
21945SOL     OW69426   6.419   6.101   6.229  0.0801  0.2418  0.1426
21945SOL    HW169427   6.376   6.039   6.288  0.1615 -0.3483 -0.4031
21945SOL    HW269428   6.392   6.073   6.142 -1.8053  2.4117 -0.0575
21946SOL     OW69429   8.159  10.000   7.590  0.2409 -0.5954 -0.5377
21946SOL    HW169430   8.166  10.050   7.508  0.9323 -0.6905 -0.5493
21946SOL    HW269431   8.120  10.061   7.652  1.3769  0.0839 -0.4640
21947SOL     OW69432   3.419   2.222   7.690  0.3749  0.0600 -0.0785
21947SOL    HW169433   3.408   2.306   7.735  1.4370 -0.2935  0.8902
21947SOL    HW269434   3.492   2.180   7.735 -0.6638 -1.7530  0.0124
21948SOL     OW69435   7.076   4.766   2.378  0.4174  0.3398 -0.0644
21948SOL    HW169436   7.026   4.819   2.316  1.9231  0.1447 -1.5155
21948SOL    HW269437   7.026   4.685   2.386 -0.9681  1.2323  0.7838
21949SOL     OW69438   6.430   0.799   7.133  0.1270  0.1166  0.0709
21949SOL    HW169439   6.406   0.891   7.148 -0.4501  0.2901 -1.6607
21949SOL    HW269440   6.369   0.749   7.188 -2.7610  0.6513 -2.3906
21950SOL     OW69441   7.086   8.413   7.904 -0.1877  0.1206 -0.7400
21950SOL    HW169442   7.085   8.406   7.809 -0.4926  0.0445 -0.7317
21950SOL    HW269443   7.178   8.427   7.926 -0.2238  1.0007 -1.1005
21951SOL     OW69444  10.682  10.609   5.919 -0.1379 -0.3878 -0.0113
21951SOL    HW169445  10.649  10.631   5.832 -1.6243 -0.3341  0.5454
21951SOL    HW269446  10.735  10.531   5.905 -0.4447 -0.4432 -0.9516
21952SOL     OW69447   8.375   1.961   1.748 -0.2392  0.9484  0.9397
21952SOL    HW169448   8.457   1.984   1.790  0.5079  3.2913 -1.5097
21952SOL    HW269449   8.311   2.021   1.787  0.1610  2.1175 -0.1204
21953SOL     OW69450   0.207   4.826  10.759 -0.0757  0.0313 -0.0192
21953SOL    HW169451   0.119   4.789  10.768 -0.0687  0.1027  0.3991
21953SOL    HW269452   0.252   4.800  10.840  0.2228  0.1636 -0.1422
21954SOL     OW69453  10.428  10.194   7.092  0.2488 -0.5508  0.2638
21954SOL    HW169454  10.481  10.219   7.016 -1.2850 -1.3707 -1.1297
21954SOL    HW269455  10.405  10.277   7.134 -3.2888  0.5718 -3.2722
21955SOL     OW69456   4.446   8.247   9.908  0.4383 -0.2356 -0.5910
21955SOL    HW169457   4.405   8.241   9.821 -1.5809  2.3305  0.0823
21955SOL    HW269458   4.393   8.190   9.963  1.4516 -1.5137 -0.8815
21956SOL     OW69459  10.550   9.816   3.752  0.0729 -0.0444 -0.3361
21956SOL    HW169460  10.486   9.752   3.721 -0.0656  1.0872 -2.5237
21956SOL    HW269461  10.515   9.901   3.727  2.1106  0.6497 -1.0682
21957SOL     OW69462   6.461   1.554  10.558  0.3421 -0.0685 -0.4155
21957SOL    HW169463   6.389   1.498  10.586 -0.0757  0.6433 -0.0574
21957SOL    HW269464   6.479   1.527  10.468  0.4963 -1.1329 -0.0773
21958SOL     OW69465   1.967   2.316   3.036  0.1063  0.0030 -0.3859
21958SOL    HW169466   2.042   2.271   3.074  1.5544  0.8186 -2.1550
21958SOL    HW269467   1.984   2.409   3.053 -1.4365  0.1162  0.7557
21959SOL     OW69468   9.500  10.254   4.250  0.0580 -0.1697  0.6065
21959SOL    HW169469   9.507  10.347   4.228 -1.3286  0.3470  2.1377
21959SOL    HW269470   9.582  10.233   4.293  0.4482  0.3010  0.1045
21960SOL     OW69471   5.476  10.654   5.211  0.1774 -0.1191  0.2988
21960SOL    HW169472   5.412  10.584   5.224 -0.3033  0.3330  0.4008
21960SOL    HW269473   5.431  10.733   5.239  0.1557  0.4718 -1.3314
21961SOL     OW69474   1.756   8.968   2.666  0.8851 -0.5388  0.0493
21961SOL    HW169475   1.787   8.964   2.575  0.0024  0.2388 -0.3018
21961SOL    HW269476   1.835   8.988   2.717  1.4644 -1.3668 -0.4931
21962SOL     OW69477  10.345   9.465   7.209 -0.2005  0.1760 -0.2685
21962SOL    HW169478  10.363   9.546   7.257  2.1341 -0.3158 -0.2174
21962SOL    HW269479  10.419   9.408   7.229 -0.5708 -1.0933 -2.2288
21963SOL     OW69480   2.579  10.466   0.873  0.0191  0.2640 -0.0217
21963SOL    HW169481   2.608  10.399   0.935 -1.6914  1.1836  1.9200
21963SOL    HW269482   2.492  10.437   0.845  0.5864  0.0933 -1.6948
21964SOL     OW69483   3.972   2.419   2.835  0.2129 -0.1501 -0.2216
21964SOL    HW169484   3.939   2.346   2.888  1.6511 -0.9413 -0.3903
21964SOL    HW269485   4.057   2.390   2.803 -0.0087  0.8726 -1.8412
21965SOL     OW69486   5.723   6.874   3.089 -0.5464  0.0296 -0.5091
21965SOL    HW169487   5.639   6.857   3.045  0.3432 -0.8353 -1.9658
21965SOL    HW269488   5.712   6.837   3.177 -2.0543  0.9573 -0.2651
21966SOL     OW69489   5.684   5.436   0.863  0.1701 -0.2004  0.5664
21966SOL    HW169490   5.698   5.432   0.958  2.1839  2.6691  0.5036
21966SOL    HW269491   5.592   5.461   0.853  0.0676 -0.0455  1.7890
21967SOL     OW69492  10.311   4.619  11.060  0.3812  0.2209 -0.4337
21967SOL    HW169493  10.356   4.583  11.137  0.9398  1.0736 -0.3572
21967SOL    HW269494  10.236   4.560  11.048 -0.6352  0.9559  1.7312
21968SOL     OW69495   3.134   5.587   5.703 -0.2285 -0.5632 -0.3011
21968SOL    HW169496   3.073   5.518   5.728 -0.4390 -0.1473  0.3440
21968SOL    HW269497   3.085   5.641   5.641 -0.9955  0.5297  1.2107
21969SOL     OW69498   6.788   1.837  10.585  0.7900 -0.6574 -0.1474
21969SOL    HW169499   6.709   1.827  10.533  1.7567 -0.6788 -1.6672
21969SOL    HW269500   6.779   1.924  10.625 -1.0321 -1.5690  1.6032
21970SOL     OW69501   1.369   3.917   5.300 -0.2101  0.1438 -0.0493
21970SOL    HW169502   1.398   3.886   5.214  0.6317  2.5753 -0.7391
21970SOL    HW269503   1.275   3.933   5.289  0.1177  1.6906 -1.0147
21971SOL     OW69504   4.234   6.182   5.625  0.2969  0.5150 -0.3193
21971SOL    HW169505   4.264   6.257   5.574  3.0738  0.4137  0.9641
21971SOL    HW269506   4.289   6.109   5.594  0.4642 -0.0470  1.1941
21972SOL     OW69507   7.592   1.986   5.979 -0.0180 -0.4928  0.7111
21972SOL    HW169508   7.555   2.047   5.915 -1.2720 -0.9476  0.9626
21972SOL    HW269509   7.519   1.927   6.000  1.1562 -2.1072  0.4470
21973SOL     OW69510  10.303   6.817   0.572  0.0768 -0.0532  0.4838
21973SOL    HW169511  10.343   6.791   0.489  0.7344  0.6604  0.5722
21973SOL    HW269512  10.377   6.841   0.628 -0.4019  0.1098  1.0578
21974SOL     OW69513   1.904   3.744  10.892 -0.2137 -0.9766 -0.1047
21974SOL    HW169514   1.819   3.725  10.931 -0.6008 -2.7685 -1.6385
21974SOL    HW269515   1.894   3.832  10.854 -1.1718 -0.9051  0.2763
21975SOL     OW69516   9.526   1.034   8.831 -0.8493  0.4183  0.2674
21975SOL    HW169517   9.601   1.032   8.771 -1.1975  2.3220 -0.3050
21975SOL    HW269518   9.480   1.114   8.808 -3.1617 -0.7662  0.5175
21976SOL     OW69519   9.568   5.575   2.576 -0.1621  0.1580  0.3154
21976SOL    HW169520   9.585   5.657   2.531  1.1402  0.4312  1.2630
21976SOL    HW269521   9.496   5.535   2.526  0.0532  1.2488 -0.9202
21977SOL     OW69522   0.500   1.872  10.655 -0.2079  0.2678 -0.4551
21977SOL    HW169523   0.442   1.797  10.646  0.7667 -0.4559 -0.9126
21977SOL    HW269524   0.576   1.850  10.601  1.9029 -0.1986  2.4903
21978SOL     OW69525   7.970   3.317   1.961 -0.6742  0.0761  0.4036
21978SOL    HW169526   7.995   3.289   2.049 -0.4730  0.4157  0.4555
21978SOL    HW269527   8.025   3.264   1.903 -0.4258  0.2320  0.4963
21979SOL     OW69528   9.140   6.544   1.267  0.4367 -0.0760 -0.3478
21979SOL    HW169529   9.156   6.466   1.320 -1.7417 -0.4049 -0.0878
21979SOL    HW269530   9.079   6.514   1.200  1.5631  0.8310 -1.8338
21980SOL     OW69531   8.543   4.476   9.364 -0.3255 -0.4796  0.2478
21980SOL    HW169532   8.510   4.502   9.450  0.3761 -1.9744  0.9917
21980SOL    HW269533   8.471   4.497   9.304 -1.9389 -1.9292  1.5699
21981SOL     OW69534   2.098   6.514   0.219  0.5993 -0.4315  0.3801
21981SOL    HW169535   2.122   6.513   0.126  1.6361 -1.3580  0.6406
21981SOL    HW269536   2.007   6.544   0.219  1.1111  1.2452 -0.7868
21982SOL     OW69537   7.827   5.897   1.378 -1.0615  0.0605 -0.2257
21982SOL    HW169538   7.748   5.932   1.336 -2.7692 -1.1796  1.7735
21982SOL    HW269539   7.887   5.971   1.382 -2.0878  1.0302 -1.8350
21983SOL     OW69540   3.403   7.395   5.345 -0.0020  0.4920  0.6656
21983SOL    HW169541   3.387   7.391   5.251 -0.0349  1.3047  0.6328
21983SOL    HW269542   3.485   7.349   5.358 -0.3108 -0.1695  0.3223
21984SOL     OW69543   2.314   7.118   8.145  0.1788 -0.1868  0.1432
21984SOL    HW169544   2.344   7.208   8.138 -0.2895 -0.0897 -0.6894
21984SOL    HW269545   2.373   7.078   8.209  1.9919  0.0244 -1.3109
21985SOL     OW69546   4.511   2.629   9.233  0.7799  0.4632 -0.1159
21985SOL    HW169547   4.416   2.619   9.246  0.6607  1.1217 -0.4163
21985SOL    HW269548   4.550   2.584   9.307  0.2564 -0.7016 -0.5271
21986SOL     OW69549   8.171   1.609   8.073 -0.5996 -0.4177 -0.0506
21986SOL    HW169550   8.252   1.660   8.070 -0.0310 -1.2099  1.1512
21986SOL    HW269551   8.108   1.669   8.113 -0.4037 -0.0689 -0.2509
21987SOL     OW69552   8.962   3.458   2.681 -0.1274  0.3261 -0.2803
21987SOL    HW169553   8.918   3.450   2.597 -0.5309 -0.2827 -0.0234
21987SOL    HW269554   8.892   3.451   2.746  0.2880 -0.2518  0.1263
21988SOL     OW69555   9.585   9.249   1.644 -0.1719  0.3521  0.0421
21988SOL    HW169556   9.536   9.203   1.712  1.7129 -1.4283  0.2901
21988SOL    HW269557   9.566   9.200   1.564  1.0167 -0.2682  0.1168
21989SOL     OW69558   6.353   1.659   1.795  0.3253 -0.5823 -0.2162
21989SOL    HW169559   6.310   1.603   1.859  0.8939  1.1282  1.7583
21989SOL    HW269560   6.447   1.639   1.805  0.5978  1.1713  1.0204
21990SOL     OW69561   5.941   7.727   3.351 -0.0445 -0.2276 -0.3706
21990SOL    HW169562   6.033   7.750   3.334 -0.0059  0.1219  0.2977
21990SOL    HW269563   5.945   7.659   3.418 -0.2848 -0.1201 -0.2490
21991SOL     OW69564   0.322   9.574   0.155  0.1288 -0.7825 -0.2240
21991SOL    HW169565   0.314   9.492   0.204  2.5519 -0.5247  0.7383
21991SOL    HW269566   0.364   9.635   0.216 -0.1575  0.7001 -1.4412
21992SOL     OW69567   7.649   9.087   3.915 -0.3507  0.5146  0.1846
21992SOL    HW169568   7.659   9.157   3.850 -1.3312 -0.4355 -1.0341
21992SOL    HW269569   7.562   9.103   3.953 -0.6843 -0.1694 -0.2758
21993SOL     OW69570   2.039   4.051  10.533 -0.1550  0.6715  0.1669
21993SOL    HW169571   2.060   3.972  10.582 -1.0147  1.1504  1.3682
21993SOL    HW269572   1.962   4.028  10.481 -1.3194  1.1031  1.6387
21994SOL     OW69573   8.081  10.586   1.981 -0.1829  0.2967  0.8166
21994SOL    HW169574   8.162  10.544   2.010 -0.1239  0.3231  0.6918
21994SOL    HW269575   8.023  10.514   1.957 -0.2006  0.2774  0.9171
21995SOL     OW69576   2.220   5.136   4.341 -0.4028  0.5384  0.2640
21995SOL    HW169577   2.200   5.138   4.434  0.1660  0.9776  0.3812
21995SOL    HW269578   2.188   5.051   4.311 -0.5451  0.3764  0.8661
21996SOL     OW69579   5.877   6.543   7.016  0.3260 -0.0171 -0.0928
21996SOL    HW169580   5.876   6.449   7.034 -0.5956  0.0776  0.4084
21996SOL    HW269581   5.932   6.580   7.086  1.3628 -0.2520 -0.7556
21997SOL     OW69582   7.940  10.576   0.228  0.0137 -0.0242 -0.0949
21997SOL    HW169583   7.913  10.635   0.298 -1.1151 -0.3506 -0.2422
21997SOL    HW269584   7.994  10.631   0.171 -1.5609  1.0832 -0.5915
21998SOL     OW69585   2.674   1.407   2.613  0.3396 -0.0502  0.3589
21998SOL    HW169586   2.724   1.389   2.693  1.4732  1.3027 -0.0113
21998SOL    HW269587   2.583   1.394   2.639  0.6952  0.2046  1.8340
21999SOL     OW69588  10.164   0.892   9.735  0.5635 -0.3283 -0.4169
21999SOL    HW169589  10.078   0.861   9.761  0.2498  2.2208  2.0252
21999SOL    HW269590  10.163   0.886   9.639 -2.0886 -0.8795 -0.4398
22000SOL     OW69591   9.451   5.358   1.948  0.0340 -0.1198 -0.2441
22000SOL    HW169592   9.506   5.292   1.991 -0.5567 -0.0934  0.5662
22000SOL    HW269593   9.491   5.368   1.861  0.4421 -1.1617 -0.2005
22001SOL     OW69594   2.075   8.167   4.853  0.1196  0.2448 -0.1023
22001SOL    HW169595   2.165   8.148   4.827  0.0998  1.3275 -1.0714
22001SOL    HW269596   2.058   8.108   4.927  1.7831  0.3773  0.4350
22002SOL     OW69597   0.451   6.475  10.017 -0.0825 -0.1000 -0.0154
22002SOL    HW169598   0.384   6.534  10.051  0.0841  0.7368 -1.0626
22002SOL    HW269599   0.527   6.489  10.073  0.4033  1.7447 -1.0367
22003SOL     OW69600  10.550   3.829   5.735 -0.2318 -0.5261  0.0610
22003SOL    HW169601  10.605   3.879   5.674  0.3858 -0.8038  0.3787
22003SOL    HW269602  10.563   3.871   5.820  0.1603 -1.1186  0.2981
22004SOL     OW69603   6.033   1.209  10.924  0.2844 -0.1410 -0.0039
22004SOL    HW169604   5.946   1.183  10.895  0.7003 -1.4976 -0.1365
22004SOL    HW269605   6.027   1.210  11.020  0.3201 -1.0492  0.0186
22005SOL     OW69606   4.150   3.390   8.972  0.0580 -0.0138  0.0938
22005SOL    HW169607   4.055   3.402   8.976 -0.0098 -0.2944 -0.5473
22005SOL    HW269608   4.165   3.304   9.010  0.0870  0.1592  0.4753
22006SOL     OW69609   3.980   8.581   7.137  0.0003 -0.2277  0.0869
22006SOL    HW169610   4.010   8.669   7.117  0.2216  0.0056  1.3574
22006SOL    HW269611   4.013   8.564   7.225 -0.3807 -1.4279  0.0155
22007SOL     OW69612   8.010   0.033   8.096  0.2964 -0.6540 -0.1690
22007SOL    HW169613   7.989   0.114   8.049 -0.4157 -1.4385 -1.2082
22007SOL    HW269614   8.029   0.063   8.186  2.1996  0.9175 -1.0185
22008SOL     OW69615   7.672   3.973   3.070  0.0009 -0.6836 -0.1150
22008SOL    HW169616   7.598   3.916   3.047  1.0035 -1.3894 -1.7632
22008SOL    HW269617   7.702   4.008   2.987  1.2436 -0.0435  0.5766
22009SOL     OW69618   8.897   3.153   5.583  0.0619  0.3311 -0.0367
22009SOL    HW169619   8.884   3.073   5.533 -1.9136  1.9793 -2.3786
22009SOL    HW269620   8.992   3.162   5.590  0.3327 -1.9026 -0.1081
22010SOL     OW69621   2.163   7.369   7.550  0.2508 -0.1070  0.0627
22010SOL    HW169622   2.169   7.456   7.510 -0.5550 -0.4104 -0.7269
22010SOL    HW269623   2.076   7.367   7.589  0.6225 -0.2224  0.9281
22011SOL     OW69624   5.471   2.063   8.232 -0.3672 -0.2355 -0.2607
22011SOL    HW169625   5.464   1.968   8.245 -2.4262 -0.0435  0.4116
22011SOL    HW269626   5.563   2.077   8.209  0.0605 -2.3484 -0.0893
22012SOL     OW69627   9.463   2.173   2.612  0.0808 -0.0768  0.2458
22012SOL    HW169628   9.556   2.173   2.637  0.2777 -0.3814 -0.4551
22012SOL    HW269629   9.422   2.114   2.675  0.3310  0.1741  0.6530
22013SOL     OW69630   9.095   8.145   5.554 -0.0302  0.4674  0.2370
22013SOL    HW169631   9.095   8.232   5.593 -2.3181  1.3845 -1.5458
22013SOL    HW269632   9.150   8.153   5.476  0.7153 -0.0448  0.6947
22014SOL     OW69633   5.321   4.770   1.952  0.7126  0.3325 -0.0526
22014SOL    HW169634   5.318   4.764   1.857  0.4018  0.6016 -0.0600
22014SOL    HW269635   5.314   4.679   1.982 -1.5600  0.3908 -0.2185
22015SOL     OW69636   7.675  11.077   9.560  0.2873  0.1627 -0.1148
22015SOL    HW169637   7.612  11.079   9.632 -1.1072  0.9671 -1.3033
22015SOL    HW269638   7.759  11.058   9.602 -0.7751 -1.3343  1.4871
22016SOL     OW69639   7.224   6.536  10.745  0.2735 -0.0575  0.2857
22016SOL    HW169640   7.143   6.540  10.694 -0.0160 -1.4629  0.6148
22016SOL    HW269641   7.278   6.472  10.699  0.7403  0.0060  0.7368
22017SOL     OW69642   7.954   7.082   8.054 -0.6475  0.6146 -0.4355
22017SOL    HW169643   7.971   7.127   8.137 -0.0450  1.1946 -0.8535
22017SOL    HW269644   7.888   7.016   8.075 -0.0263  0.3085  0.6424
22018SOL     OW69645  10.271   9.988   9.458 -0.2953 -0.1555 -0.2046
22018SOL    HW169646  10.183  10.021   9.472  0.0420  0.8207 -0.3019
22018SOL    HW269647  10.259   9.900   9.423 -1.2220 -0.0706 -0.1152
22019SOL     OW69648   6.029   1.303   3.405 -0.1928  0.1329 -0.3907
22019SOL    HW169649   6.067   1.230   3.357 -0.2024  0.8449 -1.5239
22019SOL    HW269650   5.975   1.262   3.473 -0.2333 -0.9123 -1.0346
22020SOL     OW69651  10.720   5.452   9.088  0.1672  0.2660  0.6695
22020SOL    HW169652  10.691   5.369   9.050 -1.1695 -0.0082  2.1906
22020SOL    HW269653  10.815   5.442   9.097  0.7007  0.5433 -2.8988
22021SOL     OW69654   9.166   1.657   0.754  0.5674 -0.2224  0.4978
22021SOL    HW169655   9.185   1.751   0.758  0.9592 -0.3114  0.7734
22021SOL    HW269656   9.086   1.646   0.806  0.5730 -0.0570  0.5414
22022SOL     OW69657   4.716   4.928   7.199 -0.8130  0.0549 -0.5405
22022SOL    HW169658   4.760   4.967   7.274 -0.4434  1.2983 -1.3829
22022SOL    HW269659   4.626   4.914   7.229 -0.3962 -0.5535  0.5008
22023SOL     OW69660   2.711   7.253   1.659 -0.3974  0.7407  0.0649
22023SOL    HW169661   2.712   7.314   1.585 -2.7810 -0.9932 -1.5450
22023SOL    HW269662   2.665   7.299   1.728 -3.4419  0.4408 -1.6010
22024SOL     OW69663   8.261   4.896   2.128  0.1668 -0.0826  0.3036
22024SOL    HW169664   8.290   4.957   2.059 -0.6631 -1.4435 -1.3290
22024SOL    HW269665   8.283   4.941   2.210  0.8428  1.7879 -0.8206
22025SOL     OW69666   0.611   1.824   0.545  0.6136 -0.2423 -0.3275
22025SOL    HW169667   0.675   1.858   0.608  0.1181  2.8645 -1.2951
22025SOL    HW269668   0.528   1.823   0.593  1.0034 -2.6507  0.4245
22026SOL     OW69669   2.668   2.848   3.078  0.4117 -0.1899  0.0866
22026SOL    HW169670   2.662   2.903   2.999 -0.1692  1.2635  1.1055
22026SOL    HW269671   2.735   2.891   3.131 -0.3387 -0.2334  1.0783
22027SOL     OW69672   1.853   1.577   6.299  0.4105 -0.1598  0.2370
22027SOL    HW169673   1.906   1.657   6.296 -1.0633  0.8229 -1.7294
22027SOL    HW269674   1.845   1.551   6.207  1.0990 -2.7878  0.8610
22028SOL     OW69675   0.815   6.772   8.237  0.3932  0.0737  0.2599
22028SOL    HW169676   0.763   6.851   8.219  1.4899  1.1652  1.6753
22028SOL    HW269677   0.795   6.750   8.328 -0.6953 -1.9578 -0.4078
22029SOL     OW69678   7.359   4.174   6.395 -0.0530 -0.2554 -0.1699
22029SOL    HW169679   7.361   4.212   6.307  1.6517 -0.0410 -0.0714
22029SOL    HW269680   7.395   4.243   6.451  0.0055 -0.8398  0.5211
22030SOL     OW69681   2.434   2.212   6.855  0.4577  0.0250  0.2148
22030SOL    HW169682   2.484   2.150   6.803 -0.6193 -0.4612 -0.2799
22030SOL    HW269683   2.437   2.293   6.805  1.3089  0.2039  0.5332
22031SOL     OW69684   2.662  11.020   3.895  0.2086 -0.0845 -0.0404
22031SOL    HW169685   2.648  11.115   3.893  1.0239  0.0413 -0.4210
22031SOL    HW269686   2.707  11.004   3.977  0.8048 -0.0278 -0.3545
22032SOL     OW69687   4.725   4.585   6.733  0.5303  0.0567 -0.0080
22032SOL    HW169688   4.752   4.531   6.659  0.3987  0.3646 -0.2836
22032SOL    HW269689   4.800   4.584   6.792  0.9040  0.3823 -0.4694
22033SOL     OW69690   9.652   5.832   0.608 -0.1498 -0.4452 -0.2659
22033SOL    HW169691   9.667   5.762   0.544  1.4333 -0.3401 -0.0563
22033SOL    HW269692   9.720   5.819   0.674 -0.2359  0.8940  0.1224
22034SOL     OW69693   6.842   7.974  10.513  0.5550  0.2218  0.8414
22034SOL    HW169694   6.831   8.004  10.603  2.5584 -0.2940  1.3149
22034SOL    HW269695   6.910   8.031  10.476  0.1892  0.0474 -0.1427
22035SOL     OW69696   8.299   2.356   4.051 -0.3462  0.5333 -0.0870
22035SOL    HW169697   8.350   2.404   3.986 -0.1717  0.2496 -0.1590
22035SOL    HW269698   8.363   2.329   4.117 -0.8653  3.1429  1.6445
22036SOL     OW69699   8.917   5.941   6.112 -0.1858  0.0188  0.4136
22036SOL    HW169700   8.947   6.023   6.151  2.3295 -1.0427  0.8685
22036SOL    HW269701   8.925   5.876   6.182 -2.3936 -0.6218  0.1438
22037SOL     OW69702   8.700   3.812   0.303 -0.2743 -0.4600 -0.1329
22037SOL    HW169703   8.796   3.805   0.294 -0.1535 -0.7774  1.1992
22037SOL    HW269704   8.684   3.801   0.397 -1.4574  1.7727 -0.0119
22038SOL     OW69705   8.007   4.150   6.668 -0.5756  0.2940  0.2428
22038SOL    HW169706   8.079   4.199   6.627  0.8501 -0.5577  1.6343
22038SOL    HW269707   7.928   4.198   6.641  0.5498  1.7765 -0.6152
22039SOL     OW69708   5.132   0.283  10.042  0.0628 -0.6296  0.3711
22039SOL    HW169709   5.211   0.298  10.095 -0.4458  0.1422  0.9390
22039SOL    HW269710   5.091   0.207  10.082  0.7202 -1.2901 -0.1822
22040SOL     OW69711   7.822   9.976  10.369  0.4219  0.4120  0.3186
22040SOL    HW169712   7.865   9.988  10.284 -0.5146  0.2444 -0.1975
22040SOL    HW269713   7.894   9.960  10.430  1.0374 -1.0969 -0.7349
22041SOL     OW69714   8.045   6.593   5.522  0.0699 -0.4313 -0.2600
22041SOL    HW169715   8.098   6.543   5.584  0.3836 -0.7907 -0.8202
22041SOL    HW269716   8.106   6.657   5.485 -0.2358  0.1201  0.1666
22042SOL     OW69717   4.870   9.721   3.712  0.1010  0.8515  0.2705
22042SOL    HW169718   4.896   9.684   3.796  1.6180 -0.9395 -0.8919
22042SOL    HW269719   4.779   9.694   3.701 -0.1190  1.1445  1.3463
22043SOL     OW69720   2.238   9.942   1.223 -0.2921  0.1157  0.3085
22043SOL    HW169721   2.223   9.888   1.301  0.6647  1.7424  1.6944
22043SOL    HW269722   2.261  10.028   1.258 -1.3103  1.3243 -1.8088
22044SOL     OW69723   6.295  10.550   6.927  0.9758 -0.0976  0.2765
22044SOL    HW169724   6.316  10.640   6.951 -0.0363 -0.3586  2.4014
22044SOL    HW269725   6.380  10.510   6.908  1.3999  1.3901 -1.1996
22045SOL     OW69726   6.622   9.026   8.890  0.1512  0.1561  0.1030
22045SOL    HW169727   6.671   9.000   8.968 -1.0980  0.8366  1.1495
22045SOL    HW269728   6.602   9.119   8.903  0.4778  0.4520 -1.3455
22046SOL     OW69729   6.319   9.332   0.114 -0.2438 -0.3485 -0.5924
22046SOL    HW169730   6.256   9.353   0.045 -0.2080 -0.3908 -0.6386
22046SOL    HW269731   6.300   9.240   0.136 -0.2289 -0.3471 -0.5743
22047SOL     OW69732  10.445   6.423   9.985  0.3145  0.1510  0.0305
22047SOL    HW169733  10.522   6.367   9.989 -0.4133 -0.9618 -0.9724
22047SOL    HW269734  10.472   6.499   9.934  1.1768  0.5256  1.0085
22048SOL     OW69735   0.759   2.444   6.318  0.2461  0.5055  0.1926
22048SOL    HW169736   0.703   2.414   6.390  0.4630 -1.2307 -0.3284
22048SOL    HW269737   0.844   2.461   6.359  0.1191  0.3933  0.5064
22049SOL     OW69738   3.339  10.148   8.617 -0.6163  0.0885 -0.1077
22049SOL    HW169739   3.351  10.080   8.683 -0.2009 -0.0429 -0.3118
22049SOL    HW269740   3.424  10.190   8.611 -0.1796 -0.9046 -1.6495
22050SOL     OW69741   5.813   8.120   1.968 -0.1220 -0.0139  0.5067
22050SOL    HW169742   5.839   8.123   1.876 -1.5118  1.0299  0.1142
22050SOL    HW269743   5.801   8.027   1.987 -0.5700 -0.1917 -0.5861
22051SOL     OW69744  10.090   2.558   3.021  0.2114 -0.1313  0.0205
22051SOL    HW169745  10.046   2.474   3.034 -2.1145  1.0681  0.3818
22051SOL    HW269746  10.087   2.573   2.927  0.2230 -0.2339  0.0035
22052SOL     OW69747   0.524   0.050   5.393 -0.1328 -0.6484 -0.1108
22052SOL    HW169748   0.542  -0.041   5.370 -1.3983 -0.9653  0.0895
22052SOL    HW269749   0.583   0.101   5.337 -0.5721 -1.5245 -1.4200
22053SOL     OW69750   9.058   9.747   7.820 -0.0799 -0.7852 -0.2284
22053SOL    HW169751   9.082   9.782   7.734 -1.2248  0.5239 -0.0510
22053SOL    HW269752   9.141   9.743   7.868  0.2768  0.6413 -0.6603
22054SOL     OW69753   0.835   9.130   1.051  0.2488  0.4307  0.5135
22054SOL    HW169754   0.881   9.211   1.075  0.4797  0.7578 -0.9382
22054SOL    HW269755   0.771   9.157   0.984  1.4975 -0.8134 -1.2824
22055SOL     OW69756   6.909  10.089   6.698  0.3833  0.5620  0.1444
22055SOL    HW169757   6.973  10.038   6.746 -1.5388 -1.3518  0.8535
22055SOL    HW269758   6.852  10.126   6.765 -0.7897  0.0439 -0.5307
22056SOL     OW69759   6.991   9.958   5.729 -0.3144  0.3921 -0.0144
22056SOL    HW169760   7.003  10.019   5.656  1.2135 -0.0990 -0.2004
22056SOL    HW269761   6.994  10.014   5.807  0.6637  0.6241 -0.2047
22057SOL     OW69762   4.292   1.670   1.020  0.0127 -0.0649  0.1216
22057SOL    HW169763   4.337   1.641   1.099  0.0490  1.1538  0.5730
22057SOL    HW269764   4.200   1.679   1.046 -0.3909 -1.7527 -0.5767
22058SOL     OW69765   1.016   5.386   9.950  0.1265  0.4115  0.3296
22058SOL    HW169766   0.976   5.460   9.904  2.0469  0.7234 -0.9325
22058SOL    HW269767   1.035   5.420  10.038 -1.2053  0.6081  0.5786
22059SOL     OW69768   4.378   0.538   9.516  1.0129 -0.3101  0.4640
22059SOL    HW169769   4.455   0.520   9.570  1.9716  0.0575 -0.7451
22059SOL    HW269770   4.363   0.632   9.528  2.0242  0.0483 -0.8843
22060SOL     OW69771   9.677   0.254   9.739 -0.6487 -0.1221  0.4136
22060SOL    HW169772   9.585   0.278   9.749 -0.6466  0.4633 -0.8036
22060SOL    HW269773   9.719   0.287   9.818 -1.2589  0.7982  0.3653
22061SOL     OW69774   3.500  10.580   6.561  0.1618 -0.0817  0.2658
22061SOL    HW169775   3.573  10.612   6.509 -0.7451 -0.5255 -1.3564
22061SOL    HW269776   3.427  10.638   6.539 -0.6804 -1.2960 -0.3291
22062SOL     OW69777   1.074   0.620  11.071  0.0642  0.2380  0.0771
22062SOL    HW169778   1.147   0.579  11.116  0.1733 -0.2514 -0.5286
22062SOL    HW269779   1.115   0.673  11.002 -0.1617 -0.6357 -0.7561
22063SOL     OW69780   8.042   0.726   5.304  0.1479  0.1505  0.1343
22063SOL    HW169781   8.121   0.676   5.322 -0.0652  0.0139  0.6982
22063SOL    HW269782   8.067   0.786   5.233  1.7162  2.3517  2.3786
22064SOL     OW69783   4.911   2.914   9.096  0.3950  0.2448 -0.2307
22064SOL    HW169784   4.853   2.988   9.075  1.2034  1.2427  0.9463
22064SOL    HW269785   4.919   2.916   9.191  0.9772 -0.9569 -0.2389
22065SOL     OW69786   1.367   4.444   6.421  0.2297  0.5193 -0.2177
22065SOL    HW169787   1.440   4.420   6.364  1.6213  2.3160  0.6980
22065SOL    HW269788   1.292   4.399   6.384  1.9117 -2.0617 -0.7615
22066SOL     OW69789   5.224   0.753   2.953  0.0516 -0.1401 -0.5020
22066SOL    HW169790   5.313   0.719   2.949 -0.0549 -0.4199 -0.5433
22066SOL    HW269791   5.168   0.677   2.934 -0.1627  0.2026 -1.3054
22067SOL     OW69792   4.317   8.238   2.436  0.1390 -0.3707  0.3122
22067SOL    HW169793   4.258   8.283   2.376  0.2696 -0.7482 -0.0999
22067SOL    HW269794   4.267   8.231   2.518 -0.4898 -0.9307 -0.1129
22068SOL     OW69795   9.479   3.304   3.095 -0.0559  0.5587  0.8248
22068SOL    HW169796   9.416   3.323   3.026  0.5726  0.0432  0.0841
22068SOL    HW269797   9.466   3.212   3.116  1.7305 -0.1384 -0.7591
22069SOL     OW69798   2.404   1.073   2.035  0.4950  0.2775  0.1555
22069SOL    HW169799   2.418   1.147   2.095 -0.2800 -0.3232  1.1161
22069SOL    HW269800   2.460   1.092   1.960  0.6039  1.6470  0.5520
22070SOL     OW69801   9.058   7.989   5.766 -0.1431  0.5430  0.2820
22070SOL    HW169802   9.057   8.029   5.679  1.3567  0.7560  0.3346
22070SOL    HW269803   9.122   8.040   5.815 -0.1504 -0.2760  1.1775
22071SOL     OW69804   4.469   8.331   9.535 -0.7457  0.5758  0.3634
22071SOL    HW169805   4.411   8.276   9.587 -1.0299 -0.7598 -1.2729
22071SOL    HW269806   4.557   8.311   9.567 -0.8429 -0.9007 -0.2288
22072SOL     OW69807   6.451   8.664   8.794 -0.0081 -0.1079 -0.2091
22072SOL    HW169808   6.367   8.643   8.835 -0.6724  1.3751 -0.7526
22072SOL    HW269809   6.439   8.752   8.757  2.4420  1.0911  1.5369
22073SOL     OW69810   1.189   7.912   7.167  0.5797  0.0251  0.1504
22073SOL    HW169811   1.108   7.902   7.116  0.4132 -2.1099  0.7303
22073SOL    HW269812   1.244   7.840   7.137  1.9300  0.8999  0.4469
22074SOL     OW69813   0.231   5.924   6.691 -0.5049 -0.5833  0.1499
22074SOL    HW169814   0.207   6.016   6.701  0.2884 -0.1372 -1.6224
22074SOL    HW269815   0.222   5.887   6.779 -0.5336  1.2484  0.9635
22075SOL     OW69816   0.329   8.888   0.073  0.3486  0.3338 -0.0563
22075SOL    HW169817   0.272   8.904  -0.002  1.8311 -0.6260 -1.4584
22075SOL    HW269818   0.342   8.793   0.073  0.4049  0.3154  1.4289
22076SOL     OW69819   0.621   7.930   8.727 -0.6329 -0.4004 -0.7292
22076SOL    HW169820   0.606   7.937   8.633 -1.1789  0.6249 -0.5846
22076SOL    HW269821   0.628   8.021   8.757  3.0024 -0.6680 -0.2837
22077SOL     OW69822   1.653   1.365   0.014 -0.2136 -0.4461 -0.2305
22077SOL    HW169823   1.647   1.305   0.088 -0.2758  0.1856  0.2869
22077SOL    HW269824   1.563   1.397   0.001 -0.1413 -0.2907 -0.3552
22078SOL     OW69825   5.820   4.771   2.562  0.2188  0.1270  0.0637
22078SOL    HW169826   5.886   4.822   2.516 -0.0739 -0.7614 -1.4114
22078SOL    HW269827   5.742   4.776   2.507 -0.4935 -0.0867  1.0129
22079SOL     OW69828  10.417   2.710   5.745 -0.5118 -0.7508 -0.0459
22079SOL    HW169829  10.391   2.618   5.753  0.3797 -1.1046 -1.0297
22079SOL    HW269830  10.495   2.709   5.689  0.0021  0.5312  0.5890
22080SOL     OW69831   5.555   2.177  10.624  0.3757  0.2342 -0.1032
22080SOL    HW169832   5.541   2.228  10.703  2.9445 -2.0570  2.0373
22080SOL    HW269833   5.513   2.092  10.642  1.8804 -0.6830 -0.6958
22081SOL     OW69834  10.180   1.835   4.396  0.1138 -0.0100  0.0314
22081SOL    HW169835  10.122   1.861   4.468  0.6740  2.6128 -0.3740
22081SOL    HW269836  10.129   1.770   4.347 -1.1163 -0.2698  1.5540
22082SOL     OW69837   6.230   8.624   4.223 -0.2728 -0.2870  0.0831
22082SOL    HW169838   6.215   8.683   4.297  0.1017  2.1612 -1.6589
22082SOL    HW269839   6.324   8.605   4.226 -0.3595 -0.6534  0.5432
22083SOL     OW69840   5.763   3.378   8.216  0.9071  0.2254 -0.2782
22083SOL    HW169841   5.825   3.306   8.209  1.0212  0.4404 -1.8432
22083SOL    HW269842   5.690   3.352   8.160 -0.4329  0.0030  1.4882
22084SOL     OW69843   9.278   1.933   6.012 -0.0762  0.0484  0.1415
22084SOL    HW169844   9.352   1.880   5.982  0.7428  0.6482  1.0380
22084SOL    HW269845   9.287   2.015   5.965 -1.3177 -0.5595 -1.2104
22085SOL     OW69846   0.417   6.741   3.590 -0.0213  0.4073 -0.2469
22085SOL    HW169847   0.457   6.827   3.573  1.1377 -0.0238  0.1787
22085SOL    HW269848   0.339   6.740   3.534 -0.5308  2.0660  0.3629
22086SOL     OW69849   3.777   3.431   7.728  0.0393 -0.3599 -0.3792
22086SOL    HW169850   3.683   3.446   7.741 -0.5065 -0.9400 -3.0626
22086SOL    HW269851   3.819   3.484   7.796 -2.1959 -0.1355  0.9536
22087SOL     OW69852   9.918   2.104   0.112  0.1641 -0.1704  0.9326
22087SOL    HW169853   9.834   2.137   0.080 -0.1888  1.0127  2.9306
22087SOL    HW269854   9.938   2.029   0.055 -2.4352 -0.7453  0.6672
22088SOL     OW69855  11.055   6.143   1.967  0.0300  0.3195  0.2828
22088SOL    HW169856  11.085   6.225   1.927 -1.3607  0.7655  0.1201
22088SOL    HW269857  11.101   6.075   1.919 -0.2427  0.9300 -0.8730
22089SOL     OW69858   9.411   9.619   0.486 -0.0683 -0.2434  0.1829
22089SOL    HW169859   9.482   9.668   0.527  1.0096 -1.2466 -0.4088
22089SOL    HW269860   9.331   9.665   0.512  0.7795  0.7936  1.0333
22090SOL     OW69861   7.728   2.832   6.069  0.2136  0.6057  0.1083
22090SOL    HW169862   7.772   2.816   5.986  0.4868 -0.1781  0.3936
22090SOL    HW269863   7.790   2.801   6.135 -0.4634  0.1633  0.5472
22091SOL     OW69864   4.301   5.011   5.081  0.1413 -0.5871  0.2922
22091SOL    HW169865   4.251   4.954   5.140  0.9701 -1.0964  0.5161
22091SOL    HW269866   4.248   5.091   5.075 -0.4457 -0.9147  0.9314
22092SOL     OW69867   3.007   0.351   5.731  0.5070 -0.5022  0.2051
22092SOL    HW169868   3.027   0.282   5.794  1.3661 -0.8690 -0.4477
22092SOL    HW269869   2.916   0.375   5.750  0.8463 -0.3554  1.8060
22093SOL     OW69870   8.131   2.609   5.439 -0.0335 -0.2190 -0.1357
22093SOL    HW169871   8.124   2.700   5.468  1.1851  0.4267 -1.7333
22093SOL    HW269872   8.208   2.608   5.381 -0.2032 -2.1998 -0.3826
22094SOL     OW69873   9.477   3.508  10.535 -0.6583  0.1831 -0.0719
22094SOL    HW169874   9.527   3.495  10.454 -1.6208  1.6692 -0.9593
22094SOL    HW269875   9.517   3.448  10.598 -0.0576 -1.2162 -1.7145
22095SOL     OW69876  10.420   5.786   2.673 -0.1502 -0.2080  0.5213
22095SOL    HW169877  10.367   5.720   2.719  1.2923 -0.7420  1.4959
22095SOL    HW269878  10.372   5.868   2.686 -0.9743 -0.7480  0.9952
22096SOL     OW69879   3.451  10.533   7.745  0.2295 -0.3444  0.7209
22096SOL    HW169880   3.432  10.441   7.729 -0.6598 -0.0533  0.0237
22096SOL    HW269881   3.536  10.547   7.704 -0.4369 -0.4508 -0.7469
22097SOL     OW69882   3.090   9.594   4.127  0.0238 -0.0437  0.2049
22097SOL    HW169883   3.043   9.656   4.183 -0.7080 -0.3733 -0.0390
22097SOL    HW269884   3.023   9.531   4.099  0.3365  0.2122 -1.1736
22098SOL     OW69885   2.383   3.954   5.296 -0.2751  0.0107  0.2768
22098SOL    HW169886   2.350   4.040   5.323  1.8168  0.2704  2.3959
22098SOL    HW269887   2.437   3.972   5.219 -0.0469  0.6042  0.5609
22099SOL     OW69888   8.677   0.044   9.477  0.1532  0.0563  0.3226
22099SOL    HW169889   8.616   0.085   9.538  0.4563  1.0772 -0.0326
22099SOL    HW269890   8.750   0.106   9.471  0.1841 -0.0720 -0.9684
22100SOL     OW69891  10.959   4.542   1.319 -0.4420  0.2972 -0.6647
22100SOL    HW169892  10.881   4.595   1.300  0.4755  1.3914 -1.5430
22100SOL    HW269893  10.987   4.571   1.406 -1.0223 -0.1255 -0.3305
22101SOL     OW69894   1.849   3.487   9.537  0.1364 -0.8590  0.3144
22101SOL    HW169895   1.785   3.557   9.537  0.9262 -0.0621 -1.7178
22101SOL    HW269896   1.807   3.415   9.491  0.6817 -0.3179 -1.0651
22102SOL     OW69897   5.371   5.040   6.631  0.3118  0.0728 -0.0003
22102SOL    HW169898   5.403   5.128   6.609 -0.4612  0.2196 -0.5871
22102SOL    HW269899   5.304   5.055   6.698  1.4755 -0.2372  1.2771
22103SOL     OW69900   1.770  10.776   0.975 -0.0271  0.4692  0.9384
22103SOL    HW169901   1.711  10.840   1.014 -0.0245 -0.6285  2.8937
22103SOL    HW269902   1.776  10.706   1.041 -1.1168 -2.2396 -1.6056
22104SOL     OW69903   6.768   6.210   9.664  0.7361 -0.1761 -0.4175
22104SOL    HW169904   6.753   6.292   9.616 -0.8838  0.0601  0.4058
22104SOL    HW269905   6.703   6.212   9.735  0.1810 -2.5043 -0.7963
22105SOL     OW69906   4.246   0.880   1.923 -0.6274 -0.4462 -0.3261
22105SOL    HW169907   4.322   0.830   1.891  1.0716  0.4545  1.9802
22105SOL    HW269908   4.244   0.957   1.867 -1.4785 -1.6511 -2.0441
22106SOL     OW69909   9.675   6.574   7.112 -0.1535 -0.4331  0.3697
22106SOL    HW169910   9.688   6.666   7.090  0.2696 -1.0098 -2.0100
22106SOL    HW269911   9.763   6.537   7.115 -0.4175 -1.1871 -0.7753
22107SOL     OW69912   4.974   6.461   6.627 -0.5135  0.2433  0.2781
22107SOL    HW169913   5.009   6.458   6.538 -2.4915 -1.7472 -0.5497
22107SOL    HW269914   4.884   6.490   6.616 -0.5866  0.6298  1.7291
22108SOL     OW69915   2.793   2.102   3.617  0.1302 -0.2419  0.6631
22108SOL    HW169916   2.781   2.021   3.568 -1.4211 -0.5815  1.5226
22108SOL    HW269917   2.808   2.074   3.707 -0.3502  0.4065  0.9552
22109SOL     OW69918   5.489   1.550   9.812 -0.1897  0.2308  0.1173
22109SOL    HW169919   5.441   1.591   9.740 -1.1093 -0.5091  0.2818
22109SOL    HW269920   5.451   1.462   9.819 -0.0004  0.2340  1.3979
22110SOL     OW69921   6.560   6.049   7.563 -0.2926 -0.7979  1.0480
22110SOL    HW169922   6.469   6.080   7.559  0.1883  0.6469  0.8876
22110SOL    HW269923   6.591   6.056   7.473  0.5155  0.4472  1.4025
22111SOL     OW69924   8.286   4.835   2.604 -0.0738  0.5171  0.4596
22111SOL    HW169925   8.294   4.890   2.682  3.0228  1.8223 -0.6275
22111SOL    HW269926   8.310   4.892   2.531  1.9813 -1.8230 -0.8802
22112SOL     OW69927   0.701   0.676   8.349  0.1304 -0.8187 -0.1418
22112SOL    HW169928   0.714   0.595   8.398  0.3678 -0.4997  0.3275
22112SOL    HW269929   0.694   0.647   8.258 -2.0222 -1.5912  0.2203
22113SOL     OW69930   8.119   2.367   7.450  0.3066  0.4966  0.9692
22113SOL    HW169931   8.161   2.328   7.527  0.6025 -0.4845  0.3342
22113SOL    HW269932   8.039   2.316   7.437  0.2211  0.7024  0.6720
22114SOL     OW69933   3.156   4.660   6.408 -0.2813  0.1438  1.1247
22114SOL    HW169934   3.184   4.735   6.355  0.3991 -0.1586  1.0433
22114SOL    HW269935   3.099   4.698   6.475  0.7071  0.8652  1.5820
22115SOL     OW69936   9.160   8.691   4.184  0.4483 -0.2322 -0.1713
22115SOL    HW169937   9.117   8.680   4.099 -0.6300  1.5509  0.0898
22115SOL    HW269938   9.252   8.670   4.168 -0.0704 -1.8171 -1.3044
22116SOL     OW69939   8.664   5.284   8.831  0.5039 -0.4772 -0.2976
22116SOL    HW169940   8.610   5.218   8.874  0.1053  0.6837  1.0700
22116SOL    HW269941   8.738   5.298   8.890  0.5313  0.3552 -0.5098
22117SOL     OW69942   0.543   8.400   7.461 -0.2546 -0.0067  0.6120
22117SOL    HW169943   0.618   8.419   7.517 -0.1473  0.0765  0.4416
22117SOL    HW269944   0.468   8.441   7.506  0.1028  1.6342 -0.1920
22118SOL     OW69945   4.802   3.337   2.502 -0.1992 -0.2885 -0.0396
22118SOL    HW169946   4.792   3.432   2.498 -0.1257 -0.2735  0.1114
22118SOL    HW269947   4.718   3.303   2.471 -0.7181 -0.1620  1.1537
22119SOL     OW69948   7.278   7.953   9.321 -0.2879 -0.2922  0.3454
22119SOL    HW169949   7.289   8.011   9.247  0.5625 -0.3359  0.4269
22119SOL    HW269950   7.230   8.004   9.386 -0.3230  0.0148  0.0752
22120SOL     OW69951   4.766   9.517   2.295 -0.7184 -0.2642  0.0718
22120SOL    HW169952   4.760   9.565   2.377 -0.9682 -0.5626  0.2340
22120SOL    HW269953   4.841   9.554   2.250 -1.5704  1.0587 -0.3257
22121SOL     OW69954   7.164   3.421   1.795  0.4474 -0.1110 -0.2412
22121SOL    HW169955   7.087   3.473   1.770 -0.1245 -0.9900 -0.3398
22121SOL    HW269956   7.129   3.347   1.844  1.1646 -0.8655 -0.8256
22122SOL     OW69957   4.679   5.859   3.099 -0.4128 -0.1827 -0.5756
22122SOL    HW169958   4.594   5.823   3.077 -0.6968  0.2970 -0.2852
22122SOL    HW269959   4.730   5.784   3.130 -2.1524  0.1112  3.6005
22123SOL     OW69960   5.726   2.166   9.086  0.2508  0.0011  0.6541
22123SOL    HW169961   5.742   2.251   9.126  2.4275 -1.2847  2.7422
22123SOL    HW269962   5.774   2.103   9.140 -1.6689 -2.6702 -0.4705
22124SOL     OW69963   4.122   1.985   9.839 -0.3250  0.1582 -0.5475
22124SOL    HW169964   4.085   1.981   9.927 -0.8185  0.6007 -0.7350
22124SOL    HW269965   4.212   1.952   9.850 -0.2375  0.6297  0.1990
22125SOL     OW69966  10.787   6.527   2.436  0.2480 -0.1612  0.0885
22125SOL    HW169967  10.868   6.525   2.487 -0.4175  0.2337  1.2160
22125SOL    HW269968  10.785   6.443   2.390  0.9353 -0.4919  0.6354
22126SOL     OW69969   4.932   2.872   3.300  0.3707  0.6209  0.4247
22126SOL    HW169970   4.963   2.782   3.308 -1.1645 -0.3501 -2.9591
22126SOL    HW269971   5.002   2.924   3.339  3.5044 -1.7660 -1.4976
22127SOL     OW69972   1.774   4.505   0.951 -0.0672 -0.0031 -0.0977
22127SOL    HW169973   1.774   4.410   0.952  0.4284 -0.0290 -1.0590
22127SOL    HW269974   1.712   4.529   0.883 -0.0239  0.3559 -0.0157
22128SOL     OW69975   5.750   8.476   2.233  0.4307  0.0422 -0.0654
22128SOL    HW169976   5.724   8.415   2.164 -2.5597 -1.7677  2.4350
22128SOL    HW269977   5.833   8.442   2.265  0.7325 -0.3958 -1.2453
22129SOL     OW69978   2.386   0.866   4.212  0.4342 -0.3409  0.1251
22129SOL    HW169979   2.460   0.875   4.272  0.0640  1.8006  0.3461
22129SOL    HW269980   2.309   0.876   4.268 -0.0112 -1.6115 -0.2419
22130SOL     OW69981   2.095   1.042   3.240  0.1879  0.5079 -0.2508
22130SOL    HW169982   2.133   1.052   3.327 -0.6211 -0.2345  0.2084
22130SOL    HW269983   2.116   1.123   3.194  2.9675 -0.1319 -0.2949
22131SOL     OW69984   9.619   4.218   8.993  0.0247 -0.3020 -0.3755
22131SOL    HW169985   9.627   4.163   8.914  0.5652 -1.7197  0.6141
22131SOL    HW269986   9.703   4.206   9.038  0.4320  1.8956 -0.4181
22132SOL     OW69987   7.928   9.055   7.271 -0.2658  0.0380 -0.0261
22132SOL    HW169988   7.929   9.081   7.179 -0.3128 -0.5266 -0.1918
22132SOL    HW269989   7.960   9.132   7.318  1.0065 -0.1000 -0.6268
22133SOL     OW69990   1.865   7.773   7.812 -0.5208 -0.0687  0.1460
22133SOL    HW169991   1.786   7.759   7.759  0.7516 -0.6675 -1.7234
22133SOL    HW269992   1.891   7.863   7.794 -1.0916  0.3339  1.2547
22134SOL     OW69993   0.302   4.786   7.675 -0.2482  0.2217 -0.1618
22134SOL    HW169994   0.263   4.704   7.707 -0.7318 -0.1190 -1.5565
22134SOL    HW269995   0.314   4.839   7.754 -2.5610 -0.0845  0.4607
22135SOL     OW69996   9.982   6.621   8.414  0.3114 -0.0222 -0.2420
22135SOL    HW169997   9.897   6.664   8.424  1.5226  2.1281  1.8288
22135SOL    HW269998  10.038   6.687   8.373  1.4522 -0.7313  0.1219
22136SOL     OW69999   6.223   1.092   8.442 -0.0204 -0.4023 -0.3048
22136SOL    HW170000   6.250   1.133   8.360 -1.5606 -1.2218 -1.2683
22136SOL    HW270001   6.305   1.071   8.486  0.9909 -2.2483 -2.8073
22137SOL     OW70002   9.447   8.042   2.187  0.3474 -0.6108  1.1026
22137SOL    HW170003   9.542   8.037   2.199  0.4208  0.1198  0.9036
22137SOL    HW270004   9.415   8.080   2.269  0.4391  0.8341  0.5053
22138SOL     OW70005   1.943   4.514   9.727  0.6916 -0.6023 -0.7284
22138SOL    HW170006   1.891   4.592   9.750  3.4634  1.5431 -1.1900
22138SOL    HW270007   1.956   4.469   9.810  1.4870  1.0769  0.0959
22139SOL     OW70008  10.367   7.213   5.799 -0.4618  0.2148  0.0828
22139SOL    HW170009  10.280   7.251   5.809 -1.0153 -1.2206  0.9050
22139SOL    HW270010  10.390   7.231   5.707 -0.5715  2.6923  0.4476
22140SOL     OW70011   9.548   6.145  10.602  0.2025  0.0408  0.8390
22140SOL    HW170012   9.519   6.083  10.669 -1.9862  0.3453  0.2635
22140SOL    HW270013   9.491   6.221  10.614 -0.3094  0.0660 -1.3661
22141SOL     OW70014   9.422  11.039   6.617 -0.6350 -0.2487  0.0899
22141SOL    HW170015   9.392  11.005   6.702  1.0534  0.0486  0.8344
22141SOL    HW270016   9.485  11.107   6.639 -1.0532  0.6815 -1.4294
22142SOL     OW70017   7.296   7.883  10.828 -0.0454  0.4058  0.4792
22142SOL    HW170018   7.292   7.958  10.770 -0.3079  0.2048  0.2386
22142SOL    HW270019   7.227   7.825  10.798  0.6786 -0.3061  0.1448
22143SOL     OW70020  10.276  10.688   0.070 -0.2128 -0.6253 -0.5547
22143SOL    HW170021  10.237  10.650  -0.009  0.3972 -2.0180 -0.2150
22143SOL    HW270022  10.271  10.619   0.136  2.1560 -0.6448 -0.2983
22144SOL     OW70023   8.807   4.474   8.952 -0.3535 -0.5211  0.2205
22144SOL    HW170024   8.742   4.440   8.890  0.2390 -0.2618 -0.5556
22144SOL    HW270025   8.891   4.464   8.907 -0.0582  1.0406  0.3658
22145SOL     OW70026   9.104   7.672   7.466  0.4358  0.1973  0.6155
22145SOL    HW170027   9.151   7.641   7.388  1.4936  2.5117  0.2503
22145SOL    HW270028   9.014   7.639   7.454  1.1485 -1.5632 -0.3128
22146SOL     OW70029   3.779   0.874   1.710 -0.2804 -0.0057 -0.3369
22146SOL    HW170030   3.821   0.948   1.752  0.2688 -0.4812 -0.0444
22146SOL    HW270031   3.736   0.826   1.781  0.3220 -0.5927 -0.3554
22147SOL     OW70032   0.816   1.195   5.454  0.4404 -0.0385  0.2912
22147SOL    HW170033   0.819   1.126   5.520 -1.0830  1.0277  1.5382
22147SOL    HW270034   0.847   1.273   5.499 -2.4323  1.1418  0.4055
22148SOL     OW70035   0.836   6.059   1.561  0.1199 -0.2866 -0.0580
22148SOL    HW170036   0.768   5.996   1.583 -0.9841 -0.3918 -3.2335
22148SOL    HW270037   0.830   6.126   1.629 -0.9068 -1.9015  1.5391
22149SOL     OW70038  10.563   1.800  10.908  0.1933  0.2361 -0.1042
22149SOL    HW170039  10.558   1.862  10.980 -0.1947  0.2479 -0.1382
22149SOL    HW270040  10.472   1.785  10.882  0.2518 -0.5791  0.1050
22150SOL     OW70041   9.191   1.532   5.954  0.1912 -0.0024  0.4256
22150SOL    HW170042   9.222   1.595   5.888  2.4110 -2.7180 -1.3667
22150SOL    HW270043   9.122   1.483   5.909 -0.5603  0.2214  1.3128
22151SOL     OW70044   6.404   5.721   5.198 -0.0139 -0.7194 -0.0256
22151SOL    HW170045   6.400   5.809   5.233 -1.3635 -0.9034  0.3431
22151SOL    HW270046   6.314   5.689   5.201  0.2078 -1.6139 -1.4317
22152SOL     OW70047   5.155   3.371   3.688 -0.1749  0.3526 -0.7278
22152SOL    HW170048   5.065   3.355   3.660 -0.6064  1.7984 -0.2686
22152SOL    HW270049   5.159   3.466   3.703  0.1997 -0.1351  3.3198
22153SOL     OW70050   8.822   6.408   8.206  0.8024  0.4125  0.4103
22153SOL    HW170051   8.737   6.442   8.233  0.0737 -0.7631 -0.3684
22153SOL    HW270052   8.809   6.314   8.196  1.3785  0.5546 -2.6125
22154SOL     OW70053   1.628   9.624   5.202 -0.8973  0.0406 -0.0732
22154SOL    HW170054   1.685   9.597   5.130 -1.5907 -0.1301 -0.5696
22154SOL    HW270055   1.666   9.707   5.232 -0.8649  0.3601 -0.9536
22155SOL     OW70056   0.328   5.517   9.783 -0.2045 -0.1087 -0.0607
22155SOL    HW170057   0.370   5.431   9.781  1.9422  0.8803  0.6111
22155SOL    HW270058   0.394   5.577   9.749 -1.2474  1.4562  0.5820
22156SOL     OW70059   8.541   6.379  10.673 -0.0903 -0.4898 -0.1041
22156SOL    HW170060   8.542   6.389  10.578 -1.9762  0.3910 -0.0713
22156SOL    HW270061   8.488   6.453  10.704  1.6706  0.0691  1.7668
22157SOL     OW70062  10.098   6.914   3.409  0.2990  0.0019  0.0575
22157SOL    HW170063  10.180   6.875   3.379  0.0777 -0.6212  0.2371
22157SOL    HW270064  10.032   6.879   3.350 -0.0904 -0.9513  1.0134
22158SOL     OW70065   9.447   6.023   2.726 -0.0639  0.0975 -0.2483
22158SOL    HW170066   9.432   5.930   2.743 -0.1988  0.2310  0.3779
22158SOL    HW270067   9.537   6.039   2.754  1.4398 -0.7027 -3.9962
22159SOL     OW70068  10.132   9.924   7.363 -0.0927 -0.2435  0.1308
22159SOL    HW170069  10.052   9.964   7.329 -0.6753 -1.2231  0.2897
22159SOL    HW270070  10.113   9.909   7.456  1.0389  1.3254  0.6508
22160SOL     OW70071   0.723  10.884  10.265 -0.1825  0.5058  0.1410
22160SOL    HW170072   0.794  10.827  10.297 -1.1027 -1.5366 -1.2200
22160SOL    HW270073   0.716  10.863  10.172 -1.8414  1.4948  0.0117
22161SOL     OW70074   3.778   8.536   6.030 -0.4915  0.0523 -0.4713
22161SOL    HW170075   3.700   8.482   6.041  0.0697 -0.3440  2.0067
22161SOL    HW270076   3.851   8.481   6.059  0.3867  1.2976 -0.1962
22162SOL     OW70077  10.044   7.928   4.805  0.1054 -0.2663 -0.1157
22162SOL    HW170078  10.084   7.844   4.830  1.1890  0.1836 -0.2707
22162SOL    HW270079   9.996   7.909   4.725  0.6132 -0.6775 -0.3299
22163SOL     OW70080   2.680   7.950   8.691 -0.5434 -0.5020  0.1949
22163SOL    HW170081   2.620   7.941   8.765 -0.3039 -0.8148  0.3541
22163SOL    HW270082   2.746   8.012   8.721  0.1954 -1.4899  0.6759
22164SOL     OW70083   9.938   2.150   1.407 -0.0091 -0.3679 -0.2158
22164SOL    HW170084   9.960   2.217   1.471  0.2278 -0.8824  0.2436
22164SOL    HW270085   9.912   2.200   1.329 -0.6558  0.2650  0.3870
22165SOL     OW70086   5.991   3.304  10.023  1.1920 -0.3171 -0.1682
22165SOL    HW170087   5.901   3.327  10.003  0.6672  0.6465  2.7666
22165SOL    HW270088   6.043   3.349   9.956 -0.4738 -1.0048 -1.9833
22166SOL     OW70089   1.268  10.405   5.733 -0.0693  0.3333 -0.1839
22166SOL    HW170090   1.337  10.470   5.738  0.2327 -0.0200  0.2908
22166SOL    HW270091   1.189  10.452   5.761 -0.3377  1.1479 -2.1238
22167SOL     OW70092   8.036   4.259   2.619 -0.0808  0.4849  0.2382
22167SOL    HW170093   8.098   4.274   2.548 -1.2998 -0.4008 -1.0659
22167SOL    HW270094   7.956   4.304   2.592 -1.3592 -1.8698 -0.1935
22168SOL     OW70095   9.477   9.361   5.740 -0.2335  0.6981 -0.5854
22168SOL    HW170096   9.562   9.383   5.779  0.5546 -2.0992 -0.5124
22168SOL    HW270097   9.422   9.437   5.758  1.3481  1.3313  2.1549
22169SOL     OW70098   4.131   6.129   3.044  0.1313 -0.0958  0.2144
22169SOL    HW170099   4.134   6.213   2.999  0.7891 -0.3495 -0.2203
22169SOL    HW270100   4.173   6.145   3.129 -0.4704  0.2056  0.4607
22170SOL     OW70101   2.442   7.969  10.173 -0.0972 -0.2218 -0.0328
22170SOL    HW170102   2.498   7.949  10.098  0.7469  1.2840  0.1425
22170SOL    HW270103   2.496   7.949  10.249  1.2827  3.4200  0.1874
22171SOL     OW70104   1.938   8.331   0.919  0.0122  0.4808 -0.3443
22171SOL    HW170105   1.934   8.274   0.842  0.5618 -0.8174  0.5412
22171SOL    HW270106   2.007   8.293   0.973  0.2747  1.9062  0.3767
22172SOL     OW70107   1.323   2.988  10.468  0.9641  1.0700 -0.2711
22172SOL    HW170108   1.265   2.943  10.407  0.4111  0.4661  0.6628
22172SOL    HW270109   1.404   3.002  10.419  0.3672  1.0667 -1.2953
22173SOL     OW70110   5.057   0.230   5.355  0.5164  0.0691  0.1344
22173SOL    HW170111   5.069   0.249   5.262 -0.7920 -1.2014 -0.3324
22173SOL    HW270112   5.033   0.315   5.393  1.6301  0.7230 -0.5570
22174SOL     OW70113   5.881   2.135   5.736  0.1508  0.1618 -0.2146
22174SOL    HW170114   5.941   2.199   5.698  2.3337 -0.4286  1.9717
22174SOL    HW270115   5.860   2.170   5.823 -1.9494 -0.1686 -0.5179
22175SOL     OW70116   2.262   1.064   5.214 -0.5239  0.1661 -0.0971
22175SOL    HW170117   2.176   1.084   5.177 -0.4559  2.1606  0.7002
22175SOL    HW270118   2.321   1.129   5.175  0.7327 -1.3730 -0.8896
22176SOL     OW70119   6.106   2.126  10.313 -0.2330  0.3615 -0.1015
22176SOL    HW170120   6.157   2.069  10.371  0.2926 -0.0115 -0.9259
22176SOL    HW270121   6.082   2.070  10.240  0.0008  1.1064 -0.7543
22177SOL     OW70122   2.563   1.583   1.440  0.1260 -0.0366 -0.2577
22177SOL    HW170123   2.602   1.496   1.435  0.1087  0.0149 -3.0928
22177SOL    HW270124   2.518   1.584   1.524 -1.9662 -3.7445 -1.0929
22178SOL     OW70125   8.254   6.860   3.742 -0.0149  0.1143  0.0198
22178SOL    HW170126   8.243   6.864   3.837  0.9383 -0.2574  0.1524
22178SOL    HW270127   8.349   6.857   3.729 -0.0878  1.3885 -1.0008
22179SOL     OW70128   0.016   4.341   7.532  0.1024 -0.1540  0.0112
22179SOL    HW170129   0.049   4.295   7.455  2.1971  1.9117 -0.4776
22179SOL    HW270130  -0.076   4.359   7.513  0.5608  0.2797 -2.0453
22180SOL     OW70131   3.425   9.967   8.825  0.2980 -0.2544 -0.0211
22180SOL    HW170132   3.516   9.990   8.845  0.5145 -0.2797 -0.9040
22180SOL    HW270133   3.423   9.872   8.829 -0.0019 -0.2093  1.2205
22181SOL     OW70134   8.076   2.553   1.201 -0.3170  0.4012 -0.3630
22181SOL    HW170135   8.170   2.542   1.216 -0.2854  0.1328 -0.7571
22181SOL    HW270136   8.039   2.467   1.218 -0.4096  0.3478 -0.8151
22182SOL     OW70137   5.744   7.209   3.896  0.1152 -0.4023  0.4806
22182SOL    HW170138   5.685   7.150   3.849 -0.4041  0.0426  0.5525
22182SOL    HW270139   5.813   7.229   3.834 -0.1512 -0.4326  0.1710
22183SOL     OW70140   3.613   2.547  10.026 -0.3150 -0.1050 -0.1643
22183SOL    HW170141   3.700   2.508  10.013  0.5743  0.6430  2.7756
22183SOL    HW270142   3.553   2.473  10.028  0.5308 -0.8137 -0.2942
22184SOL     OW70143   0.573   8.844   1.403 -0.1590  0.4101 -0.3398
22184SOL    HW170144   0.641   8.786   1.369 -0.4923 -1.2983  1.7624
22184SOL    HW270145   0.491   8.805   1.374 -0.4210 -0.7180  1.7526
22185SOL     OW70146   0.571   7.273   9.460  0.2686  0.1980 -0.0237
22185SOL    HW170147   0.568   7.265   9.555  0.8628  0.6133  0.0347
22185SOL    HW270148   0.514   7.347   9.440 -1.9289 -1.4391 -0.2265
22186SOL     OW70149   7.532   2.953   2.439 -0.6203  0.7369  0.5931
22186SOL    HW170150   7.473   2.937   2.513  0.1150 -0.4890  0.9524
22186SOL    HW270151   7.616   2.974   2.480 -0.3074  0.4266  0.1182
22187SOL     OW70152   4.295   2.367   0.015 -0.4293  0.0029  0.6371
22187SOL    HW170153   4.257   2.425   0.081 -0.2234  0.7009  0.1565
22187SOL    HW270154   4.328   2.292   0.065 -0.1715  0.5713  1.3399
22188SOL     OW70155   8.558   0.511   7.393  0.0077 -0.0473  0.2121
22188SOL    HW170156   8.508   0.463   7.459  1.0812  0.8170  1.7212
22188SOL    HW270157   8.644   0.526   7.433  0.6252  0.7420 -1.2829
22189SOL     OW70158   8.906   9.067   4.267 -0.6313 -0.2486  0.0006
22189SOL    HW170159   8.895   9.147   4.318 -1.6610  0.1774 -0.8648
22189SOL    HW270160   8.883   8.996   4.328 -0.1336  0.1190  0.6350
22190SOL     OW70161   9.750   4.752   9.534  0.4643  0.0501  0.0200
22190SOL    HW170162   9.738   4.785   9.623  0.5908 -2.1139  0.9027
22190SOL    HW270163   9.840   4.720   9.533 -0.1283 -1.7250 -0.2092
22191SOL     OW70164   0.297   8.455   7.601 -0.3705 -0.3448  0.1260
22191SOL    HW170165   0.269   8.387   7.662 -1.2369  0.4084  0.5997
22191SOL    HW270166   0.216   8.484   7.558 -0.3516  1.6897  1.3089
22192SOL     OW70167   7.457   0.701   5.408 -0.0444  0.4657 -0.6075
22192SOL    HW170168   7.515   0.633   5.374 -1.3865 -0.4126 -1.2186
22192SOL    HW270169   7.504   0.736   5.485  1.1637 -0.3664 -0.9288
22193SOL     OW70170   9.325   9.146   5.541  0.0751 -0.1132  0.5521
22193SOL    HW170171   9.230   9.131   5.534  0.5530 -4.0443  0.1467
22193SOL    HW270172   9.342   9.141   5.635  0.0551 -1.3403  0.5089
22194SOL     OW70173   6.272   9.945  10.524 -0.0399 -0.3579 -0.2290
22194SOL    HW170174   6.320  10.004  10.465 -0.5516 -2.4228 -2.9400
22194SOL    HW270175   6.207  10.001  10.566  1.6448  1.6051 -0.0418
22195SOL     OW70176   4.084   0.753   0.279 -0.2408  0.4734 -0.1511
22195SOL    HW170177   4.162   0.750   0.224 -0.6778  0.1014 -0.7680
22195SOL    HW270178   4.094   0.833   0.331  0.3829  0.6080 -0.4697
22196SOL     OW70179   5.287   8.215   8.150 -0.1639 -0.0660  0.5849
22196SOL    HW170180   5.365   8.186   8.198 -0.2875 -0.5476  0.4943
22196SOL    HW270181   5.241   8.135   8.127 -0.3376  0.1801  0.0437
22197SOL     OW70182   3.642   5.739   6.886 -0.2832 -0.2837  0.5224
22197SOL    HW170183   3.696   5.811   6.918 -0.2892 -0.6702  1.4207
22197SOL    HW270184   3.636   5.753   6.792  0.3495  0.4603  0.5914
22198SOL     OW70185   9.761   6.207   3.579 -0.2407  0.4037  0.5490
22198SOL    HW170186   9.707   6.198   3.501  1.5543  1.7261 -0.9399
22198SOL    HW270187   9.734   6.290   3.618  0.5794  1.0040 -0.1266
22199SOL     OW70188   4.471   0.149   8.882  0.0440 -0.2239 -0.3589
22199SOL    HW170189   4.521   0.115   8.956  1.8425  1.1898 -0.8475
22199SOL    HW270190   4.522   0.124   8.805 -0.9035 -0.2043 -1.0131
22200SOL     OW70191   6.385   0.742   4.371  0.2806  0.1654  0.3570
22200SOL    HW170192   6.387   0.650   4.395 -0.1109 -0.0672 -0.4584
22200SOL    HW270193   6.477   0.767   4.360  0.3709 -0.2044  0.2788
22201SOL     OW70194   6.530   7.825   9.449  0.3004 -0.1776  0.4161
22201SOL    HW170195   6.508   7.905   9.497 -1.7883 -0.7375  0.4798
22201SOL    HW270196   6.474   7.828   9.371 -0.5094 -2.0060  0.8899
22202SOL     OW70197   2.470   4.924   7.888  0.5105 -0.0219 -0.4198
22202SOL    HW170198   2.438   4.854   7.832 -0.6900 -0.6326  1.0011
22202SOL    HW270199   2.497   4.881   7.969  2.6993  0.7824 -0.6382
22203SOL     OW70200   2.918   6.800   4.856  0.3600 -1.1253  0.0641
22203SOL    HW170201   2.977   6.809   4.931 -0.6307 -0.7694  0.8205
22203SOL    HW270202   2.893   6.708   4.856  1.6339 -1.5018 -0.8411
22204SOL     OW70203   3.576   8.883   9.075 -0.1148  0.3072  0.1266
22204SOL    HW170204   3.611   8.831   9.003  0.7373  0.1856  0.6094
22204SOL    HW270205   3.505   8.934   9.036  0.9332  0.9501 -1.0265
22205SOL     OW70206   8.887   9.102   2.712  1.0082  0.0572  0.2372
22205SOL    HW170207   8.900   9.182   2.763  1.4257 -0.4535  0.9564
22205SOL    HW270208   8.975   9.065   2.702  0.7070 -0.8885  0.9020
22206SOL     OW70209   4.400  10.025   6.147 -0.0137 -0.1983 -0.5830
22206SOL    HW170210   4.412  10.068   6.062 -1.2782  0.8423 -0.2654
22206SOL    HW270211   4.335  10.079   6.192 -0.3392 -1.4794  0.5395
22207SOL     OW70212   8.900   8.774   1.683 -0.6966 -0.2447 -0.4176
22207SOL    HW170213   8.979   8.747   1.729 -1.4832  0.6601  1.5856
22207SOL    HW270214   8.904   8.728   1.599  1.3331 -1.1484  0.1124
22208SOL     OW70215   0.422   5.632   9.125 -0.2112  0.0051 -0.4927
22208SOL    HW170216   0.473   5.712   9.128  0.5821 -0.5015  2.3412
22208SOL    HW270217   0.488   5.562   9.115 -0.2089 -0.6096  2.6414
22209SOL     OW70218   5.708   0.088   5.463  0.3422 -0.0356 -0.2272
22209SOL    HW170219   5.769   0.137   5.518  0.1563  0.8958 -0.8312
22209SOL    HW270220   5.696   0.004   5.509  0.5856  0.5106  0.8686
22210SOL     OW70221   2.108   8.024   0.033  0.4822  0.0730 -0.2136
22210SOL    HW170222   2.059   8.065   0.105 -1.0801  1.0076 -1.7153
22210SOL    HW270223   2.167   8.093   0.002  0.5977 -0.0725 -0.3172
22211SOL     OW70224   6.281   9.701   0.673  0.0878  0.6574  0.0274
22211SOL    HW170225   6.300   9.610   0.650 -0.5325 -0.5520  3.6186
22211SOL    HW270226   6.220   9.731   0.605 -0.9733 -2.1696 -0.3789
22212SOL     OW70227   7.855   2.824   7.582  0.4729  0.1631 -0.0996
22212SOL    HW170228   7.875   2.880   7.657 -2.1396  1.0673  0.0282
22212SOL    HW270229   7.892   2.870   7.507 -0.6915  1.5614  0.1378
22213SOL     OW70230   8.488   8.442   6.787 -0.5877 -0.4485 -0.6006
22213SOL    HW170231   8.397   8.465   6.805 -0.1821 -0.1926  1.3272
22213SOL    HW270232   8.538   8.487   6.855  0.7597 -2.3816 -0.2341
22214SOL     OW70233   9.640   9.008   1.925 -0.1142 -0.1321 -0.3173
22214SOL    HW170234   9.546   8.999   1.909 -0.2998  0.6061  0.2833
22214SOL    HW270235   9.652   8.975   2.014  0.1296  0.1516 -0.2451
22215SOL     OW70236   6.683   4.315  10.918 -0.3863  0.8069  0.2633
22215SOL    HW170237   6.617   4.285  10.855 -0.2859  0.5316  0.2863
22215SOL    HW270238   6.760   4.260  10.900 -0.0647  1.3136  0.0438
22216SOL     OW70239   9.074   4.209   9.687  0.3998  0.4586 -0.0550
22216SOL    HW170240   9.148   4.207   9.749  1.1201  1.6017 -0.8482
22216SOL    HW270241   9.063   4.302   9.666 -0.3265  0.1559 -1.0714
22217SOL     OW70242  10.006   0.181   0.780  0.4432  0.1700  0.6128
22217SOL    HW170243  10.069   0.110   0.765 -1.4708 -1.5036 -0.0373
22217SOL    HW270244  10.039   0.225   0.858  2.2139 -0.8413  0.5172
22218SOL     OW70245   2.754   3.255   0.201  0.0292  0.3339  0.2048
22218SOL    HW170246   2.730   3.177   0.150  0.9390  0.2563 -0.1275
22218SOL    HW270247   2.684   3.317   0.183 -1.2815 -0.7501  1.3155
22219SOL     OW70248  10.361   7.564   6.991  0.1167  0.2790 -0.1417
22219SOL    HW170249  10.432   7.595   6.934 -0.7666 -1.2218 -2.2058
22219SOL    HW270250  10.404   7.502   7.050  0.9016  1.1446  0.2130
22220SOL     OW70251   7.218  11.110   2.068  0.4588  0.5771 -0.1211
22220SOL    HW170252   7.221  11.021   2.102 -0.8197  0.6078  0.1312
22220SOL    HW270253   7.140  11.112   2.012  1.1687  1.2014 -1.1217
22221SOL     OW70254   4.023   1.261   6.351 -0.2197  0.2296 -0.5816
22221SOL    HW170255   4.044   1.245   6.443 -2.0266  0.4652 -0.1047
22221SOL    HW270256   3.980   1.181   6.321  1.8176 -0.5239 -1.7537
22222SOL     OW70257   4.627   9.362   4.230  0.0725 -0.0910 -0.5089
22222SOL    HW170258   4.664   9.319   4.152 -1.1554 -1.2508 -0.4859
22222SOL    HW270259   4.535   9.377   4.208  0.0092  0.7108  0.2607
22223SOL     OW70260   6.954   8.930   3.745  0.3222  0.0725  0.1353
22223SOL    HW170261   6.958   9.025   3.740 -0.4589  0.1390  0.6614
22223SOL    HW270262   7.045   8.902   3.751  0.7069  0.6618 -2.0352
22224SOL     OW70263   3.414   9.886  10.789 -0.6457 -0.6188 -0.4575
22224SOL    HW170264   3.337   9.921  10.744 -0.9575 -0.0166  0.5299
22224SOL    HW270265   3.484   9.892  10.723 -1.2841 -0.5553 -1.1438
22225SOL     OW70266   1.400   7.561   7.556  0.0385  0.7479  0.2526
22225SOL    HW170267   1.427   7.535   7.468 -1.1375 -1.2761  0.4292
22225SOL    HW270268   1.331   7.625   7.543 -1.9833 -1.4360 -0.4496
22226SOL     OW70269   1.701   7.688   2.127 -0.3670 -0.3097 -0.3259
22226SOL    HW170270   1.760   7.761   2.105 -2.3135  0.9029 -1.9429
22226SOL    HW270271   1.665   7.661   2.042  0.3415 -3.2977  0.2083
22227SOL     OW70272   4.236   6.010   0.331  0.3167  0.4866 -0.0808
22227SOL    HW170273   4.272   5.957   0.402  1.4377 -1.5427 -2.0785
22227SOL    HW270274   4.260   6.100   0.354  4.0047 -0.4499  0.2928
22228SOL     OW70275   1.173   1.741  10.261  0.5314 -0.5246  0.3928
22228SOL    HW170276   1.129   1.800  10.199  0.9162 -0.6313  0.0152
22228SOL    HW270277   1.265   1.748  10.239  0.9415  0.9913  2.2675
22229SOL     OW70278  10.761   5.010   6.915  0.1714  0.7651 -0.5035
22229SOL    HW170279  10.841   4.980   6.871 -0.3171 -1.2006 -0.1508
22229SOL    HW270280  10.776   5.103   6.931  3.2512  0.0877  1.3565
22230SOL     OW70281   5.763   0.536   7.310 -0.2187 -0.6956  0.4881
22230SOL    HW170282   5.743   0.528   7.217 -2.9188 -2.3286  1.0761
22230SOL    HW270283   5.759   0.446   7.343  1.0540 -0.1912  2.1196
22231SOL     OW70284  10.891   4.689   0.461 -0.1308  0.7919  0.3292
22231SOL    HW170285  10.906   4.604   0.420  0.3190  0.7510  0.5580
22231SOL    HW270286  10.919   4.753   0.395 -0.4834  0.7611  0.1517
22232SOL     OW70287   2.944   4.387   0.680  0.2746  0.4691 -0.8693
22232SOL    HW170288   2.925   4.294   0.671  2.0825 -0.0961  0.5672
22232SOL    HW270289   2.870   4.421   0.731 -0.2949 -0.2137 -1.2236
22233SOL     OW70290   4.177  10.008   0.522 -0.0907 -0.0843 -0.0222
22233SOL    HW170291   4.141  10.096   0.522  2.9064  1.3073 -2.1609
22233SOL    HW270292   4.136   9.965   0.447  0.1561  0.2787 -0.3632
22234SOL     OW70293   9.790   2.386   2.777 -0.2728  0.4642  0.1219
22234SOL    HW170294   9.878   2.423   2.780  0.5990 -1.3258 -1.1252
22234SOL    HW270295   9.732   2.460   2.790  1.3650  2.1436 -1.4596
22235SOL     OW70296   5.991   3.653   9.586  0.2150  0.1142  0.3191
22235SOL    HW170297   6.049   3.715   9.542  0.1888  0.5707  0.9233
22235SOL    HW270298   5.913   3.703   9.607 -1.9556 -1.2369 -3.4673
22236SOL     OW70299   7.157   8.222   1.116  0.2332 -0.2793  0.0822
22236SOL    HW170300   7.226   8.260   1.169 -0.0360  1.0237 -0.4625
22236SOL    HW270301   7.115   8.157   1.173 -2.4524  3.5132  2.9768
22237SOL     OW70302   6.468   6.356   0.301 -0.3925 -0.5057  0.4846
22237SOL    HW170303   6.516   6.384   0.223  0.0759 -1.6104  0.3505
22237SOL    HW270304   6.425   6.274   0.274  1.0467 -1.7662  1.7995
22238SOL     OW70305   1.465   7.306   2.409  0.2963 -0.0546 -0.2683
22238SOL    HW170306   1.509   7.391   2.402 -0.8373  0.5797  0.0924
22238SOL    HW270307   1.440   7.299   2.501  1.2758 -1.2581 -0.0718
22239SOL     OW70308   0.731   9.035   2.642 -0.3610  0.1651  0.2135
22239SOL    HW170309   0.773   9.088   2.711 -1.3247 -1.3708  2.0844
22239SOL    HW270310   0.760   8.946   2.661 -0.6682 -0.3016 -1.4087
22240SOL     OW70311   0.287   8.911   4.221  0.0206  0.2345 -0.6090
22240SOL    HW170312   0.378   8.929   4.247 -0.5158  1.3831  0.6161
22240SOL    HW270313   0.253   8.854   4.290 -1.1350  2.5182  0.8247
22241SOL     OW70314   3.678   0.885   8.616 -0.4120 -0.1324 -0.3784
22241SOL    HW170315   3.765   0.925   8.623 -0.6608  0.3292  0.1646
22241SOL    HW270316   3.695   0.797   8.582  0.1523  0.3981 -1.5361
22242SOL     OW70317  10.286   9.868   2.698 -0.6228  0.6148 -0.2094
22242SOL    HW170318  10.226   9.918   2.643 -1.7858  0.0788  0.5317
22242SOL    HW270319  10.364   9.857   2.644 -1.9468 -0.4296 -2.0328
22243SOL     OW70320   1.511   7.736   4.859 -0.0708 -0.3718 -0.3803
22243SOL    HW170321   1.599   7.699   4.853  0.0437 -0.1882  0.1495
22243SOL    HW270322   1.484   7.748   4.768 -1.3281 -4.5573 -0.7716
22244SOL     OW70323   4.740   8.798   5.603  0.4325 -0.0049 -0.5473
22244SOL    HW170324   4.831   8.782   5.626  0.2961 -0.3762 -0.2628
22244SOL    HW270325   4.723   8.738   5.530 -0.1718 -1.4411  0.7273
22245SOL     OW70326   2.282   6.196   6.679 -0.8786 -0.1483 -0.1681
22245SOL    HW170327   2.324   6.110   6.677 -1.5628 -0.5486  1.2855
22245SOL    HW270328   2.302   6.235   6.594  1.1892 -0.9014 -0.0710
22246SOL     OW70329   5.392   0.883   2.091  0.3253  0.0348  0.4985
22246SOL    HW170330   5.453   0.885   2.165  2.0615  1.3544 -0.8656
22246SOL    HW270331   5.429   0.944   2.028 -1.5705 -0.3682 -1.1194
22247SOL     OW70332   1.327   4.758   8.187 -0.4025  0.0735  0.4057
22247SOL    HW170333   1.293   4.831   8.134 -2.4573 -0.4161  0.9581
22247SOL    HW270334   1.250   4.723   8.232  1.0422 -0.3484  2.7363
22248SOL     OW70335   9.812  11.016   3.316 -0.0225  0.4154 -0.4373
22248SOL    HW170336   9.813  10.982   3.405 -0.4758 -0.4170 -0.7461
22248SOL    HW270337   9.719  11.027   3.295  0.0940  2.3279 -0.1767
22249SOL     OW70338   1.652   2.337  10.803 -0.3488 -0.1863 -0.3529
22249SOL    HW170339   1.717   2.403  10.831  0.9573 -1.1728 -0.9485
22249SOL    HW270340   1.613   2.306  10.885 -0.4376  0.7825 -0.0135
22250SOL     OW70341   5.034   8.223   2.892 -0.1617  0.3478  0.3815
22250SOL    HW170342   4.965   8.289   2.906 -1.5355 -0.9902  0.2492
22250SOL    HW270343   4.997   8.164   2.827  0.1469 -1.7068  1.9773
22251SOL     OW70344   7.791   9.858   9.514  0.3609  0.4851 -0.2690
22251SOL    HW170345   7.723   9.795   9.489 -0.3968  1.6182 -1.1325
22251SOL    HW270346   7.832   9.883   9.432  0.8336  0.9218  0.0944
22252SOL     OW70347   9.961   0.806   8.262  0.5249 -0.3089  0.0454
22252SOL    HW170348   9.899   0.796   8.190 -0.1282 -0.7351  0.6516
22252SOL    HW270349  10.047   0.808   8.220  0.1353 -0.1770 -0.7712
22253SOL     OW70350   9.500   1.272   6.682 -0.1662 -0.1954 -0.3885
22253SOL    HW170351   9.496   1.313   6.596 -1.4049  2.2218  0.7101
22253SOL    HW270352   9.485   1.179   6.666 -0.2631  0.1749 -2.7644
22254SOL     OW70353   6.112   0.812   1.606 -0.0737  0.5113  0.1359
22254SOL    HW170354   6.089   0.745   1.670 -1.0568 -1.1634 -1.8327
22254SOL    HW270355   6.033   0.865   1.597 -0.0896  0.4659  0.0034
22255SOL     OW70356   4.165   7.092   8.699 -0.3301  0.4784 -0.2687
22255SOL    HW170357   4.209   7.085   8.615 -0.9033 -0.1006 -0.5224
22255SOL    HW270358   4.200   7.173   8.737  0.3627  0.4403 -0.8008
22256SOL     OW70359   9.150   8.129   0.241 -0.2248 -0.2837 -0.5760
22256SOL    HW170360   9.082   8.064   0.255 -0.1074 -0.1692  0.6513
22256SOL    HW270361   9.222   8.100   0.297  0.1759  0.3938 -0.7348
22257SOL     OW70362   9.957   9.055   8.532  0.8090  0.1443 -0.6042
22257SOL    HW170363   9.866   9.052   8.504  0.0732  0.7884  1.4807
22257SOL    HW270364   9.963   8.989   8.601  2.5616 -1.5227 -2.2358
22258SOL     OW70365   5.555   9.858   5.964  0.5906 -0.5308 -0.1274
22258SOL    HW170366   5.465   9.885   5.943  0.3070 -0.2702  1.2630
22258SOL    HW270367   5.546   9.769   5.997  0.8527 -0.5312 -0.0562
22259SOL     OW70368   1.972   0.512   7.847  0.2910 -0.1058  0.3586
22259SOL    HW170369   2.001   0.509   7.939  1.1323  2.1230  0.2320
22259SOL    HW270370   1.886   0.554   7.851  0.0623 -0.5583  0.1725
22260SOL     OW70371   2.056  10.715   1.058 -0.2727  0.4723 -0.0310
22260SOL    HW170372   2.117  10.645   1.035 -1.2149  0.3230 -2.3994
22260SOL    HW270373   1.986  10.708   0.992 -0.7881  3.1550  0.1155
22261SOL     OW70374   7.510   2.594   4.379 -0.2444 -0.3229  0.2065
22261SOL    HW170375   7.533   2.685   4.400 -1.1334  0.2869 -1.3581
22261SOL    HW270376   7.594   2.548   4.374  0.1776  0.2399  1.6542
22262SOL     OW70377  10.213   4.411   3.300 -0.2779 -0.0782 -0.3457
22262SOL    HW170378  10.299   4.438   3.333  0.0389 -1.7033  0.2186
22262SOL    HW270379  10.152   4.477   3.335  0.3245 -0.6155  1.8449
22263SOL     OW70380   3.395   5.710   5.045  0.1000 -0.0812 -0.0543
22263SOL    HW170381   3.464   5.728   5.108  0.9614  2.9029 -1.6728
22263SOL    HW270382   3.434   5.648   4.983  0.4467 -0.3089  0.3849
22264SOL     OW70383   9.366   7.272   4.754  0.0578  0.3290  0.5152
22264SOL    HW170384   9.285   7.255   4.802 -0.0369 -1.2061 -0.1320
22264SOL    HW270385   9.433   7.280   4.821 -0.2549 -0.6944  0.9638
22265SOL     OW70386   9.404   7.341   1.314  0.6946 -0.6858  0.1183
22265SOL    HW170387   9.435   7.268   1.260  1.6602  0.1009 -0.4187
22265SOL    HW270388   9.376   7.407   1.250 -1.2302 -0.9777  0.5846
22266SOL     OW70389   1.852   5.511   0.069  0.5203  0.2574 -0.1071
22266SOL    HW170390   1.781   5.447   0.070 -0.4278  1.2648  0.7246
22266SOL    HW270391   1.886   5.509  -0.020 -0.5138 -0.3070 -0.5023
22267SOL     OW70392   3.455   7.444   9.778 -0.0237 -0.4728 -0.1545
22267SOL    HW170393   3.403   7.524   9.770 -0.6406 -0.8742 -0.2460
22267SOL    HW270394   3.542   7.474   9.807 -0.0137  0.2951 -0.9621
22268SOL     OW70395   7.048   8.455   6.360  0.6484 -0.7684 -0.2040
22268SOL    HW170396   7.081   8.456   6.270 -0.2262 -0.7071 -0.5360
22268SOL    HW270397   6.960   8.492   6.353  0.9287  0.1151  0.8283
22269SOL     OW70398   9.511   3.116   7.511  0.1681  0.6250  0.4419
22269SOL    HW170399   9.548   3.037   7.473  2.3286  1.0797  1.4650
22269SOL    HW270400   9.437   3.085   7.563  0.4631 -0.6008  0.1693
22270SOL     OW70401   8.806   1.818   5.769  0.3730 -0.1754  0.0010
22270SOL    HW170402   8.864   1.825   5.844 -0.2066 -1.2758  0.5777
22270SOL    HW270403   8.830   1.891   5.712  0.9049  0.5901  1.1892
22271SOL     OW70404   1.970   7.404   6.056  0.2228  1.0167  0.2321
22271SOL    HW170405   1.885   7.401   6.013  0.2122  0.3989  0.2874
22271SOL    HW270406   2.003   7.492   6.039  0.1553  0.8261 -0.9239
22272SOL     OW70407   8.302   1.751   1.162  0.5741 -0.3349 -0.0491
22272SOL    HW170408   8.248   1.825   1.188  0.1147 -0.6716 -0.0414
22272SOL    HW270409   8.360   1.736   1.237  2.0490  1.2644 -0.8032
22273SOL     OW70410   1.705   3.566   5.582 -0.0701 -0.0069  0.0558
22273SOL    HW170411   1.764   3.629   5.541 -1.4404  0.2831 -1.5935
22273SOL    HW270412   1.648   3.620   5.637  2.0963 -0.4436  2.9715
22274SOL     OW70413   7.075   8.736   4.353  0.5930 -0.2186 -0.3748
22274SOL    HW170414   7.146   8.795   4.379  0.6031  1.5002 -3.8211
22274SOL    HW270415   7.114   8.649   4.355  2.2170  0.4809 -0.3928
22275SOL     OW70416   2.463   7.223  10.107 -0.3536  0.7158 -0.2835
22275SOL    HW170417   2.488   7.236  10.198 -1.5682 -2.6376  0.6708
22275SOL    HW270418   2.538   7.255  10.056  0.2678  2.8353  1.8147
22276SOL     OW70419   6.765   8.055  10.812  0.6526  0.4748  0.6714
22276SOL    HW170420   6.773   8.150  10.805  0.5460  0.4321 -0.1117
22276SOL    HW270421   6.782   8.036  10.905 -0.6051  1.3768  1.1056
22277SOL     OW70422   7.260  10.705   5.249  0.5499  0.2820  0.2294
22277SOL    HW170423   7.264  10.741   5.337  2.9490  1.4749 -0.2695
22277SOL    HW270424   7.331  10.641   5.246 -0.2373 -0.5870 -0.5238
22278SOL     OW70425   7.724   3.697   4.918 -0.4042  0.0589  1.0379
22278SOL    HW170426   7.793   3.676   4.981  0.4399  3.0143  1.2423
22278SOL    HW270427   7.653   3.636   4.939  1.9527 -2.9320  0.9862
22279SOL     OW70428   4.305   3.915   3.191 -0.4955 -1.3450  0.0273
22279SOL    HW170429   4.346   3.880   3.112  1.0350 -0.7235  0.5037
22279SOL    HW270430   4.242   3.980   3.159  2.5297  1.4832 -0.7161
22280SOL     OW70431   3.712   8.213   5.225  0.1000 -0.6564  0.4241
22280SOL    HW170432   3.649   8.278   5.195  0.2275 -0.3981  0.7110
22280SOL    HW270433   3.678   8.130   5.193 -0.0226 -0.4409 -0.0067
22281SOL     OW70434   5.723  11.013   0.824  0.2259 -0.2843 -0.4039
22281SOL    HW170435   5.720  11.093   0.772 -0.0262  1.3228  1.9780
22281SOL    HW270436   5.633  10.980   0.822  0.4484 -0.9173 -1.8809
22282SOL     OW70437   9.448   9.520   2.815 -0.1507 -0.2165 -0.6408
22282SOL    HW170438   9.480   9.610   2.824  0.7011 -0.4046 -1.6673
22282SOL    HW270439   9.361   9.529   2.778  0.1200  0.1694 -1.1919
22283SOL     OW70440   2.499   4.140   4.557  0.0993 -0.1461 -0.1859
22283SOL    HW170441   2.429   4.129   4.493 -0.8293  0.3182  0.7174
22283SOL    HW270442   2.469   4.090   4.634  1.4732 -1.2098 -0.3036
22284SOL     OW70443   6.063   8.719   6.735 -0.0009 -0.2435 -0.3129
22284SOL    HW170444   5.976   8.744   6.704 -0.2378 -0.7529 -0.0577
22284SOL    HW270445   6.057   8.723   6.830 -0.0688 -1.3377 -0.2591
22285SOL     OW70446   2.196   7.067   4.238  0.2948  0.4934 -0.1351
22285SOL    HW170447   2.241   7.126   4.177 -0.7790  0.1220 -1.3257
22285SOL    HW270448   2.257   7.056   4.310  2.8663 -1.2453 -2.3756
22286SOL     OW70449   9.195   8.414   6.119  0.0382 -0.3775 -0.5790
22286SOL    HW170450   9.271   8.463   6.087 -0.2947 -0.2954 -1.2877
22286SOL    HW270451   9.195   8.427   6.213  1.8007 -1.6956 -0.3560
22287SOL     OW70452   8.340  11.081   9.817 -0.1982  0.1419  0.3486
22287SOL    HW170453   8.320  11.065   9.909  0.7869  1.8133  0.8888
22287SOL    HW270454   8.263  11.127   9.783 -0.2470  0.1914  0.5301
22288SOL     OW70455   8.434   2.501   5.035 -0.3265  0.3121 -0.1722
22288SOL    HW170456   8.406   2.529   5.122 -0.4234  0.9350 -0.3985
22288SOL    HW270457   8.529   2.512   5.036 -0.1138 -1.3482  0.4353
22289SOL     OW70458   6.086   2.106   3.864 -0.0660 -0.3013 -0.3837
22289SOL    HW170459   6.164   2.120   3.918 -0.5313 -2.2319  0.8854
22289SOL    HW270460   6.027   2.055   3.919 -2.1677  0.8839 -1.3915
22290SOL     OW70461  10.213   9.049   0.836 -0.2228 -0.1640 -0.0503
22290SOL    HW170462  10.284   8.987   0.823  0.6464  0.5519  1.0171
22290SOL    HW270463  10.153   9.005   0.895  0.3598 -0.0447  0.6543
22291SOL     OW70464   3.516   5.166   0.913  0.7135 -0.0266 -0.1396
22291SOL    HW170465   3.499   5.251   0.874  1.1155 -0.2378 -0.7886
22291SOL    HW270466   3.540   5.186   1.004 -1.9918  0.3441  0.5723
22292SOL     OW70467   7.728   2.479   5.877 -0.2528  0.0514  0.7332
22292SOL    HW170468   7.809   2.436   5.905  0.1507 -1.0045 -1.7355
22292SOL    HW270469   7.659   2.430   5.921  0.3796 -0.1075  1.5797
22293SOL     OW70470   9.334   4.541   2.479  0.1423  0.2306  0.1264
22293SOL    HW170471   9.255   4.565   2.527  0.0303 -1.9426  1.1870
22293SOL    HW270472   9.386   4.621   2.477 -2.9886  2.4455 -2.7359
22294SOL     OW70473   1.474   4.119   3.589 -0.7842  0.1417 -0.0075
22294SOL    HW170474   1.556   4.145   3.631 -1.1066  0.1889  0.6075
22294SOL    HW270475   1.500   4.052   3.525 -0.3305 -0.2399  0.5612
22295SOL     OW70476   1.642   9.825   3.817 -0.1626  0.2474  0.4839
22295SOL    HW170477   1.628   9.856   3.728 -0.2089 -1.1579 -0.0175
22295SOL    HW270478   1.622   9.732   3.814  2.2780 -0.3956  1.3689
22296SOL     OW70479   4.164   7.792   2.009  0.2493 -0.1259 -0.4254
22296SOL    HW170480   4.226   7.730   1.969  0.8161  0.6053 -0.6961
22296SOL    HW270481   4.138   7.849   1.937  2.1357  1.9252  0.4174
22297SOL     OW70482   6.240  10.843   5.617 -0.9449  0.0812 -0.1184
22297SOL    HW170483   6.171  10.903   5.645 -0.5625 -0.0656  1.2119
22297SOL    HW270484   6.250  10.860   5.523 -1.4957  1.4322  0.0394
22298SOL     OW70485   0.048   2.928   0.544 -0.4119  0.8432  0.7292
22298SOL    HW170486   0.012   2.854   0.494 -1.1974  0.4158  1.8973
22298SOL    HW270487   0.140   2.930   0.519 -0.9937  1.4164 -1.6730
22299SOL     OW70488   9.587   9.739   1.934  0.1362  0.1209  0.0339
22299SOL    HW170489   9.526   9.744   2.008  1.9469 -0.5507  1.6308
22299SOL    HW270490   9.588   9.647   1.910 -0.3482  0.3169 -0.7936
22300SOL     OW70491   6.086   9.125   9.802  0.1095 -0.0885  0.2266
22300SOL    HW170492   6.181   9.111   9.803 -0.0071 -0.9392  0.4435
22300SOL    HW270493   6.074   9.206   9.852  0.7546  0.3254 -0.2626
22301SOL     OW70494   4.301   1.273   2.189  0.4140  0.2173 -0.1741
22301SOL    HW170495   4.256   1.301   2.268 -0.4376 -2.7585  0.4847
22301SOL    HW270496   4.283   1.179   2.182  1.6150  0.0976 -3.1510
22302SOL     OW70497   9.580   3.384   9.045 -0.2267  0.4914  0.3577
22302SOL    HW170498   9.536   3.447   8.987 -1.4036  1.2523  1.9985
22302SOL    HW270499   9.567   3.420   9.133  0.5569 -1.1909  1.1952
22303SOL     OW70500   4.899   0.774  10.102  0.0098 -0.0815 -0.6836
22303SOL    HW170501   4.968   0.807  10.160 -0.5081 -0.4486  0.1732
22303SOL    HW270502   4.932   0.689  10.073 -0.0004 -0.1844 -0.4048
22304SOL     OW70503   5.012   0.082   0.119 -0.1329 -0.2669  0.3408
22304SOL    HW170504   4.948   0.139   0.160 -1.3828 -0.6242 -1.0255
22304SOL    HW270505   5.087   0.139   0.101 -0.7670  0.5923  0.3655
22305SOL     OW70506   0.920   6.988   9.228 -0.6736  0.0959 -0.1420
22305SOL    HW170507   0.864   7.064   9.244 -1.3413 -0.3469 -0.3442
22305SOL    HW270508   0.974   6.981   9.307 -2.2101 -0.5825  0.8789
22306SOL     OW70509   0.298   1.346   2.522  0.0562 -0.7040 -0.3660
22306SOL    HW170510   0.340   1.296   2.452  3.3162  0.9149  0.2424
22306SOL    HW270511   0.355   1.335   2.598 -0.7516  1.4360  0.6433
22307SOL     OW70512   8.102  10.849   8.322  0.2555 -0.4355  0.2932
22307SOL    HW170513   8.152  10.924   8.353 -0.9992  0.6658 -0.2734
22307SOL    HW270514   8.101  10.859   8.227 -0.3421 -0.9118  0.2446
22308SOL     OW70515   1.625  10.072   1.466 -0.4081 -0.2375 -0.4167
22308SOL    HW170516   1.703  10.039   1.511  0.5700  1.5391 -0.6992
22308SOL    HW270517   1.554  10.017   1.499  0.9043 -1.7763  0.0211
22309SOL     OW70518  10.260   5.842   0.955  0.9397  0.3111  0.2760
22309SOL    HW170519  10.266   5.804   1.042  0.2631  1.9042  1.0543
22309SOL    HW270520  10.185   5.902   0.960  0.7146  0.2250 -1.4831
22310SOL     OW70521   0.335   8.411   8.350 -0.2472 -0.5229 -0.6030
22310SOL    HW170522   0.251   8.388   8.309  0.1870 -2.4519 -0.4946
22310SOL    HW270523   0.400   8.394   8.281  0.3110 -1.9620  0.2392
22311SOL     OW70524   8.105   6.289   7.419  0.4426 -0.0969  0.5024
22311SOL    HW170525   8.047   6.316   7.490 -1.1797 -1.7411 -0.1101
22311SOL    HW270526   8.128   6.198   7.440 -1.4975 -1.2503 -1.8491
22312SOL     OW70527   6.775   5.218  10.680 -0.0239 -0.3001 -0.0149
22312SOL    HW170528   6.775   5.122  10.678 -0.5317 -0.3644  1.7084
22312SOL    HW270529   6.840   5.243  10.614  0.0356 -1.8167 -0.5759
22313SOL     OW70530   7.563   8.101   0.505  0.5789  0.1356 -0.3564
22313SOL    HW170531   7.476   8.117   0.542  0.9738 -0.3199  0.7926
22313SOL    HW270532   7.568   8.006   0.494  1.3963  0.0371  0.7704
22314SOL     OW70533  10.232   8.214   3.333 -0.6239 -0.4072 -0.6954
22314SOL    HW170534  10.171   8.268   3.382  0.1863  0.6661 -0.8205
22314SOL    HW270535  10.250   8.139   3.390 -0.5719  0.2445  0.1608
22315SOL     OW70536   3.034   9.559   3.619 -0.4011 -0.3849  0.1104
22315SOL    HW170537   3.103   9.531   3.680 -0.2426 -1.3835 -0.5127
22315SOL    HW270538   3.030   9.489   3.554 -0.9474  0.4069 -0.7239
22316SOL     OW70539   3.393  10.420   2.305 -0.3637  0.3090  0.0996
22316SOL    HW170540   3.370  10.487   2.241  0.5146  0.5666  0.0361
22316SOL    HW270541   3.401  10.468   2.388 -1.1892  0.0277  0.3564
22317SOL     OW70542   4.270  10.493   5.438 -0.4928  0.3408  0.1296
22317SOL    HW170543   4.332  10.468   5.369 -0.4478 -0.6366  0.5040
22317SOL    HW270544   4.248  10.411   5.481 -1.4242  0.7871  0.5338
22318SOL     OW70545   9.425   9.020   3.690 -0.7048 -0.1157 -0.4367
22318SOL    HW170546   9.475   9.008   3.609 -1.3081 -0.5426 -0.7619
22318SOL    HW270547   9.438   8.938   3.738  1.9106  1.1490  1.2279
22319SOL     OW70548   8.527   2.614   0.530 -0.4429  0.5557  0.3710
22319SOL    HW170549   8.538   2.549   0.598 -0.9827  0.6576  0.5640
22319SOL    HW270550   8.518   2.697   0.577 -2.1402  0.4664  0.2744
22320SOL     OW70551  10.484   9.087  10.287  0.2420  0.0314  0.3379
22320SOL    HW170552  10.455   9.140  10.361 -0.6426  1.0716 -0.7148
22320SOL    HW270553  10.425   9.012  10.286  0.2878 -0.0096  0.7139
22321SOL     OW70554   7.178   4.141   6.592 -0.1232  0.5655  0.5355
22321SOL    HW170555   7.240   4.198   6.637  0.1948  0.8945 -0.3044
22321SOL    HW270556   7.214   4.131   6.504  0.5949 -2.0608  1.0187
22322SOL     OW70557   2.904  10.401   2.224 -0.2075  0.6273  0.6647
22322SOL    HW170558   2.908  10.402   2.319  1.2490  0.4381  0.6307
22322SOL    HW270559   2.872  10.313   2.202  0.5990  0.2520  0.9670
22323SOL     OW70560   4.181   0.686   3.608 -0.1251  0.1322  1.0555
22323SOL    HW170561   4.160   0.735   3.687  0.2950 -1.3013  2.1016
22323SOL    HW270562   4.276   0.680   3.608 -0.0993  0.4499  0.2172
22324SOL     OW70563   8.525   7.032   2.925  0.4018 -0.3974  0.2801
22324SOL    HW170564   8.552   7.083   3.001  0.5933 -0.7162  0.4302
22324SOL    HW270565   8.437   7.001   2.947  0.3539 -0.2721  0.2633
22325SOL     OW70566   6.812   3.734   0.498 -0.0238 -0.1495 -0.3659
22325SOL    HW170567   6.818   3.817   0.451 -1.2322 -0.3428 -0.8971
22325SOL    HW270568   6.858   3.671   0.442  1.4745  0.2623  0.3540
22326SOL     OW70569   2.270   1.521   5.996  0.1038 -0.2890 -0.0727
22326SOL    HW170570   2.218   1.521   6.077  0.2374  2.1072  0.1004
22326SOL    HW270571   2.356   1.554   6.023 -0.3850  2.4028 -1.3777
22327SOL     OW70572   4.424   4.971   0.672 -0.2074  0.7177  0.2797
22327SOL    HW170573   4.516   4.944   0.662  0.0843  1.3576  1.0802
22327SOL    HW270574   4.406   4.957   0.765 -0.8805  0.7356  0.1536
22328SOL     OW70575   6.755   2.561   2.455 -0.7366 -0.0481  0.4958
22328SOL    HW170576   6.727   2.534   2.368 -2.3082 -2.4533  1.6343
22328SOL    HW270577   6.810   2.489   2.486 -0.3635  0.6656  1.5729
22329SOL     OW70578   6.092   2.659   7.680 -0.1484  0.3172  0.0582
22329SOL    HW170579   6.115   2.573   7.645 -0.6184 -0.1506  0.8526
22329SOL    HW270580   6.100   2.719   7.605  0.6306 -0.3304 -0.3952
22330SOL     OW70581   6.360   5.553   7.519 -0.1030 -0.3077 -0.3487
22330SOL    HW170582   6.420   5.480   7.538 -0.0909 -0.0402  0.7128
22330SOL    HW270583   6.291   5.545   7.585  0.3061  1.0837  0.2968
22331SOL     OW70584   9.284  11.077   2.871  0.6113  0.0569 -0.6655
22331SOL    HW170585   9.296  11.168   2.845  3.7888 -0.0469  0.1072
22331SOL    HW270586   9.323  11.071   2.958  1.0843 -2.1584 -0.9714
22332SOL     OW70587   9.650   6.105   4.351  0.1314 -0.0627 -0.1582
22332SOL    HW170588   9.610   6.165   4.413  0.3717  0.2544 -0.3080
22332SOL    HW270589   9.744   6.117   4.363  0.1797 -0.1555 -0.4350
22333SOL     OW70590   9.878   2.778   5.181 -0.1259 -0.4061 -0.0523
22333SOL    HW170591   9.797   2.816   5.215  1.0183  1.9126  0.2786
22333SOL    HW270592   9.885   2.812   5.091 -0.6822 -2.5701 -0.9868
22334SOL     OW70593   5.264   5.992   5.258  0.2795 -0.2339  0.7051
22334SOL    HW170594   5.189   6.027   5.307  1.8892 -0.1685  3.3362
22334SOL    HW270595   5.250   5.898   5.256 -0.3851 -0.1281  0.2462
22335SOL     OW70596   0.403   4.531  10.724  0.3500  0.8167  0.3150
22335SOL    HW170597   0.371   4.550  10.812 -0.2959  0.1017  0.2431
22335SOL    HW270598   0.485   4.484  10.738 -0.2763 -0.2238  0.5640
22336SOL     OW70599   5.563   8.465   1.189 -0.0200 -0.0002 -0.3405
22336SOL    HW170600   5.631   8.401   1.171 -0.6430 -0.9257  0.5150
22336SOL    HW270601   5.611   8.544   1.216  0.7181 -0.4530 -0.3068
22337SOL     OW70602  10.475   8.038   6.869 -0.6256 -0.2944  0.3720
22337SOL    HW170603  10.510   7.954   6.837 -1.1615 -0.6760  0.7755
22337SOL    HW270604  10.509   8.045   6.958  0.6196  0.6271 -0.1472
22338SOL     OW70605  10.534   5.891   7.290 -0.3433  1.1193 -0.0227
22338SOL    HW170606  10.567   5.881   7.380 -0.1723 -2.4132 -0.3600
22338SOL    HW270607  10.468   5.823   7.281  0.8304  0.2505 -3.0643
22339SOL     OW70608   4.526   8.843   9.583  0.3444 -0.4034  0.4646
22339SOL    HW170609   4.598   8.891   9.543  0.9592 -0.4917  1.4266
22339SOL    HW270610   4.492   8.787   9.513  0.0506  0.9029 -0.4836
22340SOL     OW70611   3.133   8.234   0.415 -0.4891  0.5828  0.6546
22340SOL    HW170612   3.061   8.199   0.362 -0.6463 -0.5327  1.5506
22340SOL    HW270613   3.206   8.242   0.353 -0.3651 -1.6319  0.4010
22341SOL     OW70614   7.098   9.030   1.372  0.0034 -0.4799  0.7963
22341SOL    HW170615   7.014   9.072   1.350 -0.4496 -0.8305  1.7700
22341SOL    HW270616   7.163   9.078   1.322 -0.7134  0.2183  0.5097
22342SOL     OW70617  10.068   0.450   7.544 -0.6932  0.4335  0.0385
22342SOL    HW170618  10.150   0.499   7.553 -0.1369 -0.1816 -1.3702
22342SOL    HW270619  10.091   0.376   7.488 -1.7556 -0.8756  1.2586
22343SOL     OW70620   2.777   1.001   0.116  0.3871 -0.1897  0.3504
22343SOL    HW170621   2.863   1.010   0.077  0.6092 -0.6816  0.7143
22343SOL    HW270622   2.748   1.091   0.133  0.3401  0.0252 -0.8122
22344SOL     OW70623   1.318   5.965   0.044  0.5616  0.3426 -0.5240
22344SOL    HW170624   1.400   5.929   0.010  0.7359  0.5798 -0.3556
22344SOL    HW270625   1.322   5.949   0.138 -0.7868 -2.0713 -0.8098
22345SOL     OW70626   4.671   7.274   9.387 -0.2663  0.0004  1.0553
22345SOL    HW170627   4.734   7.266   9.315 -1.4485  0.2180 -0.0336
22345SOL    HW270628   4.703   7.348   9.438  1.4458 -1.1109  1.6755
22346SOL     OW70629   4.139   7.578   7.773 -0.5775  0.2885  0.1047
22346SOL    HW170630   4.086   7.619   7.705 -0.9754  1.5952  1.1603
22346SOL    HW270631   4.223   7.560   7.731 -1.5878 -1.2021 -1.4039
22347SOL     OW70632   5.532   5.105   2.285  0.6707  0.2603 -0.3281
22347SOL    HW170633   5.534   5.009   2.291  1.0767  0.2786 -0.1903
22347SOL    HW270634   5.553   5.123   2.193 -2.6828  0.0993 -1.2888
22348SOL     OW70635  10.550   5.133   4.387  0.0672 -0.1493 -0.7336
22348SOL    HW170636  10.570   5.052   4.433 -1.3059  0.3202  0.8026
22348SOL    HW270637  10.464   5.117   4.347 -0.4000  0.6491 -0.0871
22349SOL     OW70638   3.529   3.605  10.785  0.3354  1.0382 -0.2127
22349SOL    HW170639   3.447   3.627  10.828  0.3317  0.3573  0.1535
22349SOL    HW270640   3.503   3.562  10.704  0.2992 -0.0670  0.3604
22350SOL     OW70641   4.779   7.854   9.959  0.7829 -0.1641  0.5146
22350SOL    HW170642   4.794   7.883   9.869  0.1636 -0.4139  0.3322
22350SOL    HW270643   4.763   7.934  10.008 -0.1485 -0.1308  0.1585
22351SOL     OW70644   1.291   7.113   1.340 -0.0703  0.0457  0.1264
22351SOL    HW170645   1.289   7.060   1.261 -0.9719 -0.0706  0.2206
22351SOL    HW270646   1.383   7.138   1.350  0.3310 -1.2680 -0.0763
22352SOL     OW70647   2.335  10.756   4.273  0.1039  0.0146  0.0200
22352SOL    HW170648   2.333  10.824   4.206 -0.0981  1.1578  1.1534
22352SOL    HW270649   2.266  10.780   4.335 -0.9850 -2.0301 -0.2986
22353SOL     OW70650   2.897  10.122   2.728 -0.3134  0.0018  0.3102
22353SOL    HW170651   2.938  10.208   2.720  2.0911 -1.1483 -0.9567
22353SOL    HW270652   2.868  10.118   2.819  2.1211  1.1266  1.2345
22354SOL     OW70653   5.015   0.060   2.449 -0.1172 -0.0209 -0.0219
22354SOL    HW170654   5.102   0.039   2.416 -0.3723 -1.4699  0.1713
22354SOL    HW270655   5.027   0.071   2.543  0.0949  1.2318 -0.1781
22355SOL     OW70656   1.010  11.085   9.868  0.7031 -0.1523 -0.0663
22355SOL    HW170657   1.052  10.999   9.865  1.4392  0.2213 -1.1824
22355SOL    HW270658   1.067  11.137   9.924  1.0282 -0.0158 -0.5140
22356SOL     OW70659   8.452   8.881   2.349 -0.0064  0.0662 -0.1117
22356SOL    HW170660   8.492   8.803   2.386  2.6286 -0.2675 -3.2366
22356SOL    HW270661   8.374   8.848   2.303  0.4634 -0.5742 -0.4668
22357SOL     OW70662   4.857   1.951   6.129  0.1547 -0.5721 -0.3492
22357SOL    HW170663   4.856   1.883   6.196  0.3987 -0.5700 -0.3451
22357SOL    HW270664   4.944   1.990   6.135 -0.7609  1.4781  1.4239
22358SOL     OW70665   3.608   7.268   0.511 -0.2921 -0.0644  0.2027
22358SOL    HW170666   3.639   7.246   0.424 -0.0316  1.6926 -0.1741
22358SOL    HW270667   3.512   7.259   0.505 -0.2504 -0.2940 -0.1519
22359SOL     OW70668   5.464   6.835   3.720  0.0683  0.0393 -0.6957
22359SOL    HW170669   5.552   6.812   3.688  0.4972  1.3525 -0.4839
22359SOL    HW270670   5.466   6.813   3.813  0.0858 -0.1448 -0.7379
22360SOL     OW70671   9.684   1.715   9.267  0.0906  0.3034  0.5348
22360SOL    HW170672   9.722   1.796   9.302 -0.6698  0.6970  0.4636
22360SOL    HW270673   9.594   1.715   9.299 -0.6376  0.6769 -1.4082
22361SOL     OW70674   9.027   2.552   0.594 -0.3339 -0.1682  0.0600
22361SOL    HW170675   9.061   2.490   0.530  1.6416  1.8699 -0.9862
22361SOL    HW270676   8.964   2.605   0.545 -0.6402 -0.1453  0.4681
22362SOL     OW70677   2.293   3.359   6.249  0.1541  0.4963 -0.4503
22362SOL    HW170678   2.370   3.372   6.305 -0.6856  1.3208  0.5708
22362SOL    HW270679   2.276   3.265   6.253  1.2100  0.2767 -0.8405
22363SOL     OW70680   6.679   4.930   8.745 -0.1598  0.0903  0.3060
22363SOL    HW170681   6.647   4.975   8.667 -1.8348  1.0495  1.4975
22363SOL    HW270682   6.762   4.974   8.765  0.9516 -1.0050 -1.5996
22364SOL     OW70683   5.955   7.998   6.153 -0.1814  0.5435  0.0099
22364SOL    HW170684   6.007   8.077   6.136 -0.6580  1.0571  0.8931
22364SOL    HW270685   5.875   8.030   6.195 -0.6651 -0.3565 -0.2083
22365SOL     OW70686   1.510   4.066   0.962  0.1432 -0.1801 -0.4174
22365SOL    HW170687   1.521   3.985   0.913  0.1430 -0.2909 -0.2336
22365SOL    HW270688   1.429   4.104   0.927 -0.6528 -0.9741  0.5005
22366SOL     OW70689   5.989   9.340   6.613  0.1266  0.3307  0.0863
22366SOL    HW170690   6.011   9.283   6.539  1.2653 -1.8187  1.9394
22366SOL    HW270691   5.900   9.314   6.637 -0.1229  0.7989 -0.3336
22367SOL     OW70692   8.338   2.878   2.488 -0.1707 -0.2157  0.0639
22367SOL    HW170693   8.338   2.968   2.522 -1.8404 -0.0413 -0.3281
22367SOL    HW270694   8.344   2.888   2.393  0.5360 -0.5656  0.0646
22368SOL     OW70695   4.142   7.441  10.076  0.1593  0.2391  0.1923
22368SOL    HW170696   4.205   7.370  10.061  1.1318  0.9935  0.5768
22368SOL    HW270697   4.193   7.509  10.121 -0.3132  1.8588 -1.5865
22369SOL     OW70698   0.616  10.056   6.186  0.1178 -0.2781 -0.3544
22369SOL    HW170699   0.582  10.017   6.106 -1.6635 -0.2098  0.3211
22369SOL    HW270700   0.696  10.007   6.205 -0.7770 -1.9976 -0.8284
22370SOL     OW70701   0.984   5.273   8.638 -0.3486  0.1678  0.0307
22370SOL    HW170702   1.038   5.303   8.711  1.7029 -2.0643 -0.4654
22370SOL    HW270703   0.964   5.353   8.589  1.6048  1.2259  0.8481
22371SOL     OW70704   6.360   0.758   2.348 -0.1325  0.0282 -0.0458
22371SOL    HW170705   6.341   0.665   2.332 -0.5616 -0.4361  2.6538
22371SOL    HW270706   6.430   0.756   2.414 -2.8691  1.4584  3.1707
22372SOL     OW70707   4.719   7.610   6.125 -0.3272 -0.4065  0.3428
22372SOL    HW170708   4.735   7.664   6.047 -0.1388 -0.8436  0.0737
22372SOL    HW270709   4.803   7.611   6.172 -0.7396  0.7319  1.1070
22373SOL     OW70710   6.338  10.934   6.658  0.0303  0.4505  0.2638
22373SOL    HW170711   6.260  10.892   6.692 -0.7184  1.1039 -0.6036
22373SOL    HW270712   6.409  10.902   6.714 -0.7004 -0.9309  0.4249
22374SOL     OW70713   3.284   0.829   6.785  0.7521  0.1418  0.2305
22374SOL    HW170714   3.286   0.786   6.871  1.2258  0.9379  0.6358
22374SOL    HW270715   3.245   0.765   6.726  1.2048 -0.7316  0.8688
22375SOL     OW70716   2.753   1.280   3.900 -0.2647 -0.2046 -0.4532
22375SOL    HW170717   2.679   1.304   3.845 -1.5448  0.3208  1.3925
22375SOL    HW270718   2.717   1.274   3.988  2.0322  0.9084  0.6735
22376SOL     OW70719  10.758   9.873   9.550  0.0543 -0.4114 -0.2159
22376SOL    HW170720  10.741   9.792   9.502 -0.8135 -0.7863  0.6906
22376SOL    HW270721  10.723   9.857   9.637 -0.0277  0.9051  0.0175
22377SOL     OW70722  10.494  10.313   9.955 -0.1125 -0.2628  0.4559
22377SOL    HW170723  10.569  10.342   9.903  0.4170  0.7323  1.7195
22377SOL    HW270724  10.533  10.266  10.028 -0.8025 -0.8560  0.4491
22378SOL     OW70725   7.545   2.571   4.704  0.1335  0.0621 -0.0038
22378SOL    HW170726   7.612   2.635   4.678 -0.2448  0.0228 -1.1176
22378SOL    HW270727   7.462   2.614   4.686 -0.1317 -0.5561 -0.2694
22379SOL     OW70728   5.294   7.508   7.350  0.1352 -0.5493  0.0562
22379SOL    HW170729   5.229   7.578   7.360 -1.3110 -2.1242  2.7137
22379SOL    HW270730   5.354   7.520   7.423  1.4010 -0.6300 -0.9311
22380SOL     OW70731  10.334   5.996   4.925 -0.7452 -0.1081  0.4673
22380SOL    HW170732  10.382   6.041   4.994 -1.3089  0.5361  0.4486
22380SOL    HW270733  10.354   5.903   4.938 -1.1090 -0.0265  1.7053
22381SOL     OW70734   4.619   0.148   9.125  0.6633 -0.2324  0.1909
22381SOL    HW170735   4.691   0.153   9.063 -0.4203  0.2747 -1.0731
22381SOL    HW270736   4.593   0.239   9.139  0.7161 -0.3567  1.2134
22382SOL     OW70737   1.153   7.893   0.194 -0.0035  0.1695  0.3169
22382SOL    HW170738   1.155   7.888   0.098 -0.2834 -1.9857  0.3876
22382SOL    HW270739   1.240   7.865   0.222 -0.1617  0.0516  0.7071
22383SOL     OW70740   0.119   8.249   5.077 -0.0846  0.4722  0.3092
22383SOL    HW170741   0.104   8.155   5.088  2.2355 -0.1765 -1.2841
22383SOL    HW270742   0.159   8.277   5.159  2.2928 -0.7515 -0.3243
22384SOL     OW70743   1.428   3.040   8.318 -0.0013  0.0462  0.0340
22384SOL    HW170744   1.455   2.972   8.257  2.0188  1.9227 -1.3112
22384SOL    HW270745   1.368   3.095   8.268 -2.8208 -1.3848  1.5513
22385SOL     OW70746   6.640   2.522   3.416  0.0258  0.2286 -0.5853
22385SOL    HW170747   6.556   2.565   3.404  0.7211  1.5843 -0.7417
22385SOL    HW270748   6.704   2.582   3.378  1.2272 -0.0682  0.8827
22386SOL     OW70749   2.096   4.882   9.153  0.3846  0.2324  0.1422
22386SOL    HW170750   2.149   4.915   9.081 -1.2678  1.7463 -0.4369
22386SOL    HW270751   2.098   4.951   9.219  0.6522 -0.4981  0.9251
22387SOL     OW70752   2.440   1.184   6.555  0.1908 -0.4340 -0.1967
22387SOL    HW170753   2.406   1.097   6.535 -1.9164  0.4058 -0.5957
22387SOL    HW270754   2.424   1.195   6.649 -0.4616 -0.1307 -0.3364
22388SOL     OW70755   0.018   2.500   1.344  0.5177 -0.0051  0.3472
22388SOL    HW170756  -0.063   2.450   1.332  1.0324 -0.3285 -2.1943
22388SOL    HW270757   0.084   2.451   1.296  2.2276  0.3922  2.1688
22389SOL     OW70758   3.778   3.773   1.653  1.4122 -0.6128 -0.4763
22389SOL    HW170759   3.775   3.741   1.562 -0.6525 -1.2175 -0.2480
22389SOL    HW270760   3.701   3.735   1.694  0.5290  2.1883  0.6949
22390SOL     OW70761   9.516   4.108   5.201  0.1196 -0.4810 -0.0928
22390SOL    HW170762   9.456   4.069   5.264 -0.6842 -0.5006 -0.8580
22390SOL    HW270763   9.559   4.034   5.159  1.6765 -0.4674  1.3430
22391SOL     OW70764   7.699   8.634   6.086  0.2673 -0.5654  0.0481
22391SOL    HW170765   7.642   8.701   6.049  0.5122 -1.0956 -1.3493
22391SOL    HW270766   7.641   8.559   6.102  0.2417 -0.4781  0.3874
22392SOL     OW70767   1.142   7.453   8.040 -0.5221  0.0367  0.4171
22392SOL    HW170768   1.194   7.457   8.120 -0.4646 -3.1033  0.6398
22392SOL    HW270769   1.206   7.461   7.969 -0.5512  2.6062  0.5824
22393SOL     OW70770   2.653   2.441   5.740 -0.1756 -0.3225 -0.0896
22393SOL    HW170771   2.559   2.434   5.755  0.0261 -0.5649  1.1269
22393SOL    HW270772   2.672   2.374   5.674 -1.0106  0.4378 -1.1285
22394SOL     OW70773  10.732   5.914  10.241 -0.3015  0.1490  0.3460
22394SOL    HW170774  10.660   5.851  10.245  1.3236 -1.7868  1.0811
22394SOL    HW270775  10.744   5.941  10.332  1.5675 -1.6488  0.7065
22395SOL     OW70776   6.240   9.046   7.576 -0.2059 -0.0705  0.2364
22395SOL    HW170777   6.256   8.958   7.542 -0.1494 -0.2950  0.8286
22395SOL    HW270778   6.326   9.088   7.573  0.0205 -0.4374  1.0494
22396SOL     OW70779   3.958   2.427  10.620  0.5104 -0.0700  0.2807
22396SOL    HW170780   3.927   2.382  10.698  1.7377  0.2140  0.9514
22396SOL    HW270781   4.052   2.413  10.619  0.5163 -0.1015 -1.1812
22397SOL     OW70782   1.702   5.814   9.159 -0.4753 -0.0915 -0.0875
22397SOL    HW170783   1.749   5.762   9.094 -1.0211 -0.3114 -0.3081
22397SOL    HW270784   1.716   5.767   9.241  0.0991  0.1123 -0.0659
22398SOL     OW70785   7.021   2.773   4.332 -0.3679 -0.1427 -0.0236
22398SOL    HW170786   7.028   2.683   4.364 -1.6293  0.4586  2.1378
22398SOL    HW270787   7.109   2.795   4.303  0.2440 -1.6471  0.5824
22399SOL     OW70788   9.649   2.209   5.512 -0.0811  0.2353  0.6172
22399SOL    HW170789   9.571   2.220   5.566 -0.0587 -0.1007  0.7208
22399SOL    HW270790   9.628   2.254   5.430 -0.4277  0.0483  0.6023
22400SOL     OW70791  10.464   2.994   2.519 -0.5607  0.4184 -0.0274
22400SOL    HW170792  10.549   3.010   2.478 -0.3031 -0.8664 -0.0284
22400SOL    HW270793  10.456   3.064   2.584  0.6499  0.3613  0.2097
22401SOL     OW70794   0.852   9.842   7.733  0.1411 -0.5711  0.0883
22401SOL    HW170795   0.798   9.837   7.812 -0.7673  2.7453 -0.1889
22401SOL    HW270796   0.814   9.777   7.674 -2.3960  0.3227  0.5978
22402SOL     OW70797   1.917   3.880   8.543 -0.0093 -0.2496 -0.1839
22402SOL    HW170798   2.012   3.877   8.530 -0.0819 -0.5766 -0.6550
22402SOL    HW270799   1.893   3.971   8.524  0.0153 -0.4917 -1.4816
22403SOL     OW70800   8.954   5.683   7.827  0.5057  0.0844 -0.0013
22403SOL    HW170801   8.929   5.660   7.738  1.0174  0.6120 -0.2877
22403SOL    HW270802   8.905   5.622   7.882 -1.7531  1.3527 -0.5040
22404SOL     OW70803  10.828   1.538   8.324  0.7944 -0.1860  0.2917
22404SOL    HW170804  10.775   1.477   8.376 -0.3005  1.8869  1.7533
22404SOL    HW270805  10.816   1.622   8.366  2.1974  1.1014 -1.6940
22405SOL     OW70806   5.481   1.662   6.225  0.0868 -0.2229 -0.2292
22405SOL    HW170807   5.564   1.707   6.239 -0.6384  0.8931  0.6306
22405SOL    HW270808   5.430   1.721   6.171 -1.1715  0.4246  1.5503
22406SOL     OW70809   4.785   3.980   1.817  0.0471 -0.9629  0.1694
22406SOL    HW170810   4.877   3.964   1.798  0.5130  1.2237  0.3403
22406SOL    HW270811   4.763   4.059   1.768 -2.0891 -2.0703 -0.7917
22407SOL     OW70812   0.256   0.358   4.631 -0.4534  0.5117  0.0526
22407SOL    HW170813   0.297   0.390   4.550  1.0840 -0.1743  0.5290
22407SOL    HW270814   0.329   0.344   4.691 -1.3514 -1.1691  0.8117
22408SOL     OW70815  10.581   7.919  10.156 -0.5860 -0.3242 -0.1234
22408SOL    HW170816  10.640   7.926  10.231 -1.4616  2.9320  0.4049
22408SOL    HW270817  10.494   7.917  10.195 -0.9819 -0.7848 -1.0197
22409SOL     OW70818   2.869   7.181  10.639  0.0876 -0.5869 -0.1075
22409SOL    HW170819   2.941   7.244  10.635  1.8208 -2.4093  0.3447
22409SOL    HW270820   2.801   7.225  10.690  0.9563  1.1179 -0.3445
22410SOL     OW70821   3.350   6.602   3.917  0.1617  0.0982  0.1638
22410SOL    HW170822   3.416   6.537   3.893 -0.2976 -0.9715  1.6568
22410SOL    HW270823   3.360   6.672   3.853  2.9529  0.1194  0.5247
22411SOL     OW70824   5.261   3.302   3.459 -0.0670  0.1300  0.0605
22411SOL    HW170825   5.225   3.300   3.548  0.5337  1.0991  0.3316
22411SOL    HW270826   5.341   3.250   3.464 -0.0078  0.2258  0.0890
22412SOL     OW70827   0.299   9.951   6.313  0.8030  0.0904  0.5836
22412SOL    HW170828   0.390   9.925   6.323  0.7885 -0.5556 -0.7529
22412SOL    HW270829   0.268   9.901   6.237 -0.6361  0.3618  0.9721
22413SOL     OW70830   5.828   2.975  10.386 -0.3576 -0.5268 -0.1701
22413SOL    HW170831   5.887   3.001  10.315  0.0955  0.0851  0.4119
22413SOL    HW270832   5.748   3.025  10.372  0.1439  0.4510  0.3760
22414SOL     OW70833   2.911   5.419   8.424  0.5881  0.0911 -0.4750
22414SOL    HW170834   3.003   5.420   8.396  0.9885  2.1597  0.7614
22414SOL    HW270835   2.905   5.344   8.482  1.1137 -0.9103 -1.6581
22415SOL     OW70836   0.261   3.381   4.646  0.1201 -0.5264  0.1165
22415SOL    HW170837   0.350   3.415   4.642  0.1754 -0.6151  0.5428
22415SOL    HW270838   0.266   3.306   4.705 -0.4724  0.1993  1.1082
22416SOL     OW70839   9.042   9.207   5.310  0.0742  0.6231  0.3466
22416SOL    HW170840   9.011   9.117   5.318  2.9665 -0.5110 -0.0607
22416SOL    HW270841   8.975   9.259   5.355 -1.6958 -1.6866  0.5865
22417SOL     OW70842   4.467   1.027  10.110 -0.2847 -0.0510 -0.6142
22417SOL    HW170843   4.537   1.019  10.175  0.3981  0.4032 -1.2696
22417SOL    HW270844   4.509   1.005  10.027 -1.1412 -0.5976 -0.9080
22418SOL     OW70845  11.099   8.466   9.008 -0.2574  0.0851 -0.5166
22418SOL    HW170846  11.122   8.549   9.051  0.8996  0.5729 -1.9892
22418SOL    HW270847  11.137   8.399   9.064 -2.6172  0.3507  1.6215
22419SOL     OW70848   2.875   1.227   2.246  0.1344 -0.2414  0.1842
22419SOL    HW170849   2.862   1.224   2.151  2.5176  1.2078 -0.2775
22419SOL    HW270850   2.823   1.302   2.275  0.0380 -0.1972 -0.1001
22420SOL     OW70851   3.412   4.821   8.676  0.0686  0.6715 -0.1679
22420SOL    HW170852   3.476   4.757   8.706  0.0844  0.3182 -0.9414
22420SOL    HW270853   3.419   4.819   8.580  1.2685  3.0228 -0.2217
22421SOL     OW70854   2.056   9.685   7.933 -0.1395  0.5918  0.6331
22421SOL    HW170855   2.042   9.747   8.005 -1.7972 -0.6358  1.4417
22421SOL    HW270856   1.976   9.691   7.881  0.0250 -0.2995  0.2696
22422SOL     OW70857   7.768   0.685   7.949 -0.7439 -0.6824 -0.4670
22422SOL    HW170858   7.681   0.723   7.935 -0.0716  1.1329  0.1210
22422SOL    HW270859   7.828   0.746   7.907  0.4730 -0.5024  1.4582
22423SOL     OW70860  10.586   8.380   8.250  0.3155 -0.3403  0.5270
22423SOL    HW170861  10.570   8.295   8.291  0.4854 -1.7716 -2.1830
22423SOL    HW270862  10.499   8.416   8.233  0.2307 -0.4297  0.7709
22424SOL     OW70863   1.269   2.948   0.372 -0.5172 -0.4009  0.2328
22424SOL    HW170864   1.220   3.023   0.405  0.9549  1.5706 -1.7555
22424SOL    HW270865   1.264   2.956   0.277  0.5204 -2.2674 -0.0337
22425SOL     OW70866   0.937   3.535   1.703  0.0999 -0.1833 -0.3986
22425SOL    HW170867   0.845   3.559   1.711 -0.0602 -1.0347  0.5106
22425SOL    HW270868   0.965   3.576   1.621 -1.2491 -0.4310 -1.0183
22426SOL     OW70869   2.991   1.473   6.710  0.4506 -0.8346  0.3115
22426SOL    HW170870   3.017   1.539   6.646  1.5284 -0.8379  0.7330
22426SOL    HW270871   3.055   1.403   6.700 -0.4074 -1.6295  0.1906
22427SOL     OW70872   9.679   6.423   2.097  0.1871  0.4546 -0.1583
22427SOL    HW170873   9.714   6.335   2.087 -1.2872 -0.1521 -0.1222
22427SOL    HW270874   9.682   6.460   2.009  1.0703  0.4928 -0.1253
22428SOL     OW70875   8.018   7.991   8.852 -0.3657  0.2434 -0.1562
22428SOL    HW170876   8.013   7.897   8.834 -0.2671 -0.2337  2.0587
22428SOL    HW270877   7.985   8.032   8.772 -0.9280 -1.6747 -0.9780
22429SOL     OW70878   3.361   2.483   2.185 -0.0032  0.3831  0.7898
22429SOL    HW170879   3.375   2.418   2.254 -0.0204 -1.7645 -1.1344
22429SOL    HW270880   3.381   2.437   2.104 -0.0505  2.8031 -0.6841
22430SOL     OW70881   0.626   3.079   2.033 -0.3656 -0.3962 -0.3446
22430SOL    HW170882   0.689   3.007   2.035 -1.0537 -1.0654 -1.4754
22430SOL    HW270883   0.543   3.037   2.011 -2.0782 -0.1223  4.4831
22431SOL     OW70884   6.308   5.204   2.194 -0.4495 -0.1474  0.4198
22431SOL    HW170885   6.368   5.137   2.225  0.0257  0.6419  1.2237
22431SOL    HW270886   6.351   5.241   2.117 -0.2807 -0.1260  0.5252
22432SOL     OW70887   8.464   7.991   8.679 -0.2718  0.1307 -0.4691
22432SOL    HW170888   8.430   8.066   8.728 -3.5082 -1.0625 -0.5929
22432SOL    HW270889   8.481   8.025   8.592  0.6639  1.2113  0.1209
22433SOL     OW70890   3.199   7.648   4.790  0.0755 -0.4657 -0.0719
22433SOL    HW170891   3.212   7.560   4.825  0.7088 -0.0605  0.7615
22433SOL    HW270892   3.288   7.680   4.772 -0.1977 -0.4814 -1.6581
22434SOL     OW70893   5.561   0.127   7.897 -0.2820 -0.3730  0.1698
22434SOL    HW170894   5.646   0.147   7.859 -0.1337 -0.6453  0.3564
22434SOL    HW270895   5.501   0.122   7.822  0.0374 -1.0664 -0.0389
22435SOL     OW70896   7.876   0.322   9.095  0.1452 -0.3358  0.1029
22435SOL    HW170897   7.835   0.239   9.071  3.5581 -1.9575 -0.8199
22435SOL    HW270898   7.916   0.354   9.013 -0.9179  2.2116  0.4708
22436SOL     OW70899   5.794   6.676   0.537 -0.0079  0.4867 -0.2402
22436SOL    HW170900   5.878   6.642   0.569 -0.1762 -0.8552 -1.1501
22436SOL    HW270901   5.762   6.732   0.609  0.8293 -0.3766  0.8398
22437SOL     OW70902   2.337   9.739   2.039  0.1551  0.0259  0.1316
22437SOL    HW170903   2.304   9.779   2.119  2.3425  1.0422  0.6210
22437SOL    HW270904   2.367   9.813   1.986  2.6801 -0.7703  0.2797
22438SOL     OW70905   2.836   3.866   7.134 -0.1806 -0.0327 -0.0743
22438SOL    HW170906   2.826   3.935   7.068  1.0626  0.3094  0.0511
22438SOL    HW270907   2.753   3.864   7.180 -0.6832  0.4957 -0.9325
22439SOL     OW70908   7.477   9.567   3.418  0.1135 -0.4072 -0.8409
22439SOL    HW170909   7.419   9.518   3.476 -2.1308  2.2818 -0.5722
22439SOL    HW270910   7.561   9.569   3.463 -0.3119 -2.1695  0.0861
22440SOL     OW70911   9.760   2.064   8.696  0.0566  0.1181 -0.5468
22440SOL    HW170912   9.692   2.099   8.754  0.4629 -0.3260  0.2092
22440SOL    HW270913   9.839   2.110   8.722  0.2425 -0.0797 -0.7627
22441SOL     OW70914   6.032   8.778   9.657 -0.5396  0.6540 -0.3457
22441SOL    HW170915   6.028   8.798   9.564 -1.4495 -0.8210 -0.6492
22441SOL    HW270916   6.122   8.747   9.671 -0.5330  0.4546 -0.8239
22442SOL     OW70917   5.424   6.749   4.916  0.0721  0.2924  0.3266
22442SOL    HW170918   5.356   6.774   4.979  0.3804  1.9398  0.0690
22442SOL    HW270919   5.482   6.825   4.913  1.6293 -0.8533  0.1233
22443SOL     OW70920   6.695   7.032   0.979 -0.4784 -0.6043  0.3399
22443SOL    HW170921   6.677   7.112   0.929 -1.8690 -1.4358 -0.5399
22443SOL    HW270922   6.613   7.011   1.023 -0.2758 -1.7947  0.1993
22444SOL     OW70923   2.421   5.122   6.178  0.1414  0.0225 -0.8396
22444SOL    HW170924   2.327   5.115   6.157  0.0129  1.6070 -0.8567
22444SOL    HW270925   2.440   5.040   6.225 -1.0731 -0.6535 -1.4520
22445SOL     OW70926   1.644   7.377   5.092  0.1503  0.3249  0.4852
22445SOL    HW170927   1.656   7.436   5.018  0.8686 -1.0524 -0.5356
22445SOL    HW270928   1.704   7.409   5.159 -1.1117  2.0890  0.8328
22446SOL     OW70929   8.039   8.922   2.684  0.2474 -0.1407 -0.7533
22446SOL    HW170930   7.970   8.932   2.750  0.6290  0.1336 -0.3946
22446SOL    HW270931   8.041   9.006   2.639  0.4735 -0.0851 -0.6401
22447SOL     OW70932   5.902   5.054   3.304  0.1752  0.0813 -0.4711
22447SOL    HW170933   5.955   5.038   3.382 -0.9231  2.1457  0.7771
22447SOL    HW270934   5.865   4.969   3.283 -0.2457 -0.3920  1.8616
22448SOL     OW70935   8.403   4.278   3.172  0.1086 -0.6858  0.2838
22448SOL    HW170936   8.318   4.311   3.203 -0.3080  0.1422 -1.6103
22448SOL    HW270937   8.381   4.215   3.104  1.0186 -0.8773  0.1576
22449SOL     OW70938  10.889   2.346   1.335  0.7253 -0.4701 -0.2566
22449SOL    HW170939  10.879   2.294   1.414  0.8654  0.8583  0.6735
22449SOL    HW270940  10.825   2.417   1.344 -0.5213 -1.2672 -2.2000
22450SOL     OW70941   5.284   1.239   0.469  0.1869 -0.3600  1.1425
22450SOL    HW170942   5.240   1.226   0.553  1.4598  0.4668  1.9866
22450SOL    HW270943   5.310   1.332   0.470 -0.8739  0.0040 -0.7262
22451SOL     OW70944   7.599   7.721   5.045  0.1991  0.4677 -0.6095
22451SOL    HW170945   7.681   7.765   5.024  1.7495 -0.8015  2.1986
22451SOL    HW270946   7.560   7.774   5.114 -0.6815  0.3512 -1.0113
22452SOL     OW70947   2.367   7.599   6.289 -0.3188 -0.1238 -0.0433
22452SOL    HW170948   2.344   7.692   6.290  2.2220  0.5717  1.0061
22452SOL    HW270949   2.285   7.555   6.266 -1.4039  2.3935 -1.4383
22453SOL     OW70950   8.384   9.187  11.036  0.1811 -0.4721  0.2037
22453SOL    HW170951   8.431   9.270  11.032  0.2158 -0.3836  1.7742
22453SOL    HW270952   8.310   9.198  10.976 -0.5478  1.1828  1.3215
22454SOL     OW70953   0.414   4.170   3.562  0.6770  0.4375  0.0536
22454SOL    HW170954   0.385   4.080   3.550  0.2691  0.5901 -0.1487
22454SOL    HW270955   0.471   4.167   3.639 -1.6389  0.4631  1.9040
22455SOL     OW70956   7.442   4.829   9.282 -0.3853 -0.7103 -0.5650
22455SOL    HW170957   7.453   4.868   9.369 -0.5200  1.2776 -1.3694
22455SOL    HW270958   7.524   4.784   9.264  0.4059  0.5292 -0.1726
22456SOL     OW70959   2.567   4.024   0.433 -0.7245  0.2166 -0.0971
22456SOL    HW170960   2.495   4.036   0.371 -0.4315 -1.4380 -0.8054
22456SOL    HW270961   2.533   3.960   0.497 -0.5910  0.9778  0.7566
22457SOL     OW70962   7.432   5.502   6.651 -0.1216  0.2187 -0.3258
22457SOL    HW170963   7.379   5.555   6.591  2.1000  2.2243 -0.6604
22457SOL    HW270964   7.507   5.557   6.672  0.5141 -1.4533  2.2629
22458SOL     OW70965  10.372   2.194   4.637  0.1951 -0.1546  0.0315
22458SOL    HW170966  10.299   2.252   4.617  0.5893  0.4327  0.2842
22458SOL    HW270967  10.330   2.114   4.669 -0.3281  0.3330  0.5893
22459SOL     OW70968   4.674   2.606   0.424  0.2206 -0.0353  0.1697
22459SOL    HW170969   4.646   2.675   0.485 -0.8945 -0.2000 -0.1477
22459SOL    HW270970   4.768   2.622   0.412 -0.2930  2.5890 -1.2826
22460SOL     OW70971   9.534  10.686   1.457 -0.1413 -0.2374 -0.3163
22460SOL    HW170972   9.512  10.762   1.403  1.7021  0.1260 -0.6335
22460SOL    HW270973   9.499  10.611   1.409  1.3067  0.0960 -2.0125
22461SOL     OW70974   0.563   7.896   7.130 -0.4096  0.4606 -0.2804
22461SOL    HW170975   0.561   7.982   7.089 -1.5865  0.0615 -1.0977
22461SOL    HW270976   0.524   7.837   7.066  1.0256 -0.8380 -0.0302
22462SOL     OW70977  10.346  10.691   8.112  0.2466 -0.6703  0.2372
22462SOL    HW170978  10.315  10.697   8.202  1.1253 -1.2786  0.5883
22462SOL    HW270979  10.314  10.771   8.070  1.2592  0.4461  1.5296
22463SOL     OW70980   5.731   0.787   4.640  0.3492  0.0187  0.1196
22463SOL    HW170981   5.652   0.752   4.598  1.6269 -0.9509 -1.6249
22463SOL    HW270982   5.725   0.882   4.628  0.2817 -0.1748 -1.6216
22464SOL     OW70983  11.052   3.660   7.453  0.5966  0.4829  0.0676
22464SOL    HW170984  10.984   3.593   7.448 -1.3731  2.3895 -0.5626
22464SOL    HW270985  11.061   3.679   7.546 -0.5134  0.9079  0.1040
22465SOL     OW70986   6.885   1.487   5.943  0.5572 -0.2082  0.1707
22465SOL    HW170987   6.836   1.497   6.025  1.2179 -1.5223  0.7713
22465SOL    HW270988   6.926   1.572   5.930 -1.5434  0.8080 -0.1672
22466SOL     OW70989   8.188   9.761   7.457  0.6066  0.2941 -0.2128
22466SOL    HW170990   8.102   9.723   7.477  0.9003 -0.3685 -0.2054
22466SOL    HW270991   8.178   9.853   7.480 -0.5984  0.5796 -1.7125
22467SOL     OW70992  10.825  10.809   7.554 -0.2004 -0.4347  0.2339
22467SOL    HW170993  10.819  10.742   7.486  0.1892  0.9418 -1.2186
22467SOL    HW270994  10.735  10.824   7.580 -0.4368 -0.3887 -0.5860
22468SOL     OW70995   0.970   2.200   0.089 -0.0571  0.1732  0.2514
22468SOL    HW170996   0.933   2.205   0.177  1.1486 -0.2363  0.8016
22468SOL    HW270997   0.901   2.161   0.036 -0.5068 -0.3283  1.1876
22469SOL     OW70998   0.734   1.272   8.335  0.2973  0.7962  0.9750
22469SOL    HW170999   0.655   1.306   8.376 -1.3140 -0.8867 -0.5828
22469SOL    HW271000   0.777   1.222   8.405 -0.4352  1.0481  1.6195
22470SOL     OW71001   8.267   9.294   4.751  0.5227  0.2612  0.0554
22470SOL    HW171002   8.193   9.323   4.805  1.0157  0.7499  0.4823
22470SOL    HW271003   8.322   9.244   4.811  1.1815  0.9863  0.0721
22471SOL     OW71004  10.873   4.463   7.852 -0.1035 -0.0781  0.3406
22471SOL    HW171005  10.919   4.380   7.836  0.4723 -0.0275  1.5945
22471SOL    HW271006  10.941   4.521   7.886 -0.5050  0.9259 -0.5257
22472SOL     OW71007   5.148   3.216   7.263 -0.0488 -0.2909  0.4411
22472SOL    HW171008   5.151   3.244   7.171  0.4877  0.7537  0.7633
22472SOL    HW271009   5.059   3.238   7.291 -0.0231 -0.0447  0.3389
22473SOL     OW71010   5.248   0.850  10.428 -0.3846  0.0214  0.5334
22473SOL    HW171011   5.292   0.884  10.506  2.8616  3.2867 -2.3491
22473SOL    HW271012   5.286   0.763  10.415  1.2775  0.6374  1.0694
22474SOL     OW71013   4.869   6.527   4.866 -0.4116 -0.1180  0.2192
22474SOL    HW171014   4.850   6.467   4.938  0.0669  0.6850  1.0444
22474SOL    HW271015   4.819   6.493   4.792 -1.6314 -0.4551  1.1651
22475SOL     OW71016   6.368   7.487   5.851 -0.1721  0.4165  0.0490
22475SOL    HW171017   6.289   7.446   5.887 -0.9215  1.9018  0.1472
22475SOL    HW271018   6.355   7.485   5.756  0.3200 -0.5473 -0.0200
22476SOL     OW71019   2.874   5.716   3.544  0.3375 -0.5748 -0.2872
22476SOL    HW171020   2.955   5.735   3.495  1.2476 -1.2400  0.9062
22476SOL    HW271021   2.835   5.802   3.559  0.8322 -0.2350 -0.8727
22477SOL     OW71022   6.436   0.091   8.774 -0.1725  0.3460  0.1634
22477SOL    HW171023   6.476   0.172   8.805 -0.8213 -0.0183  2.0847
22477SOL    HW271024   6.343   0.113   8.763 -0.3294 -0.1093  0.5777
22478SOL     OW71025   3.258   5.753   3.881 -0.7808  0.0823  0.2863
22478SOL    HW171026   3.272   5.710   3.965 -0.7764 -1.7211 -0.5973
22478SOL    HW271027   3.305   5.698   3.818 -0.6097  1.5132 -0.8819
22479SOL     OW71028   8.106   7.627  11.025  0.5437 -0.1803  0.1615
22479SOL    HW171029   8.129   7.643  11.117 -0.3583 -1.9961  0.7598
22479SOL    HW271030   8.096   7.714  10.987  1.3148  0.6170  1.6775
22480SOL     OW71031   4.542   8.028   4.613 -0.1329  0.0655 -0.3764
22480SOL    HW171032   4.494   8.039   4.531  1.0363  1.7548 -0.9062
22480SOL    HW271033   4.574   8.117   4.634  0.0420 -0.4193  1.6243
22481SOL     OW71034   9.714   7.097   7.871 -0.0274  0.3310  0.2306
22481SOL    HW171035   9.740   7.029   7.808  1.3984  0.1540  0.9474
22481SOL    HW271036   9.622   7.081   7.888  0.2655 -1.4383  0.3467
22482SOL     OW71037  10.244   1.647   1.214 -0.0536  0.0876 -0.3360
22482SOL    HW171038  10.335   1.674   1.203  0.0776  0.5467  1.5938
22482SOL    HW271039  10.212   1.700   1.287 -1.1240 -1.8141  0.6355
22483SOL     OW71040   9.938   5.113   8.239  0.8054  0.6248 -0.0958
22483SOL    HW171041   9.891   5.057   8.178  2.1363 -1.8440  0.9791
22483SOL    HW271042   9.917   5.077   8.326  3.0484  0.6441  0.5280
22484SOL     OW71043   0.982   0.131   0.245 -0.1085 -0.0928 -0.2107
22484SOL    HW171044   1.051   0.181   0.290  0.7070  0.3493 -1.8591
22484SOL    HW271045   0.900   0.169   0.276  0.4647  1.1710 -0.1887
22485SOL     OW71046   1.937  10.589   2.907 -0.0418  0.3917 -0.3128
22485SOL    HW171047   1.902  10.674   2.882  0.8726  1.1698  0.9814
22485SOL    HW271048   1.899  10.571   2.993  0.4783 -0.0923 -0.1777
22486SOL     OW71049   1.478   8.964   3.423 -0.5861  0.4281 -0.0406
22486SOL    HW171050   1.440   9.000   3.343  1.8845  1.0848 -1.0104
22486SOL    HW271051   1.556   9.017   3.438 -1.5279  1.1396  3.5268
22487SOL     OW71052   5.734   0.893   1.864  0.2112 -0.3818 -0.5308
22487SOL    HW171053   5.662   0.956   1.861  0.7064  0.1858 -0.6172
22487SOL    HW271054   5.741   0.859   1.775  0.0298 -0.4650 -0.5135
22488SOL     OW71055   2.241   3.733   0.815 -0.1732  0.3371  0.3694
22488SOL    HW171056   2.288   3.787   0.751 -0.1501  0.1785  0.2516
22488SOL    HW271057   2.163   3.785   0.837 -0.0308  0.5232  0.4351
22489SOL     OW71058   7.607   8.790   8.543 -0.4414 -0.0984 -0.3317
22489SOL    HW171059   7.528   8.795   8.597  0.4797 -0.5230  1.0727
22489SOL    HW271060   7.582   8.734   8.469 -1.5220 -0.0081 -0.0481
22490SOL     OW71061   1.971   4.487   3.319 -0.2156 -0.7760  0.0282
22490SOL    HW171062   1.990   4.429   3.246  2.1109  0.0639 -0.1216
22490SOL    HW271063   1.986   4.433   3.397  0.7618 -0.7326 -0.1186
22491SOL     OW71064  10.433  11.042   3.284  0.0078  0.0052  0.0784
22491SOL    HW171065  10.467  10.954   3.265 -0.1406 -0.8173  3.1606
22491SOL    HW271066  10.511  11.092   3.310 -0.2703 -0.0354  1.0050
22492SOL     OW71067   2.424   0.965   8.953 -0.0639  0.1112  0.1604
22492SOL    HW171068   2.365   0.994   9.022 -1.1185  1.1006 -1.1004
22492SOL    HW271069   2.503   0.936   8.999 -0.3217  1.7001  1.7141
22493SOL     OW71070   4.372   6.736   9.416  0.1346 -0.3917 -0.4270
22493SOL    HW171071   4.406   6.732   9.505  1.3548 -0.2411 -0.8563
22493SOL    HW271072   4.373   6.829   9.394 -1.0358 -0.3345 -0.2948
22494SOL     OW71073   7.043   9.403   1.891 -0.0910  0.5118  0.0740
22494SOL    HW171074   7.071   9.363   1.809  0.5734 -0.1184  0.5906
22494SOL    HW271075   7.102   9.478   1.903 -0.9081  1.2785 -0.5644
22495SOL     OW71076   0.164   3.821   4.408 -0.2909  0.3964 -0.3389
22495SOL    HW171077   0.213   3.794   4.486 -0.1582  0.6819 -0.3242
22495SOL    HW271078   0.146   3.914   4.421  1.1162  0.8482 -1.3784
22496SOL     OW71079   1.229   7.028   1.924 -0.3076 -1.1941 -0.1122
22496SOL    HW171080   1.156   7.088   1.937  1.5124  1.2991 -0.7297
22496SOL    HW271081   1.212   6.988   1.839 -0.3281  0.3101 -0.8310
22497SOL     OW71082   7.453   5.079   0.318 -0.2485  0.3047  0.1131
22497SOL    HW171083   7.455   5.160   0.369  3.4530  0.6091 -0.2577
22497SOL    HW271084   7.461   5.010   0.384  0.4346  0.4842  0.2307
22498SOL     OW71085   9.818   0.465  11.032 -0.6331 -0.5371 -0.5679
22498SOL    HW171086   9.903   0.505  11.015 -1.0808  0.4266 -0.6329
22498SOL    HW271087   9.755   0.527  10.995 -1.4119 -0.7096  0.4180
22499SOL     OW71088   7.949   7.385   7.961  0.3100 -0.4708 -0.2385
22499SOL    HW171089   7.868   7.436   7.952  1.5475  1.7265  0.3518
22499SOL    HW271090   7.929   7.321   8.028 -0.2876  1.6268  1.7210
22500SOL     OW71091   0.074  10.106  10.454 -0.2475 -0.4560 -0.2906
22500SOL    HW171092   0.032  10.119  10.539  1.0041 -0.4502  0.3529
22500SOL    HW271093   0.043  10.178  10.400 -0.4086  0.0144  0.4180
22501SOL     OW71094   7.795   8.856   4.273 -0.1936 -0.0617  0.3704
22501SOL    HW171095   7.761   8.945   4.267  0.5441  0.1480 -1.4812
22501SOL    HW271096   7.718   8.799   4.271 -0.6512  0.5192  1.2684
22502SOL     OW71097  10.271   1.489   9.120 -0.4517 -0.7020  0.2704
22502SOL    HW171098  10.183   1.503   9.154 -1.1587 -2.2449 -0.8537
22502SOL    HW271099  10.318   1.447   9.192 -0.6713 -0.0242  0.8168
22503SOL     OW71100   7.488   2.493   7.169  0.5290 -0.5645  0.3783
22503SOL    HW171101   7.567   2.535   7.201  0.6324  0.1498 -0.7651
22503SOL    HW271102   7.519   2.421   7.114  0.3634 -1.1682  1.0637
22504SOL     OW71103   9.695   6.240   1.823 -0.0842  0.1124 -0.1169
22504SOL    HW171104   9.605   6.250   1.793 -0.3947 -0.2099  0.6690
22504SOL    HW271105   9.706   6.146   1.836 -0.9305  0.3291  3.4315
22505SOL     OW71106   6.097   3.401  10.866  0.1149 -0.2675 -0.2212
22505SOL    HW171107   6.076   3.405  10.773  2.4482 -0.9996 -0.8513
22505SOL    HW271108   6.181   3.356  10.870  0.9110  1.2308  2.1307
22506SOL     OW71109   0.984   6.823   3.018  0.0020 -0.5110  0.8318
22506SOL    HW171110   0.893   6.800   3.033  0.3706 -1.8678  1.1584
22506SOL    HW271111   1.034   6.750   3.055  1.3275  1.3501  3.0662
22507SOL     OW71112   1.978   9.638   9.560  0.7063  0.1881  0.3685
22507SOL    HW171113   1.950   9.648   9.650 -0.1798 -0.3528  0.1674
22507SOL    HW271114   2.074   9.643   9.563  0.6388  1.1224  1.1998
22508SOL     OW71115   8.752   8.404   8.656  0.4339 -0.5541  0.0451
22508SOL    HW171116   8.763   8.497   8.636 -0.2925 -0.3316  0.6020
22508SOL    HW271117   8.830   8.381   8.707 -0.6610  0.5132  2.3785
22509SOL     OW71118   5.105   5.275   6.092 -0.5172  0.0349  0.0357
22509SOL    HW171119   5.159   5.214   6.041 -1.3623 -0.2957 -0.4774
22509SOL    HW271120   5.164   5.306   6.162  0.8110  0.8616 -1.3910
22510SOL     OW71121   6.089   3.630   6.233  0.1174  0.0887  0.2174
22510SOL    HW171122   6.042   3.548   6.249 -0.6197  0.4165 -0.1742
22510SOL    HW271123   6.045   3.694   6.289  1.1409  0.0869  1.0530
22511SOL     OW71124  10.002   3.048  10.356 -0.4484 -0.1712 -0.3236
22511SOL    HW171125  10.030   3.068  10.446  2.2084  0.4760 -1.2018
22511SOL    HW271126  10.021   3.128  10.307  1.6469 -1.7005 -2.1463
22512SOL     OW71127   4.418   0.168   5.047 -0.2261 -0.3876  0.5716
22512SOL    HW171128   4.339   0.164   4.993  0.6968 -0.1931 -0.8579
22512SOL    HW271129   4.462   0.248   5.018  0.8501 -0.8798  0.7952
22513SOL     OW71130   9.069   9.335   9.733  0.5448 -0.7359 -0.0151
22513SOL    HW171131   8.986   9.350   9.689 -0.1996 -1.1318  1.1966
22513SOL    HW271132   9.121   9.285   9.671 -0.1437 -0.5447 -0.7593
22514SOL     OW71133  10.374   3.379   1.671 -0.3287 -0.1337 -0.6666
22514SOL    HW171134  10.430   3.423   1.608 -1.0113  0.7908 -0.6491
22514SOL    HW271135  10.365   3.290   1.637  0.4585 -0.0501 -1.1097
22515SOL     OW71136   6.969   1.032   4.468  0.0523 -0.0949  0.2870
22515SOL    HW171137   7.034   0.962   4.467 -0.0356 -0.2217 -2.2162
22515SOL    HW271138   7.010   1.103   4.419  0.1280  1.6779  2.7452
22516SOL     OW71139   9.095   9.562   2.236  0.2375  0.1090 -0.5050
22516SOL    HW171140   9.159   9.493   2.254 -0.4651 -0.8598 -1.5330
22516SOL    HW271141   9.133   9.613   2.164  0.2962  0.1460 -0.4475
22517SOL     OW71142   3.444   3.255   2.986  0.1968  0.0314 -0.6168
22517SOL    HW171143   3.508   3.228   2.920  1.4423  1.4003 -0.0481
22517SOL    HW271144   3.365   3.206   2.965  0.7160  0.0127 -2.7856
22518SOL     OW71145   7.908   0.237   9.900  0.4762  0.4201 -0.1483
22518SOL    HW171146   7.857   0.250   9.820  1.1837 -1.6217 -0.9898
22518SOL    HW271147   7.956   0.319   9.911 -1.2987  1.5665 -0.5473
22519SOL     OW71148   6.971   3.281   0.824 -0.4077 -0.1366 -0.3816
22519SOL    HW171149   6.970   3.341   0.899  0.9722  1.1627 -1.3491
22519SOL    HW271150   6.905   3.315   0.764  0.6198  0.6751 -1.0878
22520SOL     OW71151   6.766   4.047   3.512  0.4560 -0.1916  0.1441
22520SOL    HW171152   6.859   4.025   3.511  0.7323  0.9385  0.0785
22520SOL    HW271153   6.739   4.048   3.420  0.7522  0.9371  0.0516
22521SOL     OW71154   7.465   9.916   6.527 -0.4047 -0.6553  0.3296
22521SOL    HW171155   7.409   9.971   6.581 -0.8393 -1.2464  0.4895
22521SOL    HW271156   7.554   9.936   6.555 -0.5266  0.3009  0.0654
22522SOL     OW71157   8.599   0.488   8.030 -0.2927 -0.2847  0.6321
22522SOL    HW171158   8.526   0.546   8.051  0.5739  1.7824 -1.6032
22522SOL    HW271159   8.589   0.470   7.937  0.6720 -2.0890  0.8290
22523SOL     OW71160  10.557   0.646   3.902  0.3483  0.6232  0.0402
22523SOL    HW171161  10.489   0.654   3.969  0.3271  0.4201  0.0449
22523SOL    HW271162  10.508   0.643   3.819  0.3301  0.2029  0.0606
22524SOL     OW71163   1.528   3.416   9.107  0.4426 -0.5512  0.2403
22524SOL    HW171164   1.574   3.494   9.077  0.5346 -0.5604  0.3539
22524SOL    HW271165   1.573   3.392   9.188  1.3665 -1.5722 -0.5363
22525SOL     OW71166   6.434   1.840   5.714  0.1639  0.1680 -0.1170
22525SOL    HW171167   6.395   1.776   5.655 -0.6968  0.6543 -0.0806
22525SOL    HW271168   6.376   1.841   5.790  0.2108  0.9339 -0.0856
22526SOL     OW71169   9.941   2.865  10.651 -0.6613 -0.1903 -0.0517
22526SOL    HW171170   9.956   2.844  10.743 -1.0713 -0.5293 -0.0627
22526SOL    HW271171   9.856   2.909  10.649 -1.0640 -0.9782 -0.3834
22527SOL     OW71172   3.459   9.211   3.411 -0.3784  0.3770 -0.2437
22527SOL    HW171173   3.368   9.208   3.440  0.0458 -1.4185  1.0650
22527SOL    HW271174   3.505   9.258   3.480  0.0457 -0.7999  0.3041
22528SOL     OW71175   9.093   9.978   6.741  0.7013  0.3573  0.4301
22528SOL    HW171176   9.156   9.921   6.786  0.6036  1.0712  1.5241
22528SOL    HW271177   9.063   9.927   6.666 -0.4778 -1.6590  2.1402
22529SOL     OW71178   8.961   7.969   2.860  0.2517  0.0865  0.0154
22529SOL    HW171179   8.988   7.878   2.877  0.9615  0.0753 -1.0376
22529SOL    HW271180   9.026   8.022   2.906 -0.3709  0.0789  0.9319
22530SOL     OW71181  10.449   7.064  10.515  0.4228  0.9639 -0.1530
22530SOL    HW171182  10.394   7.136  10.546  3.2387  3.2017  0.0268
22530SOL    HW271183  10.408   7.035  10.433 -1.5274  1.8130  0.4806
22531SOL     OW71184   6.613   5.444   8.629  0.7433 -0.2595  0.2156
22531SOL    HW171185   6.691   5.493   8.603  0.1527  0.7746  0.3515
22531SOL    HW271186   6.595   5.387   8.554  1.3888 -0.2151  0.0167
22532SOL     OW71187   7.500   5.833   5.872  0.2218 -0.4628  0.5249
22532SOL    HW171188   7.458   5.914   5.842  0.5088 -0.5206 -0.0593
22532SOL    HW271189   7.445   5.763   5.837  1.2179 -0.5609 -0.9650
22533SOL     OW71190   2.967   5.722   5.303 -0.3215  0.0201  0.2630
22533SOL    HW171191   3.055   5.685   5.303  0.0165  0.7282 -1.0933
22533SOL    HW271192   2.972   5.793   5.239 -2.4118 -1.2955 -1.5074
22534SOL     OW71193   8.687   9.503   2.384  0.5281 -0.0718 -0.1071
22534SOL    HW171194   8.758   9.561   2.358 -0.4853  0.6982 -1.2821
22534SOL    HW271195   8.683   9.510   2.479  1.2516  0.7881 -0.1311
22535SOL     OW71196   6.865   2.687   5.725  0.5881 -0.1397 -0.1801
22535SOL    HW171197   6.883   2.609   5.778 -0.2337  0.6572  1.3495
22535SOL    HW271198   6.801   2.736   5.777  2.3662  2.4216 -0.2441
22536SOL     OW71199   0.940   3.380   4.530  0.0287  0.4770 -0.2878
22536SOL    HW171200   0.988   3.460   4.551 -1.7713  0.9701  2.4810
22536SOL    HW271201   0.894   3.358   4.611 -1.1048 -2.2711 -1.5636
22537SOL     OW71202   5.074   8.150   0.162 -0.6303 -0.5562  0.6730
22537SOL    HW171203   5.164   8.116   0.158 -0.6618 -0.5290 -0.3904
22537SOL    HW271204   5.035   8.124   0.079 -2.2947 -2.4281  1.9481
22538SOL     OW71205  10.303   9.186   2.074  0.0878 -0.3929 -0.1354
22538SOL    HW171206  10.274   9.214   1.987 -0.8745  1.0621  0.6029
22538SOL    HW271207  10.368   9.117   2.057 -0.2992 -0.3611 -1.9796
22539SOL     OW71208   5.671   2.708   3.592  0.2727  0.0951  0.2122
22539SOL    HW171209   5.697   2.758   3.515  1.6748 -2.3966 -1.0412
22539SOL    HW271210   5.599   2.652   3.562 -0.0920  0.0497  1.1090
22540SOL     OW71211   6.630   0.219  11.063  0.3137  0.0065 -0.1700
22540SOL    HW171212   6.634   0.252  10.973  2.6177 -0.2738 -0.2210
22540SOL    HW271213   6.633   0.298  11.118 -0.4181  0.1407 -0.3090
22541SOL     OW71214   8.245   2.626   9.028 -0.2113 -0.5691 -0.5187
22541SOL    HW171215   8.149   2.629   9.022 -0.5556 -3.5739  1.1018
22541SOL    HW271216   8.263   2.649   9.119  0.7164  0.6500 -0.9895
22542SOL     OW71217   5.274   5.359   1.392  0.4147 -0.0512  0.1429
22542SOL    HW171218   5.253   5.272   1.358  1.5196  0.1841 -1.2268
22542SOL    HW271219   5.189   5.400   1.406 -0.1026 -0.7450 -0.8421
22543SOL     OW71220   9.659   3.082  10.946 -0.1701  0.1471  0.6591
22543SOL    HW171221   9.741   3.099  10.899 -0.1639 -1.1205  0.1605
22543SOL    HW271222   9.637   3.165  10.987  0.6863  0.8629 -0.2734
22544SOL     OW71223   6.792   0.840   5.563  0.2553  0.1718  0.3788
22544SOL    HW171224   6.798   0.831   5.658 -1.2324 -1.6137  0.3633
22544SOL    HW271225   6.784   0.750   5.530  0.6293  0.7500 -1.4391
22545SOL     OW71226   5.075   4.432   0.372  0.0892  0.7083  0.5663
22545SOL    HW171227   5.000   4.456   0.318  0.5376  0.2900 -0.2691
22545SOL    HW271228   5.149   4.434   0.312  0.4456 -0.7806  0.9040
22546SOL     OW71229   9.547   1.083   6.018  0.2571  0.6249  0.5914
22546SOL    HW171230   9.496   1.089   5.937  2.7160  0.1788 -1.1214
22546SOL    HW271231   9.492   1.032   6.077 -1.3737  0.4244 -1.0016
22547SOL     OW71232   3.727   2.698   9.764 -0.0818  0.0255  0.5225
22547SOL    HW171233   3.664   2.710   9.835  0.6000  0.2920  1.0857
22547SOL    HW271234   3.755   2.607   9.772  1.5129  0.6041  1.8738
22548SOL     OW71235  11.089   9.987   0.086 -0.5417 -0.2304 -0.0092
22548SOL    HW171236  11.048  10.072   0.098 -0.4161 -0.3529  1.3623
22548SOL    HW271237  11.183  10.005   0.082 -0.5465 -0.2559 -0.3266
22549SOL     OW71238   0.119   5.900   3.726 -0.2106 -0.9893 -0.7949
22549SOL    HW171239   0.032   5.939   3.732  0.6385  1.0580 -1.0957
22549SOL    HW271240   0.103   5.806   3.736 -2.2998 -0.5766  0.4223
22550SOL     OW71241   6.570  10.371   7.588 -0.3493  0.3298 -0.1285
22550SOL    HW171242   6.649  10.323   7.615 -1.2002 -1.1035 -0.0858
22550SOL    HW271243   6.546  10.332   7.504 -0.5292  1.3738 -0.5813
22551SOL     OW71244  10.287   7.074   2.914 -0.3112  0.2416 -0.4011
22551SOL    HW171245  10.287   7.131   2.991  0.3091  0.2858 -0.4271
22551SOL    HW271246  10.256   7.131   2.843 -0.9291  0.1879 -0.1778
22552SOL     OW71247   1.365   5.267   2.615  0.0758 -0.0064  0.0010
22552SOL    HW171248   1.440   5.257   2.673  1.6096  0.2651 -1.8491
22552SOL    HW271249   1.307   5.194   2.639  1.9695 -1.6134 -0.0128
22553SOL     OW71250   1.017   3.119   2.034  0.0245  0.4777  0.6885
22553SOL    HW171251   1.019   3.189   1.968 -1.7323  0.3230  0.4221
22553SOL    HW271252   1.109   3.094   2.046  0.5576  1.9661 -0.1340
22554SOL     OW71253   2.837   7.709   6.422  0.5017  0.3067 -0.5757
22554SOL    HW171254   2.830   7.735   6.514  1.4708 -0.2314 -0.3383
22554SOL    HW271255   2.838   7.614   6.424 -0.4589  0.2760 -1.2308
22555SOL     OW71256   4.752   4.827   1.247 -0.2725 -0.1136  0.3099
22555SOL    HW171257   4.841   4.857   1.264  0.3873 -1.6223 -0.3606
22555SOL    HW271258   4.728   4.869   1.164  0.1644 -0.4205  0.0253
22556SOL     OW71259   5.022   5.386   4.535 -0.8059 -0.3944  0.4382
22556SOL    HW171260   5.111   5.395   4.500 -0.6446 -0.3783  0.8384
22556SOL    HW271261   5.032   5.404   4.629 -1.4302  0.7782  0.2939
22557SOL     OW71262   9.708   6.972   3.658  0.0924  0.1212  0.5914
22557SOL    HW171263   9.700   6.998   3.566 -0.8688  0.7711  0.8417
22557SOL    HW271264   9.697   6.877   3.657 -1.7336  0.2989  0.1958
22558SOL     OW71265   5.492   1.950   9.060 -0.4108  0.3325 -0.3067
22558SOL    HW171266   5.477   2.043   9.044 -0.9895 -0.0698 -2.5134
22558SOL    HW271267   5.549   1.922   8.988 -0.5657 -1.0920  0.0871
22559SOL     OW71268   7.386   9.931   6.896  0.1591  0.6246  0.0457
22559SOL    HW171269   7.364   9.937   6.989 -0.4746  0.1502 -0.0685
22559SOL    HW271270   7.412  10.020   6.872 -3.5169  1.7739 -0.2885
22560SOL     OW71271   2.373   4.414   5.386 -0.1029  0.2032  0.1269
22560SOL    HW171272   2.333   4.490   5.428 -0.6208 -0.4032  0.7348
22560SOL    HW271273   2.462   4.412   5.420 -0.1427  0.4339  0.2466
22561SOL     OW71274   0.234   5.510   4.318  0.0601 -0.0641 -0.2041
22561SOL    HW171275   0.163   5.476   4.372 -1.6009  0.6764 -1.8125
22561SOL    HW271276   0.284   5.567   4.376 -0.7505 -0.4817  0.9289
22562SOL     OW71277   4.596   7.743   7.628 -0.2607 -0.2631  0.3177
22562SOL    HW171278   4.649   7.783   7.698  1.3493 -0.4199 -0.7486
22562SOL    HW271279   4.506   7.764   7.651  0.4223  3.7417  0.0069
22563SOL     OW71280   4.131   2.150   2.360  0.1042  0.1269  0.6305
22563SOL    HW171281   4.048   2.137   2.314  0.0132  0.6345  0.6463
22563SOL    HW271282   4.193   2.093   2.314 -0.0064  0.5499 -0.0538
22564SOL     OW71283   1.958   3.179   8.132  0.1895 -0.3564 -0.2713
22564SOL    HW171284   1.994   3.093   8.154 -0.2722 -1.2195 -2.5945
22564SOL    HW271285   1.865   3.162   8.117  0.0304  0.6223 -0.3987
22565SOL     OW71286   3.085  10.515   3.406  0.5740  0.6891  0.2890
22565SOL    HW171287   3.052  10.486   3.492  2.0466  0.1142  0.6929
22565SOL    HW271288   3.020  10.578   3.376 -0.0242  0.8425  1.7951
22566SOL     OW71289   1.151   8.117   5.273 -0.0490 -0.3192  0.1653
22566SOL    HW171290   1.060   8.090   5.265  0.5260 -2.7668  0.7431
22566SOL    HW271291   1.159   8.194   5.218 -1.6311 -2.2353 -3.0372
22567SOL     OW71292   1.358   5.887  10.790 -0.3957 -0.1880  0.2038
22567SOL    HW171293   1.288   5.875  10.854 -0.6173 -0.0680 -0.0137
22567SOL    HW271294   1.363   5.981  10.776 -0.9016 -0.2569 -0.5518
22568SOL     OW71295   5.231   6.384   8.754 -0.4573  0.3996  0.4322
22568SOL    HW171296   5.142   6.417   8.744 -0.0428  1.2640 -0.6020
22568SOL    HW271297   5.223   6.290   8.741 -0.9803  0.6669 -1.5780
22569SOL     OW71298   5.484   0.867   7.516 -0.5998  0.1408 -0.1206
22569SOL    HW171299   5.460   0.939   7.574  0.7375  0.8016 -0.3604
22569SOL    HW271300   5.462   0.899   7.428 -0.3834  0.1056 -0.1891
22570SOL     OW71301   9.678   3.562   9.586 -0.3071 -0.2129 -0.1800
22570SOL    HW171302   9.586   3.537   9.595 -0.3743 -0.1630 -0.7033
22570SOL    HW271303   9.676   3.641   9.532 -0.0134  0.2614  0.4929
22571SOL     OW71304   6.808   2.566  11.092 -0.1155  0.1192  0.7752
22571SOL    HW171305   6.898   2.581  11.060 -0.5144 -1.0211 -1.0142
22571SOL    HW271306   6.794   2.637  11.155  2.3363 -0.1624  1.7860
22572SOL     OW71307   7.733   1.958   2.870 -0.0072  0.4735  1.0787
22572SOL    HW171308   7.778   2.017   2.809  0.6270 -0.4026  0.6817
22572SOL    HW271309   7.647   1.998   2.883 -0.4538  0.2780 -1.0180
22573SOL     OW71310   7.625   7.654   2.383  0.2990  0.5569  0.4030
22573SOL    HW171311   7.692   7.661   2.314  0.9887  0.5353  1.0508
22573SOL    HW271312   7.676   7.649   2.464 -0.5093  0.8398  0.9321
22574SOL     OW71313   3.780   2.431   3.461 -0.2400  0.3882  0.1269
22574SOL    HW171314   3.820   2.416   3.375  1.0828 -3.1713  1.1718
22574SOL    HW271315   3.820   2.512   3.491  0.1380  1.1229 -2.1135
22575SOL     OW71316  10.434   7.626  10.175  0.1890 -0.0443 -0.0088
22575SOL    HW171317  10.410   7.564  10.106  0.4349 -1.5128  1.1772
22575SOL    HW271318  10.482   7.695  10.130 -1.8239  0.3708 -1.6828
22576SOL     OW71319   2.354   0.319   9.012  0.0143 -0.3726 -0.2156
22576SOL    HW171320   2.348   0.414   8.999 -1.4977 -0.3286  0.4999
22576SOL    HW271321   2.269   0.296   9.050  0.0798 -2.1408 -1.0914
22577SOL     OW71322   8.941   5.692   9.430  0.3546  0.3649 -0.4255
22577SOL    HW171323   9.019   5.678   9.377  0.3984  0.1645 -0.3088
22577SOL    HW271324   8.875   5.634   9.391  0.7264 -0.6988  0.4740
22578SOL     OW71325   1.677   4.228   4.075  0.4068 -0.9852  0.3158
22578SOL    HW171326   1.723   4.178   4.007 -1.4937 -0.9507 -1.1023
22578SOL    HW271327   1.605   4.170   4.101 -0.0383 -0.1953  0.8586
22579SOL     OW71328   4.303   4.277   7.656 -0.5266  0.3288  0.5569
22579SOL    HW171329   4.294   4.291   7.750  1.3092  1.2696  0.6480
22579SOL    HW271330   4.363   4.203   7.648 -2.9390 -1.7204  0.0506
22580SOL     OW71331   3.608   9.294   2.869  0.2330 -0.2939  0.0762
22580SOL    HW171332   3.555   9.365   2.907  0.1175  0.1233 -0.8492
22580SOL    HW271333   3.580   9.289   2.778  0.4994 -1.2983  0.0338
22581SOL     OW71334   6.051   2.363   8.748 -0.3223 -0.1305  0.7568
22581SOL    HW171335   6.136   2.323   8.764 -0.3842 -0.8258 -0.5516
22581SOL    HW271336   6.071   2.451   8.717 -0.1279  0.0814  1.4560
22582SOL     OW71337   2.387   5.122   9.329  0.4634 -0.4419 -0.1801
22582SOL    HW171338   2.422   5.071   9.256  1.7901 -0.8077  0.6674
22582SOL    HW271339   2.462   5.175   9.358 -0.3216  0.4309  0.2854
22583SOL     OW71340   3.064   4.986   9.070  0.1503 -0.2284 -0.4341
22583SOL    HW171341   3.135   4.971   9.008  0.6753 -1.0108  0.3266
22583SOL    HW271342   3.054   4.902   9.115  1.1951  0.8484  1.9640
22584SOL     OW71343   2.876   3.022  10.392  0.0320 -0.8739  0.0777
22584SOL    HW171344   2.872   2.945  10.335  1.0552 -0.6719 -0.2893
22584SOL    HW271345   2.969   3.033  10.409 -0.1708 -0.1362  0.7112
22585SOL     OW71346   3.549   7.001   2.537  0.2512 -0.2809  0.0394
22585SOL    HW171347   3.538   6.920   2.487 -1.5523 -0.6347  0.9229
22585SOL    HW271348   3.505   7.068   2.485 -0.4148 -0.3709  0.4845
22586SOL     OW71349   7.988   3.248   9.361 -0.0410  0.5455  0.2104
22586SOL    HW171350   8.034   3.288   9.435  1.1533 -0.8402  0.2524
22586SOL    HW271351   8.056   3.201   9.312 -1.4456 -2.3938  0.8139
22587SOL     OW71352   2.521   4.836   3.612  0.3244 -0.3071 -0.2056
22587SOL    HW171353   2.477   4.914   3.578  0.3026  1.0530  2.6410
22587SOL    HW271354   2.453   4.768   3.613 -0.6400  0.6394  0.4206
22588SOL     OW71355   9.212   6.006  10.943  0.0015 -0.6569  0.3785
22588SOL    HW171356   9.136   6.063  10.946  1.7926  1.8898  1.9982
22588SOL    HW271357   9.219   5.970  11.031  0.6412 -0.8899  0.2412
22589SOL     OW71358   4.728   2.735   8.589 -0.3706  0.3425  0.1186
22589SOL    HW171359   4.790   2.796   8.548 -0.7148  0.3647 -0.3754
22589SOL    HW271360   4.642   2.776   8.576 -0.6670 -0.4866 -0.6838
22590SOL     OW71361   7.482   1.039   6.306  0.0407 -0.0715 -0.2082
22590SOL    HW171362   7.505   0.990   6.227 -0.9537  0.2830 -0.7297
22590SOL    HW271363   7.418   1.104   6.276 -1.5159 -0.9108  1.1337
22591SOL     OW71364   1.635   1.101   0.639  0.5871  0.2629  0.6866
22591SOL    HW171365   1.572   1.117   0.710  0.3456 -1.0540  0.7869
22591SOL    HW271366   1.581   1.065   0.568  1.1338 -0.2903  0.5498
22592SOL     OW71367   8.756   1.539   5.787 -0.0420 -0.8955  0.2544
22592SOL    HW171368   8.753   1.633   5.805 -0.7052 -0.6254 -1.1340
22592SOL    HW271369   8.719   1.499   5.866 -0.5006  0.0533  0.5411
22593SOL     OW71370   6.603   5.910   9.549 -0.3345 -0.1611  0.2357
22593SOL    HW171371   6.648   5.978   9.499 -1.3358 -0.3847 -1.0446
22593SOL    HW271372   6.535   5.956   9.598 -1.0641 -0.2257 -0.6924
22594SOL     OW71373   0.170   5.790   3.475  0.7117 -0.1735  0.1009
22594SOL    HW171374   0.163   5.835   3.560  1.1328 -0.2119  0.1582
22594SOL    HW271375   0.263   5.771   3.466  0.6197 -0.4711 -0.2188
22595SOL     OW71376   9.215   5.056   1.918 -0.1402 -0.1101 -0.1448
22595SOL    HW171377   9.210   5.134   1.972  1.2710  1.4612 -2.1393
22595SOL    HW271378   9.172   5.080   1.836  0.5223 -1.3264 -0.8878
22596SOL     OW71379   5.098   3.600   8.490  0.0012  0.0119 -0.1229
22596SOL    HW171380   5.033   3.615   8.559 -0.0170 -2.4895  0.5141
22596SOL    HW271381   5.078   3.665   8.423 -1.9864  0.4946  0.8703
22597SOL     OW71382   2.411   0.619   4.105  0.2055  0.1138  0.1091
22597SOL    HW171383   2.399   0.713   4.120 -0.4785  0.3091 -1.4617
22597SOL    HW271384   2.494   0.599   4.148  0.0438  1.2876  1.0321
22598SOL     OW71385   3.274   2.968   8.244 -0.3833 -0.3491 -0.3033
22598SOL    HW171386   3.192   3.010   8.270 -1.5307 -1.9779 -1.0960
22598SOL    HW271387   3.310   3.025   8.177 -1.8479 -0.5185 -1.2769
22599SOL     OW71388   3.333   2.542   3.957 -0.1721  0.0475  0.2088
22599SOL    HW171389   3.306   2.607   4.022 -4.7504  0.3862 -1.6989
22599SOL    HW271390   3.323   2.458   4.001 -1.3153  0.3532  0.5573
22600SOL     OW71391  10.603   1.033   7.141  0.6372 -0.2398  0.1366
22600SOL    HW171392  10.654   0.956   7.166 -0.2905 -1.0637 -0.4001
22600SOL    HW271393  10.643   1.064   7.060 -1.2763 -2.5625 -1.8675
22601SOL     OW71394   7.813   2.240   2.992  0.0514 -0.3090  0.0178
22601SOL    HW171395   7.793   2.288   2.911  0.3069 -0.2312 -0.0004
22601SOL    HW271396   7.771   2.291   3.061  1.2447  0.5673  0.1339
22602SOL     OW71397   1.640   7.099  11.094  0.1890  0.1726 -0.2140
22602SOL    HW171398   1.576   7.142  11.151 -0.6329 -0.4513 -0.6598
22602SOL    HW271399   1.595   7.089  11.010  0.6387 -0.8703 -0.3363
22603SOL     OW71400   5.873   4.521  10.906 -0.7064 -0.1174  0.1882
22603SOL    HW171401   5.824   4.488  10.831  3.3651 -0.8691 -2.4600
22603SOL    HW271402   5.914   4.443  10.944 -0.6074  0.5638  1.5345
22604SOL     OW71403  10.890   5.654   0.565 -0.3838  0.0567 -0.0919
22604SOL    HW171404  10.825   5.698   0.510 -1.5709 -0.1377  1.0962
22604SOL    HW271405  10.955   5.723   0.585  0.9440 -0.2519 -2.9179
22605SOL     OW71406  11.093   5.258   3.438  0.0492 -1.0404  0.1953
22605SOL    HW171407  11.120   5.234   3.349  1.4828  0.1254  0.2804
22605SOL    HW271408  11.134   5.192   3.494  0.7162 -0.6856  0.1294
22606SOL     OW71409   6.210  10.879   8.661 -0.4267 -0.2842 -0.2455
22606SOL    HW171410   6.288  10.863   8.714  0.0755  0.7844 -0.6415
22606SOL    HW271411   6.144  10.820   8.698 -0.0487  0.3285  1.4890
22607SOL     OW71412   2.535  10.003   4.542 -0.1992  0.4262 -0.0129
22607SOL    HW171413   2.544   9.952   4.462  0.8833  0.5443  0.0112
22607SOL    HW271414   2.593  10.078   4.529 -1.1146  1.2071  0.3024
22608SOL     OW71415   1.464   1.254   7.139  0.8378 -0.0115  0.7730
22608SOL    HW171416   1.513   1.217   7.213 -1.9462 -2.3906  1.6075
22608SOL    HW271417   1.428   1.336   7.173 -1.6836 -1.7950  2.7963
22609SOL     OW71418   4.799   3.534   1.667 -0.4879 -0.0002  0.0277
22609SOL    HW171419   4.734   3.479   1.625  0.3397 -1.1455  0.1979
22609SOL    HW271420   4.764   3.623   1.659 -0.1593 -0.0534 -3.5181
22610SOL     OW71421   2.551   9.106   1.065  0.8820  0.4180 -0.0938
22610SOL    HW171422   2.576   9.198   1.075  1.6853  0.2865 -0.7527
22610SOL    HW271423   2.619   9.069   1.009  0.2063 -0.4257 -0.3782
22611SOL     OW71424   6.032   9.274   6.331  0.0168  0.1674 -0.0460
22611SOL    HW171425   6.038   9.276   6.235  0.9376  0.4629  0.0156
22611SOL    HW271426   5.966   9.340   6.352  0.3979  0.6771 -0.4361
22612SOL     OW71427   2.589   3.992   0.940  0.4131  0.0674  0.4613
22612SOL    HW171428   2.591   4.071   0.993 -1.5440  0.6570 -0.2544
22612SOL    HW271429   2.524   4.010   0.872  0.4579 -1.8776 -0.1753
22613SOL     OW71430   7.052   1.853   4.861  0.6216  0.3077  0.1562
22613SOL    HW171431   7.047   1.760   4.837  0.7350  0.3417 -0.0006
22613SOL    HW271432   7.143   1.876   4.847  0.8556  0.1474  1.3046
22614SOL     OW71433   3.175   1.212   9.330  0.5966  0.3360 -0.0890
22614SOL    HW171434   3.197   1.217   9.237 -1.8445 -2.4396 -0.9778
22614SOL    HW271435   3.210   1.129   9.359 -0.0407  0.4376  1.0361
22615SOL     OW71436   2.529  10.895  10.131 -0.1218  0.3777 -0.3861
22615SOL    HW171437   2.533  10.977  10.180  0.1232 -0.0608  0.3382
22615SOL    HW271438   2.436  10.884  10.111 -0.0920  1.1019 -0.9639
22616SOL     OW71439   5.923   2.495   4.954  0.2685  0.6876 -0.5635
22616SOL    HW171440   5.853   2.560   4.948 -1.9004 -1.3085  1.3289
22616SOL    HW271441   5.896   2.425   4.894  0.3275 -0.3312  0.5666
22617SOL     OW71442   1.373   3.126   9.928  0.1282 -0.4722 -0.3127
22617SOL    HW171443   1.376   3.067   9.852 -1.2600  0.8321 -1.4304
22617SOL    HW271444   1.311   3.084   9.988  0.0610 -0.7534 -0.5745
22618SOL     OW71445   3.100   9.526   2.228  0.3589  0.0994 -0.2267
22618SOL    HW171446   3.079   9.477   2.307 -1.2435  1.5299  0.3091
22618SOL    HW271447   3.166   9.590   2.256 -0.6199  0.9776  0.1221
22619SOL     OW71448   1.062   5.243   0.491  0.5514  0.0886  0.0381
22619SOL    HW171449   1.155   5.265   0.501  0.9870 -1.2155 -0.7527
22619SOL    HW271450   1.043   5.264   0.400  0.2033 -0.0636  0.0762
22620SOL     OW71451   6.853  10.839  11.050  0.1648 -0.5005  0.1617
22620SOL    HW171452   6.804  10.915  11.018  0.6619 -0.7313 -1.2063
22620SOL    HW271453   6.893  10.869  11.131  0.4483  0.7430 -0.4082
22621SOL     OW71454   3.882   6.478   6.774  0.3728 -0.3397  0.3020
22621SOL    HW171455   3.908   6.564   6.808  0.7609 -1.1177  2.0560
22621SOL    HW271456   3.906   6.416   6.843  0.4476 -1.9250 -1.0743
22622SOL     OW71457   5.792   8.307   0.384 -0.8708 -0.3449  0.0827
22622SOL    HW171458   5.833   8.235   0.433 -3.4481 -0.2357  2.6573
22622SOL    HW271459   5.701   8.281   0.375 -1.3799  1.6289 -0.9471
22623SOL     OW71460   0.857   6.479   5.092 -0.1061 -0.7452  0.5094
22623SOL    HW171461   0.762   6.492   5.090 -0.2765 -1.9676  0.0250
22623SOL    HW271462   0.892   6.556   5.047 -0.9431 -0.8560 -0.3689
22624SOL     OW71463   6.119   2.250   3.367  0.0329 -0.1848  0.1963
22624SOL    HW171464   6.131   2.157   3.350 -0.8553 -0.1831 -0.5016
22624SOL    HW271465   6.049   2.254   3.432  1.6935 -0.0777  2.0907
22625SOL     OW71466   4.181  10.660   9.332 -0.1837  0.1141  0.2380
22625SOL    HW171467   4.129  10.731   9.296  1.1011  0.5247 -0.8571
22625SOL    HW271468   4.121  10.614   9.391 -1.9356  0.2679 -1.3490
22626SOL     OW71469   9.580   3.651   5.113 -0.2129  0.3098 -0.6188
22626SOL    HW171470   9.492   3.688   5.103 -0.1030  0.5313 -0.7838
22626SOL    HW271471   9.565   3.561   5.144 -0.4483  0.8403  0.8507
22627SOL     OW71472   3.716   1.006   5.868  0.2559 -0.2825 -0.4831
22627SOL    HW171473   3.659   1.070   5.910  1.3643 -0.0525  0.7330
22627SOL    HW271474   3.793   1.057   5.841  0.1881 -0.7023 -1.5334
22628SOL     OW71475   4.381   1.011   1.483  0.0088  0.3254  0.2084
22628SOL    HW171476   4.423   1.010   1.397  0.3389 -1.7198  0.3417
22628SOL    HW271477   4.306   1.070   1.473  0.9212  1.3346 -1.0031
22629SOL     OW71478   3.855   3.007   1.541 -0.3758  0.3123 -0.2814
22629SOL    HW171479   3.759   3.012   1.545 -0.3616  2.3013 -0.8667
22629SOL    HW271480   3.873   2.980   1.451 -0.3801  0.2669 -0.2688
22630SOL     OW71481   1.279   9.162   6.874 -0.4724  0.0393 -0.3003
22630SOL    HW171482   1.211   9.225   6.895 -1.5555 -1.2204  0.0573
22630SOL    HW271483   1.239   9.076   6.887  0.5476 -0.7757 -2.0337
22631SOL     OW71484   4.269   2.418   5.940 -0.1356 -0.8271 -0.4165
22631SOL    HW171485   4.344   2.367   5.969 -0.2277 -0.9060 -0.3185
22631SOL    HW271486   4.207   2.354   5.905 -0.3582 -0.8081 -0.0585
22632SOL     OW71487   8.057   5.588   8.766 -0.0770  0.2299  0.1944
22632SOL    HW171488   8.101   5.632   8.693 -1.3450 -1.7403 -1.8878
22632SOL    HW271489   8.120   5.522   8.795  0.2553  0.7236  0.6155
22633SOL     OW71490   6.958   3.343   0.414 -0.1724  0.2910 -0.0428
22633SOL    HW171491   6.960   3.330   0.319  2.9865 -0.2064 -0.0039
22633SOL    HW271492   6.925   3.260   0.449 -1.1039  0.3887 -0.6428
22634SOL     OW71493   6.259   0.638   7.294 -0.3894  1.0768  0.6783
22634SOL    HW171494   6.255   0.600   7.206  1.9802 -0.8919  1.2970
22634SOL    HW271495   6.192   0.591   7.343  2.3791 -2.6681  1.3875
22635SOL     OW71496   4.560   4.480   0.956 -0.1308 -0.1723  0.6204
22635SOL    HW171497   4.477   4.439   0.931 -0.3528  1.0083 -0.7199
22635SOL    HW271498   4.626   4.412   0.944 -0.7328 -0.7118  0.3253
22636SOL     OW71499   3.229   2.764   0.924 -0.5078 -0.0135  0.0843
22636SOL    HW171500   3.269   2.677   0.920 -0.1645  0.0333  1.7695
22636SOL    HW271501   3.287   2.820   0.873 -0.4817 -0.6550 -0.6205
22637SOL     OW71502   5.171   8.305  10.718  0.0552  0.1874 -0.1162
22637SOL    HW171503   5.201   8.254  10.793  0.9016 -0.0115 -0.5794
22637SOL    HW271504   5.084   8.336  10.744  0.1423 -0.2569  0.7585
22638SOL     OW71505  10.488  10.484   7.860 -0.2837 -0.1703  0.2035
22638SOL    HW171506  10.555  10.545   7.892  0.3892 -0.1890 -1.1266
22638SOL    HW271507  10.536  10.420   7.809 -0.9561 -1.9602  1.6948
22639SOL     OW71508   2.923   7.004   3.972  0.1207  0.0410  0.0667
22639SOL    HW171509   2.954   7.065   4.039  1.9796 -0.9416  0.1675
22639SOL    HW271510   2.986   7.013   3.900 -2.1214  1.4692 -1.8844
22640SOL     OW71511   1.230   1.731  10.874 -0.2941  0.1456 -0.3023
22640SOL    HW171512   1.165   1.698  10.935  1.3430 -1.4358  0.6984
22640SOL    HW271513   1.236   1.663  10.806  0.8177 -0.1342  0.0434
22641SOL     OW71514   5.509   7.000   4.221  0.0834  0.4484 -0.0544
22641SOL    HW171515   5.436   7.020   4.280  1.4727 -0.4829  2.1145
22641SOL    HW271516   5.573   7.069   4.240  0.2292  0.6289 -1.1457
22642SOL     OW71517   3.817   4.294   0.628 -0.1826  0.0546  0.1838
22642SOL    HW171518   3.804   4.378   0.585  0.7916 -0.5487 -1.3626
22642SOL    HW271519   3.882   4.249   0.575 -2.2622 -2.6020 -0.3591
22643SOL     OW71520   4.041   9.603   5.388 -0.3426  0.1532 -0.1336
22643SOL    HW171521   4.064   9.694   5.366  0.0113  0.0381 -0.2523
22643SOL    HW271522   3.946   9.604   5.400 -0.3022  0.6026  0.1630
22644SOL     OW71523   1.994   4.494   0.152 -0.9179  0.0466  0.0597
22644SOL    HW171524   2.031   4.410   0.124 -0.9416 -0.2319  0.8446
22644SOL    HW271525   1.900   4.481   0.145 -0.9821 -0.5416  1.6723
22645SOL     OW71526   3.608   9.766   1.389  0.6456 -0.6408  0.1181
22645SOL    HW171527   3.632   9.807   1.305 -0.1997 -0.9783 -0.3020
22645SOL    HW271528   3.692   9.753   1.434  1.0709 -0.0229 -0.4712
22646SOL     OW71529   8.318   1.675   4.109  0.2954  0.1929  0.1287
22646SOL    HW171530   8.226   1.674   4.137  0.0685 -0.4703 -0.5932
22646SOL    HW271531   8.349   1.762   4.133 -0.6781  0.6222 -0.0954
22647SOL     OW71532  10.616   8.520   4.750 -0.6200  0.2714 -0.2806
22647SOL    HW171533  10.626   8.571   4.831  1.5307 -0.7781  0.1874
22647SOL    HW271534  10.594   8.432   4.780  0.1876 -0.1249 -0.8049
22648SOL     OW71535   5.965   9.988   9.557  0.1080 -0.2319  0.0304
22648SOL    HW171536   5.989  10.079   9.577  1.0080 -0.2855 -0.6898
22648SOL    HW271537   5.926   9.993   9.470 -2.4453 -0.1813  1.1092
22649SOL     OW71538   0.032   0.462   8.127  0.2057 -0.6816 -0.6328
22649SOL    HW171539  -0.048   0.469   8.179  0.6019  1.8603 -0.2375
22649SOL    HW271540   0.001   0.451   8.037 -0.5605 -1.1794 -0.3200
22650SOL     OW71541   7.208   8.103   6.782 -0.1134  0.6466 -0.7353
22650SOL    HW171542   7.234   8.135   6.695 -1.1750  0.5882 -1.0875
22650SOL    HW271543   7.203   8.182   6.836 -2.5399  1.1425 -1.5551
22651SOL     OW71544  10.063   9.305   8.478  0.0367  0.0870  0.2017
22651SOL    HW171545  10.026   9.218   8.495 -0.3869  0.0903 -0.6720
22651SOL    HW271546  10.156   9.295   8.497  0.3651 -1.0946 -1.6967
22652SOL     OW71547   4.092   3.382   1.765 -0.0965 -0.6234  0.1385
22652SOL    HW171548   4.036   3.338   1.702  0.1205 -1.2112  0.3503
22652SOL    HW271549   4.179   3.382   1.725 -0.0519 -0.5837  0.2334
22653SOL     OW71550   2.940   1.790   9.657 -0.0229  0.0876 -0.0213
22653SOL    HW171551   2.925   1.700   9.686  0.5606  0.1112  0.3717
22653SOL    HW271552   2.979   1.781   9.570  0.3391 -0.0513  0.1540
22654SOL     OW71553   9.695   4.505   7.919  0.0942  0.5425 -0.0444
22654SOL    HW171554   9.708   4.431   7.979 -1.0302 -0.0332 -0.4859
22654SOL    HW271555   9.665   4.577   7.975 -2.0134 -0.3020 -0.0121
22655SOL     OW71556   8.293   5.446   8.865 -0.1011 -0.3505  0.2044
22655SOL    HW171557   8.382   5.451   8.899 -1.1667  2.9130  3.0821
22655SOL    HW271558   8.242   5.409   8.936 -1.1976 -1.7571 -1.2456
22656SOL     OW71559   8.511   0.643   6.328  0.1068 -0.1100  0.0656
22656SOL    HW171560   8.523   0.735   6.353  0.2103 -0.3999  1.1132
22656SOL    HW271561   8.456   0.647   6.250 -0.4497  0.8094  0.4869
22657SOL     OW71562   2.684   6.707   3.542 -0.3772 -0.8311 -0.0517
22657SOL    HW171563   2.716   6.773   3.603 -3.2573  0.6580  0.0205
22657SOL    HW271564   2.678   6.627   3.595 -0.8869 -0.0758  1.0744
22658SOL     OW71565   4.899   4.526   1.864  0.3104 -0.9145  0.2087
22658SOL    HW171566   4.966   4.594   1.867  0.6402 -1.1214 -1.6104
22658SOL    HW271567   4.821   4.567   1.901  0.0121  1.0891 -2.3863
22659SOL     OW71568   1.536   4.831   8.541 -0.1253  0.0299  0.1522
22659SOL    HW171569   1.444   4.827   8.513 -0.3388 -2.4071  0.9736
22659SOL    HW271570   1.532   4.864   8.631 -0.2061 -0.2206  0.2399
22660SOL     OW71571   5.673   5.503   1.235  0.3422  0.5112  0.6084
22660SOL    HW171572   5.583   5.536   1.226  1.5153  3.7493 -1.1393
22660SOL    HW271573   5.720   5.575   1.277  2.0130 -1.5158  2.4339
22661SOL     OW71574   4.341   8.638   3.973  0.3111 -0.1756 -0.5898
22661SOL    HW171575   4.269   8.591   4.014 -0.2242  0.2979 -0.9671
22661SOL    HW271576   4.310   8.728   3.967  0.8153 -0.0254 -1.0237
22662SOL     OW71577  10.261   7.697   9.772 -0.1473 -0.4963 -0.3062
22662SOL    HW171578  10.345   7.743   9.763 -1.2372  1.3109 -2.3216
22662SOL    HW271579  10.199   7.765   9.800 -1.7449 -0.6424 -3.0472
22663SOL     OW71580   2.374   0.048  10.716 -0.3216  0.1984  0.6558
22663SOL    HW171581   2.311   0.037  10.788 -1.1856  2.3045  0.2783
22663SOL    HW271582   2.326   0.021  10.638 -0.4651  0.9237  0.4854
22664SOL     OW71583   4.289   8.040   9.999  0.0791  0.8301  0.1507
22664SOL    HW171584   4.215   8.034  10.060 -1.8102  0.6981 -1.9967
22664SOL    HW271585   4.270   7.975   9.932  1.6587  1.4667 -0.9748
22665SOL     OW71586   1.998   9.010   3.961  0.4144  0.5415 -0.0778
22665SOL    HW171587   1.983   8.961   3.880 -0.3055 -0.8526  0.8644
22665SOL    HW271588   2.088   8.988   3.986  0.2699  0.1110  0.0675
22666SOL     OW71589  10.691   0.719   8.083 -0.1547 -0.0382  0.3296
22666SOL    HW171590  10.669   0.732   8.175 -3.0864 -0.9068 -0.1523
22666SOL    HW271591  10.697   0.807   8.047 -1.6687  0.3099  0.8460
22667SOL     OW71592   4.069   0.977   9.835 -0.5437  0.3399  0.1474
22667SOL    HW171593   3.987   0.955   9.791 -0.3012 -0.6290  0.1642
22667SOL    HW271594   4.066   0.928   9.917  0.2644 -0.0963 -0.0743
22668SOL     OW71595   0.134   7.363   4.502  0.6018  0.1102 -0.6398
22668SOL    HW171596   0.063   7.385   4.442  1.8162  0.2155 -2.0644
22668SOL    HW271597   0.202   7.428   4.485  1.0971 -0.0416  0.6413
22669SOL     OW71598   2.374   0.242   2.262 -0.2339  0.5012  0.3464
22669SOL    HW171599   2.360   0.268   2.170  0.2171 -3.1386 -0.9183
22669SOL    HW271600   2.361   0.147   2.262  0.6734  0.2427  3.9206
22670SOL     OW71601   4.147   6.956   9.758 -0.0551  0.6113  0.0834
22670SOL    HW171602   4.133   6.862   9.759 -1.4553  0.7910  1.5664
22670SOL    HW271603   4.228   6.968   9.709 -0.5283 -1.2423 -1.2801
22671SOL     OW71604   4.447   1.892   6.814  0.0441 -0.1155 -0.4577
22671SOL    HW171605   4.491   1.956   6.870 -1.1161  0.8002 -0.5623
22671SOL    HW271606   4.405   1.944   6.746 -0.7615 -1.0090 -0.6640
22672SOL     OW71607   6.735   6.824   3.247  0.6987 -0.4145 -0.1186
22672SOL    HW171608   6.822   6.784   3.241 -0.0814 -2.2058 -0.0511
22672SOL    HW271609   6.718   6.830   3.341  1.5028  1.7624 -0.0542
22673SOL     OW71610   3.084   7.536   8.705  0.3893  0.2859 -0.3223
22673SOL    HW171611   3.005   7.550   8.756 -1.0693  3.5379 -3.1268
22673SOL    HW271612   3.156   7.549   8.767 -1.2200  0.1999  1.6562
22674SOL     OW71613   3.095   8.976   8.045  0.2307 -0.5294 -0.2006
22674SOL    HW171614   3.090   9.072   8.041 -1.1111 -0.5489  0.4686
22674SOL    HW271615   3.044   8.952   8.122 -1.4163 -1.9091 -1.6407
22675SOL     OW71616   7.169   8.670   7.523 -0.3595  0.2862  0.0338
22675SOL    HW171617   7.161   8.725   7.445 -0.2773 -0.4696 -0.5177
22675SOL    HW271618   7.103   8.603   7.511  0.7994 -0.8451 -0.2430
22676SOL     OW71619   8.347   1.121   1.132 -0.2377  0.1561 -0.3015
22676SOL    HW171620   8.338   1.161   1.218  1.4053 -0.4165  0.1621
22676SOL    HW271621   8.403   1.181   1.083  1.7034 -1.1502  0.1876
22677SOL     OW71622   9.385   0.288   4.705  0.4694 -0.1802  0.0018
22677SOL    HW171623   9.304   0.253   4.668  1.2488 -1.2206 -0.7837
22677SOL    HW271624   9.435   0.319   4.629  0.8210  0.4228  0.4721
22678SOL     OW71625   7.008   6.785   5.026  0.0994  0.8452  0.2437
22678SOL    HW171626   7.016   6.863   5.082 -1.7158  2.1842 -1.2627
22678SOL    HW271627   7.000   6.820   4.938  0.5616 -1.1484 -0.6369
22679SOL     OW71628   2.728   2.398   7.978 -0.0610  0.6051 -0.1748
22679SOL    HW171629   2.656   2.416   8.038  0.3132  0.5655  0.2969
22679SOL    HW271630   2.708   2.448   7.900 -0.6510  0.5099 -0.0876
22680SOL     OW71631   9.919   2.270  10.225 -0.5167  0.0549 -0.1221
22680SOL    HW171632   9.927   2.349  10.171 -0.9402  0.1511 -0.0454
22680SOL    HW271633   9.937   2.198  10.164 -0.5960  0.1846 -0.3020
22681SOL     OW71634   8.092   4.425   1.640  0.7467 -0.7351 -0.2851
22681SOL    HW171635   8.045   4.379   1.709  2.3948  0.9708  2.1652
22681SOL    HW271636   8.184   4.402   1.654  1.4662  2.0062  0.1607
22682SOL     OW71637   8.722   7.369   1.841 -0.5380  0.5903 -0.4338
22682SOL    HW171638   8.661   7.381   1.768  0.3428  0.1743 -1.2525
22682SOL    HW271639   8.755   7.281   1.830 -1.6991 -0.1608  1.5047
22683SOL     OW71640   5.637   4.150   1.301 -0.1044  0.1357  0.1221
22683SOL    HW171641   5.690   4.229   1.285 -0.9387  1.4389  3.1363
22683SOL    HW271642   5.657   4.126   1.391 -2.2685 -1.2441  0.2928
22684SOL     OW71643   4.844   5.113   3.956  0.3454  0.2092  0.0358
22684SOL    HW171644   4.762   5.148   3.991 -0.0343  0.1790 -0.7943
22684SOL    HW271645   4.884   5.187   3.910  1.3472  0.5359  1.3567
22685SOL     OW71646   9.310   3.378   8.720  0.0792 -0.3569  0.3067
22685SOL    HW171647   9.316   3.411   8.810  2.5311  0.7387 -0.1614
22685SOL    HW271648   9.300   3.284   8.729  0.1039 -0.2402  1.7433
22686SOL     OW71649   3.755  10.566   4.164  0.3126 -0.4753  0.1911
22686SOL    HW171650   3.819  10.528   4.223  1.6340 -0.4536 -1.1753
22686SOL    HW271651   3.738  10.653   4.200  2.6304  0.3334 -0.4900
22687SOL     OW71652   0.905   7.570   3.883 -0.1386  1.1409 -0.4586
22687SOL    HW171653   0.973   7.606   3.826 -0.5461  1.1874 -0.9236
22687SOL    HW271654   0.898   7.478   3.857  1.0114  0.6567  0.8347
22688SOL     OW71655   9.175   6.122   6.452  0.4057  0.1740  0.3830
22688SOL    HW171656   9.132   6.043   6.484  0.0361  0.4907  0.6860
22688SOL    HW271657   9.136   6.193   6.503 -0.7348  0.7806 -1.2420
22689SOL     OW71658   0.555  10.541   1.513 -0.3404 -0.1844  0.0853
22689SOL    HW171659   0.461  10.530   1.528 -0.6268  0.9753 -0.7305
22689SOL    HW271660   0.591  10.556   1.601 -1.2151  1.3013  0.2273
22690SOL     OW71661   8.036   7.020   7.581 -0.3497  0.0544 -0.2191
22690SOL    HW171662   8.047   6.951   7.515  1.4655 -1.1810  1.2726
22690SOL    HW271663   8.109   7.080   7.566  0.4730 -0.6046  1.0639
22691SOL     OW71664   3.704   8.198   7.095 -0.4405  0.5384 -0.3101
22691SOL    HW171665   3.631   8.230   7.147 -1.8926 -0.4116 -1.6605
22691SOL    HW271666   3.747   8.278   7.063 -1.1858  1.1155  0.0956
22692SOL     OW71667   9.995   1.862  10.277  0.2754 -0.0615 -0.0358
22692SOL    HW171668  10.021   1.804  10.348 -0.7582  0.2943  0.6395
22692SOL    HW271669   9.914   1.903  10.306  2.3428  3.9552  0.8598
22693SOL     OW71670   5.012   5.062   9.365  0.0589  0.2388  0.3701
22693SOL    HW171671   5.094   5.090   9.404  0.1150 -0.2921  0.6402
22693SOL    HW271672   4.948   5.129   9.392  0.5914  1.2368 -0.7116
22694SOL     OW71673   1.207  10.539   1.637 -0.0817  0.6073 -0.3459
22694SOL    HW171674   1.196  10.512   1.546  1.6192  1.7951 -0.9586
22694SOL    HW271675   1.124  10.581   1.660 -0.7340 -0.2106 -1.1522
22695SOL     OW71676   2.678   3.917   8.668  0.6292  0.5827 -0.0211
22695SOL    HW171677   2.756   3.918   8.612  1.7427 -1.1549  1.4097
22695SOL    HW271678   2.710   3.942   8.754 -0.6588  1.0462  0.3457
22696SOL     OW71679   4.963   6.448  10.047  0.5877 -0.0322 -0.4061
22696SOL    HW171680   5.044   6.472  10.001  0.2020  0.9352 -0.5910
22696SOL    HW271681   4.972   6.354  10.062  1.4994 -0.0437 -0.9229
22697SOL     OW71682   9.087   0.139   6.359  0.0379  0.5615 -0.5054
22697SOL    HW171683   9.167   0.086   6.360 -0.1772  0.2404 -0.4505
22697SOL    HW271684   9.055   0.132   6.269 -1.3689 -1.4700  0.0952
22698SOL     OW71685   3.644   9.350   9.329 -0.0374 -0.1489 -0.0355
22698SOL    HW171686   3.600   9.430   9.358 -0.7150 -0.6749  0.4094
22698SOL    HW271687   3.670   9.307   9.410 -0.0448 -0.5833 -0.2639
22699SOL     OW71688   7.777   4.987   9.147 -0.3540  0.8079  0.6091
22699SOL    HW171689   7.772   5.047   9.221 -0.9856  0.6697  0.6837
22699SOL    HW271690   7.802   5.041   9.073 -0.3394  1.0567  0.7950
22700SOL     OW71691   3.306   5.945  10.871 -0.2749 -0.1278 -0.3539
22700SOL    HW171692   3.332   6.026  10.915 -0.1208 -0.7317  0.6950
22700SOL    HW271693   3.210   5.943  10.879 -0.1567 -0.9151  1.2304
22701SOL     OW71694   1.721   0.094   6.647  0.5805 -0.0112 -0.0526
22701SOL    HW171695   1.740   0.182   6.615  0.5644 -0.0801 -0.2507
22701SOL    HW271696   1.804   0.047   6.641  0.7158  0.1437  0.5531
22702SOL     OW71697   7.008   3.723   0.690 -0.2191  0.3870  0.0728
22702SOL    HW171698   7.055   3.647   0.655  1.1518  1.8906 -1.5231
22702SOL    HW271699   6.934   3.734   0.631  0.6694  1.4039 -0.8921
22703SOL     OW71700   2.172   7.795   6.556 -0.3479  0.4403  0.0610
22703SOL    HW171701   2.237   7.725   6.558 -0.3718  0.4311  0.6893
22703SOL    HW271702   2.195   7.847   6.480  1.5741  1.5504  1.3451
22704SOL     OW71703  10.954   2.114   4.324 -0.2369  0.6571 -0.4324
22704SOL    HW171704  11.044   2.147   4.325  0.5369 -1.2938 -0.8770
22704SOL    HW271705  10.923   2.126   4.414  0.5613  1.1257 -0.2107
22705SOL     OW71706   7.911   4.562   3.910 -0.3034  0.5388 -0.6036
22705SOL    HW171707   7.897   4.469   3.931  0.9371  0.4147 -0.2370
22705SOL    HW271708   8.006   4.570   3.903 -0.3117  2.0557  0.6387
22706SOL     OW71709   6.109   4.210   4.904 -0.2231 -0.0158 -0.1431
22706SOL    HW171710   6.151   4.268   4.841  1.3900 -1.7755 -0.7914
22706SOL    HW271711   6.172   4.203   4.975 -0.0327 -1.5367 -0.4292
22707SOL     OW71712   3.852   2.308   5.860  0.8699 -0.3183 -0.1314
22707SOL    HW171713   3.915   2.307   5.789  1.3400 -0.5310  0.2814
22707SOL    HW271714   3.905   2.299   5.939  0.3012 -0.7867  0.2039
22708SOL     OW71715   3.034   7.689  10.599  0.3380 -0.0686  0.2881
22708SOL    HW171716   3.093   7.748  10.646  0.1256 -0.5765  1.2103
22708SOL    HW271717   2.962   7.745  10.569  0.4547  0.2539  0.6081
22709SOL     OW71718   4.092   8.865   4.446 -0.0930  0.5054 -0.0200
22709SOL    HW171719   4.043   8.893   4.523 -1.7284  0.8468 -1.1390
22709SOL    HW271720   4.050   8.784   4.419  0.8688  0.0567 -0.1980
22710SOL     OW71721   9.343   8.123   4.020  0.9999 -0.3525  0.2929
22710SOL    HW171722   9.427   8.089   3.991  1.2745 -0.0976  0.7842
22710SOL    HW271723   9.327   8.079   4.103  0.2254 -1.0622 -0.2051
22711SOL     OW71724   7.342   6.314   5.435 -0.1612 -0.2698  0.1255
22711SOL    HW171725   7.401   6.355   5.498  0.6039 -0.2465 -0.6030
22711SOL    HW271726   7.303   6.387   5.387  2.2341 -0.3277 -2.1251
22712SOL     OW71727   5.382   2.025   7.725 -0.0096 -0.4018 -0.3864
22712SOL    HW171728   5.383   2.089   7.796 -0.4921  0.8728 -1.5013
22712SOL    HW271729   5.447   2.057   7.663  2.3846 -2.9154  0.6084
22713SOL     OW71730   2.955   3.022   6.550  0.1281 -0.3512 -0.0957
22713SOL    HW171731   2.921   3.104   6.585  1.5312  0.8780 -1.5064
22713SOL    HW271732   3.032   3.004   6.604  0.3777 -0.2334 -0.4155
22714SOL     OW71733   0.171   4.716   5.296  0.2682  0.1218  0.3014
22714SOL    HW171734   0.189   4.798   5.342 -1.4453  0.6155  0.1882
22714SOL    HW271735   0.088   4.733   5.250  0.7309 -1.1298 -1.0748
22715SOL     OW71736   0.632   4.791   7.875 -0.1759 -0.3913  0.6350
22715SOL    HW171737   0.720   4.791   7.913 -0.0145 -0.0485  0.2631
22715SOL    HW271738   0.637   4.853   7.803 -0.3789 -1.3097 -0.1912
22716SOL     OW71739   7.625   9.208   7.803  0.2507 -0.4106  0.5300
22716SOL    HW171740   7.677   9.243   7.730  0.6309  3.0985  2.2802
22716SOL    HW271741   7.534   9.227   7.780  0.4915  3.6562  2.0716
22717SOL     OW71742   5.260   1.492   4.979  0.4843 -0.3574 -0.2076
22717SOL    HW171743   5.329   1.429   4.999  0.7441  0.1840  0.6383
22717SOL    HW271744   5.290   1.574   5.019  0.0242  0.2382 -1.0549
22718SOL     OW71745   3.952   2.115   8.209  0.7873 -0.1596 -0.7252
22718SOL    HW171746   3.959   2.020   8.198 -0.5716 -0.2897 -0.5692
22718SOL    HW271747   3.892   2.143   8.140 -1.3946  0.1205  1.1893
22719SOL     OW71748   8.141  10.511   8.406  0.1607  0.4176  0.8971
22719SOL    HW171749   8.192  10.590   8.385  0.6651  0.0577  0.7441
22719SOL    HW271750   8.100  10.530   8.490  1.4177  0.3053  1.5554
22720SOL     OW71751   3.413   6.291   7.298  0.3555 -0.0333 -0.1211
22720SOL    HW171752   3.392   6.203   7.266 -2.4120  0.7440 -0.6737
22720SOL    HW271753   3.420   6.280   7.393 -1.0894 -0.6791 -0.0711
22721SOL     OW71754   6.572   3.214   0.939  0.3048 -0.4195 -0.2590
22721SOL    HW171755   6.498   3.187   0.883 -0.0246  2.7803 -1.5703
22721SOL    HW271756   6.638   3.147   0.924 -1.5180 -2.2193 -0.7438
22722SOL     OW71757   6.716   5.483   3.930  0.1032 -0.2538 -0.5816
22722SOL    HW171758   6.775   5.407   3.938 -0.2249 -0.3866  0.9816
22722SOL    HW271759   6.765   5.555   3.970 -0.8655 -0.4348  1.0141
22723SOL     OW71760   6.437   3.593  10.126 -0.4042 -0.1153  0.3112
22723SOL    HW171761   6.502   3.537  10.169 -1.9521 -2.0015  0.3110
22723SOL    HW271762   6.353   3.564  10.161 -1.4308  0.8181 -1.2605
22724SOL     OW71763   6.043   8.224   5.059  0.1351 -0.3087  0.2078
22724SOL    HW171764   6.125   8.206   5.012  2.2717  1.3148  2.9788
22724SOL    HW271765   6.035   8.319   5.058  0.1996 -0.2073  2.8033
22725SOL     OW71766   8.415   0.669   1.097 -0.4105  0.5652 -0.1500
22725SOL    HW171767   8.488   0.680   1.157 -0.0878  0.0627 -0.4460
22725SOL    HW271768   8.395   0.758   1.068  1.0850  0.5924 -1.2293
22726SOL     OW71769   3.307   9.472   2.758 -0.1445 -0.4730 -0.5368
22726SOL    HW171770   3.383   9.517   2.795 -0.1951 -0.8168 -0.0149
22726SOL    HW271771   3.251   9.453   2.833 -1.2415  0.6908 -1.0256
22727SOL     OW71772   6.614   4.029   2.341 -0.2333 -0.1331 -0.1989
22727SOL    HW171773   6.539   3.982   2.379 -1.1408 -0.6421 -2.4646
22727SOL    HW271774   6.690   3.989   2.383 -1.1565 -0.3287  1.3929
22728SOL     OW71775   7.513   7.789   9.460  0.0780 -0.2413  0.1365
22728SOL    HW171776   7.520   7.718   9.397 -0.0003 -0.3423  0.2394
22728SOL    HW271777   7.426   7.826   9.445 -0.0720 -0.4769  0.4030
22729SOL     OW71778   6.458   5.511   7.834  0.0431 -0.0291 -0.3298
22729SOL    HW171779   6.495   5.538   7.919  0.1681  0.5933 -0.5765
22729SOL    HW271780   6.376   5.560   7.827 -1.5472 -2.3558  0.7924
22730SOL     OW71781   9.124   8.744   0.286  0.2562  0.1216  0.0221
22730SOL    HW171782   9.147   8.811   0.222 -1.2852 -0.2693 -1.0204
22730SOL    HW271783   9.052   8.783   0.336 -2.9487 -1.7181 -2.7050
22731SOL     OW71784   7.997   4.394   3.095  0.5264  0.3350  0.6336
22731SOL    HW171785   7.944   4.320   3.069  1.0457  0.0029  0.4964
22731SOL    HW271786   8.043   4.420   3.015  3.3849 -1.7205  1.4354
22732SOL     OW71787   5.018   3.308  10.018 -0.3064 -0.0381  0.5926
22732SOL    HW171788   5.063   3.388  10.047 -1.8352  1.3147 -0.6053
22732SOL    HW271789   5.010   3.256  10.098 -0.7037  1.7178  1.7698
22733SOL     OW71790   4.825   0.307   4.601 -0.1128  0.0814  0.0864
22733SOL    HW171791   4.810   0.213   4.615 -1.1210  0.2456  0.1744
22733SOL    HW271792   4.874   0.336   4.678 -0.9869 -0.1001  0.7209
22734SOL     OW71793   3.151   2.780  10.145 -0.6299  0.4863  0.6058
22734SOL    HW171794   3.186   2.851  10.091  0.1771  0.1103  0.6198
22734SOL    HW271795   3.162   2.812  10.235 -0.7343  0.5554  0.5937
22735SOL     OW71796   5.710   9.292   5.747  0.2869  0.5388 -0.8638
22735SOL    HW171797   5.697   9.197   5.755 -0.5291  0.6605 -0.6473
22735SOL    HW271798   5.743   9.319   5.833  0.5122  0.4500 -0.9232
22736SOL     OW71799   5.426  10.256   6.253 -0.2797  0.1607 -0.2504
22736SOL    HW171800   5.490  10.314   6.293 -0.5305 -0.9740  1.9439
22736SOL    HW271801   5.341  10.294   6.277 -0.4359 -0.5465  0.3426
22737SOL     OW71802   8.629   8.341   2.513  0.0729  0.0874 -0.3582
22737SOL    HW171803   8.614   8.265   2.570  0.3506  0.6072  0.4116
22737SOL    HW271804   8.572   8.409   2.548 -1.7236 -0.3071 -2.2519
22738SOL     OW71805   4.265   2.816   2.866 -0.3396 -0.4848 -0.9390
22738SOL    HW171806   4.322   2.891   2.846 -1.7177  0.9603  0.2861
22738SOL    HW271807   4.306   2.776   2.943 -1.6889  1.5063  0.9476
22739SOL     OW71808   7.764   7.866   6.356 -0.0388 -0.1155 -0.0715
22739SOL    HW171809   7.837   7.895   6.302 -0.7302 -0.4238 -1.2221
22739SOL    HW271810   7.774   7.771   6.361 -0.6211 -0.2159 -0.6597
22740SOL     OW71811   1.776  10.740   8.420 -0.0408 -0.1251  0.1093
22740SOL    HW171812   1.713  10.689   8.470 -1.2390 -0.0449 -1.2574
22740SOL    HW271813   1.862  10.711   8.451 -0.7385 -0.6487  1.5965
22741SOL     OW71814   9.552   9.408   3.209 -0.4190 -0.0395  0.1037
22741SOL    HW171815   9.528   9.492   3.249 -1.9591 -0.7508  0.7579
22741SOL    HW271816   9.648   9.410   3.204 -0.3424  1.1665  1.4224
22742SOL     OW71817   9.189   6.596   1.603 -0.6323  0.4493  0.0996
22742SOL    HW171818   9.179   6.612   1.697  2.5003  1.2608  0.4150
22742SOL    HW271819   9.101   6.607   1.567 -2.4796 -2.2695  3.1844
22743SOL     OW71820   5.382   0.891   6.341 -0.5689 -0.5041  0.3018
22743SOL    HW171821   5.455   0.947   6.316  0.5023 -1.9841 -0.0304
22743SOL    HW271822   5.309   0.951   6.353  0.6520  1.0134  0.4966
22744SOL     OW71823   4.846   4.044   4.595 -0.2934 -0.3682  0.1156
22744SOL    HW171824   4.877   4.117   4.540 -1.8927  0.6744  0.5136
22744SOL    HW271825   4.923   4.019   4.647  0.3711  0.8533 -0.2321
22745SOL     OW71826   4.077   8.211   1.810 -0.3561  0.3104  0.4412
22745SOL    HW171827   4.059   8.207   1.904 -0.5962 -0.0922  0.3780
22745SOL    HW271828   4.028   8.288   1.780 -0.7566  0.1006  0.5450
22746SOL     OW71829  10.719   8.121  10.030  0.2719 -0.0859  0.0174
22746SOL    HW171830  10.699   8.190  10.094  1.8345 -1.6046  2.2961
22746SOL    HW271831  10.687   8.041  10.070 -0.1310 -0.9246 -1.8830
22747SOL     OW71832   8.736   3.719   9.019  0.1008  0.5038  0.3958
22747SOL    HW171833   8.712   3.631   9.047  0.1495  0.7563  1.2528
22747SOL    HW271834   8.701   3.776   9.088 -2.4184  1.4151 -1.4693
22748SOL     OW71835   3.559   7.008   7.416  0.2319  0.3197  0.1757
22748SOL    HW171836   3.614   6.930   7.425 -0.6484 -0.5904 -1.6648
22748SOL    HW271837   3.551   7.020   7.321 -1.7445  1.1340  0.4054
22749SOL     OW71838   8.709   6.457   2.969  0.0107 -0.2885  0.2790
22749SOL    HW171839   8.710   6.364   2.946 -2.0461 -0.2585 -0.2009
22749SOL    HW271840   8.708   6.502   2.884 -1.9109  0.0230  0.4092
22750SOL     OW71841   8.633   7.915   7.603 -0.3687  0.4482 -0.6034
22750SOL    HW171842   8.625   7.953   7.516 -0.2236 -1.1020 -1.3219
22750SOL    HW271843   8.727   7.918   7.621 -0.4493  1.2145 -0.2812
22751SOL     OW71844  10.312   8.871   5.033  0.8397 -0.1412  0.4993
22751SOL    HW171845  10.360   8.867   5.116  1.2663 -0.6227  0.2341
22751SOL    HW271846  10.301   8.965   5.017 -0.6326 -0.0486  1.8780
22752SOL     OW71847   8.957   6.798   7.092 -0.9203  0.0233 -0.0839
22752SOL    HW171848   9.024   6.749   7.045 -1.0777 -0.0096 -0.2777
22752SOL    HW271849   8.917   6.734   7.150  0.3461  0.4204  1.2867
22753SOL     OW71850   2.707   1.203   0.407  0.3758 -0.5887  0.2964
22753SOL    HW171851   2.616   1.182   0.426 -0.0123  0.0335 -0.7496
22753SOL    HW271852   2.731   1.269   0.472 -0.3786  0.2874 -0.2981
22754SOL     OW71853   2.997   8.459   4.107  0.2416  0.2430 -0.4134
22754SOL    HW171854   3.016   8.546   4.072 -2.3904  0.2606 -2.1016
22754SOL    HW271855   2.909   8.467   4.144 -0.4383 -1.8819 -1.4139
22755SOL     OW71856   7.957   0.123   8.688  0.1308 -0.8133  0.2865
22755SOL    HW171857   7.951   0.030   8.665 -0.3503 -0.4365 -1.2380
22755SOL    HW271858   7.893   0.134   8.759 -0.8435 -1.3800 -0.4812
22756SOL     OW71859  10.979   6.468   2.601  0.0091  0.4706  0.2112
22756SOL    HW171860  10.925   6.401   2.642 -0.1821 -0.5067 -1.5559
22756SOL    HW271861  11.062   6.463   2.647 -0.3561 -0.2318  0.8194
22757SOL     OW71862   3.896   6.300   6.578  0.1178  0.0316 -0.1512
22757SOL    HW171863   3.876   6.373   6.637  1.9488 -0.0566  0.6491
22757SOL    HW271864   3.814   6.250   6.573 -0.9609  1.7368 -0.1551
22758SOL     OW71865   2.602   1.057  10.554  0.3448 -0.2069 -0.2678
22758SOL    HW171866   2.557   1.051  10.638 -1.1440  1.8013 -0.8385
22758SOL    HW271867   2.595   1.150  10.530  2.0375 -0.4556 -1.9153
22759SOL     OW71868   2.613   5.371   6.309  0.1696 -0.0898 -0.2176
22759SOL    HW171869   2.627   5.303   6.243 -0.6866  0.1273 -0.6378
22759SOL    HW271870   2.641   5.331   6.391  1.4136 -0.3111 -0.7229
22760SOL     OW71871   5.571   5.009   0.522  0.0651  1.0195 -0.4267
22760SOL    HW171872   5.500   5.057   0.565 -0.2302 -0.7237  1.1861
22760SOL    HW271873   5.649   5.029   0.575 -0.0855 -0.2968  0.3403
22761SOL     OW71874   9.291   2.616   9.885 -0.0889 -0.5288 -0.2755
22761SOL    HW171875   9.289   2.661   9.801 -1.5354 -0.6717 -0.3435
22761SOL    HW271876   9.364   2.656   9.932  0.6633 -0.3644 -1.5380
22762SOL     OW71877   1.530   1.202   3.090 -0.0174 -0.5008 -0.2105
22762SOL    HW171878   1.570   1.257   3.158  0.0325 -0.9195  0.1060
22762SOL    HW271879   1.600   1.142   3.064 -0.0162 -0.2906 -0.6856
22763SOL     OW71880   8.532   7.184  10.206  0.5566 -0.2928 -0.2730
22763SOL    HW171881   8.451   7.176  10.156  1.0150 -1.8864 -0.8127
22763SOL    HW271882   8.576   7.101  10.193  2.2006  0.4771  0.1812
22764SOL     OW71883   1.419   2.172  10.320  0.1338  0.0993 -0.5186
22764SOL    HW171884   1.467   2.252  10.303  0.8235 -0.0436  0.6918
22764SOL    HW271885   1.436   2.152  10.412  0.3839 -1.6946 -0.9143
22765SOL     OW71886   4.320   7.350   8.775 -0.2666  0.4658 -0.0326
22765SOL    HW171887   4.245   7.361   8.834 -0.5649  1.2603 -0.5315
22765SOL    HW271888   4.396   7.368   8.830 -0.5086  0.6932  0.2335
22766SOL     OW71889   4.471   5.593   7.371  0.1355 -0.3933  0.1572
22766SOL    HW171890   4.454   5.686   7.353 -0.6507 -0.5648  0.0133
22766SOL    HW271891   4.401   5.567   7.431 -0.0742 -1.0942 -0.3909
22767SOL     OW71892   6.196   7.828   4.977 -0.3223  0.2751 -0.3101
22767SOL    HW171893   6.287   7.854   4.966 -0.1189  0.4861  1.5146
22767SOL    HW271894   6.146   7.908   4.962  0.0480  0.9439  1.6612
22768SOL     OW71895   3.811   8.292   1.269 -0.0188 -0.2539 -0.1946
22768SOL    HW171896   3.894   8.330   1.297 -0.2733  1.4675 -1.6236
22768SOL    HW271897   3.748   8.319   1.337  0.2375 -0.0674 -0.0319
22769SOL     OW71898   1.714   1.770   5.754  0.0988 -0.2148 -0.4673
22769SOL    HW171899   1.741   1.744   5.666  0.1955 -0.8748 -0.2524
22769SOL    HW271900   1.701   1.864   5.749  0.5545 -0.1787 -1.0701
22770SOL     OW71901   6.916   9.138   5.819 -0.1929 -0.7974 -0.3563
22770SOL    HW171902   6.873   9.087   5.750  0.2678 -1.4157 -0.1977
22770SOL    HW271903   6.976   9.196   5.772 -1.4932  0.3943 -0.6103
22771SOL     OW71904   6.100   3.142   5.412  0.3475  0.0540 -0.1113
22771SOL    HW171905   6.067   3.075   5.471  0.3541  2.0415  2.2957
22771SOL    HW271906   6.191   3.116   5.394  0.1150 -0.9663  0.1439
22772SOL     OW71907   7.604   5.607  11.036  0.5207 -0.3920 -0.2111
22772SOL    HW171908   7.580   5.563  11.117  1.6255 -1.0860 -0.2321
22772SOL    HW271909   7.608   5.700  11.059 -2.0102 -0.2158 -0.2138
22773SOL     OW71910   8.246   4.325   4.439 -0.1272 -0.1114 -0.0475
22773SOL    HW171911   8.259   4.259   4.508  1.8025 -0.0229 -0.2775
22773SOL    HW271912   8.329   4.373   4.435 -0.0667 -0.2856 -2.6247
22774SOL     OW71913   6.561   1.608   4.798 -0.8498  0.4464  0.1714
22774SOL    HW171914   6.646   1.617   4.754  0.1012 -0.7266  1.7017
22774SOL    HW271915   6.575   1.645   4.885 -1.5081 -0.9653  0.9048
22775SOL     OW71916   5.869   4.056   8.593  0.5130  0.3489  0.0115
22775SOL    HW171917   5.890   4.053   8.686 -0.2765 -1.4073  0.1788
22775SOL    HW271918   5.899   4.142   8.564  1.1699  0.7569  1.7825
22776SOL     OW71919   8.600   6.488   7.795  0.3121 -0.0566 -0.2531
22776SOL    HW171920   8.633   6.402   7.772  0.8225 -0.3366  1.4200
22776SOL    HW271921   8.540   6.510   7.724 -0.4333 -2.1145 -0.3211
22777SOL     OW71922   4.771   4.994   7.978 -0.0487 -0.6297 -0.4370
22777SOL    HW171923   4.780   4.928   7.909 -1.6949 -0.2759 -1.0419
22777SOL    HW271924   4.688   5.038   7.958 -0.8396 -0.8507  2.0407
22778SOL     OW71925   6.026   1.138   2.440 -0.3430 -0.2047 -0.3383
22778SOL    HW171926   5.948   1.168   2.394 -0.7187 -0.4362  0.1441
22778SOL    HW271927   6.090   1.123   2.370 -1.0197 -0.9041 -0.8322
22779SOL     OW71928   1.199   0.308   5.564 -0.3149  0.0274 -0.1637
22779SOL    HW171929   1.156   0.392   5.550 -0.6009  0.1877  1.5106
22779SOL    HW271930   1.261   0.324   5.635 -0.6339 -1.2398  0.4302
22780SOL     OW71931   0.085  10.187   1.745 -0.0706  0.2195 -0.0884
22780SOL    HW171932   0.018  10.155   1.805 -0.4651 -0.7215 -0.9940
22780SOL    HW271933   0.052  10.271   1.714 -0.1307  0.4433  0.5741
22781SOL     OW71934   5.324  10.882   7.306 -0.1523  0.6981  0.5759
22781SOL    HW171935   5.410  10.923   7.294  0.3422 -0.8508 -1.8644
22781SOL    HW271936   5.322  10.857   7.398  0.8428  3.1557  1.3662
22782SOL     OW71937   9.681   9.858   1.484 -0.8299 -0.9470 -0.5134
22782SOL    HW171938   9.679   9.855   1.388 -0.6083 -0.1638 -0.5477
22782SOL    HW271939   9.612   9.919   1.508 -0.6936 -0.9212 -0.1830
22783SOL     OW71940   6.475   4.608   5.063  0.5131  0.7719  0.2917
22783SOL    HW171941   6.541   4.543   5.040 -0.0948  0.1678  0.2326
22783SOL    HW271942   6.526   4.686   5.087  1.2201  0.5725 -0.5050
22784SOL     OW71943   6.086   3.745   4.970  0.1421  0.0061  0.0457
22784SOL    HW171944   6.166   3.706   5.003  0.7546  0.9698 -0.2446
22784SOL    HW271945   6.106   3.767   4.879 -0.5698 -0.0632 -0.1359
22785SOL     OW71946   5.220   0.923   8.720 -0.4366  0.2400  0.3275
22785SOL    HW171947   5.130   0.951   8.703 -0.7038 -1.6335 -1.6767
22785SOL    HW271948   5.264   0.933   8.636  0.5974 -1.1198  0.6854
22786SOL     OW71949   5.628   8.558   6.530  0.0995 -0.4349  0.0079
22786SOL    HW171950   5.559   8.579   6.592  0.9331 -0.7585  1.0775
22786SOL    HW271951   5.691   8.506   6.581  3.1432  3.0466  0.2550
22787SOL     OW71952   5.643   9.211  10.924  0.1153  0.2760  0.4827
22787SOL    HW171953   5.558   9.191  10.965 -0.0421 -0.7524 -0.3200
22787SOL    HW271954   5.704   9.150  10.965 -0.0596 -0.8277 -0.8280
22788SOL     OW71955   8.932   8.082   7.566 -0.2109  0.2725 -0.4386
22788SOL    HW171956   9.001   8.020   7.542 -1.8287 -1.3224 -1.1450
22788SOL    HW271957   8.952   8.161   7.515  0.3890 -0.6074 -1.6210
22789SOL     OW71958   5.710   8.040   1.123 -0.3396 -0.7489 -0.2367
22789SOL    HW171959   5.648   7.976   1.088 -0.7990  0.2923 -1.4139
22789SOL    HW271960   5.781   7.988   1.159 -2.1786 -2.0170  1.7909
22790SOL     OW71961   5.628   4.807   8.949 -0.2869 -0.4554  0.3019
22790SOL    HW171962   5.624   4.820   9.044 -2.0883 -0.9243  0.3140
22790SOL    HW271963   5.645   4.894   8.913  0.2046 -0.2416  1.0334
22791SOL     OW71964   5.901   8.592  10.522  0.2459 -0.1156  0.2141
22791SOL    HW171965   5.902   8.613  10.428  0.2702  0.0315  0.2471
22791SOL    HW271966   5.832   8.648  10.558  1.5145  1.2599  0.6181
22792SOL     OW71967   6.060   1.740   3.441 -0.5176 -0.2761 -0.0339
22792SOL    HW171968   6.138   1.686   3.433 -0.1733  0.4701 -3.7103
22792SOL    HW271969   5.987   1.682   3.420 -0.5988 -0.2725  0.2400
22793SOL     OW71970   4.024   3.063  10.831  0.7865 -0.3280  0.2030
22793SOL    HW171971   4.017   3.079  10.736 -2.0216  0.5912  0.4675
22793SOL    HW271972   4.102   3.111  10.858  1.4958 -0.3904 -1.5858
22794SOL     OW71973   5.416   7.054   1.897  0.2125 -0.3462  0.2561
22794SOL    HW171974   5.491   7.015   1.852  0.7956  2.4244 -1.4295
22794SOL    HW271975   5.351   7.068   1.828 -0.8818 -0.4478  1.2390
22795SOL     OW71976  11.034  10.860   7.957 -0.4736 -0.5074 -0.1311
22795SOL    HW171977  11.097  10.920   7.995 -1.5481  0.3993  0.2900
22795SOL    HW271978  11.023  10.891   7.867 -0.0214 -0.9168 -0.3291
22796SOL     OW71979   8.391   1.761   9.325  0.0819 -0.5295 -0.1798
22796SOL    HW171980   8.332   1.779   9.252  0.2968  3.1383  0.3502
22796SOL    HW271981   8.340   1.706   9.384 -0.8012 -1.9179 -2.1307
22797SOL     OW71982   6.956   9.789   3.691  0.3280 -0.3804 -0.0358
22797SOL    HW171983   6.875   9.827   3.656 -0.3238 -1.5988  0.0915
22797SOL    HW271984   6.991   9.737   3.618  1.2132  0.4336 -0.2120
22798SOL     OW71985  10.288   1.144   9.803 -0.2556  0.1565  0.2726
22798SOL    HW171986  10.253   1.057   9.821 -1.0248  0.2748 -0.5889
22798SOL    HW271987  10.347   1.130   9.728 -1.5577  0.6106 -0.8662
22799SOL     OW71988   2.514   8.965  10.563 -0.2480  0.2240  0.0480
22799SOL    HW171989   2.473   9.008  10.637  0.6261  1.0614  0.0555
22799SOL    HW271990   2.468   8.999  10.486 -0.8035 -0.2539  0.1601
22800SOL     OW71991   0.400   7.929   8.904  0.5213 -0.0494 -0.1770
22800SOL    HW171992   0.349   7.967   8.976  0.2106  1.5778 -1.1933
22800SOL    HW271993   0.482   7.978   8.904  0.8792 -0.6383 -0.3950
22801SOL     OW71994   3.880   8.507   4.711 -0.3892  0.2013 -0.2722
22801SOL    HW171995   3.825   8.534   4.638 -0.4847  0.5975 -0.0533
22801SOL    HW271996   3.914   8.589   4.748  1.8024 -0.0764 -1.5105
22802SOL     OW71997   2.888   1.120   7.379  0.6776  0.4744 -0.1559
22802SOL    HW171998   2.918   1.205   7.345  0.8797  0.2696 -0.4932
22802SOL    HW271999   2.831   1.143   7.452 -1.7813  1.0252 -2.1245
22803SOL     OW72000   6.747   5.483   9.842 -0.5803 -0.0112 -0.0865
22803SOL    HW172001   6.746   5.437   9.759  1.9780 -0.5332  0.1045
22803SOL    HW272002   6.795   5.426   9.902 -1.8248  0.6182  1.6213
22804SOL     OW72003   0.111   4.927   2.488 -0.7307  0.2458  0.6601
22804SOL    HW172004   0.203   4.924   2.515 -0.6498 -1.7702  0.2624
22804SOL    HW272005   0.072   4.848   2.525 -1.7327 -0.1706 -1.1993
22805SOL     OW72006   9.653  10.418   6.250  0.2863 -0.1685 -0.0554
22805SOL    HW172007   9.732  10.404   6.302  2.9443 -1.0641 -3.8193
22805SOL    HW272008   9.616  10.331   6.237  0.1322 -0.0638 -0.3346
22806SOL     OW72009  10.197   1.776   3.268  0.0552  0.1564 -0.4509
22806SOL    HW172010  10.219   1.692   3.227 -0.0135  0.0138 -0.1938
22806SOL    HW272011  10.278   1.806   3.309  0.0106  0.0909 -0.3177
22807SOL     OW72012   2.292   8.432   6.668  0.4810 -0.4383  0.1020
22807SOL    HW172013   2.259   8.360   6.615 -0.3843 -2.7665  3.4283
22807SOL    HW272014   2.214   8.477   6.700  0.8747 -0.3073  0.9144
22808SOL     OW72015   3.303   0.486   3.044  0.4088  0.5568  0.1342
22808SOL    HW172016   3.377   0.427   3.029 -0.3353 -0.0937 -1.1689
22808SOL    HW272017   3.231   0.448   2.993 -0.0521  2.6746 -0.9153
22809SOL     OW72018   3.501   4.494   5.949 -0.1617 -0.7356  0.3859
22809SOL    HW172019   3.484   4.519   5.858  2.0894 -0.1291  0.0748
22809SOL    HW272020   3.537   4.405   5.942  0.6186 -0.4431  0.6050
22810SOL     OW72021   2.145   1.483  10.066  0.0103 -0.2363  0.2837
22810SOL    HW172022   2.105   1.537   9.998 -0.9145 -0.6190  0.5087
22810SOL    HW272023   2.116   1.394  10.046  1.1235 -0.6004  0.2006
22811SOL     OW72024  10.550   5.542   7.424 -0.2224 -0.6507 -0.0126
22811SOL    HW172025  10.469   5.533   7.374  0.5373  0.5993 -1.5520
22811SOL    HW272026  10.616   5.564   7.358  1.3506 -1.4405  1.2258
22812SOL     OW72027   1.859   3.442   0.571 -0.6220 -0.1578  0.2787
22812SOL    HW172028   1.886   3.485   0.652  1.7260  0.4021 -0.7167
22812SOL    HW272029   1.855   3.513   0.507 -2.4327 -0.5948 -0.1430
22813SOL     OW72030   0.881   4.679   3.943 -0.3462 -0.0316 -0.1211
22813SOL    HW172031   0.907   4.764   3.978 -0.2218 -0.8339  1.8715
22813SOL    HW272032   0.963   4.632   3.930 -0.4519 -0.1050 -0.5341
22814SOL     OW72033   9.351   7.706   4.424 -0.2990 -0.4396 -0.0643
22814SOL    HW172034   9.358   7.801   4.410  0.1065 -0.2384  1.3246
22814SOL    HW272035   9.432   7.671   4.388 -0.4200 -0.2559 -0.5256
22815SOL     OW72036   9.439   2.030   4.930  0.1029 -0.0950  0.4491
22815SOL    HW172037   9.351   2.056   4.900  0.6170  0.4868 -0.6367
22815SOL    HW272038   9.478   2.112   4.961  1.1216  0.1563 -1.3745
22816SOL     OW72039   0.452   2.896   9.399  0.4028 -0.0550 -0.2033
22816SOL    HW172040   0.380   2.849   9.356  0.5898 -0.2153 -0.3475
22816SOL    HW272041   0.513   2.916   9.328  0.1697  0.7000 -0.1919
22817SOL     OW72042   6.850   5.080   2.604 -0.4218  0.7459 -0.1651
22817SOL    HW172043   6.944   5.063   2.613 -0.4431 -0.1642 -1.3399
22817SOL    HW272044   6.838   5.096   2.510 -1.6580 -0.7003 -0.2918
22818SOL     OW72045   8.782   0.023  10.518  0.0589 -0.6274  0.2782
22818SOL    HW172046   8.777   0.118  10.524 -1.9971 -0.6486 -0.4760
22818SOL    HW272047   8.732  -0.008  10.593  3.2995 -1.2446  2.4051
22819SOL     OW72048   5.310   6.173   3.803 -0.7818 -0.1734  0.3664
22819SOL    HW172049   5.281   6.182   3.712 -1.1412  2.8140  0.6902
22819SOL    HW272050   5.235   6.135   3.848 -0.9880 -0.6828 -0.3797
22820SOL     OW72051   4.605   4.577   9.128 -0.0467 -0.3943 -0.3130
22820SOL    HW172052   4.678   4.523   9.159 -0.1352  0.4571  1.5347
22820SOL    HW272053   4.593   4.551   9.037  4.4587  1.4748 -1.7144
22821SOL     OW72054   4.748   3.719   5.162  0.0971  0.5169  0.0368
22821SOL    HW172055   4.820   3.735   5.223 -0.0347 -0.4491  0.4740
22821SOL    HW272056   4.763   3.629   5.131 -1.3073  0.0317  0.6968
22822SOL     OW72057   8.304   9.037   6.611 -0.3678 -0.1394  0.0037
22822SOL    HW172058   8.320   8.945   6.632  0.5298  0.1991  0.9077
22822SOL    HW272059   8.212   9.051   6.633 -0.4754 -0.7892 -0.0188
22823SOL     OW72060   0.239   5.197   1.319 -0.4330 -0.2960 -0.0766
22823SOL    HW172061   0.189   5.250   1.258  0.0887 -1.1713 -1.2983
22823SOL    HW272062   0.331   5.208   1.292 -0.0891  0.0907  1.1799
22824SOL     OW72063   6.225   3.621  11.038 -0.2688  0.3488 -0.4010
22824SOL    HW172064   6.239   3.528  11.018  0.9292 -0.1586  2.3338
22824SOL    HW272065   6.313   3.659  11.034 -0.8313  1.5856 -2.1886
22825SOL     OW72066   0.883   9.615   3.187 -0.5824 -0.1623 -0.5916
22825SOL    HW172067   0.820   9.629   3.116 -1.1342  0.5273  0.0134
22825SOL    HW272068   0.847   9.542   3.237 -0.7632  0.0458 -0.4125
22826SOL     OW72069   4.400   5.879  10.233 -0.3224 -0.0215  0.3797
22826SOL    HW172070   4.384   5.968  10.201  1.0018  1.6489  3.7880
22826SOL    HW272071   4.320   5.857  10.281 -0.4525 -0.4676 -0.0412
22827SOL     OW72072   4.794   5.436   8.589 -0.1708 -0.0486  0.2119
22827SOL    HW172073   4.824   5.443   8.680 -1.4229 -0.1904  0.6588
22827SOL    HW272074   4.731   5.508   8.580  0.6562  0.5606 -0.8526
22828SOL     OW72075   2.442   4.456   2.113 -0.3193 -0.1620  0.2326
22828SOL    HW172076   2.452   4.361   2.114 -0.2009 -0.1602  2.0677
22828SOL    HW272077   2.348   4.471   2.128 -0.2639  0.0173  0.4052
22829SOL     OW72078   9.404   4.183  11.052 -0.2025  0.2190  0.3415
22829SOL    HW172079   9.468   4.233  11.103 -0.4248 -0.1663  1.0069
22829SOL    HW272080   9.457   4.132  10.991  0.0511  0.9029 -0.0223
22830SOL     OW72081   2.237   5.775   9.672 -0.0328  0.6021 -0.1318
22830SOL    HW172082   2.262   5.685   9.696  0.0299  0.8613  0.8061
22830SOL    HW272083   2.141   5.774   9.676 -0.0385  0.5255 -0.2995
22831SOL     OW72084   6.022   5.984   9.093 -0.0007  0.1803  1.1883
22831SOL    HW172085   6.088   6.041   9.056  0.0956  0.3083  1.5496
22831SOL    HW272086   6.047   5.975   9.185 -0.4290  0.1523  1.3047
22832SOL     OW72087   4.854   1.534   5.156  0.0385  0.3207  0.2933
22832SOL    HW172088   4.865   1.455   5.104 -2.3890  0.2011 -0.1372
22832SOL    HW272089   4.900   1.514   5.238 -0.8140 -1.7119  0.3467
22833SOL     OW72090   6.153  10.090   7.060  0.2227 -0.2973  0.3270
22833SOL    HW172091   6.188  10.177   7.081  0.9792 -0.3424 -0.6786
22833SOL    HW272092   6.098  10.105   6.982 -0.2618 -0.5996  0.6061
22834SOL     OW72093   3.593  10.077   4.424 -0.5753 -0.0862 -0.3921
22834SOL    HW172094   3.683  10.054   4.448 -0.2805  0.6730 -0.7005
22834SOL    HW272095   3.579  10.035   4.339  0.4070  1.7750 -1.5696
22835SOL     OW72096   8.419   2.955   0.428  0.0781 -0.2585  0.0595
22835SOL    HW172097   8.372   2.929   0.348  1.8839 -0.1614 -1.0929
22835SOL    HW272098   8.361   2.929   0.499 -0.3164 -3.1805 -1.1712
22836SOL     OW72099   4.702   1.804   4.544  0.0638  0.0034  0.0405
22836SOL    HW172100   4.788   1.775   4.510  0.4539  1.3546 -0.1699
22836SOL    HW272101   4.713   1.803   4.639  0.5734  0.8982  0.0009
22837SOL     OW72102   8.226   5.915   6.965 -0.0509  0.0776 -0.2651
22837SOL    HW172103   8.135   5.900   6.940  0.4419 -0.4820 -1.8682
22837SOL    HW272104   8.247   6.001   6.927 -0.7355  1.6676  2.6730
22838SOL     OW72105   9.254   3.056   5.450 -0.0808 -0.3990 -0.0163
22838SOL    HW172106   9.210   3.112   5.513 -0.5668 -0.1180 -0.5909
22838SOL    HW272107   9.347   3.073   5.463 -0.2238  0.8526 -0.4361
22839SOL     OW72108   9.278   2.948   9.415  0.3967 -0.1595  0.4064
22839SOL    HW172109   9.250   2.997   9.492 -0.4776 -0.5148  0.3157
22839SOL    HW272110   9.343   3.004   9.374 -1.3652  1.4379 -0.3012
22840SOL     OW72111   8.724   2.154   2.451  0.2409 -0.0245 -0.0512
22840SOL    HW172112   8.667   2.156   2.374  1.5972 -0.9650 -1.1239
22840SOL    HW272113   8.794   2.215   2.431  1.1830 -1.0815 -0.0658
22841SOL     OW72114   0.126   4.410   4.354 -0.1968  1.4028 -0.3392
22841SOL    HW172115   0.132   4.457   4.437  0.8363  1.6548 -0.5432
22841SOL    HW272116   0.173   4.465   4.292  1.9023 -0.3353 -0.3887
22842SOL     OW72117   3.105   1.110   6.423 -0.3489 -0.5887 -0.2974
22842SOL    HW172118   3.057   1.188   6.395 -0.7731  0.8894  3.9023
22842SOL    HW272119   3.197   1.135   6.417 -0.3847 -0.5809 -0.9261
22843SOL     OW72120   6.641  10.557   2.824  0.1789 -0.1639  0.2081
22843SOL    HW172121   6.641  10.641   2.778  0.1379  0.1563  0.7835
22843SOL    HW272122   6.549  10.538   2.841 -0.4820 -3.0188 -4.6737
22844SOL     OW72123   5.434   1.913   0.095  0.0542 -0.1883 -0.0978
22844SOL    HW172124   5.493   1.875   0.029  1.0391  0.7544  0.2011
22844SOL    HW272125   5.359   1.944   0.045 -0.8212 -2.5208 -0.3431
22845SOL     OW72126   0.716  10.269   5.688  0.2826 -0.1416 -0.1557
22845SOL    HW172127   0.678  10.218   5.617  1.5555  0.3122 -1.2264
22845SOL    HW272128   0.646  10.328   5.716 -0.1722 -0.1492 -1.2320
22846SOL     OW72129   5.466   6.331   5.959  0.4303  0.1073 -1.1194
22846SOL    HW172130   5.550   6.285   5.956  0.3388 -0.2341  0.6577
22846SOL    HW272131   5.490   6.423   5.949  1.2657  0.2007  1.0652
22847SOL     OW72132   3.306   6.000   3.801 -0.7860 -0.4001  0.3995
22847SOL    HW172133   3.288   5.917   3.846 -1.0217 -0.6343 -0.1145
22847SOL    HW272134   3.394   5.988   3.765 -1.2273 -0.8568 -0.5847
22848SOL     OW72135   3.821   2.922   6.250 -0.0679 -0.0058 -0.7229
22848SOL    HW172136   3.860   3.008   6.232  2.2579 -1.1595 -1.6182
22848SOL    HW272137   3.728   2.934   6.232  0.3778  1.9803 -2.1129
22849SOL     OW72138   5.418   4.668   6.783 -0.3211  0.0423 -0.5103
22849SOL    HW172139   5.504   4.633   6.760 -1.0604 -1.8916 -0.5348
22849SOL    HW272140   5.420   4.678   6.878 -0.1647 -0.2583 -0.4826
22850SOL     OW72141   0.086   5.682   5.303  0.2125  0.3218 -0.3373
22850SOL    HW172142   0.134   5.746   5.356  2.7217  0.4686 -2.5719
22850SOL    HW272143   0.154   5.638   5.251 -1.8476 -1.4209 -1.7448
22851SOL     OW72144   1.062   6.116   9.696 -0.6955 -0.0995  0.0143
22851SOL    HW172145   1.105   6.037   9.662 -0.4258  0.0668 -0.0278
22851SOL    HW272146   1.108   6.189   9.655 -1.4556  0.0724 -0.5603
22852SOL     OW72147   9.410   1.714   7.980  0.0075  0.2966 -0.2111
22852SOL    HW172148   9.471   1.687   7.911  0.5013 -0.1388  0.3806
22852SOL    HW272149   9.443   1.670   8.058 -0.8948  0.3147  0.1806
22853SOL     OW72150   8.161   7.207   3.186  0.2343  0.0911 -0.2767
22853SOL    HW172151   8.193   7.130   3.233 -1.3377 -0.7591 -0.5341
22853SOL    HW272152   8.128   7.265   3.254  0.4124  0.0636 -0.1644
22854SOL     OW72153   9.117   0.748   8.343 -0.2011 -0.0079 -0.0482
22854SOL    HW172154   9.115   0.838   8.312 -1.0360 -0.3627 -1.0709
22854SOL    HW272155   9.025   0.724   8.354  0.0132  0.2887  3.3876
22855SOL     OW72156   6.901   6.097   0.229 -0.4986 -0.4715 -0.7331
22855SOL    HW172157   6.994   6.108   0.251 -0.5703  0.4505 -0.8800
22855SOL    HW272158   6.874   6.020   0.279 -0.1666  0.4363  0.9081
22856SOL     OW72159   8.177  10.331   4.292 -0.2326  0.2749  0.0326
22856SOL    HW172160   8.267  10.302   4.307 -0.4856 -1.1684 -1.1194
22856SOL    HW272161   8.144  10.274   4.223 -3.0475 -1.2909  2.4416
22857SOL     OW72162   7.207   7.940   6.442  0.5334 -0.0415  0.1241
22857SOL    HW172163   7.297   7.910   6.430  0.1213 -1.3523  0.1565
22857SOL    HW272164   7.162   7.867   6.485 -0.8561  0.0599 -1.0478
22858SOL     OW72165  10.433   2.098   5.511 -0.1120  0.8122  0.1780
22858SOL    HW172166  10.356   2.144   5.476 -1.0243 -1.3512 -0.8250
22858SOL    HW272167  10.474   2.059   5.435  0.6979  0.0705  0.9730
22859SOL     OW72168   5.949   4.911   5.730 -0.0594 -0.5102 -0.3117
22859SOL    HW172169   6.023   4.875   5.779  1.2388  0.7648 -1.2422
22859SOL    HW272170   5.989   4.956   5.656 -1.7477  0.6505 -0.5832
22860SOL     OW72171  10.977   1.406   4.256 -0.2533 -0.0391 -0.0592
22860SOL    HW172172  10.888   1.381   4.281 -0.0735 -2.5260 -1.6479
22860SOL    HW272173  10.965   1.484   4.201 -1.3083  0.3225  0.6300
22861SOL     OW72174   6.227   2.635   3.784 -0.3752 -0.1012 -0.2259
22861SOL    HW172175   6.315   2.613   3.755 -0.4698  0.4199 -0.9211
22861SOL    HW272176   6.222   2.730   3.775 -0.6638 -0.0027  0.7975
22862SOL     OW72177   5.982  10.129   5.980  0.9940 -0.3412  0.0881
22862SOL    HW172178   6.065  10.082   5.966  1.3184  0.1428  0.3551
22862SOL    HW272179   5.927  10.102   5.906  1.7690  0.1668 -0.7023
22863SOL     OW72180   1.641   8.057   6.312  0.9879  0.5089 -0.2059
22863SOL    HW172181   1.721   8.006   6.297 -0.2058 -1.9209  1.0571
22863SOL    HW272182   1.671   8.135   6.358  2.6543 -0.3440  0.2332
22864SOL     OW72183   8.702   9.834   7.671  0.3606  0.7302  0.1368
22864SOL    HW172184   8.697   9.881   7.588  1.5331 -1.1674 -1.0493
22864SOL    HW272185   8.614   9.799   7.684  0.2410  0.8198 -0.4202
22865SOL     OW72186   6.914   6.889   4.798 -0.6235  0.1135  0.1383
22865SOL    HW172187   6.957   6.921   4.719 -0.1036  1.1810  0.8335
22865SOL    HW272188   6.875   6.966   4.838 -0.6234 -0.3564  1.0858
22866SOL     OW72189   7.445   6.845   4.141 -0.5335 -0.3564  0.6425
22866SOL    HW172190   7.409   6.933   4.147 -0.4397 -0.3527  1.2124
22866SOL    HW272191   7.515   6.852   4.076 -0.4530  0.0154  0.7681
22867SOL     OW72192   3.295  10.083   3.498 -0.0114 -0.5227 -0.0645
22867SOL    HW172193   3.261  10.136   3.570 -0.3463 -0.8694  0.0360
22867SOL    HW272194   3.366  10.032   3.536 -0.1355 -0.6471 -0.0007
22868SOL     OW72195   6.950   0.161   8.395 -0.9714 -0.6660  0.1867
22868SOL    HW172196   6.925   0.248   8.364 -2.2206 -0.6103  1.2403
22868SOL    HW272197   6.892   0.101   8.348 -2.2124 -0.6544  1.6316
22869SOL     OW72198   9.436   9.421   2.529  0.0402  0.4614  0.1774
22869SOL    HW172199   9.469   9.508   2.511 -0.1128  0.2323 -1.3501
22869SOL    HW272200   9.488   9.390   2.603  1.7160  0.9410 -0.7648
22870SOL     OW72201   3.389   3.183   2.644 -0.1536 -0.0462 -0.2012
22870SOL    HW172202   3.435   3.137   2.574  1.1139  2.2458 -0.9442
22870SOL    HW272203   3.443   3.258   2.665 -1.3821  0.3263  2.0559
22871SOL     OW72204   0.866   6.977   7.974  0.3739 -0.0127 -0.6883
22871SOL    HW172205   0.810   6.987   7.897  0.4555  0.5211 -0.6777
22871SOL    HW272206   0.845   7.051   8.030  0.0106 -0.6215  0.0037
22872SOL     OW72207   9.246   2.417   2.042  0.1411 -0.4919  0.1941
22872SOL    HW172208   9.178   2.351   2.024  1.1084 -2.3872  2.9596
22872SOL    HW272209   9.321   2.388   1.991  0.4899 -1.4278  1.2232
22873SOL     OW72210   1.211   3.227   5.890 -0.1472  0.0146  0.2733
22873SOL    HW172211   1.245   3.149   5.933  2.2014 -0.5131 -2.3063
22873SOL    HW272212   1.249   3.300   5.940 -2.2658 -0.3179  2.6184
22874SOL     OW72213   3.476   9.548   7.324 -0.1016  0.3714 -0.8902
22874SOL    HW172214   3.526   9.510   7.396 -2.2594 -2.2946 -0.6024
22874SOL    HW272215   3.397   9.583   7.366  0.0927  1.7775 -1.6404
22875SOL     OW72216   4.759   9.626   1.291 -0.5585 -0.1252 -0.0960
22875SOL    HW172217   4.827   9.586   1.345 -0.3219 -1.8321 -1.5528
22875SOL    HW272218   4.677   9.591   1.326 -0.4160 -1.1201 -0.7287
22876SOL     OW72219   1.662   9.546   4.067  0.2246  0.1164 -0.5897
22876SOL    HW172220   1.672   9.452   4.085  0.2913  0.1302 -0.5544
22876SOL    HW272221   1.584   9.551   4.011  1.4834 -0.1973 -2.4998
22877SOL     OW72222   1.177   1.650   3.161  0.1104 -0.5934  0.7682
22877SOL    HW172223   1.171   1.610   3.248  0.2193 -1.1007  0.5415
22877SOL    HW272224   1.086   1.673   3.139 -0.0646 -1.5019  0.5286
22878SOL     OW72225   9.085   6.697   4.752 -0.7135 -0.3930  0.1018
22878SOL    HW172226   9.077   6.606   4.726 -0.4914  0.2233 -2.4415
22878SOL    HW272227   8.999   6.721   4.785 -1.8474 -0.6589 -2.4560
22879SOL     OW72228   3.233   1.953   0.301  0.2483  0.5790 -0.0511
22879SOL    HW172229   3.232   2.001   0.384  0.8480  0.1225  0.2330
22879SOL    HW272230   3.276   2.012   0.239 -0.1773  0.9112 -0.0344
22880SOL     OW72231   4.507  10.672   9.018  0.0765 -1.2123 -0.0624
22880SOL    HW172232   4.514  10.680   9.113 -0.8643 -2.6692  0.1669
22880SOL    HW272233   4.591  10.637   8.990 -0.6963 -3.9792  0.7092
22881SOL     OW72234   9.580   1.600   8.468 -0.0342  0.0545  0.2187
22881SOL    HW172235   9.587   1.608   8.563 -0.2323 -2.1835  0.4777
22881SOL    HW272236   9.538   1.515   8.454  1.0905 -0.2222 -1.8878
22882SOL     OW72237   6.527  10.949  10.365 -0.0419 -0.2869 -0.1727
22882SOL    HW172238   6.619  10.946  10.342  0.1021  0.1365  0.3237
22882SOL    HW272239   6.526  10.965  10.460 -0.6136 -1.3351  0.0182
22883SOL     OW72240  10.426   9.508   2.461 -0.0843 -0.1484 -0.1112
22883SOL    HW172241  10.387   9.539   2.542  1.4643  2.2630 -0.1752
22883SOL    HW272242  10.361   9.449   2.424 -2.4463  1.5141  1.1012
22884SOL     OW72243   5.494   5.790   6.809 -0.5727  0.7704  0.1611
22884SOL    HW172244   5.454   5.870   6.774  0.5239  1.5248  0.5869
22884SOL    HW272245   5.579   5.785   6.766  0.5060  1.3225  2.1440
22885SOL     OW72246   8.639   8.444   4.119 -0.2712  0.2636  0.6834
22885SOL    HW172247   8.638   8.402   4.206 -0.4538  0.4990  0.7960
22885SOL    HW272248   8.548   8.442   4.091  0.2283 -3.2787 -1.1924
22886SOL     OW72249   9.901   6.517   4.362 -0.3196  0.0367 -0.6360
22886SOL    HW172250   9.848   6.565   4.298 -0.3044  1.7970  0.6097
22886SOL    HW272251   9.850   6.521   4.443  1.3816  1.1989  0.4333
22887SOL     OW72252  10.257   9.360   7.511 -0.1046 -0.4818  0.1752
22887SOL    HW172253  10.254   9.309   7.591 -0.7397  1.9809  1.8368
22887SOL    HW272254  10.166   9.387   7.496  0.5258  2.4598  1.0374
22888SOL     OW72255   8.634   2.983   8.695  0.2186 -0.2350  0.5099
22888SOL    HW172256   8.633   3.072   8.730  0.8251 -0.4087  0.9952
22888SOL    HW272257   8.714   2.979   8.642 -1.1408  0.3069 -1.7094
22889SOL     OW72258  10.532   5.676   9.540  0.1502  0.6716  0.2124
22889SOL    HW172259  10.526   5.771   9.546  1.2173  0.6981  1.0070
22889SOL    HW272260  10.607   5.652   9.595 -0.7743 -0.7241  0.9462
22890SOL     OW72261   1.963   1.680   3.113  0.2178 -0.3994  0.1320
22890SOL    HW172262   1.940   1.735   3.038 -1.6547 -0.9383  0.2816
22890SOL    HW272263   2.050   1.646   3.092  0.4427  0.7927 -0.9961
22891SOL     OW72264   6.072   5.431   5.647 -0.1388  0.2469  0.1346
22891SOL    HW172265   6.077   5.491   5.572  0.5897  1.7085  1.3025
22891SOL    HW272266   6.162   5.424   5.679 -0.2242 -1.4109  0.1125
22892SOL     OW72267   0.749   0.805  10.954 -0.6428  0.2128  0.6381
22892SOL    HW172268   0.734   0.712  10.971 -1.8030  0.6919  2.5026
22892SOL    HW272269   0.664   0.846  10.967 -0.1187  1.5759 -0.0028
22893SOL     OW72270   8.739   8.147   1.415 -0.3440  0.3352 -0.3629
22893SOL    HW172271   8.780   8.061   1.427  0.1120  0.4069 -1.3182
22893SOL    HW272272   8.657   8.128   1.369  0.3496  0.4955 -1.7265
22894SOL     OW72273  11.009   3.530   1.512 -0.3417 -0.5629 -0.3255
22894SOL    HW172274  10.919   3.501   1.528 -0.2900 -0.3476  0.3948
22894SOL    HW272275  11.008   3.625   1.529 -0.1600 -0.4023 -1.1326
22895SOL     OW72276   6.200   8.502   3.565  0.3063  0.7726  0.3001
22895SOL    HW172277   6.128   8.533   3.510  0.4453  0.7990  0.1310
22895SOL    HW272278   6.242   8.433   3.513  1.8107  2.2875 -0.6080
22896SOL     OW72279   7.004   7.054   9.145 -0.1138 -0.3486 -0.1349
22896SOL    HW172280   7.052   7.004   9.211 -1.2204 -0.7296  0.4216
22896SOL    HW272281   7.058   7.130   9.128  0.5799 -0.6564  0.6210
22897SOL     OW72282   0.379   5.569   0.401 -0.2705 -0.3120  0.2143
22897SOL    HW172283   0.347   5.657   0.419 -0.4326 -0.3864  0.2889
22897SOL    HW272284   0.435   5.579   0.323 -0.8416 -0.2581 -0.1953
22898SOL     OW72285   6.490  10.889   9.059 -0.4514 -0.5828 -0.3482
22898SOL    HW172286   6.428  10.943   9.108 -0.8232  0.0010 -1.4429
22898SOL    HW272287   6.500  10.810   9.112 -0.4001  0.2737  0.9623
22899SOL     OW72288   8.188   7.898   0.425  0.5231 -0.1456  0.3551
22899SOL    HW172289   8.104   7.882   0.467  0.4856  0.4638  0.5233
22899SOL    HW272290   8.166   7.948   0.346  0.6971 -0.2677  0.2296
22900SOL     OW72291   0.663   1.352   1.680 -0.3437 -0.3228  0.4927
22900SOL    HW172292   0.634   1.260   1.680  0.4215 -0.5920 -0.6752
22900SOL    HW272293   0.608   1.394   1.746 -0.1777 -1.7850  1.6409
22901SOL     OW72294   5.327   8.674   3.014  0.0711  0.2585  0.2908
22901SOL    HW172295   5.277   8.703   2.937 -1.3595 -0.8045  0.7774
22901SOL    HW272296   5.388   8.609   2.979 -1.6419 -1.3902  0.2269
22902SOL     OW72297   7.120   1.583   9.390  0.0735  0.1626  0.0125
22902SOL    HW172298   7.186   1.531   9.434 -0.9067 -1.0348  0.1189
22902SOL    HW272299   7.072   1.626   9.461 -0.3107 -0.2928  0.0376
22903SOL     OW72300  10.185   9.619   1.966 -0.5210  0.3586 -0.1392
22903SOL    HW172301  10.179   9.586   1.876 -1.5369  0.1406 -0.0032
22903SOL    HW272302  10.245   9.558   2.010 -0.7502 -0.0804 -0.4299
22904SOL     OW72303   4.525   2.453  10.632  0.1241  0.5231 -0.1929
22904SOL    HW172304   4.458   2.398  10.672 -0.8037  2.0985  0.5078
22904SOL    HW272305   4.536   2.418  10.544 -0.8407 -0.4131  0.0415
22905SOL     OW72306   1.607   6.220   0.235 -0.6010  0.3752  0.2045
22905SOL    HW172307   1.537   6.199   0.173 -2.1811  1.0415  1.6925
22905SOL    HW272308   1.681   6.245   0.179 -1.7997  0.4797 -1.4183
22906SOL     OW72309   2.522   7.050   1.082 -0.0324 -0.3693  0.0035
22906SOL    HW172310   2.556   7.056   0.992  0.2959 -0.8339  0.0961
22906SOL    HW272311   2.428   7.039   1.071  0.1652 -2.0063 -0.3457
22907SOL     OW72312   5.576   1.034  10.979  0.1206 -0.3728  0.0313
22907SOL    HW172313   5.575   0.938  10.969 -1.7282 -0.3662 -0.0893
22907SOL    HW272314   5.511   1.066  10.917  0.8287  0.9965 -0.0408
22908SOL     OW72315   7.928   0.590   2.962 -0.0573  0.5208 -0.0652
22908SOL    HW172316   7.918   0.597   3.057 -0.3864  1.3143 -0.1565
22908SOL    HW272317   7.844   0.556   2.931 -0.7346  2.3045 -0.2859
22909SOL     OW72318   8.817   7.381   5.083  0.1540  0.5232  0.0556
22909SOL    HW172319   8.894   7.405   5.032 -0.5724  0.5484 -1.0763
22909SOL    HW272320   8.747   7.438   5.050 -0.4556  0.1984  0.7375
22910SOL     OW72321   6.888   9.246   0.925 -0.5429 -0.2868  0.6816
22910SOL    HW172322   6.936   9.300   0.862  0.5547 -0.7351  1.1066
22910SOL    HW272323   6.894   9.158   0.889 -1.8224 -0.2317  0.2957
22911SOL     OW72324   8.553  10.636   6.096 -0.2567 -0.7668 -0.2595
22911SOL    HW172325   8.467  10.652   6.057  0.4106 -0.6181 -1.7662
22911SOL    HW272326   8.559  10.700   6.167 -1.2606 -0.5577 -0.3487
22912SOL     OW72327   5.222   9.155   4.163  0.0582 -0.0584 -0.2908
22912SOL    HW172328   5.134   9.117   4.164 -0.4399  0.9431  2.1299
22912SOL    HW272329   5.215   9.231   4.106 -1.1140  0.8649  1.0132
22913SOL     OW72330   6.060  10.936   0.259  0.3147 -0.0434  0.4321
22913SOL    HW172331   6.077  11.027   0.234 -0.1184 -0.0760  0.0111
22913SOL    HW272332   5.974  10.917   0.221  0.2926 -0.5484  0.7380
22914SOL     OW72333   8.627   1.819   0.528  0.4621 -0.0451 -0.0176
22914SOL    HW172334   8.596   1.858   0.446  0.8101  2.1303  0.8099
22914SOL    HW272335   8.714   1.785   0.506  1.0624  1.5876 -0.3225
22915SOL     OW72336   8.606   0.346   8.945 -0.0647  0.4994  0.2632
22915SOL    HW172337   8.556   0.359   8.865  0.6521 -1.1323 -0.4902
22915SOL    HW272338   8.543   0.312   9.009 -0.1936 -0.3385 -0.2972
22916SOL     OW72339   9.646   8.800   0.004  0.5271  0.0119  0.3089
22916SOL    HW172340   9.715   8.737   0.025  1.4972  0.2488 -1.9108
22916SOL    HW272341   9.687   8.859  -0.059 -1.0299  1.5779  0.7134
22917SOL     OW72342   8.821   9.308   7.588 -0.3528  0.1388 -0.2045
22917SOL    HW172343   8.897   9.362   7.609 -0.9559  1.1382 -0.5316
22917SOL    HW272344   8.857   9.233   7.542  0.4536  0.5165 -0.2049
22918SOL     OW72345   3.071   4.512  10.589 -0.2955  0.2113  0.0686
22918SOL    HW172346   3.063   4.549  10.677 -0.5829 -1.4330  0.7619
22918SOL    HW272347   3.164   4.523  10.567 -0.0718  0.0019  0.8681
22919SOL     OW72348   9.996   9.495   5.574 -0.2855 -0.7784 -0.3974
22919SOL    HW172349  10.089   9.508   5.594 -0.1622 -1.5425 -0.4462
22919SOL    HW272350   9.985   9.400   5.572 -1.3445 -0.7020  0.8523
22920SOL     OW72351  10.611   3.241   6.264 -0.0625 -0.3726 -0.0527
22920SOL    HW172352  10.563   3.234   6.182 -0.4214  1.1727 -0.0055
22920SOL    HW272353  10.544   3.234   6.332  0.3168 -2.4177  0.1817
22921SOL     OW72354  10.814   3.624   1.820 -0.2268  0.7760 -0.4344
22921SOL    HW172355  10.779   3.544   1.781  0.4816  0.3817 -0.2826
22921SOL    HW272356  10.742   3.656   1.876 -1.1614  1.2312 -1.8490
22922SOL     OW72357   9.227   6.155   9.244  0.3350 -0.2202  0.1977
22922SOL    HW172358   9.232   6.063   9.219  1.0907 -0.0667 -0.2442
22922SOL    HW272359   9.134   6.176   9.240  0.4068 -0.0634 -3.0897
22923SOL     OW72360   1.745   7.457   0.107  0.2857 -0.8696 -0.2060
22923SOL    HW172361   1.671   7.425   0.056 -1.5571 -0.5643  2.0920
22923SOL    HW272362   1.791   7.378   0.135  0.0633 -1.1362 -0.5836
22924SOL     OW72363   2.881   6.073   0.219  0.5365  0.2149 -0.9344
22924SOL    HW172364   2.927   6.071   0.135  0.5438 -0.1727 -0.9239
22924SOL    HW272365   2.788   6.076   0.196  0.5673  1.8767 -0.9628
22925SOL     OW72366   7.748   1.634   0.610  0.2957  0.3292  0.0989
22925SOL    HW172367   7.686   1.574   0.568  0.9061 -0.7121  0.6524
22925SOL    HW272368   7.694   1.708   0.639 -0.9188 -1.0367  1.5233
22926SOL     OW72369   3.974  10.070   6.577 -0.3843  0.1578 -0.2403
22926SOL    HW172370   3.960  10.025   6.661  0.3454 -0.0999 -0.2495
22926SOL    HW272371   4.027  10.009   6.526 -1.2839  0.0735 -1.1100
22927SOL     OW72372   3.228   6.761   4.920 -0.1398 -0.4828 -0.4614
22927SOL    HW172373   3.239   6.666   4.916 -1.9600 -0.7434 -0.0765
22927SOL    HW272374   3.155   6.774   4.980 -0.1692  1.1546 -0.8138
22928SOL     OW72375   3.402   3.829   6.244  0.2475  0.3239  0.5406
22928SOL    HW172376   3.359   3.747   6.266  1.9022 -0.5466  0.6836
22928SOL    HW272377   3.439   3.860   6.327 -0.2904  1.1756  0.4745
22929SOL     OW72378   5.106  10.616   4.665  0.0995 -0.3983  0.6735
22929SOL    HW172379   5.063  10.699   4.686  0.2011 -0.2659  0.3799
22929SOL    HW272380   5.188  10.643   4.622  0.1417 -0.6492  0.5970
22930SOL     OW72381   7.279   2.009   7.668 -0.1410  0.6692 -0.3300
22930SOL    HW172382   7.287   1.914   7.678  1.2373  0.8857  0.9084
22930SOL    HW272383   7.366   2.037   7.640 -0.2864  1.6603  0.1835
22931SOL     OW72384   7.606   5.103   8.395  0.5321  0.1713 -0.2525
22931SOL    HW172385   7.671   5.172   8.384 -1.4917  2.1021 -0.8600
22931SOL    HW272386   7.589   5.071   8.307  0.3726 -0.0435 -0.1451
22932SOL     OW72387   0.793   4.376   3.639  0.2876 -0.3239 -0.2917
22932SOL    HW172388   0.841   4.430   3.577  0.5947  0.6884  0.7918
22932SOL    HW272389   0.757   4.438   3.703 -0.3645 -1.2908  0.3151
22933SOL     OW72390   4.653   8.464  10.422 -0.0142 -0.1248  0.1744
22933SOL    HW172391   4.686   8.543  10.466 -3.8351  1.2717  0.8557
22933SOL    HW272392   4.594   8.497  10.355 -1.9381 -2.3938  0.6508
22934SOL     OW72393   5.119   3.848  10.436  0.0848  0.5207 -0.3338
22934SOL    HW172394   5.113   3.938  10.467  0.5669 -0.2138  2.0612
22934SOL    HW272395   5.213   3.828  10.437 -0.0549 -0.1650 -0.3615
22935SOL     OW72396   4.700   5.106   9.669 -0.1080  0.7633  0.3708
22935SOL    HW172397   4.672   5.111   9.578  2.0468 -0.9350 -0.4479
22935SOL    HW272398   4.680   5.016   9.696 -0.6253  1.2132  1.5838
22936SOL     OW72399   1.741   3.857   5.671  0.2496  0.7032 -0.3311
22936SOL    HW172400   1.807   3.830   5.607 -0.3098  0.7210 -0.9188
22936SOL    HW272401   1.665   3.882   5.619 -0.2519  0.6147  0.3448
22937SOL     OW72402   0.668   4.963   8.739  0.1023  0.2912  0.1266
22937SOL    HW172403   0.578   4.932   8.751 -0.0463  1.1921  1.5713
22937SOL    HW272404   0.692   4.934   8.651 -1.7032  0.3038 -0.4006
22938SOL     OW72405   0.177   3.741   1.713 -0.2318  0.3597  0.0398
22938SOL    HW172406   0.083   3.759   1.707 -0.0306  1.2095 -0.9301
22938SOL    HW272407   0.214   3.778   1.633  0.5246 -2.7789 -1.2413
22939SOL     OW72408   0.894  10.025   5.469  0.1795 -0.1612  0.0307
22939SOL    HW172409   0.879   9.981   5.553  0.5067  0.4954  0.4496
22939SOL    HW272410   0.820  10.085   5.460  0.0377 -0.3800 -0.2501
22940SOL     OW72411   7.132   4.120   9.241  0.1120  0.0343 -0.0418
22940SOL    HW172412   7.132   4.135   9.146  2.0359 -3.1316 -0.7092
22940SOL    HW272413   7.221   4.142   9.268  0.6488 -2.2555  0.2856
22941SOL     OW72414  10.290   6.413   4.307  0.4054  0.3508 -0.7001
22941SOL    HW172415  10.382   6.435   4.295  0.7618 -1.0195 -0.6584
22941SOL    HW272416  10.259   6.473   4.376  1.4238  0.4113 -0.2812
22942SOL     OW72417   2.712   4.207   9.116 -0.2218  0.0205  0.5180
22942SOL    HW172418   2.761   4.280   9.154  0.9071 -0.4135 -0.0477
22942SOL    HW272419   2.658   4.248   9.048  0.1256  0.3835  0.4524
22943SOL     OW72420   1.437  10.492   9.444  0.0579  0.0466 -0.2860
22943SOL    HW172421   1.403  10.406   9.420  0.9652 -0.1675 -0.8661
22943SOL    HW272422   1.373  10.527   9.506 -1.5773 -0.0450 -1.8243
22944SOL     OW72423   0.125   9.728   2.183 -0.2454 -0.1747  0.6567
22944SOL    HW172424   0.208   9.775   2.181 -0.9026  1.0311  0.9529
22944SOL    HW272425   0.150   9.636   2.194  1.0708  0.0483 -0.2058
22945SOL     OW72426   0.034   9.219   3.957  0.2003  0.3117  0.0062
22945SOL    HW172427   0.028   9.181   3.870 -0.1944 -0.1600  0.2359
22945SOL    HW272428  -0.006   9.306   3.948  1.7381  0.9808 -0.6809
22946SOL     OW72429   7.972   6.579   8.024 -0.1073 -0.1694  0.3183
22946SOL    HW172430   8.056   6.607   8.060  0.0894 -0.2496 -0.0821
22946SOL    HW272431   7.941   6.513   8.086  0.3401 -0.4719  0.2264
22947SOL     OW72432   5.716   4.113   3.176  0.0313  0.2761  0.0057
22947SOL    HW172433   5.768   4.041   3.140  1.0477  0.8268  0.3402
22947SOL    HW272434   5.668   4.074   3.249  1.6553  0.2288  1.0934
22948SOL     OW72435   4.913   3.120   6.443 -0.4038  0.4884 -0.7873
22948SOL    HW172436   4.980   3.110   6.376  0.3114 -1.1992  0.1153
22948SOL    HW272437   4.888   3.031   6.466  0.7206  0.8365  2.4522
22949SOL     OW72438   6.474  10.230   0.688 -0.0909 -0.2569  0.9570
22949SOL    HW172439   6.418  10.275   0.625  0.6893  2.0762  1.8286
22949SOL    HW272440   6.416  10.170   0.734 -1.4833  0.8011  0.6373
22950SOL     OW72441   9.889   6.434   7.166 -0.2704 -0.4438  0.1790
22950SOL    HW172442   9.955   6.440   7.235  1.0633 -1.2001 -0.9836
22950SOL    HW272443   9.842   6.352   7.184  0.8204 -1.2290 -0.3951
22951SOL     OW72444   3.530   3.449   1.877  0.1122  0.0635 -0.1792
22951SOL    HW172445   3.445   3.405   1.885 -0.3680  1.2420  2.0268
22951SOL    HW272446   3.580   3.394   1.817 -2.3291 -0.4360 -1.8938
22952SOL     OW72447   2.237   3.610   4.043 -0.5474  0.1616 -0.1604
22952SOL    HW172448   2.146   3.623   4.015  0.2933  1.4268 -2.5648
22952SOL    HW272449   2.269   3.698   4.063  0.2462 -0.2248  0.3213
22953SOL     OW72450   2.464   0.392   0.776  0.1288  0.1185 -0.2774
22953SOL    HW172451   2.491   0.305   0.747 -0.1610  0.5196 -1.9035
22953SOL    HW272452   2.372   0.381   0.802  0.1288 -0.0876 -0.3593
22954SOL     OW72453   6.808   9.119   6.297  0.0787  0.1309  0.7725
22954SOL    HW172454   6.766   9.205   6.288  0.2090  0.0959 -0.1889
22954SOL    HW272455   6.875   9.117   6.229 -0.2590 -0.9267  0.4487
22955SOL     OW72456   9.738   5.609   1.198 -0.1792  0.1611 -0.1344
22955SOL    HW172457   9.704   5.664   1.128  1.6978 -1.2008 -2.2680
22955SOL    HW272458   9.661   5.563   1.232 -0.9966 -0.2492 -2.3625
22956SOL     OW72459   7.816   5.494  10.718  0.0770 -0.1734  0.3638
22956SOL    HW172460   7.741   5.527  10.766 -1.3795 -1.4378 -0.9405
22956SOL    HW272461   7.823   5.552  10.642  0.9067  0.3752  0.8352
22957SOL     OW72462   0.672   0.768   2.724 -0.0261  0.0969  0.1221
22957SOL    HW172463   0.680   0.727   2.638  1.2608 -1.6316  0.9991
22957SOL    HW272464   0.583   0.745   2.753 -0.8898  1.6470 -1.1584
22958SOL     OW72465   3.690   9.973   6.060  0.5319  0.6228 -0.1302
22958SOL    HW172466   3.611   9.922   6.079  2.0773 -0.4868  4.6885
22958SOL    HW272467   3.735   9.923   5.991 -2.1587  0.5886 -2.0323
22959SOL     OW72468   3.967   0.622   4.639 -0.5900  0.0708 -0.1126
22959SOL    HW172469   4.034   0.565   4.677  0.3120  0.6253 -0.8317
22959SOL    HW272470   3.976   0.705   4.686  0.3355  0.6658 -1.2913
22960SOL     OW72471   4.784   3.603   2.575 -0.1639 -0.2603 -0.0634
22960SOL    HW172472   4.798   3.696   2.593  1.2688 -0.4366 -0.1111
22960SOL    HW272473   4.714   3.577   2.635 -0.0285  0.6712  0.5180
22961SOL     OW72474   4.184   0.568   8.165 -0.0291 -0.0471  0.4548
22961SOL    HW172475   4.221   0.488   8.127 -0.2081  0.9126 -1.9084
22961SOL    HW272476   4.090   0.554   8.164 -0.0100 -0.2483  1.1297
22962SOL     OW72477   4.457   7.701   9.718 -0.0502  0.3094 -0.2075
22962SOL    HW172478   4.414   7.649   9.650  2.5957 -2.1516 -0.2012
22962SOL    HW272479   4.481   7.783   9.674 -2.5051  0.7486 -0.8340
22963SOL     OW72480   9.143   5.128   9.979 -0.0451 -0.2187  0.2261
22963SOL    HW172481   9.077   5.162  10.040 -0.8252 -1.5257  0.1452
22963SOL    HW272482   9.139   5.187   9.904 -1.0110 -0.1904  0.2882
22964SOL     OW72483   8.645   9.117   0.535  0.2725  0.3963  0.2750
22964SOL    HW172484   8.691   9.127   0.452 -0.8846 -1.2901 -0.6458
22964SOL    HW272485   8.712   9.086   0.596  0.9433  0.7231 -0.2830
22965SOL     OW72486   2.180   9.068   6.264  0.1086  0.9643  0.3782
22965SOL    HW172487   2.139   9.034   6.343  2.8642 -1.5844  0.8804
22965SOL    HW272488   2.242   9.134   6.296  1.0568  0.1017  0.3340
22966SOL     OW72489   1.433   9.761   5.581 -0.3227  0.1103 -0.2052
22966SOL    HW172490   1.388   9.845   5.588  0.5874  0.7799 -1.8326
22966SOL    HW272491   1.473   9.749   5.667 -0.0404  1.6063 -0.0881
22967SOL     OW72492   1.634   6.036   8.728 -0.2547 -0.2148 -0.1076
22967SOL    HW172493   1.641   6.054   8.634 -0.6095 -0.7907 -0.2512
22967SOL    HW272494   1.693   5.962   8.743  1.8980  1.5386  0.6482
22968SOL     OW72495   6.843   0.548  10.721  0.0298  0.0316 -0.7576
22968SOL    HW172496   6.843   0.644  10.718 -1.1753  0.0197 -2.1101
22968SOL    HW272497   6.892   0.522  10.643  2.1542 -0.5100  0.6597
22969SOL     OW72498   2.342   7.136  10.514 -0.5462 -0.1982 -0.0443
22969SOL    HW172499   2.339   7.210  10.575  0.9935  0.4333 -0.6755
22969SOL    HW272500   2.416   7.083  10.546 -0.7677 -0.7298 -0.4078
22970SOL     OW72501   2.725   8.814   2.409  0.7412  0.1464  0.0501
22970SOL    HW172502   2.675   8.892   2.432 -0.7689 -0.5668 -0.6013
22970SOL    HW272503   2.791   8.845   2.347 -2.5851  0.4471 -3.7875
22971SOL     OW72504   3.601   3.292  10.610 -1.2022  0.0326  0.0222
22971SOL    HW172505   3.654   3.358  10.654 -3.0804  0.4867  1.7989
22971SOL    HW272506   3.648   3.210  10.623 -0.6200  0.5043  1.0091
22972SOL     OW72507   4.910   8.639   8.011 -0.2944  0.3233 -0.0311
22972SOL    HW172508   4.879   8.729   8.000 -1.5448 -0.2710 -1.6520
22972SOL    HW272509   4.981   8.630   7.947  2.9172  1.3923  3.0363
22973SOL     OW72510   0.851   0.039   7.160 -0.0942 -0.7960 -0.1264
22973SOL    HW172511   0.906  -0.010   7.099 -2.0487 -0.3653 -2.3745
22973SOL    HW272512   0.891   0.126   7.163  2.1351 -1.7688  2.2081
22974SOL     OW72513   6.268   8.432   6.778 -0.2107  0.3793 -0.1691
22974SOL    HW172514   6.350   8.457   6.735 -0.4864  1.1642 -0.2716
22974SOL    HW272515   6.295   8.387   6.858  0.3153 -1.6662 -1.4404
22975SOL     OW72516   6.999   6.644   4.209  0.9266 -0.4047  0.3025
22975SOL    HW172517   6.971   6.560   4.244 -0.1854  0.4304  1.5329
22975SOL    HW272518   6.968   6.645   4.119  0.5397 -1.1315  0.4262
22976SOL     OW72519   5.067   7.404   1.279 -0.2665  0.4282  0.5504
22976SOL    HW172520   5.091   7.484   1.231 -0.7398  0.7227  0.8064
22976SOL    HW272521   5.027   7.347   1.212  0.1713  0.3540  0.3450
22977SOL     OW72522   2.852   1.039  10.110  0.1715  0.3073 -0.0449
22977SOL    HW172523   2.838   1.023  10.204 -0.8278  0.2987 -0.1848
22977SOL    HW272524   2.910   1.114  10.107  0.0503  0.4350  0.5913
22978SOL     OW72525   9.703   6.645   9.204  0.3664 -0.3217 -0.0739
22978SOL    HW172526   9.682   6.701   9.279  0.4982 -1.7450  1.0518
22978SOL    HW272527   9.669   6.559   9.228  1.2757 -1.0243 -1.2372
22979SOL     OW72528   9.766   7.355   1.673 -0.2559  0.3766  0.3863
22979SOL    HW172529   9.672   7.351   1.661  0.0345 -2.5873 -2.4874
22979SOL    HW272530   9.796   7.420   1.610 -0.3479  1.1953  1.1795
22980SOL     OW72531   0.122   4.319   8.455 -0.1072  0.0362 -0.0836
22980SOL    HW172532   0.194   4.276   8.502 -0.5238 -2.2206 -1.3699
22980SOL    HW272533   0.046   4.265   8.472 -1.5343  2.2514  1.0469
22981SOL     OW72534   8.839   7.795   4.839  0.0826  0.1708 -0.5770
22981SOL    HW172535   8.822   7.765   4.749 -0.6064  0.5675 -0.5921
22981SOL    HW272536   8.752   7.812   4.875  0.3209 -0.5120  0.3598
22982SOL     OW72537   6.278  10.032   2.812 -0.3900 -0.1269  0.2196
22982SOL    HW172538   6.312  10.120   2.829  0.9887 -0.8437  1.3931
22982SOL    HW272539   6.275   9.991   2.898  0.8260 -1.8539 -0.4974
22983SOL     OW72540   8.300   3.347   9.318 -0.2006 -0.0559 -0.0752
22983SOL    HW172541   8.395   3.351   9.320 -0.1036 -1.8608  0.2768
22983SOL    HW272542   8.274   3.351   9.410 -0.5870  1.8077 -0.2164
22984SOL     OW72543   3.403   9.854  10.069  0.7807 -0.3059  0.0765
22984SOL    HW172544   3.323   9.900  10.092  1.7680  0.6933  1.7304
22984SOL    HW272545   3.374   9.769  10.037 -0.9602  0.3461 -0.1746
22985SOL     OW72546   3.653   7.569   2.121 -0.3423  0.1461 -0.4021
22985SOL    HW172547   3.695   7.521   2.050 -0.0060  1.2335 -0.9599
22985SOL    HW272548   3.560   7.569   2.097 -0.3102  0.0102 -0.5313
22986SOL     OW72549   9.273   4.207   1.355 -0.3393 -0.5013 -0.2431
22986SOL    HW172550   9.267   4.181   1.447  1.9400 -2.0141 -0.4317
22986SOL    HW272551   9.365   4.231   1.343 -1.1043  2.1082 -1.5789
22987SOL     OW72552  10.980   9.305   0.846 -0.5852 -0.2224  0.0116
22987SOL    HW172553  11.014   9.244   0.781  0.8327 -0.0058  0.5236
22987SOL    HW272554  11.057   9.338   0.891 -1.3506  1.6691  0.0161
22988SOL     OW72555   3.157   6.895   0.466  0.2770  0.0238  0.2817
22988SOL    HW172556   3.074   6.898   0.417  0.6744 -0.8398 -0.4832
22988SOL    HW272557   3.130   6.881   0.557 -0.4303 -3.1955 -0.2760
22989SOL     OW72558   6.088   2.054   0.290 -0.1728 -0.1718 -0.6159
22989SOL    HW172559   6.070   2.146   0.269  1.3011  0.6268  1.3266
22989SOL    HW272560   6.028   2.033   0.361  0.9944  0.0436  0.4791
22990SOL     OW72561   2.384   7.269   5.249 -0.1706 -0.2361 -0.1046
22990SOL    HW172562   2.438   7.255   5.171  3.0592 -0.2929  1.9175
22990SOL    HW272563   2.356   7.360   5.243  2.8057  0.8240  0.0798
22991SOL     OW72564   8.374   0.038   2.535 -0.0506 -0.7369 -0.1264
22991SOL    HW172565   8.334  -0.045   2.561  0.3483 -0.6464  0.7951
22991SOL    HW272566   8.460   0.037   2.576  0.9534 -0.9455 -2.1146
22992SOL     OW72567   1.730   0.062   2.603  0.1617  0.5064 -0.2110
22992SOL    HW172568   1.801   0.112   2.642 -1.2188  1.4551  1.2269
22992SOL    HW272569   1.695   0.009   2.675 -0.1517 -0.4735 -1.0550
22993SOL     OW72570   3.925   6.531   0.718  0.0543 -0.9609 -0.4474
22993SOL    HW172571   3.897   6.620   0.736 -0.1373 -0.6399 -2.1273
22993SOL    HW272572   3.849   6.490   0.676  0.6800 -1.4019 -1.1751
22994SOL     OW72573   6.317   1.775   5.110 -0.2858 -0.5055 -0.1008
22994SOL    HW172574   6.409   1.755   5.090 -0.2036  1.3785 -1.9204
22994SOL    HW272575   6.321   1.840   5.180 -0.1610  0.2990 -0.8376
22995SOL     OW72576  11.073   2.754   2.266 -0.1441  0.4742 -0.5472
22995SOL    HW172577  11.066   2.707   2.183 -2.3061 -0.2497 -0.0138
22995SOL    HW272578  11.094   2.686   2.331 -0.9492  0.6126 -0.1311
22996SOL     OW72579   8.559  10.715   0.641  0.1762  0.3605  0.5970
22996SOL    HW172580   8.502  10.791   0.655  0.7662  1.1696 -1.0206
22996SOL    HW272581   8.610  10.708   0.722 -0.9543  0.7141  1.3690
22997SOL     OW72582   1.616   7.517   2.335  0.3964 -0.0364  0.3641
22997SOL    HW172583   1.605   7.586   2.270  0.5520 -0.0973  0.2718
22997SOL    HW272584   1.695   7.470   2.308  1.0919  0.6162  1.2069
22998SOL     OW72585   8.159   8.164   1.368 -0.6061 -0.3311  0.3029
22998SOL    HW172586   8.167   8.214   1.286 -0.3499 -0.1554  0.4337
22998SOL    HW272587   8.101   8.091   1.346 -1.7436  0.5274  0.3358
22999SOL     OW72588   6.509   6.387   3.789 -0.6308 -0.1516 -0.8926
22999SOL    HW172589   6.466   6.302   3.779 -0.8675 -0.1448 -0.0393
22999SOL    HW272590   6.602   6.368   3.782 -0.6694 -0.5272 -0.4710
23000SOL     OW72591  10.596   8.178   6.379 -0.5087  0.2812 -0.2362
23000SOL    HW172592  10.542   8.193   6.456 -0.6933 -0.1820 -0.2684
23000SOL    HW272593  10.540   8.203   6.305 -1.2734 -1.6586 -0.3671
23001SOL     OW72594   6.677   0.199   3.352  0.5417 -0.3648 -0.7019
23001SOL    HW172595   6.605   0.169   3.296 -0.5266 -1.9981  1.3900
23001SOL    HW272596   6.685   0.131   3.419  2.8672  0.6737  0.1811
23002SOL     OW72597   6.489   5.947   2.503 -0.2980 -0.7821 -0.1771
23002SOL    HW172598   6.517   5.976   2.590  0.5304 -0.0304 -0.6701
23002SOL    HW272599   6.447   6.024   2.465 -0.7516 -1.1411 -0.4044
23003SOL     OW72600   1.238   0.588   8.661  0.1597 -0.2607 -0.1485
23003SOL    HW172601   1.241   0.665   8.604 -3.0282 -0.8003 -1.2170
23003SOL    HW272602   1.174   0.610   8.728  0.1406 -1.5030  0.2699
23004SOL     OW72603   6.263   4.899   0.297 -0.1087  0.6903 -0.3923
23004SOL    HW172604   6.303   4.845   0.229 -1.1261  0.2656 -0.6700
23004SOL    HW272605   6.171   4.873   0.297 -0.2913  1.2969  0.5659
23005SOL     OW72606   7.501   6.465   4.874 -0.2720  0.0620 -0.1440
23005SOL    HW172607   7.576   6.519   4.850  0.1459 -1.7024 -3.2557
23005SOL    HW272608   7.424   6.519   4.855  0.1666  0.3739 -1.0454
23006SOL     OW72609   6.837   8.195   1.379  0.0016  0.3319  0.1402
23006SOL    HW172610   6.886   8.155   1.308  0.6816  1.2290  0.0887
23006SOL    HW272611   6.776   8.126   1.408  0.4014 -0.3664 -0.6360
23007SOL     OW72612  10.972   6.382   9.542  0.1189  0.3872 -0.5823
23007SOL    HW172613  10.910   6.432   9.596  0.3860  0.2540 -0.1502
23007SOL    HW272614  11.000   6.443   9.474 -1.2991  0.1395 -1.4352
23008SOL     OW72615   0.026   8.235   6.959  0.7280 -0.0196 -0.1998
23008SOL    HW172616  -0.041   8.183   7.003  0.5418 -1.2888 -1.8652
23008SOL    HW272617   0.089   8.257   7.027 -0.6153 -0.0537  1.1080
23009SOL     OW72618   0.127   3.997   8.407  0.2498 -0.0576  0.0421
23009SOL    HW172619   0.144   3.904   8.393  0.6947  0.1471 -0.8794
23009SOL    HW272620   0.187   4.022   8.477 -0.2144 -0.5634  0.6276
23010SOL     OW72621   8.786   1.211  10.653 -0.0617  0.8576 -0.2620
23010SOL    HW172622   8.786   1.282  10.716 -0.8755  0.7474 -0.1266
23010SOL    HW272623   8.868   1.163  10.669 -0.5267  0.4910  1.0941
23011SOL     OW72624   3.952   7.536   4.110  0.7331 -0.3652  0.6853
23011SOL    HW172625   3.916   7.483   4.181  0.0724 -0.8014  0.0441
23011SOL    HW272626   3.874   7.573   4.067  1.1354  0.1041  0.3557
23012SOL     OW72627  10.271   8.888   4.371 -0.7174  0.3382 -0.2987
23012SOL    HW172628  10.270   8.795   4.394  1.0621  0.3318 -0.1023
23012SOL    HW272629  10.261   8.889   4.276 -3.6195  0.1385 -0.0771
23013SOL     OW72630   6.989   1.977   7.276 -0.0369 -0.3967  0.0850
23013SOL    HW172631   6.946   1.895   7.252  0.8740 -0.1002 -3.1028
23013SOL    HW272632   7.082   1.957   7.274  0.1508  0.3092  1.0999
23014SOL     OW72633   5.256   2.259   0.232  0.1732  0.1139 -0.1523
23014SOL    HW172634   5.284   2.268   0.323  1.4728  1.9568 -0.6803
23014SOL    HW272635   5.338   2.245   0.184 -0.6611 -3.1928 -0.8707
23015SOL     OW72636   1.388  10.749   7.793  0.0064  0.2464 -0.0317
23015SOL    HW172637   1.420  10.707   7.713 -0.5937 -0.7915  0.2600
23015SOL    HW272638   1.294  10.731   7.793  0.1154 -0.4111  1.2906
23016SOL     OW72639   3.255  10.481  10.811 -0.5040  0.4783 -0.2075
23016SOL    HW172640   3.189  10.452  10.874  0.5571  1.1098  1.2342
23016SOL    HW272641   3.238  10.575  10.801  0.1662  0.6448  0.1795
23017SOL     OW72642  11.112   7.575   2.617  0.6384  0.2421  0.3228
23017SOL    HW172643  11.033   7.627   2.630  2.0887  2.4414  0.8978
23017SOL    HW272644  11.110   7.552   2.523  1.5477  4.3462 -0.8820
23018SOL     OW72645   0.408   3.118   5.906  0.2785 -0.0479 -0.3855
23018SOL    HW172646   0.494   3.076   5.902  1.1619  1.7141 -1.3123
23018SOL    HW272647   0.420   3.190   5.968 -0.5635  0.1646 -0.4619
23019SOL     OW72648   9.052   0.838   4.494  0.2613 -0.6351  0.2305
23019SOL    HW172649   9.043   0.850   4.399 -1.2101  1.0139  0.5321
23019SOL    HW272650   9.041   0.744   4.507 -0.1474 -0.8081 -1.1850
23020SOL     OW72651   1.669  10.391   2.818 -0.2789  0.0062  0.1687
23020SOL    HW172652   1.667  10.302   2.852 -0.3255 -0.0814 -0.0597
23020SOL    HW272653   1.632  10.445   2.888  0.1670 -0.0939  0.4869
23021SOL     OW72654   9.448   6.251   0.755  0.5081 -0.1226  0.1967
23021SOL    HW172655   9.532   6.295   0.757  0.0814  0.7495 -0.4341
23021SOL    HW272656   9.456   6.186   0.685  0.3699  0.5921 -0.5008
23022SOL     OW72657   9.641   5.043   1.756 -0.0424 -0.0379 -0.2364
23022SOL    HW172658   9.713   5.106   1.756  2.4527 -2.7248 -1.0074
23022SOL    HW272659   9.643   5.004   1.843  0.2150 -0.9617 -0.6492
23023SOL     OW72660   4.499   4.616   7.452 -0.0986 -0.3577 -0.1537
23023SOL    HW172661   4.406   4.598   7.462  0.1138 -0.7465  1.4619
23023SOL    HW272662   4.504   4.711   7.441 -0.8214 -0.5520 -2.8721
23024SOL     OW72663   3.511   1.170   5.970  0.1035 -0.2210 -0.6201
23024SOL    HW172664   3.427   1.146   5.930  1.6998 -0.4722 -4.2256
23024SOL    HW272665   3.502   1.264   5.989 -1.2813 -0.4504 -0.0618
23025SOL     OW72666   2.390   3.128   2.455  0.0266 -0.5203 -0.4444
23025SOL    HW172667   2.409   3.040   2.423  1.9370 -0.1078 -0.5095
23025SOL    HW272668   2.366   3.177   2.376 -0.5812 -0.8377 -0.4678
23026SOL     OW72669   5.732  11.016   1.718 -0.8916  0.9661  0.2661
23026SOL    HW172670   5.798  11.036   1.651 -1.6927  0.0089 -0.8506
23026SOL    HW272671   5.653  11.060   1.688 -1.0424  1.2405  1.0484
23027SOL     OW72672   1.400  10.146   8.988  0.0094 -0.5140 -0.2882
23027SOL    HW172673   1.318  10.098   8.978  0.9322 -2.0209 -1.0252
23027SOL    HW272674   1.468  10.078   8.987  1.2805  0.7015  0.1047
23028SOL     OW72675  10.571   4.590   9.064  0.7586  0.6348 -0.5597
23028SOL    HW172676  10.528   4.524   9.118 -0.5826  0.3641 -1.9071
23028SOL    HW272677  10.656   4.603   9.106  0.3859 -0.7023  0.6990
23029SOL     OW72678   9.015   0.137   5.766  0.2632 -0.1391 -0.1800
23029SOL    HW172679   9.060   0.053   5.767 -0.0332 -0.3022  0.7341
23029SOL    HW272680   8.927   0.117   5.734  0.0471 -0.2716  0.4686
23030SOL     OW72681   8.715   4.717   6.932  0.0499  0.2725 -0.6547
23030SOL    HW172682   8.647   4.752   6.988  2.2641  0.5345  2.0897
23030SOL    HW272683   8.770   4.792   6.911  1.2977 -0.4209 -0.0066
23031SOL     OW72684   5.334   9.016   0.355 -0.5701 -0.1927 -0.8033
23031SOL    HW172685   5.292   8.975   0.280 -0.0921 -1.5784 -0.3652
23031SOL    HW272686   5.411   9.060   0.319 -0.2075 -1.0523 -1.1190
23032SOL     OW72687   7.515   8.127   6.623  0.6116  0.3969 -0.3543
23032SOL    HW172688   7.459   8.078   6.563 -1.6948  3.1690 -0.7058
23032SOL    HW272689   7.537   8.065   6.692 -3.8261 -0.7227  0.3668
23033SOL     OW72690   3.176   5.828   9.048  0.0523 -0.6182 -0.2677
23033SOL    HW172691   3.203   5.819   9.140 -0.0686  0.1389 -0.1478
23033SOL    HW272692   3.114   5.757   9.034  0.4379 -1.0321  0.0969
23034SOL     OW72693   2.114   6.364  10.829 -0.3199  0.1793 -0.5194
23034SOL    HW172694   2.028   6.323  10.825  0.2310 -0.9051 -2.3957
23034SOL    HW272695   2.133   6.388  10.738  1.3426  0.3998 -0.1403
23035SOL     OW72696   3.872   4.452  10.161  0.1440 -0.4537 -0.0647
23035SOL    HW172697   3.828   4.458  10.077 -0.8483  0.3272  0.4919
23035SOL    HW272698   3.856   4.537  10.203 -0.3018 -1.1995  1.3556
23036SOL     OW72699   5.365  10.473   2.494 -0.1949  0.1791 -0.0777
23036SOL    HW172700   5.322  10.558   2.504  0.7419  0.5297  1.3398
23036SOL    HW272701   5.294  10.412   2.475 -1.2975  0.8089  1.7286
23037SOL     OW72702   0.627   4.088   7.679 -0.0600 -0.4387  0.3753
23037SOL    HW172703   0.630   4.184   7.685  0.1087 -0.3955 -0.2991
23037SOL    HW272704   0.543   4.069   7.637  0.4215 -0.5135 -0.5917
23038SOL     OW72705  10.417   5.466   6.791  0.3932 -0.3920 -0.0802
23038SOL    HW172706  10.371   5.384   6.806 -2.6277  1.2614  0.6125
23038SOL    HW272707  10.411   5.480   6.696  2.1609 -1.5575 -0.4056
23039SOL     OW72708   0.954   8.529  10.822  0.0916  0.1004  0.4161
23039SOL    HW172709   1.001   8.523  10.739  1.6379  1.5135  1.1525
23039SOL    HW272710   1.013   8.491  10.887  0.4654  2.2822  1.4263
23040SOL     OW72711   1.080   0.868  10.369 -0.0116  0.1861 -0.0725
23040SOL    HW172712   1.018   0.866  10.297  1.5603  3.6168 -1.7629
23040SOL    HW272713   1.166   0.858  10.328  0.7998 -0.6110  1.6982
23041SOL     OW72714   0.851   2.580   6.633 -0.2536 -0.1095  0.1150
23041SOL    HW172715   0.932   2.612   6.592  0.9121 -2.5445  0.3629
23041SOL    HW272716   0.844   2.489   6.605 -3.2122  0.1390 -0.2766
23042SOL     OW72717   3.295   0.504   0.683  0.0903  0.5487 -0.5773
23042SOL    HW172718   3.308   0.589   0.640 -2.1932  1.2685  0.0347
23042SOL    HW272719   3.250   0.525   0.765 -2.0214 -1.3638 -1.1629
23043SOL     OW72720   5.927   7.048   3.240  0.0082  0.0357 -0.4370
23043SOL    HW172721   5.926   7.140   3.267  4.0036  0.8530 -2.4132
23043SOL    HW272722   5.856   7.041   3.176  0.1669  1.9774 -0.8790
23044SOL     OW72723   9.351  10.896   0.600  0.0266  0.0348  0.0088
23044SOL    HW172724   9.428  10.943   0.633  1.5076 -1.3076 -1.3475
23044SOL    HW272725   9.358  10.809   0.638  0.2326 -0.6739 -1.5736
23045SOL     OW72726   6.879   8.669   5.848  0.1355 -0.8298  0.3013
23045SOL    HW172727   6.873   8.685   5.943 -0.6614 -1.0336  0.2991
23045SOL    HW272728   6.789   8.647   5.823  0.2762 -0.4267 -0.5731
23046SOL     OW72729   9.797   2.100   3.032 -0.8975  0.6250 -0.0977
23046SOL    HW172730   9.853   2.034   2.991 -1.1064  0.0501  0.5262
23046SOL    HW272731   9.722   2.051   3.065 -1.8785  1.4147 -1.0732
23047SOL     OW72732   8.537   8.234   3.032 -0.6601  0.0610 -0.8528
23047SOL    HW172733   8.506   8.299   2.968 -0.9361 -0.5769 -1.3755
23047SOL    HW272734   8.597   8.178   2.982  0.3232  0.4770 -0.1731
23048SOL     OW72735   0.228   8.186   3.181 -0.1205 -0.0871  0.6482
23048SOL    HW172736   0.286   8.217   3.251  1.5598  0.2021 -0.8159
23048SOL    HW272737   0.267   8.220   3.101 -3.1340  1.3469 -0.3551
23049SOL     OW72738   0.453   4.880   1.106 -0.2708  0.0198  0.6985
23049SOL    HW172739   0.375   4.845   1.150 -0.7002  0.5241  0.3630
23049SOL    HW272740   0.421   4.908   1.020  0.4724 -0.5685  0.2231
23050SOL     OW72741   6.305   4.463   5.888  0.0547  0.4430 -0.1576
23050SOL    HW172742   6.321   4.372   5.862 -2.6680 -0.1678 -0.0612
23050SOL    HW272743   6.341   4.470   5.976  0.3246 -0.5562 -0.1776
23051SOL     OW72744  10.979   4.480   3.922 -0.4285  0.2857 -0.4932
23051SOL    HW172745  10.948   4.563   3.958  0.1660  0.4177 -0.2712
23051SOL    HW272746  11.073   4.494   3.907 -0.3134 -0.3640 -0.4004
23052SOL     OW72747   3.517   5.086  10.878  0.3399 -0.0233  0.0000
23052SOL    HW172748   3.440   5.051  10.833  0.7252 -2.4887  1.1000
23052SOL    HW272749   3.512   5.050  10.966  1.4132  1.9120  0.9249
23053SOL     OW72750   1.973   2.727   3.785  0.4630 -0.1392  0.3915
23053SOL    HW172751   1.932   2.668   3.721  0.1527 -1.5475  1.8364
23053SOL    HW272752   2.039   2.673   3.829 -0.4128  0.3113  2.3434
23054SOL     OW72753  10.168   9.657   0.893  0.0756 -0.6398 -0.4426
23054SOL    HW172754  10.102   9.612   0.841 -3.4196  0.9297  2.2359
23054SOL    HW272755  10.232   9.589   0.915 -1.3519 -2.5955 -2.0266
23055SOL     OW72756   9.094   7.696   6.323 -0.1665  0.1483 -1.0882
23055SOL    HW172757   9.118   7.770   6.266  0.0262  0.1093 -1.0603
23055SOL    HW272758   9.172   7.683   6.378 -0.2816  0.0626 -0.9474
23056SOL     OW72759   7.460   7.883   2.433  0.2889  0.4987  0.1096
23056SOL    HW172760   7.377   7.838   2.452  1.3778 -1.7407 -0.0748
23056SOL    HW272761   7.506   7.824   2.373  3.9378 -0.6842  3.6210
23057SOL     OW72762   4.366   8.785  10.994  0.4795  0.0695  0.2076
23057SOL    HW172763   4.419   8.723  10.945  0.2172 -0.4655  0.5931
23057SOL    HW272764   4.406   8.789  11.080 -0.4719 -0.8522  0.7235
23058SOL     OW72765  10.746   6.637   0.513 -0.0717  0.1618 -0.0496
23058SOL    HW172766  10.726   6.545   0.525 -1.3312  0.1879 -1.5622
23058SOL    HW272767  10.678   6.669   0.452  1.0516  1.7804 -0.5350
23059SOL     OW72768   4.732   0.074   4.758 -0.5162 -0.2736 -0.1176
23059SOL    HW172769   4.654   0.117   4.724 -0.2141 -0.0938 -0.6037
23059SOL    HW272770   4.699   0.008   4.819 -1.0209  0.1147  0.0344
23060SOL     OW72771   4.772   9.702   6.176  0.0884 -0.1544 -0.2219
23060SOL    HW172772   4.705   9.757   6.217 -0.1639 -0.7657  0.1819
23060SOL    HW272773   4.822   9.764   6.122 -1.1631  0.2198 -1.0143
23061SOL     OW72774   8.689   6.012   5.916 -0.6774 -0.4043 -0.1766
23061SOL    HW172775   8.783   6.004   5.930 -0.4564 -1.3751 -1.9079
23061SOL    HW272776   8.680   6.082   5.851 -1.1120 -0.6864 -0.4263
23062SOL     OW72777   9.632   5.369   5.927  0.3210  0.2156 -0.5612
23062SOL    HW172778   9.695   5.418   5.874  0.5591  0.5853  0.0483
23062SOL    HW272779   9.588   5.311   5.865 -0.3798  1.6105 -1.4101
23063SOL     OW72780   2.963   5.451   9.210 -0.6090 -0.0922 -0.5845
23063SOL    HW172781   2.962   5.504   9.130  0.6818 -1.5981 -1.6864
23063SOL    HW272782   2.884   5.397   9.204 -1.1958  0.7084 -0.1651
23064SOL     OW72783   9.539   7.467   7.014 -0.4931  0.3814  0.1385
23064SOL    HW172784   9.548   7.460   6.919 -0.2303 -0.1795  0.2018
23064SOL    HW272785   9.592   7.543   7.038  1.1622 -0.7001  0.0712
23065SOL     OW72786   1.663   7.615   1.002  0.0446  0.8967  0.1645
23065SOL    HW172787   1.590   7.555   0.988  0.1911  0.4995  1.0440
23065SOL    HW272788   1.628   7.701   0.976 -0.5374  0.6193  0.0016
23066SOL     OW72789   7.928   7.037   3.764  0.0980 -0.0849  0.2852
23066SOL    HW172790   7.968   7.123   3.750  0.9196 -0.6139 -0.7885
23066SOL    HW272791   7.974   7.001   3.840  0.4996 -0.0026  0.0840
23067SOL     OW72792  10.687   1.876   8.677 -0.0289 -0.1902  0.1472
23067SOL    HW172793  10.685   1.966   8.646  2.1793  0.2458  1.0599
23067SOL    HW272794  10.676   1.884   8.772  1.4996 -0.7116  0.3994
23068SOL     OW72795   8.765   6.945   3.468  0.1358  0.9506 -0.1585
23068SOL    HW172796   8.844   6.924   3.518 -0.2706  0.5247  0.3140
23068SOL    HW272797   8.738   6.862   3.430 -0.8521  0.8160  0.8050
23069SOL     OW72798   9.047   3.101   6.364 -0.6850 -0.1811 -0.3342
23069SOL    HW172799   9.136   3.100   6.328  0.2033 -1.3892  1.7179
23069SOL    HW272800   9.012   3.186   6.337  1.0049  0.2569 -1.3639
23070SOL     OW72801  10.403  11.007   6.910  0.6286 -0.2971  0.1160
23070SOL    HW172802  10.336  11.075   6.902 -0.3617 -1.3915 -1.5503
23070SOL    HW272803  10.472  11.047   6.963 -0.6616  1.3932  0.6026
23071SOL     OW72804  10.211   1.300   4.647 -0.2599  0.1624 -0.1141
23071SOL    HW172805  10.253   1.219   4.678 -0.3259  0.8124  1.7830
23071SOL    HW272806  10.281   1.365   4.648 -0.7013  0.6366  0.5133
23072SOL     OW72807   5.030  10.632   2.270  0.2338  0.8434 -0.4455
23072SOL    HW172808   5.013  10.709   2.324  0.7644  2.5145 -2.5344
23072SOL    HW272809   5.092  10.662   2.203 -0.3473 -1.0968 -1.9595
23073SOL     OW72810   0.516   5.173   2.334 -0.5186 -0.1650  0.6534
23073SOL    HW172811   0.472   5.217   2.408 -0.5487 -1.3813  1.3865
23073SOL    HW272812   0.455   5.104   2.308 -0.7583  0.5810 -0.9042
23074SOL     OW72813   7.281   6.855   5.195 -0.4288 -0.7019  0.0716
23074SOL    HW172814   7.197   6.899   5.210  0.5348  1.1080  0.4230
23074SOL    HW272815   7.301   6.814   5.278 -0.0177  0.6065  0.6474
23075SOL     OW72816   5.022   9.501   4.713  0.0343  0.1192  0.0592
23075SOL    HW172817   5.099   9.473   4.762  0.1494  1.5267  0.7354
23075SOL    HW272818   5.010   9.434   4.645  2.0305  0.0402 -0.2596
23076SOL     OW72819   5.440   2.727   8.450  0.3481 -0.3700 -0.6814
23076SOL    HW172820   5.527   2.716   8.490 -0.7019 -4.5406  0.8754
23076SOL    HW272821   5.446   2.681   8.367 -0.0603  0.4658 -1.1898
23077SOL     OW72822   5.901   0.116   1.565 -0.0611  0.2457  0.3487
23077SOL    HW172823   5.992   0.145   1.558  0.4964 -1.5936 -0.6226
23077SOL    HW272824   5.889   0.055   1.492 -1.8711 -0.0701  0.8578
23078SOL     OW72825   1.127   2.154  10.313  0.0887  0.1652 -0.0411
23078SOL    HW172826   1.220   2.156  10.334  0.2751  0.8582 -0.8574
23078SOL    HW272827   1.084   2.146  10.398  0.8944 -0.3082  0.3347
23079SOL     OW72828   3.800   2.774   4.658  1.2776 -0.3334 -0.2641
23079SOL    HW172829   3.758   2.776   4.572  0.4103 -3.9716 -0.0911
23079SOL    HW272830   3.728   2.794   4.719  1.3411 -0.1483 -0.2476
23080SOL     OW72831   4.647   9.317   5.644 -0.0231 -0.1768 -0.0768
23080SOL    HW172832   4.721   9.329   5.704  0.4925 -0.1633 -0.6967
23080SOL    HW272833   4.628   9.223   5.649  0.4300 -0.2886 -0.3540
23081SOL     OW72834   3.037   5.229   6.732  0.9006 -0.3218 -0.1437
23081SOL    HW172835   2.956   5.222   6.783  1.4695 -1.0243  0.7014
23081SOL    HW272836   3.048   5.142   6.694  1.6099 -0.4420  0.3205
23082SOL     OW72837   4.246   8.561   9.838 -0.0126  0.4572  0.3242
23082SOL    HW172838   4.280   8.544   9.750  2.3265  0.6901  1.0951
23082SOL    HW272839   4.289   8.496   9.893 -1.6175  0.1762  1.2955
23083SOL     OW72840   2.347   4.591  10.350 -0.1587  0.1798 -0.2061
23083SOL    HW172841   2.361   4.546  10.433 -1.7331  1.1735  0.6591
23083SOL    HW272842   2.265   4.554  10.317  1.4030 -1.6146 -2.3608
23084SOL     OW72843   1.553   1.875   0.256  0.4401  0.4477 -0.3890
23084SOL    HW172844   1.583   1.843   0.341 -1.1610  0.4688  0.2208
23084SOL    HW272845   1.462   1.847   0.251 -0.5656  3.4354 -0.5559
23085SOL     OW72846  10.335   9.891   4.054  0.0042  0.3881  0.3809
23085SOL    HW172847  10.427   9.916   4.057  0.7183 -1.9331 -0.3054
23085SOL    HW272848  10.330   9.811   4.107 -1.5366  0.2614  0.0764
23086SOL     OW72849   5.110   0.354   0.947 -0.3697 -0.6008 -0.4529
23086SOL    HW172850   5.114   0.260   0.932 -0.0357 -0.8434  0.9921
23086SOL    HW272851   5.186   0.389   0.900 -0.1535 -1.1245 -0.5029
23087SOL     OW72852   2.342   0.172  10.065 -0.1799 -0.1705  0.0939
23087SOL    HW172853   2.362   0.129  10.148 -1.7426  0.2092  0.6872
23087SOL    HW272854   2.247   0.183  10.065 -0.1346  0.4797 -1.4327
23088SOL     OW72855   6.966  10.574   6.792  1.1538 -0.0797  0.1925
23088SOL    HW172856   6.966  10.657   6.744  0.4064  0.4733  1.1229
23088SOL    HW272857   6.958  10.507   6.723 -0.7808  0.7258 -0.4308
23089SOL     OW72858   3.948   5.181   4.579 -0.1038  0.1544  0.3527
23089SOL    HW172859   3.996   5.101   4.556 -1.4817 -0.8137  0.7297
23089SOL    HW272860   3.888   5.154   4.648 -1.3547  1.2495 -0.2589
23090SOL     OW72861   7.074   4.418   4.362 -0.0324 -0.0801  0.2811
23090SOL    HW172862   7.158   4.398   4.322  0.4863 -1.4663  1.9290
23090SOL    HW272863   7.096   4.454   4.448 -1.1168  1.4491 -0.0430
23091SOL     OW72864   0.014   1.133  10.636 -0.1314 -0.1338 -0.1184
23091SOL    HW172865   0.039   1.221  10.607  0.5191  0.3453  1.7548
23091SOL    HW272866   0.096   1.091  10.659 -0.5771 -0.6645  0.5211
23092SOL     OW72867   9.400   0.507  10.987  1.0015  0.5636  0.2233
23092SOL    HW172868   9.312   0.538  10.966  1.4826  1.9270  0.0807
23092SOL    HW272869   9.391   0.463  11.071  0.1538  0.5428  0.1278
23093SOL     OW72870   7.918   7.487   3.848  0.8745 -0.6368  0.3129
23093SOL    HW172871   7.919   7.539   3.928 -1.1141 -0.4140  0.2527
23093SOL    HW272872   7.924   7.551   3.777  0.8751 -0.6756  0.2777
23094SOL     OW72873   5.120   9.556   2.835 -0.6474 -0.1698  0.0275
23094SOL    HW172874   5.190   9.600   2.786 -1.0957  0.0368 -0.4370
23094SOL    HW272875   5.165   9.513   2.908 -0.1175  0.5029  0.1068
23095SOL     OW72876   5.111   8.522   3.156 -0.1518 -0.1614 -0.5971
23095SOL    HW172877   5.047   8.585   3.189 -4.2359 -3.9159 -0.4240
23095SOL    HW272878   5.183   8.575   3.125 -2.6135  4.4431  0.6691
23096SOL     OW72879   9.980   6.873   9.556 -0.3494  0.5485  0.2827
23096SOL    HW172880   9.932   6.790   9.564  0.4142  0.0610 -0.0779
23096SOL    HW272881   9.981   6.908   9.645  0.1141 -0.2928  0.6245
23097SOL     OW72882   7.435   0.790   0.601 -0.3840 -0.0607  0.1313
23097SOL    HW172883   7.431   0.782   0.505 -1.1290 -0.1419  0.1641
23097SOL    HW272884   7.502   0.728   0.627 -0.6957 -0.5834 -0.2802
23098SOL     OW72885   7.976  10.063   8.594  0.0987  0.0741  0.1173
23098SOL    HW172886   7.986  10.120   8.670  0.9756 -1.3512  1.1266
23098SOL    HW272887   7.926   9.988   8.626  1.9532 -1.3794 -0.1701
23099SOL     OW72888   3.331  10.087   3.845  0.3065 -0.2621  0.4332
23099SOL    HW172889   3.376  10.166   3.874 -0.2408  0.6059 -0.9789
23099SOL    HW272890   3.245  10.091   3.887  0.5763 -0.5515  1.0246
23100SOL     OW72891   9.527   0.993   0.289 -0.4863 -0.0613 -0.1502
23100SOL    HW172892   9.444   0.946   0.279  0.0041 -1.1739  0.7766
23100SOL    HW272893   9.523   1.032   0.376  0.6448 -1.6333  0.6698
23101SOL     OW72894   5.844   8.770   8.129 -0.0813  0.1140 -0.2681
23101SOL    HW172895   5.890   8.835   8.075 -0.6447 -0.4742 -1.5163
23101SOL    HW272896   5.792   8.822   8.190  0.2561  0.8176 -0.5592
23102SOL     OW72897   6.572   8.852   2.074 -0.4988  0.6397  0.2208
23102SOL    HW172898   6.624   8.816   2.003 -0.5551 -0.0004  0.5034
23102SOL    HW272899   6.635   8.871   2.143 -0.7260 -0.9427  0.8959
23103SOL     OW72900  10.162   0.555   8.564  0.3881 -0.5369 -0.5646
23103SOL    HW172901  10.172   0.557   8.659  0.0222 -2.5059 -0.4401
23103SOL    HW272902  10.190   0.642   8.535  1.8108 -0.3437  1.2052
23104SOL     OW72903   7.582   8.941   8.157 -0.2391  0.1918  0.3553
23104SOL    HW172904   7.608   8.936   8.065  1.4743 -2.5347  0.8758
23104SOL    HW272905   7.490   8.968   8.155 -0.7473 -1.4623 -2.2395
23105SOL     OW72906   7.531   6.591   3.044 -0.0518  0.2181  0.3188
23105SOL    HW172907   7.625   6.573   3.050  0.2162  1.3526 -0.1220
23105SOL    HW272908   7.520   6.673   3.092 -0.9165 -0.1757  0.8112
23106SOL     OW72909   7.964   6.591   2.058  0.1019 -0.2412 -0.9369
23106SOL    HW172910   7.878   6.551   2.070 -0.3724  1.0877  0.3309
23106SOL    HW272911   7.964   6.622   1.968 -0.3643 -1.1101 -1.2437
23107SOL     OW72912   6.689  10.219   2.459 -0.1558  0.3541 -0.0630
23107SOL    HW172913   6.737  10.300   2.439  0.2006  0.5096  1.3116
23107SOL    HW272914   6.625  10.245   2.525  2.0870 -1.0174  2.8745
23108SOL     OW72915   0.323  10.888   4.821  0.0337 -0.0951  0.4044
23108SOL    HW172916   0.339  10.814   4.762  2.3587  0.8173 -0.2138
23108SOL    HW272917   0.239  10.924   4.793  0.2842 -0.7189 -1.2500
23109SOL     OW72918   6.855  10.563  11.021  0.8419  0.2378 -0.3408
23109SOL    HW172919   6.875  10.654  10.997  1.5088  0.1076 -0.2920
23109SOL    HW272920   6.935  10.515  11.000  1.4155  0.0798  1.9995
23110SOL     OW72921   3.802   3.481   9.306  0.2223 -0.0534  0.6725
23110SOL    HW172922   3.812   3.510   9.215  0.3009  1.3101  1.0961
23110SOL    HW272923   3.748   3.402   9.300  1.5960 -0.9576 -0.6887
23111SOL     OW72924  10.590   0.575  10.457 -0.9826 -0.2543 -0.5994
23111SOL    HW172925  10.644   0.562  10.535 -0.7253 -0.4055 -0.8037
23111SOL    HW272926  10.652   0.595  10.387 -1.0966 -1.4330 -1.0602
23112SOL     OW72927   7.266   9.964   5.206 -0.2134  0.1583  0.1016
23112SOL    HW172928   7.179   9.956   5.246 -0.7760  1.5081 -0.7791
23112SOL    HW272929   7.268  10.053   5.172  1.5121  0.1236  0.0451
23113SOL     OW72930   7.787   2.236   1.782 -0.8817 -0.4276  0.2438
23113SOL    HW172931   7.825   2.172   1.722 -1.1640 -1.6489  1.3095
23113SOL    HW272932   7.708   2.267   1.737  0.3698  0.8043 -1.2101
23114SOL     OW72933   5.459   8.245   3.102  0.4227 -0.2058 -0.1564
23114SOL    HW172934   5.370   8.244   3.138  0.5120  1.5490  0.2304
23114SOL    HW272935   5.475   8.155   3.073 -1.5540 -0.5045 -0.4451
23115SOL     OW72936   0.774   5.894   1.909 -0.4887  0.7907 -0.2611
23115SOL    HW172937   0.816   5.955   1.970 -1.1185  1.2618 -0.2877
23115SOL    HW272938   0.733   5.828   1.965  0.4204  0.2321 -0.2406
23116SOL     OW72939   2.451   2.840   6.216  0.4490  0.2896 -0.2404
23116SOL    HW172940   2.451   2.745   6.229 -1.2241  0.2726 -0.2131
23116SOL    HW272941   2.543   2.865   6.224  0.7566 -1.1248  1.2575
23117SOL     OW72942   4.941   6.858  10.479  0.4949 -0.2882 -0.4825
23117SOL    HW172943   4.856   6.819  10.502 -0.5076  2.0167  0.0208
23117SOL    HW272944   4.961   6.822  10.393 -1.9421  0.4697 -1.4534
23118SOL     OW72945   5.190   4.143   7.873 -0.0367  0.2633  0.1607
23118SOL    HW172946   5.218   4.113   7.959 -1.0818 -0.3642  0.2997
23118SOL    HW272947   5.185   4.063   7.821 -0.0301  0.5631 -0.3042
23119SOL     OW72948   1.286   9.020   4.584 -0.3112 -0.0159 -0.6627
23119SOL    HW172949   1.276   9.048   4.675  0.3876  0.9706 -0.8815
23119SOL    HW272950   1.255   9.094   4.532 -1.9422 -1.0416 -1.2517
23120SOL     OW72951   3.405   7.303   4.659  0.0785  0.4218 -0.2878
23120SOL    HW172952   3.443   7.286   4.573 -1.4662  2.4569 -1.4444
23120SOL    HW272953   3.478   7.288   4.720  2.3184  2.4706 -2.2447
23121SOL     OW72954   2.362   6.250   2.258 -0.0499  0.4684  0.1985
23121SOL    HW172955   2.426   6.241   2.329 -0.3137 -0.6137  0.3221
23121SOL    HW272956   2.404   6.208   2.183 -0.5130 -0.0312  0.2144
23122SOL     OW72957  10.890   5.877   6.269  0.0643  0.0260  0.0830
23122SOL    HW172958  10.967   5.910   6.315  0.2378 -1.4142  0.8691
23122SOL    HW272959  10.838   5.955   6.249  0.4587  0.7718  1.8713
23123SOL     OW72960   4.264   3.148   5.139 -0.0894 -0.3067  0.4226
23123SOL    HW172961   4.182   3.121   5.096 -0.5710  3.6084 -1.5600
23123SOL    HW272962   4.235   3.195   5.218  0.0260  2.1218 -0.8929
23124SOL     OW72963   5.193   5.241   0.478  0.3994  0.2755  0.4197
23124SOL    HW172964   5.162   5.329   0.456  0.7540  0.1435 -0.6651
23124SOL    HW272965   5.152   5.185   0.413  4.5318  0.3379 -2.6471
23125SOL     OW72966  10.227   8.969   3.151  0.1797 -0.8139  0.0245
23125SOL    HW172967  10.268   8.959   3.065  3.3922 -0.4268  1.3796
23125SOL    HW272968  10.232   8.883   3.191 -1.3708 -1.0100 -0.1499
23126SOL     OW72969   7.989   0.086   8.353  0.1592 -0.1563 -0.1925
23126SOL    HW172970   8.056   0.147   8.384 -0.1798 -0.2360  0.7338
23126SOL    HW272971   7.943   0.059   8.432  0.4222 -1.7811 -0.5616
23127SOL     OW72972   5.373   0.651   5.682 -0.2380 -0.5345  0.0265
23127SOL    HW172973   5.436   0.703   5.733  0.2861  0.3408 -1.4451
23127SOL    HW272974   5.415   0.566   5.671 -0.5163 -0.8651  1.3218
23128SOL     OW72975   0.814   5.415   3.121  0.1742  0.1315  0.1254
23128SOL    HW172976   0.810   5.340   3.181  0.0602 -0.0487 -0.1042
23128SOL    HW272977   0.723   5.434   3.100  0.2535 -0.6013 -0.9629
23129SOL     OW72978   8.678   9.172   9.574 -0.0789  0.5943 -0.6296
23129SOL    HW172979   8.749   9.137   9.629  0.9237  0.8892 -1.7143
23129SOL    HW272980   8.650   9.252   9.620 -2.7624 -1.6867  2.1862
23130SOL     OW72981   6.108   7.985   0.264 -0.5514 -0.3483 -0.3724
23130SOL    HW172982   6.166   8.053   0.300 -1.3208  0.5158 -0.7118
23130SOL    HW272983   6.151   7.903   0.287  0.2073  0.2363  0.4131
23131SOL     OW72984   0.762   4.617   5.545  0.2822  0.4170 -0.0474
23131SOL    HW172985   0.850   4.581   5.548 -0.0281 -0.3240  1.2904
23131SOL    HW272986   0.729   4.594   5.459  1.9259  2.1219 -1.2102
23132SOL     OW72987   7.972   5.146   5.739 -0.2906  0.0322 -0.3415
23132SOL    HW172988   7.914   5.083   5.697  0.7788 -0.9110 -0.4624
23132SOL    HW272989   7.953   5.138   5.833 -0.3070 -0.3377 -0.3742
23133SOL     OW72990   4.238   5.517   1.994  0.0481 -0.0521  0.4325
23133SOL    HW172991   4.234   5.612   1.978  0.4148 -0.0261  0.5023
23133SOL    HW272992   4.321   5.489   1.955 -0.0272 -0.3346  0.4719
23134SOL     OW72993   9.715   7.358   0.396  0.0881 -0.7455  0.0125
23134SOL    HW172994   9.637   7.304   0.381  0.5441 -1.0087 -1.5721
23134SOL    HW272995   9.776   7.331   0.328  1.4473 -0.2803  1.0018
23135SOL     OW72996   6.875   4.527   6.783  0.6996  0.4513  0.3584
23135SOL    HW172997   6.909   4.568   6.863  2.1701  0.5686 -0.3054
23135SOL    HW272998   6.859   4.436   6.807  1.1342  0.4861  0.7762
23136SOL     OW72999   9.002   8.601   1.976  0.0924  0.0091 -0.3767
23136SOL    HW173000   8.912   8.627   1.996  0.2418  1.0282 -0.9964
23136SOL    HW273001   8.996   8.506   1.959 -1.1393  0.3111 -1.8891
23137SOL     OW73002   7.335   6.061   7.461 -0.1799 -0.1429  0.0820
23137SOL    HW173003   7.316   6.064   7.367  1.3364 -0.2517 -0.2395
23137SOL    HW273004   7.249   6.047   7.501 -1.2252  2.2716 -1.1151
23138SOL     OW73005   8.679   9.925   3.816 -0.5654  0.1072 -0.1425
23138SOL    HW173006   8.625   9.890   3.887  0.2104 -0.1103  0.3566
23138SOL    HW273007   8.704  10.012   3.846 -0.6309  0.2023 -0.3640
23139SOL     OW73008  10.308   5.759   6.701 -0.0056  0.1462 -0.9708
23139SOL    HW173009  10.404   5.755   6.700  0.0327 -0.6931  0.8878
23139SOL    HW273010  10.289   5.848   6.728  0.3778 -0.3231  1.0792
23140SOL     OW73011   9.094   9.743   8.847  0.1031 -0.1517  0.0265
23140SOL    HW173012   9.136   9.772   8.928 -1.4450  1.2424  0.3787
23140SOL    HW273013   9.008   9.785   8.848  0.5804  1.1146 -3.0512
23141SOL     OW73014   3.878   3.740   0.892 -0.4604  0.1611  0.1656
23141SOL    HW173015   3.875   3.719   0.799 -0.3546  1.0965 -0.0581
23141SOL    HW273016   3.970   3.761   0.909 -0.1225 -1.7226  0.8909
23142SOL     OW73017   3.917   2.188   2.986 -0.3628 -0.2100 -0.2859
23142SOL    HW173018   3.929   2.127   3.059 -2.6076  0.5249  0.7644
23142SOL    HW273019   3.848   2.148   2.933 -0.3338  0.3803 -0.7792
23143SOL     OW73020   0.108   7.082   2.382  0.3314 -0.1785 -0.0996
23143SOL    HW173021   0.105   7.031   2.301  2.4057 -0.8595  0.2061
23143SOL    HW273022   0.043   7.151   2.369  1.0519  0.1243 -2.6283
23144SOL     OW73023   0.058   7.261   3.915 -0.7846  0.1568 -0.2901
23144SOL    HW173024   0.099   7.291   3.995 -0.1848  1.9900 -1.2424
23144SOL    HW273025   0.076   7.167   3.912 -0.6608  0.1002  1.5974
23145SOL     OW73026   8.011   5.868   6.843  0.0919 -0.4370 -0.2506
23145SOL    HW173027   7.995   5.781   6.881  1.1448  0.0176  1.3545
23145SOL    HW273028   7.984   5.860   6.751  0.4446 -2.5492 -0.2158
23146SOL     OW73029   0.999   6.241   2.053 -0.1803 -0.2975 -0.1957
23146SOL    HW173030   1.064   6.183   2.014 -0.1539  0.2304 -0.9630
23146SOL    HW273031   0.929   6.182   2.082 -1.3057 -0.5995 -3.1699
23147SOL     OW73032   9.381   2.185   9.098  0.7915  0.1654  0.3901
23147SOL    HW173033   9.451   2.120   9.104  0.8283  0.0630 -0.8420
23147SOL    HW273034   9.423   2.268   9.121  0.7334 -0.2247  2.0078
23148SOL     OW73035   5.065   0.025   8.174  0.0066  0.5618 -0.1626
23148SOL    HW173036   5.160   0.038   8.174 -0.1475  2.2643  1.8240
23148SOL    HW273037   5.051  -0.045   8.238 -0.0090 -1.2410 -2.0232
23149SOL     OW73038   0.532   3.020   8.057 -0.1912 -0.1924  0.5015
23149SOL    HW173039   0.448   2.973   8.058 -0.6967  0.5953 -1.2299
23149SOL    HW273040   0.556   3.025   7.965 -0.0354  2.6650  0.5965
23150SOL     OW73041   2.625   1.284   5.416 -0.1690 -0.4474 -0.0878
23150SOL    HW173042   2.658   1.195   5.402  1.7519  0.3080 -0.7871
23150SOL    HW273043   2.547   1.290   5.362  0.5858 -1.2323 -1.3129
23151SOL     OW73044   7.697   7.189   5.087 -0.1362 -0.1964  0.3409
23151SOL    HW173045   7.779   7.210   5.130 -0.1008 -2.0620  1.2644
23151SOL    HW273046   7.631   7.241   5.135 -0.0993 -2.1784  2.7833
23152SOL     OW73047   6.708   5.260   8.851  0.0693  0.4983  0.1284
23152SOL    HW173048   6.675   5.315   8.780 -1.2101 -0.4565 -0.0636
23152SOL    HW273049   6.745   5.321   8.915  1.0553  1.3924 -1.2504
23153SOL     OW73050   9.615   1.010   1.288 -0.2856  0.0825 -0.1108
23153SOL    HW173051   9.616   1.105   1.296  1.8831  0.0074  1.1163
23153SOL    HW273052   9.692   0.980   1.337 -0.9305 -2.3146 -0.4214
23154SOL     OW73053   2.537   3.503   5.728  0.5100  0.3032  0.0255
23154SOL    HW173054   2.535   3.568   5.799  0.2982  1.7693 -1.2567
23154SOL    HW273055   2.626   3.467   5.731  0.3545 -0.0126  1.3161
23155SOL     OW73056   5.273   5.650   6.756 -0.0632  0.4993  0.1623
23155SOL    HW173057   5.219   5.702   6.816 -0.5883 -1.1520  1.1641
23155SOL    HW273058   5.360   5.690   6.760  0.1800 -0.1484  2.8153
23156SOL     OW73059   0.108   3.527   8.179 -0.0431  0.2282  0.0868
23156SOL    HW173060   0.040   3.468   8.211  0.8374  0.6764  3.0498
23156SOL    HW273061   0.159   3.473   8.119 -0.8509 -1.2083  0.6361
23157SOL     OW73062   1.968   9.147   4.295 -0.3526  0.3107 -0.3603
23157SOL    HW173063   2.012   9.106   4.369 -1.2891 -0.4509 -0.2129
23157SOL    HW273064   1.877   9.157   4.323 -0.2076  2.3281 -0.4625
23158SOL     OW73065   8.466   9.387  10.307 -0.2154  0.0660 -0.2287
23158SOL    HW173066   8.391   9.351  10.356  1.0072 -1.2787  0.7618
23158SOL    HW273067   8.454   9.355  10.218 -0.6615 -0.3963 -0.0089
23159SOL     OW73068   0.479   3.479   7.066 -0.4917 -0.0380  0.1880
23159SOL    HW173069   0.471   3.569   7.097  0.2575  0.4075 -0.8700
23159SOL    HW273070   0.568   3.473   7.030 -0.6587 -1.0903 -0.1035
23160SOL     OW73071   8.422   7.876   7.971  0.0226 -0.0381 -0.3440
23160SOL    HW173072   8.333   7.913   7.963  0.9834  2.3866 -0.8672
23160SOL    HW273073   8.439   7.837   7.885  0.0547  1.0087 -0.8305
23161SOL     OW73074   1.611   9.691  10.733  0.0078  0.1953 -0.0517
23161SOL    HW173075   1.570   9.689  10.647 -1.0639 -0.5174  0.4522
23161SOL    HW273076   1.576   9.770  10.774 -0.3488 -0.0515  0.1273
23162SOL     OW73077   2.777   2.374   2.341 -0.6389 -0.4017  0.3056
23162SOL    HW173078   2.871   2.367   2.326 -0.2937  0.2339  1.9433
23162SOL    HW273079   2.741   2.295   2.301  0.3969  0.0132 -1.5810
23163SOL     OW73080   5.608   2.363   0.307 -0.6076  0.4990  0.4843
23163SOL    HW173081   5.616   2.324   0.220 -0.4468 -1.9329  1.5016
23163SOL    HW273082   5.556   2.299   0.357 -0.8656  1.9126  2.1159
23164SOL     OW73083   8.924   7.510   6.457  0.7599  0.2981 -0.2734
23164SOL    HW173084   8.882   7.537   6.539 -0.3881 -0.1495 -0.6954
23164SOL    HW273085   8.996   7.573   6.446  1.4898 -0.1568  1.4995
23165SOL     OW73086   3.249   7.371   2.131  0.1958  0.2223  0.3432
23165SOL    HW173087   3.313   7.303   2.151 -0.3361 -0.8129 -1.3224
23165SOL    HW273088   3.293   7.429   2.069  0.6475  1.4564  1.7551
23166SOL     OW73089   8.569   5.429  10.089 -0.0106  0.4125 -0.0889
23166SOL    HW173090   8.508   5.383  10.032 -1.7110  2.1767  0.1905
23166SOL    HW273091   8.606   5.361  10.145 -0.5298 -0.9221 -1.3156
23167SOL     OW73092   6.905   7.483   2.425  0.2557 -0.8621 -0.1269
23167SOL    HW173093   6.863   7.479   2.338 -1.3436 -1.0807  0.6167
23167SOL    HW273094   6.886   7.398   2.464 -4.1453  1.0245  2.6016
23168SOL     OW73095   3.965   1.602   7.462 -0.1422  0.0014  0.2590
23168SOL    HW173096   4.037   1.568   7.409 -0.3745 -1.5897  0.9122
23168SOL    HW273097   3.998   1.602   7.551 -0.3177  1.1047  0.3420
23169SOL     OW73098   2.139   4.944   7.136 -0.1758  0.5085 -0.6567
23169SOL    HW173099   2.070   4.983   7.083 -1.9335  0.9106  1.7294
23169SOL    HW273100   2.214   5.002   7.125 -0.3005  0.2866 -3.0168
23170SOL     OW73101   2.849   9.337  10.326 -0.0932 -0.6802  0.2449
23170SOL    HW173102   2.793   9.266  10.356 -0.6037 -0.2980  0.2147
23170SOL    HW273103   2.907   9.355  10.401  1.7450 -2.7738 -0.5883
23171SOL     OW73104   6.932   2.100   1.723 -0.2425 -0.1409  0.7578
23171SOL    HW173105   6.964   2.172   1.669 -1.7195  1.7756  2.2792
23171SOL    HW273106   6.999   2.032   1.714  2.0186  1.9768  0.4428
23172SOL     OW73107   3.796   5.150   5.171 -0.0628 -0.1257 -0.4998
23172SOL    HW173108   3.797   5.243   5.147  1.4857 -0.1636 -0.6859
23172SOL    HW273109   3.882   5.134   5.208 -0.6702 -1.2742  0.4840
23173SOL     OW73110   8.527   6.421   1.933 -0.0344  0.5100 -0.0887
23173SOL    HW173111   8.477   6.432   1.852 -0.1977 -0.3949 -0.1273
23173SOL    HW273112   8.477   6.356   1.983  0.8487 -0.0635  0.0786
23174SOL     OW73113   0.288   3.922   4.922 -0.3768 -0.3886 -0.3996
23174SOL    HW173114   0.312   3.834   4.895 -0.0719 -0.4524  0.0634
23174SOL    HW273115   0.196   3.931   4.895 -0.1699 -0.5539 -1.1574
23175SOL     OW73116   2.235   2.428   8.885 -0.2319 -0.1632  1.2749
23175SOL    HW173117   2.197   2.341   8.869  1.1715 -0.4177 -1.1193
23175SOL    HW273118   2.319   2.409   8.927  1.5370 -0.3038 -2.0003
23176SOL     OW73119   0.682   3.210   6.831  0.3687 -0.0774 -0.2954
23176SOL    HW173120   0.721   3.255   6.906 -0.3503  0.4654 -0.2294
23176SOL    HW273121   0.599   3.175   6.865 -0.7118  1.4909 -1.1920
23177SOL     OW73122   7.434   9.769   1.112  0.1115  0.1025 -0.0893
23177SOL    HW173123   7.477   9.752   1.196  0.1230  1.7561  0.2607
23177SOL    HW273124   7.472   9.851   1.082  0.2777 -0.5816 -1.8503
23178SOL     OW73125   7.066   1.184   6.637  0.2045  0.0850 -0.2638
23178SOL    HW173126   7.069   1.089   6.640  1.5688  0.0509 -1.5724
23178SOL    HW273127   7.053   1.211   6.728  2.9018 -1.2814  0.6265
23179SOL     OW73128   5.330   4.251  10.688  0.2194 -0.1732 -0.0194
23179SOL    HW173129   5.352   4.254  10.781 -0.0143  0.5990  0.0137
23179SOL    HW273130   5.239   4.280  10.684 -0.2446 -1.5704 -0.3493
23180SOL     OW73131   9.178   4.301  10.348  0.1741 -0.2618  0.2598
23180SOL    HW173132   9.168   4.329  10.439  0.7592 -1.9552  0.8819
23180SOL    HW273133   9.255   4.244  10.349  0.1829 -0.3207 -1.3047
23181SOL     OW73134   1.405   7.357   6.675 -0.0029  0.3659  0.0415
23181SOL    HW173135   1.412   7.452   6.665 -1.1502  0.2504 -3.0080
23181SOL    HW273136   1.495   7.326   6.663 -0.0894  0.9290 -2.7103
23182SOL     OW73137   0.254   7.120   9.015  0.0024 -0.3869  0.4302
23182SOL    HW173138   0.216   7.100   8.930 -5.0940 -0.1824  2.3276
23182SOL    HW273139   0.259   7.036   9.060  0.5806 -0.2338  0.6646
23183SOL     OW73140   3.664   8.838   5.603  0.6828 -0.1571 -0.0097
23183SOL    HW173141   3.652   8.911   5.543 -0.2571 -1.6430 -1.7501
23183SOL    HW273142   3.754   8.808   5.587  0.6174 -0.2044 -0.3020
23184SOL     OW73143   0.610  10.940   5.299 -0.0706 -0.0327 -0.0401
23184SOL    HW173144   0.608  10.844   5.301  2.0259 -0.1403 -0.5243
23184SOL    HW273145   0.639  10.961   5.210 -0.4341  1.0423  0.0920
23185SOL     OW73146   6.343   1.562   0.935 -0.7167 -0.0598  0.2481
23185SOL    HW173147   6.354   1.484   0.988  1.4171 -0.8869 -1.2775
23185SOL    HW273148   6.301   1.531   0.854 -0.9015  0.5817  0.0855
23186SOL     OW73149   7.947  10.937   3.839  0.0517  0.0367  0.4894
23186SOL    HW173150   7.885  10.983   3.895  0.9847  0.1691  1.4492
23186SOL    HW273151   7.955  10.992   3.761 -0.3399  0.4862  0.7611
23187SOL     OW73152   0.213   9.521   4.274 -0.1584 -0.2276  0.3077
23187SOL    HW173153   0.173   9.435   4.268  0.5977 -0.6945  1.5771
23187SOL    HW273154   0.259   9.520   4.357  0.0604  1.3282  0.2316
23188SOL     OW73155   8.001   1.417   7.281 -0.5684 -0.3766  0.1203
23188SOL    HW173156   7.972   1.499   7.323 -3.0643 -0.4724 -1.2251
23188SOL    HW273157   8.086   1.439   7.243 -0.9171  1.4195  0.2781
23189SOL     OW73158   4.904   6.899   9.941 -0.3564 -0.1158 -0.1489
23189SOL    HW173159   4.869   6.864  10.023 -0.4566  1.5219  0.5372
23189SOL    HW273160   4.939   6.985   9.964 -0.8127  0.5856 -1.9097
23190SOL     OW73161   9.641   8.514   2.928 -0.2140  0.0370  0.7217
23190SOL    HW173162   9.644   8.456   2.852 -2.5942  0.4414  0.2527
23190SOL    HW273163   9.733   8.526   2.952  0.4544 -3.1636  0.3013
23191SOL     OW73164   1.002   8.278   3.104 -0.0345  0.3820  0.5668
23191SOL    HW173165   0.970   8.320   3.184 -0.2605  1.3615 -0.0281
23191SOL    HW273166   1.097   8.281   3.111 -0.0253 -0.9582  1.5175
23192SOL     OW73167   7.946   6.105   2.321 -0.1718  0.0903  0.2520
23192SOL    HW173168   7.917   6.071   2.406  0.3205 -0.6468  0.1343
23192SOL    HW273169   7.912   6.042   2.258 -0.1505  0.3973 -0.0664
23193SOL     OW73170   8.729   2.775   3.305 -0.2803  0.2988 -0.0099
23193SOL    HW173171   8.645   2.736   3.286  0.4944 -1.8462  0.7294
23193SOL    HW273172   8.794   2.709   3.280  1.0678  0.7667  1.9873
23194SOL     OW73173   5.430   4.414   4.381  0.1258 -0.3061 -0.0397
23194SOL    HW173174   5.508   4.422   4.435  0.7683  0.9418 -1.1002
23194SOL    HW273175   5.454   4.350   4.314 -0.0408 -0.5020  0.0855
23195SOL     OW73176   7.200   4.844   4.850  0.2883 -0.3335 -0.2727
23195SOL    HW173177   7.281   4.883   4.817  0.7206 -0.5814  0.4973
23195SOL    HW273178   7.131   4.900   4.814  0.9053  1.2611  0.9390
23196SOL     OW73179   7.888   1.421  10.558  0.2605  0.2411 -0.6596
23196SOL    HW173180   7.820   1.360  10.527  0.2729  0.6952 -1.6224
23196SOL    HW273181   7.933   1.373  10.627 -0.5935 -0.3326 -0.4758
23197SOL     OW73182  10.017   9.034   5.985 -0.1464 -0.4989  0.0900
23197SOL    HW173183  10.061   9.064   6.064  1.6498 -0.6199 -0.8201
23197SOL    HW273184   9.928   9.014   6.013  0.1145  0.6002  1.8152
23198SOL     OW73185   5.003   8.963  10.279 -0.0286  0.1081 -0.1397
23198SOL    HW173186   4.912   8.938  10.265 -0.0327  0.5197 -0.8544
23198SOL    HW273187   5.051   8.922  10.207  0.6145 -1.4808  1.1088
23199SOL     OW73188   9.264  10.176   9.003 -0.6084 -0.3562 -0.4602
23199SOL    HW173189   9.307  10.106   8.953 -0.7060 -0.2574 -0.6850
23199SOL    HW273190   9.199  10.130   9.056  0.0072 -0.5437  0.1492
23200SOL     OW73191   1.401   8.164   6.202 -0.0470 -0.0373 -0.0791
23200SOL    HW173192   1.326   8.158   6.261 -0.6705  0.7679 -0.7675
23200SOL    HW273193   1.472   8.118   6.248 -0.9024 -0.6506  0.6609
23201SOL     OW73194   6.351   8.512   3.828 -0.0709 -0.4427  0.2508
23201SOL    HW173195   6.334   8.462   3.908 -0.7031  1.2225  1.2219
23201SOL    HW273196   6.437   8.551   3.842  0.2970 -1.0104 -0.3758
23202SOL     OW73197   0.874  10.816   0.669  0.7029  0.3830  0.4840
23202SOL    HW173198   0.901  10.871   0.596  0.8364  0.5766  0.6760
23202SOL    HW273199   0.882  10.874   0.746  1.0921  0.0199  0.7202
23203SOL     OW73200   8.704   2.352   4.293  0.2169  0.1284  0.2717
23203SOL    HW173201   8.772   2.401   4.247  0.0092  0.8292  0.6955
23203SOL    HW273202   8.748   2.273   4.324  0.9626  0.7674  0.8955
23204SOL     OW73203   0.731   4.250   2.444 -0.3633 -0.1888 -0.1032
23204SOL    HW173204   0.786   4.191   2.394  0.1897 -0.3288  0.6475
23204SOL    HW273205   0.642   4.222   2.425 -0.2300  0.5148 -1.9215
23205SOL     OW73206   0.269   7.533   0.562 -0.2977  0.0503 -1.1237
23205SOL    HW173207   0.186   7.580   0.557 -1.1205 -1.2535 -0.3002
23205SOL    HW273208   0.245   7.444   0.589  1.5474  0.3326  1.9528
23206SOL     OW73209   1.347   8.870   0.122 -0.0968  0.6208  0.2405
23206SOL    HW173210   1.337   8.811   0.048 -1.4328 -0.2179  1.0388
23206SOL    HW273211   1.328   8.957   0.087 -0.4402  0.2728 -0.4646
23207SOL     OW73212  10.957   0.565   9.456  0.2386  0.1963 -0.4036
23207SOL    HW173213  11.001   0.486   9.424 -1.0864 -1.2133  1.1372
23207SOL    HW273214  10.865   0.541   9.463  0.0390  1.3097  1.7125
23208SOL     OW73215   0.503   2.269   7.187  0.2549 -0.1216 -0.2347
23208SOL    HW173216   0.431   2.328   7.164  0.3205  0.1796  0.3087
23208SOL    HW273217   0.510   2.208   7.113  0.3961  0.7525 -0.9589
23209SOL     OW73218   1.849   4.584   2.274 -0.7851 -0.1690 -0.0333
23209SOL    HW173219   1.925   4.557   2.326 -0.1553  1.2868 -0.1463
23209SOL    HW273220   1.886   4.605   2.188 -1.0777  1.7118  0.2516
23210SOL     OW73221   6.615   5.784  10.125  0.3255  0.1813 -0.1043
23210SOL    HW173222   6.522   5.803  10.136  0.2941 -0.1190  0.1441
23210SOL    HW273223   6.660   5.846  10.183  0.3301  0.9198 -0.8694
23211SOL     OW73224   1.144  11.043   0.874  0.5057  0.2112  0.0053
23211SOL    HW173225   1.178  10.981   0.809  0.0259 -0.5491  0.4668
23211SOL    HW273226   1.050  11.027   0.876  0.3971  0.8537  0.2432
23212SOL     OW73227   4.715   9.297   3.948 -0.3660 -0.5161  0.1070
23212SOL    HW173228   4.803   9.333   3.931  0.6219 -2.2086  1.3563
23212SOL    HW273229   4.700   9.237   3.875 -0.7809  0.2435 -0.4452
23213SOL     OW73230   8.134   5.042   9.427 -0.1398  0.1717 -0.5339
23213SOL    HW173231   8.153   5.021   9.335  1.4022  0.1206 -0.2360
23213SOL    HW273232   8.154   5.135   9.435 -0.7720  0.2944 -0.3662
23214SOL     OW73233   5.303   4.160   8.143  0.5197 -0.1763 -0.7937
23214SOL    HW173234   5.212   4.144   8.170  1.1517 -2.0126  0.4468
23214SOL    HW273235   5.353   4.091   8.186  2.7430  1.7237 -0.1663
23215SOL     OW73236   8.249   7.160   5.329  0.7858 -0.1423  0.8634
23215SOL    HW173237   8.171   7.184   5.380  0.8118  1.0249  0.3870
23215SOL    HW273238   8.222   7.173   5.238  1.2564 -0.6288  0.6525
23216SOL     OW73239   3.242   4.027   9.960 -0.1464 -0.3875 -0.2488
23216SOL    HW173240   3.263   3.934   9.954  0.4414 -0.3133  0.4593
23216SOL    HW273241   3.217   4.040  10.052 -0.3180  0.1333 -0.3638
23217SOL     OW73242   9.293   4.725   3.730 -0.7481  0.2633 -0.0297
23217SOL    HW173243   9.305   4.641   3.686 -0.2209  0.2664  0.0982
23217SOL    HW273244   9.379   4.767   3.726 -1.0425  0.8685 -0.2346
23218SOL     OW73245   5.731   5.538   8.175 -0.3119  0.0218  0.3779
23218SOL    HW173246   5.744   5.451   8.214  1.3471  0.5133  0.9881
23218SOL    HW273247   5.802   5.591   8.210 -1.1488  1.5748 -0.1985
23219SOL     OW73248   4.952   6.784   4.736  0.0400 -0.1458  0.1626
23219SOL    HW173249   4.872   6.824   4.702 -0.9340 -1.9702  0.1974
23219SOL    HW273250   4.928   6.693   4.754  1.9120 -0.5346  0.9415
23220SOL     OW73251   8.520   9.534   5.751 -0.6039  0.3536 -0.0081
23220SOL    HW173252   8.605   9.527   5.794 -1.4262  1.3404  1.8841
23220SOL    HW273253   8.463   9.574   5.817 -2.0986  1.3840 -1.8392
23221SOL     OW73254   3.277   0.116   0.789 -0.2671 -0.1935  0.2272
23221SOL    HW173255   3.274   0.177   0.864 -0.2371  0.6176 -0.4138
23221SOL    HW273256   3.264   0.172   0.713 -0.1960 -1.0011 -0.3882
23222SOL     OW73257   6.861   6.071   1.911 -0.2091 -0.6367 -0.0397
23222SOL    HW173258   6.898   6.128   1.979  0.8784 -0.1651 -0.9866
23222SOL    HW273259   6.834   5.993   1.958 -0.4513  0.1010  1.0879
23223SOL     OW73260   7.685   1.557  11.024 -0.1869  0.6443 -0.0499
23223SOL    HW173261   7.730   1.479  11.055  0.8826  0.4637 -1.8942
23223SOL    HW273262   7.594   1.530  11.014 -0.0941  0.0469  0.6420
23224SOL     OW73263   3.516   2.701  10.259 -0.0352 -0.1517  0.2118
23224SOL    HW173264   3.473   2.634  10.311 -0.4188 -1.0869 -1.2491
23224SOL    HW273265   3.549   2.655  10.182  1.4637  0.9869  0.1277
23225SOL     OW73266   2.437   9.492   1.698 -0.5797 -0.3311  0.3232
23225SOL    HW173267   2.504   9.503   1.766 -0.1535 -0.1048 -0.1238
23225SOL    HW273268   2.479   9.436   1.633 -0.4312  0.6886 -0.4785
23226SOL     OW73269   9.046   2.998   2.378  0.1220  0.1968  0.4651
23226SOL    HW173270   9.130   3.036   2.402  0.3169  0.8200 -1.0795
23226SOL    HW273271   8.996   2.995   2.460  1.3035  0.6897  1.2191
23227SOL     OW73272   5.053  10.526   5.234 -0.5724 -0.4082  0.0281
23227SOL    HW173273   5.106  10.558   5.161  0.2107  1.1408  1.2442
23227SOL    HW273274   5.110  10.463   5.279 -0.7444 -0.7092 -0.1668
23228SOL     OW73275   8.085   9.400   0.647 -0.5144 -0.0461  0.3570
23228SOL    HW173276   8.107   9.347   0.724 -2.2808  0.7973  1.5275
23228SOL    HW273277   8.128   9.483   0.662  0.5257 -0.4173 -0.4417
23229SOL     OW73278   9.350   2.587   7.696 -0.6114 -0.1311  0.1941
23229SOL    HW173279   9.429   2.620   7.654 -0.9405 -1.6813 -1.7856
23229SOL    HW273280   9.381   2.518   7.755 -0.5210 -1.6561 -1.5607
23230SOL     OW73281   3.695   7.572   9.863  0.2001 -0.3966  0.0533
23230SOL    HW173282   3.755   7.584   9.790  1.8393  1.3414  1.5580
23230SOL    HW273283   3.633   7.644   9.855  1.3844  0.8105  1.2091
23231SOL     OW73284   2.833  10.417  10.710 -0.2296 -0.0854  0.2703
23231SOL    HW173285   2.828  10.467  10.628 -0.4722 -0.1102  0.2670
23231SOL    HW273286   2.773  10.344  10.697 -1.0491  0.4617  0.8388
23232SOL     OW73287   6.972   0.746   7.620  0.3011  0.2134  0.3864
23232SOL    HW173288   7.029   0.817   7.651  1.4532 -0.0564 -1.0033
23232SOL    HW273289   6.905   0.791   7.568  0.8150  0.3164 -0.1905
23233SOL     OW73290  11.049   7.553   4.864  0.0714  0.5998  0.1846
23233SOL    HW173291  11.010   7.506   4.938  0.0099 -1.3250 -1.0047
23233SOL    HW273292  10.974   7.591   4.818  0.1040  1.7348  1.0286
23234SOL     OW73293   9.533   5.830   8.165  0.6263 -0.5446 -0.1986
23234SOL    HW173294   9.609   5.885   8.185  0.1069 -0.5622  2.0670
23234SOL    HW273295   9.549   5.800   8.075  3.4716 -0.7835  0.2682
23235SOL     OW73296   3.127   7.797   7.331  0.0902 -0.4404  0.3480
23235SOL    HW173297   3.078   7.835   7.258  2.1048  0.0542 -0.8252
23235SOL    HW273298   3.072   7.726   7.363 -1.3105 -0.0019 -0.9741
23236SOL     OW73299   7.007   6.638   6.858 -0.0932  0.2022 -0.2375
23236SOL    HW173300   6.965   6.723   6.870 -1.7137 -0.4608 -0.8678
23236SOL    HW273301   6.977   6.608   6.772  1.5337 -0.4199 -0.6213
23237SOL     OW73302   3.579   3.013   1.579  0.0722 -0.8222  0.2458
23237SOL    HW173303   3.495   3.052   1.557  0.9417  1.2830  0.4707
23237SOL    HW273304   3.558   2.946   1.645 -1.5074 -1.0488 -0.4528
23238SOL     OW73305   2.771   5.487   9.769 -0.1255 -0.0927  0.7208
23238SOL    HW173306   2.846   5.441   9.732  0.1362  0.1313  0.9642
23238SOL    HW273307   2.736   5.427   9.835 -1.8134 -1.3626 -1.2127
23239SOL     OW73308   7.805  10.007   6.863 -0.3223  0.1556 -0.0301
23239SOL    HW173309   7.862  10.032   6.790 -0.2164  0.5900  0.2002
23239SOL    HW273310   7.782  10.090   6.905  0.3715 -0.1666  0.9974
23240SOL     OW73311   9.996   5.908   2.626  0.2542 -0.0257  0.0432
23240SOL    HW173312   9.969   5.997   2.604 -0.2625 -0.1586  0.1175
23240SOL    HW273313   9.982   5.902   2.721 -0.7737 -0.5357 -0.1328
23241SOL     OW73314   1.923   1.887   9.353 -0.3269  0.0754 -0.1209
23241SOL    HW173315   1.897   1.903   9.263  0.5003 -1.4429 -0.6623
23241SOL    HW273316   1.844   1.906   9.405 -0.6985  1.3284 -1.0893
23242SOL     OW73317   5.573  10.791   8.137 -0.0070 -0.1308  0.0845
23242SOL    HW173318   5.607  10.704   8.158 -0.2891  0.0682  1.4772
23242SOL    HW273319   5.478  10.781   8.143 -0.0626  0.1289 -0.3558
23243SOL     OW73320   1.744   0.245   4.890  0.0836  0.4098  0.5977
23243SOL    HW173321   1.674   0.248   4.956 -0.0716  0.1127  0.4479
23243SOL    HW273322   1.731   0.323   4.837 -2.0512 -1.1668 -1.3732
23244SOL     OW73323   3.123   0.890   7.649 -0.4830 -0.1862 -0.0454
23244SOL    HW173324   3.141   0.984   7.650 -0.5034 -0.1839  0.0901
23244SOL    HW273325   3.028   0.884   7.655 -0.5393 -0.1956 -0.8204
23245SOL     OW73326   1.191   6.141   0.317 -0.0199 -0.8374 -0.1667
23245SOL    HW173327   1.269   6.085   0.310  1.8220  1.1737  2.4983
23245SOL    HW273328   1.213   6.219   0.266 -0.3037 -0.2601  0.5879
23246SOL     OW73329   8.044   9.807   1.926  0.2940 -0.3087  0.0361
23246SOL    HW173330   7.982   9.865   1.881  0.7341  0.7748  0.7989
23246SOL    HW273331   8.028   9.721   1.887 -1.0148  0.1352 -0.4695
23247SOL     OW73332   0.544   9.348   3.378  0.2447 -0.0679 -0.0958
23247SOL    HW173333   0.630   9.341   3.337  0.6763 -0.6242  0.8660
23247SOL    HW273334   0.503   9.424   3.336  1.5116  0.6771 -0.0239
23248SOL     OW73335   3.720   5.505   4.477  0.3416 -0.2752 -0.3765
23248SOL    HW173336   3.697   5.504   4.570  0.2444  2.6950 -0.2697
23248SOL    HW273337   3.812   5.479   4.475  1.1039  1.9928  0.9314
23249SOL     OW73338   5.410   7.227   6.871  0.2933 -0.0117  0.3517
23249SOL    HW173339   5.437   7.136   6.882 -1.6695 -1.3320 -3.7670
23249SOL    HW273340   5.449   7.254   6.789 -2.6941  1.2565 -0.7850
23250SOL     OW73341   4.551   8.005   2.917  0.6327 -0.0149 -0.8044
23250SOL    HW173342   4.477   7.963   2.961  1.0290  0.2207  0.1236
23250SOL    HW273343   4.534   8.099   2.924  2.7731  0.2906  2.8370
23251SOL     OW73344   2.888   0.316   5.475  0.1214 -0.3376 -0.1158
23251SOL    HW173345   2.922   0.405   5.486  1.0280 -0.5448 -1.1116
23251SOL    HW273346   2.946   0.261   5.527  0.4586 -0.5153 -0.6684
23252SOL     OW73347   0.522   1.561   8.953 -0.0028 -0.2954 -0.1897
23252SOL    HW173348   0.545   1.497   8.887  1.2334 -0.3117  0.2334
23252SOL    HW273349   0.524   1.645   8.908 -1.4597 -0.4987 -0.7036
23253SOL     OW73350   1.647   9.548   6.361 -0.2936  0.0152  0.0522
23253SOL    HW173351   1.647   9.610   6.288 -2.0244  0.2210  0.2039
23253SOL    HW273352   1.585   9.584   6.424 -0.7074 -1.4333  0.5116
23254SOL     OW73353   6.510   4.279   9.350 -0.6566 -0.4625  0.5014
23254SOL    HW173354   6.492   4.187   9.331 -2.6346 -0.2902  1.3363
23254SOL    HW273355   6.507   4.284   9.446 -0.8444  0.5152  0.4454
23255SOL     OW73356   0.821   0.137   9.635  0.1580 -0.0684 -0.0746
23255SOL    HW173357   0.892   0.129   9.698  0.9734 -1.3271 -1.1040
23255SOL    HW273358   0.742   0.141   9.688  0.9524  0.9840  1.0834
23256SOL     OW73359   9.134  10.312   1.118 -0.3174 -0.3692  0.1979
23256SOL    HW173360   9.149  10.406   1.133  0.0737 -0.1237 -1.5474
23256SOL    HW273361   9.195  10.269   1.178 -0.1106  0.4932  0.6356
23257SOL     OW73362   8.099   0.311   5.796  0.4352 -0.1496  0.0202
23257SOL    HW173363   8.012   0.351   5.792  0.6964  0.4238 -0.1350
23257SOL    HW273364   8.109   0.269   5.711  2.0671  3.6329 -1.9070
23258SOL     OW73365   4.464   7.427   3.599  0.7318  0.3410  0.7646
23258SOL    HW173366   4.458   7.462   3.688 -0.1322 -0.2079  0.9340
23258SOL    HW273367   4.376   7.442   3.562  0.4055 -1.4062  0.7554
23259SOL     OW73368   7.961   3.089   2.447 -0.3895 -0.2656 -0.2090
23259SOL    HW173369   7.946   3.072   2.354  2.7693 -2.1915 -0.5337
23259SOL    HW273370   8.049   3.127   2.451 -0.2386 -0.6948  1.9982
23260SOL     OW73371   4.077   4.253   1.241  0.3344  0.3483  0.2793
23260SOL    HW173372   4.081   4.199   1.321  0.8517  1.3091  0.9274
23260SOL    HW273373   4.104   4.194   1.171  0.4728 -0.3491  0.9070
23261SOL     OW73374   0.780   3.910   4.909  0.2730  0.0635 -0.4122
23261SOL    HW173375   0.780   3.817   4.885 -0.5634  0.1734 -0.8364
23261SOL    HW273376   0.840   3.914   4.984 -0.2004 -0.9263  0.0398
23262SOL     OW73377  10.768   3.443   5.631 -0.5308  0.0289 -0.5589
23262SOL    HW173378  10.735   3.361   5.594  0.5888 -0.5175 -0.3886
23262SOL    HW273379  10.863   3.437   5.622 -0.3361  0.6505  0.7844
23263SOL     OW73380   5.361  10.905   7.844  0.0851  0.2896 -0.5077
23263SOL    HW173381   5.436  10.925   7.788  0.2249  0.7421 -0.1663
23263SOL    HW273382   5.320  10.990   7.860  0.5096  0.2814  0.7212
23264SOL     OW73383   2.090   6.579   4.962 -0.1188 -0.3150  0.0716
23264SOL    HW173384   2.143   6.500   4.953 -0.5370 -0.5038 -0.8624
23264SOL    HW273385   2.110   6.612   5.049 -0.9043 -2.1516  0.9878
23265SOL     OW73386   3.954   4.842   2.445  0.0930 -0.0658  0.4722
23265SOL    HW173387   3.863   4.856   2.471 -0.0481  2.7669 -1.0958
23265SOL    HW273388   3.951   4.769   2.383 -1.3436  0.7455 -0.4737
23266SOL     OW73389   4.376  10.386   8.341  0.8402  0.0245  0.3417
23266SOL    HW173390   4.408  10.435   8.264  1.2971 -0.3446  0.2909
23266SOL    HW273391   4.283  10.374   8.324  0.7434  0.7693  0.2968
23267SOL     OW73392   0.436   4.867  10.118  0.4656 -0.2419  0.0315
23267SOL    HW173393   0.526   4.847  10.144  0.1570 -0.1269  1.2820
23267SOL    HW273394   0.445   4.921  10.040  1.4936 -0.0690  0.2528
23268SOL     OW73395   5.671   9.012   5.492 -0.1314 -0.1395  0.0983
23268SOL    HW173396   5.715   8.941   5.538  0.7228  0.5448  0.3587
23268SOL    HW273397   5.635   9.067   5.562 -2.5901 -1.3504 -0.0803
23269SOL     OW73398   4.374   1.071  10.843 -0.2134 -0.8784 -0.0725
23269SOL    HW173399   4.341   1.088  10.755  0.8552  0.2921 -0.2855
23269SOL    HW273400   4.307   1.107  10.902  0.6213  1.5877 -0.4897
23270SOL     OW73401   1.488   0.771   9.627 -0.5843  0.1646  0.1018
23270SOL    HW173402   1.484   0.722   9.709  1.8080  0.8729  0.7187
23270SOL    HW273403   1.579   0.765   9.600 -0.0287  4.4466  0.3744
23271SOL     OW73404   5.774   3.479   3.014  0.1895  0.5135  0.2787
23271SOL    HW173405   5.793   3.518   2.929 -0.8160 -0.6168 -0.5126
23271SOL    HW273406   5.731   3.549   3.064  1.4176  1.4001  0.1436
23272SOL     OW73407   5.744   7.300   8.612  0.4088  0.2430  0.0441
23272SOL    HW173408   5.738   7.381   8.662  0.1383 -0.0753  0.5316
23272SOL    HW273409   5.676   7.309   8.545  0.9460  0.7826 -0.4470
23273SOL     OW73410   0.981   8.976   7.871 -0.2496  0.3405 -0.1090
23273SOL    HW173411   0.916   9.029   7.824  0.2259  0.6233 -0.4590
23273SOL    HW273412   1.025   8.927   7.801  1.0701  1.4272 -0.0607
23274SOL     OW73413   4.113   0.402   3.284 -0.2270 -0.3762 -0.0197
23274SOL    HW173414   4.104   0.344   3.208 -0.8667  0.1369 -0.3555
23274SOL    HW273415   4.188   0.457   3.263 -0.1830 -0.4739 -0.1210
23275SOL     OW73416   2.007   0.110   2.583 -0.0016  0.1109  0.0161
23275SOL    HW173417   1.970   0.068   2.505 -1.6248  2.5222 -0.6040
23275SOL    HW273418   1.977   0.201   2.578 -0.2202  0.3623  3.4749
23276SOL     OW73419   9.575  10.086   6.246  0.0255  0.4269 -0.4190
23276SOL    HW173420   9.493  10.062   6.204 -0.7294  0.1673  1.0994
23276SOL    HW273421   9.643  10.049   6.191 -0.9157 -0.1777 -1.1990
23277SOL     OW73422   5.489   6.607   2.964 -0.3189 -0.4460  0.4092
23277SOL    HW173423   5.499   6.693   2.924  0.0547  0.1543  1.7326
23277SOL    HW273424   5.578   6.573   2.973 -0.3929 -0.5755  0.6961
23278SOL     OW73425   9.384   2.318  10.178  0.1098 -0.0825 -0.5795
23278SOL    HW173426   9.294   2.338  10.155 -0.4210 -1.5072  0.0955
23278SOL    HW273427   9.437   2.363  10.113 -1.1125  0.1846 -1.4136
23279SOL     OW73428   1.854   2.802   2.269  0.0935 -0.7436 -0.2298
23279SOL    HW173429   1.899   2.780   2.351 -0.9260 -1.0820  0.2685
23279SOL    HW273430   1.819   2.890   2.284  0.9710 -0.2889 -0.7930
23280SOL     OW73431  10.171   2.849  10.310  0.2340 -0.3805  0.3531
23280SOL    HW173432  10.100   2.908  10.336  0.8917  1.6798 -2.1720
23280SOL    HW273433  10.241   2.868  10.373  0.6136  2.0403 -0.6802
23281SOL     OW73434   8.892   0.990   9.252  0.4678 -0.2947 -0.4261
23281SOL    HW173435   8.932   0.926   9.193  0.1104 -1.3374  0.4233
23281SOL    HW273436   8.824   1.033   9.199  0.5417 -0.7959 -0.9388
23282SOL     OW73437   8.980   1.290   2.425 -0.4298  0.7565 -0.1323
23282SOL    HW173438   9.026   1.244   2.355 -1.9010 -0.9630 -0.0450
23282SOL    HW273439   9.041   1.289   2.499 -0.6431 -1.8756  0.1270
23283SOL     OW73440   8.940   3.125   0.176  0.5035  0.3347 -0.3330
23283SOL    HW173441   9.010   3.151   0.235 -0.6300  1.6975  0.4666
23283SOL    HW273442   8.984   3.106   0.093  2.0520 -1.0483  0.7469
23284SOL     OW73443   5.876   3.936  10.435  0.1650  0.2002  0.3938
23284SOL    HW173444   5.893   3.860  10.491  0.6316 -0.9358 -1.2102
23284SOL    HW273445   5.953   3.942  10.379 -1.0255  0.1638 -1.3264
23285SOL     OW73446   7.059   3.984   3.495 -0.3232 -0.8928  0.2524
23285SOL    HW173447   7.074   3.992   3.590  2.0275 -1.7548  0.0321
23285SOL    HW273448   7.147   3.988   3.457 -1.2078 -0.7217 -1.9028
23286SOL     OW73449   8.591   3.909   6.589  0.0121  0.4591 -0.1713
23286SOL    HW173450   8.508   3.948   6.616  0.5691  1.4973  0.1328
23286SOL    HW273451   8.657   3.960   6.635  0.7881 -1.1316  0.5307
23287SOL     OW73452   4.123   1.100   1.730 -0.0556 -0.0053 -0.3855
23287SOL    HW173453   4.174   1.156   1.788 -0.6733  0.2592 -0.0826
23287SOL    HW273454   4.065   1.051   1.789  0.7387 -1.2636 -0.6095
23288SOL     OW73455   1.870  10.696   9.498 -0.4312 -0.1231  0.3607
23288SOL    HW173456   1.864  10.718   9.405  0.4914 -2.2954 -0.2637
23288SOL    HW273457   1.798  10.634   9.513  0.3026 -0.8978  0.7411
23289SOL     OW73458   2.429   6.893   7.484  0.5244  0.1256 -0.3078
23289SOL    HW173459   2.449   6.844   7.404  2.3080 -1.5106  1.0621
23289SOL    HW273460   2.506   6.883   7.539 -1.3587 -0.4685  2.4207
23290SOL     OW73461   3.786  10.648  10.309  0.1161  0.0148  0.0886
23290SOL    HW173462   3.837  10.718  10.268  3.4125 -1.9998  0.4685
23290SOL    HW273463   3.771  10.678  10.399  2.1942 -0.0419  0.4850
23291SOL     OW73464   7.187   5.334   3.257 -0.4487 -0.4220  0.2771
23291SOL    HW173465   7.115   5.374   3.305  0.7641  0.9206  1.0521
23291SOL    HW273466   7.204   5.394   3.184  0.2528 -0.4125  0.4398
23292SOL     OW73467   1.124   8.217  10.648 -0.4943  0.0838 -0.4832
23292SOL    HW173468   1.168   8.196  10.730 -0.9048 -2.5101 -0.8316
23292SOL    HW273469   1.031   8.207  10.668 -0.6508  0.4206 -1.0272
23293SOL     OW73470   4.782   1.534  10.964 -0.1524 -0.5085  0.4184
23293SOL    HW173471   4.760   1.504  10.876 -0.9139 -2.2011  1.1366
23293SOL    HW273472   4.776   1.629  10.960  2.4524 -0.3056 -2.0372
23294SOL     OW73473   9.694   8.219   7.888 -0.0642 -0.1399 -0.1279
23294SOL    HW173474   9.601   8.234   7.877 -0.4221 -2.4429 -0.6475
23294SOL    HW273475   9.700   8.142   7.945  1.5407  0.2484  0.3015
23295SOL     OW73476   3.432   1.900   7.627  0.3173 -0.0572  0.3290
23295SOL    HW173477   3.376   1.946   7.691 -0.2929 -1.3544  0.7649
23295SOL    HW273478   3.370   1.851   7.573  1.0142 -1.3604  0.6906
23296SOL     OW73479   2.258   9.876   7.589  0.6797 -0.2095  0.3172
23296SOL    HW173480   2.170   9.853   7.560  0.8084 -0.6206  0.2465
23296SOL    HW273481   2.316   9.821   7.536  0.9510 -0.4476  0.8547
23297SOL     OW73482   2.121  10.403   8.456 -0.6945  0.1578 -0.2986
23297SOL    HW173483   2.175  10.480   8.440  0.6478 -0.2640  1.7131
23297SOL    HW273484   2.047  10.435   8.507 -0.8380  0.3048 -0.5975
23298SOL     OW73485   0.018   1.389   8.258 -0.1069 -0.3997  0.3554
23298SOL    HW173486   0.080   1.462   8.256  0.3655 -0.8102 -0.2649
23298SOL    HW273487   0.031   1.348   8.343 -0.3918  0.2522  0.7191
23299SOL     OW73488   6.373   6.819   5.696 -0.1427  0.8334 -0.4065
23299SOL    HW173489   6.289   6.787   5.664 -0.1587  0.0147  0.4191
23299SOL    HW273490   6.353   6.904   5.734 -0.5086  0.8444 -0.6126
23300SOL     OW73491   1.095   7.564   5.886 -0.5304 -0.6327  0.0575
23300SOL    HW173492   1.133   7.649   5.866  1.7524 -1.4975  0.5049
23300SOL    HW273493   1.033   7.548   5.815  1.4980 -0.0684 -1.9466
23301SOL     OW73494   2.187   2.790  10.274  0.7690  0.1764 -0.4788
23301SOL    HW173495   2.283   2.788  10.268  0.7731 -2.0491 -0.6505
23301SOL    HW273496   2.160   2.843  10.200  1.8334 -0.9333 -1.7210
23302SOL     OW73497   3.288   1.234   6.968 -0.0512 -0.3066  0.9039
23302SOL    HW173498   3.202   1.272   6.984 -0.4224 -0.7705  0.0878
23302SOL    HW273499   3.328   1.227   7.055 -0.9923 -0.4592  1.3373
23303SOL     OW73500   9.898   8.202   8.211  0.2287  0.4426  0.2023
23303SOL    HW173501   9.802   8.196   8.211  0.3343 -2.0811  0.3633
23303SOL    HW273502   9.921   8.210   8.304  0.2753 -4.7702  0.9516
23304SOL     OW73503   7.510   5.230   4.672  0.1399 -0.4159 -0.9178
23304SOL    HW173504   7.519   5.165   4.602  1.2589 -1.7387  0.3740
23304SOL    HW273505   7.561   5.305   4.642  1.4543 -1.3529 -1.1261
23305SOL     OW73506   8.052   3.376   2.975  0.1247 -0.0599 -0.4000
23305SOL    HW173507   8.023   3.423   2.896 -0.1316 -0.9958 -0.8798
23305SOL    HW273508   7.976   3.379   3.033  0.0382 -0.0727 -0.5123
23306SOL     OW73509   0.221   0.800   3.004 -0.4253 -0.1047 -0.5079
23306SOL    HW173510   0.256   0.852   3.076 -0.6515 -1.9047  0.9444
23306SOL    HW273511   0.195   0.866   2.938  2.5464  1.4586 -0.2979
23307SOL     OW73512   9.577   2.916   7.336  0.1489 -0.2387 -0.7563
23307SOL    HW173513   9.569   2.822   7.353  1.3731  0.0651  1.8942
23307SOL    HW273514   9.622   2.921   7.251  0.0060 -2.0233 -0.9726
23308SOL     OW73515   5.413   5.456   5.501 -0.2878  1.0857  0.3135
23308SOL    HW173516   5.357   5.397   5.452  0.1387 -0.4312  1.5805
23308SOL    HW273517   5.447   5.404   5.573  1.5265  2.3775  0.4872
23309SOL     OW73518   6.778   8.643   7.604  0.4270 -0.4619 -0.4709
23309SOL    HW173519   6.788   8.615   7.695 -0.4367 -2.0279 -0.8094
23309SOL    HW273520   6.739   8.730   7.609  1.1543 -0.1799  0.6454
23310SOL     OW73521   3.676   4.256   1.966 -1.2596 -0.6159  1.0384
23310SOL    HW173522   3.738   4.301   2.024 -1.0102  1.0908 -0.4779
23310SOL    HW273523   3.730   4.198   1.913 -1.0817  0.0430  0.4861
23311SOL     OW73524   4.775   6.804   0.370 -0.4656  0.1437  0.1585
23311SOL    HW173525   4.762   6.768   0.282 -0.1807  2.8724 -1.1031
23311SOL    HW273526   4.861   6.771   0.397 -1.8289 -3.2252  0.8290
23312SOL     OW73527   0.177  10.774   3.401 -0.1005 -0.1984 -0.2138
23312SOL    HW173528   0.182  10.803   3.310  1.6153 -0.3056 -0.1898
23312SOL    HW273529   0.155  10.852   3.451  0.4139  0.1887 -0.5849
23313SOL     OW73530   9.306  10.360   9.187  0.2908  0.5786  0.4756
23313SOL    HW173531   9.307  10.285   9.128 -0.0809 -0.3277  1.5754
23313SOL    HW273532   9.363  10.425   9.145 -1.7579  0.9197 -2.0516
23314SOL     OW73533   7.830   5.814   6.617 -0.1169  0.0244  0.0040
23314SOL    HW173534   7.789   5.882   6.670 -1.3905 -1.9740  1.7510
23314SOL    HW273535   7.814   5.841   6.526 -2.0002  1.2522  0.6416
23315SOL     OW73536  10.285  10.314   3.315 -0.0523 -0.2610 -0.5431
23315SOL    HW173537  10.297  10.235   3.368  0.4516  0.2737  0.1521
23315SOL    HW273538  10.199  10.302   3.274 -0.7065 -0.4270  0.8442
23316SOL     OW73539   2.056   3.106   3.373  0.4538 -0.0719 -0.1394
23316SOL    HW173540   2.046   3.037   3.307 -2.2426 -0.6184  0.7137
23316SOL    HW273541   2.061   3.059   3.456  0.0627  0.7086  0.3320
23317SOL     OW73542   9.941   0.376   7.776 -1.3711  0.1229  0.3293
23317SOL    HW173543   9.938   0.461   7.820 -2.1122  1.1117 -1.5129
23317SOL    HW273544   9.982   0.394   7.692  0.3241 -1.7724  0.6815
23318SOL     OW73545   5.501   8.764   8.296  0.3007  0.4203  0.2065
23318SOL    HW173546   5.578   8.819   8.286  0.2707  0.7265  1.5394
23318SOL    HW273547   5.535   8.676   8.309  0.3621  0.2083 -1.2287
23319SOL     OW73548   1.701   7.942   3.388  0.5722 -0.7647 -0.1391
23319SOL    HW173549   1.631   7.932   3.323  0.2818  0.0759  0.0224
23319SOL    HW273550   1.712   8.037   3.395  0.5696 -0.8396  1.0715
23320SOL     OW73551   5.450   8.292   5.540 -0.3216 -0.1186 -0.2610
23320SOL    HW173552   5.530   8.253   5.575  0.6696 -0.2060 -2.4629
23320SOL    HW273553   5.479   8.371   5.496 -1.4649 -0.0611 -0.9628
23321SOL     OW73554   8.651   8.202   6.725 -0.1954  0.6344 -0.2176
23321SOL    HW173555   8.689   8.170   6.807 -0.1994  0.3428 -0.3313
23321SOL    HW273556   8.592   8.273   6.753 -2.2282 -1.1488  0.3033
23322SOL     OW73557  10.972   5.346  10.976  0.5646 -0.0647  0.4265
23322SOL    HW173558  10.904   5.409  11.002  0.2318  0.4725 -1.5998
23322SOL    HW273559  10.953   5.326  10.885  2.3199 -1.0032  0.2200
23323SOL     OW73560   5.167   8.359   7.895 -0.0873 -0.4010 -0.1098
23323SOL    HW173561   5.252   8.321   7.875  0.1101  0.6001 -1.3419
23323SOL    HW273562   5.170   8.446   7.855 -2.3632 -1.0385 -1.8648
23324SOL     OW73563   6.601   6.759   8.169 -0.0007 -0.2788  0.1204
23324SOL    HW173564   6.620   6.682   8.222 -2.6992 -1.0818  0.0719
23324SOL    HW273565   6.683   6.776   8.122  2.0323 -0.4108  3.3207
23325SOL     OW73566   8.730  10.747   8.423 -0.1952  1.0323 -0.1366
23325SOL    HW173567   8.702  10.783   8.507 -1.0724  1.8241 -0.7466
23325SOL    HW273568   8.755  10.823   8.371  1.4684  0.4611 -0.2110
23326SOL     OW73569   8.331   5.255   7.830 -0.2505  0.4265 -0.3128
23326SOL    HW173570   8.409   5.308   7.820 -0.1935  0.2781 -0.6871
23326SOL    HW273571   8.319   5.214   7.744 -2.2915  2.5735 -1.1899
23327SOL     OW73572  10.578   1.958   1.660  0.1771 -0.6425 -0.3682
23327SOL    HW173573  10.558   2.050   1.676 -0.5064 -0.6739 -1.0000
23327SOL    HW273574  10.505   1.910   1.699  0.2031 -0.8814 -0.6090
23328SOL     OW73575   4.471   2.060   1.026 -0.2225  0.2347 -0.5737
23328SOL    HW173576   4.474   1.970   0.992  0.3955  0.1489 -0.3097
23328SOL    HW273577   4.384   2.091   1.003 -0.7730 -0.7462  0.1219
23329SOL     OW73578   4.165   2.280   8.317 -0.3865 -0.0352  0.0436
23329SOL    HW173579   4.087   2.228   8.299  0.2038 -0.4358 -1.4732
23329SOL    HW273580   4.238   2.224   8.291  0.3205  1.1096 -0.5134
23330SOL     OW73581   2.691   8.222   4.982  0.1583  0.0412 -0.2323
23330SOL    HW173582   2.645   8.177   5.052  2.6246 -1.7138  0.3871
23330SOL    HW273583   2.719   8.305   5.021  0.3881 -0.3508  0.4504
23331SOL     OW73584   9.111   7.623   8.867 -0.3490 -0.4850  0.4100
23331SOL    HW173585   9.027   7.593   8.832 -0.5748 -2.7071  2.6076
23331SOL    HW273586   9.177   7.578   8.814 -0.5801 -0.5223  0.1511
23332SOL     OW73587   2.735   4.627   3.219  0.2916  0.6302  0.3527
23332SOL    HW173588   2.822   4.634   3.180 -0.0189  0.4765 -0.3701
23332SOL    HW273589   2.740   4.680   3.299  0.7108  1.5695 -0.2799
23333SOL     OW73590  10.549   2.619   6.730 -0.2455 -0.0444  0.1633
23333SOL    HW173591  10.634   2.654   6.755 -0.5474  1.7234 -1.1282
23333SOL    HW273592  10.569   2.540   6.679  0.5785  0.0133  0.3897
23334SOL     OW73593   1.174   7.809   5.779  0.2028  0.1047  0.6423
23334SOL    HW173594   1.192   7.897   5.811 -0.3416  0.2060  0.6827
23334SOL    HW273595   1.183   7.815   5.684  1.2116 -0.0518  0.7190
23335SOL     OW73596   4.170   3.046   1.184  0.4570 -0.2145 -0.2141
23335SOL    HW173597   4.211   3.067   1.268  0.5751  2.0298 -0.7528
23335SOL    HW273598   4.241   3.010   1.131  0.7562 -0.1586  0.1439
23336SOL     OW73599   0.154   9.413   9.511 -0.4968 -0.3293 -0.1971
23336SOL    HW173600   0.103   9.489   9.540 -0.7825 -0.2373 -0.9208
23336SOL    HW273601   0.130   9.343   9.571 -0.2382  0.1465  0.4743
23337SOL     OW73602   7.453   1.052   2.174 -0.6294 -0.5563 -0.0842
23337SOL    HW173603   7.401   0.979   2.139 -0.1366 -0.9533 -0.0060
23337SOL    HW273604   7.484   1.020   2.259 -0.1694 -0.3659 -0.1789
23338SOL     OW73605   6.500   9.841   4.322 -0.0925  0.3415  0.2093
23338SOL    HW173606   6.445   9.803   4.391 -0.7040 -0.4176 -0.6656
23338SOL    HW273607   6.586   9.849   4.362 -0.4093 -0.2005  1.0310
23339SOL     OW73608  11.042  10.331   4.989  0.2057  0.2991 -0.3305
23339SOL    HW173609  11.107  10.260   4.994 -0.6657 -0.5158 -0.2246
23339SOL    HW273610  10.987  10.306   4.915 -1.3231 -0.2084  0.9235
23340SOL     OW73611   2.367   8.069   1.344  0.6625  0.5811 -0.2066
23340SOL    HW173612   2.298   8.117   1.389  0.0843 -0.4038 -0.0318
23340SOL    HW273613   2.447   8.118   1.364  0.3373  0.4892  1.4051
23341SOL     OW73614   8.610  11.084   4.148 -0.0222 -0.0872 -0.3183
23341SOL    HW173615   8.529  11.039   4.122  0.8915 -2.5336  0.7231
23341SOL    HW273616   8.599  11.102   4.242  0.0971  0.8727 -0.4778
23342SOL     OW73617   4.737   0.649   8.570  0.1303  0.1297  0.5399
23342SOL    HW173618   4.686   0.718   8.528  0.9829 -0.3644 -1.4478
23342SOL    HW273619   4.827   0.683   8.572  0.5363 -0.8251 -0.3368
23343SOL     OW73620   1.679   6.627   9.793  0.2737 -0.0821 -0.1114
23343SOL    HW173621   1.679   6.551   9.851 -1.2998 -1.0872 -1.3561
23343SOL    HW273622   1.636   6.696   9.844 -0.5227 -0.7568  0.1482
23344SOL     OW73623  10.977   6.447   1.319  0.8973 -0.6127  0.7092
23344SOL    HW173624  10.960   6.422   1.410  0.3014  0.5011  0.9213
23344SOL    HW273625  10.926   6.527   1.306  1.6361 -0.2951 -0.3585
23345SOL     OW73626   7.521   3.016   4.125  0.0613 -0.1502 -0.2880
23345SOL    HW173627   7.551   3.102   4.156 -0.1879  0.0294 -0.5317
23345SOL    HW273628   7.461   3.037   4.053  0.2955 -0.5444 -0.6027
23346SOL     OW73629   5.247   8.541   0.170 -1.2805  0.1905 -0.0532
23346SOL    HW173630   5.270   8.473   0.107 -1.8381  0.0497 -0.1048
23346SOL    HW273631   5.297   8.518   0.249 -0.7830  0.2235 -0.3523
23347SOL     OW73632   5.861   8.021   6.920  0.3711  0.0542 -0.2351
23347SOL    HW173633   5.814   8.082   6.977 -0.3315 -0.3709 -0.3572
23347SOL    HW273634   5.835   7.935   6.950  0.0842 -0.1809 -1.1335
23348SOL     OW73635   4.149   8.817   9.549  0.2759  0.1641 -0.7141
23348SOL    HW173636   4.139   8.838   9.641  1.7830  2.7829 -1.0382
23348SOL    HW273637   4.187   8.729   9.548 -0.6060 -0.2724  1.0954
23349SOL     OW73638   6.625   3.631   8.270  0.7677 -0.1806  0.1365
23349SOL    HW173639   6.564   3.641   8.343  0.6359 -0.3293  0.0472
23349SOL    HW273640   6.709   3.662   8.304  0.5720  0.3312  0.1601
23350SOL     OW73641   9.159   7.027   4.984 -0.1900  0.0743 -0.4454
23350SOL    HW173642   9.153   6.969   5.060 -0.1433  0.3171 -0.2552
23350SOL    HW273643   9.237   7.080   5.000 -0.3639  0.3526 -0.5040
23351SOL     OW73644   2.556   0.951   9.644  0.0798  0.3727  0.2972
23351SOL    HW173645   2.500   1.027   9.656  0.7922  1.6634 -3.3065
23351SOL    HW273646   2.622   0.958   9.713 -1.2549  1.6187  1.5035
23352SOL     OW73647   1.359   6.422   3.535  0.2309  0.1145 -0.7113
23352SOL    HW173648   1.355   6.514   3.561 -0.3946 -0.4358  1.3383
23352SOL    HW273649   1.296   6.414   3.464  1.7088  1.6209 -2.3134
23353SOL     OW73650   6.009   6.752   6.905  0.2098 -0.5058  0.5749
23353SOL    HW173651   5.918   6.782   6.912  0.0004 -0.9859 -0.0161
23353SOL    HW273652   6.044   6.761   6.993 -0.3274 -0.0355  0.7424
23354SOL     OW73653   5.056   6.895   4.438 -0.2174 -0.3406  0.2624
23354SOL    HW173654   5.045   6.964   4.503  2.5659 -2.2401  3.0694
23354SOL    HW273655   5.005   6.822   4.472 -1.4765 -0.3901 -1.5922
23355SOL     OW73656   4.108   1.619   5.315  0.3196  0.5210  0.4389
23355SOL    HW173657   4.037   1.612   5.252  1.4433  0.1036 -0.8285
23355SOL    HW273658   4.158   1.695   5.286  0.7641  0.4208  0.9255
23356SOL     OW73659   3.187   2.482   9.153 -0.2452 -0.1342  0.4905
23356SOL    HW173660   3.128   2.495   9.079 -0.3268 -1.1360  0.3690
23356SOL    HW273661   3.176   2.390   9.177  2.1765 -0.6888 -0.3183
23357SOL     OW73662   9.704   1.947   8.189 -0.5446 -0.4931 -0.9748
23357SOL    HW173663   9.756   1.904   8.121  0.3823  0.0692 -0.6448
23357SOL    HW273664   9.616   1.911   8.178 -0.7430  0.5029 -3.2982
23358SOL     OW73665  10.825   5.317   8.528 -0.0944 -0.1412  0.7922
23358SOL    HW173666  10.789   5.406   8.536  0.1926 -0.0532  1.1704
23358SOL    HW273667  10.907   5.329   8.479 -1.1763 -0.5065 -1.1872
23359SOL     OW73668  10.047   6.478  10.246 -0.3037  0.6615  0.0515
23359SOL    HW173669  10.104   6.523  10.307 -0.1050  0.3730  0.0793
23359SOL    HW273670  10.061   6.522  10.162  0.4276  0.1895 -0.0815
23360SOL     OW73671   1.779   3.806   0.693  0.3026 -0.1587 -0.3517
23360SOL    HW173672   1.687   3.798   0.719  0.4136  1.1282  0.5245
23360SOL    HW273673   1.776   3.817   0.598 -0.6054  1.6159 -0.1739
23361SOL     OW73674   8.810   7.644   0.790 -0.2189 -0.7416  0.0650
23361SOL    HW173675   8.880   7.601   0.741 -0.7718  0.2276 -1.6756
23361SOL    HW273676   8.855   7.693   0.859  0.7751 -0.6209 -0.6459
23362SOL     OW73677   9.456   5.104  10.925  0.3852 -0.3055 -0.0816
23362SOL    HW173678   9.437   5.070  11.013 -0.0165  1.8717  0.7562
23362SOL    HW273679   9.375   5.147  10.899  1.7722  2.9178  0.4497
23363SOL     OW73680   8.551   7.573   8.360 -0.0666 -0.2367  0.0332
23363SOL    HW173681   8.573   7.582   8.267 -0.3996  4.4994  0.1813
23363SOL    HW273682   8.478   7.511   8.362 -0.1123 -0.3960 -2.8536
23364SOL     OW73683   0.930   9.671  10.314 -0.4819  0.5691 -0.4866
23364SOL    HW173684   0.954   9.700  10.226 -0.6609 -0.9354 -1.0590
23364SOL    HW273685   0.868   9.737  10.344 -0.5127  1.0444 -1.5382
23365SOL     OW73686   5.936  10.437   2.365  0.6463  0.4886  0.6187
23365SOL    HW173687   5.916  10.402   2.452  0.1897 -0.6477  0.0860
23365SOL    HW273688   5.883  10.384   2.306  3.6173 -1.2721 -0.7125
23366SOL     OW73689   9.169   5.323   5.007 -0.1433  0.2363 -0.3273
23366SOL    HW173690   9.134   5.398   5.054  1.1389 -1.1297  3.1000
23366SOL    HW273691   9.219   5.361   4.935 -0.9931  2.5551  0.2308
23367SOL     OW73692   4.035   9.646  10.012 -0.0985 -0.2093 -0.4726
23367SOL    HW173693   4.092   9.721  10.030  0.4891 -0.2607 -1.9490
23367SOL    HW273694   4.012   9.612  10.098  3.0879 -0.9065  0.2015
23368SOL     OW73695   9.985   7.406   7.790 -0.5471 -0.2496  0.1887
23368SOL    HW173696   9.898   7.416   7.830 -0.0326 -2.3802  2.0189
23368SOL    HW273697  10.007   7.314   7.802  2.6693  0.5354  1.2626
23369SOL     OW73698   7.535   7.232   8.612  0.1892  0.1870  0.4703
23369SOL    HW173699   7.551   7.206   8.702 -0.4543 -0.9808  0.2696
23369SOL    HW273700   7.616   7.276   8.585  0.7743 -0.3478  1.2946
23370SOL     OW73701   3.291   6.815   0.846  0.0830  0.4081  0.2393
23370SOL    HW173702   3.314   6.843   0.935  1.9577 -2.2883  0.7245
23370SOL    HW273703   3.336   6.877   0.789  0.7079  0.8466  1.1881
23371SOL     OW73704   1.327   4.929   5.353 -0.0547 -0.1966  0.1544
23371SOL    HW173705   1.327   4.892   5.264  0.8476 -0.5912  0.3120
23371SOL    HW273706   1.351   4.856   5.409 -0.3781  0.1136  0.7022
23372SOL     OW73707   9.673   3.828   0.955 -0.4382 -0.2921  0.6460
23372SOL    HW173708   9.590   3.849   0.913 -0.1306  1.3083  0.7410
23372SOL    HW273709   9.711   3.759   0.901 -1.1161  0.0697 -0.3251
23373SOL     OW73710   5.411  10.220   1.024 -0.1160 -0.0039  0.2465
23373SOL    HW173711   5.340  10.159   1.045  0.1304 -0.1781  0.5634
23373SOL    HW273712   5.472  10.168   0.972 -0.4584  0.2790 -0.4592
23374SOL     OW73713   1.508   5.506   7.023 -0.3005 -0.0000  0.2359
23374SOL    HW173714   1.418   5.522   6.995 -0.5865  0.3321  1.3127
23374SOL    HW273715   1.562   5.534   6.949 -1.0942 -0.7462 -0.6440
23375SOL     OW73716  11.051   8.493   1.845 -0.7376  0.0591  0.2994
23375SOL    HW173717  11.146   8.486   1.854 -0.7252 -0.0589  0.0972
23375SOL    HW273718  11.016   8.443   1.919 -0.6438  0.8641  0.8963
23376SOL     OW73719   1.556   2.269  11.046 -0.2587  0.3814  0.3607
23376SOL    HW173720   1.559   2.189  11.098  0.6672  0.6719  0.7726
23376SOL    HW273721   1.586   2.338  11.106  2.1586  0.5303 -0.8994
23377SOL     OW73722   6.177  10.890   2.235  0.3349 -0.4753 -0.6067
23377SOL    HW173723   6.129  10.809   2.249 -0.4722 -0.1938 -1.5957
23377SOL    HW273724   6.242  10.893   2.306 -1.5620 -0.5230  1.2180
23378SOL     OW73725   4.271  10.186   2.369  0.1209  0.2462 -0.4298
23378SOL    HW173726   4.276  10.093   2.344  0.9926 -0.5280  2.2929
23378SOL    HW273727   4.358  10.221   2.348 -1.0896  1.3864 -4.3197
23379SOL     OW73728  10.271   2.163   5.970  0.0754 -0.2781 -0.1016
23379SOL    HW173729  10.336   2.165   5.900 -0.4431  0.8583 -0.5878
23379SOL    HW273730  10.322   2.161   6.051  0.7204  0.3121 -0.4849
23380SOL     OW73731   1.623   1.763   2.360 -0.3283 -0.1262  1.0578
23380SOL    HW173732   1.532   1.745   2.339  0.0449  0.2570 -1.1458
23380SOL    HW273733   1.623   1.785   2.453 -2.2210 -1.6527  1.4559
23381SOL     OW73734   0.154  10.204   1.286  0.1073  0.0465  0.2402
23381SOL    HW173735   0.096  10.129   1.294  0.2495 -0.1937 -0.8162
23381SOL    HW273736   0.201  10.207   1.369 -1.2370  0.1134  1.0253
23382SOL     OW73737   1.714   5.237  10.507  0.9913  0.5874  0.0914
23382SOL    HW173738   1.763   5.165  10.545  0.2562  0.2244  0.3484
23382SOL    HW273739   1.729   5.311  10.566  1.5183  0.5817 -0.0288
23383SOL     OW73740  10.224   2.788   9.704 -0.3567  0.0659 -0.6629
23383SOL    HW173741  10.280   2.743   9.641 -1.1027  0.8002 -1.8941
23383SOL    HW273742  10.165   2.840   9.650 -1.2611  0.4408  0.6492
23384SOL     OW73743   1.419   5.722   8.573  0.9445  0.2387 -0.1049
23384SOL    HW173744   1.482   5.664   8.617  0.0261  0.6390  1.8703
23384SOL    HW273745   1.335   5.680   8.587  0.6252  0.1908 -1.9087
23385SOL     OW73746   3.774   1.150   4.807 -0.5027  0.3348  0.3819
23385SOL    HW173747   3.845   1.206   4.774 -1.6915  0.8251 -1.5440
23385SOL    HW273748   3.763   1.176   4.898  0.9412  1.1603  0.3481
23386SOL     OW73749   6.189   4.267   0.811 -0.6323 -0.7146 -0.8268
23386SOL    HW173750   6.115   4.250   0.869 -0.5965 -0.7028 -0.7771
23386SOL    HW273751   6.150   4.285   0.726 -0.7003 -0.4171 -0.7339
23387SOL     OW73752   6.303  10.131   7.428  0.2593 -0.0804  0.2194
23387SOL    HW173753   6.372  10.159   7.367  0.7744  0.1239  0.8807
23387SOL    HW273754   6.222  10.143   7.379  0.6181  0.6752 -0.2148
23388SOL     OW73755   4.347   4.456   3.653 -0.4973 -0.1135 -0.0722
23388SOL    HW173756   4.259   4.491   3.644 -0.6714  0.0783  1.9904
23388SOL    HW273757   4.399   4.528   3.688  0.4412 -0.2996 -1.0168
23389SOL     OW73758   1.477  10.796  10.268 -0.0041 -0.3277 -0.0914
23389SOL    HW173759   1.427  10.720  10.239 -1.3346  0.1949  0.7339
23389SOL    HW273760   1.412  10.865  10.280  0.7444  0.0805  2.0575
23390SOL     OW73761   5.427   0.081   3.409 -0.2230 -0.8626 -0.3617
23390SOL    HW173762   5.517   0.060   3.433  0.2095  1.1859 -0.0794
23390SOL    HW273763   5.435   0.149   3.343 -1.5718  0.1702  0.4997
23391SOL     OW73764   7.295   2.812   5.969 -0.3418 -0.0534  0.2627
23391SOL    HW173765   7.375   2.806   5.918 -0.6228 -0.4746 -0.1325
23391SOL    HW273766   7.290   2.904   5.995  1.5585 -0.4756  2.4034
23392SOL     OW73767   0.769   5.084   2.139 -0.3042  0.2294 -0.0458
23392SOL    HW173768   0.738   5.078   2.230 -0.5021 -0.3848 -0.1515
23392SOL    HW273769   0.723   5.014   2.093 -1.0892  1.2711 -0.8829
23393SOL     OW73770   2.472   3.807   8.796  0.2799 -0.6266  0.2087
23393SOL    HW173771   2.538   3.857   8.748 -1.0749  1.3784  0.3187
23393SOL    HW273772   2.500   3.813   8.888 -0.3181  0.7114  0.3230
23394SOL     OW73773   0.581   8.138  10.931  0.0097  0.0964 -0.0694
23394SOL    HW173774   0.554   8.150  11.022  1.1159 -0.0302  0.2944
23394SOL    HW273775   0.499   8.135  10.882 -0.6805 -1.2547  1.0805
23395SOL     OW73776   6.295   6.759   9.004 -0.3671 -0.4340 -0.3849
23395SOL    HW173777   6.327   6.819   8.937  1.9730 -0.7343  0.3659
23395SOL    HW273778   6.233   6.702   8.958 -0.6251  0.8557 -1.7013
23396SOL     OW73779   5.905   5.173   1.247  0.3320 -0.1140  0.0997
23396SOL    HW173780   5.918   5.179   1.341  0.0389  0.4969  0.1007
23396SOL    HW273781   5.822   5.127   1.236  0.0538  0.3754  0.1474
23397SOL     OW73782   9.772   7.038   0.311  0.2758  0.3200 -0.0023
23397SOL    HW173783   9.749   7.093   0.236 -2.5775 -0.8818 -0.1114
23397SOL    HW273784   9.830   7.093   0.364  0.5928  1.9972 -1.9619
23398SOL     OW73785  10.614   6.103   2.080 -0.6089  0.0870 -0.3203
23398SOL    HW173786  10.665   6.183   2.089  0.5568 -0.6641  0.0865
23398SOL    HW273787  10.523   6.131   2.085 -0.2125  1.2536  0.9820
23399SOL     OW73788   9.989  10.520   8.177  0.4300  0.2541  0.5351
23399SOL    HW173789  10.064  10.479   8.134 -0.2142  0.6209 -1.0023
23399SOL    HW273790   9.980  10.605   8.134  0.3236  1.0793  2.0808
23400SOL     OW73791   3.935   9.539   1.207  0.0896 -0.1725 -0.2040
23400SOL    HW173792   4.007   9.476   1.198 -0.4261 -0.9358  0.8030
23400SOL    HW273793   3.933   9.559   1.301 -0.9941 -0.1379 -0.2301
23401SOL     OW73794   9.228   1.937   7.008  0.0369  0.5829  0.8648
23401SOL    HW173795   9.237   1.907   6.918  0.4277  2.7609  0.1194
23401SOL    HW273796   9.319   1.941   7.040  0.4391  4.3849 -0.3241
23402SOL     OW73797   7.381   4.196   4.929 -0.2987  0.6786 -0.1523
23402SOL    HW173798   7.446   4.146   4.978  0.4123  1.9522  0.2365
23402SOL    HW273799   7.433   4.248   4.867 -0.9961  1.2206 -0.2914
23403SOL     OW73800   5.846   1.944   4.152 -0.0817  0.2988  0.1507
23403SOL    HW173801   5.896   1.931   4.072 -0.7086 -1.2826 -0.0260
23403SOL    HW273802   5.875   1.873   4.210 -2.2156 -0.8037 -0.0445
23404SOL     OW73803   4.430  11.064   7.087  0.1753  0.4041 -0.1450
23404SOL    HW173804   4.427  10.987   7.145  0.3250  0.1721 -0.4434
23404SOL    HW273805   4.485  11.037   7.014  0.4458  0.8886 -0.1260
23405SOL     OW73806   8.702   3.357   0.777  0.0644  0.1657  0.1406
23405SOL    HW173807   8.750   3.362   0.694  0.7032 -0.0121  0.4903
23405SOL    HW273808   8.611   3.341   0.751  0.5626 -1.9847 -0.4978
23406SOL     OW73809   4.246   9.424   8.164  0.2812 -0.2626 -0.5188
23406SOL    HW173810   4.163   9.378   8.148 -0.6105  0.6769  1.1543
23406SOL    HW273811   4.257   9.423   8.259  1.7178  0.4421 -0.6535
23407SOL     OW73812   7.003   8.555   4.659  0.0311  0.6029  0.3507
23407SOL    HW173813   7.069   8.511   4.712 -0.5281 -0.7547 -0.0341
23407SOL    HW273814   7.012   8.648   4.681 -0.1628  0.1101  2.7718
23408SOL     OW73815   5.916   4.448   6.003 -0.0853 -0.2400 -0.0475
23408SOL    HW173816   5.939   4.401   5.923  1.9597  2.3452 -1.1221
23408SOL    HW273817   5.998   4.451   6.054 -0.6281  0.5619  0.8187
23409SOL     OW73818   3.361   8.232  10.903  0.0271  0.1058 -0.0334
23409SOL    HW173819   3.384   8.294  10.835  1.2792 -1.2296 -0.8888
23409SOL    HW273820   3.396   8.269  10.983  0.0623  0.8704 -0.3983
23410SOL     OW73821   3.750   4.122   3.329  0.5139 -0.0057 -0.0361
23410SOL    HW173822   3.785   4.111   3.417 -0.2048 -0.3222  0.2183
23410SOL    HW273823   3.727   4.033   3.301 -0.1736  0.1963 -0.1517
23411SOL     OW73824  10.303   1.756   7.935  0.1035 -0.7837  0.3409
23411SOL    HW173825  10.237   1.721   7.994 -0.3021 -0.0914  0.3078
23411SOL    HW273826  10.257   1.768   7.852 -0.6116  2.5321  1.0827
23412SOL     OW73827   8.957   6.280   2.412  0.4425  0.1079  0.1989
23412SOL    HW173828   8.955   6.363   2.365  1.4992 -0.4281 -0.8397
23412SOL    HW273829   9.042   6.279   2.456 -1.1559  1.3953  3.7421
23413SOL     OW73830   1.231   5.374   0.765 -0.2215 -0.6839  0.0287
23413SOL    HW173831   1.256   5.288   0.731  0.2739  0.1435 -1.8244
23413SOL    HW273832   1.246   5.434   0.692  0.8100  1.2191  1.7083
23414SOL     OW73833   8.457   2.533   3.920 -0.0172 -0.3344 -0.2131
23414SOL    HW173834   8.497   2.590   3.855 -0.9536 -0.8408 -1.2690
23414SOL    HW273835   8.451   2.587   3.999 -1.1580  1.1570 -1.2663
23415SOL     OW73836   6.833   4.343   5.310 -0.1872 -0.0897 -0.1398
23415SOL    HW173837   6.889   4.419   5.296 -1.4954  1.0296  0.4597
23415SOL    HW273838   6.779   4.338   5.231 -1.3519  0.7437  0.5693
23416SOL     OW73839   0.321   4.269  10.528  0.0777 -0.0750  0.1549
23416SOL    HW173840   0.298   4.360  10.513  0.0311  0.1753  1.6024
23416SOL    HW273841   0.325   4.260  10.623  0.3325 -1.5210  0.0394
23417SOL     OW73842   4.298  10.656   9.816  0.1718  0.3953 -0.6012
23417SOL    HW173843   4.230  10.683   9.754 -0.2414  0.3777 -0.1595
23417SOL    HW273844   4.360  10.606   9.762 -0.9521 -0.8962 -0.7424
23418SOL     OW73845   2.812   2.148   1.796  0.2887 -0.0396  0.0219
23418SOL    HW173846   2.848   2.121   1.711  0.4244 -1.3591  0.4798
23418SOL    HW273847   2.787   2.067   1.838  2.1990  0.3924  2.1559
23419SOL     OW73848   8.673   9.219   1.235 -0.6960  0.2836  0.2546
23419SOL    HW173849   8.757   9.210   1.191  0.4514 -1.7547  2.6378
23419SOL    HW273850   8.674   9.307   1.271 -0.8985  1.3302 -2.1300
23420SOL     OW73851   8.445   9.701   7.544 -0.0746 -0.1292 -0.0497
23420SOL    HW173852   8.361   9.713   7.500 -1.1847 -3.2724  0.9074
23420SOL    HW273853   8.454   9.606   7.552  3.4214  0.0977  0.2588
23421SOL     OW73854   4.081   3.151   8.698  0.0569 -0.3459 -0.2825
23421SOL    HW173855   4.084   3.136   8.792 -0.7229 -0.1176 -0.2161
23421SOL    HW273856   4.159   3.203   8.679  0.2164 -0.3933  0.2308
23422SOL     OW73857   7.152   7.096   5.588 -0.1693  0.1341 -0.2297
23422SOL    HW173858   7.150   7.131   5.499 -4.0377 -0.5838 -0.6138
23422SOL    HW273859   7.183   7.168   5.643 -0.2239  1.4435 -1.8644
23423SOL     OW73860   9.131   0.062   7.717 -0.0790 -0.5697  0.3034
23423SOL    HW173861   9.198   0.044   7.651 -0.1975 -0.2035  0.0811
23423SOL    HW273862   9.127   0.157   7.723  0.0808 -0.6018  1.0030
23424SOL     OW73863   1.685   0.880   7.342 -0.7061 -0.3286 -0.0635
23424SOL    HW173864   1.629   0.824   7.396 -1.6334  1.7259  1.2383
23424SOL    HW273865   1.756   0.906   7.400  0.9314 -1.8160 -1.3071
23425SOL     OW73866   3.243   5.969   6.395 -0.4789 -0.4421 -0.0521
23425SOL    HW173867   3.233   5.950   6.488  1.3058 -0.0105  0.2527
23425SOL    HW273868   3.177   5.915   6.352 -1.4144 -0.5468  1.4614
23426SOL     OW73869   6.231   0.178   4.434 -0.7597 -0.1026 -0.5390
23426SOL    HW173870   6.209   0.087   4.413  0.4454 -0.6424  0.3936
23426SOL    HW273871   6.158   0.229   4.399 -2.0393 -1.5208 -0.0612
23427SOL     OW73872   9.417   8.604   6.946  0.3014  0.4684 -0.6604
23427SOL    HW173873   9.336   8.599   6.997  0.9174 -0.4638  0.2767
23427SOL    HW273874   9.472   8.666   6.993  0.5413  0.2666 -0.6687
23428SOL     OW73875   6.833   3.011   9.972  0.4082  0.2941  0.5042
23428SOL    HW173876   6.749   3.020   9.927  0.6743  0.1964 -0.0268
23428SOL    HW273877   6.818   2.945  10.039  0.3260 -0.4884 -0.2694
23429SOL     OW73878   8.285  10.910  10.056 -0.2403  0.0750 -0.1832
23429SOL    HW173879   8.212  10.871  10.008  0.3335 -0.5549 -0.5627
23429SOL    HW273880   8.247  10.940  10.139 -0.8197 -0.7452 -0.1441
23430SOL     OW73881  10.748   8.138   0.454 -0.3614  0.4661 -0.4273
23430SOL    HW173882  10.824   8.091   0.488 -1.7186 -1.8664 -0.3998
23430SOL    HW273883  10.742   8.111   0.362 -0.8015  1.1232 -0.6025
23431SOL     OW73884   4.150   4.106   6.858 -1.0220 -0.2049 -0.1507
23431SOL    HW173885   4.070   4.054   6.848 -1.2066 -0.0739  0.5469
23431SOL    HW273886   4.201   4.058   6.924 -0.1391 -0.7276 -1.1714
23432SOL     OW73887   4.664   9.215   7.697  0.3417  0.1223  1.1298
23432SOL    HW173888   4.683   9.122   7.711  2.7384  0.5916  1.2649
23432SOL    HW273889   4.699   9.234   7.610  0.7601  1.1300  1.5087
23433SOL     OW73890   4.360   7.579   3.815  0.3511  0.2745  0.0916
23433SOL    HW173891   4.289   7.552   3.873  1.0320 -2.7031 -0.2755
23433SOL    HW273892   4.319   7.587   3.729  0.1621  0.1691  0.1715
23434SOL     OW73893   1.367   8.801   7.355  0.1207  0.4323 -0.2392
23434SOL    HW173894   1.285   8.839   7.322 -0.2728  1.8950  2.1779
23434SOL    HW273895   1.356   8.707   7.342 -0.8055  0.7776 -2.3226
23435SOL     OW73896   0.740   0.745  10.664  0.0327 -0.3420  0.2272
23435SOL    HW173897   0.758   0.770  10.755 -1.3428 -0.0765  0.4428
23435SOL    HW273898   0.740   0.649  10.665  0.9021 -0.3542  0.3040
23436SOL     OW73899   5.471   1.437  10.188  0.4330  0.2758 -0.3012
23436SOL    HW173900   5.513   1.511  10.144 -0.8793  0.4172 -1.3756
23436SOL    HW273901   5.505   1.360  10.142 -1.0145  0.4276 -1.7182
23437SOL     OW73902   0.972   7.176   6.888  0.4977  0.5799 -0.5978
23437SOL    HW173903   0.992   7.234   6.961  3.5381 -0.4887 -0.4473
23437SOL    HW273904   0.902   7.120   6.921 -1.1964  2.8292 -0.0988
23438SOL     OW73905   0.246   0.659   1.723 -0.1750 -0.4172  0.0168
23438SOL    HW173906   0.173   0.646   1.662 -0.5444 -0.1879  0.4104
23438SOL    HW273907   0.275   0.570   1.745  0.0530 -0.5028 -0.5954
23439SOL     OW73908   2.642   6.836   9.089  0.1236  0.2793 -0.0928
23439SOL    HW173909   2.586   6.779   9.141 -2.3360  1.5243 -1.1777
23439SOL    HW273910   2.731   6.812   9.113 -0.8565 -1.0798  2.5553
23440SOL     OW73911   5.874   6.628   3.128 -0.4187 -0.1424 -0.1884
23440SOL    HW173912   5.788   6.663   3.150 -0.0483 -0.3573  1.7936
23440SOL    HW273913   5.933   6.669   3.191  0.8937 -0.2511 -1.3075
23441SOL     OW73914   1.475   3.927   7.890  0.1633  0.2942  0.2632
23441SOL    HW173915   1.568   3.906   7.902 -0.3391 -1.0352  2.4905
23441SOL    HW273916   1.438   3.848   7.849 -0.1301  0.5020  0.1220
23442SOL     OW73917   7.866   8.377   4.407 -0.0690  0.1455  0.0638
23442SOL    HW173918   7.928   8.350   4.339  0.9691  0.7459  0.7550
23442SOL    HW273919   7.900   8.460   4.439  0.2159 -0.7305  2.2238
23443SOL     OW73920  10.097   6.104   9.594  0.3498 -0.0683 -0.1828
23443SOL    HW173921  10.118   6.194   9.569 -0.9452  0.4915  0.6358
23443SOL    HW273922  10.024   6.080   9.537 -0.7288  0.1972  1.0267
23444SOL     OW73923  10.487  10.205   0.378 -0.5395  0.1339 -0.2901
23444SOL    HW173924  10.582  10.214   0.386 -0.7139  0.9159  1.0988
23444SOL    HW273925  10.469  10.227   0.286  0.4803  1.4187 -0.2187
23445SOL     OW73926   0.456   3.928   5.133  0.4957 -0.2600 -0.2668
23445SOL    HW173927   0.432   3.980   5.210  0.1886 -0.1041 -0.4643
23445SOL    HW273928   0.383   3.940   5.072  1.0138  0.1188 -0.8288
23446SOL     OW73929   2.852   0.024   8.312  0.2558 -0.2917 -0.1572
23446SOL    HW173930   2.826   0.115   8.323  1.0349 -0.2366  1.6661
23446SOL    HW273931   2.941   0.029   8.276  1.2980 -0.1801  2.1956
23447SOL     OW73932   3.011   9.896   1.011 -0.2214 -0.1449 -0.1456
23447SOL    HW173933   3.028   9.979   0.965 -1.3314  0.8976  1.2042
23447SOL    HW273934   2.921   9.874   0.987  0.2175 -1.2485 -0.8637
23448SOL     OW73935   0.247   7.963   8.216 -0.8137 -0.3378  0.1539
23448SOL    HW173936   0.280   7.943   8.304 -0.1044  0.6348  0.1302
23448SOL    HW273937   0.280   7.892   8.161 -1.4369 -1.0617  0.7035
23449SOL     OW73938   9.092  10.699   8.140 -0.0726  0.5023 -0.1794
23449SOL    HW173939   9.043  10.735   8.066  1.7002  1.8753 -0.7662
23449SOL    HW273940   9.092  10.769   8.205  0.0086  0.0397  0.3191
23450SOL     OW73941   3.632   5.406   8.136 -0.2253 -0.4138  0.0875
23450SOL    HW173942   3.550   5.363   8.112 -1.2445  2.0708 -1.2272
23450SOL    HW273943   3.635   5.398   8.232 -1.3451 -1.6159  0.0613
23451SOL     OW73944   8.485   3.017  10.826 -0.2933  0.3098 -0.4955
23451SOL    HW173945   8.396   3.002  10.859 -0.7348  2.3550 -0.6406
23451SOL    HW273946   8.481   3.101  10.782  1.2240 -0.5495 -2.4468
23452SOL     OW73947   5.539   5.502   7.242  0.3292 -0.0770 -0.3414
23452SOL    HW173948   5.483   5.514   7.165  0.6049  2.7148 -0.2391
23452SOL    HW273949   5.487   5.537   7.315  1.1105 -0.0989  0.2358
23453SOL     OW73950   7.975   1.491   1.685 -0.3452 -0.4959 -0.1063
23453SOL    HW173951   8.031   1.553   1.732  0.6283 -0.3471 -1.4166
23453SOL    HW273952   7.927   1.446   1.754  0.8045 -0.0666  1.0180
23454SOL     OW73953   1.730   7.587   4.356  0.1417  0.2111  0.0621
23454SOL    HW173954   1.735   7.538   4.438 -0.5881  1.7046  1.0647
23454SOL    HW273955   1.636   7.590   4.336  0.3461 -0.4432 -1.0329
23455SOL     OW73956   3.690   1.970  10.479  0.1004 -0.1489  0.6577
23455SOL    HW173957   3.608   2.013  10.458  0.2632  0.0324  0.3923
23455SOL    HW273958   3.665   1.897  10.536 -0.3802 -0.8449 -0.4208
23456SOL     OW73959   7.062   3.596   8.396 -0.4576  1.1026 -0.5774
23456SOL    HW173960   6.988   3.562   8.446 -0.4853  1.5803 -0.2823
23456SOL    HW273961   7.133   3.534   8.413 -0.4410  1.2969  0.1355
23457SOL     OW73962   3.444   3.442   6.125 -0.4927  0.6592 -0.0063
23457SOL    HW173963   3.371   3.384   6.103 -0.0292 -1.0575  2.6452
23457SOL    HW273964   3.409   3.500   6.193 -0.2968  2.1127 -1.0917
23458SOL     OW73965   1.960   9.046   9.700  0.0398  0.1968  0.0077
23458SOL    HW173966   1.931   9.018   9.787  1.0188 -1.1759 -0.0660
23458SOL    HW273967   1.977   9.139   9.709 -1.8948  0.5234  0.7136
23459SOL     OW73968   5.521   1.967   0.360 -0.2578  0.2108  0.2243
23459SOL    HW173969   5.563   1.883   0.377  0.5514  0.0310 -2.3040
23459SOL    HW273970   5.497   1.963   0.268  0.5932  3.1055 -0.1905
23460SOL     OW73971   4.427   6.098   2.959 -0.2526  0.5386  0.8563
23460SOL    HW173972   4.381   6.178   2.986  1.6621  1.3964  1.7807
23460SOL    HW273973   4.470   6.122   2.877 -0.5555  0.0818  0.5576
23461SOL     OW73974   3.558   9.620   9.856 -0.0771  0.7622 -0.1879
23461SOL    HW173975   3.478   9.585   9.815 -0.8552  0.7475  1.2593
23461SOL    HW273976   3.575   9.701   9.810 -1.3718  1.1304 -0.0753
23462SOL     OW73977   4.729   3.391   8.859 -0.4200  0.2300 -0.1303
23462SOL    HW173978   4.711   3.481   8.833 -1.8527 -0.1034 -0.3741
23462SOL    HW273979   4.647   3.361   8.900 -0.1918 -1.1610 -0.6581
23463SOL     OW73980   9.005   6.647   3.991 -0.6370  0.0298 -0.3145
23463SOL    HW173981   9.088   6.666   4.035  0.0572 -0.5404 -1.3441
23463SOL    HW273982   8.938   6.670   4.056  0.3037  0.9009  0.3741
23464SOL     OW73983   9.020   7.451   7.137  0.1729 -0.0577  0.0774
23464SOL    HW173984   9.096   7.449   7.080  1.1802  2.1839  1.2389
23464SOL    HW273985   8.945   7.457   7.078  1.1483  1.6211 -1.0451
23465SOL     OW73986   0.879   3.017   4.982  0.2726  0.2314  1.0091
23465SOL    HW173987   0.846   3.101   4.950  0.2356  0.4409  1.5909
23465SOL    HW273988   0.876   2.960   4.906 -0.6730  0.4708  0.8607
23466SOL     OW73989   7.198   9.671  10.345 -0.1557  0.7606  0.0287
23466SOL    HW173990   7.292   9.688  10.352  0.2330 -0.1023 -2.1096
23466SOL    HW273991   7.193   9.591  10.292 -2.0676 -0.5131  1.9875
23467SOL     OW73992   4.232   1.378   1.425  0.2169  0.5291 -0.1658
23467SOL    HW173993   4.193   1.416   1.504  0.1277 -1.4845  0.8044
23467SOL    HW273994   4.160   1.332   1.382  0.8582 -0.7999  0.1266
23468SOL     OW73995   4.482   5.399   3.872  0.1152 -0.4831  0.0070
23468SOL    HW173996   4.519   5.321   3.831 -0.5451 -0.2415 -1.1020
23468SOL    HW273997   4.421   5.366   3.937 -0.8021 -0.9206 -1.0466
23469SOL     OW73998   5.498   1.900   9.319  0.2557 -0.4282  0.3255
23469SOL    HW173999   5.587   1.903   9.353  0.7884  0.0398 -1.0479
23469SOL    HW274000   5.508   1.906   9.224 -1.2261 -0.6911  0.1243
23470SOL     OW74001   8.730   9.750   0.762 -0.2413 -0.0709 -0.4114
23470SOL    HW174002   8.637   9.733   0.744 -0.1485 -1.7430  0.4537
23470SOL    HW274003   8.765   9.665   0.788  1.2014  0.8328  0.7568
23471SOL     OW74004   5.013   1.101   3.778 -0.1541 -0.5639 -0.1049
23471SOL    HW174005   4.952   1.174   3.783  1.5428  0.8952  0.0847
23471SOL    HW274006   4.997   1.062   3.692 -1.8465 -0.6974  0.2443
23472SOL     OW74007   8.760   3.840   0.937  0.0410  0.4853 -0.5888
23472SOL    HW174008   8.703   3.764   0.943  2.2108 -1.2262 -0.2050
23472SOL    HW274009   8.757   3.880   1.023  1.0063 -0.8880  0.1301
23473SOL     OW74010   3.027   5.233   2.478 -0.3696  0.4406  0.2899
23473SOL    HW174011   3.117   5.205   2.494 -0.6890 -0.5175  0.4663
23473SOL    HW274012   3.021   5.242   2.383 -0.6129 -1.4433  0.0768
23474SOL     OW74013   2.641   5.828   2.291  0.0305  0.0698 -0.0326
23474SOL    HW174014   2.600   5.780   2.363  1.8940 -0.7077  0.5824
23474SOL    HW274015   2.676   5.760   2.234 -1.2835  0.6774 -1.6423
23475SOL     OW74016   8.232   5.680   7.592  0.1922 -0.4942 -0.0120
23475SOL    HW174017   8.190   5.630   7.663  0.1568  0.8773  0.9879
23475SOL    HW274018   8.321   5.647   7.588 -0.0145 -1.0854  0.1900
23476SOL     OW74019   6.185   5.541   9.146  0.0891 -0.2328 -0.2378
23476SOL    HW174020   6.267   5.572   9.185  0.7541  0.3770 -2.0379
23476SOL    HW274021   6.117   5.575   9.204  1.0205  0.8102  0.2778
23477SOL     OW74022   0.749   7.746   8.073 -0.2382  0.1416 -0.6478
23477SOL    HW174023   0.695   7.809   8.025 -3.0204 -2.5788 -1.4438
23477SOL    HW274024   0.785   7.689   8.005  1.3305  0.1581  0.1254
23478SOL     OW74025   2.040   3.736   5.266  0.1603  0.6378  0.6693
23478SOL    HW174026   2.076   3.650   5.249 -0.3770  0.7223 -1.0033
23478SOL    HW274027   2.091   3.796   5.212 -1.3927  0.9562 -0.5331
23479SOL     OW74028   3.789   0.500   7.881 -0.1133  0.5471  0.0319
23479SOL    HW174029   3.709   0.529   7.838 -0.5749 -0.6168  0.0796
23479SOL    HW274030   3.815   0.573   7.937 -1.9418  0.4129  1.1150
23480SOL     OW74031   4.677   0.281   2.285  0.1992 -0.6207  0.5038
23480SOL    HW174032   4.768   0.291   2.257  0.4243 -1.6803  0.8053
23480SOL    HW274033   4.664   0.351   2.348  0.3483  0.4474 -0.6228
23481SOL     OW74034   7.863   4.765   4.599 -0.3879  0.2581  0.2516
23481SOL    HW174035   7.864   4.669   4.603  0.3725  0.0858 -2.0896
23481SOL    HW274036   7.892   4.785   4.510 -1.0828  2.6727  0.4986
23482SOL     OW74037   0.595   0.599  10.409  0.1302  0.1471  0.0029
23482SOL    HW174038   0.668   0.569  10.462  0.6457  0.4044 -0.5582
23482SOL    HW274039   0.524   0.612  10.472  0.6864  0.2924  0.6112
23483SOL     OW74040   1.831   0.629   8.038 -0.0397  0.0242  0.1726
23483SOL    HW174041   1.754   0.573   8.046 -0.1902  0.3999  1.7798
23483SOL    HW274042   1.830   0.683   8.117  1.6941  0.2847  0.0645
23484SOL     OW74043   2.196   0.637   2.992 -0.6513  0.3722 -0.2820
23484SOL    HW174044   2.189   0.728   3.020  0.2523  0.3890 -0.0643
23484SOL    HW274045   2.126   0.626   2.927  0.3362  1.7334 -1.6534
23485SOL     OW74046   3.511   3.900   6.512 -0.2341  0.0359  0.5152
23485SOL    HW174047   3.471   3.961   6.573  0.2198  1.3334 -0.4495
23485SOL    HW274048   3.550   3.833   6.567  0.6588  1.4740  1.6786
23486SOL     OW74049   4.994   3.481   9.611 -0.0868  0.0752  0.4457
23486SOL    HW174050   5.005   3.576   9.600  0.8976  0.0958  1.3893
23486SOL    HW274051   4.941   3.454   9.536 -0.9236  1.4675  0.5101
23487SOL     OW74052   0.028   1.306   1.699 -0.3468  0.1825 -0.5807
23487SOL    HW174053  -0.008   1.250   1.769  1.3014  0.5016  0.5737
23487SOL    HW274054   0.113   1.334   1.732  0.5432  0.2737 -2.7946
23488SOL     OW74055   3.764   6.741   8.338  0.1141  0.0442 -0.5721
23488SOL    HW174056   3.839   6.760   8.281  1.1364 -0.2649  0.6267
23488SOL    HW274057   3.763   6.813   8.402 -0.2198 -0.3009 -0.1830
23489SOL     OW74058   7.633   3.081   4.651 -0.3443 -0.0821  0.0571
23489SOL    HW174059   7.680   3.103   4.570 -1.1134 -0.0892 -0.3966
23489SOL    HW274060   7.564   3.147   4.658  0.0655  0.2642  1.0193
23490SOL     OW74061   7.765   8.007   1.283  0.3346  0.4691  0.0233
23490SOL    HW174062   7.849   7.971   1.314 -0.2654 -0.2444  0.8705
23490SOL    HW274063   7.717   7.931   1.252 -0.8850  0.5128  1.6629
23491SOL     OW74064  10.443   0.869   9.009 -0.2394 -0.0473 -0.3238
23491SOL    HW174065  10.532   0.871   8.973  0.0446 -1.0575  0.2998
23491SOL    HW274066  10.429   0.958   9.041  1.6674 -0.5267  2.1588
23492SOL     OW74067   7.827   1.654   2.320 -0.6385 -0.1577  0.4157
23492SOL    HW174068   7.903   1.689   2.366 -1.8154  0.0055  2.3544
23492SOL    HW274069   7.764   1.726   2.318 -0.4985 -0.0277 -1.9006
23493SOL     OW74070   5.112   9.999   2.366 -0.3178 -0.3666  0.0086
23493SOL    HW174071   5.096   9.946   2.288 -2.5598  0.5173 -0.2113
23493SOL    HW274072   5.127  10.087   2.332 -1.9940  0.1673  0.5405
23494SOL     OW74073   3.035   6.200   6.656  0.1105 -0.1145 -0.0794
23494SOL    HW174074   2.976   6.254   6.708 -0.6101  0.4958 -1.4872
23494SOL    HW274075   3.002   6.111   6.666  1.2375 -0.3691  2.1625
23495SOL     OW74076   0.426   9.152   5.256  0.0370  0.0073 -0.4107
23495SOL    HW174077   0.449   9.072   5.304 -0.7680  0.7721  1.3447
23495SOL    HW274078   0.502   9.209   5.268 -0.1704  0.2044  0.0072
23496SOL     OW74079   1.576   8.750   3.532 -0.5393 -0.1142 -0.1165
23496SOL    HW174080   1.533   8.827   3.496 -0.8346 -0.5945 -0.8217
23496SOL    HW274081   1.507   8.685   3.538 -0.1354 -0.5644 -0.2592
23497SOL     OW74082   5.467  10.608   3.525  0.2901 -0.3332  0.3968
23497SOL    HW174083   5.453  10.547   3.598 -2.5765  0.2824  0.4724
23497SOL    HW274084   5.465  10.552   3.447 -1.3157 -0.5286  0.5336
23498SOL     OW74085   3.226   2.476   2.751  0.4140  0.5037  0.2003
23498SOL    HW174086   3.164   2.468   2.824 -1.9849  2.6000 -1.4488
23498SOL    HW274087   3.190   2.421   2.682 -0.0226  2.2181 -0.9952
23499SOL     OW74088   3.197   7.810  10.166 -0.0150 -0.5642 -0.8717
23499SOL    HW174089   3.260   7.861  10.216 -0.8869  1.5636 -1.8470
23499SOL    HW274090   3.213   7.832  10.075 -0.4749 -2.0238 -1.3433
23500SOL     OW74091   2.727   2.894   5.278 -0.1763 -0.3858  0.3800
23500SOL    HW174092   2.645   2.847   5.261  0.4481 -1.4124  0.1202
23500SOL    HW274093   2.706   2.952   5.351 -1.2472 -0.3277  0.0540
23501SOL     OW74094   6.925   0.662   7.872 -0.7266 -0.4037  0.1534
23501SOL    HW174095   6.931   0.685   7.779  0.8498 -1.8188 -0.1323
23501SOL    HW274096   6.873   0.582   7.874  0.0850 -0.9419  0.3574
23502SOL     OW74097  10.437   4.409   6.533 -0.2717  0.4689  0.0053
23502SOL    HW174098  10.520   4.451   6.555 -0.5167 -0.1416  2.3394
23502SOL    HW274099  10.458   4.350   6.461  1.3466  0.2776  0.6044
23503SOL     OW74100  11.012  10.611   2.382  0.1573  0.0990  0.3380
23503SOL    HW174101  10.984  10.521   2.367 -0.0223  0.0728  0.8164
23503SOL    HW274102  10.999  10.655   2.298 -1.0171  0.0055  0.4641
23504SOL     OW74103   2.648  10.493   5.799  0.3916 -0.1158 -0.6045
23504SOL    HW174104   2.570  10.501   5.744  0.7832  3.0559 -0.8981
23504SOL    HW274105   2.622  10.532   5.883  0.3702 -3.2360  1.0177
23505SOL     OW74106   5.573  10.948   0.435 -0.4618  0.0902 -0.2303
23505SOL    HW174107   5.663  10.972   0.458 -1.1540  2.4394  0.2106
23505SOL    HW274108   5.582  10.885   0.363  1.5007  1.0825 -0.8951
23506SOL     OW74109   5.039   2.100   7.616 -0.0361 -0.2901 -0.5488
23506SOL    HW174110   5.028   2.019   7.667  1.5742  0.9458  2.0127
23506SOL    HW274111   5.124   2.133   7.643  0.5857  0.9177 -3.6188
23507SOL     OW74112   0.345   1.007   2.301 -0.3760 -0.2767 -0.2872
23507SOL    HW174113   0.274   0.978   2.359 -1.6903  2.0722 -0.5891
23507SOL    HW274114   0.382   1.084   2.344  1.1277 -0.6765 -0.8080
23508SOL     OW74115   8.425   7.982   3.262 -0.2577 -0.4007 -0.7820
23508SOL    HW174116   8.350   7.971   3.320  0.4717 -0.5820  0.1466
23508SOL    HW274117   8.393   8.039   3.192 -1.3376 -0.7119 -0.5577
23509SOL     OW74118   7.715   3.480   3.855  0.3917  0.1493 -0.1962
23509SOL    HW174119   7.810   3.476   3.839  0.4500  0.6703 -0.0083
23509SOL    HW274120   7.692   3.393   3.887  0.7034 -0.1643 -0.7971
23510SOL     OW74121   0.871   6.994   0.482 -0.3489 -0.2678 -0.1194
23510SOL    HW174122   0.782   6.979   0.514  0.1924 -1.3154  0.9829
23510SOL    HW274123   0.896   6.910   0.442  0.2184 -0.0566 -0.2117
23511SOL     OW74124   8.837   0.052   7.646 -0.2052 -0.3102 -0.2156
23511SOL    HW174125   8.766   0.109   7.677 -0.4518  0.4765 -2.1072
23511SOL    HW274126   8.910   0.070   7.706 -0.1200  2.3617 -0.9940
23512SOL     OW74127   2.804   8.538  10.703 -0.4264 -0.0748 -0.4295
23512SOL    HW174128   2.756   8.612  10.665  0.0508 -0.3723 -1.6637
23512SOL    HW274129   2.850   8.576  10.778 -1.3402  0.5505 -0.1698
23513SOL     OW74130   5.963   5.546   7.930 -0.5359  0.5437  0.6144
23513SOL    HW174131   6.015   5.473   7.964 -0.8096 -0.4356 -0.9804
23513SOL    HW274132   5.994   5.622   7.979  0.6436 -0.4244  1.4390
23514SOL     OW74133   6.081   6.799   9.150  0.1069 -0.4867 -0.3358
23514SOL    HW174134   6.169   6.796   9.110 -0.3182  0.9224 -1.4719
23514SOL    HW274135   6.082   6.729   9.215  1.5865 -1.4583 -1.3346
23515SOL     OW74136   0.213   2.944   7.261 -0.7523 -0.2693 -0.7408
23515SOL    HW174137   0.210   3.021   7.203  1.3523  1.2001  0.9115
23515SOL    HW274138   0.304   2.941   7.291 -1.7507 -0.7215  2.6728
23516SOL     OW74139   7.533   1.792   9.386 -0.5819  0.6253  0.1414
23516SOL    HW174140   7.583   1.711   9.381 -1.2317  0.2656 -0.6646
23516SOL    HW274141   7.595   1.860   9.360 -0.3823  0.2472 -0.3753
23517SOL     OW74142   4.193   3.330   3.002  0.6680 -0.2871 -0.5533
23517SOL    HW174143   4.165   3.374   3.082  0.7075 -0.4107 -0.4714
23517SOL    HW274144   4.208   3.239   3.028 -1.0912 -0.7775 -1.0623
23518SOL     OW74145   8.084  10.606   5.862  0.1029 -0.2156 -0.2896
23518SOL    HW174146   8.040  10.564   5.935  0.1812 -0.2554 -0.2658
23518SOL    HW274147   8.069  10.548   5.787  0.1023 -0.2211 -0.2849
23519SOL     OW74148   9.068   3.711  10.705  0.4048  0.2035  0.6194
23519SOL    HW174149   9.007   3.637  10.706 -0.6910  1.0830  0.7611
23519SOL    HW274150   9.107   3.711  10.792 -0.9426  0.8600  1.2497
23520SOL     OW74151   7.349   1.069  11.042  0.1808  0.9240 -0.0090
23520SOL    HW174152   7.296   1.091  10.965 -0.4433 -0.3419  0.0285
23520SOL    HW274153   7.348   0.974  11.044  2.0778  0.8857  0.2966
23521SOL     OW74154   5.968   6.780   9.815 -0.9447 -0.1690  0.9503
23521SOL    HW174155   5.924   6.760   9.733  0.0448  2.5618 -0.3822
23521SOL    HW274156   6.061   6.761   9.798 -1.0081 -2.1302  2.4049
23522SOL     OW74157   0.170   2.660   8.847  0.6097 -0.1245  0.5920
23522SOL    HW174158   0.166   2.652   8.751 -1.3201 -0.1170  0.6308
23522SOL    HW274159   0.262   2.645   8.868  0.8269 -1.6708 -1.1277
23523SOL     OW74160   4.818  10.269   3.195  0.2614 -0.0713  0.5446
23523SOL    HW174161   4.826  10.362   3.174 -1.1038  0.2008  1.0868
23523SOL    HW274162   4.823  10.265   3.291  1.2052 -0.6765  0.4840
23524SOL     OW74163  10.608   7.675   3.346  0.0912  0.2522  0.1738
23524SOL    HW174164  10.667   7.735   3.392 -0.5112 -0.4483  1.9589
23524SOL    HW274165  10.555   7.636   3.416 -0.4947 -1.3011 -1.0871
23525SOL     OW74166   4.098  10.595   1.227 -0.1290  0.4599  0.2968
23525SOL    HW174167   4.023  10.538   1.213  0.1523  0.3981 -1.1401
23525SOL    HW274168   4.135  10.607   1.140  2.2227 -0.4291  1.1013
23526SOL     OW74169   4.343   7.149   3.318  0.1182 -0.1821  0.4538
23526SOL    HW174170   4.270   7.121   3.264  2.0176 -0.2261 -2.3285
23526SOL    HW274171   4.349   7.244   3.304  1.4723 -0.3957 -0.6269
23527SOL     OW74172   1.926  10.152   9.400  0.3224 -0.3372 -0.4108
23527SOL    HW174173   1.937  10.212   9.325  0.3193 -0.0088 -0.1516
23527SOL    HW274174   1.999  10.174   9.458  1.6001 -2.0495 -1.2804
23528SOL     OW74175   6.269   9.077   3.189  0.3937  0.0160 -0.4358
23528SOL    HW174176   6.280   9.019   3.264  0.2656  1.5824  0.8650
23528SOL    HW274177   6.205   9.034   3.134  0.8504 -1.4110  0.1110
23529SOL     OW74178   8.429   7.097   9.954 -0.0298  0.0000  0.1869
23529SOL    HW174179   8.409   7.169   9.895 -2.2543 -1.0390 -0.4264
23529SOL    HW274180   8.367   7.028   9.930 -0.4942 -0.7580  3.1726
23530SOL     OW74181   8.316   4.581  10.768 -0.0964 -0.1560 -0.3863
23530SOL    HW174182   8.334   4.669  10.800 -2.3218  0.4873 -0.7562
23530SOL    HW274183   8.387   4.528  10.804  0.6077  1.5496  0.8753
23531SOL     OW74184   2.679   2.510   8.539 -0.3153  0.3463  0.2416
23531SOL    HW174185   2.683   2.525   8.634 -0.5380 -0.9875  0.4764
23531SOL    HW274186   2.597   2.464   8.525 -0.9194  1.6892 -0.7957
23532SOL     OW74187   8.475   7.396  10.389 -0.2293  0.7385 -0.1258
23532SOL    HW174188   8.495   7.333  10.320 -0.5337  1.0058 -0.4634
23532SOL    HW274189   8.386   7.372  10.418  1.0373 -1.4696  2.4692
23533SOL     OW74190   9.295   1.428   8.408 -0.2914 -0.4250 -0.8542
23533SOL    HW174191   9.267   1.508   8.455  1.7567  0.0515 -0.3454
23533SOL    HW274192   9.213   1.381   8.392 -1.4292  1.0890  0.1045
23534SOL     OW74193   2.745   9.587   2.143  0.2172 -0.1086 -0.3414
23534SOL    HW174194   2.682   9.572   2.214  1.2113  0.5799  0.7326
23534SOL    HW274195   2.810   9.646   2.181  2.6282 -2.3077 -0.6979
23535SOL     OW74196   5.513   4.825  10.909  0.8067  0.0287 -0.1385
23535SOL    HW174197   5.484   4.734  10.903  0.2627  0.1251  0.8439
23535SOL    HW274198   5.607   4.821  10.893  0.6574 -0.5984 -0.9187
23536SOL     OW74199   8.751   4.347   2.788 -0.1258 -0.3615  0.0651
23536SOL    HW174200   8.707   4.290   2.725 -1.5485 -0.3285  0.9899
23536SOL    HW274201   8.727   4.312   2.873  0.0373  0.8469  0.6353
23537SOL     OW74202   0.649   6.034   3.540  0.7929  0.1684  0.3003
23537SOL    HW174203   0.630   6.004   3.451  2.3580 -1.5368  0.4869
23537SOL    HW274204   0.680   5.956   3.585  0.5346  1.1236  2.2114
23538SOL     OW74205   1.134   3.904   3.887  0.8371  0.4045  0.2246
23538SOL    HW174206   1.220   3.941   3.868  0.2366  1.9832  0.4440
23538SOL    HW274207   1.120   3.840   3.817  1.8421  0.7316 -0.2935
23539SOL     OW74208   8.550   9.113   6.239 -1.0539  0.2048 -0.2359
23539SOL    HW174209   8.515   9.138   6.153 -1.7667 -0.9698 -0.3014
23539SOL    HW274210   8.496   9.039   6.267 -0.2077 -0.0478  0.8003
23540SOL     OW74211   8.009   8.382   6.222 -0.8716 -0.0704 -0.1271
23540SOL    HW174212   7.991   8.399   6.130  0.7305 -3.6246 -1.2486
23540SOL    HW274213   7.953   8.308   6.244 -0.9325  0.4677  1.6612
23541SOL     OW74214  10.536   9.282   8.862 -0.2955  0.1695  0.1511
23541SOL    HW174215  10.581   9.339   8.925 -1.9620  1.2840  0.4057
23541SOL    HW274216  10.544   9.329   8.779 -2.0342  1.0439  0.4389
23542SOL     OW74217   2.469   2.332   5.551  0.5906 -0.1383  0.2995
23542SOL    HW174218   2.508   2.250   5.521  0.8886 -0.3835  1.3390
23542SOL    HW274219   2.380   2.308   5.577  0.7347 -0.1754  0.7705
23543SOL     OW74220  10.173   6.128   1.524 -0.0385 -0.8096  0.4247
23543SOL    HW174221  10.106   6.106   1.589 -1.9251 -0.6260 -1.3771
23543SOL    HW274222  10.131   6.112   1.440  1.8987  0.1901 -0.7890
23544SOL     OW74223   8.568   9.524   4.750 -0.0432 -0.6913  0.2388
23544SOL    HW174224   8.573   9.601   4.694 -4.3621 -1.7913 -2.0824
23544SOL    HW274225   8.594   9.452   4.694  0.3324 -1.3391  1.2251
23545SOL     OW74226   5.254   6.022   4.119 -0.2079  0.2285  0.1769
23545SOL    HW174227   5.242   6.071   4.201 -1.1197  0.7134 -0.2305
23545SOL    HW274228   5.341   5.983   4.127 -0.9769 -1.2129  2.1330
23546SOL     OW74229   2.370  10.336   9.195  0.2638  0.1993 -0.4059
23546SOL    HW174230   2.308  10.282   9.146 -0.8585  1.1471 -0.0692
23546SOL    HW274231   2.399  10.402   9.132 -0.5289  0.9027 -0.0422
23547SOL     OW74232   0.256   1.869   2.841 -0.1331 -0.4286  0.3245
23547SOL    HW174233   0.301   1.951   2.820  1.2204 -1.6412 -1.9419
23547SOL    HW274234   0.204   1.849   2.763 -2.2191 -0.6714  1.6847
23548SOL     OW74235   7.295   6.818   2.313 -0.6980 -0.7002 -0.1598
23548SOL    HW174236   7.303   6.897   2.367 -1.2582  0.4605 -1.7280
23548SOL    HW274237   7.212   6.829   2.267  0.8937 -0.3998 -3.1596
23549SOL     OW74238   0.386  10.571   5.477 -0.0534  0.1631 -0.1503
23549SOL    HW174239   0.477  10.544   5.464  0.5544  1.6966  0.5196
23549SOL    HW274240   0.381  10.592   5.571 -1.7273 -1.9675  0.2941
23550SOL     OW74241   5.262   7.212   3.355 -0.4856  0.1651 -0.1250
23550SOL    HW174242   5.186   7.192   3.410 -0.8385  1.5813 -0.0607
23550SOL    HW274243   5.337   7.201   3.414 -0.7964  0.7502  0.3933
23551SOL     OW74244   7.589   3.605   0.001  0.2674 -0.7237  0.4428
23551SOL    HW174245   7.643   3.594   0.079  0.4720 -1.6686  0.1860
23551SOL    HW274246   7.570   3.515  -0.027  1.1167 -0.4084 -1.2306
23552SOL     OW74247   2.438   4.905   8.271  0.1462 -0.2220 -0.1009
23552SOL    HW174248   2.465   4.814   8.272  1.1077  0.0090 -1.4476
23552SOL    HW274249   2.514   4.954   8.304  0.2224  0.1993 -0.8741
23553SOL     OW74250   1.068   1.434   9.836 -0.3733 -0.8522  0.1891
23553SOL    HW174251   1.138   1.499   9.848 -0.9031  0.3809 -2.5303
23553SOL    HW274252   0.989   1.486   9.823 -0.8087 -1.9586 -2.1624
23554SOL     OW74253   5.782   4.762   5.308  0.0395 -0.2685  0.2301
23554SOL    HW174254   5.735   4.686   5.342 -0.2600 -0.0718  0.2607
23554SOL    HW274255   5.718   4.806   5.251 -0.6938  1.4361  2.2427
23555SOL     OW74256   4.914   7.555   5.369 -0.0285  0.2174 -0.4544
23555SOL    HW174257   4.869   7.486   5.320 -0.4797  0.8799 -0.9802
23555SOL    HW274258   4.963   7.604   5.303 -0.6601  1.1380 -0.2523
23556SOL     OW74259   6.453   6.154   0.121 -0.3149  0.1445 -0.2512
23556SOL    HW174260   6.462   6.068   0.160 -1.0970 -0.9106 -2.2386
23556SOL    HW274261   6.534   6.200   0.144  1.2054 -1.9518 -1.1011
23557SOL     OW74262   2.223   3.946   7.857 -0.1562 -0.0410 -0.1064
23557SOL    HW174263   2.299   3.888   7.867 -0.7400 -0.7977  0.0341
23557SOL    HW274264   2.148   3.891   7.881 -0.8273  0.4652 -1.0005
23558SOL     OW74265   4.821   9.564   8.353  0.1573 -0.0681 -0.0678
23558SOL    HW174266   4.762   9.597   8.285  0.8297 -0.7614 -1.0098
23558SOL    HW274267   4.812   9.627   8.425  1.0032  1.8932 -1.5949
23559SOL     OW74268   5.636   5.456   4.477 -0.2135 -0.2852  0.3367
23559SOL    HW174269   5.542   5.472   4.486 -0.2425  0.0516 -0.4687
23559SOL    HW274270   5.675   5.542   4.467  0.3139 -0.3499  1.6284
23560SOL     OW74271   5.854   5.317   1.968 -0.0337  0.0730 -0.4583
23560SOL    HW174272   5.914   5.301   2.041  3.0528 -0.5284 -2.9336
23560SOL    HW274273   5.796   5.241   1.967 -2.1309  1.3850  2.9465
23561SOL     OW74274   4.503   0.184   6.050  0.3628  0.0090  0.4493
23561SOL    HW174275   4.503   0.279   6.064  1.5642  0.2304 -0.8736
23561SOL    HW274276   4.411   0.158   6.060 -0.0333  1.3633  0.4541
23562SOL     OW74277   7.301   6.612   4.016 -0.1380  0.0116 -0.2731
23562SOL    HW174278   7.317   6.685   4.076  0.9736 -2.6217  2.9064
23562SOL    HW274279   7.388   6.589   3.984 -0.4362 -0.2151 -0.9378
23563SOL     OW74280   5.103   6.673   0.361  0.2047 -0.5729 -0.6166
23563SOL    HW174281   5.193   6.644   0.345  0.9683  2.2647 -2.2540
23563SOL    HW274282   5.095   6.755   0.312 -2.7962  0.1199  0.7676
23564SOL     OW74283   6.977   8.780   0.631  0.6852  0.0126  0.4567
23564SOL    HW174284   7.021   8.696   0.622 -1.4084 -1.0433 -0.4562
23564SOL    HW274285   6.980   8.818   0.544  0.5191  0.3029  0.5749
23565SOL     OW74286   8.386   6.043   7.435  0.1745  0.0283 -0.6832
23565SOL    HW174287   8.310   6.017   7.487  0.7136 -1.6057 -0.6620
23565SOL    HW274288   8.460   5.997   7.475  0.8489  0.0160 -1.8952
23566SOL     OW74289   5.911   6.356   1.767  0.3249  0.1057 -0.2756
23566SOL    HW174290   5.845   6.340   1.835  0.5435 -2.2692 -0.5253
23566SOL    HW274291   5.995   6.351   1.814  0.4079  1.2680 -0.2750
23567SOL     OW74292   7.281   7.841   1.901 -0.8737  0.3339 -0.2345
23567SOL    HW174293   7.268   7.781   1.827 -0.7465 -0.8394  0.6670
23567SOL    HW274294   7.195   7.847   1.942 -0.0552 -2.8618  2.3205
23568SOL     OW74295   8.515   3.076   4.561  0.0892  0.6468  0.1965
23568SOL    HW174296   8.581   3.087   4.629  0.2124 -0.6956  0.3181
23568SOL    HW274297   8.526   2.986   4.530  0.1501  1.2763 -1.7413
23569SOL     OW74298   9.108   4.980   6.233  0.1514  0.0969 -0.4076
23569SOL    HW174299   9.200   5.002   6.219 -0.2565  2.0040 -0.3749
23569SOL    HW274300   9.068   4.989   6.147 -0.4252  1.7033 -0.0117
23570SOL     OW74301   6.729   8.730   3.419  0.1905  0.8325  0.3336
23570SOL    HW174302   6.658   8.700   3.362  0.5467  0.6411 -0.0145
23570SOL    HW274303   6.697   8.714   3.508  0.9360 -2.0024  0.1807
23571SOL     OW74304   1.443   1.393   2.817  0.2599 -0.4436 -0.1456
23571SOL    HW174305   1.373   1.343   2.859 -2.0739  1.7596 -1.1832
23571SOL    HW274306   1.515   1.391   2.880 -1.0576 -1.9422  1.4105
23572SOL     OW74307   6.038   7.823   6.716  0.0879  0.0053 -0.0637
23572SOL    HW174308   6.031   7.792   6.626 -0.2466  1.0843 -0.4237
23572SOL    HW274309   6.061   7.915   6.708  0.3461  0.0422  0.9618
23573SOL     OW74310   6.262   6.065   5.997  0.3497 -0.1748  0.1563
23573SOL    HW174311   6.276   6.156   5.973  0.6434 -0.0331  0.8465
23573SOL    HW274312   6.234   6.022   5.915  0.9044  0.3787 -0.3268
23574SOL     OW74313   0.463   4.070   8.350 -0.5612 -0.0978  0.0698
23574SOL    HW174314   0.458   4.012   8.274 -0.4547 -0.9915  0.7260
23574SOL    HW274315   0.418   4.022   8.420 -0.8684  0.8086  0.5226
23575SOL     OW74316   2.336   4.153   9.605  0.3805  0.3885 -0.3640
23575SOL    HW174317   2.380   4.078   9.564 -0.7482 -0.7893  0.4770
23575SOL    HW274318   2.278   4.187   9.538 -0.8107 -0.9774 -0.0722
23576SOL     OW74319   9.273   3.326   1.663  0.1585  0.6302  0.4054
23576SOL    HW174320   9.212   3.357   1.595  1.1337  2.6540  0.3604
23576SOL    HW274321   9.338   3.275   1.615 -0.6029 -0.2188  0.2376
23577SOL     OW74322   1.700   0.290   0.861  0.1471  0.0420  0.3428
23577SOL    HW174323   1.731   0.234   0.932  0.2458 -0.3605 -0.0184
23577SOL    HW274324   1.732   0.377   0.885 -0.8742  0.1480  1.4313
23578SOL     OW74325   6.395   5.335   4.305  0.0520 -0.4027  0.1912
23578SOL    HW174326   6.367   5.292   4.386  0.4058  0.3458  0.7184
23578SOL    HW274327   6.331   5.306   4.240 -1.5810  0.7136  1.2235
23579SOL     OW74328   2.946   9.109   1.611  0.7306 -0.5140 -0.3473
23579SOL    HW174329   2.925   9.165   1.685  2.7257 -1.1730  0.8047
23579SOL    HW274330   2.866   9.106   1.559 -0.2666  1.1450  1.0028
23580SOL     OW74331   0.172   6.508   1.319 -0.3336  0.6450 -0.0624
23580SOL    HW174332   0.203   6.543   1.403 -2.3110 -0.0407  1.0294
23580SOL    HW274333   0.092   6.461   1.341  0.6842 -2.1956 -1.8787
23581SOL     OW74334   9.191   8.322   1.031 -0.0700  0.2191  0.7797
23581SOL    HW174335   9.192   8.226   1.037  0.0789  0.1252 -0.5105
23581SOL    HW274336   9.275   8.349   1.069  1.1566 -0.3659 -1.3323
23582SOL     OW74337  10.165   9.940   8.512 -0.0756  0.6111 -0.7507
23582SOL    HW174338  10.136  10.030   8.525  0.2538  1.0019 -2.4686
23582SOL    HW274339  10.258   9.948   8.488  0.6264 -0.3760  1.3904
23583SOL     OW74340   5.832   9.232   7.035 -0.4492  0.2348 -0.1677
23583SOL    HW174341   5.886   9.179   7.094 -0.6124  1.2408  0.9360
23583SOL    HW274342   5.890   9.303   7.008 -0.5608  0.1065 -0.7453
23584SOL     OW74343  10.563   6.308   2.629 -0.0973  0.6676 -0.7530
23584SOL    HW174344  10.513   6.295   2.710  0.0246  2.6590 -0.3050
23584SOL    HW274345  10.652   6.281   2.652 -0.9580 -3.8864 -1.8465
23585SOL     OW74346   8.860   9.553   3.608  0.0195  0.0862 -0.1653
23585SOL    HW174347   8.948   9.522   3.586  0.1794  0.2941  0.1773
23585SOL    HW274348   8.807   9.533   3.530  0.0369 -1.3824  0.1715
23586SOL     OW74349   5.203   1.466  10.445 -0.6488  0.2364  0.6342
23586SOL    HW174350   5.264   1.538  10.460 -2.5134  1.7146  1.6533
23586SOL    HW274351   5.200   1.418  10.528 -0.3943 -0.2162  0.3833
23587SOL     OW74352   2.818   1.686   6.456 -0.5293 -0.1871 -0.0477
23587SOL    HW174353   2.746   1.648   6.506 -0.8622  1.0339  0.4537
23587SOL    HW274354   2.875   1.612   6.435 -1.8806 -1.1665 -0.3919
23588SOL     OW74355   6.002   6.361   6.299  0.3997 -0.3405 -1.2654
23588SOL    HW174356   6.006   6.276   6.343 -0.5773 -1.1502 -2.6460
23588SOL    HW274357   6.094   6.383   6.280  0.8649  0.0657  1.0960
23589SOL     OW74358   0.927   9.491   4.630  0.0152  0.9079  0.2877
23589SOL    HW174359   0.917   9.427   4.559 -1.0842  1.1963  0.1491
23589SOL    HW274360   0.989   9.452   4.690 -0.4217 -0.1688  0.0617
23590SOL     OW74361   5.581   3.511   5.594 -0.4021  0.6452 -0.0115
23590SOL    HW174362   5.610   3.465   5.673  1.4912  1.2997 -0.2588
23590SOL    HW274363   5.660   3.555   5.562 -1.4281  1.4688 -1.5438
23591SOL     OW74364   9.147   2.775   7.740  1.0370 -0.0553 -0.7002
23591SOL    HW174365   9.237   2.746   7.723  1.8863  1.5583  0.8051
23591SOL    HW274366   9.135   2.763   7.834 -0.0846  0.4338 -0.7641
23592SOL     OW74367   4.486   5.669  10.091  0.2875 -0.2564  0.1603
23592SOL    HW174368   4.446   5.696  10.009  1.2119 -0.2622 -0.3099
23592SOL    HW274369   4.471   5.742  10.150  1.7135  0.8296 -0.7453
23593SOL     OW74370   6.670   1.178   4.676  0.2696 -0.5637  0.5365
23593SOL    HW174371   6.729   1.103   4.667  0.1416 -0.7336  1.0809
23593SOL    HW274372   6.698   1.220   4.757 -0.9242 -1.1560  1.2794
23594SOL     OW74373   0.414   0.424   8.171  0.0988  1.2129  0.0582
23594SOL    HW174374   0.382   0.383   8.090  2.1946  2.1559 -1.3287
23594SOL    HW274375   0.505   0.447   8.152  0.9218  0.7416  3.0043
23595SOL     OW74376   9.639   8.088   4.448  0.2115 -0.0650  0.2483
23595SOL    HW174377   9.558   8.048   4.418  0.4090 -1.1140  1.0620
23595SOL    HW274378   9.613   8.141   4.523  0.0964  0.6035 -0.2554
23596SOL     OW74379   0.893  10.968   4.196  0.1304  0.0017  0.5092
23596SOL    HW174380   0.938  10.920   4.127 -1.1658 -1.8753  0.8831
23596SOL    HW274381   0.954  10.970   4.269  0.2817 -0.9620  0.4195
23597SOL     OW74382   2.375   6.543   9.948 -0.7175  0.6584  0.1857
23597SOL    HW174383   2.328   6.574   9.870  0.3340  1.1797 -0.2734
23597SOL    HW274384   2.458   6.591   9.946  0.1511 -0.7567  0.5512
23598SOL     OW74385   0.201   5.759   0.513  0.0206  0.9254  0.3253
23598SOL    HW174386   0.135   5.809   0.562  0.3222  0.9512  0.7095
23598SOL    HW274387   0.164   5.750   0.426 -1.0725 -0.1373  0.8614
23599SOL     OW74388   5.910   4.356  10.518  0.1913 -0.0073  0.0570
23599SOL    HW174389   5.873   4.321  10.437  0.4468 -2.1072  0.7965
23599SOL    HW274390   5.835   4.394  10.564 -0.1763  0.0365 -0.5685
23600SOL     OW74391   8.436   0.532   7.660  0.0693  0.0177 -1.1812
23600SOL    HW174392   8.493   0.599   7.696 -0.3984  0.3205 -0.9911
23600SOL    HW274393   8.350   0.552   7.696  0.0082 -0.9637 -0.7353
23601SOL     OW74394  10.330   0.976   8.702  0.2889 -0.6248 -0.2306
23601SOL    HW174395  10.378   1.024   8.770 -0.7277 -0.1826  0.1993
23601SOL    HW274396  10.277   0.913   8.750 -1.0760  0.2602 -0.5264
23602SOL     OW74397   8.664   7.556   4.929  0.5827  0.3768 -0.5768
23602SOL    HW174398   8.628   7.645   4.928  0.2017  0.2358 -0.1797
23602SOL    HW274399   8.680   7.535   4.837 -1.3230  0.0703 -0.8786
23603SOL     OW74400   0.996   4.157   9.717 -0.1352 -0.0446 -0.3859
23603SOL    HW174401   0.972   4.249   9.725 -0.1571  0.0386 -1.2636
23603SOL    HW274402   0.973   4.135   9.626 -0.0140 -0.8761 -0.2186
23604SOL     OW74403   3.533   0.694   9.939  0.3618  0.4729  0.6854
23604SOL    HW174404   3.468   0.758   9.909 -1.2815 -1.2713  0.2848
23604SOL    HW274405   3.541   0.710  10.033  2.0452  2.9781  0.1951
23605SOL     OW74406  10.129   9.121   9.496  0.2298  0.2762 -0.6851
23605SOL    HW174407  10.093   9.153   9.413  0.0393  0.0108 -0.7063
23605SOL    HW274408  10.057   9.072   9.536  0.9293 -1.2912 -1.2807
23606SOL     OW74409   9.206   5.267   2.934 -0.4056 -0.1114 -0.3466
23606SOL    HW174410   9.166   5.204   2.993 -2.2520  0.3168 -1.0780
23606SOL    HW274411   9.155   5.260   2.853  1.2305  0.2293 -1.4606
23607SOL     OW74412   9.400   1.031  10.457  0.4988  0.8549 -0.8016
23607SOL    HW174413   9.435   0.950  10.420  1.0128  1.3040 -1.2957
23607SOL    HW274414   9.305   1.021  10.451  0.5739  0.7314 -1.8282
23608SOL     OW74415   4.675   8.632   1.012  0.1565  0.0927 -0.1144
23608SOL    HW174416   4.652   8.541   1.027  0.4137 -0.1847 -1.2622
23608SOL    HW274417   4.761   8.643   1.054 -0.0036 -0.1127  0.2665
23609SOL     OW74418   4.839   0.945   5.943  0.5842 -0.2898  0.7021
23609SOL    HW174419   4.793   0.928   6.026 -0.0981 -0.3765  0.3202
23609SOL    HW274420   4.801   1.027   5.912  0.5067 -0.4960  0.2511
23610SOL     OW74421  10.638   4.941   5.797 -0.4541 -0.3087  0.9470
23610SOL    HW174422  10.559   4.974   5.841 -0.3621  1.1795  0.0626
23610SOL    HW274423  10.646   4.995   5.719  0.6432 -1.4197  0.2582
23611SOL     OW74424   8.331  10.114   5.133 -0.1166 -0.2396 -0.0788
23611SOL    HW174425   8.372  10.196   5.108 -1.9812  0.8510  0.1903
23611SOL    HW274426   8.292  10.081   5.052  0.6372 -0.8622 -0.1873
23612SOL     OW74427   8.721   7.019   7.247  0.7553  0.3770 -0.3149
23612SOL    HW174428   8.673   6.956   7.193 -0.2214 -0.3644  1.3441
23612SOL    HW274429   8.799   6.971   7.276  0.7228  0.4083 -0.1772
23613SOL     OW74430   7.113   7.321   9.113  0.2082 -0.2773  0.4797
23613SOL    HW174431   7.131   7.356   9.201 -0.7886  3.0129 -0.4715
23613SOL    HW274432   7.053   7.384   9.075  0.7704 -1.4908 -2.6793
23614SOL     OW74433   9.121   0.373  10.764  0.3229  0.0257  0.1138
23614SOL    HW174434   9.176   0.438  10.807 -0.6607  0.0859  1.3054
23614SOL    HW274435   9.035   0.383  10.804  0.2282 -2.2488  0.5976
23615SOL     OW74436   5.194   8.142   4.951 -0.0419 -0.0603 -0.5252
23615SOL    HW174437   5.218   8.056   4.987  0.1282  0.8212  1.6322
23615SOL    HW274438   5.276   8.177   4.916  0.5227  0.3368  1.1202
23616SOL     OW74439   1.956   0.635   0.321  0.3014 -0.1006 -0.0971
23616SOL    HW174440   1.961   0.590   0.237  2.0402 -1.5423  0.7104
23616SOL    HW274441   1.986   0.724   0.303 -0.4239 -0.0603 -1.1907
23617SOL     OW74442   0.262   6.665  10.080  0.3158  0.2362  0.2304
23617SOL    HW174443   0.289   6.694  10.167  1.5162 -0.8896  0.2439
23617SOL    HW274444   0.189   6.606  10.096 -0.7407  1.5065  0.3235
23618SOL     OW74445   5.548   8.994   4.389  0.0195  0.0397 -0.3777
23618SOL    HW174446   5.508   8.974   4.304 -1.9585  0.0821  0.4700
23618SOL    HW274447   5.529   8.917   4.443  0.1136  0.5345  0.3808
23619SOL     OW74448   4.201  11.045   3.138  0.4397  0.1847 -0.2062
23619SOL    HW174449   4.164  11.038   3.225 -0.9870  0.3509 -0.7748
23619SOL    HW274450   4.288  11.083   3.152 -0.5475  2.1799  0.9961
23620SOL     OW74451   5.233   3.946   3.768  0.0886 -0.2152  0.1199
23620SOL    HW174452   5.285   4.012   3.814  0.4081  0.0322 -0.5806
23620SOL    HW274453   5.268   3.862   3.796 -1.4024 -0.1962  2.3363
23621SOL     OW74454   9.431   4.567  10.870 -0.8950  0.0419 -0.1664
23621SOL    HW174455   9.402   4.590  10.959 -1.8304 -1.5415 -0.0197
23621SOL    HW274456   9.520   4.603  10.864 -1.1054  0.8577  1.1251
23622SOL     OW74457   0.886   7.506   2.130  0.7567 -0.3910  0.7220
23622SOL    HW174458   0.832   7.585   2.139  1.2073 -0.1943  1.9175
23622SOL    HW274459   0.833   7.437   2.171  1.4155 -0.1829  1.9628
23623SOL     OW74460   8.400  10.352  10.662  0.9676  0.4933 -0.4979
23623SOL    HW174461   8.351  10.352  10.580  2.5404 -0.6936 -1.5115
23623SOL    HW274462   8.483  10.395  10.641  1.0370  1.0089  0.7307
23624SOL     OW74463   9.041   4.758   5.892 -0.4794 -0.3491 -0.5596
23624SOL    HW174464   9.022   4.851   5.906 -1.4170 -0.8127  1.7000
23624SOL    HW274465   8.971   4.728   5.833 -0.2067  0.3553 -1.2492
23625SOL     OW74466   7.699   4.838   3.446 -0.3317 -0.0445 -0.6230
23625SOL    HW174467   7.734   4.809   3.531 -1.9673  1.2330  0.5463
23625SOL    HW274468   7.667   4.758   3.405  0.2718 -0.6438  0.0421
23626SOL     OW74469   4.565   0.860   5.070  0.4604 -0.2011 -0.3331
23626SOL    HW174470   4.638   0.799   5.075  1.4795  1.0684  2.2707
23626SOL    HW274471   4.546   0.884   5.161 -0.1346  2.9926 -1.1427
23627SOL     OW74472   0.730  10.004   0.651  0.0141 -0.3598 -0.2646
23627SOL    HW174473   0.820   9.972   0.652  0.3407  0.5404 -0.9677
23627SOL    HW274474   0.728  10.072   0.718  0.2810  0.7502 -1.3620
23628SOL     OW74475   3.556   0.246   2.447  0.0422  0.2509 -0.2336
23628SOL    HW174476   3.610   0.186   2.499 -0.7982 -0.3091  0.0206
23628SOL    HW274477   3.585   0.333   2.473  0.6316 -0.0421  0.1065
23629SOL     OW74478  11.027  10.449   8.215  0.1298  0.5119 -0.2788
23629SOL    HW174479  11.118  10.475   8.231 -0.7683  2.6630  1.9579
23629SOL    HW274480  10.994  10.515   8.153 -0.0947  0.1255 -0.5725
23630SOL     OW74481   7.778   9.204   8.995 -0.2333 -0.2815  0.1461
23630SOL    HW174482   7.711   9.267   9.022 -0.2476 -0.9667  1.8172
23630SOL    HW274483   7.740   9.119   9.013 -0.0214 -0.7928 -1.6356
23631SOL     OW74484   2.747   6.677   7.976 -0.1561 -0.0222 -0.1585
23631SOL    HW174485   2.812   6.625   8.023 -0.1063  0.5395  0.4012
23631SOL    HW274486   2.674   6.686   8.037 -1.0303 -1.1482 -0.9933
23632SOL     OW74487   0.251   1.932   7.037  0.0007  0.2534 -0.2316
23632SOL    HW174488   0.165   1.971   7.017 -0.4603  1.4987  3.4318
23632SOL    HW274489   0.244   1.842   7.004 -2.0849  0.7768 -1.4513
23633SOL     OW74490   0.127   9.025   8.388  0.4672  0.7417  0.1681
23633SOL    HW174491   0.072   8.992   8.459 -0.8909  1.8967 -0.3181
23633SOL    HW274492   0.082   8.998   8.308  2.2247 -0.9544 -0.3203
23634SOL     OW74493   6.495   1.553   0.324 -0.3585  0.1814  0.0658
23634SOL    HW174494   6.568   1.492   0.314  0.3053  0.8936  0.4750
23634SOL    HW274495   6.479   1.587   0.236 -0.9467 -0.7968 -0.2289
23635SOL     OW74496   1.367   9.501   5.513 -0.3441  0.4845 -0.5207
23635SOL    HW174497   1.414   9.447   5.576 -2.1206 -0.3058  0.2007
23635SOL    HW274498   1.368   9.589   5.551 -0.2750  0.2841 -0.0595
23636SOL     OW74499   4.699   8.360   3.309 -0.1943 -0.1828 -0.0408
23636SOL    HW174500   4.778   8.402   3.345  0.0236  2.3705 -3.0565
23636SOL    HW274501   4.731   8.278   3.272  0.8783  0.3656 -0.3727
23637SOL     OW74502   2.093   9.945   9.284  0.3582 -0.2662 -0.7817
23637SOL    HW174503   2.033   9.882   9.244 -0.2722  0.0689 -0.3720
23637SOL    HW274504   2.036  10.010   9.325  1.0022 -0.0958 -0.1413
23638SOL     OW74505   3.877   4.605   2.647  1.0270  0.3517 -0.3715
23638SOL    HW174506   3.948   4.588   2.585  1.3320 -0.7725  0.2666
23638SOL    HW274507   3.855   4.698   2.633 -0.0707 -0.2502 -3.3135
23639SOL     OW74508   6.462   6.140   6.530 -0.4394 -0.0280  0.4295
23639SOL    HW174509   6.502   6.225   6.513  0.4941 -0.3146  1.1165
23639SOL    HW274510   6.380   6.142   6.481 -1.7354  2.2730  2.4614
23640SOL     OW74511   6.192   7.872   1.049 -0.4053 -0.1631  0.0958
23640SOL    HW174512   6.244   7.844   0.974 -0.4904 -0.7553  0.2468
23640SOL    HW274513   6.107   7.897   1.011 -0.5681 -0.8003  0.0260
23641SOL     OW74514   2.251   5.770   5.523  0.3994 -0.4645 -0.1800
23641SOL    HW174515   2.169   5.737   5.485  0.2443 -0.5833  0.2629
23641SOL    HW274516   2.235   5.864   5.535  0.5277 -0.3822 -0.6049
23642SOL     OW74517   8.023   8.464   8.638  0.6897 -0.2000 -0.2959
23642SOL    HW174518   8.089   8.526   8.670  0.8889 -0.3951 -0.3269
23642SOL    HW274519   7.992   8.502   8.556 -0.1086  0.5126  0.3021
23643SOL     OW74520  10.458   5.544   9.325  0.0846  0.0185 -0.1346
23643SOL    HW174521  10.429   5.460   9.360 -0.6492 -0.8819 -2.6753
23643SOL    HW274522  10.486   5.594   9.402  1.0435 -2.7032  1.4069
23644SOL     OW74523   7.197   9.338   9.880 -0.2685  0.0863 -0.1785
23644SOL    HW174524   7.213   9.253   9.920 -1.6197  0.8247  2.1147
23644SOL    HW274525   7.120   9.372   9.926 -0.2279  2.2430 -1.5526
23645SOL     OW74526   3.853   1.087   5.569 -0.4206  0.3015  0.6652
23645SOL    HW174527   3.916   1.154   5.593  1.3122 -1.4003  1.1117
23645SOL    HW274528   3.820   1.114   5.483  1.7685  0.7108 -0.0997
23646SOL     OW74529   0.505   8.365   6.439 -0.1481 -0.4122  0.4825
23646SOL    HW174530   0.487   8.310   6.363 -0.0271  3.3938 -2.6194
23646SOL    HW274531   0.428   8.356   6.495 -0.3146 -3.2084 -0.0890
23647SOL     OW74532   8.580   0.167   6.380 -0.4317  0.4071  0.0629
23647SOL    HW174533   8.646   0.236   6.372  2.0515 -1.7797  0.2288
23647SOL    HW274534   8.630   0.085   6.373 -3.1722 -1.4007  0.1482
23648SOL     OW74535   8.798   7.612   0.405  0.1397  0.3270 -0.5604
23648SOL    HW174536   8.780   7.559   0.328  0.8364 -2.0741  0.8354
23648SOL    HW274537   8.735   7.684   0.400 -1.6498 -1.2497 -1.9289
23649SOL     OW74538   2.300   8.082   5.560  0.0234 -0.7124 -0.3167
23649SOL    HW174539   2.344   8.153   5.606 -1.2737 -1.3390  2.0320
23649SOL    HW274540   2.215   8.118   5.535 -0.3072 -1.1676  0.1307
23650SOL     OW74541   5.148   6.381   9.507  0.7005 -0.2512  0.4421
23650SOL    HW174542   5.191   6.465   9.522  0.6547 -0.1727  0.1304
23650SOL    HW274543   5.096   6.394   9.429  2.0840 -1.0995 -0.6716
23651SOL     OW74544   5.077   8.382   8.723 -0.2055 -0.7347  0.5072
23651SOL    HW174545   5.146   8.443   8.748 -0.6878 -0.7107  1.8289
23651SOL    HW274546   5.123   8.309   8.682  0.5168 -0.2597  0.4578
23652SOL     OW74547  10.446   9.288  10.490 -0.1145 -0.0348  1.0814
23652SOL    HW174548  10.359   9.323  10.512  0.4235  0.6997  2.1436
23652SOL    HW274549  10.462   9.221  10.557 -1.5437 -3.2241 -1.4851
23653SOL     OW74550   7.729   0.622   0.376 -0.0517  0.2777  1.1723
23653SOL    HW174551   7.776   0.553   0.329 -1.4947 -0.6430  1.0360
23653SOL    HW274552   7.647   0.581   0.405 -0.9027  1.8918  1.1863
23654SOL     OW74553   3.013   7.042   2.400  0.0228  0.2252 -0.8143
23654SOL    HW174554   3.096   7.002   2.377 -0.2512 -0.1412 -1.1687
23654SOL    HW274555   3.017   7.130   2.361  0.2163  0.1838 -0.8867
23655SOL     OW74556   6.519   5.979   1.644  0.7319  0.0406  0.2610
23655SOL    HW174557   6.550   6.027   1.721  2.0416 -0.5275  0.1094
23655SOL    HW274558   6.592   5.922   1.620 -0.0154 -0.4926 -0.8323
23656SOL     OW74559   9.528   7.191   8.428 -0.9279  0.5284  0.5448
23656SOL    HW174560   9.465   7.164   8.496 -2.8193  0.7973 -1.0084
23656SOL    HW274561   9.538   7.113   8.373  0.4215  0.3809  0.9678
23657SOL     OW74562  10.069   5.549   9.121 -0.4546 -0.1350  0.3348
23657SOL    HW174563  10.055   5.543   9.215 -1.9896  0.2184  0.1458
23657SOL    HW274564  10.154   5.594   9.113  0.0644 -0.8525  1.5221
23658SOL     OW74565   3.682   0.087   6.241  0.5330  0.3154 -0.3290
23658SOL    HW174566   3.729   0.043   6.311  1.3223 -0.7368 -1.4682
23658SOL    HW274567   3.675   0.178   6.269  1.3292  0.0338  0.8387
23659SOL     OW74568   4.224   3.114   7.194 -0.3606 -0.1636  0.1459
23659SOL    HW174569   4.212   3.019   7.197  0.9643 -0.5553 -3.0334
23659SOL    HW274570   4.272   3.135   7.274  0.5290 -2.3905  0.2667
23660SOL     OW74571   0.926  10.772   7.703 -0.3804  0.3691  0.3476
23660SOL    HW174572   0.902  10.855   7.744 -1.4137  1.0978 -1.6208
23660SOL    HW274573   0.845  10.740   7.662 -0.0138 -1.6396  1.0525
23661SOL     OW74574   4.101   9.045   9.435 -0.0550  0.1838 -0.1833
23661SOL    HW174575   4.094   9.100   9.513 -0.0402  0.9111 -0.6849
23661SOL    HW274576   4.130   8.960   9.468 -0.2101  0.4353  0.6193
23662SOL     OW74577   5.346   8.157   5.197 -0.0187 -0.3562  0.0486
23662SOL    HW174578   5.386   8.241   5.173 -0.5078 -0.3514 -0.8104
23662SOL    HW274579   5.410   8.116   5.256 -0.0150  0.8384  0.9175
23663SOL     OW74580   8.911  10.987   8.646 -0.0375 -0.1941 -0.0459
23663SOL    HW174581   8.876  11.064   8.689  0.5683  0.5289 -0.8097
23663SOL    HW274582   8.867  10.984   8.561  3.0520  1.9327 -1.9338
23664SOL     OW74583   7.736   2.198  10.012 -0.6125  0.0311 -0.2174
23664SOL    HW174584   7.738   2.103  10.011  1.2708  0.0468 -1.1950
23664SOL    HW274585   7.745   2.223   9.920 -1.4622  1.1640 -0.0125
23665SOL     OW74586   3.626   1.129   9.611  0.4498  0.3262  0.5760
23665SOL    HW174587   3.667   1.135   9.525 -1.0273  0.1766 -0.1624
23665SOL    HW274588   3.662   1.204   9.659  0.5137  1.0220 -0.5079
23666SOL     OW74589  11.104   0.342  10.715  0.5397 -0.4390 -0.1424
23666SOL    HW174590  11.069   0.264  10.672 -0.4520  0.4639 -1.0541
23666SOL    HW274591  11.145   0.392  10.645  1.6852 -0.3948  0.5313
23667SOL     OW74592   4.748   9.906   4.278 -0.0315  0.6361 -0.3267
23667SOL    HW174593   4.836   9.898   4.314 -0.2057  1.6459  0.3706
23667SOL    HW274594   4.715   9.816   4.273  0.8136  0.3032 -0.0413
23668SOL     OW74595  10.167   8.195   9.431  0.1432 -0.5128 -0.3865
23668SOL    HW174596  10.108   8.270   9.438 -1.7169 -1.9329 -0.1152
23668SOL    HW274597  10.255   8.233   9.439 -0.7192  1.6332 -0.4196
23669SOL     OW74598   2.276   1.892   0.444  0.2678  0.4537  0.0831
23669SOL    HW174599   2.281   1.911   0.538  2.2160  1.6809 -0.2269
23669SOL    HW274600   2.339   1.951   0.403  0.6149 -1.1368 -1.8538
23670SOL     OW74601   2.327   6.821   0.248  0.3449 -0.8570 -0.7227
23670SOL    HW174602   2.378   6.810   0.328  0.3503  2.1030 -0.1825
23670SOL    HW274603   2.256   6.880   0.273  1.1744  1.4005 -3.1162
23671SOL     OW74604   5.446   1.022   0.102 -0.2552  0.5189 -0.4017
23671SOL    HW174605   5.503   1.048   0.175 -0.5036 -1.1972  0.4493
23671SOL    HW274606   5.506   1.014   0.028  1.6686 -5.0262  1.2332
23672SOL     OW74607   4.220   3.901   4.516 -0.7414  0.0923 -0.0903
23672SOL    HW174608   4.138   3.893   4.467 -1.1226 -1.5103  0.7551
23672SOL    HW274609   4.285   3.855   4.463 -0.9618 -0.8703  0.4574
23673SOL     OW74610   5.217   0.986   7.654  0.4106  0.1198  0.0097
23673SOL    HW174611   5.121   0.986   7.646  0.3956  0.2564  0.1904
23673SOL    HW274612   5.238   1.073   7.688  0.6128  0.1488 -0.1898
23674SOL     OW74613   5.678   5.111   6.460  0.5945  0.6082 -0.0137
23674SOL    HW174614   5.599   5.059   6.449  1.6002 -0.9264 -0.3242
23674SOL    HW274615   5.660   5.167   6.536 -0.7814  0.3210 -0.1045
23675SOL     OW74616   1.336   4.362   7.241  0.3778 -0.4076 -0.4309
23675SOL    HW174617   1.422   4.397   7.218  0.1926 -0.1659 -0.7762
23675SOL    HW274618   1.290   4.356   7.157 -0.5081  1.0157 -0.0812
23676SOL     OW74619   8.241   7.271   7.962  0.3229 -0.7781 -0.1434
23676SOL    HW174620   8.289   7.218   8.026  0.2556  1.1657  1.6164
23676SOL    HW274621   8.149   7.263   7.988  0.3964  0.9334  0.7970
23677SOL     OW74622   7.679   7.363   2.845  0.2838  0.3193  0.4570
23677SOL    HW174623   7.707   7.272   2.851  0.6357  0.5217  2.6211
23677SOL    HW274624   7.761   7.412   2.840  0.2726  0.6724  2.7305
23678SOL     OW74625   8.316   7.535   0.177  0.0386 -0.7917  0.3037
23678SOL    HW174626   8.377   7.604   0.151  3.0509 -4.0619 -2.2256
23678SOL    HW274627   8.326   7.528   0.272  1.2386  0.7791  0.3281
23679SOL     OW74628   6.356   5.145  10.493  0.1972 -0.3157  0.2936
23679SOL    HW174629   6.364   5.201  10.570  0.5419 -1.6197  1.2360
23679SOL    HW274630   6.426   5.174  10.434 -0.9303  1.6208 -0.1840
23680SOL     OW74631   3.173   0.314   6.227  0.0335  0.1514 -0.4677
23680SOL    HW174632   3.224   0.374   6.172  0.1958  1.2346  0.7952
23680SOL    HW274633   3.141   0.369   6.299  0.5409 -1.3556  0.9827
23681SOL     OW74634   2.119   7.077   7.234  0.0979 -0.4750 -0.0426
23681SOL    HW174635   2.173   7.156   7.229  1.5573 -1.2584  2.1651
23681SOL    HW274636   2.150   7.023   7.161  0.8957 -0.0818 -0.0074
23682SOL     OW74637   3.707   5.071   6.958 -0.1644 -0.5785  0.2411
23682SOL    HW174638   3.739   5.066   6.868  0.2628 -0.6185  0.3946
23682SOL    HW274639   3.612   5.081   6.949  0.0346  1.1531 -0.2388
23683SOL     OW74640  10.976   5.464   9.156 -0.1876  0.5576 -0.0724
23683SOL    HW174641  10.998   5.498   9.243  0.7112 -0.1614 -0.0046
23683SOL    HW274642  11.021   5.523   9.096 -0.4988  0.8297 -0.0419
23684SOL     OW74643   8.033   9.481  10.368 -0.0616  0.2296 -0.8138
23684SOL    HW174644   8.108   9.423  10.357  0.0226 -0.2677  1.6726
23684SOL    HW274645   8.066   9.568  10.349  1.3070  0.0645  0.6167
23685SOL     OW74646   9.617   0.590  10.814  0.3669  0.2001 -0.0629
23685SOL    HW174647   9.546   0.571  10.875  0.5293  0.2819  0.1539
23685SOL    HW274648   9.574   0.630  10.738  0.2063  0.4576  0.1616
23686SOL     OW74649   7.712   6.715   4.951  0.0494 -0.5827  0.2895
23686SOL    HW174650   7.774   6.698   5.021  2.1136 -2.2646 -1.7633
23686SOL    HW274651   7.723   6.807   4.929  1.9395 -0.8545 -0.0571
23687SOL     OW74652   5.466   5.308   2.814  0.0596 -0.2680  0.6680
23687SOL    HW174653   5.510   5.237   2.766 -0.7137 -0.1557 -0.2274
23687SOL    HW274654   5.383   5.320   2.768  0.5423  1.8122  0.2616
23688SOL     OW74655   5.865   6.753   9.576 -0.1771  0.2731  0.2257
23688SOL    HW174656   5.805   6.801   9.519  0.2658 -0.6372 -1.0605
23688SOL    HW274657   5.845   6.660   9.560  1.2690 -0.0459  0.0676
23689SOL     OW74658  10.391   8.544  10.038 -0.3401 -0.1560 -0.0464
23689SOL    HW174659  10.461   8.607  10.052 -0.2543 -0.0566 -0.8812
23689SOL    HW274660  10.348   8.572   9.958 -0.3397 -1.1182 -0.4006
23690SOL     OW74661  10.205   9.128   5.390 -0.1885 -0.0056  0.2773
23690SOL    HW174662  10.235   9.124   5.481  2.0178  2.1059 -0.2513
23690SOL    HW274663  10.284   9.147   5.339 -1.5997  0.3637 -1.9247
23691SOL     OW74664   0.695   9.673   7.532 -0.1397  1.2201  0.4718
23691SOL    HW174665   0.670   9.764   7.544 -0.0050  1.5448 -1.4525
23691SOL    HW274666   0.643   9.643   7.457 -2.3497 -1.1827  2.7174
23692SOL     OW74667   7.588   0.354   6.595  0.0479 -0.7112 -0.1277
23692SOL    HW174668   7.547   0.318   6.674 -0.2999 -1.7014 -0.7377
23692SOL    HW274669   7.642   0.426   6.626 -1.5807  0.1605  0.8088
23693SOL     OW74670   3.909   9.226  10.096 -0.2643 -0.4430  0.3273
23693SOL    HW174671   3.990   9.198  10.139  1.0553  1.5660 -0.6650
23693SOL    HW274672   3.880   9.302  10.147 -2.3109 -1.8860  1.4434
23694SOL     OW74673  11.005   2.170   7.826 -0.9712  0.2269  0.2688
23694SOL    HW174674  11.037   2.173   7.917  2.8949  2.9070 -0.9072
23694SOL    HW274675  11.054   2.098   7.787 -3.4686 -1.6751  0.4083
23695SOL     OW74676   8.331   3.667   5.651 -0.5197  0.3650 -0.6275
23695SOL    HW174677   8.421   3.698   5.657  0.2792 -1.9601  0.9792
23695SOL    HW274678   8.321   3.607   5.726 -2.6507 -1.2680 -2.0788
23696SOL     OW74679   0.307   2.933   0.354 -0.0189  0.3533 -0.2250
23696SOL    HW174680   0.358   2.914   0.275  0.5841  0.7374  0.0656
23696SOL    HW274681   0.334   3.021   0.379 -0.1594  0.2074  0.4440
23697SOL     OW74682  10.995   5.944   3.933  0.4105  0.4633 -0.2468
23697SOL    HW174683  10.999   6.027   3.981  0.2828  0.5364 -0.3620
23697SOL    HW274684  10.968   5.969   3.845 -1.3724  0.1178  0.1653
23698SOL     OW74685   6.533   9.877   3.778 -0.2439  0.0457 -0.0501
23698SOL    HW174686   6.607   9.897   3.721  1.3966  0.2600  2.0204
23698SOL    HW274687   6.490   9.802   3.737  1.3552 -0.3391 -1.1132
23699SOL     OW74688   8.277   9.767   9.344  0.1268 -0.0599  0.3883
23699SOL    HW174689   8.244   9.707   9.411  3.0760  1.2270  3.2914
23699SOL    HW274690   8.348   9.718   9.302 -0.9326 -0.4234 -1.0384
23700SOL     OW74691  10.153   3.220   2.170 -0.0444 -0.5200 -0.5852
23700SOL    HW174692  10.197   3.152   2.120 -0.8418 -1.1695 -0.4153
23700SOL    HW274693  10.179   3.204   2.261  0.3919 -0.1031 -0.6258
23701SOL     OW74694   5.111   1.625   2.564 -0.1459  0.2549 -0.5322
23701SOL    HW174695   5.123   1.674   2.646 -2.9101  0.0608  0.0951
23701SOL    HW274696   5.117   1.690   2.495 -0.7435  0.9799  0.0825
23702SOL     OW74697   0.214   2.423   5.475  0.6471  1.0652  0.0124
23702SOL    HW174698   0.272   2.470   5.534  0.2674  2.1288 -0.4345
23702SOL    HW274699   0.160   2.491   5.434 -0.8267  0.1386  0.3158
23703SOL     OW74700   4.393  10.405   1.187 -0.7061 -0.5577  0.2920
23703SOL    HW174701   4.306  10.371   1.169 -0.5072 -0.8177 -0.1745
23703SOL    HW274702   4.421  10.360   1.267 -0.0454 -2.2556 -0.8336
23704SOL     OW74703   8.785   2.991   3.871 -0.4943 -0.1217  0.7201
23704SOL    HW174704   8.745   2.994   3.957  0.3051 -0.2602  1.1105
23704SOL    HW274705   8.824   2.903   3.866 -0.5088 -0.1007  0.2351
23705SOL     OW74706   8.811   9.497   5.452  0.3768  0.0257  0.4722
23705SOL    HW174707   8.751   9.564   5.486  0.7355  0.4632  0.2630
23705SOL    HW274708   8.864   9.472   5.527 -0.1625 -0.4736  0.6941
23706SOL     OW74709   0.375  10.809  10.234 -0.8146  0.3055 -0.0635
23706SOL    HW174710   0.322  10.889  10.231 -0.0440  0.8595  0.4942
23706SOL    HW274711   0.374  10.784  10.327 -1.4214 -0.5961 -0.3050
23707SOL     OW74712   4.576   1.940   6.036 -0.0819 -0.1468  0.4164
23707SOL    HW174713   4.653   1.978   6.078 -0.5785 -0.5829  1.8003
23707SOL    HW274714   4.610   1.897   5.958  0.8889  0.6923  0.3488
23708SOL     OW74715   3.977   8.534   0.928 -0.2725 -0.0961  0.0543
23708SOL    HW174716   3.920   8.588   0.982  1.2724 -0.0730  1.7467
23708SOL    HW274717   3.921   8.506   0.855 -1.8915  1.4203  0.6408
23709SOL     OW74718   7.004   3.231   3.055  0.4849  0.6111  0.8332
23709SOL    HW174719   7.098   3.220   3.070 -0.0200 -0.8811  3.4454
23709SOL    HW274720   6.981   3.162   2.993  1.0771  1.0490  0.0981
23710SOL     OW74721   7.277   9.576   8.273  0.3663  0.1347 -0.0131
23710SOL    HW174722   7.247   9.655   8.317 -0.8695  0.4912 -1.4176
23710SOL    HW274723   7.362   9.600   8.236  0.5769  0.3922  0.6242
23711SOL     OW74724   6.223   4.556   0.282 -0.2742  0.5915  0.0847
23711SOL    HW174725   6.184   4.554   0.370  0.9013 -0.2119  0.6137
23711SOL    HW274726   6.211   4.467   0.249  2.0102 -0.0304  0.7132
23712SOL     OW74727   6.053   2.277   3.644 -0.2012  0.2353 -0.1694
23712SOL    HW174728   6.064   2.230   3.727 -0.6197  0.0988 -0.1903
23712SOL    HW274729   5.975   2.330   3.657 -0.0093  0.5556 -0.3207
23713SOL     OW74730   4.208   5.272   8.492 -0.6984 -0.0896 -0.4458
23713SOL    HW174731   4.145   5.200   8.493 -1.4671  0.5591 -0.9526
23713SOL    HW274732   4.225   5.289   8.400  0.6142 -0.5773 -0.3130
23714SOL     OW74733   9.313   0.967   9.149 -0.2580 -0.6374  0.4054
23714SOL    HW174734   9.404   0.946   9.171  0.0299  1.2951  1.3109
23714SOL    HW274735   9.296   0.918   9.069  1.4538 -1.3393  0.4224
23715SOL     OW74736   6.401   3.388   4.546 -0.5449 -0.1252 -0.3443
23715SOL    HW174737   6.388   3.377   4.452  3.6537 -1.1939 -0.9929
23715SOL    HW274738   6.472   3.453   4.553 -0.4244 -0.4214  2.0524
23716SOL     OW74739   4.167   2.079   2.755 -0.2022  0.3174 -0.2912
23716SOL    HW174740   4.245   2.101   2.704 -1.4214 -1.8927 -3.4362
23716SOL    HW274741   4.100   2.139   2.722 -0.9423 -0.9526 -1.1596
23717SOL     OW74742   8.298   8.983   9.903 -0.3358 -0.2529 -0.0408
23717SOL    HW174743   8.343   8.990   9.987 -0.8736 -1.7371  0.3978
23717SOL    HW274744   8.221   9.039   9.913 -1.0249 -1.3175  0.9186
23718SOL     OW74745   8.536   9.591   2.755 -0.0001 -0.1215 -0.2710
23718SOL    HW174746   8.571   9.627   2.837 -0.2316 -0.4602 -0.0217
23718SOL    HW274747   8.544   9.663   2.693 -0.6428  0.4400  0.2741
23719SOL     OW74748   8.351   8.171   4.093  0.7474 -0.8133 -0.2806
23719SOL    HW174749   8.432   8.124   4.111  0.8157 -0.7730 -0.4762
23719SOL    HW274750   8.287   8.102   4.076  0.4374 -0.8842  1.0687
23720SOL     OW74751   6.416   1.350   7.547  0.2686  0.1158  0.7617
23720SOL    HW174752   6.453   1.262   7.561  0.9866 -0.1850 -2.3283
23720SOL    HW274753   6.325   1.333   7.523  0.1339  0.2967  1.1467
23721SOL     OW74754   3.046   0.805   3.889  0.2775  0.6523  0.2637
23721SOL    HW174755   3.011   0.765   3.969 -1.7441 -0.3429 -1.0303
23721SOL    HW274756   2.985   0.877   3.871 -0.2468 -0.1235 -1.2035
23722SOL     OW74757   2.401   7.170   4.058  0.0729  0.7597  0.0070
23722SOL    HW174758   2.491   7.139   4.067 -0.3541 -0.5998 -0.1640
23722SOL    HW274759   2.407   7.242   3.995  1.0388  0.7132  0.0254
23723SOL     OW74760   1.213   8.175   7.133  0.2741  0.1021  0.1791
23723SOL    HW174761   1.301   8.183   7.097 -0.0369 -0.4757 -0.7620
23723SOL    HW274762   1.207   8.083   7.161 -0.8307 -0.5973 -2.0944
23724SOL     OW74763   1.180   4.786   1.089 -0.0538 -0.3510  0.2512
23724SOL    HW174764   1.166   4.797   0.995  1.5561 -1.1807 -0.1190
23724SOL    HW274765   1.201   4.693   1.099 -0.1637 -0.2672  1.4465
23725SOL     OW74766   3.146   0.778  10.367 -0.4000  0.0692  0.1082
23725SOL    HW174767   3.100   0.740  10.292 -1.0496  0.0815  0.4947
23725SOL    HW274768   3.230   0.733  10.369 -0.3440  0.1300 -0.6782
23726SOL     OW74769   1.887   2.667   6.525  0.1958 -0.3266  0.7062
23726SOL    HW174770   1.825   2.608   6.568  1.1119 -3.2483 -1.6486
23726SOL    HW274771   1.838   2.748   6.512 -1.5288 -0.8948  3.0303
23727SOL     OW74772   3.346   7.382  10.431 -0.1620 -0.0722 -0.2518
23727SOL    HW174773   3.294   7.460  10.410 -0.4073  0.3185  1.5930
23727SOL    HW274774   3.363   7.341  10.346 -0.9573  1.3925 -1.1723
23728SOL     OW74775   3.308   7.353   1.595 -0.0035 -0.1230 -0.3869
23728SOL    HW174776   3.377   7.286   1.603  0.0445 -0.3817 -2.3916
23728SOL    HW274777   3.352   7.435   1.615  0.9215 -0.2963 -1.5562
23729SOL     OW74778   0.892  11.004   7.848 -0.6973 -0.0084 -0.1437
23729SOL    HW174779   0.816  11.056   7.876  0.3790  1.2893  0.5295
23729SOL    HW274780   0.957  11.019   7.917 -0.6044 -2.9956  0.5185
23730SOL     OW74781   2.041  10.550   9.076  0.1323  0.0636  0.3590
23730SOL    HW174782   2.009  10.638   9.054 -0.0020  0.4141  1.8044
23730SOL    HW274783   2.071  10.558   9.167  2.3423 -0.8045 -0.2227
23731SOL     OW74784   3.162   6.655   9.504  0.3688 -1.0326 -0.4446
23731SOL    HW174785   3.194   6.739   9.471 -0.0763 -0.4864  0.4773
23731SOL    HW274786   3.151   6.601   9.426 -0.9247  0.3008 -1.2294
23732SOL     OW74787   1.917   9.845   8.505 -0.6325  0.0098  0.0770
23732SOL    HW174788   1.827   9.871   8.489 -0.5336  1.2839  1.3957
23732SOL    HW274789   1.963   9.927   8.523  1.2221 -0.3743 -2.3378
23733SOL     OW74790   9.985   7.475   0.796  0.0262  0.8058  1.2376
23733SOL    HW174791   9.961   7.560   0.832 -2.1168  0.4442  0.8439
23733SOL    HW274792   9.917   7.457   0.731  0.7057 -0.9751  0.9664
23734SOL     OW74793   7.985   3.101   6.647  0.4051 -0.1801  0.0819
23734SOL    HW174794   7.913   3.092   6.585  0.2662 -2.5287  0.5179
23734SOL    HW274795   8.064   3.092   6.593  0.5230  2.8125 -0.4676
23735SOL     OW74796   1.839   4.136   0.695  0.6907  0.5845  0.0325
23735SOL    HW174797   1.815   4.047   0.718 -1.8032  0.6818 -1.8120
23735SOL    HW274798   1.760   4.188   0.714  1.0775  1.8589 -1.5780
23736SOL     OW74799   0.456   3.242   0.911 -0.3708  0.2777  0.1651
23736SOL    HW174800   0.518   3.274   0.845 -1.0096 -0.0519 -0.6034
23736SOL    HW274801   0.402   3.318   0.933 -1.1619  0.0219 -0.8396
23737SOL     OW74802   1.456   4.927   0.879  0.3401  0.5909  0.5871
23737SOL    HW174803   1.382   4.878   0.842  0.2044  1.4234 -0.2827
23737SOL    HW274804   1.496   4.867   0.941  0.0035 -0.5216 -0.2463
23738SOL     OW74805   2.493   9.839   1.147 -0.1967  0.3352  0.6172
23738SOL    HW174806   2.535   9.919   1.180  0.5459  0.3579 -0.3612
23738SOL    HW274807   2.399   9.857   1.157 -0.0116  0.6208  2.0321
23739SOL     OW74808   0.971   5.218   4.232 -0.1605 -0.4265 -0.1084
23739SOL    HW174809   0.922   5.182   4.306  0.4296 -3.1198 -0.9145
23739SOL    HW274810   0.905   5.261   4.178 -0.9551 -0.4108  0.8497
23740SOL     OW74811   0.280   4.182   8.612  0.2714 -0.3556 -0.6507
23740SOL    HW174812   0.243   4.185   8.700 -1.9456 -0.2387 -1.5188
23740SOL    HW274813   0.374   4.193   8.625  0.2290 -2.1275  1.8265
23741SOL     OW74814  10.565  10.763   9.948 -0.1205 -0.0554  0.3798
23741SOL    HW174815  10.629  10.822   9.909 -0.8484  0.4728 -0.0332
23741SOL    HW274816  10.594  10.753  10.039  0.3582  0.4418  0.2866
23742SOL     OW74817   2.481  10.733   1.615  0.2020 -0.7964  0.3325
23742SOL    HW174818   2.564  10.779   1.620 -1.0574  1.5168  2.9540
23742SOL    HW274819   2.440  10.765   1.535  0.1512  1.3318  1.1548
23743SOL     OW74820   6.360   9.724  10.639  0.4289  0.4226 -0.0697
23743SOL    HW174821   6.289   9.718  10.702 -1.1531  0.9458 -1.7144
23743SOL    HW274822   6.344   9.807  10.593  2.6042  0.9846  0.0636
23744SOL     OW74823   7.904   0.152   6.874  0.0641  0.2348 -0.3968
23744SOL    HW174824   7.917   0.163   6.780  3.1902  0.6655 -0.0228
23744SOL    HW274825   7.988   0.174   6.913 -0.8765 -0.7269  2.4786
23745SOL     OW74826   5.283   2.348   3.215 -0.1104  0.7342 -0.0517
23745SOL    HW174827   5.332   2.266   3.220 -0.7555  0.3059 -0.7441
23745SOL    HW274828   5.250   2.361   3.304  1.0518  0.9076  0.3674
23746SOL     OW74829   7.522   0.240   8.636  0.0294 -0.1390 -0.0433
23746SOL    HW174830   7.579   0.163   8.643 -0.5296 -0.5356  0.2034
23746SOL    HW274831   7.508   0.250   8.542 -0.1064 -0.5020 -0.0650
23747SOL     OW74832   2.675   1.995   4.346  0.0211 -0.5792  0.0543
23747SOL    HW174833   2.739   1.967   4.281 -0.2404 -1.1946  0.0555
23747SOL    HW274834   2.617   1.919   4.357 -0.4476 -0.1839  0.3700
23748SOL     OW74835   1.375   1.009   9.859  0.6529 -0.2112 -0.0190
23748SOL    HW174836   1.289   1.030   9.897  0.9364 -0.7362  0.9435
23748SOL    HW274837   1.355   0.940   9.795  0.1544  0.7758 -0.9693
23749SOL     OW74838   5.678   5.070   2.729  0.1773 -0.2603  0.3421
23749SOL    HW174839   5.723   5.091   2.647  2.6234  1.8387  2.0627
23749SOL    HW274840   5.721   4.989   2.759  2.9045  1.5796  1.8340
23750SOL     OW74841   8.152   1.903  10.842  0.3474  0.4192 -0.0900
23750SOL    HW174842   8.065   1.929  10.811 -0.1822 -1.1253 -0.0065
23750SOL    HW274843   8.208   1.912  10.765  0.4114  2.5636  0.1530
23751SOL     OW74844   5.818   3.110   8.182 -0.5051 -0.9532 -0.4085
23751SOL    HW174845   5.852   3.144   8.100 -0.6555  0.1122 -0.0383
23751SOL    HW274846   5.850   3.020   8.186 -0.0266 -0.8270 -1.3594
23752SOL     OW74847   2.247   2.642   3.430  0.4787 -0.3143  0.4669
23752SOL    HW174848   2.292   2.693   3.497  0.7492  0.4810 -0.2938
23752SOL    HW274849   2.164   2.689   3.416  0.3807 -0.5308  0.3206
23753SOL     OW74850   5.584   0.545   6.040 -0.2789  0.1689  0.0766
23753SOL    HW174851   5.598   0.529   5.947 -1.4783 -0.7438  0.0234
23753SOL    HW274852   5.663   0.511   6.082  1.5984  3.1579 -0.7406
23754SOL     OW74853   1.458   6.426   4.524  0.2096 -0.4710  0.2740
23754SOL    HW174854   1.416   6.503   4.562 -0.9301 -0.8873 -0.1034
23754SOL    HW274855   1.491   6.455   4.439 -1.7636 -0.7836 -0.6675
23755SOL     OW74856   4.724   1.996  10.865 -0.2139 -0.3654 -0.2700
23755SOL    HW174857   4.759   1.996  10.954  0.0551 -1.7379 -0.3569
23755SOL    HW274858   4.638   1.956  10.874 -1.3498  1.9387 -0.2404
23756SOL     OW74859   9.738   0.849  10.052 -0.6506 -0.2719  0.1661
23756SOL    HW174860   9.831   0.827  10.059 -0.7069 -0.8143 -0.6420
23756SOL    HW274861   9.693   0.782  10.103 -0.5370  0.7725  1.7122
23757SOL     OW74862   6.306   9.681   6.394  0.8448  0.2203  0.0147
23757SOL    HW174863   6.292   9.610   6.331  1.3985 -0.4143  0.5709
23757SOL    HW274864   6.371   9.737   6.352  0.7628  0.1332 -0.2340
23758SOL     OW74865   4.155   1.490   8.325 -0.3588  0.1219 -0.5735
23758SOL    HW174866   4.177   1.400   8.301  0.4180  0.2624 -0.4117
23758SOL    HW274867   4.065   1.485   8.359 -0.1140 -0.6848 -0.0181
23759SOL     OW74868   3.300   9.103   1.241  0.1412  0.3679 -0.1638
23759SOL    HW174869   3.358   9.107   1.317 -0.3555  0.7891  0.1986
23759SOL    HW274870   3.355   9.067   1.171  1.2845  2.1618 -0.2404
23760SOL     OW74871   3.103   9.226   6.613 -0.2668 -0.3531  0.1993
23760SOL    HW174872   3.050   9.165   6.665  0.7945  0.3844  2.2560
23760SOL    HW274873   3.056   9.309   6.620  1.6112  0.6295  3.1125
23761SOL     OW74874   0.965   9.354   1.230  0.1602  0.0520 -0.5362
23761SOL    HW174875   0.927   9.307   1.304  0.7529 -0.1645 -0.3724
23761SOL    HW274876   0.988   9.440   1.265  2.6599 -0.8315  0.1842
23762SOL     OW74877   8.359  10.702   1.799 -0.2011 -0.2910 -0.1792
23762SOL    HW174878   8.278  10.715   1.848  0.2391  0.7814  0.2974
23762SOL    HW274879   8.388  10.791   1.776  1.3113 -0.5872  0.4583
23763SOL     OW74880   2.982   7.211   3.345 -0.0710  0.1809  0.0257
23763SOL    HW174881   3.022   7.125   3.358 -3.1743 -1.7343 -1.5422
23763SOL    HW274882   2.917   7.218   3.415 -0.3134  0.9436 -0.2648
23764SOL     OW74883   7.316  10.014   1.567 -0.5414  0.7172 -0.8278
23764SOL    HW174884   7.383  10.002   1.500  0.3205  0.8081 -0.0055
23764SOL    HW274885   7.298   9.926   1.600  0.3871  0.8380  0.0748
23765SOL     OW74886   3.631   9.639   7.606 -0.3361  0.5824  0.3916
23765SOL    HW174887   3.588   9.715   7.645 -0.4572  0.9379 -0.4224
23765SOL    HW274888   3.601   9.565   7.660 -0.3689  1.0779  1.0667
23766SOL     OW74889   6.320   3.892   4.407  0.3386 -0.2506  0.5214
23766SOL    HW174890   6.364   3.957   4.461  1.3572  0.0107 -0.5814
23766SOL    HW274891   6.387   3.825   4.391 -0.5744 -1.3983  1.3118
23767SOL     OW74892   8.214   9.829   8.060  0.0082 -0.0202 -0.0373
23767SOL    HW174893   8.131   9.875   8.048 -0.1787 -0.5267 -0.7759
23767SOL    HW274894   8.209   9.793   8.148 -0.0218  1.0013  0.3873
23768SOL     OW74895   4.798   0.691   5.082 -0.0727 -0.1833  0.5634
23768SOL    HW174896   4.796   0.604   5.123  0.6883 -0.0777  0.8571
23768SOL    HW274897   4.886   0.697   5.044  0.7589  1.3327  2.5589
23769SOL     OW74898   8.491   2.454   6.159  0.9229  0.5484 -0.2796
23769SOL    HW174899   8.414   2.424   6.111  1.8272 -2.1900 -0.1858
23769SOL    HW274900   8.455   2.504   6.232 -0.7575 -0.3222 -0.4493
23770SOL     OW74901   4.506   3.089   4.102 -0.1145  0.1675 -0.0795
23770SOL    HW174902   4.425   3.092   4.153 -0.8713 -1.5595 -1.0926
23770SOL    HW274903   4.507   3.172   4.054 -2.4237 -0.5880 -1.6405
23771SOL     OW74904   1.287   8.635   3.522 -0.1534 -0.3793 -0.3518
23771SOL    HW174905   1.286   8.609   3.614  0.6774 -1.1732 -0.5553
23771SOL    HW274906   1.259   8.727   3.523 -2.1226 -0.9344  0.4827
23772SOL     OW74907   4.287   3.098   0.362 -0.3049  0.0590  0.3583
23772SOL    HW174908   4.217   3.132   0.418 -1.6934 -1.0351 -0.6459
23772SOL    HW274909   4.312   3.173   0.307  0.1738  0.7788  1.5104
23773SOL     OW74910   5.580   4.213   6.768  0.0523 -0.1360 -0.1611
23773SOL    HW174911   5.595   4.304   6.741 -1.3166  0.2884  0.4130
23773SOL    HW274912   5.622   4.207   6.854 -0.4745  0.1848  0.1273
23774SOL     OW74913   4.918   7.020   7.514 -0.2528  0.3697 -0.4744
23774SOL    HW174914   4.959   7.098   7.551  1.1083 -0.2351 -0.6342
23774SOL    HW274915   4.992   6.964   7.489 -1.1420 -2.0977  1.9577
23775SOL     OW74916   9.297   3.334   7.429  0.6966  0.1576  0.4745
23775SOL    HW174917   9.265   3.419   7.398 -0.4981 -0.5929 -0.4460
23775SOL    HW274918   9.345   3.297   7.354  1.4202  0.1084  0.9491
23776SOL     OW74919   4.084  10.026   4.878 -0.2759 -0.6309 -0.3002
23776SOL    HW174920   4.026   9.950   4.866 -1.1621  0.2706 -2.1643
23776SOL    HW274921   4.144   9.999   4.948 -1.7222 -2.3325  0.3808
23777SOL     OW74922   9.906   7.701   5.657  0.0391  0.1261  0.3408
23777SOL    HW174923   9.930   7.630   5.598  1.0074  1.2722 -0.6799
23777SOL    HW274924   9.812   7.714   5.642  0.2516  0.3405 -0.9160
23778SOL     OW74925   1.917   6.771   5.847  0.3340 -0.6282 -0.4873
23778SOL    HW174926   1.938   6.799   5.758  0.2463  1.6196  0.1513
23778SOL    HW274927   2.001   6.767   5.892  0.2032  0.1159 -0.1708
23779SOL     OW74928   3.870   5.886   8.699  0.4501 -0.2413  0.0044
23779SOL    HW174929   3.856   5.791   8.703  0.0660 -0.2015 -0.2965
23779SOL    HW274930   3.917   5.899   8.617  1.7121 -0.3041  0.6977
23780SOL     OW74931   0.816   0.651   5.577 -0.0976  0.0124 -0.3236
23780SOL    HW174932   0.775   0.565   5.585  0.4523 -0.1956  0.4277
23780SOL    HW274933   0.808   0.674   5.485 -1.9305  0.0011 -0.2107
23781SOL     OW74934   9.927   4.486   2.214 -0.6234 -0.4690  0.0713
23781SOL    HW174935   9.991   4.468   2.145 -0.8308  0.1210 -0.2846
23781SOL    HW274936   9.918   4.582   2.214 -2.6512 -0.6071 -0.9692
23782SOL     OW74937   3.892  11.097   0.683  0.4450 -0.1062  0.5574
23782SOL    HW174938   3.863  11.188   0.677 -0.9253 -0.6159 -1.0681
23782SOL    HW274939   3.983  11.099   0.652 -0.4757  0.3415 -2.4359
23783SOL     OW74940   5.922   7.291   5.005  0.2487  0.3712  0.1358
23783SOL    HW174941   6.005   7.319   4.967  0.6329  0.8991  1.3153
23783SOL    HW274942   5.875   7.372   5.023  1.3537  0.3854  3.5485
23784SOL     OW74943  10.424   3.213   3.653  0.0372 -0.1193 -0.0900
23784SOL    HW174944  10.487   3.166   3.709  1.4066  0.7751 -0.8350
23784SOL    HW274945  10.373   3.266   3.714  1.7745  1.1499  0.3348
23785SOL     OW74946   1.007   6.810   0.759  0.0071 -0.1214  0.0996
23785SOL    HW174947   0.912   6.813   0.770  0.0647  0.0486  0.5303
23785SOL    HW274948   1.039   6.760   0.834  0.2324 -0.4556 -0.2115
23786SOL     OW74949   4.161   8.833   5.020 -0.2716  0.1499 -0.4170
23786SOL    HW174950   4.148   8.908   4.963  0.2404 -0.0581 -0.8139
23786SOL    HW274951   4.202   8.767   4.964  4.0941  1.2705  1.0379
23787SOL     OW74952   5.919  11.023   8.387  0.8940 -0.2348 -0.4629
23787SOL    HW174953   5.891  10.953   8.446  1.2914  0.3337  0.4141
23787SOL    HW274954   5.862  11.014   8.311  0.7858 -1.3699 -0.2691
23788SOL     OW74955   7.950   0.638  10.385  0.3024 -0.5572  0.1667
23788SOL    HW174956   7.928   0.719  10.430  0.2095 -0.3276 -0.2854
23788SOL    HW274957   8.039   0.618  10.415  2.1487  2.0514 -2.9054
23789SOL     OW74958   5.421   6.820   8.814  0.1158  0.2884  0.5048
23789SOL    HW174959   5.426   6.868   8.897 -1.4902  0.4644  0.5353
23789SOL    HW274960   5.330   6.833   8.785 -0.8584 -3.8007  1.1698
23790SOL     OW74961   8.034   7.285   3.420  0.3651  0.0822 -0.9329
23790SOL    HW174962   8.055   7.262   3.510  3.1401  0.5246 -1.3678
23790SOL    HW274963   7.961   7.346   3.427 -0.8119 -1.4450  0.8434
23791SOL     OW74964  11.098   3.282   7.515  0.0330 -0.0368 -0.1685
23791SOL    HW174965  11.174   3.338   7.496  0.2424 -0.4362 -0.5214
23791SOL    HW274966  11.040   3.294   7.440 -0.6213  0.8671  0.4574
23792SOL     OW74967   3.506   1.290   2.100  0.0461  0.3858 -0.5500
23792SOL    HW174968   3.434   1.289   2.037 -1.2473  0.6030  0.8668
23792SOL    HW274969   3.482   1.225   2.165  0.0061  1.9455  1.0881
23793SOL     OW74970   1.598   8.256   7.328  0.3076  0.5844 -0.5693
23793SOL    HW174971   1.596   8.164   7.356 -4.4140  0.6966  0.2748
23793SOL    HW274972   1.639   8.302   7.401  3.4558 -0.7517 -1.3116
23794SOL     OW74973   5.801   2.808   0.375  0.4796  0.0436 -0.4968
23794SOL    HW174974   5.831   2.844   0.292  0.2739  0.0882 -0.5521
23794SOL    HW274975   5.746   2.733   0.351 -0.3466  0.6174 -0.4407
23795SOL     OW74976   4.809   5.766   4.019 -0.2450 -0.2094  0.3024
23795SOL    HW174977   4.820   5.772   4.114 -1.6315  1.3323  0.3950
23795SOL    HW274978   4.769   5.849   3.994 -1.0598 -1.0921 -1.4754
23796SOL     OW74979   4.652   3.812   6.153  0.9230 -0.3594 -0.1026
23796SOL    HW174980   4.638   3.896   6.109  0.2625 -0.6873 -0.5320
23796SOL    HW274981   4.633   3.746   6.086  2.5900 -0.8649 -0.1433
23797SOL     OW74982   7.271   3.289   8.201  0.9412  0.3734 -0.4915
23797SOL    HW174983   7.326   3.339   8.261  1.2959 -0.5182 -0.0543
23797SOL    HW274984   7.314   3.204   8.193 -0.1924 -0.2322 -0.4009
23798SOL     OW74985   4.291   8.649   1.738  0.2013 -0.3228  0.3401
23798SOL    HW174986   4.350   8.698   1.682  0.2872 -1.1655 -0.3187
23798SOL    HW274987   4.347   8.585   1.782 -0.0020 -0.2093  0.7754
23799SOL     OW74988   0.232   6.862   0.901 -0.0664  1.2694 -0.2959
23799SOL    HW174989   0.229   6.766   0.908  0.9449  1.1514 -1.1783
23799SOL    HW274990   0.140   6.888   0.895 -0.4687  0.5281  1.7803
23800SOL     OW74991   0.607   1.252   9.682 -0.2418 -0.1537 -0.1931
23800SOL    HW174992   0.616   1.157   9.674  1.9402  0.0717 -1.2239
23800SOL    HW274993   0.632   1.271   9.772  1.0708 -0.4431 -0.4726
23801SOL     OW74994   1.509   6.457   2.487  0.3628 -0.0023 -0.0331
23801SOL    HW174995   1.443   6.389   2.475 -0.2926  0.7285 -0.6489
23801SOL    HW274996   1.496   6.517   2.414  1.0795  0.6727  0.3724
23802SOL     OW74997   3.415  10.183   6.096  0.2701 -0.4289 -0.0524
23802SOL    HW174998   3.371  10.114   6.047  0.0667 -0.5069  0.2335
23802SOL    HW274999   3.391  10.264   6.050  1.5679 -0.6515 -1.1570
23803SOL     OW75000   0.419   8.759   9.892 -0.2526 -0.5328  0.6505
23803SOL    HW175001   0.422   8.759   9.796  1.6823 -0.4943  0.6826
23803SOL    HW275002   0.359   8.831   9.914 -0.3936 -0.2734 -0.5153
23804SOL     OW75003   1.451   5.731   1.380  0.0768 -0.0744 -0.0864
23804SOL    HW175004   1.393   5.658   1.403  1.2813 -1.0551  0.0006
23804SOL    HW275005   1.405   5.778   1.311 -1.1177 -0.3979  0.4567
23805SOL     OW75006   5.452   2.474  10.765 -0.3975 -0.1925  0.3956
23805SOL    HW175007   5.432   2.567  10.749  0.8339  0.4543  2.3354
23805SOL    HW275008   5.546   2.466  10.744 -0.4238 -0.9356  0.5424
23806SOL     OW75009   9.020   6.927   2.136 -0.0452 -0.1600  0.8173
23806SOL    HW175010   9.006   7.021   2.137  1.1537  0.0436  2.4183
23806SOL    HW275011   8.938   6.890   2.169 -0.9015  0.2214 -0.7977
23807SOL     OW75012  10.328   3.788   7.915 -0.3308 -0.0399 -0.7531
23807SOL    HW175013  10.304   3.798   8.007  1.9276  0.5635 -0.1674
23807SOL    HW275014  10.262   3.838   7.867 -0.6143  1.0027  0.6669
23808SOL     OW75015   0.387  10.689   5.747 -0.0320 -0.4998  0.2892
23808SOL    HW175016   0.351  10.777   5.755 -0.0834 -0.5201  0.2774
23808SOL    HW275017   0.342  10.638   5.814 -2.0986 -1.2107 -1.5205
23809SOL     OW75018   3.869   4.823   1.676 -0.4847  0.4523 -0.2331
23809SOL    HW175019   3.910   4.784   1.599  1.0734  1.8976 -0.2176
23809SOL    HW275020   3.928   4.895   1.700 -1.6553  0.9088  1.4832
23810SOL     OW75021   6.510   9.195   5.808  0.2162  0.0352 -0.3220
23810SOL    HW175022   6.578   9.251   5.771  0.3861  0.4553  0.5803
23810SOL    HW275023   6.441   9.256   5.834  0.4220 -0.1544  0.7050
23811SOL     OW75024   2.255   9.870   1.608  0.2060 -0.0487  0.1958
23811SOL    HW175025   2.300   9.788   1.590 -0.3759 -0.3656  0.1361
23811SOL    HW275026   2.324   9.935   1.616  0.6630 -0.5160  0.0784
23812SOL     OW75027   2.347   8.484   1.306  0.0380  0.1595 -0.3498
23812SOL    HW175028   2.332   8.576   1.329 -0.1232  0.0875 -0.1590
23812SOL    HW275029   2.418   8.486   1.242 -1.0703  0.5461 -1.6067
23813SOL     OW75030   9.076  10.359   6.909  0.8746 -0.1852 -0.0543
23813SOL    HW175031   9.037  10.276   6.884  0.6194  0.1734 -0.8616
23813SOL    HW275032   9.157  10.364   6.859 -0.3328  1.1895 -2.0106
23814SOL     OW75033   3.217  10.845  10.257  0.1036 -0.2253 -0.6082
23814SOL    HW175034   3.284  10.777  10.245  1.3740  0.6355  1.1126
23814SOL    HW275035   3.267  10.926  10.264 -1.0250  0.3564  1.5556
23815SOL     OW75036   0.075   5.370   5.360  0.2567  0.2719  0.5075
23815SOL    HW175037   0.059   5.423   5.282 -2.3911  0.1410  0.8740
23815SOL    HW275038   0.160   5.328   5.344  0.1312  0.8186 -1.9496
23816SOL     OW75039   9.018   8.048   0.784  0.0242  0.0198 -0.0991
23816SOL    HW175040   8.936   8.001   0.769 -1.3357  1.4740  2.1156
23816SOL    HW275041   9.020   8.115   0.716 -0.8599  0.2011  0.0325
23817SOL     OW75042   6.136   5.076   5.086 -0.4301 -0.5954 -0.8005
23817SOL    HW175043   6.098   5.124   5.013  0.5794 -1.0363 -1.6320
23817SOL    HW275044   6.060   5.046   5.137 -1.1076  1.7914 -0.2803
23818SOL     OW75045   9.088   6.118   4.771  0.1282 -0.0419  0.1254
23818SOL    HW175046   9.026   6.076   4.831  0.8492 -2.1067 -0.5136
23818SOL    HW275047   9.121   6.047   4.716  2.3392  1.1398 -0.2024
23819SOL     OW75048   0.257   8.890   4.833 -0.0944  0.2129 -0.3477
23819SOL    HW175049   0.346   8.884   4.798  0.0082  2.1028 -0.5167
23819SOL    HW275050   0.265   8.863   4.925  0.7290  0.6547 -0.2796
23820SOL     OW75051   9.033   4.117   0.780 -0.3189  0.0004  0.3013
23820SOL    HW175052   9.093   4.177   0.736  0.3197  0.5414  1.8370
23820SOL    HW275053   8.967   4.174   0.819  0.7829 -0.1364  2.5301
23821SOL     OW75054   9.687   2.226   8.134  0.5937  0.2905 -0.0275
23821SOL    HW175055   9.694   2.148   8.189  3.2136  0.0146 -0.5872
23821SOL    HW275056   9.662   2.192   8.048  1.2405  0.0992 -0.1479
23822SOL     OW75057   4.251   0.006   2.672 -0.1287 -0.2156  0.4190
23822SOL    HW175058   4.180  -0.010   2.610 -1.3139 -0.4552  1.7956
23822SOL    HW275059   4.217  -0.024   2.756  1.6723 -0.4755  1.0972
23823SOL     OW75060   7.769   2.636   2.280 -0.2369  0.1349 -0.1983
23823SOL    HW175061   7.851   2.685   2.273 -0.2626  0.2490  0.2838
23823SOL    HW275062   7.704   2.693   2.238 -0.2249  0.4233  0.1645
23824SOL     OW75063   1.134  10.999  10.689 -0.4795 -0.0504 -0.0606
23824SOL    HW175064   1.152  11.009  10.782  1.2914  0.6791 -0.4478
23824SOL    HW275065   1.047  11.038  10.678 -0.6836 -0.0717  1.2600
23825SOL     OW75066   5.932   4.468   2.797  0.2859  0.4765  1.0153
23825SOL    HW175067   5.981   4.435   2.722  0.7541  0.9580  1.1054
23825SOL    HW275068   5.995   4.521   2.846 -0.2797  0.9664  1.2241
23826SOL     OW75069   9.665  10.419   0.361  0.1285 -0.2305 -0.1125
23826SOL    HW175070   9.657  10.342   0.417  0.5701  0.0830  0.3959
23826SOL    HW275071   9.586  10.419   0.308 -0.1768 -0.6750  0.3366
23827SOL     OW75072   9.113  10.383   4.333  0.4070  0.0861  0.3008
23827SOL    HW175073   9.104  10.478   4.325  0.2103 -0.0222 -1.1872
23827SOL    HW275074   9.141  10.355   4.246 -2.9087 -1.5603 -0.4183
23828SOL     OW75075   3.291   3.778   7.524 -0.0221  0.4684  0.2020
23828SOL    HW175076   3.384   3.763   7.507  0.0536  0.1693  0.8439
23828SOL    HW275077   3.251   3.691   7.516 -0.1115  0.4576  0.7278
23829SOL     OW75078   2.519   9.559   1.169 -0.2814  0.2561 -0.3484
23829SOL    HW175079   2.520   9.649   1.137 -1.4897  0.9537  1.4712
23829SOL    HW275080   2.427   9.534   1.171 -0.0769 -0.4979  0.5599
23830SOL     OW75081   2.754   7.383   5.131  0.0684  0.0884 -0.5278
23830SOL    HW175082   2.838   7.357   5.092  0.0802 -0.7387  0.0253
23830SOL    HW275083   2.716   7.301   5.161  0.1263  0.7037  1.3332
23831SOL     OW75084   9.682   9.041  10.927  0.4263  0.3069  0.2547
23831SOL    HW175085   9.716   8.990  10.853  0.4429  0.2876  0.2759
23831SOL    HW275086   9.591   9.014  10.934  0.3075  0.6185 -0.0271
23832SOL     OW75087   8.929   1.520   9.960 -0.0496  0.6113  0.0688
23832SOL    HW175088   9.021   1.543   9.971  0.4030 -1.1329  0.2316
23832SOL    HW275089   8.900   1.496  10.048 -0.5851  0.8784 -0.0338
23833SOL     OW75090   1.575   6.297   3.683  0.2479  0.0662  0.8192
23833SOL    HW175091   1.494   6.337   3.651 -0.5912 -1.8186  0.4915
23833SOL    HW275092   1.643   6.361   3.661 -0.9554  1.0214 -0.2566
23834SOL     OW75093   9.305   7.562   9.605  0.0728 -0.0527 -0.2205
23834SOL    HW175094   9.292   7.495   9.537 -0.4171 -0.2151  0.0296
23834SOL    HW275095   9.228   7.618   9.598  0.2013  0.1473 -0.0404
23835SOL     OW75096   5.547  10.043   0.865  0.6237 -0.4756  0.3224
23835SOL    HW175097   5.638  10.036   0.836  0.5753 -0.2658  0.1181
23835SOL    HW275098   5.496  10.038   0.784  0.4897  0.1527  0.3659
23836SOL     OW75099   3.413   2.845   0.222  0.3800 -0.8788 -0.6024
23836SOL    HW175100   3.398   2.917   0.283  0.1862 -1.4290  0.0093
23836SOL    HW275101   3.482   2.877   0.163 -2.0284  1.1159 -2.5264
23837SOL     OW75102   5.439  10.401   4.680 -0.0793 -0.1582 -0.0517
23837SOL    HW175103   5.438  10.425   4.588  0.2130 -0.4644 -0.1377
23837SOL    HW275104   5.486  10.317   4.682 -0.8532 -0.5870  0.2662
23838SOL     OW75105   1.478   9.907   5.326  0.0476 -0.0064  0.5518
23838SOL    HW175106   1.452   9.830   5.377  1.0768  0.7206  2.2693
23838SOL    HW275107   1.399   9.931   5.278 -1.1812 -0.4389  2.2325
23839SOL     OW75108   3.743   1.798  10.228 -0.2184 -0.3839  0.1515
23839SOL    HW175109   3.778   1.851  10.299 -0.9679  0.4426 -0.0820
23839SOL    HW275110   3.809   1.730  10.214  0.3037 -0.0881  1.0985
23840SOL     OW75111   2.030   0.641   6.890 -0.2465 -0.0384 -0.3591
23840SOL    HW175112   2.087   0.713   6.864 -1.4156  0.2697 -2.2815
23840SOL    HW275113   2.084   0.587   6.948  0.9314  1.8849  0.4195
23841SOL     OW75114   4.837   8.838   7.173  0.1160  0.2998  0.0299
23841SOL    HW175115   4.805   8.755   7.207  4.6888 -1.6702  0.3258
23841SOL    HW275116   4.821   8.901   7.243 -0.5815 -1.0689  1.1437
23842SOL     OW75117   5.948   1.156   7.840  1.3627  0.2159  0.2707
23842SOL    HW175118   6.033   1.195   7.862  1.5550 -0.6710  1.1580
23842SOL    HW275119   5.955   1.066   7.870  1.0210 -0.6261 -1.9508
23843SOL     OW75120   2.083   7.073   8.966  0.2097  0.4541 -0.6976
23843SOL    HW175121   2.166   7.030   8.984 -0.5381 -0.6776  0.1255
23843SOL    HW275122   2.059   7.043   8.878  0.6099  0.7055 -0.8972
23844SOL     OW75123   2.592  10.556   7.798  0.4244 -0.1503 -0.3326
23844SOL    HW175124   2.527  10.486   7.806 -0.0609  0.2195 -0.9302
23844SOL    HW275125   2.621  10.572   7.888  1.0126 -1.5416 -0.2395
23845SOL     OW75126   9.013   0.771   4.955  0.1029  0.4089  0.2788
23845SOL    HW175127   9.036   0.681   4.976  1.9281  0.9952  0.9833
23845SOL    HW275128   8.978   0.806   5.037  0.8345  0.7611  0.4484
23846SOL     OW75129   3.800  10.929   0.506 -0.3837  0.2020  0.0872
23846SOL    HW175130   3.792  10.989   0.432 -2.0725 -1.3087 -1.0462
23846SOL    HW275131   3.833  10.983   0.577 -1.3775  2.3688 -0.9921
23847SOL     OW75132   5.489   3.204   4.548 -0.3107 -0.1436  0.1008
23847SOL    HW175133   5.501   3.267   4.620 -0.9151 -0.6827  0.6857
23847SOL    HW275134   5.560   3.141   4.560  0.3015  0.4170 -0.4920
23848SOL     OW75135   9.178  10.793   1.455  0.1877 -0.3713  0.2802
23848SOL    HW175136   9.235  10.870   1.462 -1.2540  0.8798 -0.8831
23848SOL    HW275137   9.196  10.760   1.367  0.3660 -1.0201  0.5597
23849SOL     OW75138   3.253   2.953   3.400  0.0859 -0.4282  0.0001
23849SOL    HW175139   3.313   2.921   3.468 -0.5474  0.2323  0.8891
23849SOL    HW275140   3.231   3.041   3.427  0.7585  0.3194 -1.7139
23850SOL     OW75141   5.264   8.523   4.243 -0.6245 -0.2018 -0.4259
23850SOL    HW175142   5.207   8.600   4.247  1.5234  1.4336  0.7424
23850SOL    HW275143   5.340   8.546   4.297 -0.2427 -3.4854  0.6939
23851SOL     OW75144   7.082   8.104   2.808  0.1041  0.3103  0.2414
23851SOL    HW175145   7.062   8.133   2.898 -1.1937 -0.5157  0.2382
23851SOL    HW275146   7.036   8.167   2.752  0.6734  0.6527  0.1563
23852SOL     OW75147   8.794   4.768   9.414  0.4707 -0.1335  0.0121
23852SOL    HW175148   8.795   4.672   9.419 -0.3646 -0.2466 -1.4483
23852SOL    HW275149   8.818   4.787   9.323  1.4566  1.0853  0.4964
23853SOL     OW75150   5.003   0.563   1.278  0.5204  0.1379  0.2694
23853SOL    HW175151   5.062   0.590   1.208  0.8233 -1.4251 -0.1317
23853SOL    HW275152   4.930   0.624   1.273  0.8136  0.4052 -1.0477
23854SOL     OW75153   2.583  10.468   1.914  0.3787  0.2372  0.6579
23854SOL    HW175154   2.676  10.488   1.901  0.4302 -0.0484  0.5734
23854SOL    HW275155   2.547  10.465   1.825  0.5205 -0.7257  0.6109
23855SOL     OW75156   4.592   7.577   2.242  0.3181 -0.6539  0.1681
23855SOL    HW175157   4.534   7.630   2.188  0.5287  1.2345  1.6540
23855SOL    HW275158   4.553   7.490   2.243 -1.5746  0.1527 -0.1976
23856SOL     OW75159   0.180   9.163   8.968 -0.3505  0.3219 -0.0334
23856SOL    HW175160   0.242   9.160   9.041 -0.4533  0.6742  0.0699
23856SOL    HW275161   0.231   9.197   8.895 -0.2383 -0.0644 -0.1385
23857SOL     OW75162   2.360   6.396   5.415  0.2964 -0.0767 -0.1710
23857SOL    HW175163   2.300   6.461   5.379  1.2614  1.2955  0.6214
23857SOL    HW275164   2.304   6.338   5.466 -0.5149  0.4141 -0.4786
23858SOL     OW75165   4.421   6.202   3.545 -0.3745 -0.7476  0.1314
23858SOL    HW175166   4.416   6.270   3.612 -2.1368  0.4269 -1.0995
23858SOL    HW275167   4.453   6.125   3.592 -1.1676  0.1136  2.2232
23859SOL     OW75168   9.794   1.535   6.116  0.5144 -0.5471 -0.0645
23859SOL    HW175169   9.737   1.468   6.079 -0.3798  0.3988 -0.4254
23859SOL    HW275170   9.881   1.513   6.083  0.3365 -1.8633  0.2985
23860SOL     OW75171   8.370   7.575   3.058 -0.5567 -0.2710  0.7659
23860SOL    HW175172   8.426   7.652   3.061 -0.4323 -0.2971 -0.2918
23860SOL    HW275173   8.367   7.543   3.148  0.5912  0.1127  0.9567
23861SOL     OW75174   8.381   8.429   3.961  0.0459 -0.6847 -0.2992
23861SOL    HW175175   8.289   8.453   3.957 -0.4452 -2.3326  0.1856
23861SOL    HW275176   8.382   8.348   4.011  1.9816  0.2930  1.3828
23862SOL     OW75177   3.709   7.783   1.528 -0.1011 -0.3987 -0.6495
23862SOL    HW175178   3.726   7.701   1.574 -2.6758 -1.4394 -1.3695
23862SOL    HW275179   3.750   7.771   1.442 -0.1872 -0.7864 -0.6352
23863SOL     OW75180  10.605   6.262   8.845  0.3835 -0.4002 -0.3026
23863SOL    HW175181  10.650   6.251   8.929  0.0850 -3.1871 -0.4119
23863SOL    HW275182  10.639   6.345   8.811  0.7687  0.6438  2.3735
23864SOL     OW75183   6.605   8.583   3.903 -0.1672 -0.4437  0.0866
23864SOL    HW175184   6.653   8.507   3.937 -0.8468 -0.8659  0.1410
23864SOL    HW275185   6.671   8.635   3.857  0.5353 -0.4715  1.0425
23865SOL     OW75186  10.159   2.359   7.128 -0.1849  0.5183 -0.1125
23865SOL    HW175187  10.088   2.340   7.190  0.7306  0.1690  0.8652
23865SOL    HW275188  10.219   2.416   7.177  0.7571 -0.0843 -0.5339
23866SOL     OW75189   5.382   2.972  10.527  0.5793  0.0128  0.3333
23866SOL    HW175190   5.291   2.983  10.552  0.3350 -1.8680  0.3753
23866SOL    HW275191   5.402   3.050  10.476 -1.0264  0.4802  0.3652
23867SOL     OW75192   9.263   3.683   2.113  0.0367 -0.2466  0.0142
23867SOL    HW175193   9.221   3.759   2.073  1.0555  0.6512  0.5939
23867SOL    HW275194   9.199   3.612   2.103 -0.8967  0.6562 -0.6161
23868SOL     OW75195   8.581   1.966   9.620  0.1925 -0.2143  0.3642
23868SOL    HW175196   8.599   1.897   9.556 -0.8924 -0.0543 -0.1318
23868SOL    HW275197   8.648   1.953   9.688  2.0753  0.2710 -1.2871
23869SOL     OW75198  10.657   3.853   2.884  0.4147 -0.2791 -0.2649
23869SOL    HW175199  10.611   3.924   2.929 -1.4866 -0.3669 -1.9061
23869SOL    HW275200  10.597   3.778   2.891  1.8169 -1.3969  0.3344
23870SOL     OW75201   0.723   7.139   7.389  0.1091  0.1464  0.2950
23870SOL    HW175202   0.732   7.045   7.401  2.2122  0.1521 -0.7818
23870SOL    HW275203   0.671   7.148   7.309 -3.3201  0.0218  2.3281
23871SOL     OW75204  10.317   1.493   0.005  0.2312 -0.2201 -0.2082
23871SOL    HW175205  10.223   1.485   0.018  0.3654 -3.7233 -0.3382
23871SOL    HW275206  10.327   1.512  -0.088 -0.3298  1.3203  0.0272
23872SOL     OW75207   8.324   9.665   4.154 -0.3880  0.0771 -0.2345
23872SOL    HW175208   8.355   9.616   4.230 -0.8788 -0.7784 -0.5712
23872SOL    HW275209   8.348   9.610   4.079  0.4120  1.0809 -0.7302
23873SOL     OW75210   6.326   1.050   8.123  0.0777 -0.3701  0.2952
23873SOL    HW175211   6.350   1.133   8.163 -1.3081  0.7695 -1.1390
23873SOL    HW275212   6.388   0.987   8.160  0.7653  1.1577  1.8868
23874SOL     OW75213   7.773   7.632   2.600  0.2419 -0.2304  0.8126
23874SOL    HW175214   7.795   7.715   2.643  0.5412 -0.3946  0.9778
23874SOL    HW275215   7.848   7.613   2.544 -0.8668  0.8676 -1.1625
23875SOL     OW75216   9.830   9.513   2.486  0.5024 -0.0888  0.0431
23875SOL    HW175217   9.922   9.487   2.476  0.4861 -0.7526  1.4427
23875SOL    HW275218   9.788   9.482   2.406  1.3183 -0.6234 -0.1892
23876SOL     OW75219   5.833   7.317   1.338  0.2721  0.4159  0.1402
23876SOL    HW175220   5.856   7.233   1.300 -0.1418  0.2471  0.2507
23876SOL    HW275221   5.865   7.382   1.276  1.5748  0.2185  0.5746
23877SOL     OW75222   9.140   6.002   8.928 -0.8201  0.2392 -0.1860
23877SOL    HW175223   9.090   6.078   8.957  1.0226  1.2077  0.6038
23877SOL    HW275224   9.208   6.037   8.872 -0.7838 -1.0033 -0.9682
23878SOL     OW75225   8.758   5.630   0.659 -0.5909  0.2108 -0.0217
23878SOL    HW175226   8.703   5.707   0.644 -0.2788  0.1979 -1.3717
23878SOL    HW275227   8.831   5.664   0.711 -0.0975  1.0137 -1.1828
23879SOL     OW75228   1.500   2.731   0.132 -0.4892  0.4104 -0.0324
23879SOL    HW175229   1.447   2.658   0.100 -1.9154  0.9016  1.1343
23879SOL    HW275230   1.555   2.755   0.058 -0.1143 -1.7132 -0.5103
23880SOL     OW75231   8.283   2.563   9.842  0.0093 -0.0999 -0.2288
23880SOL    HW175232   8.194   2.536   9.818  0.1615 -0.8214  0.0021
23880SOL    HW275233   8.302   2.635   9.782 -1.6080  1.6655  1.2351
23881SOL     OW75234   0.758   1.002   5.924  0.1609  0.7348 -0.5141
23881SOL    HW175235   0.681   1.027   5.976  0.9699  1.9088  0.1531
23881SOL    HW275236   0.739   0.913   5.895  0.1254 -0.4080  2.6586
23882SOL     OW75237   6.412   2.457   4.149  0.4003 -0.5344  0.4977
23882SOL    HW175238   6.402   2.433   4.242  0.0768 -0.7047  0.4188
23882SOL    HW275239   6.323   2.476   4.120  0.3803 -1.4409 -0.0420
23883SOL     OW75240   4.307   4.505   8.200  0.1681  0.4827 -0.0866
23883SOL    HW175241   4.381   4.564   8.187  0.4367  0.6316  1.8471
23883SOL    HW275242   4.302   4.454   8.119  2.7103  0.1068 -0.0778
23884SOL     OW75243   6.794  10.993   6.970 -0.4279 -0.6931  0.2454
23884SOL    HW175244   6.716  11.046   6.956  0.0230 -0.3195 -1.0328
23884SOL    HW275245   6.810  10.998   7.064 -0.8686  0.7589  0.2682
23885SOL     OW75246   3.226   5.981   8.100 -0.1094 -0.4601  0.4203
23885SOL    HW175247   3.309   5.950   8.135 -0.1007 -0.8859  0.0377
23885SOL    HW275248   3.248   6.058   8.048  0.1479 -0.9492 -0.2195
23886SOL     OW75249   1.414   6.614   7.814  0.0811 -0.3094  0.1221
23886SOL    HW175250   1.494   6.568   7.839  0.5179  0.2291 -0.2416
23886SOL    HW275251   1.397   6.586   7.724 -0.1457 -0.4300  0.2021
23887SOL     OW75252   6.145   9.719  10.843  0.7442 -0.0228  0.2096
23887SOL    HW175253   6.149   9.783  10.914  0.6635  0.9319 -0.6085
23887SOL    HW275254   6.051   9.700  10.834  0.8669 -1.2692  1.2952
23888SOL     OW75255   5.081   6.640   7.270  0.1795  0.2855 -0.5130
23888SOL    HW175256   5.127   6.691   7.204 -0.0697  0.3256 -0.6570
23888SOL    HW275257   5.029   6.577   7.221 -1.4429  1.5190 -0.4553
23889SOL     OW75258   4.170   8.817   6.103 -0.3806 -0.0561 -0.2872
23889SOL    HW175259   4.235   8.770   6.051  0.0067  0.3221 -0.1581
23889SOL    HW275260   4.219   8.890   6.141 -0.3375 -0.9815  1.5707
23890SOL     OW75261   5.261   0.484   3.207  0.2205 -0.2289 -0.1511
23890SOL    HW175262   5.174   0.443   3.208 -0.5848  1.2200  2.9429
23890SOL    HW275263   5.243   0.577   3.190  1.0139  0.2330  1.3475
23891SOL     OW75264   3.902   8.822   8.787 -0.8072 -0.3210  0.1875
23891SOL    HW175265   3.909   8.784   8.700  0.2514 -0.6974  0.4123
23891SOL    HW275266   3.990   8.854   8.806 -1.3187  0.8824  0.6283
23892SOL     OW75267   7.950   2.573   1.840 -0.4272  0.4325 -0.7106
23892SOL    HW175268   7.917   2.568   1.750 -0.0398  2.9756 -1.0693
23892SOL    HW275269   7.911   2.653   1.875 -0.3227 -0.3540  1.3185
23893SOL     OW75270   7.584   3.242   3.501 -0.3160  0.5558 -0.5752
23893SOL    HW175271   7.518   3.191   3.549 -0.7274  0.6464 -1.0276
23893SOL    HW275272   7.533   3.297   3.442  0.1862 -0.0323 -1.5891
23894SOL     OW75273   3.450   7.120   3.249 -0.3563 -0.3583  0.5991
23894SOL    HW175274   3.388   7.057   3.212  0.5806 -2.0885  1.8390
23894SOL    HW275275   3.528   7.111   3.195  0.3895 -1.5878  1.8307
23895SOL     OW75276   3.365  10.114   8.006  0.3768 -0.6139 -0.4054
23895SOL    HW175277   3.359  10.137   8.099 -0.2486 -1.5760 -0.2000
23895SOL    HW275278   3.430  10.044   8.003 -0.8769 -1.7984 -0.4525
23896SOL     OW75279   7.625   1.563   9.838  0.0306 -0.4486  0.0010
23896SOL    HW175280   7.706   1.556   9.889  1.1212  1.2188 -1.4066
23896SOL    HW275281   7.558   1.527   9.897  1.3644  0.4233  2.2087
23897SOL     OW75282   1.196   6.018  10.492 -0.1197 -0.5201  0.1002
23897SOL    HW175283   1.248   6.044  10.416  0.0500 -0.3549  0.2731
23897SOL    HW275284   1.173   6.100  10.534 -0.3052 -0.6078  0.1681
23898SOL     OW75285   4.906   0.336   1.164 -0.0877 -0.0716 -0.6615
23898SOL    HW175286   4.900   0.396   1.238  1.1901 -1.1732  0.3908
23898SOL    HW275287   4.973   0.374   1.107 -1.3062  0.9500 -1.4656
23899SOL     OW75288   8.092   8.266   4.725 -0.4241 -0.3088  0.3151
23899SOL    HW175289   8.113   8.215   4.646  0.1533 -2.2565  1.6601
23899SOL    HW275290   8.176   8.277   4.769 -0.8489  0.1335  1.0364
23900SOL     OW75291   3.769   6.546   5.830  0.0038  0.3964  0.2903
23900SOL    HW175292   3.742   6.637   5.819 -2.5806 -0.1457  1.4020
23900SOL    HW275293   3.813   6.544   5.914  1.2341  0.8057 -0.3169
23901SOL     OW75294   6.894   3.578   0.903 -0.2819 -0.1583 -0.4883
23901SOL    HW175295   6.939   3.610   0.824  0.0859  0.1528 -0.1563
23901SOL    HW275296   6.866   3.658   0.948 -1.9272 -0.3393 -1.1071
23902SOL     OW75297   9.148   3.284   1.889  0.7215 -0.1120  0.8908
23902SOL    HW175298   9.110   3.198   1.907  0.3233  0.0082  0.6364
23902SOL    HW275299   9.197   3.272   1.807  1.7068 -0.4071  1.5043
23903SOL     OW75300   5.811   8.353  10.341  0.4415 -0.0580 -0.1203
23903SOL    HW175301   5.772   8.440  10.339  0.8666  0.1216 -1.0574
23903SOL    HW275302   5.823   8.330  10.249 -0.7620 -1.6185  0.0804
23904SOL     OW75303   5.782   8.085   1.451 -0.1137 -0.1193  0.1156
23904SOL    HW175304   5.781   8.012   1.389 -1.0558  0.8394 -1.0326
23904SOL    HW275305   5.690   8.111   1.458  0.4557  2.7616 -1.7168
23905SOL     OW75306   1.788   3.721   2.132  0.2340 -0.0554 -0.3993
23905SOL    HW175307   1.806   3.781   2.060  1.3294 -0.3313 -0.3646
23905SOL    HW275308   1.842   3.644   2.114 -2.4775 -1.8764 -1.4283
23906SOL     OW75309   5.163   0.298   6.816  0.0231 -1.2143  0.0163
23906SOL    HW175310   5.099   0.275   6.883  0.9806 -1.1545  0.9674
23906SOL    HW275311   5.115   0.355   6.756 -0.6002 -0.5061  1.1574
23907SOL     OW75312   2.133   5.117   9.324 -0.0278  0.1129 -0.0432
23907SOL    HW175313   2.227   5.133   9.325  0.1363 -0.6461  1.8162
23907SOL    HW275314   2.096   5.190   9.275  1.2946  1.9409  1.5339
23908SOL     OW75315   7.406   3.060   8.138 -0.4028 -0.0296 -0.2090
23908SOL    HW175316   7.434   3.076   8.047  2.9031 -1.2182  0.4759
23908SOL    HW275317   7.422   2.967   8.152 -1.7781 -0.0755  1.3590
23909SOL     OW75318   4.920   6.477   7.101  0.0700  0.1619 -0.4230
23909SOL    HW175319   4.974   6.432   7.036  0.5555  1.1798 -0.7461
23909SOL    HW275320   4.863   6.534   7.049 -1.6940 -1.2527 -0.1175
23910SOL     OW75321   1.060   3.330   3.952 -1.0528  0.2167 -0.1129
23910SOL    HW175322   1.046   3.237   3.938  0.1039 -0.0097  0.1296
23910SOL    HW275323   1.124   3.355   3.886 -1.6880  0.9423 -0.4627
23911SOL     OW75324   7.897   4.409   6.428  0.1613 -0.1930  0.3608
23911SOL    HW175325   7.855   4.343   6.483  1.7570 -2.4645 -0.9574
23911SOL    HW275326   7.978   4.430   6.473  1.1463 -1.5506 -0.6843
23912SOL     OW75327   6.762   4.295   3.989 -0.3158  0.3800 -0.3153
23912SOL    HW175328   6.775   4.335   4.074 -0.6219 -2.4141  1.1710
23912SOL    HW275329   6.674   4.323   3.962 -0.5148  0.7019  0.6539
23913SOL     OW75330   0.570   0.253   5.171 -0.3501  0.1911  0.1857
23913SOL    HW175331   0.589   0.239   5.078  2.0922  1.8305  0.3535
23913SOL    HW275332   0.477   0.277   5.173 -0.6494 -0.6218 -1.7145
23914SOL     OW75333   1.953   8.082   1.739 -0.2738 -0.1687  0.5399
23914SOL    HW175334   1.868   8.069   1.781 -1.8798 -0.1346 -2.4341
23914SOL    HW275335   1.938   8.058   1.647  2.3585  1.9427 -0.5550
23915SOL     OW75336   7.770   0.718   5.971 -0.3177 -0.2915 -0.1335
23915SOL    HW175337   7.695   0.685   6.020  1.0614 -1.2985  1.3974
23915SOL    HW275338   7.765   0.673   5.886 -1.3887 -0.3734 -0.0384
23916SOL     OW75339   7.075   8.371   4.100  0.0249  0.4543 -0.1150
23916SOL    HW175340   7.080   8.378   4.195 -0.0715  0.1573 -0.0893
23916SOL    HW275341   7.122   8.291   4.078 -1.6424 -0.5412 -0.1504
23917SOL     OW75342   0.044   8.039   7.325  0.4105  0.0563 -0.4661
23917SOL    HW175343   0.111   8.091   7.280 -1.8162  1.0285 -2.8794
23917SOL    HW275344   0.088   7.957   7.347  2.3191  0.5485 -2.1605
23918SOL     OW75345   9.128   7.306   0.600 -0.8394 -0.3086  0.0373
23918SOL    HW175346   9.123   7.237   0.534 -0.4712 -0.7383  0.4524
23918SOL    HW275347   9.060   7.369   0.574  0.8543  0.7572 -2.1307
23919SOL     OW75348   1.590  10.847   5.710 -0.0340 -0.5371 -0.0917
23919SOL    HW175349   1.613  10.812   5.624  0.6576  1.1790 -0.6557
23919SOL    HW275350   1.506  10.891   5.697 -0.5504 -1.3492  0.4310
23920SOL     OW75351   4.578   1.162  10.997 -0.2151 -0.0710  0.3207
23920SOL    HW175352   4.530   1.203  11.069  0.2408  0.8192  0.1322
23920SOL    HW275353   4.509   1.128  10.939 -0.6004  0.3669  0.5176
23921SOL     OW75354   6.088   0.990   0.704  0.2090 -0.1537 -0.2321
23921SOL    HW175355   6.039   0.998   0.785 -0.2091 -1.8770 -0.2745
23921SOL    HW275356   6.062   1.066   0.652  0.8295  1.2332  1.3860
23922SOL     OW75357   3.954   3.015   3.996  0.4747 -0.0666 -0.2148
23922SOL    HW175358   3.921   3.009   3.906 -0.8683 -0.9123  0.2993
23922SOL    HW275359   3.888   2.970   4.049  1.6944 -0.3988  1.0927
23923SOL     OW75360  10.168  10.478   2.118  0.1713 -0.2083  0.4653
23923SOL    HW175361  10.131  10.566   2.128 -1.4219 -0.6551 -0.8964
23923SOL    HW275362  10.105  10.421   2.162  0.4200 -0.7946  0.0727
23924SOL     OW75363   0.172   3.515   4.433  0.2567 -0.1423 -0.4322
23924SOL    HW175364   0.192   3.461   4.509  0.2063  0.3179 -0.0889
23924SOL    HW275365   0.215   3.598   4.450  0.7504 -0.2343 -1.1912
23925SOL     OW75366   0.352  10.509   8.792  0.0021  0.2004 -0.4166
23925SOL    HW175367   0.277  10.461   8.757 -0.6524  0.5115  0.5286
23925SOL    HW275368   0.318  10.597   8.809  0.2235  0.0083  1.1857
23926SOL     OW75369   9.160   8.624   7.074 -0.0464  0.0035  0.2147
23926SOL    HW175370   9.164   8.712   7.110 -1.4373  0.2201 -0.1047
23926SOL    HW275371   9.142   8.567   7.149 -1.1873  0.2449  0.1371
23927SOL     OW75372   2.750   8.377   9.333  0.1340  0.2540 -0.0252
23927SOL    HW175373   2.669   8.419   9.301  0.1980 -0.4670 -1.2078
23927SOL    HW275374   2.720   8.315   9.399 -0.3652 -0.3742 -0.8155
23928SOL     OW75375   4.360   5.296   2.395  0.2436  0.8354 -0.2388
23928SOL    HW175376   4.414   5.373   2.377  0.4882  0.4393 -1.2750
23928SOL    HW275377   4.387   5.232   2.328  0.6882 -0.4777  1.1520
23929SOL     OW75378   2.405   6.018   4.213  0.0327 -0.1005 -0.5252
23929SOL    HW175379   2.409   6.084   4.145  0.9902 -0.7684 -1.1433
23929SOL    HW275380   2.406   5.934   4.166  1.0161 -0.5796  0.2951
23930SOL     OW75381   7.175   1.504  10.481  0.5027 -0.3592  0.1136
23930SOL    HW175382   7.141   1.590  10.507  0.0167 -0.3807 -0.4162
23930SOL    HW275383   7.114   1.442  10.521  1.4472 -0.5115  1.3686
23931SOL     OW75384   6.584   8.796  10.758  0.1800 -0.0239 -0.0346
23931SOL    HW175385   6.576   8.891  10.757  0.3266 -0.0123 -0.2673
23931SOL    HW275386   6.678   8.779  10.764  0.2136 -0.1523 -0.8266
23932SOL     OW75387   2.827   4.378   6.201 -0.3861 -0.0888  0.5426
23932SOL    HW175388   2.749   4.393   6.147 -0.2658 -0.6516  0.2084
23932SOL    HW275389   2.900   4.378   6.139 -0.1078  0.4379  0.8565
23933SOL     OW75390   3.795   3.528   6.061 -0.0955 -0.1647 -0.3291
23933SOL    HW175391   3.825   3.602   6.113 -0.0832 -0.4461  0.0676
23933SOL    HW275392   3.747   3.473   6.123  0.6547 -0.9382 -0.4210
23934SOL     OW75393   8.924   1.447   3.512  0.2536 -0.6601 -0.4929
23934SOL    HW175394   8.928   1.535   3.550  1.1331 -0.8406 -0.1447
23934SOL    HW275395   8.854   1.453   3.446  0.4238  0.3513 -0.6065
23935SOL     OW75396   2.902   8.973   9.797 -0.3135 -0.0472  0.1921
23935SOL    HW175397   2.861   8.924   9.726 -1.1903 -1.7278  1.7743
23935SOL    HW275398   2.833   9.032   9.828 -0.2881 -0.1075  0.3642
23936SOL     OW75399   7.179   6.781   1.595 -0.1148  0.6741 -0.0305
23936SOL    HW175400   7.225   6.776   1.679  2.2768  2.3789 -1.1153
23936SOL    HW275401   7.130   6.863   1.599  1.0457  1.4269 -0.7241
23937SOL     OW75402   6.448  10.766   4.371  0.1569 -0.4205 -0.3801
23937SOL    HW175403   6.527  10.820   4.369  1.9116 -2.7678  0.5853
23937SOL    HW275404   6.434  10.745   4.463 -0.8673 -1.0748 -0.6583
23938SOL     OW75405   1.822   7.488   7.874  0.7045  0.1585  0.1490
23938SOL    HW175406   1.888   7.557   7.875 -0.1009  0.9539 -0.5965
23938SOL    HW275407   1.843   7.435   7.797  0.0886  0.8028 -0.4702
23939SOL     OW75408   0.335   9.130   2.393  0.5216 -0.7044 -0.0230
23939SOL    HW175409   0.395   9.102   2.325  0.2486 -0.5049 -0.3527
23939SOL    HW275410   0.248   9.110   2.358  0.3951 -0.9465  0.4245
23940SOL     OW75411   5.959   8.277   3.887 -0.0885  0.3917 -0.7645
23940SOL    HW175412   6.014   8.280   3.966 -0.0089  1.0059 -0.8418
23940SOL    HW275413   5.999   8.209   3.832 -1.0231 -1.1616  0.3637
23941SOL     OW75414   9.142   3.187   0.368 -0.2480  0.3450 -0.0985
23941SOL    HW175415   9.227   3.209   0.406  0.0700  1.7176 -1.4563
23941SOL    HW275416   9.091   3.152   0.440  1.2743  0.0526  0.8807
23942SOL     OW75417   7.450  10.318   1.960  0.4689 -0.3165 -0.1728
23942SOL    HW175418   7.417  10.392   2.010  0.8126 -0.4867  0.3155
23942SOL    HW275419   7.372  10.271   1.931  0.2061  0.8190 -1.4128
23943SOL     OW75420   7.706   2.777   4.029  0.0757 -0.4808 -0.2330
23943SOL    HW175421   7.622   2.752   4.068 -0.4091  2.7307  1.1807
23943SOL    HW275422   7.686   2.856   3.979  2.0156 -0.4999 -1.1248
23944SOL     OW75423   9.469   7.884   6.234 -0.6467 -0.0142 -0.3895
23944SOL    HW175424   9.468   7.799   6.279 -1.2435  0.3750  0.3643
23944SOL    HW275425   9.560   7.914   6.241 -1.1208  1.0683  2.6402
23945SOL     OW75426   0.766   5.219   8.783  0.1742  0.3035 -0.1474
23945SOL    HW175427   0.853   5.217   8.742  1.4704  1.5744  2.3160
23945SOL    HW275428   0.731   5.131   8.767  1.5332  0.0040 -1.9041
23946SOL     OW75429   1.816   0.351  10.586 -0.2169 -0.0419  0.4961
23946SOL    HW175430   1.836   0.404  10.664 -4.1111  1.1803  0.8639
23946SOL    HW275431   1.818   0.414  10.514 -0.0345 -0.4522  0.1439
23947SOL     OW75432   5.643   0.103   4.190  0.7620  0.1131  0.3539
23947SOL    HW175433   5.695   0.096   4.110  0.6266  1.1827  0.1700
23947SOL    HW275434   5.564   0.051   4.172  1.3074 -0.7202  0.2850
23948SOL     OW75435   5.069   4.577  10.286  0.2596  0.2040 -0.1367
23948SOL    HW175436   4.993   4.522  10.265  0.6953 -0.3773 -0.1977
23948SOL    HW275437   5.034   4.666  10.287 -0.1648  0.0726 -1.4502
23949SOL     OW75438   0.085   2.732  10.300  0.0538  0.0273  0.0996
23949SOL    HW175439   0.096   2.659  10.361  0.7804  0.6512  0.7487
23949SOL    HW275440   0.071   2.691  10.215  0.3380 -0.8625  0.4718
23950SOL     OW75441   0.566   6.461   2.558 -0.2919  0.8313  0.1612
23950SOL    HW175442   0.568   6.548   2.598 -1.4841  0.0687  1.9844
23950SOL    HW275443   0.551   6.478   2.465 -1.6392  2.5559  0.6474
23951SOL     OW75444   8.286   2.080   9.036  0.6821  0.1887  0.2381
23951SOL    HW175445   8.332   2.086   8.952  1.0444 -1.5665  0.2788
23951SOL    HW275446   8.334   2.140   9.094  0.6091  1.1923 -0.7019
23952SOL     OW75447  10.626   7.752   7.203 -0.5773  0.0804  0.1529
23952SOL    HW175448  10.660   7.682   7.147 -0.2847 -0.0067  0.4341
23952SOL    HW275449  10.597   7.707   7.283 -0.7236  0.2363  0.1878
23953SOL     OW75450   9.344   4.468   3.659 -0.0014  0.0652 -0.2437
23953SOL    HW175451   9.288   4.397   3.688 -0.9744  0.0658 -1.9977
23953SOL    HW275452   9.339   4.466   3.563  1.6802  1.1215 -0.4140
23954SOL     OW75453   8.616   8.260  10.614  0.0328 -0.0183 -0.0099
23954SOL    HW175454   8.536   8.305  10.640  0.0243 -0.8976  1.6789
23954SOL    HW275455   8.646   8.218  10.695  1.5965 -0.6163 -0.8658
23955SOL     OW75456   5.076   2.479  10.307 -0.5276 -0.3023 -0.1317
23955SOL    HW175457   5.009   2.484  10.375 -0.7995 -2.8799 -0.1110
23955SOL    HW275458   5.141   2.418  10.342  0.5715  0.2017 -1.2075
23956SOL     OW75459   3.730   8.803   5.100  0.0966 -0.1224 -0.7387
23956SOL    HW175460   3.648   8.765   5.068  0.0408  2.0291 -3.5121
23956SOL    HW275461   3.702   8.871   5.161 -0.1367 -0.0306 -0.9481
23957SOL     OW75462   6.990   9.294   4.630  0.0989  0.1077  0.1231
23957SOL    HW175463   7.055   9.364   4.630  1.5297 -1.1656  0.9952
23957SOL    HW275464   6.966   9.283   4.722 -1.0217  0.2356 -0.1359
23958SOL     OW75465   6.658   0.247   2.105 -0.1457  0.2132  0.0193
23958SOL    HW175466   6.701   0.216   2.184 -0.1454 -2.0350 -0.7747
23958SOL    HW275467   6.607   0.323   2.133 -0.9005 -1.0774  2.3976
23959SOL     OW75468   7.100   3.879   2.893  0.4334 -0.5963  0.7593
23959SOL    HW175469   7.027   3.882   2.954  0.3509 -0.2105  0.6440
23959SOL    HW275470   7.176   3.854   2.946  0.5873  0.8130  1.2442
23960SOL     OW75471  11.111   1.733   0.725 -0.1780 -0.1085  0.3434
23960SOL    HW175472  11.058   1.804   0.763 -0.7442  0.4132 -1.3412
23960SOL    HW275473  11.060   1.654   0.743 -0.1973  0.0620  1.0751
23961SOL     OW75474   1.337   1.104   3.570  0.2545 -0.5195 -0.0257
23961SOL    HW175475   1.329   1.063   3.656  0.6628 -2.5237 -0.9008
23961SOL    HW275476   1.356   1.032   3.510  1.1407  0.9730 -1.6369
23962SOL     OW75477   6.945   9.457   9.413 -0.2748 -0.0916  0.6582
23962SOL    HW175478   6.994   9.394   9.467  0.6031  0.7528  0.8742
23962SOL    HW275479   6.923   9.409   9.334  0.4916 -0.6385  0.7668
23963SOL     OW75480   0.698   7.243   9.874  0.3151  0.0709  0.4392
23963SOL    HW175481   0.657   7.237   9.961 -0.4333  1.1524  0.1895
23963SOL    HW275482   0.755   7.166   9.869 -1.0106 -1.0240  1.1746
23964SOL     OW75483   3.690   9.066   0.886  0.4729 -0.5423 -0.9424
23964SOL    HW175484   3.622   9.041   0.948 -0.7313  2.9093 -0.6138
23964SOL    HW275485   3.773   9.050   0.931 -0.3511  0.8740  1.2198
23965SOL     OW75486   1.003   6.551   4.464  0.7698  0.2175 -0.2886
23965SOL    HW175487   0.923   6.521   4.420 -0.2398  0.9705  0.9821
23965SOL    HW275488   1.041   6.471   4.501  0.1134 -0.0349 -0.1436
23966SOL     OW75489   6.724   4.524   7.605  0.1553 -0.2898  0.4154
23966SOL    HW175490   6.664   4.450   7.606 -0.2787  0.0483  2.0159
23966SOL    HW275491   6.677   4.592   7.555 -0.0803 -0.5788  0.2417
23967SOL     OW75492   6.983   9.954   2.760  0.0800  0.0545 -0.1572
23967SOL    HW175493   6.910  10.012   2.783 -0.1864 -0.3110 -0.0633
23967SOL    HW275494   6.988   9.893   2.834 -1.1402 -1.4875 -1.2763
23968SOL     OW75495   8.234   8.573   7.302  0.5204 -0.4104 -0.1619
23968SOL    HW175496   8.325   8.562   7.330  0.5017 -0.0420  0.0491
23968SOL    HW275497   8.221   8.506   7.235  1.3188  0.3567 -1.1022
23969SOL     OW75498   1.567   2.103   0.137 -0.0009  0.3543 -0.0423
23969SOL    HW175499   1.554   2.014   0.169  0.4671  0.3132  0.0377
23969SOL    HW275500   1.637   2.138   0.192 -1.7338  1.5816  1.5567
23970SOL     OW75501   3.496   4.802   4.518 -0.3967  1.0286  0.0005
23970SOL    HW175502   3.576   4.854   4.524  0.8243 -0.7313 -0.4171
23970SOL    HW275503   3.434   4.858   4.472  0.9397  2.0237 -0.6328
23971SOL     OW75504   6.300   5.177   7.711 -0.2965 -0.0164 -0.2914
23971SOL    HW175505   6.349   5.258   7.701  1.9127 -1.2236  0.1167
23971SOL    HW275506   6.330   5.141   7.795  0.3034 -2.1947 -1.3657
23972SOL     OW75507   7.822   5.735  10.124 -0.2630  0.8464  0.0434
23972SOL    HW175508   7.785   5.680  10.193  1.0791 -0.0632  0.0759
23972SOL    HW275509   7.756   5.736  10.056 -0.6806 -0.0845  0.4228
23973SOL     OW75510   7.853   3.073   8.711  0.1110  0.7364  0.1801
23973SOL    HW175511   7.817   3.108   8.630 -1.1672  1.3198  0.9836
23973SOL    HW275512   7.832   3.138   8.778  1.9704  0.7274  0.8535
23974SOL     OW75513   2.030   2.692   8.820  0.2348  0.4256 -0.3109
23974SOL    HW175514   2.086   2.614   8.826  1.1827  1.1445  0.5090
23974SOL    HW275515   1.971   2.684   8.895  0.8561  0.8771  0.2387
23975SOL     OW75516   3.578   6.212   6.754  0.0107 -0.3261 -0.1013
23975SOL    HW175517   3.588   6.239   6.845 -0.8749  1.6294 -0.5454
23975SOL    HW275518   3.488   6.182   6.747 -0.0598 -0.0487 -0.4287
23976SOL     OW75519   2.183   1.805   1.004  0.2074  0.5540  0.7172
23976SOL    HW175520   2.258   1.769   1.051  0.3496  0.7701  0.6571
23976SOL    HW275521   2.167   1.889   1.046 -0.9616 -0.1430  1.7480
23977SOL     OW75522   6.742   5.840   0.179  0.3779  0.4745 -0.1318
23977SOL    HW175523   6.740   5.869   0.087 -2.1466 -1.2946 -0.7365
23977SOL    HW275524   6.737   5.745   0.174 -1.2914  0.3908  1.8082
23978SOL     OW75525   9.430   6.837  10.554 -0.6657  0.6391 -0.7354
23978SOL    HW175526   9.346   6.791  10.551 -0.2949 -0.0991 -0.0387
23978SOL    HW275527   9.495   6.768  10.542  0.0188  0.5321  2.6639
23979SOL     OW75528  10.844   4.420   4.320 -0.2202 -0.1370  0.3348
23979SOL    HW175529  10.808   4.407   4.408 -1.2241 -0.4889 -0.1124
23979SOL    HW275530  10.894   4.502   4.326  0.0743 -0.3789  1.3330
23980SOL     OW75531   7.707   9.744  11.088 -0.3069 -0.3622  0.2407
23980SOL    HW175532   7.788   9.715  11.132  0.5201  2.2178  0.6290
23980SOL    HW275533   7.656   9.665  11.077  2.3132 -2.1478 -0.0976
23981SOL     OW75534   4.912   5.967   2.986  0.1292  0.1467 -0.5750
23981SOL    HW175535   4.838   5.933   3.037  0.9998 -0.9835 -0.0137
23981SOL    HW275536   4.874   6.033   2.928 -0.8785  1.8842  1.8581
23982SOL     OW75537   8.667   7.558   7.596 -0.1820 -0.0596  0.4785
23982SOL    HW175538   8.700   7.647   7.604  1.2230 -0.6174  1.1082
23982SOL    HW275539   8.704   7.512   7.671 -2.7126 -0.6592  1.4803
23983SOL     OW75540   3.984   7.991   8.644  0.3992 -0.0143 -0.6077
23983SOL    HW175541   3.997   7.902   8.676  3.2947  0.4817 -0.0933
23983SOL    HW275542   3.971   8.044   8.723  0.8462  0.2909 -0.7304
23984SOL     OW75543   2.932   7.435   3.203  0.4265 -1.0431  0.3610
23984SOL    HW175544   2.939   7.490   3.280  0.1489 -1.3193  0.5881
23984SOL    HW275545   2.941   7.345   3.236  0.4111 -1.1590  0.0599
23985SOL     OW75546   8.953   5.345   5.940  0.2296 -0.2306 -0.4676
23985SOL    HW175547   8.966   5.429   5.984 -1.6916  0.5586 -1.2654
23985SOL    HW275548   8.978   5.361   5.849 -0.6037 -0.3602 -0.7276
23986SOL     OW75549  10.636   2.690   7.600 -0.1488 -0.8667  0.2030
23986SOL    HW175550  10.543   2.694   7.576  0.0372  1.1895 -0.3462
23986SOL    HW275551  10.664   2.604   7.570 -1.3781 -0.6994 -1.6308
23987SOL     OW75552   0.553   4.533   7.876 -0.1567  0.6034  0.7334
23987SOL    HW175553   0.464   4.533   7.911  0.1809  0.2903  1.6346
23987SOL    HW275554   0.591   4.616   7.904 -0.0192  0.5389  0.7431
23988SOL     OW75555   7.637   4.673   5.058 -0.3670  0.5077 -0.3738
23988SOL    HW175556   7.584   4.613   5.006  0.9725 -0.9575 -0.1365
23988SOL    HW275557   7.582   4.696   5.133 -1.0209 -0.1582 -0.6447
23989SOL     OW75558   3.549   3.316   3.696  0.0766 -0.4710 -0.2554
23989SOL    HW175559   3.599   3.313   3.778 -0.5546  1.6804  0.2695
23989SOL    HW275560   3.604   3.269   3.633 -0.1379 -3.6324  1.6829
23990SOL     OW75561   8.580   5.802   3.018 -0.3944 -0.0028  0.1430
23990SOL    HW175562   8.588   5.869   3.086 -2.5431 -0.5254  0.9965
23990SOL    HW275563   8.485   5.791   3.006 -0.0890 -1.8918 -0.9685
23991SOL     OW75564   8.230   1.835   3.330 -0.2561  0.1441  1.1903
23991SOL    HW175565   8.186   1.903   3.380 -0.2218 -0.1205  1.5829
23991SOL    HW275566   8.312   1.819   3.377  0.9082  1.5498 -0.2271
23992SOL     OW75567   5.234   7.245   2.050 -0.1479 -0.3232 -0.5780
23992SOL    HW175568   5.294   7.177   2.019 -1.1482 -1.1635 -0.7205
23992SOL    HW275569   5.226   7.306   1.976 -1.7631 -1.7994 -1.7157
23993SOL     OW75570   3.698   3.331   8.811 -0.0421 -0.2240  0.2956
23993SOL    HW175571   3.617   3.370   8.845  0.7319  2.4313 -0.6107
23993SOL    HW275572   3.767   3.372   8.864  0.9322  1.0671 -1.8428
23994SOL     OW75573   5.448   3.980   6.684  1.0378  0.0949 -0.0071
23994SOL    HW175574   5.517   3.937   6.633 -0.4593  1.4247 -3.4490
23994SOL    HW275575   5.479   4.070   6.695  0.5122  0.3097 -0.2743
23995SOL     OW75576   7.520   1.996   1.623  0.0769 -0.1496  0.0073
23995SOL    HW175577   7.553   2.083   1.601  0.5617 -0.3065  0.1045
23995SOL    HW275578   7.430   2.012   1.653 -0.6777  0.0455 -2.1895
23996SOL     OW75579   7.437   5.857   8.198 -0.3170  0.0299  0.2272
23996SOL    HW175580   7.449   5.897   8.112 -1.6659  0.2025  0.0993
23996SOL    HW275581   7.459   5.927   8.259  2.0468 -0.5000  0.0965
23997SOL     OW75582   7.587   0.683   8.449 -0.3056  1.2941 -0.7791
23997SOL    HW175583   7.538   0.610   8.412  0.1452 -0.0274  1.0731
23997SOL    HW275584   7.661   0.696   8.391  1.5983 -2.1462  0.6420
23998SOL     OW75585   6.058   2.210   5.004 -0.1802  0.0673  0.0529
23998SOL    HW175586   5.985   2.203   5.066 -0.5520 -0.3673 -0.4289
23998SOL    HW275587   6.097   2.123   5.002 -0.2566  0.0411 -0.4275
23999SOL     OW75588   0.702   6.042   5.734  0.0296  0.3976 -0.5625
23999SOL    HW175589   0.664   6.121   5.694 -0.6906 -0.3581 -1.4151
23999SOL    HW275590   0.626   5.993   5.766  0.2153 -1.2171 -2.4409
24000SOL     OW75591   9.244   6.636   0.013  0.2763  0.5157  0.2308
24000SOL    HW175592   9.162   6.670   0.050 -0.1869  0.7240 -0.9380
24000SOL    HW275593   9.307   6.706   0.026  0.5094  0.0657  1.8365
24001SOL     OW75594   6.129   6.319   0.928  0.4113 -0.3721 -0.4526
24001SOL    HW175595   6.185   6.395   0.946  3.0234 -2.3535  0.3693
24001SOL    HW275596   6.077   6.308   1.007 -0.2691  0.7656 -0.7280
24002SOL     OW75597   5.379   1.092   6.651 -0.1424  0.5539  0.0263
24002SOL    HW175598   5.304   1.151   6.644 -1.4600 -1.1449 -0.8815
24002SOL    HW275599   5.342   1.010   6.684  1.5856  0.1104  1.0055
24003SOL     OW75600   3.700   3.925   0.666  0.4543  0.4686 -0.2616
24003SOL    HW175601   3.605   3.925   0.655  0.5298  0.3148 -0.9638
24003SOL    HW275602   3.727   3.834   0.654  0.6947  0.5117 -0.0790
24004SOL     OW75603   8.966   7.521   9.226 -0.4164  0.0009  0.7538
24004SOL    HW175604   9.023   7.456   9.267  0.9515  1.0865  0.6659
24004SOL    HW275605   9.021   7.563   9.160 -2.0594 -0.5353 -1.0554
24005SOL     OW75606   1.683   7.331   9.740 -0.6677 -0.1155  0.7531
24005SOL    HW175607   1.663   7.357   9.650 -2.4369 -0.1361  1.0998
24005SOL    HW275608   1.768   7.371   9.758 -0.1670 -0.3061 -0.9922
24006SOL     OW75609   5.563   1.140   0.305 -0.5689 -0.1604 -0.8122
24006SOL    HW175610   5.485   1.180   0.341 -0.4070 -0.9101  0.4336
24006SOL    HW275611   5.629   1.209   0.306 -1.3808  0.7280 -2.6542
24007SOL     OW75612   4.642   2.902   8.390  0.0941 -0.0636 -0.3156
24007SOL    HW175613   4.606   2.970   8.446 -0.5287 -0.3677 -0.3312
24007SOL    HW275614   4.734   2.924   8.380  0.0324  0.4254  0.1864
24008SOL     OW75615  10.793   3.967  10.650  0.1173 -0.0924 -0.1241
24008SOL    HW175616  10.806   3.886  10.600  2.5717 -0.3116  0.7036
24008SOL    HW275617  10.701   3.989  10.638  0.4364 -0.3369 -4.3440
24009SOL     OW75618   7.421   2.222   5.749 -0.7778 -0.3736  0.0680
24009SOL    HW175619   7.338   2.242   5.707 -1.4147 -0.7668  1.0869
24009SOL    HW275620   7.474   2.182   5.680 -1.6033 -0.5403 -0.4832
24010SOL     OW75621   3.631   8.715   4.676 -0.2911 -0.2739 -0.3993
24010SOL    HW175622   3.541   8.685   4.689 -0.3405 -0.1535 -0.4654
24010SOL    HW275623   3.657   8.748   4.762  0.1231 -1.4558 -0.0466
24011SOL     OW75624   8.333   8.374   0.717  0.5940 -0.0526  0.5176
24011SOL    HW175625   8.356   8.462   0.685  1.1983  0.1270  1.4121
24011SOL    HW275626   8.399   8.316   0.678  0.4090 -0.0582  0.2126
24012SOL     OW75627   3.631   2.742   3.612  0.1132 -0.2340  0.7324
24012SOL    HW175628   3.578   2.822   3.608 -0.6763 -0.7926 -0.3577
24012SOL    HW275629   3.655   2.724   3.522  2.0038 -0.1378  1.1779
24013SOL     OW75630  11.048  10.263  10.241 -0.5964  0.0621  0.1110
24013SOL    HW175631  10.994  10.264  10.162 -1.0893 -0.3091  0.4316
24013SOL    HW275632  11.112  10.332  10.227 -0.6081 -0.0673 -0.6604
24014SOL     OW75633   8.189   8.005   8.002  0.2308 -0.4875  0.2314
24014SOL    HW175634   8.102   8.027   8.035 -0.7522 -0.4936 -2.1941
24014SOL    HW275635   8.247   8.070   8.042 -1.3860  1.5363 -0.5559
24015SOL     OW75636   5.613   2.858   9.322  0.3458 -0.3698  0.0936
24015SOL    HW175637   5.699   2.833   9.356  0.5459 -2.0782 -1.5238
24015SOL    HW275638   5.556   2.784   9.343 -0.2561 -0.0964 -0.5210
24016SOL     OW75639   9.099   6.817   0.843 -0.1933 -0.5310  0.1191
24016SOL    HW175640   9.092   6.855   0.931 -1.6885 -0.1691 -0.1338
24016SOL    HW275641   9.177   6.858   0.805  0.2375 -0.3935  1.1259
24017SOL     OW75642   4.166   1.639   2.286  0.6294 -0.0693 -0.2149
24017SOL    HW175643   4.199   1.613   2.372  0.6934  0.4327 -0.0863
24017SOL    HW275644   4.243   1.643   2.230  0.6490  0.0682 -0.1780
24018SOL     OW75645   3.322   0.782   8.573  0.1549  0.3167 -0.1953
24018SOL    HW175646   3.376   0.851   8.534  1.2174  0.7713  1.9371
24018SOL    HW275647   3.378   0.743   8.641 -1.2219 -1.1324  0.1685
24019SOL     OW75648   5.292   3.560   1.692 -0.1242  0.0106  0.6424
24019SOL    HW175649   5.199   3.577   1.678 -0.1700  0.2831  1.2409
24019SOL    HW275650   5.313   3.489   1.631 -0.6336  0.1987  0.2412
24020SOL     OW75651   4.019   9.064   6.747 -0.1654  0.4406 -0.4052
24020SOL    HW175652   4.001   9.154   6.771  0.0446  0.3469  0.1161
24020SOL    HW275653   3.941   9.035   6.701 -0.0718  1.0111 -0.9276
24021SOL     OW75654   9.874   7.581   1.587 -0.3093 -0.3691 -0.6344
24021SOL    HW175655   9.874   7.583   1.491  0.9903 -0.4889 -0.6511
24021SOL    HW275656   9.890   7.671   1.613 -2.5038  0.0302 -0.4688
24022SOL     OW75657   7.327   6.841   4.908  0.1240  0.2481  0.4456
24022SOL    HW175658   7.315   6.841   5.003  2.0056  0.7659  0.7271
24022SOL    HW275659   7.281   6.920   4.879  0.4776  0.6998  1.0808
24023SOL     OW75660   8.867   3.350   5.333 -0.1880 -0.2465  0.2986
24023SOL    HW175661   8.911   3.306   5.405  2.4794  1.4614 -0.1714
24023SOL    HW275662   8.903   3.310   5.254  0.7244  1.2707 -0.0999
24024SOL     OW75663   8.189   0.674   7.690 -0.2249  0.1870  0.3838
24024SOL    HW175664   8.142   0.755   7.711 -0.3424  0.4814 -0.8961
24024SOL    HW275665   8.121   0.612   7.666 -0.1455 -0.3556  1.5325
24025SOL     OW75666   4.423   6.667   5.123 -0.6269 -0.4338  0.3238
24025SOL    HW175667   4.334   6.702   5.120 -0.2995  0.5374  1.0759
24025SOL    HW275668   4.469   6.727   5.182  1.1273  0.4413 -1.8209
24026SOL     OW75669   5.564   5.945   7.461  0.1773  0.5832  0.7000
24026SOL    HW175670   5.605   5.863   7.434 -0.3990  0.7863 -0.8923
24026SOL    HW275671   5.470   5.928   7.457  0.0584  1.1105  1.0669
24027SOL     OW75672   4.600   2.403   0.636 -0.3402 -0.5934  0.6294
24027SOL    HW175673   4.639   2.458   0.568  1.4111  0.8297  2.6424
24027SOL    HW275674   4.523   2.451   0.666 -0.3452 -0.5486  0.5438
24028SOL     OW75675   1.517   9.401   5.776 -0.2576 -0.6499  0.3778
24028SOL    HW175676   1.608   9.387   5.751 -0.3589  1.1596 -1.2922
24028SOL    HW275677   1.517   9.399   5.871  1.9191  1.2894  0.5040
24029SOL     OW75678   0.606   5.102   1.145  0.2015 -0.8092  0.0548
24029SOL    HW175679   0.554   5.022   1.139  0.1441 -0.7858  0.2245
24029SOL    HW275680   0.622   5.112   1.239 -1.1661  0.2600  0.2032
24030SOL     OW75681  10.654   9.957   7.434  0.3817  1.1171  0.5163
24030SOL    HW175682  10.582   9.954   7.498  0.4844 -0.2188  0.5911
24030SOL    HW275683  10.733   9.949   7.487  0.5243  1.1335  0.3053
24031SOL     OW75684   6.303   3.284   7.405 -0.1379  0.4489 -0.1790
24031SOL    HW175685   6.383   3.318   7.445 -0.4633 -0.5939  1.4520
24031SOL    HW275686   6.328   3.199   7.368  0.2537  1.5600 -2.6717
24032SOL     OW75687  10.727   6.313   1.262 -0.0315  0.2014  0.4614
24032SOL    HW175688  10.728   6.225   1.298 -2.4798  0.1317  0.5282
24032SOL    HW275689  10.701   6.369   1.335  1.6441  1.0536  0.4650
24033SOL     OW75690   4.922   1.269   8.416  0.0842 -0.3407  0.1085
24033SOL    HW175691   5.015   1.248   8.413 -0.0428 -0.7999 -1.0114
24033SOL    HW275692   4.918   1.365   8.412  0.4958 -0.3299 -0.0399
24034SOL     OW75693   9.342   9.819   6.436  0.0856 -0.0455  0.1428
24034SOL    HW175694   9.256   9.820   6.478 -0.1510  1.6043 -0.3191
24034SOL    HW275695   9.383   9.902   6.463  0.9169 -0.1063 -0.8731
24035SOL     OW75696   1.891  10.466   2.105 -0.3022 -0.1052  0.9114
24035SOL    HW175697   1.937  10.549   2.089  2.0716 -1.5695 -0.4405
24035SOL    HW275698   1.809  10.474   2.056  0.7545  0.7344 -0.8152
24036SOL     OW75699   6.260   8.224   2.322 -0.2284 -0.4105 -0.3169
24036SOL    HW175700   6.321   8.160   2.287 -0.2810 -0.3054 -0.5999
24036SOL    HW275701   6.224   8.183   2.400  0.6398 -0.2452  0.1908
24037SOL     OW75702   5.393   0.637   7.922 -0.0163 -0.1512 -0.1599
24037SOL    HW175703   5.310   0.591   7.936  0.3714 -0.4893  1.2307
24037SOL    HW275704   5.414   0.622   7.830 -0.8428 -1.1704 -0.2052
24038SOL     OW75705   3.832   2.888   3.777 -0.4232 -0.2291 -0.8444
24038SOL    HW175706   3.737   2.884   3.764 -0.9268  2.4917  0.9912
24038SOL    HW275707   3.861   2.959   3.720  0.7415 -1.6649 -2.1202
24039SOL     OW75708   7.024   5.036   8.578 -0.0736 -0.2958  0.2232
24039SOL    HW175709   6.948   5.033   8.522  0.0933 -0.6121  0.0103
24039SOL    HW275710   7.053   5.127   8.576  0.0285 -0.3403 -0.3306
24040SOL     OW75711   5.576   8.585   6.247 -0.0221 -0.1545 -0.1772
24040SOL    HW175712   5.606   8.545   6.328  0.1350  1.4501  0.6013
24040SOL    HW275713   5.633   8.549   6.179 -1.1962 -2.7862  0.1051
24041SOL     OW75714   0.261   7.687   8.120 -0.4489 -0.1550  0.0135
24041SOL    HW175715   0.216   7.603   8.132  0.6234 -0.8637 -0.7336
24041SOL    HW275716   0.345   7.676   8.164  0.2180  0.0590 -1.1458
24042SOL     OW75717   5.452   6.102   2.038  0.0832  0.1880  0.3107
24042SOL    HW175718   5.513   6.174   2.055 -0.1098  0.7845 -1.3709
24042SOL    HW275719   5.505   6.023   2.048  0.7441  0.6322  0.4054
24043SOL     OW75720   9.003   0.312   8.349 -0.4146 -0.2824 -0.2439
24043SOL    HW175721   9.092   0.304   8.315 -0.4556 -0.5898 -0.2796
24043SOL    HW275722   8.985   0.406   8.345  0.2162 -0.1174  0.5694
24044SOL     OW75723  10.040   4.678   6.501 -0.3359  0.0869 -0.0639
24044SOL    HW175724  10.114   4.738   6.500 -0.5628  0.3736 -1.0863
24044SOL    HW275725  10.078   4.591   6.487 -0.0062 -0.0411  1.4347
24045SOL     OW75726   2.971   8.876   7.762 -0.0501  0.2390 -0.6368
24045SOL    HW175727   2.984   8.969   7.745  0.1918  0.1891 -0.7333
24045SOL    HW275728   3.059   8.838   7.758 -0.0426  0.1446  0.2456
24046SOL     OW75729   9.425   9.114   4.153  0.2811  0.0264 -0.6539
24046SOL    HW175730   9.345   9.126   4.102  1.4900 -0.6210 -2.8867
24046SOL    HW275731   9.478   9.191   4.132 -0.2720  1.2075  1.9840
24047SOL     OW75732   8.619   8.385  10.953 -0.7655  0.2452  0.4027
24047SOL    HW175733   8.681   8.324  10.913 -0.1847 -0.5870  2.4691
24047SOL    HW275734   8.634   8.468  10.907  0.1034 -0.5582 -0.8265
24048SOL     OW75735  11.059   1.630   1.536 -0.2940 -0.2442 -0.1410
24048SOL    HW175736  11.040   1.581   1.456 -1.7144 -0.5561  0.3669
24048SOL    HW275737  11.154   1.645   1.533 -0.1142 -1.4665 -1.1918
24049SOL     OW75738   1.899   5.612   9.590  0.4067  0.0464  0.0240
24049SOL    HW175739   1.916   5.518   9.591  0.8507  0.1176 -0.2456
24049SOL    HW275740   1.940   5.644   9.670 -0.6625 -0.1334  0.6539
24050SOL     OW75741   9.966   9.763   8.396  0.6605 -0.1440  0.1618
24050SOL    HW175742  10.039   9.816   8.428  0.9097  0.5810 -1.4577
24050SOL    HW275743   9.888   9.816   8.414  0.7655  0.1034 -0.0934
24051SOL     OW75744   0.117   2.282   7.219  0.7089  0.0090  0.1765
24051SOL    HW175745   0.102   2.360   7.166  2.8390  0.9441  0.8210
24051SOL    HW275746   0.054   2.289   7.291 -0.3818  0.1237 -0.7571
24052SOL     OW75747   5.401   0.410   2.667 -0.2792 -0.0852  0.3527
24052SOL    HW175748   5.455   0.374   2.737  1.6783  0.1947 -0.9433
24052SOL    HW275749   5.452   0.396   2.587 -0.6083  3.1501 -0.5488
24053SOL     OW75750   8.494   1.856   4.870 -0.4627 -0.1162 -0.6122
24053SOL    HW175751   8.494   1.836   4.777 -1.1717  1.1522 -0.9107
24053SOL    HW275752   8.409   1.826   4.902  0.1405 -1.4132 -0.1447
24054SOL     OW75753   4.315   0.707   5.720  0.3605  0.0265 -0.3015
24054SOL    HW175754   4.379   0.635   5.719 -0.1567 -0.4501  0.1387
24054SOL    HW275755   4.249   0.679   5.783 -0.8870 -0.0097 -1.5800
24055SOL     OW75756   7.576   9.173   3.647  0.1713 -0.2581  0.4024
24055SOL    HW175757   7.483   9.195   3.651  0.6665  2.3206 -0.3747
24055SOL    HW275758   7.601   9.192   3.556  2.3551  3.5394  1.5982
24056SOL     OW75759   9.155  10.649   1.684  0.5814 -0.2688 -0.2174
24056SOL    HW175760   9.165  10.697   1.602  0.5713  0.0513 -0.0324
24056SOL    HW275761   9.219  10.578   1.678 -0.1439 -0.8695 -0.9481
24057SOL     OW75762  10.777  10.727   0.707  0.1053  0.1860  0.4700
24057SOL    HW175763  10.743  10.781   0.636  0.4738  1.2852  1.1006
24057SOL    HW275764  10.872  10.737   0.702  0.1141  0.7009  1.4298
24058SOL     OW75765   2.437   3.941   2.296  0.4099  0.1288  0.0205
24058SOL    HW175766   2.520   3.895   2.295  0.0145 -0.6001  0.2760
24058SOL    HW275767   2.409   3.940   2.387 -1.0747 -1.8628 -0.3831
24059SOL     OW75768   9.954   8.739   1.729  0.4597 -0.5491  0.0707
24059SOL    HW175769  10.047   8.748   1.749  0.3310  0.7798  0.1507
24059SOL    HW275770   9.915   8.820   1.761 -0.2509  0.3352 -2.7515
24060SOL     OW75771   4.000   9.944   7.800  0.2218  0.0073  0.2179
24060SOL    HW175772   3.981  10.025   7.849  2.0037  1.1696 -0.9075
24060SOL    HW275773   3.995   9.971   7.708  2.8508 -0.6194 -0.1642
24061SOL     OW75774   9.442   9.296  11.039  0.0800 -0.2819  0.2860
24061SOL    HW175775   9.353   9.263  11.043  0.5430 -1.6425 -0.0822
24061SOL    HW275776   9.453   9.327  10.949 -0.9276  2.6983  1.0774
24062SOL     OW75777   8.070   0.520   4.440 -0.3063  0.0718 -0.1046
24062SOL    HW175778   8.013   0.597   4.446 -0.7370 -0.2524  0.0215
24062SOL    HW275779   8.157   0.553   4.462 -0.4609  0.5545 -0.2032
24063SOL     OW75780   8.441   1.421   9.459  0.3252 -0.3498  0.3251
24063SOL    HW175781   8.532   1.438   9.484  0.0610  0.5814  0.7031
24063SOL    HW275782   8.391   1.491   9.501 -0.2985  0.5267 -1.7431
24064SOL     OW75783   3.442   8.723  10.005 -0.4175  0.2245  0.1402
24064SOL    HW175784   3.412   8.791   9.944 -2.8513 -0.3058  0.6308
24064SOL    HW275785   3.412   8.641   9.966 -0.4457 -0.2717  1.1770
24065SOL     OW75786   0.937  10.148   8.866  0.2411 -0.2142 -0.8936
24065SOL    HW175787   0.853  10.168   8.908  0.3820 -0.0355 -0.6931
24065SOL    HW275788   0.977  10.234   8.852 -0.0719 -0.2320 -1.9456
24066SOL     OW75789   7.559   0.658   5.047  0.0438  0.2613  0.4983
24066SOL    HW175790   7.465   0.668   5.031  0.0627  0.5799  0.5824
24066SOL    HW275791   7.564   0.592   5.117  0.0157 -2.2889 -1.7206
24067SOL     OW75792   6.399   9.692   6.914  0.7291 -0.0032  0.1359
24067SOL    HW175793   6.354   9.662   6.834 -0.5065  0.0451  0.7835
24067SOL    HW275794   6.432   9.779   6.891 -1.5250  0.9665  0.3142
24068SOL     OW75795   5.491   9.802   3.210 -0.3521 -0.1556 -0.3278
24068SOL    HW175796   5.420   9.860   3.237  0.9796  0.2817  2.7882
24068SOL    HW275797   5.448   9.719   3.189 -1.8166 -0.7434  3.9478
24069SOL     OW75798   4.236  10.532   1.909 -0.4498 -0.2364  0.2102
24069SOL    HW175799   4.199  10.451   1.944 -0.4204  0.0523  0.9291
24069SOL    HW275800   4.329  10.528   1.932 -0.5852  0.3242  0.8949
24070SOL     OW75801   5.557   9.460   5.328 -0.1584  0.0166  0.4606
24070SOL    HW175802   5.557   9.370   5.298  0.6061 -0.6001  2.1722
24070SOL    HW275803   5.488   9.464   5.394  1.4663 -0.0471  2.2621
24071SOL     OW75804   8.546   0.239   0.923 -0.4268  0.2656  0.7873
24071SOL    HW175805   8.576   0.231   0.833  1.3401  0.7573  1.2938
24071SOL    HW275806   8.506   0.326   0.928 -0.3469  0.3177  0.5235
24072SOL     OW75807   7.015   3.161   4.789 -0.1313  0.0796 -0.5643
24072SOL    HW175808   7.087   3.181   4.729  1.2344 -0.7016  0.7234
24072SOL    HW275809   7.056   3.108   4.858 -1.7528  0.3936  0.7064
24073SOL     OW75810   0.713   6.653   1.451  0.8383  0.4242 -0.1527
24073SOL    HW175811   0.632   6.633   1.402  0.3639  0.3731  0.6386
24073SOL    HW275812   0.698   6.742   1.484  0.5467 -0.0781  1.0981
24074SOL     OW75813  10.243   6.120   5.823 -0.2006  0.1004 -0.4682
24074SOL    HW175814  10.283   6.207   5.827 -0.7481  0.3311  0.3320
24074SOL    HW275815  10.227   6.097   5.915 -0.4551 -0.6603 -0.6935
24075SOL     OW75816   3.308   1.490  10.782 -0.2302 -0.4382  0.0089
24075SOL    HW175817   3.268   1.478  10.696 -0.8210 -1.1008  0.3624
24075SOL    HW275818   3.234   1.493  10.843  0.2080 -0.6273  0.5618
24076SOL     OW75819   9.595   1.477   4.611 -0.7718 -0.3972  0.2420
24076SOL    HW175820   9.579   1.442   4.699  1.2333 -2.7890 -0.2250
24076SOL    HW275821   9.537   1.426   4.555 -0.7787 -0.1100 -0.0106
24077SOL     OW75822   2.267   2.482   7.493 -0.1648  0.1022 -0.4059
24077SOL    HW175823   2.245   2.570   7.463 -1.0274  0.0380  0.0337
24077SOL    HW275824   2.354   2.466   7.455  0.4582  1.5231  0.3196
24078SOL     OW75825   8.920   4.274   7.746  0.9531 -0.1639 -0.0760
24078SOL    HW175826   8.945   4.194   7.699  1.6182  0.2141 -0.3857
24078SOL    HW275827   8.981   4.279   7.819  2.9912  1.6077 -1.7364
24079SOL     OW75828   8.071   1.476   5.623 -0.2547  0.3759 -0.5723
24079SOL    HW175829   8.083   1.545   5.559 -0.9655  1.1550  0.0996
24079SOL    HW275830   8.023   1.518   5.695  0.3093 -0.5216  0.3652
24080SOL     OW75831   9.139   9.979   2.381  0.6347  0.2864  0.2652
24080SOL    HW175832   9.104   9.958   2.295  1.7625  0.1730 -0.1841
24080SOL    HW275833   9.234   9.982   2.368  0.7739  1.0590  1.3284
24081SOL     OW75834   6.075   5.471   0.214 -0.4255 -0.0943  0.9271
24081SOL    HW175835   6.016   5.517   0.273 -0.6529 -0.1079  0.7124
24081SOL    HW275836   6.145   5.534   0.196 -0.8418  0.2493  0.4687
24082SOL     OW75837   8.378   5.530   2.105  0.1361 -0.4581 -0.8684
24082SOL    HW175838   8.382   5.590   2.180 -0.2854 -0.8455 -0.5355
24082SOL    HW275839   8.336   5.451   2.139 -0.2851 -0.5481 -1.5776
24083SOL     OW75840   3.806   2.276   6.329  0.3460 -0.9688 -0.2751
24083SOL    HW175841   3.784   2.183   6.326  1.0149 -1.1121 -0.8959
24083SOL    HW275842   3.884   2.285   6.274 -0.5105  0.1771 -1.3618
24084SOL     OW75843  10.549   1.863   7.206  0.1483  0.4198 -0.4621
24084SOL    HW175844  10.548   1.894   7.116  1.1381  1.7808 -0.0575
24084SOL    HW275845  10.518   1.938   7.257 -0.5778 -0.3888  0.3115
24085SOL     OW75846   4.523   1.570   0.584  0.2426  0.1773 -0.0864
24085SOL    HW175847   4.448   1.544   0.637 -0.0463 -0.7040 -0.8935
24085SOL    HW275848   4.596   1.576   0.645  0.3006 -2.4427  0.1978
24086SOL     OW75849   6.633   5.115   5.483  0.3079  0.2868 -0.0611
24086SOL    HW175850   6.609   5.151   5.568 -1.5341  1.8685 -1.1672
24086SOL    HW275851   6.687   5.183   5.443  2.0729 -0.8990  0.2116
24087SOL     OW75852   7.422   3.419   7.468  0.4582 -0.3142 -0.3844
24087SOL    HW175853   7.422   3.346   7.407 -2.4519 -2.1607  1.5804
24087SOL    HW275854   7.336   3.459   7.458  1.3688  1.8344 -0.1933
24088SOL     OW75855   8.166   1.728   5.512  0.4494 -0.1413 -0.8152
24088SOL    HW175856   8.112   1.739   5.590 -0.2721 -0.1244 -1.3153
24088SOL    HW275857   8.180   1.817   5.480  0.6939 -0.1535 -0.7433
24089SOL     OW75858   5.926   3.885   3.867 -0.4736  0.1127 -0.0885
24089SOL    HW175859   5.881   3.917   3.945  0.4186  2.4391 -0.4641
24089SOL    HW275860   5.998   3.832   3.901 -0.6729  0.3018  0.6426
24090SOL     OW75861   8.568   7.235   0.881  0.3414  0.1570 -0.4506
24090SOL    HW175862   8.622   7.279   0.947  0.6205 -0.4441 -0.2674
24090SOL    HW275863   8.491   7.291   0.872  1.2307  1.3132 -1.1140
24091SOL     OW75864   4.509   7.755   8.404 -0.0667  0.2637 -0.5215
24091SOL    HW175865   4.566   7.727   8.476 -1.0661  0.6296  0.4400
24091SOL    HW275866   4.511   7.682   8.343  3.4221  1.2258 -1.8236
24092SOL     OW75867   8.361   1.706   7.507  0.0516  0.1804 -0.2810
24092SOL    HW175868   8.409   1.633   7.545 -2.9380 -0.3057  3.0906
24092SOL    HW275869   8.369   1.776   7.571  0.6279  1.9831 -2.1975
24093SOL     OW75870  10.757   6.873   5.547  0.2235  0.5061 -0.5386
24093SOL    HW175871  10.720   6.908   5.466  1.2575 -0.1878 -1.3424
24093SOL    HW275872  10.712   6.920   5.617 -0.4000  1.4080 -1.5256
24094SOL     OW75873   1.306   0.779   9.367 -0.5915 -0.7664 -0.3067
24094SOL    HW175874   1.304   0.684   9.352  1.8595 -0.7943 -0.9014
24094SOL    HW275875   1.288   0.788   9.461 -2.4191 -1.6633 -0.5344
24095SOL     OW75876   9.324   0.624   0.532 -0.1874  0.2188  0.0356
24095SOL    HW175877   9.374   0.622   0.614 -0.0491 -0.7644 -0.0516
24095SOL    HW275878   9.268   0.546   0.536  0.7102 -0.5548 -1.3181
24096SOL     OW75879   4.023   1.563   9.051  0.5000 -0.1421  0.1598
24096SOL    HW175880   3.980   1.648   9.043 -1.8370 -1.4310 -2.5265
24096SOL    HW275881   4.080   1.557   8.974  0.3590 -1.1360  0.1157
24097SOL     OW75882   6.822  10.430   8.663  0.2801 -0.6844 -0.0377
24097SOL    HW175883   6.902  10.481   8.649  0.6085 -0.8045  1.3106
24097SOL    HW275884   6.790  10.458   8.748 -2.4126  1.0482 -1.4951
24098SOL     OW75885   3.971   0.550   7.297  0.2909 -0.3981 -0.1417
24098SOL    HW175886   4.036   0.489   7.332  1.0342 -0.9699 -2.3685
24098SOL    HW275887   3.941   0.509   7.216  0.0174  1.6943 -1.1523
24099SOL     OW75888   9.329   0.867   8.884 -0.0567  0.2572 -0.6485
24099SOL    HW175889   9.397   0.933   8.869  0.4062 -0.1035 -0.1797
24099SOL    HW275890   9.376   0.784   8.880 -0.4306  0.0150 -0.0631
24100SOL     OW75891   8.996   1.373   5.831  0.6354  0.2683  0.2761
24100SOL    HW175892   8.978   1.414   5.746 -0.7741  0.5540  0.6762
24100SOL    HW275893   9.000   1.279   5.812  3.1213  0.4723 -0.5236
24101SOL     OW75894   3.473   8.543   6.097 -0.2339  0.0866 -0.4525
24101SOL    HW175895   3.392   8.550   6.149  0.0921  0.1336  0.0555
24101SOL    HW275896   3.498   8.451   6.104  0.6817  0.4103  0.8229
24102SOL     OW75897   1.629   8.337   0.729 -0.1882 -0.1407  0.1399
24102SOL    HW175898   1.676   8.403   0.678 -2.2493 -0.6856 -2.7625
24102SOL    HW275899   1.599   8.274   0.663 -1.4506 -1.9926  2.3399
24103SOL     OW75900   8.809   7.923   6.637 -0.0249 -0.0448 -0.3099
24103SOL    HW175901   8.881   7.981   6.659  0.7155 -0.5508 -1.3401
24103SOL    HW275902   8.794   7.938   6.543 -1.0397 -0.1946 -0.1871
24104SOL     OW75903  10.331   0.040   1.393  0.7899  0.1098  0.0162
24104SOL    HW175904  10.330  -0.036   1.336 -0.0332  0.6694 -0.7392
24104SOL    HW275905  10.293   0.009   1.476 -0.5305 -0.0650 -0.6238
24105SOL     OW75906   5.760   3.670   7.241 -0.2601 -0.0587 -0.5394
24105SOL    HW175907   5.827   3.688   7.175 -0.5261 -1.0432 -1.1130
24105SOL    HW275908   5.757   3.574   7.246 -0.7676 -0.0111  0.3733
24106SOL     OW75909   5.995   9.045   8.533 -0.5994  0.9655  0.7890
24106SOL    HW175910   6.089   9.026   8.529 -0.8964 -0.5005  0.4518
24106SOL    HW275911   5.983   9.086   8.619  0.6672  3.2127 -0.0141
24107SOL     OW75912   0.987   5.529  10.190  0.2250 -0.2674 -0.2804
24107SOL    HW175913   0.924   5.596  10.162 -1.7368 -2.0139 -0.3232
24107SOL    HW275914   1.020   5.560  10.274  0.7831  1.6071 -1.1525
24108SOL     OW75915   3.458   1.050   8.640  0.3296 -0.2528 -0.6852
24108SOL    HW175916   3.413   1.050   8.555  0.2838  1.0406 -0.6880
24108SOL    HW275917   3.545   1.016   8.621 -0.0072 -0.9305 -1.0527
24109SOL     OW75918   1.406   9.001   7.821 -0.2113  0.1097  0.3374
24109SOL    HW175919   1.420   9.066   7.753 -0.1570  0.3907  0.6128
24109SOL    HW275920   1.453   8.923   7.791 -0.4506  0.1305 -0.0902
24110SOL     OW75921  10.469   7.831   8.032 -0.0671 -0.3452 -0.0188
24110SOL    HW175922  10.411   7.897   7.993 -1.6776 -1.5281  0.2690
24110SOL    HW275923  10.465   7.848   8.126  2.1590  1.1849 -0.1343
24111SOL     OW75924   7.173   5.424   7.083  0.4171  0.1363 -0.0763
24111SOL    HW175925   7.139   5.503   7.041  0.1551  0.4745  0.7458
24111SOL    HW275926   7.254   5.404   7.036 -1.2131 -1.1107 -2.5790
24112SOL     OW75927   0.236   4.744   3.368  0.3503 -0.2617 -0.3305
24112SOL    HW175928   0.271   4.656   3.357  0.0343 -0.5174  0.6553
24112SOL    HW275929   0.172   4.737   3.438  0.4579  0.7889 -0.1024
24113SOL     OW75930   0.080   8.125   6.145  0.2869  0.5494 -0.0668
24113SOL    HW175931   0.133   8.142   6.068  0.5877  1.3115  0.2913
24113SOL    HW275932   0.049   8.212   6.172  1.5893  0.5387  1.6569
24114SOL     OW75933   2.820  10.361   7.749 -0.1769  0.0892  0.0487
24114SOL    HW175934   2.912  10.388   7.740 -0.0879 -0.5093 -1.0197
24114SOL    HW275935   2.772  10.443   7.756  0.3953  0.4263  0.1514
24115SOL     OW75936   6.434   6.840  10.925 -0.1483 -0.1307  0.1736
24115SOL    HW175937   6.491   6.830  10.849  0.4270  0.6874  0.4789
24115SOL    HW275938   6.374   6.766  10.920  1.0868 -1.1497 -0.0312
24116SOL     OW75939   3.542   3.304   7.384 -0.0845  0.3294 -0.0202
24116SOL    HW175940   3.558   3.227   7.439  0.6557  0.0825 -0.5760
24116SOL    HW275941   3.449   3.299   7.362  0.2202 -1.0682 -1.0522
24117SOL     OW75942   4.340   5.666   6.312 -0.0787 -0.0470 -0.1257
24117SOL    HW175943   4.353   5.613   6.234  1.0320 -2.0632  1.3376
24117SOL    HW275944   4.251   5.645   6.341 -0.5900  0.9003 -0.9286
24118SOL     OW75945   2.218   8.996   1.934  0.2368  0.1736  0.3306
24118SOL    HW175946   2.205   8.902   1.921  1.2774  0.2497 -1.7591
24118SOL    HW275947   2.282   9.021   1.867  2.4655  1.7928  2.8480
24119SOL     OW75948   0.218  10.058   6.546 -0.1659  0.0756  0.2751
24119SOL    HW175949   0.237  10.019   6.461 -1.5401  0.5049 -0.2715
24119SOL    HW275950   0.146  10.005   6.581 -0.0462  0.3001  0.8749
24120SOL     OW75951   5.719   8.787   7.055  0.2106 -0.1688  0.2715
24120SOL    HW175952   5.636   8.741   7.061 -0.4393  0.9847  0.3859
24120SOL    HW275953   5.698   8.868   7.008  1.1906  0.3104  0.6374
24121SOL     OW75954   8.747   0.060   5.786 -0.0527 -0.4685  0.2650
24121SOL    HW175955   8.669   0.114   5.773 -0.0172 -0.7493 -1.3551
24121SOL    HW275956   8.729  -0.020   5.737  1.7429 -0.0250 -1.2343
24122SOL     OW75957   2.367   1.021   8.444  0.5061 -0.2408 -0.5392
24122SOL    HW175958   2.409   0.986   8.523  0.2503 -0.7486 -0.6283
24122SOL    HW275959   2.329   0.945   8.401 -2.6596  0.4398  0.7725
24123SOL     OW75960   5.762   5.165   5.104 -0.3457  0.0169  0.3389
24123SOL    HW175961   5.681   5.146   5.150 -0.9622  0.6622 -0.4500
24123SOL    HW275962   5.735   5.212   5.025  0.5739 -1.9572 -1.2435
24124SOL     OW75963  10.376   1.207   0.003  0.4530 -0.2143 -0.5974
24124SOL    HW175964  10.363   1.261  -0.075 -0.2438 -0.8138 -0.9063
24124SOL    HW275965  10.413   1.267   0.068  1.0585  0.2854 -1.3865
24125SOL     OW75966   6.649   5.642  10.455  0.0470 -0.2198 -0.1411
24125SOL    HW175967   6.598   5.564  10.433  0.3258 -0.0930 -1.3072
24125SOL    HW275968   6.730   5.632  10.406  0.4301  0.4076  0.3538
24126SOL     OW75969   6.342   3.379   5.327 -0.3492 -0.2818  0.4030
24126SOL    HW175970   6.415   3.378   5.264 -1.5945  2.0473 -1.2591
24126SOL    HW275971   6.311   3.289   5.329  0.3324 -0.6289 -1.6693
24127SOL     OW75972   3.550   4.894   0.830  0.1222  0.0509 -0.3694
24127SOL    HW175973   3.572   4.978   0.871 -0.4096  0.6242 -1.2424
24127SOL    HW275974   3.455   4.892   0.830  0.1298 -0.6639 -0.1626
24128SOL     OW75975   9.672   0.459   5.440 -0.4789 -0.5802  0.0180
24128SOL    HW175976   9.725   0.537   5.425  0.2956 -0.4272  2.8826
24128SOL    HW275977   9.734   0.387   5.445 -0.8808 -0.9238  0.1920
24129SOL     OW75978   9.631   2.277   5.257  0.1918 -0.4842 -0.5667
24129SOL    HW175979   9.695   2.255   5.189  1.4350  0.4385  0.2547
24129SOL    HW275980   9.611   2.370   5.241 -0.2321 -0.5211 -0.2536
24130SOL     OW75981   0.171   3.438   4.998  0.4369 -0.0909 -0.1546
24130SOL    HW175982   0.191   3.379   5.070 -1.3682  0.0495  0.5089
24130SOL    HW275983   0.103   3.497   5.032  0.8391  1.1559 -1.3936
24131SOL     OW75984  11.040   5.361  10.304 -0.3459  0.2787 -0.2681
24131SOL    HW175985  11.048   5.301  10.378  0.1575  1.2029  0.4495
24131SOL    HW275986  11.073   5.311  10.229  0.5872 -0.1581  0.4165
24132SOL     OW75987   7.889   5.380   5.066  0.3175 -0.0296  0.1226
24132SOL    HW175988   7.802   5.408   5.096 -0.3060  0.6111 -2.0882
24132SOL    HW275989   7.875   5.292   5.031  0.0727  0.7526 -1.9148
24133SOL     OW75990   3.120   0.605   8.502  0.1328  0.3766  0.3186
24133SOL    HW175991   3.191   0.664   8.529  0.4833 -0.4474  1.2449
24133SOL    HW275992   3.161   0.549   8.436  0.0722  0.5155  0.1610
24134SOL     OW75993  10.361   1.151   1.608 -0.3390  0.0124  0.4570
24134SOL    HW175994  10.288   1.094   1.630 -0.3937 -0.3542 -0.6333
24134SOL    HW275995  10.439   1.100   1.629 -0.3834  0.3938  1.5944
24135SOL     OW75996   3.231   3.425   0.830 -0.1665 -0.0259  0.0157
24135SOL    HW175997   3.256   3.516   0.846 -1.1496  0.5419 -1.4882
24135SOL    HW275998   3.258   3.408   0.740 -0.6591 -0.9900  0.0407
24136SOL     OW75999   7.675   9.569   6.122 -0.2108  0.4561 -0.2291
24136SOL    HW176000   7.602   9.595   6.066  0.1768 -0.0255 -0.9657
24136SOL    HW276001   7.708   9.489   6.083 -0.6395 -0.5231  1.3504
24137SOL     OW76002   0.180   7.514   3.890  0.1299 -0.4653 -0.2811
24137SOL    HW176003   0.155   7.519   3.798  0.2819  0.7384 -0.2721
24137SOL    HW276004   0.250   7.449   3.891  1.1916  0.5966 -1.2888
24138SOL     OW76005   6.454   5.584  10.963  0.1196 -0.0709  0.1689
24138SOL    HW176006   6.506   5.631  10.897 -1.6896  0.6744 -0.7813
24138SOL    HW276007   6.420   5.507  10.917  1.1922 -1.1363  1.0885
24139SOL     OW76008   7.312   1.763   3.275 -0.0557 -0.1358 -0.4717
24139SOL    HW176009   7.289   1.819   3.350 -0.7946  2.1541 -2.3076
24139SOL    HW276010   7.229   1.737   3.237  0.3145 -1.2489 -0.5610
24140SOL     OW76011   0.478   1.993   5.854 -0.0276  0.2243 -0.1779
24140SOL    HW176012   0.442   1.969   5.768  0.4447  0.0012 -0.3165
24140SOL    HW276013   0.553   1.935   5.865  1.5217  1.9987 -0.7735
24141SOL     OW76014  10.274   0.717   6.237  0.3043  0.2389 -0.2071
24141SOL    HW176015  10.227   0.651   6.289 -1.1159 -0.1291 -1.8829
24141SOL    HW276016  10.367   0.692   6.245 -0.1525 -1.6821 -0.3871
24142SOL     OW76017   8.459  10.548   8.584  0.5702 -0.4225 -1.0087
24142SOL    HW176018   8.417  10.518   8.664  1.8511 -1.6971 -0.7815
24142SOL    HW276019   8.429  10.638   8.573  1.6765  0.3551  1.7943
24143SOL     OW76020   9.002   1.198   4.723 -0.4610  0.2872 -0.2151
24143SOL    HW176021   8.982   1.105   4.735 -1.4910  0.2626 -1.8954
24143SOL    HW276022   9.097   1.203   4.734 -0.3400 -1.0161 -0.4851
24144SOL     OW76023   5.224   1.020  11.013 -0.0769 -0.2371 -0.5214
24144SOL    HW176024   5.265   1.033  10.928 -2.0072  0.7558 -1.3819
24144SOL    HW276025   5.131   1.008  10.993 -0.3766 -1.5444  1.3558
24145SOL     OW76026   7.366   5.756   3.426  0.0323 -0.3150 -0.0733
24145SOL    HW176027   7.395   5.780   3.514 -1.0249  0.9037 -0.0195
24145SOL    HW276028   7.420   5.810   3.368 -0.7609  0.5417 -0.0496
24146SOL     OW76029   2.205   7.980   6.990  0.1718 -0.3877 -0.4950
24146SOL    HW176030   2.250   7.944   7.066  1.3639 -0.8221 -1.3753
24146SOL    HW276031   2.216   8.075   6.998  0.7711 -0.4614 -0.4111
24147SOL     OW76032   9.743   1.726   1.730  0.4840  0.2615  0.4671
24147SOL    HW176033   9.794   1.729   1.650  0.5020 -0.2608  0.4532
24147SOL    HW276034   9.715   1.816   1.745  0.8804  0.4403  0.1354
24148SOL     OW76035   7.239   4.895   8.000  0.3759  0.0310 -0.2978
24148SOL    HW176036   7.237   4.938   7.915 -2.2922 -0.6298 -0.6528
24148SOL    HW276037   7.303   4.824   7.989 -0.2251 -0.3071 -1.9177
24149SOL     OW76038   8.198   2.913  10.434  0.0027 -0.2640 -0.0286
24149SOL    HW176039   8.158   2.919  10.347  0.3190 -0.7945 -0.2117
24149SOL    HW276040   8.292   2.909  10.417  0.0683 -0.3404  0.3395
24150SOL     OW76041   6.445   3.141   3.597  0.1581  0.6793  0.3714
24150SOL    HW176042   6.503   3.119   3.671 -0.7507 -0.0061  0.9034
24150SOL    HW276043   6.496   3.118   3.519  0.2603 -0.8505  0.8572
24151SOL     OW76044   3.331  10.234   4.405 -0.3279  0.5993 -0.2292
24151SOL    HW176045   3.420  10.231   4.372 -1.2186 -1.0736 -2.6895
24151SOL    HW276046   3.292  10.310   4.361 -0.4086  0.7551  0.1059
24152SOL     OW76047   6.328   0.905  10.487 -0.0613  0.4835 -0.2974
24152SOL    HW176048   6.315   0.810  10.478  1.1588  0.4504 -2.5616
24152SOL    HW276049   6.285   0.927  10.569 -0.7677 -1.9588  0.0898
24153SOL     OW76050   3.519   0.554  11.063 -0.3130  0.2784  0.1754
24153SOL    HW176051   3.558   0.575  11.148  1.2453 -1.1741 -0.1162
24153SOL    HW276052   3.539   0.461  11.050 -1.2983  0.2465 -1.3912
24154SOL     OW76053   3.382   3.624   1.327 -0.0814 -0.9090  0.8813
24154SOL    HW176054   3.334   3.700   1.294  0.2430 -1.0555  0.0257
24154SOL    HW276055   3.370   3.557   1.259 -0.3589 -1.6215  1.6228
24155SOL     OW76056   8.360   3.011   8.646 -0.8248 -0.6172  0.0346
24155SOL    HW176057   8.339   3.040   8.557 -0.6946  1.1227  0.5449
24155SOL    HW276058   8.456   3.011   8.649 -0.8273 -0.8582  0.1182
24156SOL     OW76059   3.145  11.026   5.605 -0.4709 -0.4354  0.3091
24156SOL    HW176060   3.200  11.061   5.535  0.7840 -3.9609 -0.6489
24156SOL    HW276061   3.171  11.077   5.682  1.3270  0.6044 -0.8900
24157SOL     OW76062   8.752   4.437   0.271 -0.3143  0.4345  0.0468
24157SOL    HW176063   8.845   4.427   0.290 -0.3573  0.2296  0.1569
24157SOL    HW276064   8.750   4.464   0.179 -0.0881  1.9236  0.4593
24158SOL     OW76065   3.572   6.512   2.854 -0.6158  0.1114  0.0635
24158SOL    HW176066   3.514   6.557   2.915 -1.1337  1.4045 -1.3248
24158SOL    HW276067   3.623   6.452   2.909 -1.7609  0.4947  1.6015
24159SOL     OW76068   7.375   9.401   5.423 -0.6557  0.2854  0.5689
24159SOL    HW176069   7.469   9.382   5.428 -0.5582  0.9484  1.5898
24159SOL    HW276070   7.345   9.353   5.346  0.1362 -1.5183  1.3289
24160SOL     OW76071   2.385   2.868   7.948 -0.6009 -0.6837  0.3291
24160SOL    HW176072   2.461   2.876   8.006 -2.3766 -1.2191  2.8615
24160SOL    HW276073   2.405   2.792   7.894  0.6274 -0.8856  1.0244
24161SOL     OW76074   3.408   0.779   0.322 -0.1749  0.0565 -0.1321
24161SOL    HW176075   3.371   0.797   0.236  2.3640  0.7092 -1.1782
24161SOL    HW276076   3.388   0.687   0.338 -1.8093  0.2605 -0.7813
24162SOL     OW76077   0.833   0.533   4.346 -0.0472  0.0806  0.1196
24162SOL    HW176078   0.923   0.507   4.327 -0.1495 -0.8247  0.7679
24162SOL    HW276079   0.806   0.474   4.417 -1.7460 -0.9068 -1.2805
24163SOL     OW76080   3.665   3.276   2.169 -0.1062 -0.0432  0.5767
24163SOL    HW176081   3.735   3.214   2.187 -0.0515 -0.0104  0.4793
24163SOL    HW276082   3.599   3.226   2.121  0.1838  0.1056  0.0112
24164SOL     OW76083   3.908   1.842   8.997 -0.0933  0.2806  0.8532
24164SOL    HW176084   3.857   1.822   8.918  1.1013 -1.3271  0.4444
24164SOL    HW276085   3.944   1.929   8.980 -1.0486  0.5958  0.2970
24165SOL     OW76086   7.147   6.510   9.033  0.1107  0.0331  0.5552
24165SOL    HW176087   7.165   6.600   9.006 -0.4432  0.0793  0.3171
24165SOL    HW276088   7.051   6.504   9.033  0.1330 -1.0867 -1.2258
24166SOL     OW76089   6.842   4.352   2.748  0.1879  0.7123 -0.2494
24166SOL    HW176090   6.927   4.398   2.752  0.3926  0.8167 -3.1055
24166SOL    HW276091   6.852   4.292   2.674 -1.1045 -1.8912  1.5420
24167SOL     OW76092   6.628   0.295   7.922 -0.4398  0.4219  0.4091
24167SOL    HW176093   6.644   0.288   8.017 -1.2620  0.7288  0.5762
24167SOL    HW276094   6.551   0.242   7.907  0.9264 -1.4326 -0.4687
24168SOL     OW76095   3.228   6.897   8.267  0.1749  0.3756  0.5714
24168SOL    HW176096   3.318   6.927   8.280 -0.4168  2.9806 -0.6244
24168SOL    HW276097   3.231   6.803   8.284  2.8100  0.6236  1.9613
24169SOL     OW76098   0.593  10.952   6.562  0.0345 -0.0166  0.3097
24169SOL    HW176099   0.677  10.906   6.552 -0.2448 -0.8575  1.5309
24169SOL    HW276100   0.527  10.886   6.540 -0.3347  0.6166 -0.5599
24170SOL     OW76101   1.619   5.811   0.141  0.1768 -0.8456 -0.5019
24170SOL    HW176102   1.702   5.764   0.145 -0.2134 -1.5780 -0.7749
24170SOL    HW276103   1.613   5.858   0.224  1.9178  1.0650 -1.3841
24171SOL     OW76104  10.895   7.906   4.811  0.1213  0.2393 -0.6644
24171SOL    HW176105  10.813   7.889   4.858  0.8662  0.1554  0.6483
24171SOL    HW276106  10.874   7.978   4.751 -0.0838  2.5892  2.0395
24172SOL     OW76107   7.528   5.834   5.430 -0.3579  0.0717 -0.4877
24172SOL    HW176108   7.461   5.872   5.487 -0.6069 -0.6667 -0.2909
24172SOL    HW276109   7.567   5.910   5.385  0.7190  0.8267  1.5915
24173SOL     OW76110   5.537   9.192   5.270 -0.6632 -0.5597 -0.3224
24173SOL    HW176111   5.594   9.129   5.314  0.5536 -0.0841 -1.1403
24173SOL    HW276112   5.453   9.147   5.260  0.6683 -2.8028 -2.5386
24174SOL     OW76113   9.468   3.354   2.330  0.4084  0.1322  0.0279
24174SOL    HW176114   9.516   3.276   2.357  0.5812  0.8084  1.7505
24174SOL    HW276115   9.484   3.361   2.236  2.1309 -0.7075  0.2360
24175SOL     OW76116   2.684   8.922   4.425  0.7418  0.7232  0.3739
24175SOL    HW176117   2.606   8.973   4.405 -0.4971 -0.9574  0.7398
24175SOL    HW276118   2.664   8.834   4.395  2.0794  0.0081  1.4697
24176SOL     OW76119   3.365   7.634   7.701 -0.3890 -0.1996  0.6401
24176SOL    HW176120   3.281   7.587   7.696 -2.3313  2.9339  0.8361
24176SOL    HW276121   3.388   7.652   7.610  0.7467 -1.9783  0.5203
24177SOL     OW76122   0.168   0.556   9.435  0.1244  0.1792  0.0933
24177SOL    HW176123   0.158   0.572   9.341  0.7997  1.5681  0.2186
24177SOL    HW276124   0.087   0.589   9.474 -0.1853 -0.4618 -0.0022
24178SOL     OW76125   2.090   5.397  10.365 -0.6246 -0.1433 -0.5416
24178SOL    HW176126   2.074   5.403  10.271 -0.6229  0.4809 -0.5043
24178SOL    HW276127   2.064   5.307  10.388 -1.0194 -0.1665 -1.0581
24179SOL     OW76128   4.797   4.134  11.079  0.5459 -0.0926 -0.0697
24179SOL    HW176129   4.831   4.045  11.070 -1.1291 -0.7400 -0.1918
24179SOL    HW276130   4.764   4.138  11.169 -0.4457  0.0161 -0.4336
24180SOL     OW76131   9.895   6.165   6.015  0.1205 -0.3668 -0.0471
24180SOL    HW176132   9.969   6.106   6.028  0.3270 -0.2507 -0.7072
24180SOL    HW276133   9.830   6.112   5.968  0.5788  0.1263 -1.2638
24181SOL     OW76134   7.039   8.104   8.397 -0.3945 -0.0029 -0.0708
24181SOL    HW176135   7.053   8.023   8.447 -1.9428 -0.3199 -0.0979
24181SOL    HW276136   6.958   8.140   8.431  0.2727  1.5729 -0.0611
24182SOL     OW76137   3.448  10.855   9.478  0.4027 -0.0613  0.3782
24182SOL    HW176138   3.450  10.921   9.409 -0.0678 -0.0057  0.4133
24182SOL    HW276139   3.539  10.847   9.506  0.3212  1.4088  1.1576
24183SOL     OW76140   5.629   0.608   9.300 -0.5230 -1.0197  0.0997
24183SOL    HW176141   5.578   0.552   9.359  0.8725 -1.4305  0.9618
24183SOL    HW276142   5.715   0.615   9.341 -0.1287  0.3592 -0.8792
24184SOL     OW76143   2.849   7.839   0.692  0.2713  0.7655  0.1755
24184SOL    HW176144   2.836   7.754   0.651  0.4303  0.9194 -0.1925
24184SOL    HW276145   2.806   7.901   0.633  1.7922  1.1674 -0.5424
24185SOL     OW76146   3.503   6.139   9.633  0.1741 -0.0502 -0.2155
24185SOL    HW176147   3.434   6.119   9.569  1.0933 -2.6006 -0.5420
24185SOL    HW276148   3.578   6.166   9.580 -0.0114  0.9179  0.0117
24186SOL     OW76149   8.713   5.120   7.633  0.1438  0.1048  0.3363
24186SOL    HW176150   8.772   5.047   7.614 -0.5448 -0.2490 -0.5296
24186SOL    HW276151   8.685   5.105   7.723  0.7931 -0.1342  0.5034
24187SOL     OW76152   3.965   1.692   6.912 -0.3698  0.2387 -0.3709
24187SOL    HW176153   4.040   1.751   6.909 -0.4435  0.3414 -0.1940
24187SOL    HW276154   3.999   1.611   6.950 -0.4075  0.3729 -0.0498
24188SOL     OW76155   2.341   8.522   5.205 -0.3050  0.2601  0.1092
24188SOL    HW176156   2.330   8.615   5.185 -0.4136  0.6522  1.8577
24188SOL    HW276157   2.254   8.492   5.229 -0.1273 -0.0894  0.3273
24189SOL     OW76158  11.025   2.607   9.104 -0.2560  0.1959  0.0560
24189SOL    HW176159  11.078   2.623   9.026  1.0333  0.5512  0.9804
24189SOL    HW276160  11.030   2.512   9.117 -0.9852  0.0508 -0.6217
24190SOL     OW76161   5.615   8.965   3.552 -0.3362  0.4657  0.7105
24190SOL    HW176162   5.592   8.945   3.461 -0.4645  0.4947  0.7363
24190SOL    HW276163   5.578   9.052   3.568 -1.8009 -0.2321  1.3123
24191SOL     OW76164   6.060   5.296   2.166 -0.3297  0.6822  0.0901
24191SOL    HW176165   6.146   5.276   2.202  0.1511  0.3457 -1.1929
24191SOL    HW276166   6.004   5.223   2.194  0.5686 -0.7403 -1.6250
24192SOL     OW76167   7.940   3.824   0.405 -0.5026  0.1083  0.5018
24192SOL    HW176168   7.915   3.828   0.497 -0.3149 -2.9964  0.7997
24192SOL    HW276169   8.002   3.896   0.393  2.4775 -1.6226  3.8342
24193SOL     OW76170   0.438   0.070   8.757 -0.4010  0.2515 -0.0851
24193SOL    HW176171   0.373   0.009   8.790  1.0790 -0.8564  0.9044
24193SOL    HW276172   0.519   0.046   8.802  1.0092  0.7128 -2.2017
24194SOL     OW76173   2.099  10.265   0.948  0.3700 -0.0267 -0.4436
24194SOL    HW176174   2.177  10.213   0.927  0.1838 -0.4838 -0.0148
24194SOL    HW276175   2.028  10.201   0.950  0.2325  0.1495  0.6892
24195SOL     OW76176   6.905   0.321   6.739  0.4197  0.4599 -0.1562
24195SOL    HW176177   6.922   0.387   6.806  0.9619  1.9057 -1.6728
24195SOL    HW276178   6.935   0.239   6.780  0.8006  1.2971  1.3412
24196SOL     OW76179   1.826   7.353   6.449  0.1293 -0.0393 -0.0159
24196SOL    HW176180   1.905   7.308   6.418  1.6600  2.2084  0.3813
24196SOL    HW276181   1.764   7.344   6.377  0.7541 -1.7271 -0.4050
24197SOL     OW76182   7.667   6.487   1.767 -0.4590  0.3089 -0.1369
24197SOL    HW176183   7.715   6.405   1.754 -0.4837  0.0220  1.3220
24197SOL    HW276184   7.735   6.554   1.768 -0.3851  0.2471 -0.8408
24198SOL     OW76185   4.591   0.533   2.827  0.0854 -0.7333  0.1748
24198SOL    HW176186   4.682   0.544   2.856 -0.2719  0.7363  0.8181
24198SOL    HW276187   4.598   0.523   2.732  0.8769  0.3946  0.0883
24199SOL     OW76188   1.076   2.390   8.738 -0.1750  0.4590 -0.0375
24199SOL    HW176189   0.981   2.397   8.750  0.0284  2.7631  0.7895
24199SOL    HW276190   1.107   2.347   8.818 -0.3730  1.2906  0.4974
24200SOL     OW76191   3.548  10.241   5.732 -0.2269  0.4765  0.2130
24200SOL    HW176192   3.484  10.186   5.688 -0.5255  1.9055 -1.2215
24200SOL    HW276193   3.631  10.218   5.690  0.2773 -1.3120  2.0113
24201SOL     OW76194   2.700   7.798   3.317 -1.3510 -0.0102  0.2910
24201SOL    HW176195   2.698   7.703   3.319 -2.1371 -0.0057 -0.0358
24201SOL    HW276196   2.615   7.825   3.351 -1.3410  0.5705 -0.1234
24202SOL     OW76197  10.851   1.661   9.827  0.1461 -0.4479 -0.0445
24202SOL    HW176198  10.905   1.717   9.882 -2.3699 -0.0979  2.2395
24202SOL    HW276199  10.879   1.682   9.737  3.8120 -0.4465  0.9169
24203SOL     OW76200   5.125   2.572   5.904  0.2142 -0.3333 -0.4868
24203SOL    HW176201   5.155   2.571   5.813  0.4249 -0.4017 -0.4187
24203SOL    HW276202   5.153   2.487   5.939 -0.3692 -0.5414 -0.5166
24204SOL     OW76203   4.917   7.253   7.268  0.6121 -0.3963 -0.0304
24204SOL    HW176204   4.852   7.295   7.210  1.6870 -0.9672 -1.7314
24204SOL    HW276205   4.885   7.271   7.356 -1.1470  0.4732 -0.7825
24205SOL     OW76206   2.835   9.706   3.574  0.3188 -0.1192  0.3322
24205SOL    HW176207   2.805   9.674   3.488  0.7998  0.0920  0.0842
24205SOL    HW276208   2.913   9.654   3.593 -0.7081 -1.3568  1.4280
24206SOL     OW76209   0.423   1.221   3.505  0.0910 -0.0969  0.2482
24206SOL    HW176210   0.382   1.307   3.498  0.6830  0.0855 -1.6158
24206SOL    HW276211   0.465   1.208   3.419  1.8631 -1.3018  1.2362
24207SOL     OW76212   4.617   4.256   6.220 -0.0171  0.2088  0.3039
24207SOL    HW176213   4.533   4.301   6.211 -0.0720  0.6786  2.5583
24207SOL    HW276214   4.647   4.243   6.130 -2.7999 -0.5905 -0.6192
24208SOL     OW76215   8.050   6.379   6.528 -0.2326 -0.0241 -0.1902
24208SOL    HW176216   7.966   6.420   6.549  0.9034  1.9499  0.7432
24208SOL    HW276217   8.060   6.394   6.434 -0.2825  1.0579 -0.0392
24209SOL     OW76218   4.116   7.601   7.316  0.2077  0.3411 -0.3332
24209SOL    HW176219   4.088   7.639   7.399  0.7047  0.3486 -0.1652
24209SOL    HW276220   4.045   7.620   7.255  0.5090  1.7056 -0.2977
24210SOL     OW76221   8.722   4.662   6.027  0.7596 -0.2835 -0.0720
24210SOL    HW176222   8.728   4.736   6.087 -1.6838 -1.5362  1.9384
24210SOL    HW276223   8.748   4.586   6.079 -0.3305 -1.2819 -0.9087
24211SOL     OW76224   3.334   3.673   0.897 -0.6122 -0.1752 -0.2311
24211SOL    HW176225   3.321   3.756   0.851  1.4780  0.6796  0.6373
24211SOL    HW276226   3.280   3.681   0.976  0.6868  1.0140  0.5798
24212SOL     OW76227   9.095   1.224   7.511  0.3277 -0.0988  0.2431
24212SOL    HW176228   9.013   1.198   7.469  1.9575 -1.6400 -2.2367
24212SOL    HW276229   9.083   1.317   7.532 -2.3135 -0.4718  0.7675
24213SOL     OW76230   3.302   2.302   1.976 -0.5389 -0.0087 -0.2739
24213SOL    HW176231   3.225   2.344   1.938 -1.2206 -0.0902  0.9707
24213SOL    HW276232   3.280   2.209   1.978 -0.6769  0.0345  0.6576
24214SOL     OW76233   3.062   1.216   0.556 -0.9341 -0.8676  0.1796
24214SOL    HW176234   3.132   1.264   0.601 -0.4502 -0.4968 -0.9527
24214SOL    HW276235   2.989   1.278   0.554 -0.8865 -0.8077  0.2663
24215SOL     OW76236   0.575   9.414   0.797 -0.3431  0.1460 -0.5257
24215SOL    HW176237   0.530   9.453   0.872  0.0392 -0.1079 -0.1650
24215SOL    HW276238   0.667   9.435   0.810 -0.3091  0.3740 -1.0921
24216SOL     OW76239   7.208   9.931   4.859  0.2988 -0.4798  0.4648
24216SOL    HW176240   7.268   9.874   4.908  1.4442 -0.7770 -1.2007
24216SOL    HW276241   7.147   9.964   4.925  1.7097 -0.9357  2.0645
24217SOL     OW76242   6.808   0.458   3.279  0.0002 -0.2402  0.1045
24217SOL    HW176243   6.774   0.534   3.231  1.7273 -0.1655 -1.1258
24217SOL    HW276244   6.871   0.418   3.218  1.3375 -0.9102  1.8380
24218SOL     OW76245   1.292   4.835   7.617  0.5484  0.0801  0.2720
24218SOL    HW176246   1.345   4.764   7.581 -0.5063 -0.3344 -0.4902
24218SOL    HW276247   1.337   4.915   7.590  0.4484 -0.2538 -0.9197
24219SOL     OW76248  10.082   0.688   2.316 -0.1701 -0.4954  0.1206
24219SOL    HW176249  10.153   0.641   2.273 -0.0049 -2.4961  2.3607
24219SOL    HW276250  10.068   0.766   2.262  0.5864 -2.3321 -2.9460
24220SOL     OW76251   6.073   2.096   9.527  0.0320 -0.5909 -0.1068
24220SOL    HW176252   6.026   2.175   9.500  0.1852 -0.2156  0.6896
24220SOL    HW276253   6.003   2.032   9.541  0.0037 -1.1150 -2.2920
24221SOL     OW76254   5.548   3.937   7.023  0.0012 -0.3770 -0.5622
24221SOL    HW176255   5.644   3.938   7.031 -0.0711 -1.3904  0.9371
24221SOL    HW276256   5.529   3.866   6.962  0.1981 -0.0005 -1.0715
24222SOL     OW76257   4.067   7.928   1.797  0.4488 -0.0522  0.2979
24222SOL    HW176258   4.144   7.910   1.742  0.4018  2.2288 -0.6101
24222SOL    HW276259   4.059   8.023   1.796 -1.1279 -0.1220  2.1716
24223SOL     OW76260   8.166   1.436   7.517  0.0678 -0.0405 -0.1027
24223SOL    HW176261   8.260   1.440   7.498  0.4471  2.1794  1.7251
24223SOL    HW276262   8.131   1.518   7.482 -1.3783 -1.1515 -1.3974
24224SOL     OW76263   6.513  10.417   0.436 -0.4081 -0.3982 -0.5641
24224SOL    HW176264   6.418  10.407   0.430 -0.5048 -0.1502  0.3445
24224SOL    HW276265   6.545  10.330   0.460 -0.7101  0.1236  1.9587
24225SOL     OW76266   6.859   7.190   5.784  0.0482 -0.4571 -0.1864
24225SOL    HW176267   6.926   7.259   5.790 -0.9306  0.5818 -0.8009
24225SOL    HW276268   6.908   7.110   5.768  1.1598  0.2532 -0.4505
24226SOL     OW76269   4.191   9.251   3.675  0.1963  0.3981  0.2315
24226SOL    HW176270   4.109   9.298   3.691 -1.1676 -2.0241  0.8229
24226SOL    HW276271   4.250   9.283   3.744 -1.3615 -0.2092  1.9379
24227SOL     OW76272   4.356   3.378   4.341 -0.0270 -0.0079  0.0437
24227SOL    HW176273   4.450   3.379   4.326 -0.1681 -0.6804 -1.0011
24227SOL    HW276274   4.339   3.294   4.382 -0.2938 -0.3416 -0.7315
24228SOL     OW76275   5.797  10.689  10.831 -0.1207 -0.2384  0.4011
24228SOL    HW176276   5.876  10.681  10.884 -0.0197 -1.0393  0.1441
24228SOL    HW276277   5.781  10.600  10.799 -0.9377 -0.0166  0.1826
24229SOL     OW76278   4.259   9.668   2.271 -0.0320  0.1994 -0.2169
24229SOL    HW176279   4.177   9.627   2.301 -0.2660  0.2028 -0.8301
24229SOL    HW276280   4.254   9.664   2.176  0.6328  0.3134 -0.2609
24230SOL     OW76281   3.203   8.585   5.126 -0.2111 -0.7392 -0.8967
24230SOL    HW176282   3.181   8.659   5.182 -2.5264  0.2464 -2.9090
24230SOL    HW276283   3.291   8.603   5.094  0.1764 -0.0873  0.4901
24231SOL     OW76284  10.556   7.614   1.097  0.0143  0.0638 -0.3312
24231SOL    HW176285  10.487   7.677   1.074 -0.5630 -0.4834 -0.1202
24231SOL    HW276286  10.545   7.542   1.034 -1.4307 -1.3434  1.4336
24232SOL     OW76287   5.883   7.603   9.655 -0.0347 -0.0144  0.3419
24232SOL    HW176288   5.862   7.655   9.733  1.3436 -0.8912  1.3401
24232SOL    HW276289   5.877   7.512   9.685  3.2148 -0.3654  0.2537
24233SOL     OW76290   0.058   9.177   6.541  0.3125  0.2578 -0.3601
24233SOL    HW176291   0.054   9.158   6.448  0.1192  0.1834 -0.3378
24233SOL    HW276292   0.104   9.102   6.580 -0.0294  0.0587 -0.3338
24234SOL     OW76293   1.336  10.739   5.453  0.3779  0.7236 -0.3999
24234SOL    HW176294   1.315  10.668   5.514  1.0539 -0.7013 -1.7767
24234SOL    HW276295   1.279  10.812   5.481  1.3523  0.4838  2.5167
24235SOL     OW76296   5.745   3.304   5.416  0.1218 -0.5082  0.1716
24235SOL    HW176297   5.784   3.366   5.354 -0.8462 -1.0119 -0.9806
24235SOL    HW276298   5.657   3.339   5.432 -0.1076 -1.1059  0.2216
24236SOL     OW76299   2.560   8.090   5.194 -0.1636  0.0581  0.2832
24236SOL    HW176300   2.576   8.101   5.287  0.0800  0.6700  0.1713
24236SOL    HW276301   2.494   8.020   5.189 -0.1878  0.0317  0.9080
24237SOL     OW76302   0.646  11.070   2.097 -0.1369 -0.0270  0.3121
24237SOL    HW176303   0.593  11.064   2.176 -0.1452  2.1499  0.5433
24237SOL    HW276304   0.585  11.098   2.029 -0.3975 -3.0482 -0.8628
24238SOL     OW76305   5.967  10.784   4.584  0.4468 -0.0944 -0.0745
24238SOL    HW176306   6.027  10.743   4.522 -0.2413  0.1960 -0.9553
24238SOL    HW276307   5.885  10.734   4.574  0.2024  0.2238  0.2894
24239SOL     OW76308   1.080   7.218   5.647  0.0087 -0.5200 -0.0747
24239SOL    HW176309   1.155   7.274   5.631 -0.9165  0.6182 -0.6211
24239SOL    HW276310   1.108   7.130   5.621  1.0313 -0.0553 -0.5598
24240SOL     OW76311   0.744   0.418   9.822  0.4380 -0.3006  0.1728
24240SOL    HW176312   0.838   0.419   9.808  0.5560 -1.1521  0.8154
24240SOL    HW276313   0.706   0.421   9.734  1.1104 -3.3407 -0.3353
24241SOL     OW76314   8.974   8.065   8.086 -0.6441 -0.0224 -0.4540
24241SOL    HW176315   8.883   8.044   8.107 -0.6613  1.3917  1.0816
24241SOL    HW276316   8.971   8.155   8.053  0.0930 -0.3361 -1.4337
24242SOL     OW76317   2.612   9.517  10.610  0.3829  0.5050 -0.2440
24242SOL    HW176318   2.608   9.436  10.661  0.5731 -0.0324 -1.0622
24242SOL    HW276319   2.634   9.585  10.674  0.2930 -0.0977  0.4395
24243SOL     OW76320   0.748   6.393   6.221  0.1853 -0.6004  0.1796
24243SOL    HW176321   0.720   6.352   6.302  1.5557 -1.8532  0.0672
24243SOL    HW276322   0.757   6.486   6.242  0.4017 -0.8939  1.4346
24244SOL     OW76323   1.615   9.264   8.289  0.6977  0.3317  0.2377
24244SOL    HW176324   1.561   9.340   8.268  1.1872  0.7530  0.4938
24244SOL    HW276325   1.586   9.238   8.377 -0.9046 -1.0458 -0.6315
24245SOL     OW76326   3.026   9.640   0.368  0.0787 -0.4499  0.2102
24245SOL    HW176327   3.060   9.577   0.304  1.5703  1.2557 -0.7826
24245SOL    HW276328   3.070   9.618   0.450 -0.1909 -1.3156  0.1283
24246SOL     OW76329   3.935   1.765   2.217  0.1165 -0.0971  0.0938
24246SOL    HW176330   3.924   1.830   2.286 -0.2776 -0.6774  0.5839
24246SOL    HW276331   3.983   1.693   2.258 -1.2196 -1.0082  0.1506
24247SOL     OW76332  10.209   9.326   6.052 -0.0153 -0.6041 -0.7540
24247SOL    HW176333  10.147   9.278   6.106 -0.3269 -0.4053 -0.9295
24247SOL    HW276334  10.221   9.410   6.098 -0.5730 -0.2837 -1.1871
24248SOL     OW76335   1.082   1.247   6.776  0.5690  0.3830 -0.2652
24248SOL    HW176336   1.163   1.219   6.819 -0.0188 -0.2514  0.4648
24248SOL    HW276337   1.052   1.169   6.729 -0.3498  0.1575  0.6444
24249SOL     OW76338   9.559   4.133   3.843 -0.1955  0.0906  0.0258
24249SOL    HW176339   9.607   4.080   3.779  1.7027  0.7074  0.8676
24249SOL    HW276340   9.530   4.070   3.909 -0.1700 -0.2199 -0.2517
24250SOL     OW76341   8.396   1.132   4.642  0.4270  0.0189  0.5882
24250SOL    HW176342   8.431   1.044   4.656 -0.6486 -0.5718 -0.2426
24250SOL    HW276343   8.341   1.123   4.564  1.5625  1.7894 -0.4812
24251SOL     OW76344   4.106   3.348   7.441  0.2756 -0.4885  0.3015
24251SOL    HW176345   4.094   3.412   7.511 -0.9982 -1.9120  1.4757
24251SOL    HW276346   4.020   3.307   7.431 -0.0036  0.6436 -3.1915
24252SOL     OW76347   7.219   9.642   4.133 -0.0357 -0.7277 -0.6428
24252SOL    HW176348   7.244   9.578   4.067 -1.0199  0.3989 -2.1525
24252SOL    HW276349   7.150   9.694   4.093 -0.0250  0.6075  0.9282
24253SOL     OW76350   5.121  10.284   2.807  0.0246 -0.2368 -0.4964
24253SOL    HW176351   5.213  10.266   2.787 -0.3044 -0.2554 -2.0979
24253SOL    HW276352   5.119  10.376   2.831  0.1420  0.3711 -2.7020
24254SOL     OW76353   4.452   5.209   6.000 -0.3272  0.5338  0.2897
24254SOL    HW176354   4.521   5.172   5.946 -0.1447 -0.7182  1.3438
24254SOL    HW276355   4.498   5.249   6.074 -0.7176 -2.1069  2.1007
24255SOL     OW76356   0.981   0.027   3.560 -0.2892  0.0805 -0.4105
24255SOL    HW176357   0.985   0.008   3.466  0.2001 -0.4128 -0.2908
24255SOL    HW276358   1.033  -0.041   3.601 -1.4269 -0.3745  0.3331
24256SOL     OW76359  10.499   3.841   1.841 -0.0023 -0.0349  0.0233
24256SOL    HW176360  10.409   3.809   1.831 -0.5238  1.1788  0.5604
24256SOL    HW276361  10.541   3.776   1.898 -1.1182  0.3541  1.3581
24257SOL     OW76362   2.901  10.614  10.498 -0.0393  0.1061 -0.6575
24257SOL    HW176363   2.829  10.658  10.543 -0.6500  0.5687 -2.0111
24257SOL    HW276364   2.972  10.679  10.497 -0.1161  0.1921 -0.5825
24258SOL     OW76365   4.644   6.214   7.493  0.3519 -0.2845  0.1778
24258SOL    HW176366   4.704   6.249   7.559 -1.7753  3.1698  0.4924
24258SOL    HW276367   4.685   6.236   7.409  0.4231  0.3781  0.3800
24259SOL     OW76368   2.161   8.718   9.641 -0.2365 -0.2204 -0.1342
24259SOL    HW176369   2.068   8.741   9.648 -0.8663 -2.0922 -1.5895
24259SOL    HW276370   2.174   8.650   9.707  0.2577  0.3294  0.3625
24260SOL     OW76371  11.045   6.387   0.634  0.6892 -0.5646 -0.2980
24260SOL    HW176372  11.034   6.379   0.540 -2.9152 -0.0041 -0.0792
24260SOL    HW276373  11.072   6.477   0.648  0.5094 -0.4334 -0.7949
24261SOL     OW76374   2.579   0.250   4.378  0.0642 -0.2960 -0.0492
24261SOL    HW176375   2.538   0.281   4.458  0.4341 -0.1335  0.0819
24261SOL    HW276376   2.673   0.264   4.392  0.1926 -0.9668 -0.2102
24262SOL     OW76377   3.672   6.132   8.259 -0.0090 -0.0998  0.3597
24262SOL    HW176378   3.580   6.154   8.274 -0.0026  0.2089 -0.0501
24262SOL    HW276379   3.676   6.037   8.274 -0.3215 -0.0628  0.7126
24263SOL     OW76380   1.344  10.513   7.124 -0.5819  0.3331  0.9826
24263SOL    HW176381   1.311  10.467   7.046  1.3631  1.8361 -0.8428
24263SOL    HW276382   1.288  10.591   7.131 -1.9957 -0.7470  2.3205
24264SOL     OW76383   6.698   1.933   1.559  0.2966 -0.0851  0.3485
24264SOL    HW176384   6.743   1.858   1.520 -0.2683 -0.0349 -0.4283
24264SOL    HW276385   6.766   2.000   1.569  0.2906  0.2521 -1.4851
24265SOL     OW76386   4.403   7.344   6.737  0.5804  0.4205 -0.2294
24265SOL    HW176387   4.335   7.309   6.796 -1.1617  0.7221 -1.9491
24265SOL    HW276388   4.460   7.394   6.795  0.3784 -1.2565  1.5622
24266SOL     OW76389  10.518   7.553   5.614  0.0478  0.2474 -0.3176
24266SOL    HW176390  10.432   7.563   5.655 -0.8202 -0.5645 -1.8441
24266SOL    HW276391  10.516   7.466   5.575  1.2995  0.4972 -1.0027
24267SOL     OW76392   9.907   8.294  10.055  0.5371  0.0589  0.4540
24267SOL    HW176393   9.957   8.326   9.980  0.4276 -0.3703  0.1934
24267SOL    HW276394   9.844   8.232  10.017  1.1738 -0.9493  1.0168
24268SOL     OW76395   7.877   3.599   4.119 -0.1420 -0.3339 -0.4550
24268SOL    HW176396   7.802   3.618   4.174 -0.8504 -1.1912 -1.1044
24268SOL    HW276397   7.894   3.506   4.131  0.3838 -0.2973 -0.8465
24269SOL     OW76398  11.075   8.148   1.394 -0.0093  0.1917  0.6325
24269SOL    HW176399  11.072   8.241   1.375  1.3438  0.0765 -0.2386
24269SOL    HW276400  11.163   8.134   1.430 -0.4818 -0.6131  1.5090
24270SOL     OW76401   6.853   5.340  11.028  0.5971 -0.0191  0.1382
24270SOL    HW176402   6.772   5.294  11.050  0.7858 -0.2401  0.3715
24270SOL    HW276403   6.914   5.315  11.096  0.3998  1.4440  0.8836
24271SOL     OW76404   6.779   5.890   5.496 -0.0360 -0.1839 -0.5801
24271SOL    HW176405   6.829   5.966   5.526  2.4304 -1.3282 -1.5014
24271SOL    HW276406   6.773   5.900   5.401 -1.6883 -0.0406 -0.4820
24272SOL     OW76407   9.684   3.092   6.858  0.3677  1.0077  0.0661
24272SOL    HW176408   9.753   3.156   6.846  2.3002 -0.9255  0.2046
24272SOL    HW276409   9.605   3.134   6.824  1.9252  2.6799 -1.7044
24273SOL     OW76410   4.359   7.850   1.299  0.0852  0.7061  0.0422
24273SOL    HW176411   4.443   7.892   1.283 -0.1875  0.6835 -1.6146
24273SOL    HW276412   4.294   7.918   1.281 -0.3572 -0.2927 -2.4957
24274SOL     OW76413   1.698   3.778   8.152  0.1128  0.2480  0.0117
24274SOL    HW176414   1.649   3.819   8.223  1.2699  0.2766  0.8247
24274SOL    HW276415   1.759   3.719   8.196  0.9145  0.3288 -0.9511
24275SOL     OW76416   8.975   9.453   9.474  0.4093  0.0236  0.1463
24275SOL    HW176417   8.960   9.532   9.422 -0.8994  0.3040  0.8994
24275SOL    HW276418   8.960   9.381   9.413  3.7831  0.2456 -1.1696
24276SOL     OW76419   4.164   5.497   8.828  0.0587  0.2077 -0.2150
24276SOL    HW176420   4.224   5.424   8.808 -0.6032 -0.5027  0.3101
24276SOL    HW276421   4.141   5.532   8.743 -1.2647 -1.5789 -0.6548
24277SOL     OW76422   3.183   8.019   5.278 -0.4603 -0.4427  0.1254
24277SOL    HW176423   3.244   8.090   5.259  0.7749 -1.7012 -0.8205
24277SOL    HW276424   3.101   8.063   5.299  0.1459  1.2521 -0.8680
24278SOL     OW76425   0.434   3.794   4.206  0.0369 -0.1536 -0.0200
24278SOL    HW176426   0.364   3.850   4.240 -0.5107 -0.2098 -0.9957
24278SOL    HW276427   0.512   3.849   4.208 -0.4864  0.6661 -0.9302
24279SOL     OW76428  10.607   9.801  10.048  0.1542  0.4762 -0.2339
24279SOL    HW176429  10.624   9.719  10.095 -2.6932 -1.5468 -2.3449
24279SOL    HW276430  10.512   9.814  10.056  0.4530  3.3255 -0.4319
24280SOL     OW76431   8.076   8.526   7.992  0.2023  0.8039 -0.1004
24280SOL    HW176432   8.140   8.585   7.953  0.4999 -1.2201 -2.9906
24280SOL    HW276433   8.003   8.526   7.931 -1.0522  0.3547  1.3314
24281SOL     OW76434   4.093   5.024   7.616  0.1396  0.2135  0.1763
24281SOL    HW176435   4.118   4.949   7.671  1.4387  0.4380 -0.0698
24281SOL    HW276436   4.108   4.993   7.527 -1.9002 -0.1265 -0.0909
24282SOL     OW76437  10.683  10.714   3.574  0.3403  0.1602  0.1542
24282SOL    HW176438  10.713  10.640   3.627 -1.8738 -0.2873  0.8939
24282SOL    HW276439  10.725  10.791   3.614  0.6994 -0.4358  0.9583
24283SOL     OW76440   7.770   8.906   8.950 -0.3747 -0.1883  0.3715
24283SOL    HW176441   7.846   8.904   9.008  0.5322  1.5493 -0.6665
24283SOL    HW276442   7.782   8.831   8.892 -0.4215 -0.9805  1.3697
24284SOL     OW76443   7.110  10.947   8.883  0.7890 -0.0294 -0.5086
24284SOL    HW176444   7.069  11.000   8.815 -0.1348  0.5087  0.4377
24284SOL    HW276445   7.112  11.004   8.960  0.1955 -1.1965  0.4006
24285SOL     OW76446   3.036   1.713   9.398  0.2143 -0.3094  0.4971
24285SOL    HW176447   2.990   1.633   9.374  2.4401 -1.5145 -0.1261
24285SOL    HW276448   3.092   1.731   9.322  0.8261  0.9960  1.2313
24286SOL     OW76449  11.096   1.660   0.301  0.3172  0.0917  0.3266
24286SOL    HW176450  11.064   1.578   0.265  0.2514  1.0488 -1.9867
24286SOL    HW276451  11.164   1.634   0.363  0.3677 -1.7102 -0.4181
24287SOL     OW76452   3.939   8.715   4.863 -0.7293  0.5925  0.0562
24287SOL    HW176453   3.944   8.795   4.811 -0.9204 -0.7514 -2.1461
24287SOL    HW276454   3.960   8.743   4.952  0.8894  2.7932 -0.9245
24288SOL     OW76455   3.110   3.091   3.838 -0.5391  0.3452 -0.1610
24288SOL    HW176456   3.109   3.055   3.750 -2.2192 -1.0839  0.3988
24288SOL    HW276457   3.138   3.182   3.826 -1.1922  0.3292 -2.2239
24289SOL     OW76458   9.774   8.791   9.521 -0.7116 -0.4001  0.1018
24289SOL    HW176459   9.813   8.715   9.565  0.6778 -0.3794 -1.0364
24289SOL    HW276460   9.686   8.762   9.497 -0.0293 -1.8743 -0.7889
24290SOL     OW76461   0.966   7.875   6.986 -0.1172 -0.9380  0.6409
24290SOL    HW176462   0.985   7.811   6.917  1.0852 -0.0606  0.1074
24290SOL    HW276463   0.943   7.955   6.938 -0.5975 -0.6824  1.2861
24291SOL     OW76464   1.106  10.070   8.228  0.2502 -0.1671 -0.0807
24291SOL    HW176465   1.167  10.009   8.185  0.3620  0.3745 -0.7049
24291SOL    HW276466   1.037  10.014   8.264  0.6622 -0.7101 -0.1266
24292SOL     OW76467   2.822   5.127  10.534  0.0335  0.3530 -0.4165
24292SOL    HW176468   2.729   5.151  10.536  0.1757  0.9446 -0.8764
24292SOL    HW276469   2.869   5.209  10.542  0.5291 -0.0074  0.4872
24293SOL     OW76470   4.312   9.929   7.840  0.7731  0.1335 -0.1852
24293SOL    HW176471   4.218   9.950   7.841  1.4604  4.2894 -2.1184
24293SOL    HW276472   4.330   9.905   7.749  1.3794 -2.5953  0.5623
24294SOL     OW76473   0.124   9.526   8.605 -0.2503  0.3922 -0.0836
24294SOL    HW176474   0.089   9.437   8.613 -0.7033  0.6656  1.1841
24294SOL    HW276475   0.191   9.531   8.673 -3.3523  2.4267  3.1412
24295SOL     OW76476   5.601  10.914   5.882  0.1065 -0.2504  0.1801
24295SOL    HW176477   5.644  10.852   5.941  0.8688  0.3026  0.2143
24295SOL    HW276478   5.570  10.860   5.809 -1.8939 -1.1425  1.5841
24296SOL     OW76479   5.756   6.853   6.944 -0.0677 -0.2208  0.5244
24296SOL    HW176480   5.691   6.832   7.011 -0.0919  0.5181  0.7479
24296SOL    HW276481   5.726   6.938   6.909  0.8113  0.1624  0.6765
24297SOL     OW76482   9.307   8.015   2.674 -0.1435 -0.4503  0.2420
24297SOL    HW176483   9.275   7.973   2.754 -1.3323  1.5990  0.8927
24297SOL    HW276484   9.249   7.983   2.605 -0.4849 -0.5535  0.5729
24298SOL     OW76485   7.954   0.078   1.487 -0.3567  0.0602  0.3276
24298SOL    HW176486   8.002   0.018   1.544  0.0510  0.7299  0.7047
24298SOL    HW276487   7.976   0.165   1.520 -1.1762  0.4094 -0.0221
24299SOL     OW76488   4.668   5.672   5.172 -0.9836 -0.2789  0.2192
24299SOL    HW176489   4.699   5.594   5.127 -1.3031 -1.1274  1.4075
24299SOL    HW276490   4.573   5.662   5.174 -0.9741 -0.2654  1.0709
24300SOL     OW76491   3.155   4.891   4.964  0.9833  0.2968 -0.7077
24300SOL    HW176492   3.109   4.955   4.910 -0.9433  0.3289  0.8648
24300SOL    HW276493   3.233   4.869   4.913  0.3947  1.9491 -2.4594
24301SOL     OW76494   7.372   6.529   1.768 -0.2339  0.2891 -0.5839
24301SOL    HW176495   7.362   6.563   1.857  0.9820  1.8645 -1.0051
24301SOL    HW276496   7.464   6.544   1.747 -0.8478  1.4448 -2.6863
24302SOL     OW76497   4.424   5.474   8.426 -0.0278  0.1746  0.5587
24302SOL    HW176498   4.479   5.470   8.347 -0.2369  1.1454  0.3459
24302SOL    HW276499   4.336   5.454   8.395  0.2097 -1.6683  0.9497
24303SOL     OW76500   5.677   6.023   3.355 -0.0675  0.5285  0.0429
24303SOL    HW176501   5.610   6.007   3.289 -0.0503 -0.1307  0.1804
24303SOL    HW276502   5.714   5.937   3.374  1.4028  0.9916 -0.6246
24304SOL     OW76503   7.946   4.593  10.125  0.4083 -0.3446 -0.8332
24304SOL    HW176504   8.027   4.586  10.075  2.9683  0.6933  2.7282
24304SOL    HW276505   7.936   4.687  10.140  1.1376 -0.6553  2.3473
24305SOL     OW76506  10.751   1.174   8.706 -0.3760  0.1091  0.8773
24305SOL    HW176507  10.832   1.206   8.667 -0.8624 -1.1743 -1.3244
24305SOL    HW276508  10.770   1.171   8.800  1.0978  2.5940  0.7669
24306SOL     OW76509   5.648   7.600   5.217 -0.0539 -0.6876  0.2244
24306SOL    HW176510   5.576   7.573   5.273  0.2848 -0.8142  0.6056
24306SOL    HW276511   5.712   7.638   5.277 -0.8094  1.6973 -0.3638
24307SOL     OW76512   6.045   5.983   8.276 -0.0218 -0.0225  0.1189
24307SOL    HW176513   6.065   5.933   8.197  0.4106  1.5240 -0.8021
24307SOL    HW276514   6.040   6.074   8.246  0.0859  0.5993  1.8720
24308SOL     OW76515   0.770   0.695   5.305  0.0102 -0.0877  0.9634
24308SOL    HW176516   0.843   0.721   5.249  0.4205 -0.3592  1.3773
24308SOL    HW276517   0.745   0.609   5.273 -0.2982  0.1119  0.6566
24309SOL     OW76518  10.010   4.032   6.971  0.9398  0.2712  0.5680
24309SOL    HW176519  10.035   3.952   6.926 -1.0560  0.2143 -0.5466
24309SOL    HW276520   9.984   4.092   6.901 -0.7430  0.7320  1.5314
24310SOL     OW76521   6.508   0.991   4.004 -0.0612  0.1162 -0.8762
24310SOL    HW176522   6.435   0.930   3.993 -0.3133  0.2734 -0.1864
24310SOL    HW276523   6.478   1.050   4.073  0.3923  0.6916 -1.1662
24311SOL     OW76524   9.648   7.232   6.521  0.5055 -0.5812 -0.3009
24311SOL    HW176525   9.693   7.148   6.520  0.8880 -0.3755 -0.9331
24311SOL    HW276526   9.715   7.296   6.544  0.7386 -0.1848 -1.9177
24312SOL     OW76527   9.251  10.943   8.677 -0.2001 -0.5048  0.5179
24312SOL    HW176528   9.230  11.004   8.606 -0.0987 -1.0859 -0.0208
24312SOL    HW276529   9.345  10.956   8.692 -0.2004 -0.4513  0.4789
24313SOL     OW76530   9.116  10.838   1.863  0.0497 -0.4617 -0.5395
24313SOL    HW176531   9.187  10.890   1.825 -0.0086  0.3599  0.4309
24313SOL    HW276532   9.112  10.759   1.809  0.5915  0.2386 -1.6245
24314SOL     OW76533   5.016   2.572   2.547 -1.0070 -0.2000  0.0213
24314SOL    HW176534   5.016   2.627   2.625  2.3336 -1.4451  1.0869
24314SOL    HW276535   5.042   2.630   2.476 -1.6339  0.4159  0.2785
24315SOL     OW76536   7.665  10.758   2.488  0.4181  0.1462  0.0059
24315SOL    HW176537   7.601  10.809   2.437 -0.0070 -0.8658 -0.5102
24315SOL    HW276538   7.692  10.817   2.558 -1.3134  0.5218  0.4219
24316SOL     OW76539   3.568   3.129   1.017  0.2303 -0.2835  0.1237
24316SOL    HW176540   3.595   3.220   1.006 -0.6622 -0.0202 -0.0438
24316SOL    HW276541   3.521   3.108   0.936 -0.1042 -0.6947  0.4152
24317SOL     OW76542   8.456   4.756   8.877  0.5896  0.1905  0.0735
24317SOL    HW176543   8.530   4.733   8.935  0.2540 -1.3289 -0.0610
24317SOL    HW276544   8.488   4.737   8.789 -0.3930 -1.7963  0.1112
24318SOL     OW76545   2.301   3.405   4.861 -0.5810 -0.3645 -0.4221
24318SOL    HW176546   2.247   3.328   4.878 -0.0395 -0.7577 -0.4492
24318SOL    HW276547   2.250   3.478   4.895 -1.5355 -0.6143 -1.2812
24319SOL     OW76548   9.094   9.958  11.068  0.0519 -0.2094  0.0561
24319SOL    HW176549   9.168   9.901  11.051 -0.6175 -0.9003 -0.6308
24319SOL    HW276550   9.112  10.037  11.017  0.1236 -0.5315 -0.4134
24320SOL     OW76551   2.817   7.565   6.176  0.1516  0.0719 -0.2271
24320SOL    HW176552   2.885   7.501   6.154 -0.4640 -1.1916  1.3338
24320SOL    HW276553   2.857   7.650   6.157  0.9892 -0.7394 -2.3702
24321SOL     OW76554   9.361  10.734   9.356  0.3792 -0.7632 -0.1240
24321SOL    HW176555   9.391  10.679   9.429  0.3741  0.3199  0.7160
24321SOL    HW276556   9.269  10.709   9.344  0.8176 -2.1261 -0.8810
24322SOL     OW76557   7.172   0.137   4.188 -0.0255  0.1297 -0.1502
24322SOL    HW176558   7.200   0.070   4.251 -0.9637  0.6769  0.8693
24322SOL    HW276559   7.218   0.216   4.216 -2.0100  0.8865  1.1648
24323SOL     OW76560   4.429  10.808   1.762 -0.1996  0.1950 -0.0290
24323SOL    HW176561   4.493  10.781   1.828  1.6451  1.2125 -1.3122
24323SOL    HW276562   4.443  10.748   1.688 -0.9438  0.2545 -0.2369
24324SOL     OW76563  10.094   3.966  10.594  0.0747 -0.5014 -0.1417
24324SOL    HW176564  10.087   3.924  10.509  0.5872  1.3142 -1.1338
24324SOL    HW276565  10.157   4.037  10.581 -0.0282 -0.0174  1.6848
24325SOL     OW76566   8.880  10.267   9.500  0.0064 -0.3564  0.0070
24325SOL    HW176567   8.866  10.232   9.588  0.9676 -0.7849  0.0056
24325SOL    HW276568   8.966  10.233   9.475  0.1008  0.4359 -0.7742
24326SOL     OW76569   6.369   0.301   7.592 -0.0931  0.3664 -0.0277
24326SOL    HW176570   6.328   0.386   7.604  1.4756  1.0876  0.5029
24326SOL    HW276571   6.448   0.319   7.542 -0.0244 -0.8709 -0.4075
24327SOL     OW76572   4.982   6.111   8.845  0.1829  0.6008  0.0920
24327SOL    HW176573   5.050   6.098   8.911 -1.1964 -0.2338  1.4311
24327SOL    HW276574   4.937   6.027   8.840 -1.8182  1.5795  0.5236
24328SOL     OW76575   7.240   9.635   9.331 -0.6058 -0.2010 -0.2068
24328SOL    HW176576   7.269   9.631   9.239  0.3101 -0.0578  0.0607
24328SOL    HW276577   7.261   9.724   9.358  1.7629 -1.0180  0.9381
24329SOL     OW76578   8.650  10.985   2.274 -0.2229 -0.5623  0.3773
24329SOL    HW176579   8.642  11.018   2.185  0.8550 -2.4041 -0.4605
24329SOL    HW276580   8.562  10.992   2.311 -0.1817  2.7079  0.1587
24330SOL     OW76581   9.187   4.951   6.649 -0.4139 -0.3511 -0.5619
24330SOL    HW176582   9.168   4.880   6.588 -0.2559 -0.1397 -0.8612
24330SOL    HW276583   9.282   4.965   6.641 -0.2892 -0.7149  0.1667
24331SOL     OW76584   1.026  10.645   6.635  0.2617  0.2815 -0.3044
24331SOL    HW176585   1.075  10.670   6.713  1.0474  0.4407 -0.8345
24331SOL    HW276586   1.008  10.551   6.648  0.7854  0.1978 -0.1338
24332SOL     OW76587   9.397   3.593   8.520 -0.2643  0.2412 -0.5294
24332SOL    HW176588   9.377   3.680   8.486  0.3908  0.6297  0.0467
24332SOL    HW276589   9.490   3.581   8.500 -0.1336  0.0474  0.1871
24333SOL     OW76590  10.064   8.002   0.162  0.4285 -0.1296  0.4565
24333SOL    HW176591  10.149   8.013   0.205  0.7175 -0.4247 -0.0341
24333SOL    HW276592  10.085   7.993   0.069 -0.0654 -1.1815  0.4330
24334SOL     OW76593   8.421   2.629   6.352 -0.1689 -0.3228 -0.3870
24334SOL    HW176594   8.490   2.601   6.413 -0.5219 -0.4749 -0.0552
24334SOL    HW276595   8.358   2.676   6.407 -0.7900 -0.9793 -0.5241
24335SOL     OW76596  10.112   8.725  10.708 -0.0310  0.5093  0.1353
24335SOL    HW176597  10.113   8.728  10.803 -0.3239  1.3046  0.1303
24335SOL    HW276598  10.175   8.657  10.684  1.0142  1.1954  0.8604
24336SOL     OW76599   1.855   3.751   1.108 -0.6900 -0.5716  0.2226
24336SOL    HW176600   1.769   3.710   1.121  0.7755 -3.3470  2.0737
24336SOL    HW276601   1.876   3.790   1.193  0.1240 -0.3597 -0.0633
24337SOL     OW76602  10.583  10.154   2.151  0.3688  0.0670  0.4166
24337SOL    HW176603  10.567  10.113   2.066  0.3282  0.8920  0.0206
24337SOL    HW276604  10.670  10.192   2.143  0.6322 -0.4099  0.9748
24338SOL     OW76605  10.963   0.950   6.439 -0.0632  0.3945 -0.0468
24338SOL    HW176606  10.882   0.910   6.470  0.5801 -1.2499 -0.3782
24338SOL    HW276607  10.938   0.995   6.359 -0.7821  0.4591  0.2109
24339SOL     OW76608   4.164   3.746   1.855 -0.0367 -0.1026 -0.2020
24339SOL    HW176609   4.126   3.792   1.781  0.4346 -2.4449 -2.0137
24339SOL    HW276610   4.094   3.688   1.886  0.8678 -1.8460 -1.2749
24340SOL     OW76611   5.901   8.894   2.220  0.2693  0.2159 -0.2705
24340SOL    HW176612   5.933   8.818   2.269 -0.7682 -1.3760 -1.9336
24340SOL    HW276613   5.813   8.908   2.253  0.1555  0.1511 -0.5420
24341SOL     OW76614   1.303   5.154   9.607  0.1400  0.4119  0.6299
24341SOL    HW176615   1.223   5.159   9.554 -0.3174 -1.4021  1.0616
24341SOL    HW276616   1.281   5.202   9.687  0.8031  3.0840 -0.6742
24342SOL     OW76617  10.357   8.895   2.589 -0.2406  0.0627  0.3647
24342SOL    HW176618  10.262   8.900   2.584 -0.2581 -0.4811  0.1282
24342SOL    HW276619  10.374   8.822   2.649  0.0256 -0.4938 -0.3769
24343SOL     OW76620   9.591   1.924   4.317  0.2588  0.1801  0.2900
24343SOL    HW176621   9.522   1.971   4.363  0.4280 -0.1912  0.9266
24343SOL    HW276622   9.647   1.994   4.282  0.3785  0.4718  1.0342
24344SOL     OW76623   7.485  10.347   2.526 -0.2687  0.4022  0.0722
24344SOL    HW176624   7.530  10.405   2.588  1.7681 -0.9014 -0.0912
24344SOL    HW276625   7.414  10.309   2.577  0.8893 -0.0544  1.4295
24345SOL     OW76626   1.199   1.317   3.229 -0.1786 -0.0882 -0.0983
24345SOL    HW176627   1.169   1.390   3.284 -0.0589  0.6462 -0.9960
24345SOL    HW276628   1.137   1.246   3.249 -0.2674  0.2270  0.8152
24346SOL     OW76629  10.853   0.650   7.496  0.0553 -0.3324  0.0938
24346SOL    HW176630  10.838   0.727   7.442 -1.3892 -1.1860 -0.7818
24346SOL    HW276631  10.872   0.685   7.583 -0.1574  1.0080 -0.3775
24347SOL     OW76632   1.106   7.834   1.862 -0.3423  0.8914  0.4699
24347SOL    HW176633   1.153   7.918   1.863  0.7841  0.3401 -1.3703
24347SOL    HW276634   1.052   7.837   1.783 -0.5293  0.0076  0.5541
24348SOL     OW76635   6.234   3.439   2.154  0.0580  0.0345 -0.2734
24348SOL    HW176636   6.166   3.469   2.094 -0.1937 -1.3699 -0.7300
24348SOL    HW276637   6.316   3.461   2.110 -0.1137  0.0925 -0.5695
24349SOL     OW76638   2.392   5.074   3.622  0.2820 -0.1498  0.3122
24349SOL    HW176639   2.464   5.134   3.605 -0.3892  0.9029  1.0205
24349SOL    HW276640   2.314   5.129   3.618 -0.6455 -1.5162 -1.8151
24350SOL     OW76641   5.736   6.131   4.334 -0.1308 -0.3251  0.2476
24350SOL    HW176642   5.787   6.094   4.405  0.3095  3.3945  2.1058
24350SOL    HW276643   5.778   6.098   4.254  1.7956 -1.5660  1.6861
24351SOL     OW76644   7.636   3.124   6.835 -0.1180  0.4961  0.4173
24351SOL    HW176645   7.671   3.132   6.746  2.0135  3.3011  1.3686
24351SOL    HW276646   7.563   3.186   6.837  0.6215  1.3524  0.9586
24352SOL     OW76647   8.834   8.623   5.861  0.1849  0.2317 -0.1836
24352SOL    HW176648   8.901   8.555   5.874 -0.6942 -0.9107 -1.3210
24352SOL    HW276649   8.868   8.699   5.907  1.1174 -1.0356  1.3545
24353SOL     OW76650   3.400   0.109   4.294  0.1796 -0.1439  0.1173
24353SOL    HW176651   3.405   0.161   4.374 -1.7273  0.9015 -0.3875
24353SOL    HW276652   3.446   0.028   4.315 -1.0876 -0.3111  2.6062
24354SOL     OW76653   3.123   7.186  10.136  0.3379 -0.9639 -0.3765
24354SOL    HW176654   3.051   7.195  10.197  1.4976 -1.2492  1.0859
24354SOL    HW276655   3.143   7.276  10.108  0.9004 -0.6312  1.0159
24355SOL     OW76656   5.804   4.018   4.732 -0.2496  0.2077 -0.5921
24355SOL    HW176657   5.899   4.028   4.728 -0.1576 -0.3075  0.1533
24355SOL    HW276658   5.785   3.948   4.669  0.4547 -3.1810  2.6145
24356SOL     OW76659   0.555   6.940   6.720  0.1351 -0.4919  0.4130
24356SOL    HW176660   0.484   6.961   6.659  1.3126 -1.7526 -1.5085
24356SOL    HW276661   0.582   7.025   6.755 -3.0868 -0.0622  2.2373
24357SOL     OW76662   5.855  10.492   5.069 -0.0234  0.0752  0.2526
24357SOL    HW176663   5.789  10.546   5.027  0.0068 -0.7074 -0.8288
24357SOL    HW276664   5.934  10.545   5.068 -0.2541  0.4167  0.1671
24358SOL     OW76665   1.142   8.601   2.319  0.4539 -0.2975 -0.2984
24358SOL    HW176666   1.210   8.621   2.255  1.7887  0.7139  1.3492
24358SOL    HW276667   1.187   8.550   2.387 -0.5048  0.0871  0.6611
24359SOL     OW76668   2.233   4.681  10.729  0.0459 -0.3987  0.1482
24359SOL    HW176669   2.246   4.591  10.698  1.3974 -0.0350 -0.3991
24359SOL    HW276670   2.291   4.689  10.804 -0.0080  0.0513  0.1433
24360SOL     OW76671   8.483   4.287   2.384  0.1069  0.0488 -0.6153
24360SOL    HW176672   8.519   4.198   2.384  0.6277  0.2528 -0.0970
24360SOL    HW276673   8.536   4.334   2.320 -0.5756 -0.1554 -1.3626
24361SOL     OW76674   3.338   9.520   9.227  0.3564  0.0054 -0.2309
24361SOL    HW176675   3.333   9.606   9.268 -0.4909  0.3523 -1.0355
24361SOL    HW276676   3.300   9.460   9.291  0.2403  0.3416  0.0166
24362SOL     OW76677   9.026  10.031   7.898  0.2150 -0.0788  0.0465
24362SOL    HW176678   9.003   9.966   7.832  0.6411 -1.7952  1.5142
24362SOL    HW276679   9.114  10.059   7.875  0.4519 -0.8382  0.0013
24363SOL     OW76680   0.965  10.056   4.999 -0.3624 -0.1196  0.4032
24363SOL    HW176681   0.973  10.005   5.079  2.1641  0.0203  0.3278
24363SOL    HW276682   0.978  10.146   5.026 -1.2803  0.1239  0.0604
24364SOL     OW76683   8.871   7.482   1.571 -0.3604 -0.0407 -0.2170
24364SOL    HW176684   8.777   7.493   1.562 -0.3575  0.3096  0.1653
24364SOL    HW276685   8.893   7.525   1.654  0.3692  1.3318 -1.0718
24365SOL     OW76686   8.960   6.040   2.261 -0.4181 -0.2182 -0.1837
24365SOL    HW176687   8.944   6.077   2.174 -0.5083 -0.4041 -0.2484
24365SOL    HW276688   8.994   6.113   2.312 -0.5009 -0.0715 -0.3353
24366SOL     OW76689   6.182   2.327  10.687  0.0506  0.4267 -0.0079
24366SOL    HW176690   6.200   2.394  10.753 -0.6907  1.4441 -0.7929
24366SOL    HW276691   6.266   2.313  10.644  0.1810  0.9751  0.0597
24367SOL     OW76692   6.875  10.623   0.551 -0.1051 -0.3096  0.2288
24367SOL    HW176693   6.923  10.666   0.481 -0.3678  0.5964  0.5935
24367SOL    HW276694   6.787  10.610   0.516 -0.1465 -0.1543  0.2758
24368SOL     OW76695   1.505   8.815   8.891  0.1534 -0.1579  0.1096
24368SOL    HW176696   1.448   8.878   8.936 -2.0519 -2.6228  1.0246
24368SOL    HW276697   1.560   8.869   8.835 -0.6975  2.6640  1.7736
24369SOL     OW76698   3.891  10.984  10.966  0.5761  0.3012 -0.3646
24369SOL    HW176699   3.835  10.907  10.958 -1.2482  1.5588 -0.2265
24369SOL    HW276700   3.923  10.981  11.056 -0.8756  0.6010  0.1834
24370SOL     OW76701   3.427  10.190   7.086  0.0243  0.1238  0.4942
24370SOL    HW176702   3.449  10.192   6.993  1.2629  3.0100  0.7401
24370SOL    HW276703   3.471  10.112   7.120  0.6288 -0.2564 -1.0909
24371SOL     OW76704   5.507   5.117   3.892 -0.4215 -0.0349 -0.3648
24371SOL    HW176705   5.538   5.064   3.819 -0.5043  0.7434 -0.9864
24371SOL    HW276706   5.414   5.130   3.875 -0.2255  1.0380 -0.7197
24372SOL     OW76707   7.252   0.064  10.796 -0.0152  0.3251  0.7940
24372SOL    HW176708   7.264   0.003  10.869  0.8960 -0.7757 -0.2376
24372SOL    HW276709   7.340   0.093  10.774  0.0044 -1.0849 -1.2697
24373SOL     OW76710   9.043   3.780   6.821 -0.0360 -0.4758 -0.3458
24373SOL    HW176711   9.007   3.866   6.839  0.1875 -0.1808 -1.2493
24373SOL    HW276712   9.082   3.788   6.734  1.4217 -1.0272  0.2168
24374SOL     OW76713   0.679   5.448   9.096  1.2795 -0.4580 -0.3051
24374SOL    HW176714   0.706   5.473   9.008 -0.9411 -1.0086 -1.2259
24374SOL    HW276715   0.740   5.379   9.122 -0.5970 -3.5303 -3.3265
24375SOL     OW76716   4.236   4.094   3.922  0.0690  0.5175  0.4301
24375SOL    HW176717   4.317   4.056   3.888 -1.7209 -1.6697 -1.8319
24375SOL    HW276718   4.261   4.182   3.952  3.3035 -0.2320  0.3186
24376SOL     OW76719   6.774   0.030   4.403  0.2994 -0.7788 -0.4266
24376SOL    HW176720   6.828   0.076   4.467 -0.4542 -0.2894 -0.1326
24376SOL    HW276721   6.800   0.067   4.319 -1.1908  1.1675 -0.1030
24377SOL     OW76722   6.070   1.277  10.387 -0.3634 -0.1980  0.2382
24377SOL    HW176723   6.024   1.216  10.330  0.5536 -2.6707  1.9893
24377SOL    HW276724   6.163   1.263  10.369 -0.0360  3.7706 -2.2813
24378SOL     OW76725   4.020   2.086   2.046 -0.1706  0.0655 -0.1242
24378SOL    HW176726   4.070   2.054   1.971 -2.5765  2.3986 -2.9522
24378SOL    HW276727   3.932   2.053   2.032 -0.7154  0.6304  1.6965
24379SOL     OW76728   2.389  10.598   5.786 -0.0638  0.2805 -0.4397
24379SOL    HW176729   2.306  10.574   5.746 -0.1210  1.7620 -1.2715
24379SOL    HW276730   2.380  10.692   5.806  1.2908  0.4000 -0.2808
24380SOL     OW76731   6.799   2.737   3.347  0.1228 -0.4096 -0.2159
24380SOL    HW176732   6.761   2.743   3.259  1.7356 -1.1095 -1.0106
24380SOL    HW276733   6.883   2.782   3.340  0.1289 -0.1832  1.0689
24381SOL     OW76734   5.851   9.297   4.102 -0.2928  0.4538 -0.6313
24381SOL    HW176735   5.832   9.231   4.036  0.6236 -1.7952  1.2318
24381SOL    HW276736   5.930   9.341   4.071 -1.0121  0.8512 -1.9712
24382SOL     OW76737   6.183   9.777   5.077  0.2188 -0.3207  0.3935
24382SOL    HW176738   6.107   9.766   5.020  0.1437  0.3104  0.3698
24382SOL    HW276739   6.205   9.870   5.072  1.4224 -0.6078 -0.1480
24383SOL     OW76740   0.033   7.228   9.791 -0.2103  0.1138 -0.0896
24383SOL    HW176741   0.079   7.146   9.810 -0.3617  0.0809  0.1388
24383SOL    HW276742   0.095   7.278   9.738 -0.1687 -0.2009 -0.3423
24384SOL     OW76743   4.496   6.659   0.247  0.1697 -0.0445  0.2676
24384SOL    HW176744   4.461   6.704   0.170  0.0486 -1.4876 -0.5418
24384SOL    HW276745   4.538   6.580   0.213 -0.4747 -1.0673  1.7374
24385SOL     OW76746   2.659   0.755   8.687  0.1070  0.5365  0.0261
24385SOL    HW176747   2.700   0.672   8.711 -0.7072  0.1955  0.2713
24385SOL    HW276748   2.732   0.815   8.671  0.7228 -0.4042 -0.7887
24386SOL     OW76749   5.434   4.483   4.709  0.0023  0.3233 -0.8860
24386SOL    HW176750   5.437   4.388   4.723 -1.6661  0.4482  0.6276
24386SOL    HW276751   5.496   4.518   4.773 -1.1835  0.3651  0.2799
24387SOL     OW76752   7.428   8.717   2.631 -0.0691  0.1789 -0.4750
24387SOL    HW176753   7.383   8.799   2.650  0.3227 -0.0245  1.5351
24387SOL    HW276754   7.359   8.660   2.596 -0.6335  0.9268 -0.6088
24388SOL     OW76755   4.856   6.826   1.607  0.2412  0.2437  0.1796
24388SOL    HW176756   4.843   6.919   1.591  0.1966  0.0728 -0.7964
24388SOL    HW276757   4.948   6.819   1.631  0.1536  0.5830  0.6402
24389SOL     OW76758   4.263   0.167   7.427  0.1273  0.2885 -0.3484
24389SOL    HW176759   4.180   0.211   7.409  1.0543  2.3031  0.0090
24389SOL    HW276760   4.255   0.138   7.518 -0.2563  0.3168 -0.3725
24390SOL     OW76761   7.899   8.302   1.441  0.1693  0.0274  0.4922
24390SOL    HW176762   7.864   8.218   1.412 -1.1478  0.7481 -0.0612
24390SOL    HW276763   7.992   8.299   1.416  0.1298 -1.2322  0.4421
24391SOL     OW76764   4.780   9.992   4.953  0.3271 -0.5222 -0.0505
24391SOL    HW176765   4.842  10.065   4.953  0.8437 -0.9306 -1.4924
24391SOL    HW276766   4.787   9.954   5.040 -1.6973  2.5604  1.6441
24392SOL     OW76767   8.526   4.703   2.400  0.6699  0.6005 -0.1357
24392SOL    HW176768   8.456   4.672   2.342  0.4689 -0.0281  0.4221
24392SOL    HW276769   8.500   4.792   2.423  1.4731  1.4076 -2.1125
24393SOL     OW76770   7.151   8.138   0.845 -0.3254  0.1039  0.6611
24393SOL    HW176771   7.184   8.155   0.934  1.1204 -0.9070  0.3482
24393SOL    HW276772   7.076   8.080   0.858 -0.4740  0.4181  1.2470
24394SOL     OW76773   1.247   4.768   3.034 -0.5830  0.3625  0.1325
24394SOL    HW176774   1.268   4.778   3.127  1.6762  0.3270 -0.3134
24394SOL    HW276775   1.330   4.786   2.989 -1.6700  0.5465 -1.8909
24395SOL     OW76776   1.615   9.154   8.953  0.1467  0.0798 -0.3635
24395SOL    HW176777   1.545   9.091   8.968  1.6737 -1.4260  0.8172
24395SOL    HW276778   1.677   9.108   8.896  1.6796  0.1341  1.1610
24396SOL     OW76779   4.146   2.314   2.084  0.1456 -0.4407 -0.3512
24396SOL    HW176780   4.099   2.366   2.019  0.4588  1.0326  0.5356
24396SOL    HW276781   4.105   2.228   2.081  0.2665 -0.4763 -2.5842
24397SOL     OW76782   6.242   1.724  10.350 -0.1008  0.4662  0.0757
24397SOL    HW176783   6.273   1.806  10.387 -0.3328  0.8639 -0.6130
24397SOL    HW276784   6.264   1.728  10.257 -1.1471  0.2522 -0.1964
24398SOL     OW76785   4.225   9.780   6.808  0.2628 -0.3428 -0.3610
24398SOL    HW176786   4.277   9.746   6.735 -1.7575 -0.9177 -1.6254
24398SOL    HW276787   4.275   9.757   6.886  3.6635  2.2381 -1.5054
24399SOL     OW76788   1.081   6.724   5.080 -0.1776  0.1126 -0.0026
24399SOL    HW176789   1.088   6.699   5.172 -1.7864 -0.3138  0.0222
24399SOL    HW276790   1.110   6.815   5.077  5.2089 -1.2228  0.0156
24400SOL     OW76791   7.481   6.879   2.800 -0.3902  0.5800 -0.7245
24400SOL    HW176792   7.549   6.818   2.826 -0.6322  0.8958  0.7156
24400SOL    HW276793   7.462   6.856   2.709 -0.8008 -1.8057 -0.1059
24401SOL     OW76794   8.931   9.144   3.549  0.0561 -0.1981 -0.3992
24401SOL    HW176795   8.984   9.069   3.579  2.5393  1.9357  0.9463
24401SOL    HW276796   8.945   9.146   3.455 -2.3715 -3.0004 -0.9606
24402SOL     OW76797   0.353   1.356   0.003 -0.3372 -0.7277  0.5181
24402SOL    HW176798   0.287   1.342  -0.064 -1.7368  0.1035  1.6685
24402SOL    HW276799   0.419   1.411  -0.040 -1.6362  0.5227  0.0481
24403SOL     OW76800   2.308   4.726   7.465  0.8792 -0.4039  0.8651
24403SOL    HW176801   2.373   4.760   7.405  1.9161 -3.3607  0.1349
24403SOL    HW276802   2.225   4.728   7.416  1.0282  0.4085  0.6372
24404SOL     OW76803   5.198   8.664   6.452  0.0002 -0.0389 -0.4913
24404SOL    HW176804   5.151   8.584   6.475  1.9529 -1.3937 -0.9878
24404SOL    HW276805   5.232   8.648   6.364  0.2325  1.4408 -0.6929
24405SOL     OW76806   0.607   3.611   1.624  0.0115 -0.5439  0.5757
24405SOL    HW176807   0.595   3.700   1.658 -0.7036 -0.5330  0.3202
24405SOL    HW276808   0.645   3.624   1.537  0.1813 -0.5010  0.6560
24406SOL     OW76809   0.806   5.771  10.425 -0.2847  0.8921 -0.2957
24406SOL    HW176810   0.821   5.772  10.331 -1.1413  0.6764 -0.4453
24406SOL    HW276811   0.788   5.679  10.445 -1.5591  1.1415 -0.1814
24407SOL     OW76812  10.754   3.780  10.259 -0.6875 -0.4314  0.0578
24407SOL    HW176813  10.778   3.858  10.210 -0.2171  0.5010  1.6674
24407SOL    HW276814  10.818   3.714  10.232 -1.6945 -0.6177 -2.0584
24408SOL     OW76815   9.762   7.332   3.138  0.2909  0.5295 -0.2666
24408SOL    HW176816   9.741   7.312   3.229  0.0230 -0.5135 -0.5332
24408SOL    HW276817   9.856   7.317   3.131 -0.0369 -1.7306 -0.6735
24409SOL     OW76818   8.056   6.050   3.830 -0.0879 -0.4978 -0.1138
24409SOL    HW176819   8.066   6.145   3.822 -1.1018 -0.3623  0.1948
24409SOL    HW276820   8.129   6.023   3.886  1.3889 -0.1865 -1.7780
24410SOL     OW76821   3.194  10.676   4.990 -0.2948  0.9242 -0.1904
24410SOL    HW176822   3.177  10.587   4.961 -0.1579  1.2991 -1.4659
24410SOL    HW276823   3.289  10.686   4.984 -0.1481  0.6914  1.3910
24411SOL     OW76824   2.016   1.194   2.774 -0.8298  0.0898 -0.2469
24411SOL    HW176825   1.935   1.241   2.792 -0.9413 -1.1049  3.0576
24411SOL    HW276826   1.993   1.133   2.703 -2.3773  0.7412 -0.3466
24412SOL     OW76827   7.586   9.872   3.395 -0.3091 -0.2321 -0.5549
24412SOL    HW176828   7.564   9.782   3.420 -1.2398  0.4838  1.3304
24412SOL    HW276829   7.639   9.905   3.467  0.0001  0.7770 -1.2182
24413SOL     OW76830   0.107   3.928  10.709  0.1566 -0.1010  0.1077
24413SOL    HW176831   0.050   3.854  10.731 -0.3470  0.5671  1.1450
24413SOL    HW276832   0.048   3.994  10.673  0.5845 -0.1331 -0.6774
24414SOL     OW76833   6.100   6.817   3.659 -0.8779 -0.0678  0.6188
24414SOL    HW176834   6.008   6.825   3.631 -0.5242 -2.3611 -1.5367
24414SOL    HW276835   6.103   6.735   3.708  0.2263 -0.7405 -0.5240
24415SOL     OW76836  10.037   4.590   3.433  0.4089 -0.1006  0.5914
24415SOL    HW176837  10.074   4.631   3.511  0.2628  0.2773  0.4618
24415SOL    HW276838   9.945   4.617   3.433  0.8454  1.5216 -0.7787
24416SOL     OW76839   6.661   2.881   4.431 -0.0001  0.1144 -0.5331
24416SOL    HW176840   6.597   2.833   4.379  1.1002 -0.7075 -1.1682
24416SOL    HW276841   6.611   2.954   4.469 -1.7175 -1.4601  0.4393
24417SOL     OW76842  11.088   2.443   6.846 -0.4085 -0.3003  0.4908
24417SOL    HW176843  11.159   2.380   6.839 -0.1891 -0.0882  0.7985
24417SOL    HW276844  11.131   2.525   6.869 -0.7872 -0.2627  1.0882
24418SOL     OW76845   5.867   8.192   9.380  0.2111 -0.4993  0.5359
24418SOL    HW176846   5.878   8.098   9.370  3.4620 -0.0257 -1.8830
24418SOL    HW276847   5.896   8.229   9.297 -3.1454  2.6314  0.4846
24419SOL     OW76848   0.076   4.019   3.350 -0.2371 -0.2807  0.1038
24419SOL    HW176849   0.153   4.076   3.358  0.3866 -0.8208 -1.5959
24419SOL    HW276850   0.003   4.072   3.379  0.4422  1.1181 -0.6536
24420SOL     OW76851   4.729   1.152   5.240 -0.5489  0.1122 -0.5578
24420SOL    HW176852   4.742   1.188   5.152  1.3670 -0.2396 -0.4702
24420SOL    HW276853   4.800   1.089   5.251 -1.4226 -0.6844  0.8394
24421SOL     OW76854   2.744   2.852   6.327  0.0995  0.1872 -0.2831
24421SOL    HW176855   2.724   2.760   6.347  0.2874 -0.3339 -2.3169
24421SOL    HW276856   2.794   2.883   6.402  0.6322 -1.5807  0.1195
24422SOL     OW76857   5.220   7.263   7.290 -0.7842  0.0816 -0.0772
24422SOL    HW176858   5.263   7.349   7.292  0.9591 -0.6997 -1.3156
24422SOL    HW276859   5.251   7.219   7.369  0.7027 -0.4327 -0.9034
24423SOL     OW76860   9.201   0.964   2.158 -0.4810 -0.2671  0.9868
24423SOL    HW176861   9.182   1.048   2.116 -1.2580 -1.0702 -0.3567
24423SOL    HW276862   9.151   0.966   2.239 -2.6399 -0.4232 -0.2505
24424SOL     OW76863   2.349   6.087   9.544 -0.1205  0.3949  0.1395
24424SOL    HW176864   2.370   6.176   9.574 -0.5038  0.1707  1.0881
24424SOL    HW276865   2.254   6.089   9.530 -0.1862  0.0381  0.5191
24425SOL     OW76866   2.534   4.366  10.939 -0.5171  0.1556 -0.6127
24425SOL    HW176867   2.438   4.361  10.945 -0.8024 -0.0824 -3.5267
24425SOL    HW276868   2.562   4.275  10.928  0.1148  0.1902  0.5663
24426SOL     OW76869  10.493   5.492   3.521  0.1998 -0.4987 -0.4603
24426SOL    HW176870  10.585   5.517   3.521  0.6097 -1.8922  0.1799
24426SOL    HW276871  10.472   5.477   3.429  1.3930 -2.7140 -0.4372
24427SOL     OW76872   9.830   3.027   1.848 -0.0641 -0.8655  0.7935
24427SOL    HW176873   9.923   3.033   1.869 -0.1804  0.7998  0.9434
24427SOL    HW276874   9.824   2.952   1.788  1.2173 -1.5586  1.4784
24428SOL     OW76875   2.546   3.384   3.149 -0.0258  0.5247  0.2615
24428SOL    HW176876   2.467   3.438   3.160 -1.9681 -1.9069 -0.5936
24428SOL    HW276877   2.539   3.318   3.217  0.9110 -0.1214 -0.2549
24429SOL     OW76878  10.448   5.301   9.483 -0.2592 -1.0549  0.3630
24429SOL    HW176879  10.516   5.233   9.485  1.5124  0.6297  1.3545
24429SOL    HW276880  10.439   5.328   9.575 -0.4678  0.4552 -0.0784
24430SOL     OW76881   8.972   5.084   9.567  0.3653 -0.3245  0.2345
24430SOL    HW176882   9.031   5.114   9.636  0.2121  1.0145 -0.1839
24430SOL    HW276883   8.959   5.162   9.512  0.6368 -1.4033 -1.4052
24431SOL     OW76884   2.943   2.621   3.688  0.0141 -0.1429 -0.0755
24431SOL    HW176885   2.889   2.639   3.764  0.3517 -0.1661  0.1724
24431SOL    HW276886   3.013   2.565   3.721  0.3735  0.1536 -0.3212
24432SOL     OW76887   4.607   1.424   6.239 -0.2214 -0.1603  1.0198
24432SOL    HW176888   4.521   1.394   6.266 -0.1112 -1.0250  0.4333
24432SOL    HW276889   4.668   1.378   6.297 -0.1145 -0.0994  0.9564
24433SOL     OW76890   8.956   3.356   6.275  0.4813 -0.0274  0.3261
24433SOL    HW176891   8.944   3.421   6.344  1.9488  2.0027 -1.1761
24433SOL    HW276892   8.880   3.368   6.218  1.4335  1.5188 -0.7172
24434SOL     OW76893   7.959  10.895   1.490  0.1278  0.4054 -0.2656
24434SOL    HW176894   7.946  10.955   1.416  0.4274  0.3233 -0.3864
24434SOL    HW276895   7.923  10.812   1.460 -3.7917  1.3162  1.2047
24435SOL     OW76896   6.974   1.164   9.227  0.3303  0.1351  0.2637
24435SOL    HW176897   7.033   1.089   9.225 -2.9765 -2.7284  0.4005
24435SOL    HW276898   6.974   1.197   9.137  2.2074  0.3433  0.3108
24436SOL     OW76899  10.771   2.603   1.404 -0.0953  0.3278  0.6532
24436SOL    HW176900  10.756   2.522   1.452 -0.7129 -0.1684 -0.3584
24436SOL    HW276901  10.824   2.656   1.463  0.8328 -1.0433  1.0944
24437SOL     OW76902   1.368   2.375   0.435  0.5103 -0.1424  0.2524
24437SOL    HW176903   1.347   2.462   0.468 -0.4839  0.6641 -2.2491
24437SOL    HW276904   1.283   2.332   0.425  0.8577 -0.7654 -0.0696
24438SOL     OW76905   0.101   1.046   8.896 -0.1310 -0.6243  0.5428
24438SOL    HW176906   0.069   0.994   8.969 -0.1706  0.5807  1.4029
24438SOL    HW276907   0.037   1.117   8.887  0.2459 -0.3696 -0.2207
24439SOL     OW76908   0.437   6.747   1.122 -0.0569 -0.1984 -0.5426
24439SOL    HW176909   0.363   6.742   1.182 -0.2214  0.9478 -0.6273
24439SOL    HW276910   0.406   6.705   1.042 -0.1193 -0.9907 -0.1153
24440SOL     OW76911   6.492   3.069   8.945 -0.4615 -0.1580  0.2145
24440SOL    HW176912   6.518   3.017   9.021 -0.7109 -1.4341 -0.5470
24440SOL    HW276913   6.571   3.118   8.921 -0.3003  0.0408  1.1055
24441SOL     OW76914   7.460   4.670   6.636  0.4367  0.3467 -0.7745
24441SOL    HW176915   7.492   4.612   6.567  0.4280 -0.3929 -0.1732
24441SOL    HW276916   7.531   4.732   6.651  0.0283  1.1857 -2.1662
24442SOL     OW76917   4.070   5.905   6.442  0.4586 -0.3036 -0.2000
24442SOL    HW176918   4.091   5.836   6.504 -0.2881 -0.2249  0.1427
24442SOL    HW276919   3.978   5.892   6.420 -0.2175  1.6104  1.2182
24443SOL     OW76920   5.037   9.280   1.437 -0.3574  0.1301 -0.4125
24443SOL    HW176921   4.958   9.241   1.400 -0.7615 -0.2677  0.8296
24443SOL    HW276922   5.024   9.277   1.532  0.6962  1.0189 -0.2174
24444SOL     OW76923   3.268   0.279   0.566  0.6774 -0.4767  0.8034
24444SOL    HW176924   3.284   0.362   0.612 -1.7017 -0.5067  1.8022
24444SOL    HW276925   3.180   0.287   0.532  0.7889 -2.2176  0.0200
24445SOL     OW76926  10.109  10.106   5.884  0.1800 -0.1803 -0.0871
24445SOL    HW176927  10.163  10.164   5.938 -0.8090 -0.2321  0.9935
24445SOL    HW276928  10.055  10.166   5.832  1.0333 -0.1335 -0.9614
24446SOL     OW76929   4.369   6.527   6.957 -0.1564 -0.3504 -0.3141
24446SOL    HW176930   4.351   6.488   7.042  1.8540  1.1999  0.9077
24446SOL    HW276931   4.361   6.622   6.971 -1.5395 -0.0980 -2.3213
24447SOL     OW76932  10.951   8.093   5.063  0.6706 -0.8721  0.3420
24447SOL    HW176933  10.961   8.182   5.031  0.8790 -0.9458  0.1996
24447SOL    HW276934  10.882   8.056   5.008  0.9604 -0.9677  0.0382
24448SOL     OW76935  10.547   9.473   0.025 -0.7623  0.5985 -0.6534
24448SOL    HW176936  10.565   9.446  -0.064 -0.0606  2.8218 -1.2455
24448SOL    HW276937  10.551   9.569   0.023  2.6571  0.7270  2.4221
24449SOL     OW76938   2.950   5.792   0.840 -0.3918  1.0271 -0.5035
24449SOL    HW176939   2.984   5.841   0.915 -0.9518 -0.8229  1.0663
24449SOL    HW276940   2.859   5.772   0.864 -0.0329 -1.1993 -0.7645
24450SOL     OW76941   6.126   3.537   1.142  0.0715  0.1295 -0.2425
24450SOL    HW176942   6.087   3.526   1.229 -0.3195  0.4860 -0.3748
24450SOL    HW276943   6.174   3.620   1.147 -0.0687  0.2207 -0.4116
24451SOL     OW76944   9.234   2.535   1.233 -0.0625 -0.4761 -0.5290
24451SOL    HW176945   9.245   2.575   1.147 -0.7979 -0.4804 -0.6282
24451SOL    HW276946   9.319   2.496   1.252  1.3918  2.8148  0.4374
24452SOL     OW76947   5.682   4.541   1.915 -0.0716 -0.3135 -0.0699
24452SOL    HW176948   5.721   4.460   1.946  0.6289 -0.2095 -0.6529
24452SOL    HW276949   5.587   4.526   1.921  0.0511 -1.0334  0.1698
24453SOL     OW76950   3.897   7.762   6.763 -0.5852 -0.4045 -0.0734
24453SOL    HW176951   3.844   7.805   6.830 -0.2628 -0.1604  0.0271
24453SOL    HW276952   3.987   7.786   6.785 -0.5432  0.6243 -1.2667
24454SOL     OW76953   1.615   6.899   8.937 -0.1642  0.8340 -0.0993
24454SOL    HW176954   1.698   6.933   8.903  0.4233 -0.9668 -0.5814
24454SOL    HW276955   1.553   6.911   8.865 -0.0975  1.3202 -0.0801
24455SOL     OW76956   4.273   2.712   8.838  0.3762  0.2234 -0.4767
24455SOL    HW176957   4.346   2.704   8.899  0.4100  1.4682 -0.3286
24455SOL    HW276958   4.199   2.739   8.892 -0.4050 -1.7198 -0.5155
24456SOL     OW76959  10.292   7.811   8.499 -0.3250 -0.2198  0.8423
24456SOL    HW176960  10.225   7.754   8.537  0.3815 -1.2886  0.5283
24456SOL    HW276961  10.246   7.859   8.430 -0.8709 -0.6062  0.9290
24457SOL     OW76962   0.279   7.888   9.485 -0.0258 -0.0662  0.1484
24457SOL    HW176963   0.204   7.885   9.545 -1.1127  0.6297 -1.1195
24457SOL    HW276964   0.249   7.842   9.407  0.8601  0.2460 -0.3912
24458SOL     OW76965   5.601   6.237   0.301 -0.5003 -0.1558 -0.0235
24458SOL    HW176966   5.602   6.274   0.213  2.2962  1.2801  0.4713
24458SOL    HW276967   5.574   6.146   0.289  0.7769 -0.2891 -2.5508
24459SOL     OW76968   4.382   1.065   7.000 -0.1202 -0.7958  0.5899
24459SOL    HW176969   4.381   1.101   7.089 -0.8434  0.4392  0.0999
24459SOL    HW276970   4.416   1.136   6.946 -0.4286 -1.2702 -0.2364
24460SOL     OW76971   8.117   0.788   9.530 -0.0054 -0.2009  0.1390
24460SOL    HW176972   8.183   0.721   9.546 -2.1346 -2.3991  0.2217
24460SOL    HW276973   8.138   0.857   9.593  2.6426 -0.4024 -0.3895
24461SOL     OW76974   2.727   7.196   9.218  0.6134  0.9377 -0.2119
24461SOL    HW176975   2.658   7.204   9.284  0.1311  3.6976 -0.8969
24461SOL    HW276976   2.786   7.130   9.252 -1.8516 -0.8725  0.8660
24462SOL     OW76977   5.012   7.808   8.919 -0.4111 -0.1641  0.7196
24462SOL    HW176978   4.952   7.881   8.903  0.1019  0.3535  1.1525
24462SOL    HW276979   5.097   7.838   8.887 -0.3377 -0.8533  0.2180
24463SOL     OW76980   3.505   4.536   4.547 -0.5970  0.1680 -0.3037
24463SOL    HW176981   3.483   4.530   4.640  0.9699 -0.4109  0.0538
24463SOL    HW276982   3.516   4.630   4.531  2.4026  0.1416  0.9636
24464SOL     OW76983   8.638   4.956   9.530  0.6269  0.0695  0.8042
24464SOL    HW176984   8.688   4.890   9.482  0.6822  0.5995  0.1221
24464SOL    HW276985   8.678   5.039   9.507 -1.5461  0.7062 -1.1382
24465SOL     OW76986   6.944   9.203   3.591  0.4445  0.9918 -0.0074
24465SOL    HW176987   6.958   9.295   3.616  0.8678  1.0909 -0.5784
24465SOL    HW276988   6.849   9.191   3.596  0.4916  1.0523  1.4443
24466SOL     OW76989   2.471   3.607   6.674 -0.5325 -0.1007  0.4656
24466SOL    HW176990   2.479   3.572   6.586 -1.9427  0.0895  0.2370
24466SOL    HW276991   2.544   3.669   6.682  0.0595 -0.6795 -0.2761
24467SOL     OW76992   2.401   9.880   7.838 -0.5740  0.5308  0.1523
24467SOL    HW176993   2.367   9.970   7.846  0.0694  0.9653 -1.5513
24467SOL    HW276994   2.342   9.838   7.775 -0.3661  0.0232  0.2915
24468SOL     OW76995   9.872   8.228   2.415 -0.3901  0.0324 -0.2013
24468SOL    HW176996   9.920   8.193   2.490  1.4932 -1.2624 -1.8759
24468SOL    HW276997   9.822   8.302   2.450  1.7188  0.5517  2.0004
24469SOL     OW76998   4.146   0.309   1.990  0.3012  0.3560 -0.1821
24469SOL    HW176999   4.050   0.313   1.993  0.1823 -1.5036 -0.6073
24469SOL    HW277000   4.173   0.399   1.970 -1.3969  0.7553 -0.8475
24470SOL     OW77001   3.149   2.933   2.412 -0.1142 -0.6820 -0.4823
24470SOL    HW177002   3.161   2.883   2.493 -0.3155  0.1324  0.0686
24470SOL    HW277003   3.235   2.973   2.396 -0.7646  1.5322  0.9917
24471SOL     OW77004   0.439   7.923   9.729 -1.1021 -0.3954  0.0767
24471SOL    HW177005   0.388   7.935   9.649  1.1735 -0.9276 -1.5627
24471SOL    HW277006   0.449   7.828   9.736  1.4572 -0.2923 -0.9731
24472SOL     OW77007   5.497   6.283   0.855  0.0564  0.0394  0.1727
24472SOL    HW177008   5.523   6.337   0.780 -0.5136 -0.7297 -0.6029
24472SOL    HW277009   5.530   6.330   0.931  0.5931  0.8783 -0.5562
24473SOL     OW77010   9.171   9.124   2.975 -0.3066  0.1616  0.0307
24473SOL    HW177011   9.201   9.155   2.889 -2.2000  3.8609  0.4685
24473SOL    HW277012   9.210   9.185   3.037 -1.4904 -0.4842  1.4531
24474SOL     OW77013   4.094   9.532   0.424 -0.1750  0.2034 -0.1219
24474SOL    HW177014   4.172   9.588   0.425 -0.2474  0.3646 -1.6128
24474SOL    HW277015   4.121   9.455   0.374 -0.9772  0.2803 -0.6774
24475SOL     OW77016   9.670   8.511   7.414 -0.3571  0.0553  0.2116
24475SOL    HW177017   9.762   8.530   7.431 -0.8961  0.8570  2.6314
24475SOL    HW277018   9.622   8.558   7.483 -2.7329  1.1992 -1.9986
24476SOL     OW77019   1.293   3.582   2.359 -0.3425 -0.3785 -0.1578
24476SOL    HW177020   1.283   3.633   2.279 -1.4040 -1.4289 -0.7243
24476SOL    HW277021   1.380   3.605   2.391  1.1295 -1.6362 -2.8840
24477SOL     OW77022   5.720   0.480   7.057 -0.1407  0.3543 -0.5136
24477SOL    HW177023   5.638   0.442   7.024  0.7831 -1.1845 -1.1872
24477SOL    HW277024   5.782   0.467   6.985  0.9382  0.5888  0.3531
24478SOL     OW77025   1.972   2.432   8.244 -0.4695  0.0985 -0.2320
24478SOL    HW177026   2.024   2.399   8.170 -0.3250 -1.1918  0.4085
24478SOL    HW277027   1.957   2.354   8.298 -1.3462  0.8543  0.6287
24479SOL     OW77028   6.014   2.071   2.353 -0.2649  0.4465 -0.2360
24479SOL    HW177029   5.923   2.058   2.326  0.5452 -2.4034 -2.0269
24479SOL    HW277030   6.058   1.990   2.328  2.6568  1.4644  1.1895
24480SOL     OW77031   0.553   2.919   5.045  0.0133  0.2324 -0.2514
24480SOL    HW177032   0.629   2.976   5.041 -0.1367  0.3762 -1.2531
24480SOL    HW277033   0.544   2.884   4.957 -0.5767 -0.4462  0.0692
24481SOL     OW77034   6.778   9.393   4.893 -0.0773 -0.0309  0.0215
24481SOL    HW177035   6.840   9.465   4.880 -0.2938  0.0565 -0.5335
24481SOL    HW277036   6.823   9.335   4.955 -0.3572  1.1104  1.3689
24482SOL     OW77037   5.692   9.494   3.804  0.1804  0.0853 -0.0867
24482SOL    HW177038   5.622   9.439   3.839  0.1453 -1.3658 -2.1936
24482SOL    HW277039   5.752   9.432   3.762  3.1242  1.2042  2.1328
24483SOL     OW77040   2.585   4.302   0.563  0.0523 -0.3543 -0.0705
24483SOL    HW177041   2.619   4.214   0.548  0.1019 -0.2524 -0.5576
24483SOL    HW277042   2.495   4.299   0.531  0.8122  0.4578 -2.4743
24484SOL     OW77043   5.174   1.332   5.888  0.2610 -0.5562  0.1046
24484SOL    HW177044   5.156   1.286   5.970 -0.3741  0.2004  0.4052
24484SOL    HW277045   5.102   1.307   5.830  0.3066 -0.5094  0.0281
24485SOL     OW77046   3.443   5.210   7.143 -0.2521 -0.0572  0.5221
24485SOL    HW177047   3.367   5.201   7.084  1.0127 -1.7608 -0.9555
24485SOL    HW277048   3.446   5.128   7.191  0.2428  0.2925  1.1018
24486SOL     OW77049   8.535   9.923   0.429  0.4626  0.6261  0.1422
24486SOL    HW177050   8.602   9.942   0.363  0.8497 -0.0742  0.3255
24486SOL    HW277051   8.453   9.925   0.380  0.8843 -1.8333 -0.8334
24487SOL     OW77052   7.241   4.712   5.493  0.5614 -0.4130 -0.3613
24487SOL    HW177053   7.148   4.725   5.509  0.5235  0.6626 -1.3082
24487SOL    HW277054   7.259   4.623   5.524 -0.6044 -0.3587  0.5239
24488SOL     OW77055   0.606   2.851   5.508  0.1041 -0.7325  0.8627
24488SOL    HW177056   0.575   2.802   5.432 -1.0910 -0.8664  1.3995
24488SOL    HW277057   0.686   2.807   5.535  1.2957  0.1409 -1.0945
24489SOL     OW77058   2.503   7.483   0.066  0.0610 -0.5758  0.1206
24489SOL    HW177059   2.520   7.545   0.137 -0.9184 -2.3763  2.0448
24489SOL    HW277060   2.586   7.479   0.018  0.9037  0.4122  1.4071
24490SOL     OW77061   4.970   1.849   3.528 -0.1872  0.2480  0.0337
24490SOL    HW177062   4.934   1.863   3.615  0.7376 -0.3633  0.5332
24490SOL    HW277063   4.893   1.844   3.471 -0.7701  1.6387  0.6421
24491SOL     OW77064   1.435   2.911   8.556 -0.7849 -0.0370  0.9187
24491SOL    HW177065   1.436   2.962   8.475  0.0965  0.3738  1.1762
24491SOL    HW277066   1.374   2.840   8.539  0.3788 -0.7246 -0.5957
24492SOL     OW77067   2.171   2.051   6.604 -0.4372 -0.4316  0.0123
24492SOL    HW177068   2.163   2.011   6.690  1.5314 -1.4664 -0.2344
24492SOL    HW277069   2.165   2.145   6.621 -2.6725 -0.6661  0.9039
24493SOL     OW77070   7.216   2.352  11.088  0.5868 -0.4190 -0.1873
24493SOL    HW177071   7.195   2.272  11.039 -1.5231 -1.1257  1.6808
24493SOL    HW277072   7.240   2.320  11.175 -2.6959  0.9458  1.3910
24494SOL     OW77073   7.476   8.411   6.561 -0.0962 -0.0217  0.9864
24494SOL    HW177074   7.388   8.429   6.593 -1.4920 -0.2775 -2.2934
24494SOL    HW277075   7.486   8.316   6.567 -1.4210 -0.4045 -1.5037
24495SOL     OW77076   2.989  11.075   4.820  0.0479  0.6331  0.4541
24495SOL    HW177077   3.019  11.085   4.911  1.3792 -0.2616  0.1525
24495SOL    HW277078   3.011  10.984   4.798  0.0791  0.9392 -0.8784
24496SOL     OW77079   6.379   8.320   5.123  0.1769 -0.1697  0.1414
24496SOL    HW177080   6.365   8.329   5.029 -0.2353 -0.1603  0.2040
24496SOL    HW277081   6.412   8.231   5.134  0.9634  0.0790 -0.0951
24497SOL     OW77082   6.833   3.040   4.245  0.5071  0.0913 -0.0193
24497SOL    HW177083   6.791   3.111   4.294 -0.1579  0.1073 -0.6047
24497SOL    HW277084   6.817   2.962   4.298 -1.6536 -0.1864 -0.9683
24498SOL     OW77085   2.668   3.537   3.552 -0.4843  0.0231 -0.1682
24498SOL    HW177086   2.583   3.514   3.514 -0.8675  0.8069  0.1804
24498SOL    HW277087   2.703   3.455   3.585 -1.0800 -0.3219 -0.3766
24499SOL     OW77088   9.555   0.099  10.772 -0.1806 -0.5482  0.8051
24499SOL    HW177089   9.534   0.124  10.862  0.1257 -2.0677  1.3149
24499SOL    HW277090   9.470   0.092  10.729 -0.3204  0.3576  0.9025
24500SOL     OW77091   1.128   0.560   2.229 -0.0046  0.0120 -0.3204
24500SOL    HW177092   1.207   0.614   2.224  0.8513 -1.2453 -1.0745
24500SOL    HW277093   1.158   0.478   2.268 -1.0524 -0.2866 -0.1363
24501SOL     OW77094   7.025   1.316   3.424 -0.4027 -0.5008 -0.6334
24501SOL    HW177095   7.092   1.367   3.470 -0.4610 -0.2615 -0.8147
24501SOL    HW277096   6.943   1.340   3.467 -0.4041 -0.5983 -0.5820
24502SOL     OW77097   8.496  10.905   3.695  0.2314  0.3394  0.3578
24502SOL    HW177098   8.453  10.980   3.654  0.5175 -0.3517 -1.3181
24502SOL    HW277099   8.468  10.908   3.786 -0.4605  1.9691  0.1305
24503SOL     OW77100   7.792   0.897   7.653  0.6860  0.0043 -0.0391
24503SOL    HW177101   7.864   0.893   7.717  0.1727 -1.4227  0.4789
24503SOL    HW277102   7.779   0.807   7.626  1.6791  0.6841 -3.1360
24504SOL     OW77103   4.887   0.624  10.823  0.5669  0.0356  0.2299
24504SOL    HW177104   4.906   0.634  10.916  1.1849  1.3306 -0.0171
24504SOL    HW277105   4.973   0.622  10.781  0.2973 -0.7360 -0.3083
24505SOL     OW77106   7.648   5.999   4.545  0.2773  0.1150 -0.4390
24505SOL    HW177107   7.662   6.076   4.489  1.2214  1.0249  0.9721
24505SOL    HW277108   7.649   6.034   4.634  0.3956 -1.4987  0.2209
24506SOL     OW77109   3.293   0.765   8.061 -0.3909  0.2640  0.0576
24506SOL    HW177110   3.320   0.768   7.969  0.9183  0.3264  0.4229
24506SOL    HW277111   3.314   0.676   8.089 -0.0380  0.4833  0.5032
24507SOL     OW77112   8.494   1.640   0.090  0.2861 -0.5611 -0.0086
24507SOL    HW177113   8.430   1.583   0.133  0.9523 -1.9630 -0.7987
24507SOL    HW277114   8.446   1.676   0.015 -0.2607  0.2770  0.7196
24508SOL     OW77115   4.714  10.261   2.937  0.1944  0.2854  0.7264
24508SOL    HW177116   4.736  10.250   3.030  0.5368 -0.1913  0.5935
24508SOL    HW277117   4.768  10.196   2.892 -0.6226 -0.0900  0.2776
24509SOL     OW77118   6.242   7.155   3.249 -0.0217 -0.3034 -0.7354
24509SOL    HW177119   6.165   7.184   3.298  1.6024  1.3223  1.0376
24509SOL    HW277120   6.304   7.128   3.316  1.1988 -0.9773 -2.0872
24510SOL     OW77121  10.058   8.981   7.874  0.4705 -0.9125  0.2661
24510SOL    HW177122   9.983   8.963   7.816  1.1629 -0.4222 -0.7964
24510SOL    HW277123  10.132   8.991   7.815  0.5399  3.7908  0.7861
24511SOL     OW77124   1.400   5.476   2.911  0.4338 -0.5062 -0.3498
24511SOL    HW177125   1.435   5.547   2.858  0.2515 -0.5722 -0.5613
24511SOL    HW277126   1.430   5.396   2.869 -0.4331 -0.5755 -0.8721
24512SOL     OW77127   3.895  10.848   0.191  0.2119 -0.2516 -0.1836
24512SOL    HW177128   3.928  10.935   0.166  1.2572 -0.6668 -0.3097
24512SOL    HW277129   3.803  10.862   0.212  0.6698  1.1683  1.1082
24513SOL     OW77130   5.664   5.552   6.514  0.0535  0.1852  0.0601
24513SOL    HW177131   5.623   5.634   6.487 -1.2568 -0.8261 -1.1308
24513SOL    HW277132   5.754   5.558   6.481  0.4171  1.7141  1.2303
24514SOL     OW77133   7.317   0.190   9.519 -0.0802  0.1911  0.3930
24514SOL    HW177134   7.348   0.254   9.584  1.5889  0.4557 -0.6091
24514SOL    HW277135   7.324   0.106   9.563 -0.0766  0.4776  0.9505
24515SOL     OW77136   5.860   4.059   4.373 -0.4539 -0.0922 -0.2930
24515SOL    HW177137   5.798   4.112   4.422  0.9524  0.2879  1.1407
24515SOL    HW277138   5.869   3.978   4.424 -1.4463 -1.1380 -1.6825
24516SOL     OW77139   1.097   0.919   4.815  0.0015  0.1989 -0.6431
24516SOL    HW177140   1.028   0.872   4.862 -0.6338  2.2402  0.5809
24516SOL    HW277141   1.154   0.953   4.885  0.1746  1.6211 -1.4492
24517SOL     OW77142   7.635   6.810   8.335 -0.0359 -0.0881  0.2638
24517SOL    HW177143   7.598   6.723   8.353 -1.7554  0.4694 -0.3952
24517SOL    HW277144   7.602   6.865   8.405 -0.3753  0.4074 -0.2824
24518SOL     OW77145   3.666   7.551   6.475 -1.0558 -0.0591 -0.3300
24518SOL    HW177146   3.761   7.548   6.485 -0.9070  1.0482 -1.2521
24518SOL    HW277147   3.634   7.576   6.561 -0.5000 -0.1829 -0.0795
24519SOL     OW77148   5.734   5.422   0.485  0.2368  0.0883  0.4491
24519SOL    HW177149   5.654   5.371   0.500 -0.0327  0.5667  0.6717
24519SOL    HW277150   5.702   5.509   0.463  0.6717 -0.0832 -0.9195
24520SOL     OW77151   6.871   2.762   7.704 -0.0282 -0.3278 -0.3330
24520SOL    HW177152   6.809   2.827   7.738 -0.2318 -0.7933  0.2049
24520SOL    HW277153   6.955   2.809   7.702  0.2627 -0.6254  2.0671
24521SOL     OW77154   5.432   6.084   6.738 -0.3900  0.2576  0.3916
24521SOL    HW177155   5.386   6.123   6.664 -0.1764 -0.0041  0.1221
24521SOL    HW277156   5.372   6.097   6.812 -0.0859  1.6102  0.4344
24522SOL     OW77157   3.335   7.354   7.499 -0.0162  0.2902  0.7854
24522SOL    HW177158   3.299   7.361   7.588 -0.2019  0.0931  0.7274
24522SOL    HW277159   3.360   7.443   7.476  0.4153  0.2821  1.1941
24523SOL     OW77160   5.751   9.220   2.136  0.9788 -0.2719  0.2909
24523SOL    HW177161   5.732   9.246   2.046 -1.2185  0.5598  0.9217
24523SOL    HW277162   5.747   9.124   2.134 -1.3425 -0.2327 -0.1303
24524SOL     OW77163   8.825   5.781   0.370  0.3850 -0.5476 -0.0648
24524SOL    HW177164   8.828   5.842   0.444  1.5686 -0.5091 -0.1308
24524SOL    HW277165   8.838   5.695   0.409 -1.1757 -0.7688  0.0145
24525SOL     OW77166   5.258   1.654   0.864 -0.1712  0.1250 -0.2064
24525SOL    HW177167   5.338   1.675   0.913 -0.5384  1.5057 -0.1638
24525SOL    HW277168   5.187   1.665   0.927 -0.4432 -0.6852 -0.3582
24526SOL     OW77169   5.804   3.483   3.772 -0.1183  0.2637 -0.5019
24526SOL    HW177170   5.756   3.417   3.719 -1.6202  1.2494 -0.4362
24526SOL    HW277171   5.884   3.499   3.722  0.7622 -2.2753 -0.0562
24527SOL     OW77172   4.765   4.694   9.476 -0.1160  0.3318 -0.0614
24527SOL    HW177173   4.797   4.624   9.419 -0.9429 -0.2589  0.1778
24527SOL    HW277174   4.741   4.765   9.417 -2.3076 -0.7839 -0.6442
24528SOL     OW77175   7.708   6.319   0.371  0.9879  0.3804 -0.7412
24528SOL    HW177176   7.790   6.290   0.410  0.3981 -0.0650  0.1904
24528SOL    HW277177   7.640   6.272   0.418  0.0411  2.5320  0.1964
24529SOL     OW77178   4.254   3.104   0.885  0.4429 -0.7135 -0.0662
24529SOL    HW177179   4.329   3.156   0.856  0.8171  0.2415  2.3711
24529SOL    HW277180   4.292   3.036   0.941 -0.4014 -0.9442  0.2504
24530SOL     OW77181   3.266   9.292   5.286  0.0412 -0.2784  0.0175
24530SOL    HW177182   3.342   9.347   5.304 -0.3078 -0.4234  2.2046
24530SOL    HW277183   3.269   9.224   5.354 -1.2441 -1.1392 -0.7420
24531SOL     OW77184   6.111   0.019   2.094  0.7832 -0.0642  0.2291
24531SOL    HW177185   6.073   0.096   2.051 -1.4940 -0.8971  0.6031
24531SOL    HW277186   6.200   0.045   2.115 -0.0972  2.7366  0.9343
24532SOL     OW77187   5.413   3.481   6.444  0.1291  0.1734 -0.3545
24532SOL    HW177188   5.328   3.523   6.442 -0.9129 -1.8528 -1.4237
24532SOL    HW277189   5.400   3.401   6.494  1.7027  0.3677  0.4477
24533SOL     OW77190   0.025   5.665   8.462  0.1275  0.3985 -0.0084
24533SOL    HW177191   0.092   5.655   8.530  0.1226  1.3069  0.1518
24533SOL    HW277192  -0.050   5.703   8.508 -1.1446 -2.0987  0.1643
24534SOL     OW77193   6.505  10.912   6.195  0.0671  0.5597 -0.0575
24534SOL    HW177194   6.556  10.879   6.269  0.4802 -0.3463 -0.7327
24534SOL    HW277195   6.494  11.005   6.214  1.6300  0.7025  0.3284
24535SOL     OW77196   2.188   2.417   5.092 -0.5054  0.5481  0.5511
24535SOL    HW177197   2.259   2.446   5.150 -0.3276  0.6671  0.2791
24535SOL    HW277198   2.162   2.497   5.045  0.2994  0.1852 -0.5412
24536SOL     OW77199   4.304   3.955   1.337  0.3019 -0.3973 -0.0472
24536SOL    HW177200   4.306   3.955   1.241  0.1593 -0.4711 -0.0505
24536SOL    HW277201   4.314   3.863   1.361 -0.8384 -0.5262 -0.0186
24537SOL     OW77202   8.253  10.748   2.823  0.5650 -0.2241  0.2189
24537SOL    HW177203   8.276  10.754   2.730  1.5518 -0.5631  0.4381
24537SOL    HW277204   8.181  10.684   2.825 -0.8112  1.2326 -0.5246
24538SOL     OW77205   6.886   7.978   6.168 -0.5281  0.5049 -0.0873
24538SOL    HW177206   6.872   7.982   6.263  1.3592  0.3241  0.2368
24538SOL    HW277207   6.928   7.894   6.153  1.1834  1.4396 -0.7736
24539SOL     OW77208   2.659   0.115  10.559  0.3041  0.4558  0.1014
24539SOL    HW177209   2.638   0.027  10.528  0.1465  0.5736 -0.1335
24539SOL    HW277210   2.622   0.120  10.647 -0.4357  0.5747 -0.2124
24540SOL     OW77211   6.885   5.714   6.390  0.2275  0.1119  0.1915
24540SOL    HW177212   6.791   5.733   6.398 -0.4895 -2.3067 -1.5155
24540SOL    HW277213   6.923   5.748   6.471 -2.0825  1.3020  0.8599
24541SOL     OW77214  11.104   7.446   2.367  0.1365 -0.5756  0.6227
24541SOL    HW177215  11.196   7.434   2.341  0.4631  2.9141 -0.3054
24541SOL    HW277216  11.055   7.386   2.310  1.5755  0.3828 -1.7768
24542SOL     OW77217   0.758   8.226   3.655 -0.0855 -0.3271 -0.2018
24542SOL    HW177218   0.726   8.314   3.675  0.5385 -0.6195  2.4369
24542SOL    HW277219   0.851   8.238   3.634  0.2701 -0.4434  1.2422
24543SOL     OW77220   5.390   6.894   0.777 -0.0567 -0.0391  0.4721
24543SOL    HW177221   5.434   6.875   0.859 -1.2773 -1.4293  0.8591
24543SOL    HW277222   5.456   6.936   0.723  0.8702  0.5992  2.0331
24544SOL     OW77223   5.922   5.764   8.751 -0.0617  0.0853  0.2642
24544SOL    HW177224   5.915   5.698   8.820  0.3949  0.0043  0.2374
24544SOL    HW277225   6.012   5.796   8.758 -0.5538  1.3786  0.8822
24545SOL     OW77226   3.230   2.325   0.024  0.4685  0.1692 -0.4699
24545SOL    HW177227   3.252   2.410  -0.015 -1.4736  1.2453  0.6453
24545SOL    HW277228   3.147   2.339   0.069 -0.0903 -2.4322 -0.5131
24546SOL     OW77229   4.329   9.175   5.881 -0.0046 -0.1767 -0.2128
24546SOL    HW177230   4.243   9.157   5.919 -0.4805  0.9427 -0.7246
24546SOL    HW277231   4.336   9.270   5.880  0.4711 -0.1862 -1.8162
24547SOL     OW77232   2.383   1.165   0.803  0.1829  0.4979 -0.4138
24547SOL    HW177233   2.394   1.081   0.758 -0.3463  0.4694 -0.4995
24547SOL    HW277234   2.467   1.181   0.846 -0.2837 -0.9773  1.1492
24548SOL     OW77235   5.385   9.888   8.389 -0.2381  0.6398 -0.1513
24548SOL    HW177236   5.367   9.941   8.467  1.3013  3.5372 -1.5792
24548SOL    HW277237   5.480   9.893   8.378 -0.0955 -1.9791 -0.7757
24549SOL     OW77238   7.428   6.938   1.708 -0.3653  0.0956 -0.2053
24549SOL    HW177239   7.392   7.026   1.719  0.2297  0.7152 -2.6845
24549SOL    HW277240   7.522   6.952   1.693 -0.1955 -0.9976 -0.2561
24550SOL     OW77241   6.102  10.622   0.364  0.2357 -0.3725 -0.4054
24550SOL    HW177242   6.035  10.645   0.301  2.2755  0.6086 -2.3625
24550SOL    HW277243   6.094  10.689   0.433 -0.6740 -0.1804 -0.6891
24551SOL     OW77244   5.057   0.099   2.737  0.2312  0.2404  0.3842
24551SOL    HW177245   5.020   0.170   2.789  0.7103 -0.6803  2.0540
24551SOL    HW277246   5.015   0.020   2.771  1.5994 -0.5259  0.3725
24552SOL     OW77247   8.895   4.814   9.162 -0.2026 -0.5706  0.5089
24552SOL    HW177248   8.917   4.907   9.153  0.0771 -0.3039  3.1580
24552SOL    HW277249   8.960   4.769   9.108  0.4225  0.7095  0.1501
24553SOL     OW77250   1.610   8.166   9.304 -0.2538 -0.1114  0.1852
24553SOL    HW177251   1.699   8.193   9.285  0.1466 -0.8481  0.9632
24553SOL    HW277252   1.561   8.248   9.315  0.9053  0.3577  2.4327
24554SOL     OW77253   6.288   0.631   7.856  0.3280  0.0518  0.7297
24554SOL    HW177254   6.321   0.721   7.857 -0.8389  0.4945  0.7599
24554SOL    HW277255   6.296   0.602   7.947 -0.6292  0.6430  1.0152
24555SOL     OW77256   2.535   5.473  11.109 -0.0358  0.0583 -0.2477
24555SOL    HW177257   2.548   5.549  11.053 -0.7446  0.7288  0.4848
24555SOL    HW277258   2.578   5.401  11.062  0.1171  0.7800 -1.2323
24556SOL     OW77259   9.538   8.684   3.213 -0.8011 -0.5093  0.0827
24556SOL    HW177260   9.501   8.766   3.178  0.7622 -0.9123 -2.8413
24556SOL    HW277261   9.632   8.700   3.215 -0.6241 -1.6299  1.2734
24557SOL     OW77262   5.375   1.740   7.674 -0.0075  0.0112  0.6123
24557SOL    HW177263   5.389   1.826   7.712 -0.1050  0.8863 -1.2427
24557SOL    HW277264   5.432   1.737   7.597 -1.5503 -0.7324 -0.5739
24558SOL     OW77265   1.824   8.775   8.246 -0.0871  0.3495 -0.4107
24558SOL    HW177266   1.787   8.814   8.325 -0.5530 -0.1068 -0.3983
24558SOL    HW277267   1.835   8.848   8.185 -1.7641  0.3813 -0.7120
24559SOL     OW77268   4.177   8.774   1.461 -0.3278  0.1618  0.7824
24559SOL    HW177269   4.178   8.695   1.407  2.4608 -0.0221  0.9121
24559SOL    HW277270   4.153   8.744   1.548  0.3561 -0.5298  0.7484
24560SOL     OW77271   2.559   0.969   4.956 -0.1673  0.4878  0.4683
24560SOL    HW177272   2.521   0.895   4.909  1.6034  1.0865 -2.0832
24560SOL    HW277273   2.485   1.010   4.999 -1.5883 -1.2604 -0.1600
24561SOL     OW77274   8.885   5.308   7.235  0.5664 -0.7356  0.5415
24561SOL    HW177275   8.937   5.228   7.224  0.4947 -0.7203  0.0873
24561SOL    HW277276   8.945   5.379   7.213 -0.1456 -0.7948 -1.9004
24562SOL     OW77277  10.927  10.467   3.958  0.2724 -0.1879 -0.5323
24562SOL    HW177278  10.935  10.412   4.036  0.5674  0.1275 -0.3359
24562SOL    HW277279  11.005  10.447   3.906  2.7025  3.0496  1.4896
24563SOL     OW77280   8.750   7.088   7.683 -0.0706 -0.4282  0.0524
24563SOL    HW177281   8.666   7.060   7.647 -0.5387  0.5147  0.3786
24563SOL    HW277282   8.781   7.156   7.623  0.2166 -0.4266  0.1993
24564SOL     OW77283   1.555   0.814   8.074  0.1455  0.1247  0.1309
24564SOL    HW177284   1.601   0.755   8.015  1.2455  0.8661  0.2184
24564SOL    HW277285   1.489   0.856   8.019  0.6633  0.2567 -0.3960
24565SOL     OW77286   7.187  10.098   8.360  0.1465 -0.0941 -0.0619
24565SOL    HW177287   7.178  10.176   8.414  0.6518 -0.2116  0.2003
24565SOL    HW277288   7.280  10.096   8.337 -0.2277  0.5412 -1.8165
24566SOL     OW77289   8.521   3.778   2.325  0.3216 -0.2643  0.0690
24566SOL    HW177290   8.433   3.794   2.289  0.3870 -0.2467 -0.0850
24566SOL    HW277291   8.508   3.712   2.392  0.2216 -0.4203 -0.1029
24567SOL     OW77292   2.062   8.429  10.667  0.1180 -0.4687 -0.1448
24567SOL    HW177293   1.992   8.394  10.722 -1.3272  0.0874 -1.5430
24567SOL    HW277294   2.096   8.352  10.620  0.0206 -0.6450  0.0708
24568SOL     OW77295   8.232   5.935   2.525  0.1661 -0.0432 -0.3734
24568SOL    HW177296   8.267   5.963   2.441 -1.7509 -0.0056 -1.2015
24568SOL    HW277297   8.308   5.906   2.574  1.6236  1.9102 -1.3238
24569SOL     OW77298   2.380   1.242   2.689 -0.0051  0.0156 -0.7614
24569SOL    HW177299   2.346   1.247   2.778  1.0055 -0.5566 -0.3301
24569SOL    HW277300   2.358   1.153   2.660 -1.5348  0.6180 -1.6130
24570SOL     OW77301   9.823   8.910   7.728 -0.3196  0.2790 -0.2046
24570SOL    HW177302   9.795   8.940   7.642 -0.1106  0.7049 -0.1225
24570SOL    HW277303   9.856   8.821   7.713  0.5724  0.6933 -0.7240
24571SOL     OW77304   0.811   3.018   6.628  0.6701  1.0729 -0.2510
24571SOL    HW177305   0.783   2.930   6.602  1.0781  0.7884  0.2668
24571SOL    HW277306   0.743   3.048   6.689  1.1850  0.6062  0.5651
24572SOL     OW77307  10.563   7.797   9.215  0.9216 -0.6166 -0.4041
24572SOL    HW177308  10.471   7.771   9.218  0.4096  1.0956 -0.3900
24572SOL    HW277309  10.611   7.714   9.217 -0.6227 -1.5763 -1.2551
24573SOL     OW77310  10.010   8.919   5.475 -0.6365 -0.0570  0.2755
24573SOL    HW177311   9.967   8.908   5.390 -0.4024  0.6726  0.0603
24573SOL    HW277312  10.037   9.011   5.478 -0.2008 -0.1936  0.9332
24574SOL     OW77313   1.557  10.416   5.324  0.0518 -0.3042 -0.6259
24574SOL    HW177314   1.582  10.325   5.309  0.9798  0.0685 -1.4703
24574SOL    HW277315   1.519  10.444   5.240  0.8907  0.4220 -0.7859
24575SOL     OW77316   0.674   5.717   8.882 -0.4892  0.5477 -0.2652
24575SOL    HW177317   0.743   5.783   8.873 -0.8286  0.6785 -2.6438
24575SOL    HW277318   0.611   5.756   8.943 -0.2506  2.0550 -0.9360
24576SOL     OW77319   7.648   0.898   1.534  0.3197 -0.1415 -0.5907
24576SOL    HW177320   7.740   0.877   1.555  0.3304 -1.0284 -1.4797
24576SOL    HW277321   7.613   0.817   1.498 -0.9266  0.0936  0.0591
24577SOL     OW77322   5.552   4.322   8.402  0.1642 -0.2237  0.0667
24577SOL    HW177323   5.493   4.341   8.475 -0.8886 -0.2709 -0.7452
24577SOL    HW277324   5.585   4.234   8.420 -0.6176 -0.5070  0.1380
24578SOL     OW77325   9.330   5.883   8.349  0.1930 -0.0042  0.3672
24578SOL    HW177326   9.389   5.845   8.284 -0.4166  1.4351 -1.1155
24578SOL    HW277327   9.383   5.947   8.396 -0.2657  1.8975 -1.5248
24579SOL     OW77328   7.749   6.861   4.012 -0.1300 -0.1880  0.3658
24579SOL    HW177329   7.825   6.897   3.966 -1.4605 -0.4125 -2.2234
24579SOL    HW277330   7.713   6.936   4.060  2.2241 -0.3174  2.5431
24580SOL     OW77331   5.038   1.624  10.048 -0.5368  0.4346  0.0546
24580SOL    HW177332   5.131   1.606  10.038 -0.7943 -0.1991 -1.5014
24580SOL    HW277333   4.995   1.562   9.988 -1.8909  1.3715  0.0146
24581SOL     OW77334   3.488   9.330   2.618 -0.0968  0.1786  0.4346
24581SOL    HW177335   3.421   9.398   2.627  0.7065  0.8503  1.6482
24581SOL    HW277336   3.532   9.350   2.536  0.3648  1.3585  0.9504
24582SOL     OW77337   6.034   3.673  10.036  0.7642 -0.2953  0.0859
24582SOL    HW177338   5.949   3.686  10.079  0.7885  0.1127  0.0188
24582SOL    HW277339   6.099   3.696  10.103  0.7901  1.1546 -0.4106
24583SOL     OW77340  10.766   3.533   4.036  0.4344  0.0606 -0.9039
24583SOL    HW177341  10.835   3.478   4.072 -0.4478 -0.4016  0.1186
24583SOL    HW277342  10.811   3.613   4.009  1.4460 -0.4469 -0.7580
24584SOL     OW77343   1.489   6.551   0.740 -0.0128 -0.7201  0.8305
24584SOL    HW177344   1.505   6.644   0.730 -0.8076 -0.4156  2.1737
24584SOL    HW277345   1.556   6.522   0.802 -0.2337 -0.8863  0.9937
24585SOL     OW77346   8.977   9.668   9.299  1.0014  0.2283  0.1726
24585SOL    HW177347   8.928   9.750   9.298  2.4592  1.1428 -1.4852
24585SOL    HW277348   8.949   9.622   9.220  0.3692 -0.8088  0.9689
24586SOL     OW77349   3.975  10.226   7.365 -0.0275  0.3053 -0.3741
24586SOL    HW177350   4.064  10.261   7.362 -0.1152  0.7148  1.1306
24586SOL    HW277351   3.933  10.260   7.286  0.6979  1.3945 -0.3058
24587SOL     OW77352   5.155   4.902   8.891 -0.1941 -0.2958  0.3375
24587SOL    HW177353   5.175   4.902   8.985  2.8239  0.1613 -0.1825
24587SOL    HW277354   5.079   4.960   8.882 -0.7339 -0.5871  2.4969
24588SOL     OW77355   4.766   1.526   4.737 -0.0476  0.2358  0.2333
24588SOL    HW177356   4.710   1.535   4.659  0.4855  1.2044 -0.0578
24588SOL    HW277357   4.735   1.595   4.796  0.1816  0.1263  0.4822
24589SOL     OW77358   0.215   2.401   3.574 -0.6491  0.0936 -0.0919
24589SOL    HW177359   0.266   2.444   3.505 -2.5181  1.1908 -0.8621
24589SOL    HW277360   0.251   2.312   3.579  2.0794  1.1131  0.2315
24590SOL     OW77361   4.890   3.156   1.732  0.6695 -0.2712 -0.5368
24590SOL    HW177362   4.873   3.165   1.825  1.6115  1.7097 -0.5054
24590SOL    HW277363   4.866   3.066   1.712 -1.2233 -0.2368  1.2341
24591SOL     OW77364   7.524   3.752   8.610  0.3363 -0.5068 -0.2605
24591SOL    HW177365   7.549   3.734   8.700  0.4764  1.2552  0.0975
24591SOL    HW277366   7.592   3.810   8.576 -0.4360  0.0046 -1.0203
24592SOL     OW77367   5.897   3.109  11.019 -0.6339  0.0883  0.2001
24592SOL    HW177368   5.826   3.128  11.081 -0.5723 -0.1736  0.3485
24592SOL    HW277369   5.852   3.095  10.935 -0.9699 -2.3036  0.7216
24593SOL     OW77370   2.811   9.299   8.046 -0.9754  0.6740  0.1902
24593SOL    HW177371   2.742   9.354   8.085 -0.5508  2.0211 -0.8832
24593SOL    HW277372   2.803   9.314   7.952 -1.4141 -1.8576 -0.2424
24594SOL     OW77373   7.764   8.558   1.152  0.7095 -0.9745  0.2306
24594SOL    HW177374   7.785   8.468   1.178  1.0847 -0.9889 -0.1191
24594SOL    HW277375   7.759   8.606   1.234 -0.6562 -1.5560  0.5134
24595SOL     OW77376   1.834   5.309   3.967  0.3490  0.0054 -0.0511
24595SOL    HW177377   1.792   5.236   4.013  0.9043 -0.2649  0.0344
24595SOL    HW277378   1.867   5.270   3.886  1.1421  0.0262  0.2501
24596SOL     OW77379   0.216   1.163   5.903  0.0632 -0.4281  0.2085
24596SOL    HW177380   0.124   1.144   5.882  0.5917 -0.4272 -2.6089
24596SOL    HW277381   0.213   1.216   5.982 -2.3790 -0.3415  0.1289
24597SOL     OW77382   2.284   8.341  10.145  0.0241  0.4532 -0.1105
24597SOL    HW177383   2.295   8.248  10.124  2.4493  1.1782 -2.5943
24597SOL    HW277384   2.315   8.348  10.235  0.4989 -1.0285 -0.1271
24598SOL     OW77385   6.393   8.806   1.216 -0.2249  0.0531 -0.0573
24598SOL    HW177386   6.418   8.771   1.130 -1.3913 -1.0129  0.0083
24598SOL    HW277387   6.386   8.900   1.203  0.3032 -0.0235 -0.9548
24599SOL     OW77388   0.427   1.508   0.815  0.7739 -0.2761  0.0702
24599SOL    HW177389   0.378   1.440   0.862  0.4162  0.0452  0.1649
24599SOL    HW277390   0.398   1.590   0.855  0.2787  0.0208 -0.8871
24600SOL     OW77391   2.514   6.371   9.261  0.0957 -0.2656 -0.0412
24600SOL    HW177392   2.557   6.299   9.307  1.0510  0.4870  0.2659
24600SOL    HW277393   2.527   6.447   9.318 -0.0339  0.3580 -0.8297
24601SOL     OW77394  10.074   4.121   0.222  0.3039  0.1179 -0.2024
24601SOL    HW177395  10.100   4.096   0.133  0.0291 -1.8997  0.2272
24601SOL    HW277396   9.981   4.141   0.215  0.1075 -0.7479 -0.2750
24602SOL     OW77397   3.262   3.274   7.340  0.0413  0.4020 -0.2325
24602SOL    HW177398   3.210   3.349   7.312  0.9303  0.8483 -0.7533
24602SOL    HW277399   3.265   3.281   7.435 -1.3759 -0.0091 -0.1358
24603SOL     OW77400   7.997   5.294   4.762  0.2996  0.1100  0.2029
24603SOL    HW177401   7.975   5.212   4.717 -1.9016  1.0645 -0.5805
24603SOL    HW277402   7.960   5.284   4.850 -2.7752  1.3131 -0.8016
24604SOL     OW77403   8.577   0.766   0.449 -0.2171 -0.3725 -0.4629
24604SOL    HW177404   8.614   0.854   0.449  0.2084 -0.5498 -0.6746
24604SOL    HW277405   8.651   0.709   0.429 -0.6465 -0.7147 -1.1033
24605SOL     OW77406   1.833   2.836   8.083 -0.2889 -0.1175 -0.4671
24605SOL    HW177407   1.828   2.778   8.159 -2.4706  0.5607 -0.0204
24605SOL    HW277408   1.798   2.784   8.010 -0.1715 -0.0863 -0.5462
24606SOL     OW77409   8.832   5.527   3.457  0.1771 -0.5136 -0.1172
24606SOL    HW177410   8.872   5.460   3.513 -0.1691 -0.4219  0.2440
24606SOL    HW277411   8.802   5.479   3.380  0.0756 -0.7534  0.0669
24607SOL     OW77412   9.336   4.837   8.301  0.2969 -0.2957  0.1749
24607SOL    HW177413   9.290   4.768   8.254 -0.7432 -0.4062  1.3126
24607SOL    HW277414   9.423   4.838   8.262 -0.1692 -1.1520 -0.9549
24608SOL     OW77415   4.517   0.834   3.763 -0.0852  0.2518  0.0807
24608SOL    HW177416   4.485   0.874   3.843 -0.7049  0.0736 -0.0665
24608SOL    HW277417   4.572   0.901   3.722  0.1046  0.3969  0.5757
24609SOL     OW77418   4.776   9.821   9.978  0.3938  0.2676 -0.1111
24609SOL    HW177419   4.720   9.896   9.998 -0.1735  0.1250 -1.0972
24609SOL    HW277420   4.820   9.801  10.060 -1.3923  0.0455  0.8301
24610SOL     OW77421   4.936   4.396   3.229 -0.2821  0.7155  0.4083
24610SOL    HW177422   4.893   4.311   3.220 -0.9195  1.1018 -0.3213
24610SOL    HW277423   4.941   4.410   3.323  0.4938 -0.4565  0.5536
24611SOL     OW77424   6.865   7.965   6.953  0.1170  0.1478  0.5123
24611SOL    HW177425   6.838   7.880   6.988  1.1398 -0.3045  0.2634
24611SOL    HW277426   6.793   7.992   6.896 -0.2871 -0.4876  0.7102
24612SOL     OW77427   6.210   3.462   4.903  0.1482  0.8458  0.5828
24612SOL    HW177428   6.287   3.406   4.899 -0.4160  0.1124 -0.5214
24612SOL    HW277429   6.204   3.500   4.815 -1.4461 -0.0845  0.2612
24613SOL     OW77430   4.923   6.924   2.619  0.2080  0.2091  0.1695
24613SOL    HW177431   4.951   7.000   2.670  2.0734  0.2536 -0.8325
24613SOL    HW277432   4.948   6.849   2.673  0.5342  0.2808  0.1198
24614SOL     OW77433   5.651  10.814   4.746 -0.2681 -0.1586 -0.5661
24614SOL    HW177434   5.601  10.854   4.675  0.5259  0.7292 -0.6508
24614SOL    HW277435   5.696  10.887   4.788 -0.1281 -0.7661  0.3762
24615SOL     OW77436   7.913   6.328   8.935  0.2373  0.4375 -0.1416
24615SOL    HW177437   7.894   6.303   9.026  1.2077  1.4304  0.3440
24615SOL    HW277438   7.878   6.255   8.883 -0.1645 -0.2328  1.0298
24616SOL     OW77439   6.477   9.131  10.078  0.1403  0.1075 -0.0866
24616SOL    HW177440   6.563   9.097  10.055  0.1635  0.1710 -0.0957
24616SOL    HW277441   6.420   9.101  10.008  0.3455  0.8741 -0.6021
24617SOL     OW77442   6.922   4.290   4.984  0.2696  0.1582  0.0410
24617SOL    HW177443   7.011   4.293   5.018  1.1025 -0.3464 -1.9504
24617SOL    HW277444   6.912   4.202   4.949 -0.7556  0.4526 -0.4543
24618SOL     OW77445   5.509   6.222   3.075 -0.1172 -0.1439  0.6458
24618SOL    HW177446   5.475   6.179   3.154 -2.2237  0.2641  0.0293
24618SOL    HW277447   5.449   6.294   3.060  1.4689  1.0635 -0.1913
24619SOL     OW77448  10.464   0.546   6.810  0.3344 -0.1008  0.1966
24619SOL    HW177449  10.431   0.591   6.732  2.3726  2.9976  0.9355
24619SOL    HW277450  10.411   0.580   6.882  1.2742  0.4058  0.6647
24620SOL     OW77451   1.986   2.985   3.137 -0.0747  0.3886  0.1710
24620SOL    HW177452   2.005   3.000   3.045 -0.3454  1.0026  0.2124
24620SOL    HW277453   1.904   3.031   3.153  0.3426  0.9070  0.8901
24621SOL     OW77454  10.098   4.308   0.663  0.1277 -0.0769 -0.1177
24621SOL    HW177455  10.193   4.320   0.661  0.3343 -0.1169  3.3459
24621SOL    HW277456  10.085   4.213   0.660  0.3595 -0.1642  1.0775
24622SOL     OW77457   4.971   6.842   1.322 -0.4056  0.4688  0.6161
24622SOL    HW177458   4.915   6.842   1.244 -0.6304 -1.3928  0.7443
24622SOL    HW277459   4.909   6.849   1.395 -0.4245 -0.6627  0.7213
24623SOL     OW77460   2.196   0.667   7.812  0.5298 -0.0134 -0.5176
24623SOL    HW177461   2.288   0.662   7.785  0.2786 -1.4097 -1.2395
24623SOL    HW277462   2.154   0.595   7.764 -0.6296 -0.3875  0.9990
24624SOL     OW77463  10.337   9.799  10.048 -0.2023 -0.3612  0.4316
24624SOL    HW177464  10.283   9.829   9.975  0.6570 -0.7976 -0.3978
24624SOL    HW277465  10.276   9.794  10.122 -1.3043 -0.9170 -0.4879
24625SOL     OW77466   2.050   1.220   2.163  0.1514 -0.0124 -0.2600
24625SOL    HW177467   2.068   1.289   2.100 -0.4162  0.0277 -0.3794
24625SOL    HW277468   1.986   1.163   2.119 -0.9684  0.5235  0.6274
24626SOL     OW77469  10.953   1.080   0.275  0.9058  0.1286 -0.2289
24626SOL    HW177470  10.917   0.994   0.299  2.5628 -0.8224 -1.0306
24626SOL    HW277471  10.929   1.091   0.183  1.7065 -0.0191 -0.4593
24627SOL     OW77472   3.693   7.667   7.544 -0.5721 -0.4389 -0.6381
24627SOL    HW177473   3.651   7.729   7.603 -1.0208  0.7409 -2.1273
24627SOL    HW277474   3.787   7.678   7.559 -0.6694  0.2157 -0.5132
24628SOL     OW77475   3.859   6.139   9.227 -0.2379  0.5702 -0.2407
24628SOL    HW177476   3.874   6.065   9.285  3.1797  0.8414 -0.5952
24628SOL    HW277477   3.886   6.216   9.278 -1.8361  1.4027 -0.5673
24629SOL     OW77478   0.974  10.353   7.678  0.6036 -0.2771 -0.3094
24629SOL    HW177479   0.957  10.269   7.722  1.3232 -0.2533  0.0383
24629SOL    HW277480   1.022  10.328   7.599  0.0783 -0.2554 -0.6337
24630SOL     OW77481  10.382   2.847   1.214 -0.5256  0.2426  0.1406
24630SOL    HW177482  10.385   2.942   1.199 -0.6195  0.2409  0.1131
24630SOL    HW277483  10.315   2.815   1.153 -0.4125  0.1437  0.0678
24631SOL     OW77484   7.234   0.048   9.035  0.5091  0.2699  0.1258
24631SOL    HW177485   7.175   0.112   8.996 -0.5463 -0.8719 -0.2140
24631SOL    HW277486   7.190   0.021   9.116 -0.2840 -1.7506 -0.8981
24632SOL     OW77487   0.681   2.136   2.332  0.4314  0.2823 -0.0982
24632SOL    HW177488   0.773   2.151   2.351  0.4758  1.0367 -0.8480
24632SOL    HW277489   0.651   2.217   2.290 -0.2484 -0.4200 -1.0192
24633SOL     OW77490   5.193   3.421   7.854  0.4246 -0.0483  0.2657
24633SOL    HW177491   5.169   3.328   7.854 -1.4624  0.3950 -0.3362
24633SOL    HW277492   5.273   3.426   7.802 -0.0243 -1.2058 -0.5651
24634SOL     OW77493   7.686   3.108   6.578  0.2020  0.4503 -0.1219
24634SOL    HW177494   7.674   3.024   6.535  3.2304  0.1664 -0.6273
24634SOL    HW277495   7.650   3.172   6.516  0.0590 -0.2956 -0.8277
24635SOL     OW77496   5.633  10.983   6.622  0.5717  0.1345 -0.3764
24635SOL    HW177497   5.560  10.922   6.632  2.1038 -1.3631  3.3548
24635SOL    HW277498   5.628  11.011   6.530 -2.2774 -2.9246 -1.3525
24636SOL     OW77499   8.419   5.584   9.743  0.0409 -0.6555  0.2365
24636SOL    HW177500   8.351   5.652   9.744  0.0871 -0.6076  0.1490
24636SOL    HW277501   8.478   5.611   9.672  0.3015 -0.5464  0.4918
24637SOL     OW77502   7.486   8.344   5.360  0.0887 -0.1301  0.0128
24637SOL    HW177503   7.573   8.305   5.355  0.6364  1.0181  0.1959
24637SOL    HW277504   7.499   8.436   5.335 -1.2307 -0.1581 -0.8626
24638SOL     OW77505   3.649  10.817   4.012 -0.0966  0.3183 -0.1746
24638SOL    HW177506   3.585  10.823   4.083  0.0933  2.1825 -0.1214
24638SOL    HW277507   3.727  10.859   4.048  0.9338 -1.2053 -0.5272
24639SOL     OW77508   5.640   9.956   8.470  0.0090  0.0126  0.6631
24639SOL    HW177509   5.705   9.932   8.403  1.4420  0.3593  1.8580
24639SOL    HW277510   5.624  10.049   8.455  1.2609  0.4016  1.4808
24640SOL     OW77511   2.649   5.800   9.911  0.1125  0.4088  0.2878
24640SOL    HW177512   2.592   5.850   9.852 -0.9752 -0.6109  0.4340
24640SOL    HW277513   2.588   5.752   9.967  1.0958 -1.6176 -0.2953
24641SOL     OW77514   7.621  10.492   5.462 -0.2207  0.0587 -0.1373
24641SOL    HW177515   7.588  10.537   5.540 -1.4281  2.9468 -2.1321
24641SOL    HW277516   7.572  10.410   5.459 -0.3284 -0.0154  1.9648
24642SOL     OW77517   2.833   2.011  10.069 -0.4330  0.2541 -0.2648
24642SOL    HW177518   2.750   2.059  10.077 -0.5528 -0.0828  0.5893
24642SOL    HW277519   2.849   1.975  10.156  0.8938  0.7585 -0.2767
24643SOL     OW77520   8.732   8.371   6.995 -0.4265  0.0803  0.5704
24643SOL    HW177521   8.814   8.336   6.960 -0.2051 -0.0134  1.1637
24643SOL    HW277522   8.744   8.466   6.993 -0.6094  0.0938 -0.0566
24644SOL     OW77523   4.988   0.335   1.719 -0.0053 -0.3575 -0.3302
24644SOL    HW177524   5.076   0.322   1.755 -0.0829  1.6054  0.7257
24644SOL    HW277525   4.932   0.345   1.796 -0.3923  2.7070 -0.8518
24645SOL     OW77526   5.651   4.089   5.734  0.3604 -0.2274 -0.2868
24645SOL    HW177527   5.655   4.024   5.663  2.3459 -0.1840 -0.2576
24645SOL    HW277528   5.646   4.037   5.814 -3.0028 -0.2949 -0.3643
24646SOL     OW77529   2.103   5.599   5.140  0.0759 -0.1190 -0.0008
24646SOL    HW177530   2.007   5.596   5.143  0.0318 -1.0869 -1.3939
24646SOL    HW277531   2.124   5.692   5.150 -1.1385  0.4371 -1.9161
24647SOL     OW77532   6.555   7.633   2.192 -0.0077  0.2161  0.4162
24647SOL    HW177533   6.475   7.641   2.245 -0.1203  0.6871  0.1870
24647SOL    HW277534   6.601   7.715   2.207 -0.3517  0.6388 -0.7017
24648SOL     OW77535   0.913   8.264   5.425  0.3135 -0.1534 -0.1138
24648SOL    HW177536   0.898   8.315   5.345 -0.8202  0.8919  0.7218
24648SOL    HW277537   0.917   8.330   5.494  0.3533 -1.1079  0.8094
24649SOL     OW77538   4.574   2.810   0.567  0.3179  0.1169  0.3880
24649SOL    HW177539   4.646   2.872   0.582 -0.4013  0.5445  2.3608
24649SOL    HW277540   4.495   2.862   0.581 -0.3202 -0.9785  0.9006
24650SOL     OW77541   2.730   8.221   8.467  0.0427 -0.0664 -0.2431
24650SOL    HW177542   2.685   8.137   8.458  0.4597 -0.6732  2.4299
24650SOL    HW277543   2.771   8.236   8.382 -0.0500 -2.5600 -0.7973
24651SOL     OW77544   5.056   3.050   5.191  0.4392  0.3226 -0.0109
24651SOL    HW177545   5.012   3.016   5.269 -0.2256 -0.5638 -0.7410
24651SOL    HW277546   5.037   2.984   5.123 -0.8926  2.1220 -1.5024
24652SOL     OW77547   3.009   5.929   9.431 -0.5110 -0.7174  0.5997
24652SOL    HW177548   2.933   5.928   9.372 -1.1363 -1.5699  1.3910
24652SOL    HW277549   2.973   5.961   9.514  0.4398  0.8605  0.4483
24653SOL     OW77550  11.061   5.742   2.229 -0.1630 -0.6622 -0.5574
24653SOL    HW177551  11.025   5.681   2.164  0.7721 -1.2398 -0.5387
24653SOL    HW277552  11.013   5.823   2.213 -1.0538 -1.2415 -0.9346
24654SOL     OW77553   1.070   2.993   9.681  0.0292  0.0353 -0.5727
24654SOL    HW177554   1.061   3.002   9.586  0.3796 -1.2531 -0.7362
24654SOL    HW277555   0.980   2.994   9.714 -0.3183 -2.7224 -1.2436
24655SOL     OW77556   7.111  10.536   2.389  0.0820 -0.2555 -0.5504
24655SOL    HW177557   7.102  10.577   2.303  1.1912 -1.4071 -1.2390
24655SOL    HW277558   7.178  10.468   2.377 -0.2848 -0.9415  1.0364
24656SOL     OW77559   8.191  10.518   7.516  0.0129  0.3757 -0.1554
24656SOL    HW177560   8.107  10.472   7.512  0.8652 -1.1819 -1.7011
24656SOL    HW277561   8.256  10.448   7.524  1.1569  1.5791  2.1061
24657SOL     OW77562  10.401   4.719  10.614  0.1605  0.1583 -0.2556
24657SOL    HW177563  10.350   4.638  10.616 -0.3124  0.4314  2.5780
24657SOL    HW277564  10.492   4.689  10.615 -0.0062 -0.3509  0.2879
24658SOL     OW77565   0.765   3.399   7.025  0.6827  0.1085  0.3899
24658SOL    HW177566   0.833   3.464   7.041  0.5042  0.3435  0.2042
24658SOL    HW277567   0.753   3.356   7.110 -0.3952  1.4874  0.9738
24659SOL     OW77568   6.315   9.853   3.414  0.2183 -0.1754 -0.0133
24659SOL    HW177569   6.230   9.817   3.388  0.7408  0.3242 -2.6726
24659SOL    HW277570   6.369   9.777   3.431 -0.2221 -0.5452 -0.2435
24660SOL     OW77571   9.184  10.901  10.191  0.0248  0.0594  0.5635
24660SOL    HW177572   9.228  10.817  10.204 -0.8858 -0.2648  1.6490
24660SOL    HW277573   9.172  10.936  10.279  2.1976  2.3263  0.1025
24661SOL     OW77574  10.548   4.101  10.662  0.2685  0.2475  0.3181
24661SOL    HW177575  10.609   4.172  10.682  1.9554 -1.2329  0.6083
24661SOL    HW277576  10.501   4.087  10.744  0.1949  0.7504  0.3666
24662SOL     OW77577   7.750   0.320   9.678 -0.0390  0.4289 -0.1550
24662SOL    HW177578   7.655   0.325   9.685  0.1427  2.3446  1.4795
24662SOL    HW277579   7.779   0.411   9.676  1.8671 -0.0905  1.3299
24663SOL     OW77580  10.162   6.495   5.576 -0.3111 -0.3992 -0.1226
24663SOL    HW177581  10.070   6.502   5.602 -0.5074 -0.9779 -0.6296
24663SOL    HW277582  10.202   6.576   5.607 -0.9850 -0.1557  0.1317
24664SOL     OW77583   4.771   5.324   8.008  0.1850  0.0111  0.3262
24664SOL    HW177584   4.722   5.339   7.927 -0.2147 -0.7312  0.4304
24664SOL    HW277585   4.848   5.274   7.980  1.5363  2.1241 -0.0252
24665SOL     OW77586   1.145   3.739   3.682 -0.2081  0.4708  0.1400
24665SOL    HW177587   1.112   3.790   3.608  0.7408 -0.0883 -0.6949
24665SOL    HW277588   1.233   3.713   3.656 -0.0984 -0.2902  1.1999
24666SOL     OW77589   5.910   7.228   0.024 -0.8290  0.0206  0.5075
24666SOL    HW177590   5.940   7.174  -0.049  2.4247  2.3554 -0.1239
24666SOL    HW277591   5.961   7.198   0.099  0.2293  1.3983  0.3846
24667SOL     OW77592  10.726  10.505   5.281  0.1084  0.0604 -0.4720
24667SOL    HW177593  10.742  10.434   5.220 -0.8946 -0.8982  0.3272
24667SOL    HW277594  10.813  10.536   5.306  0.5402 -0.3145 -1.4668
24668SOL     OW77595   7.343   8.603   4.259 -0.2263  0.1790  0.2610
24668SOL    HW177596   7.421   8.607   4.315  0.6531 -0.4871 -0.8781
24668SOL    HW277597   7.357   8.527   4.203 -1.5750  0.2161 -0.1669
24669SOL     OW77598   5.701   0.478   1.168 -0.0818 -0.0312 -0.1876
24669SOL    HW177599   5.626   0.438   1.212  0.2376  0.0992  0.5076
24669SOL    HW277600   5.769   0.482   1.236  1.3509 -2.2210 -1.3608
24670SOL     OW77601   7.721   9.901   2.439  0.3204 -0.1773  0.2311
24670SOL    HW177602   7.650   9.963   2.421  1.1787  0.5494 -0.7207
24670SOL    HW277603   7.689   9.818   2.404 -1.0060 -0.4101  1.8682
24671SOL     OW77604   5.216   3.081   7.989  0.2355  1.2992  0.3220
24671SOL    HW177605   5.164   3.097   7.911  1.4142  1.8168 -0.3904
24671SOL    HW277606   5.307   3.088   7.959  0.7307  0.3535  1.5031
24672SOL     OW77607   3.154   7.062   6.049  0.4706  0.4830  0.0767
24672SOL    HW177608   3.205   7.135   6.085 -2.7550  3.1746 -0.3297
24672SOL    HW277609   3.097   7.036   6.121 -0.3851  0.3336 -0.6497
24673SOL     OW77610   1.800   3.645   7.658  0.4353 -0.4263  0.0265
24673SOL    HW177611   1.749   3.582   7.709  0.3325  0.1028  0.5939
24673SOL    HW277612   1.754   3.652   7.574 -0.8270  0.5283  0.7550
24674SOL     OW77613   4.937   7.727   4.792 -0.4680 -0.1172  0.7714
24674SOL    HW177614   4.975   7.646   4.759 -1.5508  0.0217 -0.9641
24674SOL    HW277615   5.008   7.792   4.784 -0.1441 -0.5041  0.4681
24675SOL     OW77616   4.250  10.633   6.529  0.4957  0.1860  0.4039
24675SOL    HW177617   4.289  10.714   6.561 -0.1762  0.4078  0.6678
24675SOL    HW277618   4.324  10.584   6.492  0.9979  0.6627  0.7610
24676SOL     OW77619   4.755   2.787   5.568  0.5991  0.6393 -0.1728
24676SOL    HW177620   4.684   2.723   5.561  0.0173  1.4552 -2.9896
24676SOL    HW277621   4.829   2.737   5.602 -0.4496 -1.0100 -0.2061
24677SOL     OW77622   6.109   4.348   8.012 -0.7059  0.0594 -0.3497
24677SOL    HW177623   6.068   4.422   7.967  1.0306  1.2113 -0.1578
24677SOL    HW277624   6.135   4.288   7.942 -0.5017  0.5132 -0.6637
24678SOL     OW77625   7.511   7.681   8.587 -0.2166  0.2696  0.2056
24678SOL    HW177626   7.483   7.677   8.679 -0.8373  0.6165  0.0302
24678SOL    HW277627   7.431   7.696   8.538 -0.0799 -1.1791 -0.5179
24679SOL     OW77628   0.045   0.383   0.963  0.3629 -0.4415 -0.5363
24679SOL    HW177629  -0.039   0.352   0.998  1.4511 -4.8231 -1.2913
24679SOL    HW277630   0.111   0.333   1.011  2.6177  2.1875 -0.6245
24680SOL     OW77631   0.132   7.682   4.511  0.0317  0.2162  0.5274
24680SOL    HW177632   0.045   7.697   4.547  0.3347  0.9556  0.9823
24680SOL    HW277633   0.122   7.691   4.417 -0.4773 -0.2219  0.5348
24681SOL     OW77634   2.004   5.711   2.457 -0.3530  0.1161 -0.2770
24681SOL    HW177635   2.056   5.775   2.407 -0.7704  0.7727  0.1193
24681SOL    HW277636   1.937   5.681   2.395 -0.7000  0.7220 -0.1970
24682SOL     OW77637   1.011   1.909   1.972 -0.2648 -0.4744 -0.2736
24682SOL    HW177638   0.920   1.903   1.944 -0.6501 -1.6064  1.0654
24682SOL    HW277639   1.043   1.819   1.968  0.4306 -0.2653  0.3358
24683SOL     OW77640   3.804  11.079   6.586 -0.2487  0.3633 -0.0463
24683SOL    HW177641   3.721  11.066   6.540  0.5294  1.4812 -1.8818
24683SOL    HW277642   3.867  11.098   6.516  1.5222 -0.2683  1.3116
24684SOL     OW77643  10.710   8.292   2.163  0.7214 -0.3288  0.2488
24684SOL    HW177644  10.760   8.254   2.235 -1.1757 -1.2479  1.1435
24684SOL    HW277645  10.632   8.328   2.204 -0.1077 -0.3041 -1.2768
24685SOL     OW77646   6.449   0.159   5.641 -0.1420 -0.3850 -0.3213
24685SOL    HW177647   6.396   0.221   5.691  0.4260  0.3963 -0.6857
24685SOL    HW277648   6.509   0.213   5.591 -0.1294 -1.1960 -1.2083
24686SOL     OW77649   3.575   2.693   1.700  0.0645 -0.2946 -0.0003
24686SOL    HW177650   3.538   2.605   1.703  0.5527 -0.5047 -0.0867
24686SOL    HW277651   3.592   2.710   1.608 -0.2900  0.0056 -0.0152
24687SOL     OW77652   1.513   7.206   3.451  0.5460  1.0115  0.2098
24687SOL    HW177653   1.572   7.132   3.461  0.7248  1.0561 -0.4666
24687SOL    HW277654   1.569   7.283   3.465  0.7053  1.0603 -0.6386
24688SOL     OW77655   5.780  10.169   1.198  0.4208  0.5017 -0.3431
24688SOL    HW177656   5.808  10.130   1.116  1.2239  0.3643 -0.0106
24688SOL    HW277657   5.758  10.259   1.176  2.0528  0.9043 -0.4537
24689SOL     OW77658   9.742  10.710   4.431  0.7873 -0.1482  0.0462
24689SOL    HW177659   9.654  10.688   4.400  0.2246  0.2219  1.3115
24689SOL    HW277660   9.743  10.805   4.438  1.8326 -0.0079 -1.4340
24690SOL     OW77661   0.212   4.698  10.212 -0.1988  0.0538  0.2820
24690SOL    HW177662   0.249   4.610  10.201 -0.0496 -0.0660  1.6289
24690SOL    HW277663   0.274   4.756  10.168  1.4840 -0.1677  2.2448
24691SOL     OW77664   0.955   9.177   7.436  0.0438  0.2180  0.2473
24691SOL    HW177665   0.866   9.199   7.462 -0.6790 -0.4145 -1.5699
24691SOL    HW277666   1.005   9.178   7.518 -1.4010  1.5636  1.1601
24692SOL     OW77667   4.223   4.404   6.004 -0.3304  0.0173  0.0033
24692SOL    HW177668   4.295   4.355   5.963 -0.3985  0.8051 -1.1081
24692SOL    HW277669   4.158   4.412   5.934 -1.3200 -0.3003  0.8635
24693SOL     OW77670   7.126   0.302   9.856  0.3365 -0.4677  0.3162
24693SOL    HW177671   7.146   0.258   9.774  1.5241  1.5695 -0.5705
24693SOL    HW277672   7.182   0.260   9.921  1.8208  0.0429 -0.6025
24694SOL     OW77673   6.396   5.764   5.723  0.4505  0.3426  0.7633
24694SOL    HW177674   6.460   5.769   5.793  1.0033  0.4826  0.2619
24694SOL    HW277675   6.445   5.729   5.648 -0.0462  0.4893  0.3589
24695SOL     OW77676  10.486   8.143   9.261 -0.1595 -0.4674 -0.2796
24695SOL    HW177677  10.567   8.191   9.282 -1.5987  1.5322  1.0589
24695SOL    HW277678  10.504   8.102   9.177  2.7349 -1.2779  0.6059
24696SOL     OW77679   7.449   8.906   4.924 -0.2390 -0.0493 -0.0964
24696SOL    HW177680   7.544   8.910   4.937 -0.4148 -1.0195  1.9973
24696SOL    HW277681   7.431   8.813   4.912 -1.1562 -0.2324  2.2149
24697SOL     OW77682   7.926   0.148   1.199  0.2118  0.2082 -0.0836
24697SOL    HW177683   8.014   0.129   1.165 -0.3081  0.2642 -1.4920
24697SOL    HW277684   7.926   0.107   1.286  1.8990  0.9003  0.2944
24698SOL     OW77685   6.024   0.871   5.874  0.6858 -0.6315  0.3233
24698SOL    HW177686   6.031   0.924   5.954  1.3555 -3.6698  2.4673
24698SOL    HW277687   5.939   0.828   5.881  0.9586 -1.2920 -0.3287
24699SOL     OW77688  10.094   8.627   4.872  0.4338  0.0817 -0.1191
24699SOL    HW177689  10.052   8.685   4.935  2.7835  1.3789  0.3881
24699SOL    HW277690  10.066   8.539   4.897 -1.1473  0.7799  0.7396
24700SOL     OW77691   7.888  10.882   5.583  0.4174  0.5268  0.4826
24700SOL    HW177692   7.857  10.923   5.502  0.4068  0.0849  0.2557
24700SOL    HW277693   7.960  10.825   5.555  0.4712  0.4364  0.7957
24701SOL     OW77694   4.417   6.376   7.364  0.2747 -0.0888  0.1547
24701SOL    HW177695   4.362   6.356   7.288 -0.4706  1.1393  0.3486
24701SOL    HW277696   4.435   6.291   7.404  0.9559 -0.7980 -1.5573
24702SOL     OW77697   0.040   1.047   0.435  0.2508  0.5636  0.9302
24702SOL    HW177698  -0.028   1.064   0.370  1.2366  0.8419 -0.0671
24702SOL    HW277699  -0.006   1.046   0.519 -1.1909 -0.6989  0.1555
24703SOL     OW77700   7.020   6.443   9.759  0.7158  0.3311 -0.7210
24703SOL    HW177701   7.091   6.420   9.700  0.7935  1.5840 -1.1407
24703SOL    HW277702   6.986   6.359   9.789  0.1302 -0.3843 -3.1704
24704SOL     OW77703   7.439   2.316   8.406  0.0686 -0.1752 -0.1160
24704SOL    HW177704   7.399   2.230   8.391  0.1189 -0.1046 -0.6735
24704SOL    HW277705   7.531   2.296   8.424 -0.1266 -0.3093  0.8002
24705SOL     OW77706   7.238   2.732   6.396 -0.2939  0.3904  0.1975
24705SOL    HW177707   7.278   2.819   6.388  0.3217  0.1184  0.2744
24705SOL    HW277708   7.225   2.720   6.490  0.4680  0.0287  0.2640
24706SOL     OW77709   5.926   9.646   9.494  0.4249  0.7980 -0.1325
24706SOL    HW177710   5.982   9.586   9.446 -0.7766 -0.3177 -0.1868
24706SOL    HW277711   5.961   9.645   9.583  0.1059 -0.4006 -0.0073
24707SOL     OW77712   2.451   2.718   1.525  0.5711 -0.4396 -0.5527
24707SOL    HW177713   2.493   2.649   1.474 -0.1487  0.0963 -1.9266
24707SOL    HW277714   2.484   2.800   1.487 -0.9601 -0.0191 -1.0662
24708SOL     OW77715   7.243   4.518   8.106  0.4603  0.2816 -0.0371
24708SOL    HW177716   7.205   4.568   8.178 -0.2623  2.2351 -1.6915
24708SOL    HW277717   7.226   4.426   8.129 -1.9152  0.9443  1.1166
24709SOL     OW77718  10.487   9.588  10.437  0.4866  0.3915 -0.1872
24709SOL    HW177719  10.505   9.497  10.461  1.9554  0.3713 -1.1776
24709SOL    HW277720  10.410   9.612  10.487 -0.2628 -1.5782 -0.3043
24710SOL     OW77721   9.674   2.654   8.472  0.3100 -0.0847 -0.5464
24710SOL    HW177722   9.674   2.577   8.415 -2.4628  1.4434 -2.8558
24710SOL    HW277723   9.597   2.644   8.527 -1.1792  1.7959 -2.1566
24711SOL     OW77724   4.415   9.781   8.890  0.5410 -0.0273  0.1687
24711SOL    HW177725   4.454   9.738   8.966  1.9451  1.0854  0.1227
24711SOL    HW277726   4.489   9.803   8.834 -0.2833  1.0072 -0.5560
24712SOL     OW77727   1.785   8.121   1.296  0.8092 -0.0597 -0.6921
24712SOL    HW177728   1.798   8.214   1.310 -0.5116  0.0220  0.1953
24712SOL    HW277729   1.728   8.116   1.219  0.3085 -0.0849 -0.3282
24713SOL     OW77730   5.297   9.970   9.509  0.4832 -0.2213 -0.1353
24713SOL    HW177731   5.222   9.958   9.568  0.8385  1.6030  0.7543
24713SOL    HW277732   5.306  10.065   9.501  3.9989 -0.2692  1.5111
24714SOL     OW77733   6.361   9.673   3.705 -0.0949 -0.1735 -0.6479
24714SOL    HW177734   6.339   9.588   3.744 -0.8319 -0.9487 -2.6601
24714SOL    HW277735   6.277   9.719   3.700  0.2887  0.6870  0.3607
24715SOL     OW77736   0.297   8.721   1.859  0.4753  0.3788 -0.0718
24715SOL    HW177737   0.388   8.737   1.882  0.4061  2.7808 -1.1748
24715SOL    HW277738   0.298   8.712   1.763 -0.3388 -0.5863 -0.0076
24716SOL     OW77739   4.138   8.928   2.532  0.1698 -0.5118  0.0984
24716SOL    HW177740   4.097   8.867   2.470  0.8011 -0.2174 -0.6345
24716SOL    HW277741   4.207   8.876   2.573  0.7629 -0.2936 -0.5868
24717SOL     OW77742   4.378   6.411   5.531 -0.1549  0.2041 -0.1772
24717SOL    HW177743   4.464   6.450   5.544 -0.6193  1.6820 -1.2695
24717SOL    HW277744   4.321   6.485   5.508 -1.5839 -0.8146 -0.0762
24718SOL     OW77745   1.062   9.229  10.118 -0.1045  0.6288 -0.5525
24718SOL    HW177746   0.989   9.167  10.114 -0.9304  1.5311 -0.0001
24718SOL    HW277747   1.095   9.222  10.207  1.3264 -0.6698 -1.1401
24719SOL     OW77748   0.121   9.745   7.307 -0.3997 -0.1865  0.3608
24719SOL    HW177749   0.100   9.698   7.388 -1.8551  2.0995  1.4070
24719SOL    HW277750   0.042   9.736   7.253  0.4394 -1.4190 -0.7237
24720SOL     OW77751   0.034   4.096   1.910  0.4479 -0.1234  0.1640
24720SOL    HW177752   0.120   4.113   1.870  0.4201 -1.1137 -0.3328
24720SOL    HW277753   0.010   4.180   1.950  0.8907  0.6468 -1.1099
24721SOL     OW77754   5.541   3.685   8.122  0.8623  0.1733 -0.2292
24721SOL    HW177755   5.556   3.595   8.150  0.7922 -0.0606 -0.9377
24721SOL    HW277756   5.572   3.738   8.196  0.3642 -0.4367  0.4295
24722SOL     OW77757   0.202   5.414   2.797 -0.3319 -0.0862 -0.0730
24722SOL    HW177758   0.254   5.353   2.851 -0.7779 -2.0195 -1.7172
24722SOL    HW277759   0.260   5.437   2.725 -1.0972 -0.8249 -0.9502
24723SOL     OW77760   0.941   0.958   5.239 -0.0812  0.2871 -0.0149
24723SOL    HW177761   0.928   0.912   5.156 -0.0580 -0.5279  0.4268
24723SOL    HW277762   0.906   1.046   5.223  0.3872  0.3005 -1.0449
24724SOL     OW77763   6.993   2.654   2.706  0.0547  0.3578  0.4329
24724SOL    HW177764   7.071   2.597   2.709 -0.1385 -0.5080 -3.8963
24724SOL    HW277765   6.920   2.593   2.713 -0.2481  0.8752  1.9505
24725SOL     OW77766   5.138   4.987   2.039 -0.2510 -0.1061  0.1892
24725SOL    HW177767   5.221   4.967   1.997 -0.7521 -0.1770 -0.8017
24725SOL    HW277768   5.146   5.078   2.067  0.1961 -0.1520  0.2137
24726SOL     OW77769   2.086   5.053   5.908  0.0059 -0.1850  0.0570
24726SOL    HW177770   2.159   5.112   5.924 -0.4017 -0.1399  2.1334
24726SOL    HW277771   2.039   5.091   5.834  2.8115 -0.9931 -2.3107
24727SOL     OW77772   0.566   9.271   6.975  0.8564  0.2241  0.8147
24727SOL    HW177773   0.602   9.320   6.901  2.7586  0.1346  1.6223
24727SOL    HW277774   0.489   9.320   7.001  1.1020  1.1769 -0.1858
24728SOL     OW77775   8.947   8.450   1.104  0.1858  0.3041 -0.0912
24728SOL    HW177776   9.004   8.424   1.031 -0.9825 -0.2687 -0.8295
24728SOL    HW277777   8.932   8.369   1.152  1.6835  0.8351  1.3624
24729SOL     OW77778   9.058   0.918   8.888  0.3063 -0.0099  0.3833
24729SOL    HW177779   9.150   0.894   8.877  0.2185 -0.9529  1.5046
24729SOL    HW277780   9.035   0.884   8.974 -0.8506  1.0247  0.5068
24730SOL     OW77781   8.170   8.612   3.643  0.4568 -0.4271  0.1060
24730SOL    HW177782   8.147   8.626   3.551 -0.5508  1.4210  0.5899
24730SOL    HW277783   8.100   8.556   3.677 -0.1090  0.2977  0.1488
24731SOL     OW77784   6.672   3.452   1.870 -0.2626  0.3756  0.3494
24731SOL    HW177785   6.641   3.362   1.878 -1.9041  0.8899  0.1685
24731SOL    HW277786   6.733   3.450   1.796 -0.2330 -0.5953  0.3918
24732SOL     OW77787   9.468   4.474   3.341 -0.2358  0.4616 -1.1752
24732SOL    HW177788   9.407   4.448   3.272 -0.4886 -0.4263 -0.6356
24732SOL    HW277789   9.422   4.545   3.388 -1.2511 -0.7492 -0.2602
24733SOL     OW77790   6.701   9.124   9.330  0.3031 -0.8340  0.2775
24733SOL    HW177791   6.715   9.110   9.423 -1.9846 -0.5474  0.7080
24733SOL    HW277792   6.747   9.206   9.311  1.3529 -1.2393  0.9818
24734SOL     OW77793   6.140  10.554   5.882  0.0368 -0.4361  0.1211
24734SOL    HW177794   6.110  10.644   5.883 -0.9008 -0.7432  0.7591
24734SOL    HW277795   6.175  10.541   5.793 -1.0654  0.1579 -0.4132
24735SOL     OW77796   3.163   9.507   7.188  0.4835  0.1752  0.4681
24735SOL    HW177797   3.071   9.480   7.190  0.9039 -1.4258 -0.3947
24735SOL    HW277798   3.209   9.432   7.149  2.1201  1.0466  0.6635
24736SOL     OW77799   6.080   6.472   5.456 -0.9217 -0.1573  0.2776
24736SOL    HW177800   6.109   6.413   5.387 -0.3481 -0.5831  0.8685
24736SOL    HW277801   5.997   6.508   5.425 -0.4337  0.0285 -0.8444
24737SOL     OW77802   9.242   9.364   2.336  0.3385  0.2912 -0.0912
24737SOL    HW177803   9.329   9.359   2.376  0.3044 -1.4179 -0.1420
24737SOL    HW277804   9.183   9.330   2.403  0.2747 -2.5719 -1.4257
24738SOL     OW77805   6.887   1.586   3.764 -0.7061 -0.0114 -0.6873
24738SOL    HW177806   6.977   1.615   3.776 -0.7086 -0.2556 -0.0692
24738SOL    HW277807   6.894   1.504   3.716 -0.3107 -2.2317  2.8074
24739SOL     OW77808   2.061   9.353   8.995 -0.3621  0.1313  0.1315
24739SOL    HW177809   2.017   9.377   9.076 -1.6485 -0.3368 -0.4120
24739SOL    HW277810   2.042   9.260   8.983 -1.2212  0.4537 -1.3075
24740SOL     OW77811   7.532   4.095  10.947  0.5120  0.0514 -0.3793
24740SOL    HW177812   7.438   4.082  10.953  0.2365  1.4102 -1.2732
24740SOL    HW277813   7.562   4.094  11.038 -0.4174 -0.0655 -0.0697
24741SOL     OW77814   2.000   5.055   0.364 -0.2778  0.2941  0.0119
24741SOL    HW177815   2.093   5.049   0.387 -0.2066  0.6194 -0.1827
24741SOL    HW277816   1.965   5.122   0.422 -0.4857 -0.1209  0.3716
24742SOL     OW77817   7.922   4.980   2.010 -0.5574 -0.2257  0.0972
24742SOL    HW177818   7.851   4.959   2.070 -0.0008 -0.2226  0.7706
24742SOL    HW277819   7.971   5.050   2.053  0.1656 -0.5931 -0.1069
24743SOL     OW77820   5.905   5.117   0.333  0.1286  0.7478 -0.5634
24743SOL    HW177821   5.857   5.059   0.392  4.2913 -1.2858  1.1996
24743SOL    HW277822   5.915   5.198   0.384  1.0826  0.0862  0.3513
24744SOL     OW77823   7.898  10.773   9.395 -0.3254 -0.3654 -0.0747
24744SOL    HW177824   7.942  10.852   9.427 -1.0533 -0.4163  1.0906
24744SOL    HW277825   7.855  10.801   9.314 -0.2622  0.3441  0.1267
24745SOL     OW77826   1.800   9.744   6.989 -0.0971  0.1699 -0.7100
24745SOL    HW177827   1.752   9.803   7.047 -0.8905 -0.1831 -0.9944
24745SOL    HW277828   1.850   9.802   6.931  1.2164  0.5260  0.7226
24746SOL     OW77829   7.310  10.705   5.569  0.3174  0.6097 -0.0848
24746SOL    HW177830   7.217  10.704   5.546  0.2584  1.5509  0.1035
24746SOL    HW277831   7.345  10.783   5.526  0.7640  0.9198  0.8212
24747SOL     OW77832   3.059   4.433   1.690 -0.2430  0.1312  0.2910
24747SOL    HW177833   3.037   4.400   1.777 -0.5384  0.0820  0.1999
24747SOL    HW277834   2.976   4.469   1.657 -0.4049 -0.8955 -0.4413
24748SOL     OW77835   1.726  10.722   7.911 -0.1739  0.2067 -0.0689
24748SOL    HW177836   1.647  10.709   7.963  0.6470 -1.2794  0.8671
24748SOL    HW277837   1.782  10.776   7.967  1.1811 -2.3528  1.2011
24749SOL     OW77838   8.485   8.930  11.052  0.1081 -0.3408  0.3107
24749SOL    HW177839   8.454   9.016  11.023 -2.1663 -1.4451 -0.7787
24749SOL    HW277840   8.455   8.923  11.143 -0.5373 -0.3222  0.1086
24750SOL     OW77841   7.197   2.287   8.640  0.4994  0.0684  0.0019
24750SOL    HW177842   7.157   2.266   8.556  1.5176 -1.5007 -0.1237
24750SOL    HW277843   7.210   2.203   8.683  1.8437  0.6682  0.8552
24751SOL     OW77844   4.658   7.765   1.814  0.6104  0.0651 -0.6210
24751SOL    HW177845   4.659   7.672   1.789 -0.6263 -0.0758 -0.1877
24751SOL    HW277846   4.701   7.767   1.899  2.3543  0.1758 -1.4531
24752SOL     OW77847   5.373   2.344   4.259 -0.0873 -0.4399  0.2166
24752SOL    HW177848   5.378   2.346   4.354  0.5175  0.0868  0.1829
24752SOL    HW277849   5.298   2.288   4.240 -0.6011 -0.0354  1.0093
24753SOL     OW77850  10.624   7.498   2.218  0.0230 -0.3366 -0.2979
24753SOL    HW177851  10.623   7.436   2.291  0.5855  0.3496  0.3081
24753SOL    HW277852  10.545   7.551   2.231  0.7551  0.5769  0.5242
24754SOL     OW77853  11.109   7.935  10.892  0.1813  0.2629 -0.5026
24754SOL    HW177854  11.080   7.915  10.803  0.1115 -1.6892 -0.0797
24754SOL    HW277855  11.055   7.879  10.948  1.0416  0.5742  0.6804
24755SOL     OW77856  10.773   3.247   8.800 -0.1579  0.1696  0.3393
24755SOL    HW177857  10.834   3.278   8.867 -0.2441  0.9474  0.0591
24755SOL    HW277858  10.686   3.269   8.834 -0.1928  0.7795 -0.1257
24756SOL     OW77859  10.720   4.753   4.472  0.4374  0.0368 -0.4274
24756SOL    HW177860  10.783   4.682   4.468  1.9799  1.3841 -1.3899
24756SOL    HW277861  10.715   4.777   4.565  1.3643 -0.0832 -0.3419
24757SOL     OW77862   3.168   3.716   3.484 -0.1406 -0.0644 -0.3536
24757SOL    HW177863   3.111   3.644   3.457 -1.3872  0.4393  0.7895
24757SOL    HW277864   3.248   3.705   3.433 -1.2801 -0.7786 -2.0519
24758SOL     OW77865   1.582   3.909   2.253  0.0343  0.0563  0.3586
24758SOL    HW177866   1.652   3.865   2.205 -0.6836  0.1373 -0.8081
24758SOL    HW277867   1.563   3.988   2.202 -2.5578 -1.1898 -0.7947
24759SOL     OW77868   2.319  11.086   4.283 -0.2780 -0.5729  0.0443
24759SOL    HW177869   2.269  11.064   4.204  0.7012 -0.3390 -0.6572
24759SOL    HW277870   2.410  11.090   4.253 -0.0549  1.0268  0.8800
24760SOL     OW77871   3.424   2.935   3.887 -0.4348 -0.1262 -0.2338
24760SOL    HW177872   3.425   3.001   3.957 -0.1361  0.6790 -0.9787
24760SOL    HW277873   3.472   2.861   3.924 -1.0082 -0.0462  0.7169
24761SOL     OW77874   7.112   7.845   8.498  0.1355 -0.1923 -0.2534
24761SOL    HW177875   7.046   7.788   8.537  1.9079 -1.5688  0.8727
24761SOL    HW277876   7.162   7.878   8.573 -0.3019  2.2332 -0.9444
24762SOL     OW77877   2.339  10.338   4.233  0.5143 -0.3319  0.1258
24762SOL    HW177878   2.402  10.410   4.236  2.5852 -2.0766  2.2393
24762SOL    HW277879   2.289  10.345   4.314  0.0738 -0.7332 -0.1018
24763SOL     OW77880   8.345   0.069   6.418  0.3368  0.4937  0.1742
24763SOL    HW177881   8.430   0.108   6.400  0.1705  0.0445 -1.8170
24763SOL    HW277882   8.353  -0.022   6.388 -0.3667 -0.0213  1.4609
24764SOL     OW77883   1.971   3.890   8.048  0.0733 -0.2702 -0.4932
24764SOL    HW177884   1.882   3.916   8.071  0.1959 -0.4710  0.2485
24764SOL    HW277885   2.026   3.959   8.083  0.4792 -1.8596  2.3628
24765SOL     OW77886   7.669   1.829   0.790 -0.7584  0.3696 -0.3403
24765SOL    HW177887   7.606   1.785   0.846 -0.3108  1.6468  1.2442
24765SOL    HW277888   7.754   1.806   0.827 -0.3428 -0.1694 -1.5759
24766SOL     OW77889   6.458   4.013   1.181  0.2374 -0.1142  0.3180
24766SOL    HW177890   6.408   3.953   1.236  0.3667 -0.1663  0.3778
24766SOL    HW277891   6.500   3.957   1.116  0.5299 -0.1133  0.5034
24767SOL     OW77892   6.997   7.492   1.730  0.0735  0.0126  0.4599
24767SOL    HW177893   7.053   7.568   1.715  0.8304 -0.9299 -1.9959
24767SOL    HW277894   6.908   7.528   1.729  0.4900  1.1106  1.2551
24768SOL     OW77895   9.901   3.408   0.160  0.4895  0.1898  0.0370
24768SOL    HW177896   9.825   3.465   0.143 -0.0190 -0.1907  0.9741
24768SOL    HW277897   9.969   3.442   0.102  0.0218  1.3891  0.1595
24769SOL     OW77898   8.999   4.662   6.172  0.2396 -0.8847 -0.6820
24769SOL    HW177899   8.991   4.678   6.078  0.5839  1.0677 -0.4177
24769SOL    HW277900   9.034   4.743   6.207 -0.6192 -1.2996  1.2487
24770SOL     OW77901   2.237   1.035   7.560  0.3635 -0.4428  0.1701
24770SOL    HW177902   2.178   1.106   7.588 -1.5258 -2.3824  1.4237
24770SOL    HW277903   2.203   1.007   7.475 -2.5658 -3.4086  2.0688
24771SOL     OW77904   7.077   1.543   8.206 -0.1255  0.3114 -0.4467
24771SOL    HW177905   7.165   1.577   8.188  0.0645 -0.6669 -1.4958
24771SOL    HW277906   7.043   1.518   8.119 -1.1563 -0.0065  0.0281
24772SOL     OW77907   4.954   7.165  10.011  0.1274 -0.0056 -0.3134
24772SOL    HW177908   5.043   7.192  10.034 -0.2361  0.9251  0.0581
24772SOL    HW277909   4.922   7.119  10.088  0.1345  0.0616 -0.2695
24773SOL     OW77910   3.375   7.854   1.090  0.4478  0.3194  0.0932
24773SOL    HW177911   3.444   7.819   1.033  1.5437  1.5059  0.6594
24773SOL    HW277912   3.313   7.894   1.029 -0.9132 -2.5473 -0.5976
24774SOL     OW77913   4.723   9.330   4.738 -0.7119 -0.3013  0.5887
24774SOL    HW177914   4.728   9.339   4.643  0.8506  0.0033  0.6747
24774SOL    HW277915   4.629   9.320   4.756 -1.0138 -0.5892 -0.9919
24775SOL     OW77916   4.545   5.844   8.658  0.2484  0.3960  0.3325
24775SOL    HW177917   4.640   5.846   8.653  0.2674 -1.6721 -1.9699
24775SOL    HW277918   4.516   5.847   8.567 -1.8212 -0.4429  0.9009
24776SOL     OW77919   6.448   9.129   6.575 -0.1961  0.2578  0.1506
24776SOL    HW177920   6.388   9.064   6.611  0.7872 -0.7547 -0.0077
24776SOL    HW277921   6.390   9.198   6.542 -1.3022 -0.8466 -0.3282
24777SOL     OW77922   8.224   0.190   8.460  0.1173 -0.0953 -0.2549
24777SOL    HW177923   8.285   0.259   8.432 -2.2035  1.4494 -1.8765
24777SOL    HW277924   8.208   0.208   8.552  1.3410  0.0417 -0.0502
24778SOL     OW77925   4.743   7.676   8.545 -0.3767  0.2800  0.0151
24778SOL    HW177926   4.778   7.703   8.630 -0.6010 -0.2820  0.2943
24778SOL    HW277927   4.686   7.602   8.566 -0.5950  0.2726 -0.6032
24779SOL     OW77928   0.862   8.905   2.036  0.0715 -0.1995 -0.1897
24779SOL    HW177929   0.820   8.984   2.002  0.2925  0.1568  0.3483
24779SOL    HW277930   0.930   8.938   2.096  0.2640 -0.7929 -0.0754
24780SOL     OW77931   8.613   0.040   2.745  0.0165 -0.0816  0.0192
24780SOL    HW177932   8.646   0.099   2.812 -0.7084  0.0236  0.2936
24780SOL    HW277933   8.632   0.084   2.662  0.0480  0.2357  0.1964
24781SOL     OW77934   2.084   7.542   6.342  0.3471 -0.0740  0.5612
24781SOL    HW177935   2.102   7.608   6.410 -0.5811 -0.4049  1.1356
24781SOL    HW277936   1.997   7.509   6.363  0.1493 -0.3541 -0.6651
24782SOL     OW77937   4.555   4.269   4.850  0.4452  0.2240  0.0651
24782SOL    HW177938   4.650   4.261   4.858  0.2675 -0.4545  2.1743
24782SOL    HW277939   4.527   4.186   4.814  0.7032  0.7463 -1.3860
24783SOL     OW77940   8.850   9.544   0.503  0.4300 -0.4457 -0.3360
24783SOL    HW177941   8.923   9.605   0.500  1.1174 -1.2046  0.2503
24783SOL    HW277942   8.873   9.484   0.574 -0.6233 -0.8726 -0.3473
24784SOL     OW77943   3.360   6.576   4.683  0.1045  0.1150  0.2241
24784SOL    HW177944   3.335   6.666   4.663  1.5581  1.1549  2.6329
24784SOL    HW277945   3.438   6.560   4.630 -1.0422 -0.3507 -1.3972
24785SOL     OW77946   5.155   8.503   5.836 -0.3712  0.2469  0.3904
24785SOL    HW177947   5.118   8.553   5.763  2.9316  0.5481 -1.3047
24785SOL    HW277948   5.217   8.564   5.877  1.2958 -1.3554  0.3703
24786SOL     OW77949   4.070   9.576   3.401  0.5368  0.2229 -0.0001
24786SOL    HW177950   4.128   9.617   3.337  1.3511  0.3991  0.8193
24786SOL    HW277951   4.112   9.492   3.420  1.2827  0.9067  1.5778
24787SOL     OW77952   4.010   7.696   6.208  0.6347  0.4020 -0.1943
24787SOL    HW177953   4.064   7.726   6.135  0.5859  0.6149 -0.1437
24787SOL    HW277954   4.017   7.766   6.273  0.9644  0.0572  0.1525
24788SOL     OW77955   8.754   1.736   8.242 -0.5095 -0.6046 -0.1517
24788SOL    HW177956   8.719   1.825   8.236  3.1959  1.1162  1.0026
24788SOL    HW277957   8.817   1.729   8.171  0.5519 -1.5924  0.8260
24789SOL     OW77958   2.601   3.782   1.527 -0.1785 -0.2365  0.5611
24789SOL    HW177959   2.664   3.759   1.595  1.4778  0.6422 -0.5777
24789SOL    HW277960   2.516   3.764   1.565  0.7248 -0.6692  2.4960
24790SOL     OW77961   3.848   0.995   6.348  0.1986 -0.1057  0.1507
24790SOL    HW177962   3.859   0.958   6.436  4.1954 -1.3067 -0.6223
24790SOL    HW277963   3.805   0.926   6.298  0.9104 -0.7880  0.4483
24791SOL     OW77964  10.064   7.034   1.951 -0.0262  0.4053 -0.0491
24791SOL    HW177965  10.058   7.110   1.893  0.6004 -1.1560 -2.2865
24791SOL    HW277966   9.996   7.049   2.017 -0.0671  2.7760 -0.5347
24792SOL     OW77967   2.212  10.256   9.857 -0.1739 -0.4505  0.1823
24792SOL    HW177968   2.140  10.202   9.825 -0.1336 -1.5722  1.8274
24792SOL    HW277969   2.242  10.211   9.936  0.8756  1.1915  0.7754
24793SOL     OW77970   4.591   5.334   8.202 -0.7649  0.0554  0.3246
24793SOL    HW177971   4.649   5.323   8.127 -0.8538  1.1862  0.0765
24793SOL    HW277972   4.503   5.337   8.165 -0.7183  2.0323  0.3001
24794SOL     OW77973   5.467  10.010   2.925 -0.1347  0.1839 -0.5322
24794SOL    HW177974   5.446   9.941   2.988  0.2694 -0.5832 -1.2215
24794SOL    HW277975   5.440  10.091   2.969  2.3343 -0.0256  1.6640
24795SOL     OW77976   0.229   5.777   2.188 -0.6070 -0.0759  0.0299
24795SOL    HW177977   0.258   5.789   2.098 -0.6731  0.9897  0.1327
24795SOL    HW277978   0.134   5.776   2.183 -0.6080 -1.4301 -0.0590
24796SOL     OW77979   5.016   8.505   0.601 -0.0179  0.4618  0.4552
24796SOL    HW177980   4.948   8.565   0.570  1.0847  2.3162  1.4225
24796SOL    HW277981   5.098   8.546   0.573  0.7627 -0.9250  0.6444
24797SOL     OW77982   8.074   5.360   9.215  0.2381 -0.4914 -0.0079
24797SOL    HW177983   8.169   5.353   9.203  0.2873  0.0197  0.0904
24797SOL    HW277984   8.038   5.350   9.127  0.5561  2.4073 -0.5595
24798SOL     OW77985   5.896   4.816   0.574 -0.4833  0.4558  0.6977
24798SOL    HW177986   5.966   4.753   0.587 -0.8111  0.1576  1.0236
24798SOL    HW277987   5.940   4.901   0.580 -0.6843  0.4614  4.8758
24799SOL     OW77988   7.287  10.498   4.644  0.6401 -0.2512  0.1548
24799SOL    HW177989   7.259  10.541   4.563  1.4555  0.0369  0.0187
24799SOL    HW277990   7.350  10.433   4.615 -1.1910 -2.1768  0.2644
24800SOL     OW77991   6.186   5.066   9.303  0.2478  0.0148  0.0364
24800SOL    HW177992   6.247   5.126   9.346  0.1872  0.9077 -1.0960
24800SOL    HW277993   6.117   5.121   9.268 -0.4948 -0.8526  0.0946
24801SOL     OW77994  11.094   1.032   1.776 -0.1858  0.1891  0.5694
24801SOL    HW177995  11.042   1.013   1.698 -0.0122  0.8718  0.2843
24801SOL    HW277996  11.100   0.948   1.821  0.7593 -0.5155 -0.7799
24802SOL     OW77997   2.718   2.281   1.529 -0.3780 -0.4009  0.0416
24802SOL    HW177998   2.788   2.219   1.509 -1.9839 -1.9985 -0.8810
24802SOL    HW277999   2.756   2.367   1.510  1.7906 -1.0725  1.0422
24803SOL     OW78000   0.956   5.278  10.275  0.3827 -0.4500  0.1327
24803SOL    HW178001   1.014   5.222  10.223 -0.5265  0.2526 -1.7413
24803SOL    HW278002   0.966   5.365  10.237  0.9042  0.4683  2.2475
24804SOL     OW78003   0.589   6.332   3.958 -0.1535 -0.5455  0.3291
24804SOL    HW178004   0.577   6.264   3.892 -0.0180  0.3263 -0.6199
24804SOL    HW278005   0.589   6.414   3.908 -1.8025  0.2774  1.6094
24805SOL     OW78006   4.536   4.434   7.811 -0.0113  0.5219 -0.0860
24805SOL    HW178007   4.472   4.390   7.866  1.3450 -0.6533  0.5901
24805SOL    HW278008   4.592   4.483   7.872 -0.3080  1.6503 -0.6753
24806SOL     OW78009   6.295   9.829   3.029  0.2031  0.3964  0.2254
24806SOL    HW178010   6.348   9.755   2.998  2.7963  1.9031  0.7383
24806SOL    HW278011   6.206   9.807   3.003  1.3632 -1.0940 -3.1794
24807SOL     OW78012   4.104   2.681   8.591  0.0104 -0.7232 -0.3312
24807SOL    HW178013   4.172   2.718   8.648 -1.0217 -1.4394  1.4332
24807SOL    HW278014   4.081   2.753   8.532  0.7353  0.2217  0.4920
24808SOL     OW78015   5.119   6.415   4.644 -0.1601 -0.5633  0.3903
24808SOL    HW178016   5.211   6.424   4.670  0.2575 -0.6188 -0.9946
24808SOL    HW278017   5.100   6.322   4.655  0.2023 -0.6988 -0.0728
24809SOL     OW78018   7.167   8.192   0.151  0.5390  0.3180 -0.0975
24809SOL    HW178019   7.169   8.169   0.244 -0.9959 -0.5499 -0.2446
24809SOL    HW278020   7.209   8.118   0.107  0.7488  0.4651 -0.1463
24810SOL     OW78021   9.802   7.673   2.903  0.1583  0.1644  0.5179
24810SOL    HW178022   9.716   7.652   2.866 -0.0537  0.6880  0.7097
24810SOL    HW278023   9.861   7.676   2.828 -0.2089  0.9012  0.2509
24811SOL     OW78024   4.558  10.281   3.645  0.1475 -0.0732 -0.0964
24811SOL    HW178025   4.626  10.312   3.584  0.8770 -0.8273  0.3106
24811SOL    HW278026   4.476  10.290   3.597  0.4689  1.3465 -0.4183
24812SOL     OW78027   7.900   5.705   4.249 -0.4987  0.1908 -0.4416
24812SOL    HW178028   7.878   5.615   4.273  1.2401  0.1203  1.1964
24812SOL    HW278029   7.833   5.731   4.186 -1.3926 -2.0303 -0.4911
24813SOL     OW78030   6.435   3.100   4.116  0.4198  0.2581 -0.4486
24813SOL    HW178031   6.363   3.060   4.166 -1.4845  1.1989 -2.2843
24813SOL    HW278032   6.501   3.031   4.109 -1.4290 -1.5677 -0.8820
24814SOL     OW78033   0.013   7.832   0.941 -0.4500  0.2533  0.1394
24814SOL    HW178034  -0.039   7.754   0.921  0.4113 -0.3234  0.0929
24814SOL    HW278035   0.016   7.880   0.858  0.9072 -0.8165 -0.4695
24815SOL     OW78036   5.193  10.650   4.237  0.3351 -0.4483  0.4561
24815SOL    HW178037   5.119  10.608   4.281  0.9857 -1.9854  0.1462
24815SOL    HW278038   5.163  10.740   4.221 -2.3236 -1.5421 -1.5691
24816SOL     OW78039   7.502   6.897   3.169  0.1839 -0.4112 -0.5578
24816SOL    HW178040   7.414   6.924   3.142 -0.4351 -2.1335 -0.3588
24816SOL    HW278041   7.532   6.968   3.226 -1.2241  0.0216 -0.3094
24817SOL     OW78042   5.551   7.498   7.973 -0.2362  0.2288 -0.0888
24817SOL    HW178043   5.615   7.514   7.904 -0.1587 -1.3111 -0.4116
24817SOL    HW278044   5.555   7.576   8.028  1.2265  0.5666 -0.6291
24818SOL     OW78045   9.602   3.264   1.679  0.2259 -0.1212 -0.0816
24818SOL    HW178046   9.567   3.216   1.754  2.0500 -0.8058  0.3996
24818SOL    HW278047   9.654   3.335   1.718  1.1491 -0.4552 -0.6683
24819SOL     OW78048   1.989  10.157   1.337 -0.3930 -0.2818 -0.1759
24819SOL    HW178049   2.004  10.066   1.363 -1.5477 -0.8270 -1.2684
24819SOL    HW278050   2.029  10.209   1.406 -1.4889 -1.6301  1.5740
24820SOL     OW78051   4.787   3.010   7.372  0.1244  0.8408 -0.2152
24820SOL    HW178052   4.825   2.923   7.358 -0.2823  0.7640 -0.9009
24820SOL    HW278053   4.694   2.993   7.389  0.4974  0.9650  2.3038
24821SOL     OW78054   3.427   4.612   6.412 -0.2166 -0.1767 -0.4273
24821SOL    HW178055   3.469   4.656   6.338  0.8795 -0.9980 -0.3186
24821SOL    HW278056   3.335   4.637   6.406  0.3284  2.1130 -0.3969
24822SOL     OW78057   7.492   4.489   7.428  0.3178 -0.5526 -0.1788
24822SOL    HW178058   7.549   4.469   7.502  0.0148  0.8936  0.4912
24822SOL    HW278059   7.413   4.524   7.468  0.4376  0.9683 -1.1799
24823SOL     OW78060   6.791   9.185  10.279  0.3766  0.9273 -0.0952
24823SOL    HW178061   6.751   9.169  10.193 -1.2886  0.0862  0.7964
24823SOL    HW278062   6.757   9.270  10.307 -1.4010 -0.0708  0.9422
24824SOL     OW78063  10.727   2.953   5.585  0.0438  0.4286  0.0488
24824SOL    HW178064  10.737   2.912   5.499 -0.4577 -0.5245  0.4254
24824SOL    HW278065  10.778   2.897   5.644  1.5892  1.8835  0.1745
24825SOL     OW78066   9.989   6.784   8.073 -0.0070  0.1320 -0.0134
24825SOL    HW178067   9.995   6.691   8.050 -0.1469 -0.3871  1.8582
24825SOL    HW278068   9.896   6.804   8.069  0.1954  1.0883 -3.3684
24826SOL     OW78069   8.994   6.096   2.891 -0.3440  0.2328  0.1283
24826SOL    HW178070   9.000   6.108   2.986  4.2265  1.2735 -0.0525
24826SOL    HW278071   8.974   6.002   2.880  2.2013 -0.6787  2.2499
24827SOL     OW78072   0.202   1.719   1.522  0.1253  0.0593  0.2832
24827SOL    HW178073   0.296   1.715   1.503  0.3653 -0.6105  1.5024
24827SOL    HW278074   0.181   1.812   1.519  0.6364  0.1639 -0.8142
24828SOL     OW78075   5.670   6.105   2.363  0.2483 -0.8635 -0.0070
24828SOL    HW178076   5.764   6.091   2.378  0.4378 -2.7527 -2.3841
24828SOL    HW278077   5.666   6.172   2.296 -0.0652 -1.3041 -0.4317
24829SOL     OW78078   4.961   0.620   6.912 -0.4320 -0.3674 -0.0036
24829SOL    HW178079   5.055   0.624   6.929 -0.3244  1.4885 -0.8043
24829SOL    HW278080   4.937   0.530   6.934  1.2652 -0.5173  1.4651
24830SOL     OW78081   4.105   3.521   3.199  0.6542 -0.1355 -0.2836
24830SOL    HW178082   4.042   3.463   3.241  1.1760 -1.0439 -0.7040
24830SOL    HW278083   4.101   3.602   3.249  0.7240 -0.9212  1.0430
24831SOL     OW78084   8.458   6.056   1.953 -0.6039 -0.0811  0.0433
24831SOL    HW178085   8.501   6.097   2.028 -1.2464 -0.3215  0.5488
24831SOL    HW278086   8.365   6.066   1.970 -0.8303  1.7100 -1.7211
24832SOL     OW78087   1.751   6.394   1.614 -0.0527 -0.2737 -0.3671
24832SOL    HW178088   1.846   6.380   1.620  0.2618  1.2469 -1.3340
24832SOL    HW278089   1.736   6.422   1.524 -1.2441  0.7251  0.1078
24833SOL     OW78090   8.798   3.160   1.414 -0.1556 -0.6125  0.7221
24833SOL    HW178091   8.850   3.134   1.338 -0.3043 -1.2820  0.8431
24833SOL    HW278092   8.712   3.182   1.378 -0.0332 -0.2901  0.6212
24834SOL     OW78093   9.121   3.598   4.701 -0.4700 -0.6512 -0.0931
24834SOL    HW178094   9.169   3.674   4.733 -0.5604 -1.0139  0.9183
24834SOL    HW278095   9.031   3.629   4.691 -1.0171 -1.1737  2.5063
24835SOL     OW78096   9.936   3.360   2.489  0.2234  0.3024 -0.3018
24835SOL    HW178097   9.987   3.430   2.449  0.7259  0.1413  0.0548
24835SOL    HW278098  10.001   3.295   2.515 -0.3153 -0.9119 -1.8207
24836SOL     OW78099   1.577   1.228   9.098  0.1894  0.1331 -0.3848
24836SOL    HW178100   1.645   1.168   9.068 -0.4841  0.2196 -2.1753
24836SOL    HW278101   1.513   1.171   9.142  0.6939 -0.1373  0.0112
24837SOL     OW78102   2.103   2.932   9.843  0.2672 -0.0810 -0.1342
24837SOL    HW178103   2.141   2.933   9.755 -0.4480 -2.0111 -0.4960
24837SOL    HW278104   2.162   2.877   9.894  0.7631  1.1517  0.6861
24838SOL     OW78105   1.275   3.115   2.161  0.4437 -0.1969  0.2123
24838SOL    HW178106   1.263   3.053   2.233 -0.0377 -0.6133 -0.2113
24838SOL    HW278107   1.280   3.201   2.203  1.1877 -0.5195  0.8168
24839SOL     OW78108   3.365   2.119   0.114 -0.1635 -0.1340  0.2766
24839SOL    HW178109   3.318   2.189   0.069 -0.4795  1.0871  2.3762
24839SOL    HW278110   3.430   2.164   0.168  0.8368 -1.5764  0.3504
24840SOL     OW78111   3.464   8.619   7.355  0.1932 -0.7114  0.2794
24840SOL    HW178112   3.438   8.709   7.335 -0.5999 -1.5953 -3.6002
24840SOL    HW278113   3.408   8.593   7.428 -0.9145  1.3741  0.2402
24841SOL     OW78114   4.451   4.943   5.341  0.2179  0.3285 -0.5340
24841SOL    HW178115   4.369   4.898   5.358  0.4655  0.0126 -0.1354
24841SOL    HW278116   4.491   4.896   5.268  0.6522 -0.3521  0.1259
24842SOL     OW78117   7.114   5.273  10.781 -0.4081  0.7710 -0.6767
24842SOL    HW178118   7.027   5.312  10.790  0.6727  3.2143  0.0100
24842SOL    HW278119   7.138   5.291  10.690  0.2607  2.2343 -0.2488
24843SOL     OW78120   6.591   1.586   5.514  0.0715  0.5011  0.2708
24843SOL    HW178121   6.660   1.613   5.453  2.0278 -1.9027  1.2127
24843SOL    HW278122   6.620   1.620   5.599 -0.6456  0.6128  0.4786
24844SOL     OW78123   1.073   1.535   0.198 -0.4499 -0.5233 -0.1230
24844SOL    HW178124   1.112   1.454   0.229 -0.1947 -0.4364 -0.2180
24844SOL    HW278125   1.050   1.582   0.279  2.9341  1.0457  0.0770
24845SOL     OW78126   6.606   8.081   6.160  0.0897  0.3234  0.5143
24845SOL    HW178127   6.696   8.059   6.133 -0.3181  0.6543 -1.2220
24845SOL    HW278128   6.569   7.996   6.186  0.7368  0.1030  0.7650
24846SOL     OW78129   3.616   7.133   7.993 -0.2263  0.5485 -0.1366
24846SOL    HW178130   3.564   7.113   8.071 -0.0545  0.9557  0.0864
24846SOL    HW278131   3.657   7.218   8.012 -1.0766  1.2143 -1.1131
24847SOL     OW78132  10.140   8.356   1.658 -0.1494  0.3229  0.2985
24847SOL    HW178133  10.123   8.335   1.566 -1.6205 -0.2612  0.6842
24847SOL    HW278134  10.204   8.428   1.654 -0.0802  0.2174 -1.1660
24848SOL     OW78135   2.152   5.309   8.604  0.4035  0.3591  0.5536
24848SOL    HW178136   2.109   5.393   8.620  0.2642  0.9280 -2.3512
24848SOL    HW278137   2.241   5.333   8.579  0.4361 -0.3809 -0.0511
24849SOL     OW78138   7.875   1.326   8.269  0.1804 -0.1866  0.2744
24849SOL    HW178139   7.806   1.308   8.205  0.5656 -0.1094 -0.1663
24849SOL    HW278140   7.953   1.340   8.216  0.3882  0.4173  0.7374
24850SOL     OW78141   7.678   5.529   7.133  0.2656 -0.0870  0.2250
24850SOL    HW178142   7.628   5.603   7.100  0.2571 -0.0959  0.2175
24850SOL    HW278143   7.629   5.452   7.106  0.4709 -0.1067 -0.0927
24851SOL     OW78144   4.691   1.508  10.715  0.3563 -0.1485 -0.3044
24851SOL    HW178145   4.717   1.574  10.650  0.5466  0.6380  0.5444
24851SOL    HW278146   4.615   1.466  10.677  0.3864  0.3919 -0.9864
24852SOL     OW78147   2.700   0.679   9.781 -0.3346 -0.3183  0.1921
24852SOL    HW178148   2.680   0.718   9.866 -0.4912 -2.0534  0.9853
24852SOL    HW278149   2.643   0.725   9.720 -2.3568 -0.9820  1.4816
24853SOL     OW78150   2.443   4.591   1.096 -0.5474 -0.6794 -0.3140
24853SOL    HW178151   2.362   4.632   1.065 -1.0695 -0.0319  1.7412
24853SOL    HW278152   2.448   4.614   1.188  0.5679 -2.9969  0.2945
24854SOL     OW78153   6.332   4.896   0.778 -0.2897  0.4015 -0.1566
24854SOL    HW178154   6.329   4.879   0.872  1.1647 -0.1886 -0.1930
24854SOL    HW278155   6.416   4.939   0.764  0.2406 -0.9701 -1.3958
24855SOL     OW78156   4.157   3.425   5.858 -0.0394  0.4932 -0.6527
24855SOL    HW178157   4.209   3.410   5.937 -0.3483 -1.2192 -0.7277
24855SOL    HW278158   4.183   3.354   5.799 -0.4157  1.2682 -1.7855
24856SOL     OW78159   7.182   1.922   2.561 -0.3732 -0.3044  0.5419
24856SOL    HW178160   7.110   1.873   2.522  0.5051 -0.4149 -0.9906
24856SOL    HW278161   7.192   1.999   2.505  0.9590 -0.4930  0.5098
24857SOL     OW78162   1.297   2.067   0.314 -0.1600  0.8946  0.3781
24857SOL    HW178163   1.363   2.100   0.253  0.0256 -1.1322 -0.5815
24857SOL    HW278164   1.347   2.039   0.390  0.0330  0.0300 -0.0553
24858SOL     OW78165   9.905   1.501   8.219 -0.0555  0.0265  0.5360
24858SOL    HW178166   9.835   1.457   8.171 -0.8919  2.4607 -0.6334
24858SOL    HW278167   9.897   1.468   8.309 -2.3110 -0.2055  0.2940
24859SOL     OW78168   4.054   9.559   1.467 -0.4288 -0.2495  0.0670
24859SOL    HW178169   3.966   9.591   1.488  0.4080  1.5376  1.0681
24859SOL    HW278170   4.110   9.637   1.473  1.0431 -1.1054 -1.7530
24860SOL     OW78171   1.988   5.743   5.446  0.4690  0.8250 -0.2497
24860SOL    HW178172   1.967   5.703   5.362  1.4123  1.3436 -0.7377
24860SOL    HW278173   1.973   5.837   5.432  2.3902  1.1370 -0.4099
24861SOL     OW78174   0.566   1.658   4.238  0.5205 -0.4434 -0.3182
24861SOL    HW178175   0.530   1.585   4.186  1.4766 -0.6839 -0.6501
24861SOL    HW278176   0.577   1.621   4.326  2.9286 -1.3825 -0.9304
24862SOL     OW78177   5.280   9.447   4.157  0.1909  0.2643 -0.2265
24862SOL    HW178178   5.318   9.472   4.073 -0.0242  0.3483 -0.2997
24862SOL    HW278179   5.302   9.518   4.216 -2.2985  1.7760 -0.9556
24863SOL     OW78180   5.526   1.017   9.972  0.1478  0.0904  0.3606
24863SOL    HW178181   5.597   1.001   9.910  1.8139 -0.7388  2.3519
24863SOL    HW278182   5.495   0.930   9.997 -0.7909  0.4190  0.3903
24864SOL     OW78183   4.594   0.550   8.146 -0.0816  0.2597  0.1197
24864SOL    HW178184   4.663   0.489   8.172 -0.9999 -1.2218 -0.7635
24864SOL    HW278185   4.514   0.512   8.182 -0.6192  1.1662 -0.0968
24865SOL     OW78186  10.981   4.135   3.466  0.0834  0.3147  0.4178
24865SOL    HW178187  10.913   4.148   3.400  0.4404  0.1085  0.0057
24865SOL    HW278188  10.989   4.220   3.509  0.3087  0.6373 -0.2436
24866SOL     OW78189   9.013   3.329   4.245 -0.1639  0.4363 -0.2904
24866SOL    HW178190   8.943   3.272   4.276  0.3622  0.1409  0.3709
24866SOL    HW278191   8.967   3.399   4.198 -0.7591 -1.3191 -2.5284
24867SOL     OW78192   8.519  10.038   8.059  0.1656  0.0469  0.1990
24867SOL    HW178193   8.511  10.014   8.151 -1.9736  0.2648  0.1421
24867SOL    HW278194   8.556  10.126   8.060 -0.5480  0.3570  0.9251
24868SOL     OW78195   7.187   2.793   3.568 -0.1661 -0.7296 -0.4701
24868SOL    HW178196   7.215   2.794   3.659 -0.7602 -0.6401 -0.2847
24868SOL    HW278197   7.266   2.814   3.518  0.3288 -1.4815 -0.0267
24869SOL     OW78198  10.961   7.828   1.411 -0.1138 -0.3960 -0.0937
24869SOL    HW178199  10.993   7.886   1.342 -0.1492  1.5791  1.4689
24869SOL    HW278200  11.023   7.839   1.483  0.5505 -3.2526 -0.1128
24870SOL     OW78201  10.709   2.364   6.146 -0.1197 -0.1727  0.3505
24870SOL    HW178202  10.776   2.431   6.160  2.7420 -2.5837 -0.6121
24870SOL    HW278203  10.638   2.410   6.102  1.1833  2.4446  0.7880
24871SOL     OW78204   4.640   6.054   4.357  0.9779 -0.0020  0.3973
24871SOL    HW178205   4.730   6.042   4.326  0.8913 -2.3360  0.8504
24871SOL    HW278206   4.640   6.018   4.446 -0.2086  0.7901  0.7356
24872SOL     OW78207  10.241  10.114   3.905 -0.2089 -0.5453 -0.1191
24872SOL    HW178208  10.185  10.040   3.881  0.6825 -1.1308 -0.4577
24872SOL    HW278209  10.282  10.087   3.987  0.4128 -0.6037 -0.4395
24873SOL     OW78210   3.044   9.923   0.372 -0.5106  0.2404  0.3070
24873SOL    HW178211   2.954   9.931   0.341 -0.8825 -0.6861  1.1035
24873SOL    HW278212   3.063   9.829   0.363  0.2768  0.3880  0.4150
24874SOL     OW78213   2.561  10.917   7.980 -0.0931  0.6048 -0.6417
24874SOL    HW178214   2.526  10.839   8.024 -1.6605  0.5235 -1.9714
24874SOL    HW278215   2.634  10.944   8.036  0.5484 -1.8288 -0.1452
24875SOL     OW78216   1.515  10.682   8.101  0.4331  0.1285 -0.3067
24875SOL    HW178217   1.525  10.776   8.116  1.4640 -0.1227  0.7050
24875SOL    HW278218   1.420  10.667   8.103  0.3184  0.8782  1.3024
24876SOL     OW78219   0.614  10.668   5.303  0.1935 -0.5717 -0.2178
24876SOL    HW178220   0.539  10.613   5.284 -1.0977  0.8310  0.6281
24876SOL    HW278221   0.633  10.654   5.395 -1.0564  1.3476  0.4070
24877SOL     OW78222   4.460   2.449   1.026  0.3808  0.5037  0.3234
24877SOL    HW178223   4.504   2.525   1.063 -0.2682  0.1249  1.9694
24877SOL    HW278224   4.510   2.374   1.059 -1.0516  0.0972  1.7178
24878SOL     OW78225   4.417   5.347   9.866  0.2181  0.2729 -0.1127
24878SOL    HW178226   4.355   5.356   9.793  0.9074 -0.5762 -0.8169
24878SOL    HW278227   4.366   5.372   9.943 -1.0318 -0.4291 -0.6741
24879SOL     OW78228   8.410   4.131   4.585 -0.7948  0.4572  0.5050
24879SOL    HW178229   8.393   4.048   4.630  0.3556  0.6999  1.4025
24879SOL    HW278230   8.491   4.116   4.537 -0.5850  1.0630  0.6695
24880SOL     OW78231   8.488   8.049   9.625  0.1797  0.5733 -1.1222
24880SOL    HW178232   8.536   8.130   9.638  0.7880 -0.0730  1.0432
24880SOL    HW278233   8.556   7.983   9.611 -0.2263  0.1488 -1.1239
24881SOL     OW78234   9.891   0.816   0.903 -0.3759  0.6036  0.1354
24881SOL    HW178235   9.839   0.821   0.823 -0.1796 -1.0219 -0.1141
24881SOL    HW278236   9.827   0.826   0.974 -1.2627 -2.2498 -0.1359
24882SOL     OW78237   0.094   4.572   4.594 -0.1933 -0.6956 -0.5538
24882SOL    HW178238   0.002   4.599   4.595 -0.1486 -0.5480 -0.3884
24882SOL    HW278239   0.142   4.648   4.626 -0.0363 -0.8566 -0.4035
24883SOL     OW78240   7.044   2.302   5.094 -0.1514 -0.5428 -0.2682
24883SOL    HW178241   7.127   2.287   5.048  0.2535  0.9029 -0.0790
24883SOL    HW278242   6.989   2.227   5.071  1.2078 -1.5377 -0.3915
24884SOL     OW78243   7.018   9.737   0.999  0.4267  0.1262 -0.4615
24884SOL    HW178244   7.017   9.831   0.981 -1.3184 -0.0884 -1.8840
24884SOL    HW278245   7.021   9.697   0.912 -0.0827 -1.1086  0.0692
24885SOL     OW78246  10.643   0.050   3.419  0.2077  0.5968  0.9725
24885SOL    HW178247  10.670  -0.003   3.343  0.5608  0.4069  1.2253
24885SOL    HW278248  10.708   0.030   3.486  0.2344  1.2136  1.1347
24886SOL     OW78249   6.174   6.119  10.727  0.4651 -0.2437 -0.0107
24886SOL    HW178250   6.209   6.066  10.798  1.6456 -2.1255 -1.8955
24886SOL    HW278251   6.086   6.085  10.713  0.7277 -0.7937 -0.3332
24887SOL     OW78252   1.966   8.656  10.538  0.2605 -0.2706  0.1680
24887SOL    HW178253   1.998   8.569  10.561 -1.5837 -1.3562 -1.1131
24887SOL    HW278254   1.879   8.661  10.577 -0.4726  0.1752 -1.4200
24888SOL     OW78255   4.460  10.487   6.454  0.3248  0.5433  0.5587
24888SOL    HW178256   4.480  10.489   6.548  0.5778 -0.4615  0.5328
24888SOL    HW278257   4.530  10.435   6.415 -0.5790 -0.3131  0.0198
24889SOL     OW78258   8.302  10.430   3.362  0.0992 -0.6499 -0.7985
24889SOL    HW178259   8.316  10.522   3.339 -1.3791 -0.2379 -0.1170
24889SOL    HW278260   8.309  10.383   3.278  3.0943 -0.2626 -0.8799
24890SOL     OW78261   4.346   7.322   7.854  0.6993 -0.6080 -0.0870
24890SOL    HW178262   4.383   7.410   7.858  0.6446 -0.5728 -0.3175
24890SOL    HW278263   4.256   7.333   7.885  1.1631 -0.8699  1.4531
24891SOL     OW78264   3.282  11.048  10.752 -0.3305  0.0709 -0.0923
24891SOL    HW178265   3.293  11.086  10.665  0.1394  0.6635  0.2142
24891SOL    HW278266   3.294  11.122  10.811 -0.6641 -0.3240  0.4775
24892SOL     OW78267   3.763   8.276   7.668  0.5979 -0.1774 -0.2952
24892SOL    HW178268   3.848   8.301   7.703 -0.1132  0.9737  0.6736
24892SOL    HW278269   3.780   8.254   7.576  2.0733 -0.8401  0.1028
24893SOL     OW78270   4.397  11.008   1.413  0.4319  0.3329  0.4548
24893SOL    HW178271   4.358  11.064   1.346  1.1678 -0.2011 -0.4556
24893SOL    HW278272   4.406  11.064   1.490 -1.6097  0.6141  0.5369
24894SOL     OW78273  10.177   1.956   6.425  0.6227  0.0170  0.6239
24894SOL    HW178274  10.162   1.862   6.437 -2.0911  0.2241 -0.5277
24894SOL    HW278275  10.144   1.997   6.505 -1.4118  0.1671 -0.2310
24895SOL     OW78276   8.764   9.635   0.261  0.3095 -0.1971  0.1768
24895SOL    HW178277   8.734   9.713   0.214  2.0219  0.1490 -0.4442
24895SOL    HW278278   8.762   9.660   0.354 -0.1779  0.2012  0.0610
24896SOL     OW78279   9.187   3.973  10.176  0.1926 -0.0397  0.2655
24896SOL    HW178280   9.144   3.965  10.262 -1.3916 -0.0121 -0.4972
24896SOL    HW278281   9.280   3.982  10.197  0.4191 -4.0270  1.8801
24897SOL     OW78282   1.143   8.547   5.752 -0.1195 -0.3180 -0.2991
24897SOL    HW178283   1.170   8.607   5.822  0.6047  0.8735 -1.5518
24897SOL    HW278284   1.208   8.559   5.683 -2.3167  0.6350 -2.3540
24898SOL     OW78285   8.997   8.225   9.371 -1.0940 -0.0765  0.0217
24898SOL    HW178286   8.939   8.167   9.420 -0.0897 -0.7431  0.4452
24898SOL    HW278287   9.003   8.304   9.426 -0.1272 -0.7444  0.9054
24899SOL     OW78288   5.077   7.597  10.886 -0.6116 -0.8106 -0.0823
24899SOL    HW178289   4.989   7.607  10.923  0.1685  0.8529  1.5108
24899SOL    HW278290   5.134   7.642  10.948  0.9337  1.5145 -2.9539
24900SOL     OW78291   6.574   4.554   4.040 -0.3732  0.3358 -0.2206
24900SOL    HW178292   6.533   4.636   4.011 -0.7072  0.9611  1.8254
24900SOL    HW278293   6.534   4.537   4.126  0.1683 -1.6432 -0.3196
24901SOL     OW78294   6.465  10.916   8.790 -0.6203 -0.1596 -0.2730
24901SOL    HW178295   6.470  11.008   8.762 -0.2763 -0.1246 -0.1026
24901SOL    HW278296   6.457  10.920   8.885 -1.7472 -0.2815 -0.3415
24902SOL     OW78297   1.357   2.365   3.177  0.2378 -0.0002 -0.3231
24902SOL    HW178298   1.374   2.392   3.267  3.9332 -0.2152 -0.7687
24902SOL    HW278299   1.343   2.447   3.130 -1.0201  0.1600  0.2844
24903SOL     OW78300  11.039  10.607   8.852  0.2941 -0.3862 -0.1744
24903SOL    HW178301  11.037  10.703   8.845  1.4007 -0.2921  0.5390
24903SOL    HW278302  11.069  10.577   8.767 -0.0469 -0.0930 -0.3998
24904SOL     OW78303   5.329   3.760   7.947  0.2700 -0.3481  0.5732
24904SOL    HW178304   5.264   3.690   7.953 -1.7096  1.3989  0.7449
24904SOL    HW278305   5.404   3.728   7.998 -0.2966 -2.5609  0.1145
24905SOL     OW78306   0.431   1.908   4.285 -0.0259 -0.1401  0.4965
24905SOL    HW178307   0.394   1.874   4.367  2.0116 -0.0443  1.5263
24905SOL    HW278308   0.469   1.832   4.242  0.6522  0.1169  0.6301
24906SOL     OW78309  10.862   7.057  10.599 -0.3075 -0.6361 -0.0828
24906SOL    HW178310  10.806   7.066  10.522 -2.0752 -2.1344  0.9594
24906SOL    HW278311  10.841   7.134  10.652 -1.0815 -0.9882  0.1230
24907SOL     OW78312  10.505   1.661   9.469 -0.0603 -0.4912 -0.4401
24907SOL    HW178313  10.549   1.746   9.474 -1.6378  0.6336 -3.1717
24907SOL    HW278314  10.418   1.678   9.507 -1.0300 -0.2819 -2.5943
24908SOL     OW78315   8.774   4.789   6.518 -0.5591 -0.0739  0.2669
24908SOL    HW178316   8.735   4.861   6.468 -0.3470 -0.6275 -0.7275
24908SOL    HW278317   8.868   4.808   6.518 -0.3368 -1.0333 -1.1838
24909SOL     OW78318   7.029   1.760   5.227 -0.4640 -0.0568 -0.4640
24909SOL    HW178319   7.067   1.841   5.262  0.5514 -0.3373 -0.8796
24909SOL    HW278320   6.970   1.789   5.157  1.8965  0.2537 -2.4671
24910SOL     OW78321  11.095   9.253  10.289  0.3548 -0.1484  0.1264
24910SOL    HW178322  11.051   9.336  10.273 -1.3096 -0.9995  0.0763
24910SOL    HW278323  11.153   9.241  10.214 -0.2392  0.4306 -0.4397
24911SOL     OW78324  10.050   5.102   7.717 -0.6187 -0.3370  0.2045
24911SOL    HW178325   9.987   5.161   7.757 -1.6111  0.0900 -1.8459
24911SOL    HW278326  10.010   5.015   7.724 -0.0972 -0.5061  1.3922
24912SOL     OW78327   1.041   5.158   2.194  0.3595  0.0187 -0.3253
24912SOL    HW178328   0.962   5.158   2.139  0.9300  0.8187 -1.1731
24912SOL    HW278329   1.094   5.229   2.159  0.9948  0.1809  0.9219
24913SOL     OW78330   5.316  10.718   8.283  0.1731  0.4805 -0.0103
24913SOL    HW178331   5.314  10.648   8.349  0.5756 -0.8756 -1.3860
24913SOL    HW278332   5.365  10.789   8.325  1.6998 -0.8964  0.6654
24914SOL     OW78333   8.847   4.553   6.372  0.0306 -0.1933 -0.3535
24914SOL    HW178334   8.813   4.629   6.419  0.4707  0.5599 -1.2147
24914SOL    HW278335   8.920   4.588   6.321  0.5212 -1.2880 -0.4246
24915SOL     OW78336   2.544   2.947   1.451 -0.2154 -0.0634  0.0455
24915SOL    HW178337   2.507   2.996   1.524  0.2553 -0.8239  0.8090
24915SOL    HW278338   2.636   2.975   1.448  0.3914 -1.7507  1.2797
24916SOL     OW78339   8.627   2.255   2.680  0.8062  0.1857 -0.1984
24916SOL    HW178340   8.616   2.182   2.741  0.3908  0.8196  0.4898
24916SOL    HW278341   8.690   2.222   2.615 -1.2914 -1.7678 -1.4151
24917SOL     OW78342   4.274  10.451   5.942 -0.2386  0.1390 -0.4640
24917SOL    HW178343   4.268  10.438   6.036  0.1315  0.9101 -0.3299
24917SOL    HW278344   4.252  10.543   5.928  1.4446  0.4982 -0.9381
24918SOL     OW78345   3.068   6.026   1.862  0.0860 -0.1386  0.2194
24918SOL    HW178346   2.992   5.974   1.838  0.8456 -0.5294 -1.5377
24918SOL    HW278347   3.032   6.108   1.897 -1.1117 -0.6728  0.2715
24919SOL     OW78348  10.244  10.600   5.054  0.1065  0.0215 -0.0389
24919SOL    HW178349  10.313  10.602   5.121  0.7572 -0.7170 -0.6790
24919SOL    HW278350  10.247  10.688   5.015  0.1583  0.2466  0.4551
24920SOL     OW78351   4.383   1.783  10.189 -0.2514  0.0155  0.3071
24920SOL    HW178352   4.299   1.785  10.143  0.2098 -0.9414 -0.6098
24920SOL    HW278353   4.449   1.777  10.120  0.4874 -0.8836  1.0503
24921SOL     OW78354   3.360   9.089   1.825 -0.3995 -0.4546  0.6029
24921SOL    HW178355   3.421   9.125   1.760 -0.7968 -0.0251  0.4691
24921SOL    HW278356   3.373   8.994   1.819 -1.0294 -0.4828 -0.6951
24922SOL     OW78357   0.749   4.390   9.354 -0.3728 -0.1156  0.3242
24922SOL    HW178358   0.677   4.373   9.415  1.1170 -0.5214  2.0571
24922SOL    HW278359   0.706   4.409   9.271 -2.4449 -1.9684  0.8664
24923SOL     OW78360  10.854   8.779   1.403 -0.2742 -0.0409 -0.3334
24923SOL    HW178361  10.872   8.691   1.370 -1.0241  0.0754 -1.0996
24923SOL    HW278362  10.887   8.779   1.493 -0.5766 -1.2123 -0.2127
24924SOL     OW78363  10.830   1.750  10.485 -0.3135 -0.4043  0.0504
24924SOL    HW178364  10.816   1.803  10.407 -1.3133 -0.6489  0.0473
24924SOL    HW278365  10.742   1.732  10.519 -0.0358 -2.1957 -0.0533
24925SOL     OW78366   1.253   0.582   2.601 -0.0763 -0.4848 -0.1607
24925SOL    HW178367   1.256   0.554   2.509  1.7032 -1.2178  0.0919
24925SOL    HW278368   1.161   0.604   2.616 -0.4276 -0.5211 -2.0644
24926SOL     OW78369   0.925   4.826   9.634 -0.0475  0.0141  0.2388
24926SOL    HW178370   0.883   4.912   9.626 -0.0307 -0.1539 -3.0627
24926SOL    HW278371   0.865   4.766   9.590  1.0886 -1.2425  0.3380
24927SOL     OW78372   0.373   4.947   7.881  0.4238  0.3154 -0.4380
24927SOL    HW178373   0.465   4.970   7.888 -0.1631  2.5809  0.7677
24927SOL    HW278374   0.330   5.027   7.851 -1.3011 -0.3135  0.2176
24928SOL     OW78375   3.179   7.632   0.374  0.3086  0.8228 -0.1342
24928SOL    HW178376   3.165   7.563   0.439 -0.8881  1.1918  0.0165
24928SOL    HW278377   3.173   7.586   0.290 -2.1964  0.9624 -0.1009
24929SOL     OW78378   9.995   4.562   8.468 -0.2520  0.3725 -0.4745
24929SOL    HW178379  10.087   4.548   8.446  0.3704 -0.6288  2.2643
24929SOL    HW278380   9.998   4.602   8.556 -2.4147 -0.6807  0.1417
24930SOL     OW78381   1.521   4.342   1.238 -0.2059 -0.1766 -0.5991
24930SOL    HW178382   1.580   4.305   1.304  2.1224  1.9380 -1.3399
24930SOL    HW278383   1.475   4.412   1.285  0.7701  0.7131 -0.9257
24931SOL     OW78384   4.948   2.680   5.206 -0.0760 -0.4636  0.5961
24931SOL    HW178385   4.922   2.752   5.264  0.2922  1.7621 -1.8053
24931SOL    HW278386   4.926   2.711   5.118  0.1162 -3.3376 -0.5832
24932SOL     OW78387   8.802   0.940   3.312 -0.3055 -0.3510  0.1005
24932SOL    HW178388   8.863   1.014   3.315  0.4317 -0.8686 -1.1410
24932SOL    HW278389   8.721   0.974   3.351  0.6028  0.5078  1.3451
24933SOL     OW78390   9.667   1.659  10.260 -0.2231 -0.4713 -0.8349
24933SOL    HW178391   9.656   1.564  10.250 -0.6603 -0.6248  0.7285
24933SOL    HW278392   9.713   1.669  10.343 -1.0678  0.7097 -0.4710
24934SOL     OW78393   2.006   0.690   9.859  0.0264 -0.2524 -0.4065
24934SOL    HW178394   1.994   0.644   9.777  0.5145 -1.4697  0.1793
24934SOL    HW278395   2.101   0.688   9.874 -0.2189 -2.0308  1.2552
24935SOL     OW78396   6.179   3.874   2.337  0.2511  0.1659  0.0464
24935SOL    HW178397   6.108   3.810   2.329  0.3051 -0.0119  0.8433
24935SOL    HW278398   6.241   3.850   2.269  0.1590 -0.4978  0.1840
24936SOL     OW78399   6.513   7.651   0.866  0.7738 -0.1951  0.6559
24936SOL    HW178400   6.486   7.573   0.819  2.7005 -0.3503 -0.2754
24936SOL    HW278401   6.607   7.658   0.850  0.9802  1.3186  2.1996
24937SOL     OW78402   3.178   9.960   7.312 -0.2986  0.8151  0.0470
24937SOL    HW178403   3.230  10.039   7.326  0.5384  0.3529 -0.3349
24937SOL    HW278404   3.232   9.906   7.254 -0.2655 -0.5731  1.2980
24938SOL     OW78405   1.398   1.545   3.552  0.4640  0.5523  0.4641
24938SOL    HW178406   1.391   1.540   3.647  1.8788 -0.3560  0.5552
24938SOL    HW278407   1.451   1.469   3.528 -0.6822  0.2136 -1.1536
24939SOL     OW78408   9.572  10.480   4.143  0.0866  0.3399 -0.2796
24939SOL    HW178409   9.539  10.565   4.171  2.3034  1.1211  0.1556
24939SOL    HW278410   9.662  10.496   4.116  0.7451 -1.9628  0.2772
24940SOL     OW78411   3.984   1.216   3.466 -0.7598 -0.9353  0.1187
24940SOL    HW178412   4.048   1.198   3.397 -0.3030  0.2969  0.1809
24940SOL    HW278413   4.002   1.307   3.492 -2.4451 -0.6001  0.2414
24941SOL     OW78414   5.958   8.594   0.633  0.7276 -0.1452 -0.2761
24941SOL    HW178415   5.868   8.600   0.666  0.0701 -2.2363 -1.4848
24941SOL    HW278416   6.010   8.572   0.710  0.5767  2.9249  0.8075
24942SOL     OW78417  10.435   4.304   1.422  0.0798  0.4735  0.2464
24942SOL    HW178418  10.469   4.236   1.364 -0.2452  0.9067 -0.4650
24942SOL    HW278419  10.471   4.386   1.387 -1.1232  0.8696 -0.1034
24943SOL     OW78420   9.471   8.650   7.279  0.3713 -0.5893 -0.1209
24943SOL    HW178421   9.523   8.574   7.303  2.0148  0.0941 -1.3573
24943SOL    HW278422   9.524   8.696   7.214 -2.1791 -0.3423 -2.1989
24944SOL     OW78423   4.632   1.345   5.456 -0.0613  0.4197 -0.1091
24944SOL    HW178424   4.671   1.303   5.379 -2.3478 -2.4285  0.1354
24944SOL    HW278425   4.694   1.328   5.527  0.8745  0.8942 -0.7906
24945SOL     OW78426   8.345   9.662   8.630  0.2596  0.2454 -0.0462
24945SOL    HW178427   8.301   9.579   8.646 -2.1534  0.9351 -2.3361
24945SOL    HW278428   8.297   9.726   8.683 -0.0584  0.6430 -0.7851
24946SOL     OW78429   6.547   8.822   0.968 -0.1753  0.2968  0.5710
24946SOL    HW178430   6.631   8.786   0.998  0.2381  0.3288 -0.5012
24946SOL    HW278431   6.542   8.796   0.876 -0.7645  1.3569  0.2893
24947SOL     OW78432   3.010   8.338   4.625  0.5333 -0.0044  0.5113
24947SOL    HW178433   3.017   8.400   4.697  2.5236 -1.4969  1.6941
24947SOL    HW278434   3.100   8.320   4.599  0.0452 -2.1941  0.0591
24948SOL     OW78435   6.012   5.022   2.994  0.8486  0.3229 -0.2862
24948SOL    HW178436   5.987   5.089   3.058  0.2504  1.2808 -1.4931
24948SOL    HW278437   5.929   4.993   2.956  1.2678  0.5079 -1.3641
24949SOL     OW78438   1.471   4.370  11.107 -0.0498  0.1681 -0.3105
24949SOL    HW178439   1.527   4.317  11.049  0.0360  2.0019 -2.0164
24949SOL    HW278440   1.407   4.308  11.141  1.8182 -1.6124  0.1653
24950SOL     OW78441   8.362   8.258   6.106  0.1025 -0.3641 -0.5002
24950SOL    HW178442   8.416   8.231   6.032  1.8311  0.8164  0.2544
24950SOL    HW278443   8.416   8.239   6.183 -0.3278  1.2853  0.2555
24951SOL     OW78444   8.931   9.179  10.354  0.0312  0.0553 -0.3915
24951SOL    HW178445   8.845   9.218  10.366 -0.3783 -0.9884  0.1188
24951SOL    HW278446   8.914   9.086  10.338  1.1013 -0.3110  0.5068
24952SOL     OW78447   9.071   0.485   7.485 -0.1146  0.3173  0.6918
24952SOL    HW178448   9.114   0.457   7.405  0.2927 -0.6236  1.2266
24952SOL    HW278449   9.087   0.580   7.489 -1.5314  0.6669 -1.1448
24953SOL     OW78450   7.243   4.037   0.096  0.2291  0.3287 -0.0903
24953SOL    HW178451   7.331   4.014   0.127 -0.2058 -1.3352  0.0072
24953SOL    HW278452   7.258   4.088   0.016  1.2756 -1.3700 -1.0202
24954SOL     OW78453  10.103   2.990   1.866 -0.0268 -0.3544 -0.1586
24954SOL    HW178454  10.168   2.978   1.935 -0.2431 -2.0957 -0.1947
24954SOL    HW278455  10.130   3.068   1.819  1.3411 -0.3643  0.5792
24955SOL     OW78456   8.764  10.581   1.063 -0.0152  0.0635 -0.4540
24955SOL    HW178457   8.673  10.610   1.053 -0.1114 -0.5075 -1.3557
24955SOL    HW278458   8.757  10.488   1.084  0.3728 -0.6806 -3.2343
24956SOL     OW78459  10.208   2.968   3.057  0.0194  0.2771 -0.1250
24956SOL    HW178460  10.284   2.975   2.999  0.4884 -0.5250  0.3776
24956SOL    HW278461  10.133   2.963   2.998  0.3198  1.3616 -0.6229
24957SOL     OW78462  11.074   3.746   4.225 -0.2055  0.3980  0.6371
24957SOL    HW178463  11.148   3.772   4.279 -0.8003  0.6567  1.3330
24957SOL    HW278464  11.105   3.667   4.180  0.8894  1.1289  0.0386
24958SOL     OW78465   8.035   3.525   7.910  0.4673 -0.1631 -0.3033
24958SOL    HW178466   8.102   3.592   7.902  0.4803 -0.2093 -0.5952
24958SOL    HW278467   8.025   3.512   8.005 -1.0700  1.7874 -0.1245
24959SOL     OW78468   2.206   2.492   9.693  0.0971 -0.2097  0.4670
24959SOL    HW178469   2.241   2.571   9.651  0.9739 -0.6353  0.3956
24959SOL    HW278470   2.115   2.515   9.713 -0.4333 -0.0666 -1.8543
24960SOL     OW78471   9.446   6.713   6.751  0.0558 -0.2194 -0.5975
24960SOL    HW178472   9.452   6.798   6.707 -0.5425 -1.2979 -2.9179
24960SOL    HW278473   9.537   6.684   6.760  0.2857  0.7953  0.5412
24961SOL     OW78474   4.535   7.245   2.114 -0.0291  0.2450  0.4129
24961SOL    HW178475   4.562   7.163   2.073  2.7333  1.8357 -1.3095
24961SOL    HW278476   4.569   7.240   2.203  0.0387 -0.4806  0.3538
24962SOL     OW78477   7.853   6.020   8.807  0.1876 -0.3805 -0.3077
24962SOL    HW178478   7.893   5.950   8.858 -1.0839  1.2730  3.3530
24962SOL    HW278479   7.760   5.997   8.805  0.0485  0.2141 -0.8240
24963SOL     OW78480   0.546  10.362  10.363 -0.3145  0.2030  0.6009
24963SOL    HW178481   0.606  10.349  10.437 -1.3582 -0.4316  1.3647
24963SOL    HW278482   0.538  10.276  10.323  0.2535  0.5482 -0.2738
24964SOL     OW78483  10.180   9.786   5.995 -0.3758  0.5311 -0.7420
24964SOL    HW178484  10.204   9.822   5.909 -0.8086  0.2643 -0.9790
24964SOL    HW278485  10.128   9.708   5.974 -0.4946  0.4742 -0.2345
24965SOL     OW78486   3.747   2.838   9.350 -0.6223  0.1079  0.9206
24965SOL    HW178487   3.725   2.907   9.413  0.5183  0.5785  0.8313
24965SOL    HW278488   3.693   2.857   9.273 -0.6809  0.6055  1.0848
24966SOL     OW78489   7.284   9.119   0.170  0.9003 -0.2756 -0.4049
24966SOL    HW178490   7.200   9.152   0.140  0.4960 -0.3299  0.6061
24966SOL    HW278491   7.344   9.134   0.097 -0.4680 -2.4095 -2.1065
24967SOL     OW78492   9.624   2.113  10.307 -0.3055  0.0031  0.0634
24967SOL    HW178493   9.694   2.142  10.249  0.1536 -0.5437  0.3319
24967SOL    HW278494   9.563   2.186  10.310  0.0447  0.3221 -0.5105
24968SOL     OW78495  10.501   8.957   1.682  0.1544  0.3101  0.0033
24968SOL    HW178496  10.565   9.028   1.681 -0.4196  0.8630 -1.6668
24968SOL    HW278497  10.554   8.877   1.682  0.8308  0.7479  0.2679
24969SOL     OW78498   3.459   5.868   0.563 -0.0516 -0.5885 -0.3513
24969SOL    HW178499   3.367   5.848   0.548 -0.4028  1.2519 -0.8933
24969SOL    HW278500   3.491   5.796   0.618 -1.4590 -1.9302 -1.2102
24970SOL     OW78501   1.488   4.025   2.984 -0.0382 -0.0129  0.2527
24970SOL    HW178502   1.569   4.061   2.949  0.0424 -0.7748 -0.3776
24970SOL    HW278503   1.429   4.100   2.993  0.6190  0.4879  0.3773
24971SOL     OW78504   9.614  10.929   4.957  0.3985 -0.0415  0.0773
24971SOL    HW178505   9.626  10.892   4.870  1.3873  1.6126 -0.5385
24971SOL    HW278506   9.701  10.926   4.997  0.5250  1.5958 -0.0172
24972SOL     OW78507   9.048   0.381   5.933  0.5148  0.3308  0.2789
24972SOL    HW178508   9.111   0.362   6.003 -0.1325 -0.5056  0.6499
24972SOL    HW278509   9.051   0.304   5.876 -0.7210 -0.0651  0.7235
24973SOL     OW78510   3.719   4.397   7.030 -0.5002 -0.0200 -0.9551
24973SOL    HW178511   3.771   4.351   6.965 -1.1240 -1.2824 -0.5890
24973SOL    HW278512   3.633   4.355   7.026 -0.4203 -0.4605  0.9900
24974SOL     OW78513   3.746   2.947   4.158  0.0622 -0.2016  0.1831
24974SOL    HW178514   3.738   2.880   4.226  1.6886 -1.4279 -0.7928
24974SOL    HW278515   3.661   2.992   4.160 -1.3865 -2.7600  0.3546
24975SOL     OW78516   8.640   4.095   3.730 -0.0652 -0.4022 -0.4812
24975SOL    HW178517   8.578   4.023   3.719  0.8935 -1.5667  1.3502
24975SOL    HW278518   8.695   4.069   3.803  0.6584  1.9683 -0.0878
24976SOL     OW78519   9.110   3.367   6.617 -0.3704 -0.2950  0.0311
24976SOL    HW178520   9.035   3.402   6.568  0.5902 -1.4851 -2.4130
24976SOL    HW278521   9.136   3.439   6.675 -3.1467  0.2769  0.7443
24977SOL     OW78522   2.042   3.020   2.561 -0.2483  0.2424 -0.2807
24977SOL    HW178523   2.003   2.936   2.538 -1.0388  0.4312  0.3042
24977SOL    HW278524   2.113   2.998   2.621  0.6123 -0.1145 -1.4065
24978SOL     OW78525   2.959   4.794   9.440  0.2421  0.2585  0.1240
24978SOL    HW178526   3.000   4.787   9.354 -0.8229  0.6005 -0.4258
24978SOL    HW278527   2.867   4.772   9.425  0.4068 -1.6187  1.5337
24979SOL     OW78528  10.916   9.447   6.352 -0.2402  0.2745  0.4434
24979SOL    HW178529  10.887   9.381   6.289  1.8571 -0.5806  0.3002
24979SOL    HW278530  10.847   9.450   6.418 -0.5766 -1.7956  0.2466
24980SOL     OW78531   3.537   1.721   3.026 -0.5109  0.0378  0.5560
24980SOL    HW178532   3.599   1.787   2.994 -0.0910  0.3490  1.9322
24980SOL    HW278533   3.574   1.638   2.996  0.8994  0.1727  1.7624
24981SOL     OW78534  11.008   4.852   1.951  0.3997  0.0105 -0.4434
24981SOL    HW178535  11.035   4.938   1.920 -0.3194  0.4109  0.0107
24981SOL    HW278536  10.971   4.868   2.038 -0.1973 -0.6808 -0.5545
24982SOL     OW78537   1.790   4.402   0.553 -0.1016  0.2127  0.2226
24982SOL    HW178538   1.720   4.349   0.592  0.9964 -1.3857  0.1029
24982SOL    HW278539   1.844   4.339   0.505 -0.0411  1.7955 -1.8912
24983SOL     OW78540   8.087   8.286   1.728  0.6121 -0.0428  0.8645
24983SOL    HW178541   8.145   8.283   1.805  1.0841  0.0116  0.5161
24983SOL    HW278542   8.049   8.373   1.729 -1.0733 -0.7309  2.2529
24984SOL     OW78543   4.900   0.240   6.612  0.1555 -0.0141  0.4314
24984SOL    HW178544   4.823   0.229   6.557  0.3242  0.1888  0.1573
24984SOL    HW278545   4.937   0.324   6.586  1.0631 -0.5925 -0.1724
24985SOL     OW78546   3.296   4.598   4.373  0.2742  0.3254  0.1334
24985SOL    HW178547   3.287   4.690   4.398  1.1283  1.0436 -1.9170
24985SOL    HW278548   3.356   4.561   4.438  1.7023  1.8275 -0.2570
24986SOL     OW78549   7.777   7.919   6.673  0.5320 -0.2141  0.6330
24986SOL    HW178550   7.764   7.835   6.717  0.1576 -0.8828 -0.7117
24986SOL    HW278551   7.781   7.898   6.580 -0.2175  1.3339  0.2075
24987SOL     OW78552   3.955   2.606   3.618  0.4098 -0.1774 -0.1404
24987SOL    HW178553   4.035   2.659   3.617 -0.3807  1.0616 -0.9215
24987SOL    HW278554   3.886   2.669   3.637 -0.8229 -0.5216 -3.0237
24988SOL     OW78555   9.832   9.104   6.950  0.1817 -0.0744 -0.2850
24988SOL    HW178556   9.814   9.101   7.044  0.9518  0.7538 -0.0966
24988SOL    HW278557   9.907   9.164   6.942  0.3477 -0.4100 -1.3900
24989SOL     OW78558   6.881   8.476   5.320  0.7499  0.4470 -0.3066
24989SOL    HW178559   6.806   8.489   5.377 -0.0239  1.5027 -1.5128
24989SOL    HW278560   6.843   8.465   5.232  1.9895  0.9136 -0.9304
24990SOL     OW78561   4.828   7.153   5.819  0.5771 -0.2905  0.2211
24990SOL    HW178562   4.754   7.096   5.801  0.6685 -0.0626 -0.9199
24990SOL    HW278563   4.899   7.093   5.843  0.8949 -0.7465 -1.7148
24991SOL     OW78564   4.620  10.547   6.913 -0.4216  0.3950 -0.1439
24991SOL    HW178565   4.679  10.481   6.949 -1.6000 -0.2764  0.6175
24991SOL    HW278566   4.673  10.627   6.911  0.6131 -0.2611  0.2039
24992SOL     OW78567   6.090   3.259   2.315  0.4571  0.1805 -0.0517
24992SOL    HW178568   6.002   3.295   2.309  0.6067  0.5925  0.2494
24992SOL    HW278569   6.147   3.327   2.278  0.6638 -0.0392 -0.1434
24993SOL     OW78570   3.836   2.086   4.352 -0.3496 -0.1698  0.1788
24993SOL    HW178571   3.845   2.013   4.292 -0.4273 -0.6614  0.7544
24993SOL    HW278572   3.919   2.090   4.399 -0.1610  0.4289 -0.1990
24994SOL     OW78573   2.353   7.127   5.633 -0.3128  1.1971 -0.4385
24994SOL    HW178574   2.321   7.054   5.686  0.4453  1.0302 -0.1904
24994SOL    HW278575   2.304   7.203   5.665 -0.6482  0.9084 -0.2588
24995SOL     OW78576   8.929   0.918   4.720 -0.2845  0.1141  0.0872
24995SOL    HW178577   8.962   0.882   4.638  0.6683  0.8797  0.1175
24995SOL    HW278578   8.942   0.848   4.784  1.3061  0.3842  0.0931
24996SOL     OW78579   3.571   5.601   3.981 -0.1645  0.0001  0.4079
24996SOL    HW178580   3.623   5.679   3.960 -2.5130  1.7970  0.8481
24996SOL    HW278581   3.623   5.555   4.047  0.7885  1.7697  0.9538
24997SOL     OW78582   6.222   7.868   3.309  0.6074  0.0246  0.0741
24997SOL    HW178583   6.278   7.862   3.387 -0.2984 -0.1300  0.7257
24997SOL    HW278584   6.274   7.828   3.240  0.4760 -2.0933  1.1299
24998SOL     OW78585   7.375   8.533   2.901 -0.5114  0.0201  0.6741
24998SOL    HW178586   7.432   8.537   2.978  0.4355  0.8541 -0.0346
24998SOL    HW278587   7.435   8.542   2.827 -1.2944 -1.6256 -0.2207
24999SOL     OW78588   3.237   3.755  10.526 -0.4159 -0.5547 -0.2277
24999SOL    HW178589   3.308   3.812  10.557 -1.1132  0.2372 -0.0529
24999SOL    HW278590   3.273   3.667  10.532  1.7481 -0.0499 -3.0861
25000SOL     OW78591   9.921   5.217   7.412  0.1253  0.4841  0.0438
25000SOL    HW178592  10.011   5.248   7.416  0.2575 -0.0526  2.2406
25000SOL    HW278593   9.925   5.124   7.434 -1.2007  1.1491  3.8497
25001SOL     OW78594   5.634   3.228   3.077 -0.4849  0.6690  0.0090
25001SOL    HW178595   5.539   3.217   3.085 -0.5397  0.6160 -0.6922
25001SOL    HW278596   5.645   3.321   3.057 -0.3011  0.9617  1.3371
25002SOL     OW78597  10.269   7.665   5.973  0.1584 -0.2021 -0.0167
25002SOL    HW178598  10.343   7.604   5.976 -0.7515 -1.3202  0.7695
25002SOL    HW278599  10.274   7.713   6.055 -0.1884 -0.5554  0.2185
25003SOL     OW78600   1.879   7.163  10.614 -0.0158 -0.0885 -0.1763
25003SOL    HW178601   1.825   7.231  10.572 -0.1420 -0.5787 -0.8237
25003SOL    HW278602   1.828   7.135  10.690  0.1896  0.7734  0.2918
25004SOL     OW78603   9.068   4.113   8.441  0.6375 -0.1710  0.0460
25004SOL    HW178604   9.149   4.122   8.392  0.5563  0.3244  0.0022
25004SOL    HW278605   9.096   4.090   8.529  0.8987  1.3033  0.3753
25005SOL     OW78606   5.690   6.499   6.644 -0.1881 -0.1864 -0.6019
25005SOL    HW178607   5.639   6.520   6.721  1.0928  0.6030  0.0700
25005SOL    HW278608   5.627   6.499   6.572 -1.0391  1.2854  0.1112
25006SOL     OW78609   6.387   8.670  10.277  0.0910 -0.4271 -0.1435
25006SOL    HW178610   6.465   8.697  10.228 -0.8799  2.1178 -0.4312
25006SOL    HW278611   6.421   8.649  10.364  1.1110  0.6927 -0.2406
25007SOL     OW78612   0.084   0.276   9.043 -0.3890 -0.3076 -0.1319
25007SOL    HW178613   0.073   0.181   9.033 -0.6104 -0.2678 -0.2723
25007SOL    HW278614   0.168   0.285   9.089 -0.3857 -0.5720 -0.0814
25008SOL     OW78615   1.242   0.995   1.705 -0.0707 -0.4892 -0.6653
25008SOL    HW178616   1.198   0.949   1.777  0.4277  0.5715  0.3649
25008SOL    HW278617   1.238   1.087   1.731  0.5599 -0.1415 -1.7725
25009SOL     OW78618   2.237   7.035   3.341 -0.1008 -0.5129 -0.2563
25009SOL    HW178619   2.227   7.066   3.250 -0.9330  0.9181  0.2814
25009SOL    HW278620   2.321   6.989   3.342  1.6833  2.4719 -0.9875
25010SOL     OW78621   3.841   1.731   4.793 -0.2033  0.4397 -0.0698
25010SOL    HW178622   3.857   1.780   4.712  1.9980  0.6926  0.4569
25010SOL    HW278623   3.922   1.683   4.808 -1.6226 -1.9150  0.4655
25011SOL     OW78624   3.584   0.833   4.861 -0.2336  0.0955 -0.3232
25011SOL    HW178625   3.582   0.928   4.853 -1.2505  0.0313 -1.0959
25011SOL    HW278626   3.595   0.801   4.772 -0.3788 -0.5146 -0.1291
25012SOL     OW78627   9.013   5.072   7.749 -0.1509  0.2019 -0.1136
25012SOL    HW178628   8.929   5.039   7.780 -0.2959 -0.0853 -0.7951
25012SOL    HW278629   8.991   5.148   7.697  0.1789  1.3994  1.4086
25013SOL     OW78630  10.477   1.418   3.271 -0.1092  0.1537 -0.1373
25013SOL    HW178631  10.422   1.428   3.193  1.1091 -0.0143 -1.0465
25013SOL    HW278632  10.506   1.507   3.291 -0.3950  0.1923  0.1156
25014SOL     OW78633  10.249   3.233   7.680 -0.5676 -0.4422  0.2086
25014SOL    HW178634  10.178   3.256   7.740  0.2250  0.5257  0.8106
25014SOL    HW278635  10.281   3.318   7.647 -0.9051 -0.9377 -1.5122
25015SOL     OW78636   0.195   8.729   6.537  0.3472  0.6341  0.3378
25015SOL    HW178637   0.263   8.661   6.536 -0.3395 -0.0970 -1.2733
25015SOL    HW278638   0.157   8.725   6.624 -2.3271 -3.8830 -0.7202
25016SOL     OW78639   2.851   3.941   0.867 -0.0648 -0.6138  0.2553
25016SOL    HW178640   2.881   4.029   0.890  0.6421 -0.7094 -0.2543
25016SOL    HW278641   2.756   3.943   0.882 -0.2784  0.6560 -1.0382
25017SOL     OW78642   2.409   6.428   4.056  0.1385  0.1348  0.2124
25017SOL    HW178643   2.319   6.406   4.081 -0.3218  1.2652 -0.3913
25017SOL    HW278644   2.405   6.520   4.030  1.5031  0.2411  0.3011
25018SOL     OW78645   9.882   3.917   1.126 -0.3093  0.1482 -0.2102
25018SOL    HW178646   9.865   4.006   1.157 -0.0068  0.9356 -2.1590
25018SOL    HW278647   9.796   3.886   1.097 -0.1318  0.5211 -1.1942
25019SOL     OW78648   6.598   2.780   5.395 -0.0106 -0.2540 -0.1979
25019SOL    HW178649   6.550   2.712   5.348 -0.7057  0.4293 -0.5005
25019SOL    HW278650   6.647   2.826   5.327 -0.1849  0.0609 -0.1140
25020SOL     OW78651   6.235   6.419   7.116 -0.3504 -0.6064  0.1413
25020SOL    HW178652   6.331   6.420   7.116 -0.2357  2.7997 -0.4195
25020SOL    HW278653   6.211   6.366   7.040  1.2063  0.3619 -1.0859
25021SOL     OW78654  10.337   6.575   3.368 -0.0236  0.0372  0.6187
25021SOL    HW178655  10.322   6.637   3.296  1.2524 -1.7872 -1.3452
25021SOL    HW278656  10.421   6.602   3.405  0.4247 -0.3407 -0.0929
25022SOL     OW78657   6.231  10.554   6.522 -0.2859 -0.1743  0.3531
25022SOL    HW178658   6.190  10.512   6.597 -3.1814 -0.0547 -1.0058
25022SOL    HW278659   6.187  10.515   6.446  2.0854  0.1425 -1.2858
25023SOL     OW78660   8.588   3.346   7.066 -0.6012  0.1206  0.4204
25023SOL    HW178661   8.551   3.266   7.029 -0.4488  0.1807  0.1368
25023SOL    HW278662   8.658   3.371   7.006 -1.3128  1.0333 -0.0734
25024SOL     OW78663  10.723   9.481  10.823  0.2856 -0.3150 -0.0946
25024SOL    HW178664  10.656   9.422  10.858  1.5502 -1.1629  0.9804
25024SOL    HW278665  10.759   9.434  10.748  0.2911 -0.2372 -0.1411
25025SOL     OW78666   3.742   1.584   0.213 -0.2463 -0.3943  0.4331
25025SOL    HW178667   3.718   1.492   0.203 -0.7626 -0.3795  1.4278
25025SOL    HW278668   3.789   1.587   0.296 -1.4908  0.4662  1.1302
25026SOL     OW78669   6.445  10.608   4.935  0.5393  0.7565  0.4585
25026SOL    HW178670   6.399  10.526   4.947 -0.2574  1.0047 -0.7213
25026SOL    HW278671   6.376  10.673   4.924  1.0659  0.9813 -2.4438
25027SOL     OW78672   5.516   4.556  10.444  0.1580 -0.2359  0.2834
25027SOL    HW178673   5.441   4.561  10.503 -0.8095  1.7186 -1.0079
25027SOL    HW278674   5.487   4.499  10.373 -0.2834  0.8035 -0.3960
25028SOL     OW78675   2.798   0.418   7.775 -0.2336 -0.2290  0.1770
25028SOL    HW178676   2.782   0.388   7.864  0.1828 -0.4696  0.1707
25028SOL    HW278677   2.828   0.508   7.784 -2.9640  0.8035  0.1240
25029SOL     OW78678   4.478   2.705   3.028 -0.0823 -0.8017  0.8083
25029SOL    HW178679   4.526   2.622   3.030  0.5358 -0.4444  0.6312
25029SOL    HW278680   4.532   2.764   2.978 -1.0637 -0.6047 -0.0546
25030SOL     OW78681   2.805  10.913   8.135  0.5783  0.3800 -0.7199
25030SOL    HW178682   2.800  10.964   8.216  1.4651  0.9924 -1.0392
25030SOL    HW278683   2.894  10.879   8.134 -0.0438 -1.3605 -0.4195
25031SOL     OW78684   8.069   6.388   1.598 -0.4140  0.3859  0.0197
25031SOL    HW178685   8.160   6.416   1.612  0.1256 -0.2452 -1.9422
25031SOL    HW278686   8.066   6.299   1.633  0.0874 -0.0478 -0.9869
25032SOL     OW78687   1.763   1.570   7.054  0.0154 -0.0513 -0.4519
25032SOL    HW178688   1.697   1.527   6.999  0.1957 -2.7458  1.2315
25032SOL    HW278689   1.821   1.614   6.992 -0.7756 -1.4666 -2.3089
25033SOL     OW78690   6.105   5.059  10.609  0.0431 -0.4788 -0.1811
25033SOL    HW178691   6.197   5.053  10.581  0.1394  1.6593 -0.4983
25033SOL    HW278692   6.056   5.029  10.533  0.4566  0.1003 -0.6944
25034SOL     OW78693   7.746   3.864   3.735  0.2518  0.6335  0.0127
25034SOL    HW178694   7.658   3.841   3.763  0.7050 -0.3180  0.6971
25034SOL    HW278695   7.768   3.942   3.787 -0.6483  1.6634 -1.0944
25035SOL     OW78696   0.808   9.912   3.808 -0.2794  0.5195  0.4867
25035SOL    HW178697   0.849   9.837   3.766  0.0650  0.2805  1.2251
25035SOL    HW278698   0.757   9.954   3.739  0.5590  0.3487 -0.2537
25036SOL     OW78699   1.963   6.997   1.740 -0.4002  0.0398  0.5087
25036SOL    HW178700   2.015   6.918   1.755 -2.2520 -1.2689  0.3907
25036SOL    HW278701   1.918   6.980   1.658 -0.7576  1.2799  0.4360
25037SOL     OW78702   5.264   0.460   5.076 -0.3010  0.7571  0.6674
25037SOL    HW178703   5.272   0.435   5.168 -0.0126  0.1808  0.4888
25037SOL    HW278704   5.212   0.390   5.036  0.1123  0.6783  0.2620
25038SOL     OW78705   5.098   4.489  11.019 -0.0251  0.0908  0.7055
25038SOL    HW178706   5.088   4.552  11.091  0.2052 -0.7511  1.4884
25038SOL    HW278707   5.109   4.405  11.062 -2.5332 -0.8596 -0.3307
25039SOL     OW78708   2.190   9.155   2.609 -0.0761 -0.1331 -0.4750
25039SOL    HW178709   2.242   9.177   2.686 -0.6790 -0.7044  0.1022
25039SOL    HW278710   2.173   9.062   2.617 -0.9741 -0.0027 -0.7801
25040SOL     OW78711   7.748   8.544  10.399  0.1121  0.1521  0.1447
25040SOL    HW178712   7.714   8.462  10.434  0.2801 -0.3772 -0.8733
25040SOL    HW278713   7.767   8.598  10.476 -0.2932 -0.6437  0.8163
25041SOL     OW78714   4.728   2.666   5.851 -0.3021 -0.0092  0.4207
25041SOL    HW178715   4.636   2.692   5.858  0.1073  1.8165 -0.4411
25041SOL    HW278716   4.777   2.745   5.874  1.0251 -0.0675 -1.9013
25042SOL     OW78717   7.101  10.300  10.401 -0.2697  0.1281  0.2461
25042SOL    HW178718   7.047  10.379  10.392 -2.3664 -1.0340  1.6023
25042SOL    HW278719   7.153  10.297  10.321 -2.8261  0.9734 -1.5748
25043SOL     OW78720   7.289   5.999   0.537  0.0344  0.0753  0.2337
25043SOL    HW178721   7.203   5.969   0.568 -0.1241  0.4557  0.1633
25043SOL    HW278722   7.317   6.063   0.602 -0.6982  1.5445 -0.8422
25044SOL     OW78723   6.065   0.582   4.008  0.2473  0.1218 -0.4140
25044SOL    HW178724   5.984   0.604   3.962  0.9678  1.2084 -1.2121
25044SOL    HW278725   6.050   0.613   4.098  0.3945  1.9206 -0.9689
25045SOL     OW78726   3.525   8.362   3.637 -0.4122 -0.2328 -0.1510
25045SOL    HW178727   3.463   8.370   3.564 -2.3473 -1.7848  1.1942
25045SOL    HW278728   3.499   8.281   3.682  0.9664  0.4230  2.0075
25046SOL     OW78729   7.170   9.575   2.465 -0.2838  0.8598 -0.1737
25046SOL    HW178730   7.091   9.537   2.426 -1.4263  1.3208  1.5719
25046SOL    HW278731   7.170   9.666   2.434 -1.3971  1.3339  1.0819
25047SOL     OW78732   5.232   1.881   9.246  0.4587  0.1047 -0.0998
25047SOL    HW178733   5.203   1.859   9.334 -1.0537  0.7318 -0.3918
25047SOL    HW278734   5.322   1.913   9.257  1.0768 -1.8551  0.8878
25048SOL     OW78735   4.364   1.852   2.611 -0.3505  0.2740  0.0326
25048SOL    HW178736   4.385   1.945   2.615 -2.1243  0.6791  0.7932
25048SOL    HW278737   4.273   1.849   2.580  0.2687 -1.3030 -1.7745
25049SOL     OW78738   6.558   2.499   6.078 -0.2041  0.2870  0.2955
25049SOL    HW178739   6.608   2.559   6.021 -0.4584 -0.1336 -0.3722
25049SOL    HW278740   6.486   2.552   6.110 -0.4623  0.3309 -0.3423
25050SOL     OW78741   7.924   0.603   1.105  0.0273  0.0903 -0.2112
25050SOL    HW178742   7.960   0.606   1.193  0.1157 -1.1639 -0.1989
25050SOL    HW278743   8.000   0.596   1.048 -0.0714  0.1734 -0.3548
25051SOL     OW78744   0.469   0.824  11.089 -0.2075  0.4884  0.1311
25051SOL    HW178745   0.434   0.913  11.101  0.2320  0.7853 -0.7016
25051SOL    HW278746   0.538   0.817  11.155  0.0843  0.9455 -0.1193
25052SOL     OW78747   5.109   4.816   1.198 -0.1826 -0.0519  0.3191
25052SOL    HW178748   5.081   4.730   1.165  0.3017 -0.4891  1.0362
25052SOL    HW278749   5.123   4.868   1.119  1.2719 -1.1849 -0.2273
25053SOL     OW78750   6.122   0.643   6.218 -0.1522  0.2617  0.2011
25053SOL    HW178751   6.130   0.550   6.241 -3.2080 -0.1891 -0.2310
25053SOL    HW278752   6.181   0.655   6.144 -2.0475 -2.1871 -1.8481
25054SOL     OW78753   4.029   5.025   1.748  0.1903 -0.0138  0.3913
25054SOL    HW178754   4.098   5.033   1.814  1.3585 -1.5700 -0.5703
25054SOL    HW278755   4.032   5.108   1.700  1.8167 -0.2668  0.0001
25055SOL     OW78756   0.519   3.570   1.316  0.1811 -0.0267  0.0820
25055SOL    HW178757   0.610   3.540   1.323  0.3799  0.6259  0.3322
25055SOL    HW278758   0.516   3.619   1.234  0.0048 -0.2233 -0.0295
25056SOL     OW78759   7.546   5.726   0.551 -0.4297 -0.4136 -0.5868
25056SOL    HW178760   7.461   5.683   0.543 -0.2332 -0.8970 -0.1091
25056SOL    HW278761   7.604   5.676   0.493 -0.7852  0.7990 -2.0658
25057SOL     OW78762   8.374  10.663   9.850 -0.3544  0.5632 -0.1356
25057SOL    HW178763   8.299  10.723   9.843  0.2397  1.4037  0.4681
25057SOL    HW278764   8.433  10.691   9.781  0.1521  1.0137  0.4713
25058SOL     OW78765   4.713   5.963   4.591 -0.3539  0.1850 -0.3154
25058SOL    HW178766   4.718   5.871   4.616  0.3319 -0.0896 -1.3866
25058SOL    HW278767   4.727   6.011   4.672  1.2864 -0.6672 -0.0431
25059SOL     OW78768   3.729   4.852   2.579 -0.4562  0.9871 -0.1325
25059SOL    HW178769   3.643   4.874   2.543 -1.2333 -0.2370  0.9156
25059SOL    HW278770   3.733   4.900   2.662 -0.5164  0.3207  0.2608
25060SOL     OW78771   5.219   5.375   8.781 -0.1186  0.0461  0.1913
25060SOL    HW178772   5.297   5.420   8.748 -1.6609  1.7712 -1.3732
25060SOL    HW278773   5.189   5.322   8.707 -0.7716 -0.1168  0.5629
25061SOL     OW78774   2.746   5.281   3.243  0.3422  0.1166 -0.6510
25061SOL    HW178775   2.753   5.187   3.230  1.2287  0.2178 -0.9542
25061SOL    HW278776   2.715   5.314   3.158 -0.0215  0.0967 -0.5279
25062SOL     OW78777   6.334   4.259   2.930 -0.0755 -0.1540  0.1434
25062SOL    HW178778   6.357   4.346   2.899 -0.3847  0.3136  1.1658
25062SOL    HW278779   6.241   4.251   2.913  0.1464 -0.6928 -0.8679
25063SOL     OW78780   5.602   6.485   6.906 -0.6351 -0.1944 -0.1259
25063SOL    HW178781   5.563   6.425   6.970 -2.1051 -1.0091 -1.7087
25063SOL    HW278782   5.696   6.484   6.926 -0.8499 -1.6663  0.9678
25064SOL     OW78783   4.008   9.322   6.644  0.4073 -0.2046  0.0235
25064SOL    HW178784   3.916   9.310   6.665  0.2893  2.1350  1.0892
25064SOL    HW278785   4.035   9.401   6.692  3.0350 -0.9401 -0.0429
25065SOL     OW78786   4.802   3.418   1.937 -0.7620 -0.0630 -0.5716
25065SOL    HW178787   4.713   3.406   1.904  0.4081 -3.8557 -2.9771
25065SOL    HW278788   4.852   3.451   1.862  0.2702 -0.2381  0.0154
25066SOL     OW78789   7.296   3.512  10.792  0.7097  0.3583  0.1288
25066SOL    HW178790   7.249   3.429  10.800 -0.7403  1.1148 -0.0649
25066SOL    HW278791   7.382   3.488  10.759  0.2349 -1.0464 -0.1713
25067SOL     OW78792  10.491   0.367   9.633 -0.0336 -0.4782  0.3172
25067SOL    HW178793  10.470   0.333   9.720  1.4244 -0.2018  0.7936
25067SOL    HW278794  10.462   0.298   9.574 -1.8739 -0.2932  0.9287
25068SOL     OW78795   6.974  11.086   9.559  0.2635 -0.6704 -0.2624
25068SOL    HW178796   7.022  11.007   9.537  0.0530 -1.0541  0.6230
25068SOL    HW278797   6.928  11.065   9.641  1.1807  0.7683  0.6655
25069SOL     OW78798   3.286   1.699   9.989  0.3487  0.3069 -0.4713
25069SOL    HW178799   3.199   1.724   9.959 -0.1188 -2.0965 -1.3217
25069SOL    HW278800   3.289   1.729  10.080  0.1686  3.8466 -1.4822
25070SOL     OW78801  10.179   9.905   0.423 -0.0296 -0.3330 -0.2380
25070SOL    HW178802  10.240   9.832   0.422  3.2648  2.1977 -0.6235
25070SOL    HW278803  10.223   9.973   0.474 -1.6233  2.3754 -2.1787
25071SOL     OW78804   7.157   0.939   7.714 -0.7587  0.2187 -0.0508
25071SOL    HW178805   7.205   1.007   7.666  0.1209  0.1492  0.7210
25071SOL    HW278806   7.128   0.982   7.794  0.4653 -0.5085  0.8074
25072SOL     OW78807  10.029   7.311   9.030  0.0476 -0.5266 -0.5234
25072SOL    HW178808  10.073   7.394   9.009  0.3167 -0.8199 -1.1593
25072SOL    HW278809   9.947   7.337   9.072  0.3536  0.0494 -0.2764
25073SOL     OW78810  10.834   8.822   6.526 -0.3302 -0.1098 -0.7445
25073SOL    HW178811  10.741   8.802   6.517  0.0095 -2.4467  0.3351
25073SOL    HW278812  10.868   8.822   6.436 -1.3523  0.9229 -1.1611
25074SOL     OW78813   2.383   4.199  10.128 -0.0561 -0.4936  0.4736
25074SOL    HW178814   2.410   4.113  10.095 -2.2518 -1.1285  0.1567
25074SOL    HW278815   2.350   4.181  10.217  1.7335  0.4736  1.3868
25075SOL     OW78816   1.361   0.363   5.772 -0.1306 -0.2731 -0.1593
25075SOL    HW178817   1.289   0.399   5.825  0.9688  0.1587  1.0959
25075SOL    HW278818   1.394   0.290   5.824  0.7935 -0.0205 -0.3830
25076SOL     OW78819   3.685  10.757   9.567  0.1762  0.2678 -0.0440
25076SOL    HW178820   3.653  10.709   9.643 -0.4567 -0.6675 -0.8900
25076SOL    HW278821   3.719  10.839   9.604 -0.8844  0.2046  1.1534
25077SOL     OW78822   5.082   6.185   2.780 -0.2723 -0.1030  0.0279
25077SOL    HW178823   5.140   6.133   2.725 -0.1160  1.3448 -1.2470
25077SOL    HW278824   5.099   6.154   2.869  0.2264 -1.7894 -0.6125
25078SOL     OW78825  10.184   8.421   5.626 -0.4919  0.0126  0.1184
25078SOL    HW178826  10.272   8.442   5.657 -0.8709  1.9166  0.0352
25078SOL    HW278827  10.128   8.490   5.663 -1.6245 -0.0356 -1.4074
25079SOL     OW78828  10.685   9.794   0.377  0.2549  0.3014 -0.3707
25079SOL    HW178829  10.732   9.876   0.363 -1.4765  1.0256 -2.4392
25079SOL    HW278830  10.711   9.739   0.303  2.8414 -1.8635  1.9176
25080SOL     OW78831   9.693   6.301   0.085  0.4314 -0.0829 -0.8816
25080SOL    HW178832   9.753   6.334   0.152  0.4952 -1.8477 -0.0046
25080SOL    HW278833   9.607   6.302   0.127  0.5635 -1.7905 -0.4912
25081SOL     OW78834  11.103   0.977   3.977  0.2143  0.3055 -0.2432
25081SOL    HW178835  11.195   0.981   3.951  0.0773 -0.2411 -0.8456
25081SOL    HW278836  11.086   0.883   3.990 -0.1781  0.4287  0.1726
25082SOL     OW78837   9.859   4.393   6.911  0.2567 -0.2451  0.1598
25082SOL    HW178838   9.865   4.331   6.839  1.8246  0.7557 -0.6261
25082SOL    HW278839   9.795   4.458   6.881  1.0108  0.2458 -0.4125
25083SOL     OW78840   9.464   4.236   9.645 -0.0373 -0.2135  0.0840
25083SOL    HW178841   9.477   4.176   9.571 -2.1376 -0.7883  0.1260
25083SOL    HW278842   9.400   4.299   9.613  0.6155  0.8053  0.7443
25084SOL     OW78843   1.654   2.765  10.705  0.3452  0.3880 -0.3482
25084SOL    HW178844   1.713   2.739  10.634  1.7924  2.0951  0.1416
25084SOL    HW278845   1.693   2.846  10.739  0.5369 -1.0673  3.3305
25085SOL     OW78846   9.955  10.741   7.261 -0.4409 -0.0904 -0.1246
25085SOL    HW178847   9.913  10.703   7.338  0.7213 -0.4989  0.3146
25085SOL    HW278848  10.049  10.734   7.278 -0.1635 -0.0949 -1.5354
25086SOL     OW78849   6.326   9.094  10.909 -0.1335 -0.2569 -0.1392
25086SOL    HW178850   6.320   9.086  10.814  0.4941 -2.1935 -0.0574
25086SOL    HW278851   6.238   9.070  10.941  0.4448 -2.6024 -0.1395
25087SOL     OW78852   8.637   5.911   3.435  0.2754 -0.4479  0.1403
25087SOL    HW178853   8.548   5.903   3.401  0.0015 -2.8090  1.2135
25087SOL    HW278854   8.693   5.911   3.357 -0.5742 -0.5558 -0.4766
25088SOL     OW78855   4.341   9.492   9.379 -0.3826 -0.0729 -0.4899
25088SOL    HW178856   4.397   9.418   9.403  0.6585  1.0582  0.6905
25088SOL    HW278857   4.267   9.487   9.439  0.9253  1.2366  1.3231
25089SOL     OW78858   7.140   9.034   8.805 -0.2348  0.4236  0.7310
25089SOL    HW178859   7.141   9.069   8.894 -0.3994  1.9956  0.1323
25089SOL    HW278860   7.046   9.025   8.785 -0.2517  1.8647  0.0562
25090SOL     OW78861   3.605  10.456  10.572  0.5454  0.0971 -0.1942
25090SOL    HW178862   3.604  10.372  10.619 -2.9884 -0.7632 -1.4808
25090SOL    HW278863   3.580  10.434  10.483  0.3976  2.4624 -0.8020
25091SOL     OW78864   9.293   9.178   6.262 -0.7126  0.4802  0.2379
25091SOL    HW178865   9.367   9.201   6.206 -1.9514  2.3149 -0.7569
25091SOL    HW278866   9.234   9.254   6.257 -0.3839  1.3700  5.0148
25092SOL     OW78867   8.572   1.190   3.293 -0.2072 -0.1964  0.5130
25092SOL    HW178868   8.603   1.265   3.343  1.6535 -1.8115  1.9362
25092SOL    HW278869   8.557   1.122   3.358 -3.9493 -0.5510 -0.4616
25093SOL     OW78870   3.860   2.419   9.979  0.2728  0.3454 -0.0379
25093SOL    HW178871   3.859   2.326   9.955  0.5375  0.6780 -1.4138
25093SOL    HW278872   3.941   2.453   9.942 -0.5370  1.4470 -0.8607
25094SOL     OW78873   9.343   5.001   0.039 -0.3638  0.4891 -0.2034
25094SOL    HW178874   9.267   5.012   0.095 -0.8446 -0.9954 -0.5296
25094SOL    HW278875   9.407   4.955   0.093 -0.2246  0.4817 -0.3718
25095SOL     OW78876   0.778  10.897   5.540 -0.4418 -0.8999 -0.2029
25095SOL    HW178877   0.710  10.940   5.489  0.0600 -1.2412 -1.1772
25095SOL    HW278878   0.731  10.861   5.616 -1.0830  0.1839 -0.0638
25096SOL     OW78879  10.125   2.660   5.255 -0.7746 -0.3376  0.6601
25096SOL    HW178880  10.057   2.719   5.225  0.2667  0.8354  0.5156
25096SOL    HW278881  10.096   2.573   5.226 -1.9769  0.1846  0.2344
25097SOL     OW78882   5.762   7.055   4.628 -0.2028  0.0439 -0.1003
25097SOL    HW178883   5.695   6.987   4.633 -1.4361  1.2967  1.6818
25097SOL    HW278884   5.728   7.127   4.681  0.8875  2.2099 -2.0918
25098SOL     OW78885   4.070   6.652   5.543 -0.0299 -0.1807  0.1648
25098SOL    HW178886   4.160   6.676   5.519 -0.3714  0.2305 -0.7394
25098SOL    HW278887   4.074   6.637   5.637  0.8265  0.5629  0.2633
25099SOL     OW78888   3.473   1.368   3.299  0.1766  0.4405  0.4184
25099SOL    HW178889   3.472   1.339   3.391  0.4475 -0.2018  0.2214
25099SOL    HW278890   3.565   1.385   3.281  0.1194  0.5910  0.2672
25100SOL     OW78891  10.724   7.590   9.226 -0.0995  0.1705  0.3168
25100SOL    HW178892  10.810   7.574   9.187  0.2847  1.2860  0.6800
25100SOL    HW278893  10.715   7.522   9.292  0.2888 -0.2510 -0.0550
25101SOL     OW78894   6.061   8.198   8.684  0.1674 -0.2029  0.0633
25101SOL    HW178895   6.003   8.257   8.734  0.4910 -0.4991  0.7983
25101SOL    HW278896   6.030   8.110   8.705 -0.6626 -0.3144 -1.4578
25102SOL     OW78897   2.795   4.099   4.576  0.0885  0.1423 -0.1544
25102SOL    HW178898   2.704   4.124   4.586 -0.0238 -0.3700  0.1155
25102SOL    HW278899   2.836   4.174   4.532 -0.5799  0.1371 -0.8005
25103SOL     OW78900   1.364   8.624   9.315 -0.3189 -0.7599 -0.2892
25103SOL    HW178901   1.331   8.690   9.377 -0.3583 -0.4132 -0.6757
25103SOL    HW278902   1.454   8.607   9.345 -0.5223 -1.0001  0.1914
25104SOL     OW78903   0.442   4.362   2.854  0.8946 -0.0572  0.0888
25104SOL    HW178904   0.434   4.403   2.939  0.4274  0.0124  0.0140
25104SOL    HW278905   0.352   4.341   2.829  1.1190 -1.0653  0.0998
25105SOL     OW78906   3.041   6.355   8.328  0.6808  0.0858  0.2435
25105SOL    HW178907   3.099   6.279   8.329  3.4389  1.9886  3.1439
25105SOL    HW278908   2.981   6.341   8.401  1.2720  0.7244  0.8580
25106SOL     OW78909   3.230   2.025   1.935 -0.2606 -0.1073 -0.2384
25106SOL    HW178910   3.222   1.962   1.864  1.1093  0.3010 -0.7768
25106SOL    HW278911   3.274   1.977   2.005  0.2659  0.0772 -0.4385
25107SOL     OW78912   5.477   6.160   8.525 -0.1855 -0.7649  0.2087
25107SOL    HW178913   5.400   6.134   8.575  1.0762 -2.8457  1.2217
25107SOL    HW278914   5.536   6.198   8.591 -0.7124  1.9154 -0.7316
25108SOL     OW78915   3.788   8.236   7.368 -0.3213  0.3305 -0.3108
25108SOL    HW178916   3.872   8.237   7.323 -0.4699  0.4840 -0.5847
25108SOL    HW278917   3.745   8.317   7.340 -0.1543  0.7529  0.5964
25109SOL     OW78918   2.173   9.600   1.870 -0.1125  0.0523  0.1628
25109SOL    HW178919   2.222   9.655   1.932  0.3986  1.4889 -1.4376
25109SOL    HW278920   2.240   9.569   1.808 -0.5786 -1.5135  0.3951
25110SOL     OW78921   5.521   8.059   9.918 -0.4994  0.4726 -0.2796
25110SOL    HW178922   5.431   8.090   9.920 -0.3736  0.9176 -1.1780
25110SOL    HW278923   5.548   8.068   9.827  0.4421  0.3145 -0.0295
25111SOL     OW78924   1.640   8.771   0.833 -0.1986 -0.2145  0.2152
25111SOL    HW178925   1.700   8.817   0.774 -1.0876 -1.1275 -1.4577
25111SOL    HW278926   1.694   8.701   0.871 -0.3792 -1.7458 -2.1365
25112SOL     OW78927   5.524   4.326   7.930 -0.4447 -0.4614 -0.0078
25112SOL    HW178928   5.479   4.333   8.014 -1.8615 -0.9956 -0.6932
25112SOL    HW278929   5.481   4.391   7.874  1.9258  1.4905  0.2335
25113SOL     OW78930   6.726   9.911   0.835  0.0113  0.2436  0.5206
25113SOL    HW178931   6.696   9.961   0.911  0.5462  0.8270  0.3608
25113SOL    HW278932   6.648   9.866   0.803 -0.7880  1.9316 -0.0558
25114SOL     OW78933   1.004   9.011   2.905  0.1868 -0.2250  0.3870
25114SOL    HW178934   1.060   8.984   2.831  3.3509  0.9713  2.1298
25114SOL    HW278935   1.032   8.954   2.977 -0.7071  0.5771  1.3854
25115SOL     OW78936   1.587   7.652  10.851 -0.3141  0.1208 -0.2252
25115SOL    HW178937   1.620   7.572  10.810 -1.6063 -0.5527 -0.0195
25115SOL    HW278938   1.660   7.685  10.902  0.3827 -0.6883 -0.6727
25116SOL     OW78939   8.974   7.898   8.386  0.0061 -0.0090 -0.4194
25116SOL    HW178940   8.962   7.899   8.481 -2.5401  2.7186 -0.6139
25116SOL    HW278941   9.061   7.933   8.372 -0.1743  1.0681  0.9335
25117SOL     OW78942   4.207   1.187   1.118 -0.3478 -0.4945 -0.1196
25117SOL    HW178943   4.229   1.198   1.026  0.6291 -1.6967 -0.0541
25117SOL    HW278944   4.125   1.139   1.118 -0.8412  0.3289 -0.3500
25118SOL     OW78945   8.911   7.508   2.228 -0.2579  0.8591  0.0653
25118SOL    HW178946   8.964   7.573   2.275 -1.5082  0.9766  1.3941
25118SOL    HW278947   8.827   7.552   2.215 -0.3026  0.4101 -1.3604
25119SOL     OW78948   3.211   0.042   7.939 -0.3502 -0.0893 -0.0406
25119SOL    HW178949   3.297   0.083   7.949  0.3622 -1.3805 -0.5463
25119SOL    HW278950   3.185   0.062   7.849  0.4199 -1.4199 -0.6030
25120SOL     OW78951   3.423   3.574   7.083 -0.0379 -0.4174 -0.1881
25120SOL    HW178952   3.335   3.605   7.102  0.6504  1.2795  0.4535
25120SOL    HW278953   3.466   3.570   7.169  1.0604  0.6567 -0.6541
25121SOL     OW78954   2.332   9.957   0.141  0.3808 -0.4089  0.0152
25121SOL    HW178955   2.335   9.868   0.106 -1.2782 -0.9115  1.0262
25121SOL    HW278956   2.294  10.009   0.070  0.2092 -0.7457 -0.1451
25122SOL     OW78957   2.048   7.826   0.498  0.2850 -0.0488 -0.3499
25122SOL    HW178958   1.966   7.847   0.455 -1.7791 -1.1607  2.6670
25122SOL    HW278959   2.081   7.748   0.452 -1.8445 -1.2440  0.0313
25123SOL     OW78960   6.094   9.647   0.413 -0.2511  0.3505  0.9064
25123SOL    HW178961   6.002   9.639   0.440 -0.1062 -0.4014  1.2285
25123SOL    HW278962   6.104   9.580   0.345  0.0252  0.5254  0.7768
25124SOL     OW78963   0.334  10.184   3.983  0.5696 -0.2560 -0.1121
25124SOL    HW178964   0.258  10.220   3.937  1.0524  2.9856  1.3340
25124SOL    HW278965   0.298  10.158   4.069  1.1930  3.1911  1.3893
25125SOL     OW78966   9.487   5.226   2.964 -0.1878  0.3744  0.1145
25125SOL    HW178967   9.392   5.214   2.955 -0.1634  0.5943 -0.4495
25125SOL    HW278968   9.525   5.166   2.899  0.1431 -1.2353  1.6965
25126SOL     OW78969   4.268   7.969   0.223 -0.2261 -0.1342  0.7248
25126SOL    HW178970   4.178   8.002   0.215 -0.0543  0.1634 -0.1297
25126SOL    HW278971   4.298   7.959   0.132  1.0155  0.9242  0.9756
25127SOL     OW78972   1.558   6.097   4.824  0.3637  0.4110 -0.1331
25127SOL    HW178973   1.540   6.115   4.732 -0.5215  0.2779  0.0112
25127SOL    HW278974   1.584   6.182   4.861 -0.5200  0.7301 -0.2229
25128SOL     OW78975   5.385   1.061  10.797 -0.3898 -0.7556  0.1522
25128SOL    HW178976   5.392   0.998  10.725  2.2829 -0.6308  0.2083
25128SOL    HW278977   5.408   1.145  10.757 -0.9495 -0.3289  0.7152
25129SOL     OW78978  10.005   5.668   4.736  0.1131 -0.0642  0.3084
25129SOL    HW178979   9.927   5.709   4.775  0.8090  1.0185  0.6127
25129SOL    HW278980  10.066   5.660   4.809  1.1135  1.1969 -0.3467
25130SOL     OW78981  10.411   6.567   6.116  0.2180  0.2832 -0.7471
25130SOL    HW178982  10.499   6.538   6.141  0.1311  0.5280 -0.1238
25130SOL    HW278983  10.372   6.492   6.072  0.5830  0.0246 -0.6327
25131SOL     OW78984   3.589   2.584   9.346  0.0329 -0.4048 -0.4983
25131SOL    HW178985   3.633   2.664   9.316  0.0970  0.1586  0.9776
25131SOL    HW278986   3.526   2.615   9.412  1.3983 -1.6784  1.5444
25132SOL     OW78987   4.799   0.723   3.053  0.4060  0.0135  0.5428
25132SOL    HW178988   4.785   0.816   3.074  0.0970 -0.0707  0.7102
25132SOL    HW278989   4.817   0.723   2.959  1.7177  0.3846  0.7691
25133SOL     OW78990   6.587   9.804   7.499 -0.6836 -0.3475  0.0143
25133SOL    HW178991   6.546   9.883   7.535 -1.0732 -0.4258 -0.2572
25133SOL    HW278992   6.678   9.810   7.528 -0.2507  1.1170 -1.4848
25134SOL     OW78993  10.131   6.860   2.171  0.0750 -0.5571  0.1789
25134SOL    HW178994  10.049   6.908   2.162  0.6848  0.2895 -1.0006
25134SOL    HW278995  10.104   6.773   2.201 -1.2398 -0.2764 -0.1309
25135SOL     OW78996   5.106  11.007   6.173  0.6193  0.5158 -0.0305
25135SOL    HW178997   5.103  10.917   6.206 -0.4362  1.4134  2.5278
25135SOL    HW278998   5.084  11.062   6.248  2.6187  3.0469 -1.1248
25136SOL     OW78999   1.021   7.957   1.324 -0.3538 -0.3702  0.9592
25136SOL    HW179000   0.975   7.920   1.249  1.5559 -1.1078  0.0893
25136SOL    HW279001   0.983   8.044   1.335 -1.2124 -0.5496 -0.3653
25137SOL     OW79002  10.729   3.720   9.770  0.1521 -0.5818  0.2359
25137SOL    HW179003  10.782   3.722   9.850 -0.2412 -1.4313  0.5300
25137SOL    HW279004  10.724   3.812   9.742  0.2908 -0.2726  1.1946
25138SOL     OW79005   6.092   5.698   3.459 -0.0085 -0.5408 -0.2712
25138SOL    HW179006   6.022   5.759   3.435 -0.9640 -1.3005  0.4841
25138SOL    HW279007   6.170   5.753   3.468 -0.3350  0.2248 -1.7974
25139SOL     OW79008   0.143   6.166   6.799  0.0765  0.7359 -0.0163
25139SOL    HW179009   0.170   6.198   6.885 -2.1277  2.9594 -0.0472
25139SOL    HW279010   0.180   6.230   6.737  3.9023 -2.2040 -1.1723
25140SOL     OW79011   5.420   5.979   9.228 -0.1762  0.1343 -0.0819
25140SOL    HW179012   5.369   6.041   9.280 -0.3566 -0.0843  0.0067
25140SOL    HW279013   5.510   6.013   9.231  0.3367 -1.1365  2.4605
25141SOL     OW79014   2.222   5.401   7.999 -0.4119  0.6971 -0.1112
25141SOL    HW179015   2.243   5.414   8.092 -0.4243  2.2953 -0.3146
25141SOL    HW279016   2.293   5.345   7.967 -0.5561 -0.1165  0.9099
25142SOL     OW79017   3.172   6.671   2.302  0.9140 -0.6597 -0.2491
25142SOL    HW179018   3.169   6.596   2.244 -0.3364 -0.3110 -0.6797
25142SOL    HW279019   3.080   6.693   2.317  1.1810 -0.7307  1.8616
25143SOL     OW79020  10.268   8.134   4.714  0.2604  0.0496  0.1131
25143SOL    HW179021  10.332   8.063   4.724  0.5065  0.0543 -1.2721
25143SOL    HW279022  10.254   8.140   4.620 -0.3731  1.3109  0.2758
25144SOL     OW79023   8.187   7.603   2.859  0.4016  0.1001 -0.3603
25144SOL    HW179024   8.123   7.660   2.902  0.3953  1.8122 -2.4382
25144SOL    HW279025   8.258   7.594   2.922 -0.6733  0.4560  0.9401
25145SOL     OW79026   4.290   8.185   9.707  0.0123 -0.8312  0.4369
25145SOL    HW179027   4.203   8.177   9.746 -0.4019 -0.2971 -0.3566
25145SOL    HW279028   4.305   8.100   9.666 -0.7692 -0.4455 -0.6833
25146SOL     OW79029   4.558   0.724   7.350  0.3942 -0.1355  0.5564
25146SOL    HW179030   4.573   0.662   7.278 -1.7441 -0.9843  0.7857
25146SOL    HW279031   4.630   0.707   7.411  0.3382 -1.8107  0.2091
25147SOL     OW79032   6.449   7.819   5.223  0.3026  0.1804 -0.5860
25147SOL    HW179033   6.504   7.883   5.268 -2.3565  0.8607  1.9702
25147SOL    HW279034   6.505   7.741   5.217  1.2126  0.3243  3.2177
25148SOL     OW79035   5.503   4.280   4.163  0.0871 -0.5016  0.4454
25148SOL    HW179036   5.526   4.190   4.139  2.9327 -0.1934  1.6098
25148SOL    HW279037   5.469   4.319   4.083  0.5816 -2.0682 -0.5711
25149SOL     OW79038   1.897   3.378   3.104  0.1660 -0.6473 -0.2113
25149SOL    HW179039   1.930   3.457   3.061 -1.7049  1.2396  1.5982
25149SOL    HW279040   1.836   3.339   3.041  0.5022 -0.1914 -0.8173
25150SOL     OW79041   4.852   5.223   2.834  0.1731 -0.0309  0.1688
25150SOL    HW179042   4.944   5.200   2.825  0.6964  1.8855  0.2536
25150SOL    HW279043   4.843   5.252   2.925 -0.7989 -1.3001  0.5076
25151SOL     OW79044   3.640   9.257   6.452 -0.0870  0.0715 -0.4240
25151SOL    HW179045   3.680   9.338   6.420 -2.8013  1.5610 -0.4083
25151SOL    HW279046   3.558   9.250   6.403 -0.9816 -1.4385  1.1868
25152SOL     OW79047   4.344   0.709   6.314  0.1853  0.7990 -0.1075
25152SOL    HW179048   4.263   0.757   6.326 -0.2849  0.0498 -0.2105
25152SOL    HW279049   4.359   0.710   6.220 -0.9693 -1.0200 -0.3793
25153SOL     OW79050   0.163   6.798  10.917 -0.3109  0.3763 -0.2727
25153SOL    HW179051   0.102   6.857  10.872  0.8803  2.3746  0.5941
25153SOL    HW279052   0.173   6.836  11.005  1.9412 -0.0217 -0.2916
25154SOL     OW79053   1.281   0.790   3.037 -0.6071 -1.1537 -0.3850
25154SOL    HW179054   1.323   0.743   3.108  2.7123  0.1480 -1.3198
25154SOL    HW279055   1.284   0.882   3.064 -1.1302 -0.8361 -1.3618
25155SOL     OW79056   8.391   7.157   7.643 -0.2912  0.3562 -0.5698
25155SOL    HW179057   8.415   7.233   7.590  1.9193  0.0895 -0.0548
25155SOL    HW279058   8.392   7.189   7.733  0.7720 -0.2903 -0.3410
25156SOL     OW79059   9.049   9.296   7.981  0.6344  0.1446  0.2440
25156SOL    HW179060   8.983   9.350   7.938  0.6736 -0.5943 -0.7836
25156SOL    HW279061   9.105   9.265   7.910 -0.1185 -2.2281  0.6082
25157SOL     OW79062  10.894   2.252   9.317  0.0445 -0.2777  0.4159
25157SOL    HW179063  10.942   2.169   9.326 -1.4967 -1.2389  0.0797
25157SOL    HW279064  10.955   2.318   9.350  1.4293 -1.4942  0.4275
25158SOL     OW79065   6.448   0.665   5.784  0.2316  0.0298 -0.3449
25158SOL    HW179066   6.525   0.719   5.767 -0.8119  1.9538  0.6652
25158SOL    HW279067   6.377   0.706   5.734 -0.3664 -1.1507 -0.5256
25159SOL     OW79068   8.346   6.918   8.468  0.1653  0.5309 -0.5888
25159SOL    HW179069   8.320   7.001   8.429  1.4350  1.3756  0.3066
25159SOL    HW279070   8.304   6.917   8.554  2.1263  1.4635  0.4630
25160SOL     OW79071   8.583   7.173   3.408  0.1270 -0.3638 -0.0061
25160SOL    HW179072   8.526   7.177   3.485 -0.7805 -1.5312 -0.5905
25160SOL    HW279073   8.647   7.106   3.428 -0.2759 -0.8636 -0.3579
25161SOL     OW79074   3.865   9.175   0.471  0.2826 -0.0033  0.1033
25161SOL    HW179075   3.936   9.237   0.487  1.1450 -0.6820 -0.9484
25161SOL    HW279076   3.891   9.096   0.519  0.3291 -0.3086 -0.4166
25162SOL     OW79077   9.270   3.287   5.870  0.0278 -0.2342  0.0240
25162SOL    HW179078   9.192   3.233   5.882 -1.3807  1.3643 -1.3784
25162SOL    HW279079   9.270   3.347   5.944 -1.3503  1.1420 -1.0057
25163SOL     OW79080   9.330   9.281   0.346  0.2392  0.6857 -0.0936
25163SOL    HW179081   9.405   9.304   0.291  0.0681  0.0308 -0.6114
25163SOL    HW279082   9.270   9.356   0.338  0.1952  0.5754 -0.8455
25164SOL     OW79083  10.876   8.568   4.395 -1.1125 -0.1826  0.0139
25164SOL    HW179084  10.887   8.625   4.471 -2.0269 -0.3204  0.2643
25164SOL    HW279085  10.787   8.533   4.404 -0.5309 -1.7568 -0.0717
25165SOL     OW79086   7.122  10.746   6.265 -0.5998  0.0141 -0.5842
25165SOL    HW179087   7.183  10.759   6.338  0.7839 -1.7099 -1.3646
25165SOL    HW279088   7.046  10.799   6.288 -0.2007 -0.4347  2.1032
25166SOL     OW79089   5.802  10.793   3.667 -0.3202  0.5013  0.5725
25166SOL    HW179090   5.829  10.754   3.584 -0.9272  1.8483 -0.2936
25166SOL    HW279091   5.766  10.720   3.717  0.4101 -0.4026 -0.1788
25167SOL     OW79092   4.070  10.259   9.866  0.1631 -0.2243 -0.4864
25167SOL    HW179093   4.159  10.239   9.837  0.1124  0.5972 -1.2679
25167SOL    HW279094   4.026  10.175   9.868  0.6455 -0.5037 -1.2001
25168SOL     OW79095   2.646   1.174   4.154 -0.4579  0.0189 -0.1871
25168SOL    HW179096   2.680   1.193   4.242  1.3346 -0.9783 -0.6222
25168SOL    HW279097   2.686   1.091   4.130  0.3399  0.9818 -2.5405
25169SOL     OW79098  10.987   7.232   2.282  0.0657  0.1284  0.4226
25169SOL    HW179099  10.941   7.221   2.365 -0.5022 -1.4387 -0.0577
25169SOL    HW279100  10.917   7.239   2.217  0.4179 -2.2898 -0.3217
25170SOL     OW79101   4.815   6.266   7.702 -0.4923  0.0031  0.4292
25170SOL    HW179102   4.906   6.294   7.691 -0.5817  0.2795  0.3733
25170SOL    HW279103   4.819   6.195   7.766  0.0254 -1.5834 -1.2898
25171SOL     OW79104   7.202   1.945   1.177 -0.4597  0.3431 -0.1293
25171SOL    HW179105   7.177   1.997   1.253 -1.5250  0.8372 -0.7937
25171SOL    HW279106   7.137   1.874   1.175 -0.1688  0.0799 -0.3322
25172SOL     OW79107   8.717   2.744   3.568 -0.4096  0.2108 -0.0229
25172SOL    HW179108   8.800   2.752   3.616 -0.3212  0.6479 -0.2463
25172SOL    HW279109   8.736   2.777   3.481 -0.5639 -0.6258 -0.3815
25173SOL     OW79110   9.952   7.662   8.264  0.3966  0.2788 -0.2593
25173SOL    HW179111  10.034   7.612   8.269  0.1587 -0.1089 -0.1998
25173SOL    HW279112   9.890   7.611   8.315  0.3130  0.9776  0.3638
25174SOL     OW79113   0.517   7.651   9.655  0.3509 -0.2036  0.0764
25174SOL    HW179114   0.525   7.690   9.568  0.7434 -1.4276 -0.4650
25174SOL    HW279115   0.576   7.576   9.653 -0.6494 -1.0476  0.9337
25175SOL     OW79116   7.609   5.933   1.790  0.4759 -0.4613 -0.3993
25175SOL    HW179117   7.546   5.891   1.732  0.5928 -1.2139 -0.0003
25175SOL    HW279118   7.687   5.878   1.784  0.8968  0.1321 -0.4420
25176SOL     OW79119   1.105   0.247   8.539 -0.7377 -0.0979  0.0320
25176SOL    HW179120   1.187   0.227   8.493  0.9708  1.6293  2.0954
25176SOL    HW279121   1.065   0.317   8.487  0.7389  1.2493  0.6258
25177SOL     OW79122   1.988   5.831   9.796 -0.2512  0.3365  0.4823
25177SOL    HW179123   2.011   5.924   9.801 -2.6128  1.0235  0.1020
25177SOL    HW279124   2.005   5.797   9.884  2.0687  0.6894  0.2417
25178SOL     OW79125   1.936   8.096   5.779 -0.0661 -0.4757  0.0409
25178SOL    HW179126   1.898   8.177   5.746  1.4876 -0.3396 -1.5836
25178SOL    HW279127   1.882   8.073   5.854 -0.3814  2.2015  0.7434
25179SOL     OW79128  10.074   5.291   3.835 -0.3193 -0.1372 -0.1914
25179SOL    HW179129  10.140   5.250   3.892 -2.5987 -1.3285  1.8026
25179SOL    HW279130  10.100   5.383   3.831  0.0910  0.0053  2.8038
25180SOL     OW79131  10.049   7.575   3.340  0.6338  0.1392 -0.6728
25180SOL    HW179132  10.036   7.521   3.417 -0.1142  0.8130 -0.3161
25180SOL    HW279133  10.048   7.665   3.373 -1.1394  0.5156 -1.6266
25181SOL     OW79134   8.876   6.767  10.628 -0.7134 -0.0626 -0.6276
25181SOL    HW179135   8.908   6.852  10.598 -2.7608  0.4445 -1.5433
25181SOL    HW279136   8.807   6.788  10.691 -0.5397 -1.0908 -0.0646
25182SOL     OW79137   7.125   3.994   3.749 -0.5314 -0.0402  0.0984
25182SOL    HW179138   7.075   4.044   3.813 -0.5888  0.0240  0.0041
25182SOL    HW279139   7.137   3.908   3.789  1.8074  0.8008  1.4287
25183SOL     OW79140   1.834  11.102   3.279  0.9195 -0.2611 -0.3583
25183SOL    HW179141   1.872  11.187   3.303 -0.0957 -0.2931  1.5288
25183SOL    HW279142   1.874  11.040   3.341 -3.1436 -0.0717  2.8405
25184SOL     OW79143   5.714   8.755   5.327  0.2721  0.4306 -0.0802
25184SOL    HW179144   5.620   8.774   5.331  0.3231  1.8089 -2.8268
25184SOL    HW279145   5.744   8.764   5.417 -2.3194 -0.8091  1.0265
25185SOL     OW79146   8.097   9.955   4.354  0.1841 -0.5387  0.1439
25185SOL    HW179147   8.105   9.872   4.400 -0.2782  0.4588  2.1408
25185SOL    HW279148   8.127  10.021   4.417 -1.1375  0.9720 -0.7116
25186SOL     OW79149   1.198   7.534   7.284 -0.2527  0.2573 -0.6214
25186SOL    HW179150   1.256   7.563   7.214  0.3075  2.0614  0.5487
25186SOL    HW279151   1.116   7.582   7.269 -0.5783 -0.3315 -0.7679
25187SOL     OW79152   0.886   9.061   9.267  0.1746  0.6263 -0.1352
25187SOL    HW179153   0.831   9.085   9.193 -1.1237 -2.3692 -0.2566
25187SOL    HW279154   0.948   9.134   9.275 -0.0851  1.4011 -3.6730
25188SOL     OW79155  10.593   0.502   8.283  1.0480  0.3384  0.1531
25188SOL    HW179156  10.565   0.508   8.192 -1.1942 -0.5527  0.7303
25188SOL    HW279157  10.590   0.593   8.315  0.4392  0.4725 -0.2721
25189SOL     OW79158  10.592   1.621   2.840 -0.5063 -0.3444 -0.3514
25189SOL    HW179159  10.523   1.573   2.794 -1.7588  0.3438  0.7557
25189SOL    HW279160  10.613   1.567   2.916 -1.8076  0.6956  0.8111
25190SOL     OW79161   4.203  10.129  10.414  0.2062 -0.2202 -0.1629
25190SOL    HW179162   4.258  10.050  10.413  0.9488  0.2746  0.1054
25190SOL    HW279163   4.260  10.197  10.378  0.2438  0.5977  1.3435
25191SOL     OW79164   6.929   1.760   4.113 -0.3097  0.2270  0.6774
25191SOL    HW179165   6.885   1.760   4.029 -0.3616 -0.7842  0.6853
25191SOL    HW279166   6.900   1.678   4.155  2.4481 -1.1039  0.1916
25192SOL     OW79167   0.097   8.357   2.213  0.0457 -0.0012  0.0965
25192SOL    HW179168   0.144   8.427   2.169  1.2491 -0.2674  0.9250
25192SOL    HW279169   0.145   8.342   2.294 -0.7844 -1.0937  0.4154
25193SOL     OW79170  11.065   5.125   0.526  0.1697  0.0550 -0.5623
25193SOL    HW179171  11.050   5.217   0.546  1.0310 -0.1785  1.3781
25193SOL    HW279172  11.105   5.126   0.439  0.2501  1.5169 -0.5315
25194SOL     OW79173   9.235   2.906   4.043  0.3056  0.2329  0.6204
25194SOL    HW179174   9.149   2.891   4.083  0.5220 -1.5376  0.5240
25194SOL    HW279175   9.274   2.818   4.037  1.6298  0.8558 -0.4338
25195SOL     OW79176   2.968   3.882   0.216 -0.2079 -0.0960 -0.2959
25195SOL    HW179177   3.012   3.802   0.244  0.8375  0.5997  0.1384
25195SOL    HW279178   2.947   3.867   0.124  2.9031  0.2957 -1.1999
25196SOL     OW79179   5.772  10.764   6.037  0.8335  0.1188  0.0122
25196SOL    HW179180   5.867  10.762   6.046  0.9839  0.1678 -1.4135
25196SOL    HW279181   5.749  10.677   6.006  0.6591  0.7131 -1.6277
25197SOL     OW79182   5.899   2.611   5.980  0.2072  0.7872 -0.1769
25197SOL    HW179183   5.806   2.592   5.990  0.6000 -0.8557  0.6361
25197SOL    HW279184   5.902   2.702   5.951 -1.6764  0.6086 -1.0532
25198SOL     OW79185   8.620   3.546   4.656  0.3672  0.6674  0.0164
25198SOL    HW179186   8.665   3.493   4.722  0.5719  1.2029  0.3184
25198SOL    HW279187   8.571   3.610   4.707  0.4035  0.9905 -0.3525
25199SOL     OW79188   5.683   7.780  10.886 -0.0859 -0.2329  0.5289
25199SOL    HW179189   5.656   7.852  10.829  0.4216  1.7142  2.6070
25199SOL    HW279190   5.775   7.765  10.864 -0.0921  0.0188  0.3207
25200SOL     OW79191   4.321   8.277   5.640  0.3584  0.6149  0.3649
25200SOL    HW179192   4.382   8.349   5.655  0.5107  0.7123 -0.6670
25200SOL    HW279193   4.235   8.313   5.663  0.8399 -0.1376  3.8396
25201SOL     OW79194   1.463   0.106   2.763 -0.0062 -0.3729  0.2024
25201SOL    HW179195   1.530   0.161   2.722  0.2883 -1.3673 -0.7178
25201SOL    HW279196   1.381   0.147   2.737  0.2224  0.4754  0.7747
25202SOL     OW79197   3.214   2.116  10.610  0.3166 -0.1886 -0.0206
25202SOL    HW179198   3.259   2.100  10.693 -0.2024  1.0620  0.5130
25202SOL    HW279199   3.161   2.037  10.597 -1.0864  0.3675  1.8335
25203SOL     OW79200   3.816  10.085   1.462  0.0933  0.0772 -0.5013
25203SOL    HW179201   3.771  10.140   1.397 -0.1076  0.9541  0.3651
25203SOL    HW279202   3.745  10.043   1.511  0.0536  2.6155  1.8708
25204SOL     OW79203   5.513   1.145   8.097  0.1668  0.4327  0.0364
25204SOL    HW179204   5.483   1.067   8.049 -1.0152  0.8891 -0.0060
25204SOL    HW279205   5.571   1.189   8.036 -0.4279  0.4076 -0.5650
25205SOL     OW79206   8.700   4.448   8.315 -0.0505 -0.2629  0.7463
25205SOL    HW179207   8.622   4.406   8.277  1.4480 -2.1036 -0.4749
25205SOL    HW279208   8.708   4.531   8.269 -1.3112  0.0105  0.9665
25206SOL     OW79209  11.018   7.763   8.112 -0.5498  0.1876 -0.0300
25206SOL    HW179210  11.102   7.718   8.106 -1.2292 -1.1451  0.1270
25206SOL    HW279211  10.963   7.705   8.165 -1.7859  0.7007 -0.7147
25207SOL     OW79212   7.963   7.861   2.703 -0.5461 -0.5142  0.3746
25207SOL    HW179213   7.990   7.919   2.774  1.5689 -2.4312  1.2380
25207SOL    HW279214   8.027   7.790   2.703 -2.3058 -2.2491 -1.4199
25208SOL     OW79215   3.157   6.024   6.927 -0.1039  0.3290 -0.0583
25208SOL    HW179216   3.124   5.946   6.972 -0.5317  0.2301 -0.5455
25208SOL    HW279217   3.111   6.096   6.969 -0.1695  0.2714 -0.0306
25209SOL     OW79218  10.545   9.661   1.923  0.1040 -0.3427 -0.3023
25209SOL    HW179219  10.549   9.584   1.867  1.0133  0.2829 -1.1167
25209SOL    HW279220  10.578   9.631   2.008  0.8670 -0.7526 -0.7348
25210SOL     OW79221   8.110  10.838   1.760 -0.0310 -1.0517  0.1128
25210SOL    HW179222   8.090  10.756   1.805  0.8043 -1.9412 -1.0714
25210SOL    HW279223   8.073  10.827   1.673 -1.0145  0.3616  0.3300
25211SOL     OW79224   3.201   3.003   0.402  0.1596  0.5062 -0.1488
25211SOL    HW179225   3.129   2.976   0.459 -0.2732 -0.5111 -1.1527
25211SOL    HW279226   3.280   2.976   0.449 -0.0994  1.2058  0.7387
25212SOL     OW79227   7.609   1.121   7.689  0.1857 -0.1703  0.0656
25212SOL    HW179228   7.639   1.196   7.639  2.8208 -0.8010  0.5221
25212SOL    HW279229   7.669   1.050   7.664 -0.6804 -1.4508  1.4374
25213SOL     OW79230   7.223   5.159   3.980 -0.1946  0.2298 -0.3093
25213SOL    HW179231   7.202   5.252   3.975 -0.2710  0.1612 -1.4003
25213SOL    HW279232   7.149   5.120   4.026 -0.7558  0.5322 -0.9394
25214SOL     OW79233   0.321   7.106   8.528 -0.7702  0.6398 -0.0584
25214SOL    HW179234   0.334   7.198   8.554 -0.7367  1.1465 -1.7688
25214SOL    HW279235   0.392   7.089   8.466 -1.1575 -0.3599 -0.2339
25215SOL     OW79236   5.570   1.836  10.211 -0.5659 -0.2175  0.0697
25215SOL    HW179237   5.481   1.847  10.246 -0.1910 -1.3189  1.4719
25215SOL    HW279238   5.611   1.772  10.270  1.0312 -0.0354 -0.7924
25216SOL     OW79239   2.548  10.169   3.460  0.1644 -0.0512 -0.1381
25216SOL    HW179240   2.634  10.128   3.472 -0.2440 -1.1988 -1.0000
25216SOL    HW279241   2.500  10.146   3.540  0.4466  0.0606  0.0680
25217SOL     OW79242   1.588   1.746   9.364 -0.2598  0.1999 -0.8827
25217SOL    HW179243   1.612   1.822   9.418 -0.3069  0.2506 -0.9321
25217SOL    HW279244   1.540   1.784   9.291 -0.9840  0.0486 -0.4972
25218SOL     OW79245  10.163   5.281   5.024  0.0313  0.3810  0.6988
25218SOL    HW179246  10.118   5.290   4.940 -1.0356 -4.0198  0.5351
25218SOL    HW279247  10.251   5.251   5.001 -0.3372 -1.0639  1.0771
25219SOL     OW79248   8.837   1.167   7.443 -0.7545 -0.3501  0.7308
25219SOL    HW179249   8.743   1.162   7.457 -0.8449  1.4482  1.0168
25219SOL    HW279250   8.847   1.164   7.348 -1.2417  0.8682  0.6212
25220SOL     OW79251   6.359   0.937   1.632  0.2200 -0.1530  0.7790
25220SOL    HW179252   6.335   1.029   1.624  1.3873  0.2919  1.9987
25220SOL    HW279253   6.276   0.890   1.626 -0.4395  1.0028  0.5576
25221SOL     OW79254   7.831   9.592   4.355 -0.3939 -0.3718  0.1612
25221SOL    HW179255   7.858   9.507   4.389  1.1540 -0.1669 -0.4821
25221SOL    HW279256   7.840   9.653   4.428  0.4945 -0.3912  0.0710
25222SOL     OW79257   1.385  10.284   1.944 -0.2542  0.0902 -0.2558
25222SOL    HW179258   1.380  10.292   2.039  1.0384 -2.4639  0.1120
25222SOL    HW279259   1.406  10.192   1.928  1.4638  0.8157 -2.9285
25223SOL     OW79260   3.866   4.425   1.251  0.0132  0.5875  0.2516
25223SOL    HW179261   3.957   4.395   1.252  0.3751  1.6306  0.5270
25223SOL    HW279262   3.843   4.429   1.159 -0.0095 -0.4101  0.2084
25224SOL     OW79263   6.645   2.847   8.137  0.1496  0.3770  0.2030
25224SOL    HW179264   6.611   2.924   8.182  0.6394  1.6801 -1.5415
25224SOL    HW279265   6.591   2.840   8.058  0.7494 -0.4977 -0.1458
25225SOL     OW79266   7.773   8.282   0.122  0.0399 -0.6038  0.4355
25225SOL    HW179267   7.694   8.261   0.172  0.3043 -0.6762  0.8352
25225SOL    HW279268   7.830   8.325   0.186 -0.6045  1.6945 -0.4308
25226SOL     OW79269   0.799   1.955  10.235  0.2195  0.1035  0.3174
25226SOL    HW179270   0.759   2.037  10.264 -0.6515  0.4009 -1.5592
25226SOL    HW279271   0.768   1.944  10.145 -0.0410 -2.4992  0.6353
25227SOL     OW79272  10.046   9.321   6.580  0.7492 -0.4540  0.2277
25227SOL    HW179273  10.007   9.350   6.663 -0.4960  0.1569 -0.5319
25227SOL    HW279274  10.138   9.344   6.588  0.3049  1.3336  0.7316
25228SOL     OW79275   7.753   3.020   2.607  0.0606 -0.0162  0.3757
25228SOL    HW179276   7.820   3.035   2.541 -0.6148 -1.9107 -0.8125
25228SOL    HW279277   7.776   3.080   2.679  2.7867 -0.3247 -0.1432
25229SOL     OW79278   4.202   2.210  10.388 -0.5459 -0.8582 -0.4843
25229SOL    HW179279   4.283   2.168  10.356 -0.3188 -0.6180 -0.2304
25229SOL    HW279280   4.212   2.213  10.483 -0.9114 -0.9393 -0.4425
25230SOL     OW79281   7.964   2.480   6.203  0.2309 -0.1842 -0.1118
25230SOL    HW179282   7.987   2.417   6.135 -0.7641  0.1930 -0.8102
25230SOL    HW279283   7.870   2.468   6.216  0.7406 -2.0096  3.0028
25231SOL     OW79284   4.222   2.297   6.870  0.0500 -0.0840  0.7606
25231SOL    HW179285   4.274   2.374   6.847  0.9036 -0.4431  1.4373
25231SOL    HW279286   4.213   2.248   6.788  2.0193 -0.7429  0.8871
25232SOL     OW79287   4.866   1.383   0.486 -0.2365 -0.3298  0.3973
25232SOL    HW179288   4.842   1.344   0.570  1.5932 -0.2578  0.9949
25232SOL    HW279289   4.927   1.453   0.508 -0.7325  0.5537 -0.9172
25233SOL     OW79290   8.149   1.179   0.616 -0.3854  0.5306 -0.4494
25233SOL    HW179291   8.199   1.235   0.676  0.1420  0.1377 -0.5163
25233SOL    HW279292   8.125   1.103   0.669 -0.2685  0.3710 -0.6275
25234SOL     OW79293   3.490   6.721   8.342 -0.1341  0.7361 -0.3347
25234SOL    HW179294   3.456   6.692   8.257  1.2258 -0.9593 -0.3659
25234SOL    HW279295   3.585   6.724   8.330  0.2833 -1.5074  1.6087
25235SOL     OW79296   8.838   7.767   6.192  0.3278  0.4508  0.0905
25235SOL    HW179297   8.910   7.728   6.240  1.1062  0.6217 -0.9168
25235SOL    HW279298   8.807   7.698   6.133  1.1944  1.0781 -1.1297
25236SOL     OW79299   8.673   9.801  10.990  0.3311 -0.0256  0.2741
25236SOL    HW179300   8.715   9.838  11.068  1.5525  1.2432 -0.9267
25236SOL    HW279301   8.582   9.832  10.994  0.6932  1.0303  0.6026
25237SOL     OW79302   7.863   6.659  10.696  0.6117 -0.0535  0.0023
25237SOL    HW179303   7.921   6.603  10.644  1.1364  0.8715 -0.4482
25237SOL    HW279304   7.892   6.748  10.675 -0.7562  0.4217  0.0310
25238SOL     OW79305   4.009   5.227   5.923  0.5676 -0.0472 -0.2452
25238SOL    HW179306   3.959   5.303   5.894 -0.1980 -0.0578  0.9905
25238SOL    HW279307   3.954   5.185   5.989  1.7588 -0.6509  0.4004
25239SOL     OW79308   2.499   0.067   1.166  0.2847  0.2145  0.1487
25239SOL    HW179309   2.492  -0.028   1.159  0.5492  0.1350  0.8656
25239SOL    HW279310   2.415   0.096   1.200  0.3181  0.1945  0.2513
25240SOL     OW79311   2.979   7.019   6.262 -0.2012  0.4767 -0.3343
25240SOL    HW179312   2.885   7.023   6.278 -0.4875  0.9624 -1.9678
25240SOL    HW279313   3.018   7.014   6.349 -1.7484 -0.2118  0.3521
25241SOL     OW79314   7.706   3.353   0.526 -0.5299 -0.2852 -0.5160
25241SOL    HW179315   7.758   3.415   0.578 -0.2499 -0.2806 -0.8058
25241SOL    HW279316   7.634   3.406   0.493 -0.3175 -0.1249 -0.7232
25242SOL     OW79317   2.169   8.149   1.017 -0.2437 -0.5481 -0.7131
25242SOL    HW179318   2.180   8.214   1.086 -2.8555 -0.4017 -0.3066
25242SOL    HW279319   2.257   8.131   0.986  0.6676  2.5032 -0.2298
25243SOL     OW79320   9.533   2.051   3.518  0.1712 -0.1206 -0.3559
25243SOL    HW179321   9.474   1.983   3.552  0.2059  0.0058 -0.0374
25243SOL    HW279322   9.597   2.003   3.465  0.1463 -0.3281 -0.2011
25244SOL     OW79323   4.538   8.408   0.818 -0.2870 -0.5425 -0.2159
25244SOL    HW179324   4.495   8.481   0.772 -1.4554 -0.7646  0.4969
25244SOL    HW279325   4.625   8.443   0.841 -1.1662  0.9934  0.9658
25245SOL     OW79326   7.915   3.043   1.918  0.4307 -0.1487 -0.0542
25245SOL    HW179327   7.903   2.952   1.891  0.3325 -1.2435  3.1378
25245SOL    HW279328   7.839   3.063   1.972  2.0181  0.5844  2.0843
25246SOL     OW79329   7.078   9.809   9.076 -0.2398 -0.3793  0.4470
25246SOL    HW179330   7.111   9.892   9.112 -0.5026 -0.1105  0.0722
25246SOL    HW279331   7.157   9.759   9.055 -0.0784 -0.1991  0.6220
25247SOL     OW79332   7.691   4.741   4.178  0.0191  0.2067  0.4383
25247SOL    HW179333   7.758   4.794   4.135  0.2823 -1.1537 -0.9279
25247SOL    HW279334   7.612   4.754   4.124 -0.2260  0.0961  0.7678
25248SOL     OW79335   2.777   9.653   3.962 -0.1202 -0.4004 -1.1361
25248SOL    HW179336   2.806   9.742   3.944 -0.7883 -0.2189 -1.3197
25248SOL    HW279337   2.805   9.637   4.053  1.1116 -0.4638 -1.5126
25249SOL     OW79338   8.348  10.711   2.298  0.6943  0.1970 -0.3408
25249SOL    HW179339   8.359  10.686   2.390  0.9223  0.4130 -0.3087
25249SOL    HW279340   8.254  10.711   2.284  0.6941 -2.5199 -0.8438
25250SOL     OW79341   7.933  10.658   5.224  0.0572  0.0496 -0.0878
25250SOL    HW179342   7.966  10.569   5.237 -0.3773 -0.3514 -1.5786
25250SOL    HW279343   7.927  10.694   5.313 -1.0018 -1.8621  0.6919
25251SOL     OW79344   2.368   3.587   7.186 -0.1228 -0.1215 -0.8186
25251SOL    HW179345   2.415   3.662   7.221  0.8468 -1.4495  0.9147
25251SOL    HW279346   2.419   3.561   7.109  1.0897 -0.5358  0.0846
25252SOL     OW79347   9.837  10.426   5.181 -0.1660 -0.3309 -0.5348
25252SOL    HW179348   9.847  10.487   5.108 -2.0156  0.8790  0.1294
25252SOL    HW279349   9.915  10.371   5.179  0.7079  0.9086 -2.2560
25253SOL     OW79350   1.141   3.555   5.253 -0.5424  0.2814  0.0422
25253SOL    HW179351   1.094   3.472   5.261 -2.0938  1.0224 -0.9778
25253SOL    HW279352   1.102   3.611   5.320  0.6114  0.1803  0.8350
25254SOL     OW79353   8.098   5.998  11.091  0.1160  0.0826  0.3777
25254SOL    HW179354   8.132   6.066  11.034  1.7794 -1.2907 -0.3847
25254SOL    HW279355   8.142   6.013  11.175 -0.2823  0.5344  0.5049
25255SOL     OW79356   6.698   4.840   7.867  0.0615 -0.2546 -0.1444
25255SOL    HW179357   6.735   4.752   7.883  1.4460  0.2158 -0.5761
25255SOL    HW279358   6.766   4.900   7.899 -0.3764  0.6614 -0.9054
25256SOL     OW79359   7.674   4.002   7.596  0.2913  0.1010  0.3043
25256SOL    HW179360   7.635   4.052   7.668  0.9203 -1.5548  1.8590
25256SOL    HW279361   7.754   3.964   7.633  0.6279 -0.8112 -1.2663
25257SOL     OW79362   8.796   3.682   2.326 -0.2339 -0.2120 -0.1418
25257SOL    HW179363   8.801   3.586   2.333  0.5595 -0.2125 -0.6093
25257SOL    HW279364   8.708   3.699   2.293 -0.0819 -0.8423 -0.9107
25258SOL     OW79365   0.161   0.450   0.269 -0.0319 -0.6749 -0.3261
25258SOL    HW179366   0.157   0.355   0.268  1.7279 -0.7902 -0.0513
25258SOL    HW279367   0.107   0.478   0.196 -0.5724 -1.8854 -0.3983
25259SOL     OW79368   8.143   2.024   2.557 -0.0828 -0.3901  0.0336
25259SOL    HW179369   8.150   1.956   2.624 -0.1093 -0.7156 -0.2897
25259SOL    HW279370   8.226   2.071   2.562  0.2613 -0.9419 -0.2636
25260SOL     OW79371   0.202  11.021   8.831  0.1467  0.3608 -0.2470
25260SOL    HW179372   0.145  11.061   8.897 -1.2555 -0.8633 -0.6668
25260SOL    HW279373   0.156  11.033   8.748  0.8846  0.0425 -0.7162
25261SOL     OW79374   2.178   8.145   3.737 -0.1515 -0.6931  0.4669
25261SOL    HW179375   2.259   8.122   3.691  0.6463 -0.8126  1.8878
25261SOL    HW279376   2.185   8.239   3.752 -2.0141  0.1100 -2.6246
25262SOL     OW79377   8.622  10.995  10.328 -0.6029 -0.1622 -0.0957
25262SOL    HW179378   8.652  11.056  10.395 -1.8330  0.5643 -0.1710
25262SOL    HW279379   8.698  10.983  10.271 -0.4392  1.6231 -0.3122
25263SOL     OW79380   0.064   9.029   0.429 -0.1188  0.4360  0.0133
25263SOL    HW179381   0.089   9.001   0.341  0.3434 -0.1665  0.3263
25263SOL    HW279382  -0.025   8.997   0.440  0.2082 -0.4519  0.1566
25264SOL     OW79383   3.035   1.612   0.512  0.3187  0.1148 -0.4664
25264SOL    HW179384   3.102   1.633   0.577  0.2527 -0.7404 -0.0999
25264SOL    HW279385   3.080   1.618   0.428  1.5919 -2.7972 -0.1328
25265SOL     OW79386   5.535   5.074   8.261  0.0666  0.6288 -0.0469
25265SOL    HW179387   5.473   5.039   8.326 -0.5465  0.1273 -0.8855
25265SOL    HW279388   5.485   5.143   8.216 -0.7824 -1.3797 -2.3699
25266SOL     OW79389   3.844   6.947   0.027 -0.5247  0.0669  0.3068
25266SOL    HW179390   3.899   6.874   0.001 -1.2030 -0.7496  1.0761
25266SOL    HW279391   3.860   6.957   0.121  1.3598  2.4925 -0.1731
25267SOL     OW79392   4.509   5.640   0.866 -0.0668 -0.0910  0.1178
25267SOL    HW179393   4.413   5.632   0.866 -0.0426 -0.4367 -0.4879
25267SOL    HW279394   4.536   5.599   0.948 -0.1626 -3.8559 -1.5507
25268SOL     OW79395   0.100   8.824   1.562  0.4138 -0.0022 -0.3056
25268SOL    HW179396   0.129   8.886   1.496  1.5910 -2.9644 -2.8333
25268SOL    HW279397   0.180   8.783   1.593 -0.2011  0.6804  2.3991
25269SOL     OW79398   3.410   4.061   0.773 -0.6589  0.0662 -0.2601
25269SOL    HW179399   3.339   4.019   0.724  1.4004 -2.4367 -1.3762
25269SOL    HW279400   3.434   3.996   0.840  1.4218  0.2138 -0.8047
25270SOL     OW79401   8.443   0.404   1.261  0.2203  0.1152 -0.3616
25270SOL    HW179402   8.476   0.315   1.257  1.9865  0.6687  0.7276
25270SOL    HW279403   8.359   0.401   1.214  1.0997 -1.6914 -1.9554
25271SOL     OW79404   1.883   9.426   3.870  0.2377 -0.1976  0.3759
25271SOL    HW179405   1.871   9.478   3.950 -0.5982  0.3024 -0.0511
25271SOL    HW279406   1.932   9.349   3.898 -1.5726 -0.9384  1.7641
25272SOL     OW79407   8.598   4.716  10.169 -0.8624  0.0610  0.7088
25272SOL    HW179408   8.544   4.775  10.116 -0.7962 -0.3426  0.1906
25272SOL    HW279409   8.666   4.773  10.205  0.2300  0.0203 -1.1767
25273SOL     OW79410   4.242   4.978   8.605 -0.0136  0.3131 -0.1992
25273SOL    HW179411   4.157   5.007   8.573 -0.3516 -1.4953 -1.0571
25273SOL    HW279412   4.222   4.921   8.679  0.3807 -0.6289 -0.7939
25274SOL     OW79413   2.090   8.443   8.861  0.0079  0.1523 -0.1744
25274SOL    HW179414   2.165   8.406   8.907  0.7328  0.2683 -1.2298
25274SOL    HW279415   2.099   8.538   8.874  0.5176  0.2216 -0.9893
25275SOL     OW79416   2.800   9.018   5.597 -0.3338 -0.1095  0.0119
25275SOL    HW179417   2.712   9.013   5.634 -0.1775 -3.3854  0.2898
25275SOL    HW279418   2.786   9.032   5.503 -1.1140  0.2454  0.1799
25276SOL     OW79419   4.371   3.379   6.035 -0.2562  0.3712  0.6566
25276SOL    HW179420   4.431   3.442   6.074  0.2657  0.6549 -0.5459
25276SOL    HW279421   4.426   3.305   6.010 -0.1479  1.1029 -1.4969
25277SOL     OW79422   5.339   0.042   2.616  0.5605  0.8616  0.5618
25277SOL    HW179423   5.411  -0.002   2.661 -0.4008 -1.5697 -0.0937
25277SOL    HW279424   5.276   0.062   2.686  0.7469  0.6301  0.7997
25278SOL     OW79425   2.353   8.873   0.817 -0.6475  0.2773 -0.1399
25278SOL    HW179426   2.370   8.890   0.725 -2.1654 -1.2826 -0.7784
25278SOL    HW279427   2.413   8.801   0.840 -0.2630  0.6713  0.1005
25279SOL     OW79428   4.964   4.923   4.846 -0.1012  0.7688 -0.6517
25279SOL    HW179429   5.043   4.871   4.863 -1.8489 -2.0432 -0.4868
25279SOL    HW279430   4.996   5.012   4.835  2.8552  0.1687  1.7087
25280SOL     OW79431   1.567   7.588   7.913 -0.0157 -0.0263 -0.0048
25280SOL    HW179432   1.645   7.532   7.921 -0.7798 -1.3158 -1.0253
25280SOL    HW279433   1.558   7.630   7.998  1.7439  0.1039  0.1620
25281SOL     OW79434   0.328   8.514   0.630 -0.0955  0.0855 -0.1518
25281SOL    HW179435   0.278   8.573   0.573 -0.0512 -0.0408 -0.3250
25281SOL    HW279436   0.261   8.471   0.683 -0.0810  0.6721  0.3399
25282SOL     OW79437   3.415   8.680   3.896  0.1958 -0.2995  0.2680
25282SOL    HW179438   3.500   8.707   3.862  0.5071 -2.7947 -1.1903
25282SOL    HW279439   3.365   8.653   3.819 -1.2649 -0.6017  1.2634
25283SOL     OW79440   4.432   8.704   8.904 -0.1285 -0.3980  0.1959
25283SOL    HW179441   4.456   8.624   8.856 -0.6381 -0.5641  0.2207
25283SOL    HW279442   4.347   8.684   8.944 -0.6224  0.4292 -0.4230
25284SOL     OW79443   5.354  11.033   5.525 -0.0196 -0.0402  0.2453
25284SOL    HW179444   5.378  11.051   5.615  2.7649 -2.7116  0.1996
25284SOL    HW279445   5.370  11.115   5.478  2.7174  0.2348  1.4990
25285SOL     OW79446  10.209   2.900   0.953  0.2694 -0.2768  0.3590
25285SOL    HW179447  10.215   2.975   1.012  0.6033  0.2354 -0.3164
25285SOL    HW279448  10.179   2.937   0.870 -1.0560 -1.1153  0.4325
25286SOL     OW79449   6.545   7.819   7.060  0.7443 -0.5262 -0.1353
25286SOL    HW179450   6.623   7.764   7.050  0.9341 -0.2726 -0.0558
25286SOL    HW279451   6.580   7.905   7.084  0.4633 -0.3002 -0.5411
25287SOL     OW79452   3.836   3.615   8.474 -0.4789  0.0637 -0.2492
25287SOL    HW179453   3.790   3.699   8.482 -0.5104 -0.0300  0.6418
25287SOL    HW279454   3.893   3.627   8.398 -1.8042  0.2590 -1.2650
25288SOL     OW79455   2.374  10.667   6.754  0.0662 -0.0660  0.5276
25288SOL    HW179456   2.404  10.581   6.725 -0.5529 -0.0302 -0.2495
25288SOL    HW279457   2.431  10.688   6.828  0.3688 -1.0433  0.5915
25289SOL     OW79458   5.902   1.550   1.612 -0.5045 -0.0386  0.0442
25289SOL    HW179459   5.829   1.535   1.671  1.4177 -2.6913  1.9416
25289SOL    HW279460   5.935   1.637   1.636 -3.1170  1.3816 -1.1178
25290SOL     OW79461   7.741   8.118   2.774 -0.2542  0.9588  0.0892
25290SOL    HW179462   7.691   8.081   2.847 -2.4308  1.7764 -0.9222
25290SOL    HW279463   7.731   8.054   2.704  0.5200  0.9232  0.0071
25291SOL     OW79464   1.033   0.622   0.687  0.2860  0.7768  0.4857
25291SOL    HW179465   0.974   0.616   0.612  0.6081  0.6190  0.2431
25291SOL    HW279466   0.977   0.607   0.763 -0.3742  2.6084  0.4103
25292SOL     OW79467   3.652   6.229   8.823  0.7167  0.3970  0.3456
25292SOL    HW179468   3.596   6.239   8.900 -2.7956  1.0760 -2.0802
25292SOL    HW279469   3.649   6.313   8.779  1.5346 -0.3555 -1.2528
25293SOL     OW79470   4.375   9.500   4.148  0.2096 -0.3079  0.4373
25293SOL    HW179471   4.372   9.568   4.216  0.4502  1.0634 -0.8787
25293SOL    HW279472   4.297   9.516   4.095  0.5138 -0.7712 -0.1602
25294SOL     OW79473   7.489   0.505  10.584  0.4960 -0.5224 -0.1531
25294SOL    HW179474   7.568   0.458  10.612 -0.5329 -1.9042  0.5719
25294SOL    HW279475   7.449   0.536  10.666 -0.6834 -1.4809 -0.3382
25295SOL     OW79476   9.991   6.367   9.525  0.2769 -0.2524 -0.2031
25295SOL    HW179477   9.898   6.347   9.511  0.1889  0.4083 -0.6093
25295SOL    HW279478  10.021   6.401   9.441  0.5780  0.6895  0.2708
25296SOL     OW79479   9.507   1.609   0.175 -0.3886  0.2796 -0.0441
25296SOL    HW179480   9.530   1.666   0.101  0.7886 -0.6767 -0.4461
25296SOL    HW279481   9.439   1.552   0.140 -2.4830  2.1689  0.7214
25297SOL     OW79482   4.212   0.898   8.062 -0.6325  0.0018 -0.6675
25297SOL    HW179483   4.285   0.960   8.063 -1.1353  0.6314  0.9290
25297SOL    HW279484   4.234   0.833   8.129 -2.4206  1.4042  1.4615
25298SOL     OW79485   9.043   8.178   6.239  0.0696 -0.6440 -0.5864
25298SOL    HW179486   9.046   8.264   6.281  1.3020 -1.4051  0.9795
25298SOL    HW279487   9.106   8.183   6.168  0.4683 -0.3902 -0.2154
25299SOL     OW79488  10.048  10.242   4.821 -0.0088  0.0500 -0.2717
25299SOL    HW179489  10.097  10.181   4.766 -0.4200 -0.6352  0.1054
25299SOL    HW279490  10.115  10.297   4.861  0.3373  0.1220 -0.9439
25300SOL     OW79491  10.131   1.836   4.883 -0.8296 -0.0209 -0.2000
25300SOL    HW179492  10.128   1.815   4.976 -0.8661 -0.3065 -0.2660
25300SOL    HW279493  10.065   1.779   4.843 -0.5891 -0.1296 -0.4470
25301SOL     OW79494   9.787  10.610   4.032 -0.3495  0.0092  0.5388
25301SOL    HW179495   9.773  10.584   3.941 -1.1023  0.0188  0.6422
25301SOL    HW279496   9.772  10.705   4.032 -0.7247 -0.0486  0.7394
25302SOL     OW79497  10.183   8.484   9.617  0.5253 -0.2081 -0.0515
25302SOL    HW179498  10.105   8.454   9.570  1.3276 -0.0588 -1.5238
25302SOL    HW279499  10.256   8.457   9.562  1.5139 -0.0142  1.1252
25303SOL     OW79500   9.550   6.794   4.766 -0.0409 -0.1896 -0.2271
25303SOL    HW179501   9.584   6.707   4.786  1.1838  0.8694  2.9507
25303SOL    HW279502   9.627   6.844   4.738  0.0649  0.7742  1.6226
25304SOL     OW79503   5.432   2.848   1.024 -0.4086 -0.5543  0.1621
25304SOL    HW179504   5.359   2.836   1.085 -1.1470 -1.7019 -0.8993
25304SOL    HW279505   5.498   2.785   1.051 -0.7297 -1.0522 -0.1927
25305SOL     OW79506   8.999   9.449  10.294  0.4653  0.1669  0.2153
25305SOL    HW179507   8.913   9.482  10.271  0.2999 -0.5990 -0.2957
25305SOL    HW279508   8.989   9.353  10.296  1.1346  0.0935  0.8259
25306SOL     OW79509   1.203   1.863   8.607 -0.0667 -0.4977  0.5283
25306SOL    HW179510   1.161   1.827   8.530  2.3771  0.0131 -1.1651
25306SOL    HW279511   1.225   1.787   8.661 -1.3774 -0.8985  0.5253
25307SOL     OW79512   9.812   0.868   0.430 -0.5629  0.2132 -0.2521
25307SOL    HW179513   9.786   0.782   0.398  2.5624 -0.9491 -0.0410
25307SOL    HW279514   9.908   0.863   0.437 -0.2802  3.6327  0.0219
25308SOL     OW79515   3.244   0.801   1.416  0.0070 -0.0057 -0.0446
25308SOL    HW179516   3.166   0.746   1.428  0.8090 -1.1716 -0.0357
25308SOL    HW279517   3.253   0.848   1.499  1.1810 -2.3572  1.2457
25309SOL     OW79518   1.779   4.888   8.423 -0.4430  0.3441 -0.4509
25309SOL    HW179519   1.688   4.885   8.450 -0.0428 -0.9928  0.8606
25309SOL    HW279520   1.811   4.972   8.458 -0.8153  0.1891  0.2793
25310SOL     OW79521   1.842  10.332   3.577  0.2144  0.2771  0.2549
25310SOL    HW179522   1.847  10.378   3.661 -1.0344  2.2419 -0.6706
25310SOL    HW279523   1.846  10.239   3.600  0.8026  0.7718  2.3916
25311SOL     OW79524   7.172   4.095   7.914 -0.2737 -0.3766  0.2974
25311SOL    HW179525   7.243   4.148   7.879 -0.6496  0.1483  0.3024
25311SOL    HW279526   7.147   4.037   7.842 -0.1137 -0.2761  0.1605
25312SOL     OW79527   5.234   3.154   4.472  0.4070 -0.2610  0.1680
25312SOL    HW179528   5.217   3.129   4.381  0.1600  1.0203 -0.1607
25312SOL    HW279529   5.329   3.162   4.477  0.3254  2.1324 -0.7176
25313SOL     OW79530   5.796   2.764   5.033 -0.1318  0.3736 -0.1191
25313SOL    HW179531   5.816   2.856   5.016  1.6646  0.0255 -0.1340
25313SOL    HW279532   5.848   2.742   5.111 -2.6356  0.0389  1.5872
25314SOL     OW79533   2.801  10.701   0.623  0.5818  0.1275 -0.1246
25314SOL    HW179534   2.796  10.790   0.659  2.9367 -0.3465  1.5893
25314SOL    HW279535   2.798  10.714   0.528  0.1182  1.9494  0.0892
25315SOL     OW79536   3.901   4.173  10.395 -0.0960 -0.2833  0.0663
25315SOL    HW179537   3.892   4.230  10.319  1.1352 -0.2219 -0.0482
25315SOL    HW279538   3.995   4.164  10.408 -0.2760 -0.3377  1.5553
25316SOL     OW79539   0.637   7.393   8.166 -0.0028  0.6487  0.0584
25316SOL    HW179540   0.608   7.317   8.217 -0.8323  1.3118  0.6011
25316SOL    HW279541   0.706   7.359   8.110  1.2004 -0.0484  1.8741
25317SOL     OW79542   9.954   2.820  10.937 -0.0850 -0.0937 -0.3387
25317SOL    HW179543  10.044   2.833  10.966 -1.0020  1.8656  1.9124
25317SOL    HW279544   9.906   2.797  11.017 -2.0425  1.6686 -0.9172
25318SOL     OW79545   2.111   4.803   5.685  0.5817  1.1689 -0.1949
25318SOL    HW179546   2.106   4.806   5.781 -1.0103 -0.0499 -0.1940
25318SOL    HW279547   2.125   4.894   5.659 -0.7221  1.7945  1.1325
25319SOL     OW79548   4.478   7.977   2.337 -0.6003  0.7649 -0.3288
25319SOL    HW179549   4.548   8.040   2.324  0.9744 -0.9781 -0.8075
25319SOL    HW279550   4.491   7.944   2.426  0.5161 -0.9801 -1.0655
25320SOL     OW79551   1.652   0.615  11.111  0.0300  0.2636 -0.0743
25320SOL    HW179552   1.710   0.670  11.058 -0.6896  1.7204  0.5891
25320SOL    HW279553   1.571   0.666  11.119 -1.0820 -1.3782 -0.3338
25321SOL     OW79554   8.890   9.392   0.249 -0.1975  0.1517  0.2852
25321SOL    HW179555   8.857   9.342   0.324 -3.5273 -1.5640 -2.0614
25321SOL    HW279556   8.855   9.480   0.262 -2.5807 -0.6554 -0.1513
25322SOL     OW79557   8.284   6.384   2.084  0.1706  0.2140 -0.0699
25322SOL    HW179558   8.262   6.305   2.134 -2.4368  1.0775  0.2621
25322SOL    HW279559   8.209   6.399   2.027  1.0725  1.8771 -0.8988
25323SOL     OW79560  10.271   8.819   6.029 -0.6513 -0.4800 -0.9910
25323SOL    HW179561  10.202   8.805   5.964 -0.4365 -2.3338 -0.8829
25323SOL    HW279562  10.330   8.883   5.988 -1.7176  0.1018 -1.6406
25324SOL     OW79563  10.361   7.279   6.452 -0.7171  0.4668 -0.0690
25324SOL    HW179564  10.393   7.195   6.486 -1.4648  1.1631  2.5507
25324SOL    HW279565  10.295   7.255   6.387  0.4839 -0.9467 -0.8173
25325SOL     OW79566   3.107   8.570   6.770 -0.5452  0.4115  0.2753
25325SOL    HW179567   3.192   8.587   6.810 -0.4416  0.3580  0.0810
25325SOL    HW279568   3.128   8.541   6.681 -0.7406 -0.2642  0.4459
25326SOL     OW79569   2.056   0.264  10.006 -0.1261 -0.1543 -0.0109
25326SOL    HW179570   2.023   0.303   9.926 -0.1205 -0.3388 -0.1038
25326SOL    HW279571   1.978   0.247  10.059 -0.0136  1.8255  0.8877
25327SOL     OW79572   5.333   7.930   2.178 -0.0704 -0.1959 -0.0267
25327SOL    HW179573   5.363   7.842   2.197  2.2206  0.4501 -0.3279
25327SOL    HW279574   5.270   7.950   2.248  0.4699 -1.5264  0.8810
25328SOL     OW79575   2.947   0.198   3.713 -0.2640  0.5208 -0.0790
25328SOL    HW179576   2.897   0.259   3.767 -2.1644 -1.2322  0.2581
25328SOL    HW279577   2.931   0.227   3.623  1.4762  2.3782  0.1345
25329SOL     OW79578   8.250   4.404   6.064 -0.3665  0.0100  0.2327
25329SOL    HW179579   8.338   4.428   6.034 -0.4546  0.2312  0.1421
25329SOL    HW279580   8.192   4.456   6.008 -0.5599 -0.3104  0.1363
25330SOL     OW79581   0.690   8.645   7.318 -0.4795  0.0753 -0.6014
25330SOL    HW179582   0.679   8.740   7.311  0.4618  0.2081 -0.3583
25330SOL    HW279583   0.734   8.632   7.401  2.2457 -0.3071 -1.9888
25331SOL     OW79584   4.934   3.201   8.413 -0.3986  0.4637 -0.0181
25331SOL    HW179585   4.877   3.239   8.347 -2.6087 -0.0698  1.4880
25331SOL    HW279586   4.908   3.242   8.495  0.7595 -0.4800  0.8670
25332SOL     OW79587   2.554  10.586   0.528 -0.4748  0.6339  0.2465
25332SOL    HW179588   2.593  10.673   0.519  0.5973  0.2107  0.6390
25332SOL    HW279589   2.627  10.530   0.555 -1.7590  0.2609  3.3171
25333SOL     OW79590   0.581   2.116   9.913 -0.2902 -0.1622 -0.2432
25333SOL    HW179591   0.496   2.083   9.884 -0.5575 -0.4820  0.8624
25333SOL    HW279592   0.638   2.039   9.911 -0.1088 -0.0133 -0.6958
25334SOL     OW79593   4.287   6.259   0.436  0.3134  0.2791 -0.1050
25334SOL    HW179594   4.234   6.325   0.481 -1.5801 -1.6654  0.6960
25334SOL    HW279595   4.348   6.310   0.383  0.0047  2.6641  1.6383
25335SOL     OW79596  10.584   2.128   3.151 -0.5308 -0.5762  0.0152
25335SOL    HW179597  10.653   2.153   3.213 -1.0307  0.6464  0.1120
25335SOL    HW279598  10.506   2.115   3.205 -0.8801  0.1378 -0.2984
25336SOL     OW79599   6.681   6.793   4.607  0.2727 -0.4559  0.0369
25336SOL    HW179600   6.735   6.785   4.685  0.6602 -3.0222 -0.3808
25336SOL    HW279601   6.631   6.711   4.604 -0.9257  0.2676 -1.5533
25337SOL     OW79602   8.733   0.222   8.420 -0.3043 -0.3553 -0.2241
25337SOL    HW179603   8.827   0.237   8.406 -0.3318 -1.7574 -2.2684
25337SOL    HW279604   8.705   0.297   8.473  1.6993  0.7749 -0.6522
25338SOL     OW79605   6.705   0.906   7.201  0.0172 -0.4827  0.1681
25338SOL    HW179606   6.635   0.851   7.166  0.7925 -0.3162 -1.8068
25338SOL    HW279607   6.687   0.993   7.163  0.3567 -0.0369  1.0109
25339SOL     OW79608   2.436   7.272   6.330  0.0173 -0.3706  0.1073
25339SOL    HW179609   2.385   7.291   6.251  1.6184 -1.3334 -1.2537
25339SOL    HW279610   2.514   7.327   6.321  0.5531 -1.0297  0.6492
25340SOL     OW79611   4.351   2.785   1.853  0.1728  0.1425  0.5462
25340SOL    HW179612   4.296   2.718   1.893 -0.0197  0.4189  0.7469
25340SOL    HW279613   4.438   2.772   1.893  0.7153 -1.3966 -1.0185
25341SOL     OW79614   7.465   6.121   5.273  0.1629  0.5576  0.3043
25341SOL    HW179615   7.441   6.184   5.205 -0.6849 -0.3425 -0.2705
25341SOL    HW279616   7.402   6.135   5.343 -0.1395  0.2343  0.0989
25342SOL     OW79617   6.189   1.422   3.657  0.0980  0.2476  0.1645
25342SOL    HW179618   6.217   1.339   3.696 -1.3917 -0.7658 -0.8250
25342SOL    HW279619   6.124   1.397   3.592 -0.7609  2.2491  0.1942
25343SOL     OW79620   7.625   8.971   9.555  0.2342  0.0002  0.2031
25343SOL    HW179621   7.709   8.965   9.599  0.6101  0.4864 -0.4226
25343SOL    HW279622   7.622   9.060   9.520  1.0718 -1.0267 -2.8817
25344SOL     OW79623   4.416   1.638   9.040 -0.6110  0.5834  0.1543
25344SOL    HW179624   4.364   1.660   8.963  1.0523 -0.3207 -1.2883
25344SOL    HW279625   4.395   1.546   9.057  0.0687  0.3842 -0.0807
25345SOL     OW79626   1.352   3.626   3.275  0.3999 -0.0035 -0.0913
25345SOL    HW179627   1.447   3.629   3.286  0.4808 -0.4131 -0.5959
25345SOL    HW279628   1.328   3.713   3.244  0.5774  0.1717  0.2621
25346SOL     OW79629   9.412   9.983   2.331  0.1844 -0.4999  0.2713
25346SOL    HW179630   9.408   9.972   2.236  0.7435  0.0588  0.1771
25346SOL    HW279631   9.494  10.029   2.347 -0.2782  0.1327  0.9497
25347SOL     OW79632  10.293   4.460   2.558 -0.1338 -0.3234 -0.1779
25347SOL    HW179633  10.379   4.444   2.520 -0.6024 -0.9123 -1.0157
25347SOL    HW279634  10.286   4.555   2.563  0.3181 -0.2613 -0.6695
25348SOL     OW79635   8.365  11.044   0.874  0.0506 -0.3251 -0.2862
25348SOL    HW179636   8.275  11.076   0.880  0.2886  0.2300  0.5730
25348SOL    HW279637   8.373  11.010   0.785 -1.0122 -0.4068 -0.3670
25349SOL     OW79638   9.245   2.546   2.895  0.1625  0.4725 -0.4783
25349SOL    HW179639   9.301   2.527   2.820  1.2534  0.7638  0.2224
25349SOL    HW279640   9.177   2.479   2.892  3.2374 -3.2021  1.3342
25350SOL     OW79641  10.127   1.220   8.745  0.4951  0.8535 -0.1228
25350SOL    HW179642  10.098   1.213   8.836 -0.0251  0.1590 -0.3353
25350SOL    HW279643  10.175   1.139   8.728 -1.3477 -0.0771 -1.1315
25351SOL     OW79644   1.863   2.013   5.627  0.1203  0.5360  0.1325
25351SOL    HW179645   1.816   2.089   5.659  1.0501  1.4198 -0.5327
25351SOL    HW279646   1.845   2.011   5.533 -0.6166 -0.6038  0.2819
25352SOL     OW79647  10.699   1.468  10.727 -0.0553 -0.3127 -0.2262
25352SOL    HW179648  10.767   1.427  10.673 -0.1598  0.1873 -0.7549
25352SOL    HW279649  10.646   1.517  10.664 -0.4466 -0.0817  0.2827
25353SOL     OW79650  10.691   1.751   1.957  0.1687 -0.3161 -0.3177
25353SOL    HW179651  10.663   1.686   2.021  0.2266 -0.8849 -0.8560
25353SOL    HW279652  10.677   1.709   1.872  0.9778  0.0548 -0.6527
25354SOL     OW79653   0.637   2.955   5.879 -0.0536 -0.0637  0.2182
25354SOL    HW179654   0.677   2.951   5.966  0.3665 -2.1633 -0.0254
25354SOL    HW279655   0.710   2.944   5.818 -0.5926 -0.6304 -0.3371
25355SOL     OW79656   0.969  10.662   1.648  0.0317 -0.0733 -0.2498
25355SOL    HW179657   0.943  10.681   1.558 -1.4983  0.9497  0.3534
25355SOL    HW279658   0.887  10.642   1.693  0.5585  0.8856  1.2286
25356SOL     OW79659   7.243   8.585   3.617  0.9202  0.8434 -0.1645
25356SOL    HW179660   7.217   8.631   3.538  1.0168  1.1169 -0.0400
25356SOL    HW279661   7.338   8.598   3.623  0.8737  1.0576  0.1411
25357SOL     OW79662   9.496   7.127   0.075  0.3454 -0.0703  0.1161
25357SOL    HW179663   9.591   7.141   0.069  0.2370  0.9898  0.7207
25357SOL    HW279664   9.459   7.193   0.017 -0.0466 -0.1421  0.2867
25358SOL     OW79665   6.605   8.179   5.751 -0.5932  0.6617  0.2674
25358SOL    HW179666   6.575   8.254   5.803 -0.6796  0.8244 -0.0119
25358SOL    HW279667   6.527   8.124   5.743 -0.7983  1.0391 -0.3800
25359SOL     OW79668   9.157   2.766   4.953 -0.0735 -0.2693  0.1736
25359SOL    HW179669   9.229   2.787   5.013  1.3060  0.6946 -1.7018
25359SOL    HW279670   9.197   2.707   4.889 -1.4030 -0.9514 -0.0594
25360SOL     OW79671   2.011   6.965   9.261 -0.1395 -0.0984 -0.1233
25360SOL    HW179672   1.933   6.983   9.314 -1.6144 -1.3242 -1.7769
25360SOL    HW279673   2.001   6.874   9.234  1.0203  0.2213 -1.7641
25361SOL     OW79674   3.415  10.600   3.608 -0.1001 -0.4781 -0.3987
25361SOL    HW179675   3.320  10.595   3.621 -0.2849  2.8538  0.5751
25361SOL    HW279676   3.432  10.543   3.533 -2.9236 -0.8393 -0.8779
25362SOL     OW79677   2.643   1.528  10.109  0.1488 -0.0429  0.2875
25362SOL    HW179678   2.553   1.503  10.130  0.8194 -1.1168  2.1579
25362SOL    HW279679   2.663   1.597  10.172  0.4686  0.5520 -0.4647
25363SOL     OW79680   8.872   0.053   4.101  0.3686 -0.1049 -0.3210
25363SOL    HW179681   8.918   0.018   4.178 -0.3509 -0.9586 -0.2572
25363SOL    HW279682   8.780   0.037   4.119 -0.2968  3.7419  0.6748
25364SOL     OW79683   1.876   0.183   0.603  0.1223 -0.0148 -0.7503
25364SOL    HW179684   1.850   0.247   0.537 -0.7458  0.9099  0.4583
25364SOL    HW279685   1.924   0.234   0.668 -1.6704 -0.2944  0.8746
25365SOL     OW79686   3.060   9.150  10.472 -0.3177 -0.4190 -0.5528
25365SOL    HW179687   2.967   9.127  10.482 -0.3234 -0.2964 -0.3144
25365SOL    HW279688   3.075   9.217  10.539 -0.5117  0.9135 -1.8113
25366SOL     OW79689   6.868   4.915   4.390 -0.1176 -0.1390  0.1155
25366SOL    HW179690   6.898   5.005   4.395  0.3755 -0.1857 -1.5918
25366SOL    HW279691   6.946   4.864   4.367 -1.0151 -0.4968 -2.5168
25367SOL     OW79692   5.382   2.008   4.325 -0.3730 -0.6736 -1.1239
25367SOL    HW179693   5.400   2.055   4.407 -2.1065 -1.7739 -0.0503
25367SOL    HW279694   5.467   1.972   4.299  0.0182 -1.3770  0.9085
25368SOL     OW79695  10.101   4.483   5.777 -0.4916 -0.1193 -0.1115
25368SOL    HW179696  10.123   4.521   5.692 -0.6280  0.6289  0.1780
25368SOL    HW279697  10.143   4.541   5.841 -1.8408  0.3461  0.3827
25369SOL     OW79698  10.538   4.089   9.486  0.4317  0.4769 -0.0344
25369SOL    HW179699  10.616   4.080   9.431  0.6664  3.1405 -0.2367
25369SOL    HW279700  10.467   4.105   9.424  0.3629  1.5634  0.3106
25370SOL     OW79701   8.286  10.898  10.573 -0.1480  0.5328 -0.0729
25370SOL    HW179702   8.311  10.831  10.636 -0.2869  0.1427 -0.4297
25370SOL    HW279703   8.283  10.979  10.624 -0.1892  0.2334  0.4055
25371SOL     OW79704   2.539   8.252   5.642 -0.2325  0.1153  0.1319
25371SOL    HW179705   2.588   8.315   5.694  1.0944  1.2940 -2.3604
25371SOL    HW279706   2.595   8.234   5.567 -1.8112 -1.8716 -0.6752
25372SOL     OW79707  10.297   9.591   2.670 -0.2433  0.0853 -0.5381
25372SOL    HW179708  10.212   9.615   2.632 -0.3011 -0.1850 -0.5771
25372SOL    HW279709  10.325   9.670   2.717 -1.3160 -0.3659  0.9276
25373SOL     OW79710   6.684   1.994   9.971  0.2240 -0.1863  0.5254
25373SOL    HW179711   6.688   1.934   9.897  0.1360  1.7751 -1.1479
25373SOL    HW279712   6.753   2.057   9.954 -0.2839  0.7249  1.7343
25374SOL     OW79713   4.059   0.159   4.277  0.5536 -0.6627 -0.2328
25374SOL    HW179714   3.973   0.117   4.275  0.7702 -1.1229 -0.1250
25374SOL    HW279715   4.050   0.234   4.218 -0.1034 -0.3428  0.2597
25375SOL     OW79716  10.943   5.930   8.538 -0.5533 -0.3794 -0.0377
25375SOL    HW179717  10.925   5.884   8.456 -0.0432 -0.8983  0.1406
25375SOL    HW279718  10.957   6.021   8.512  3.7243 -1.1284 -1.1078
25376SOL     OW79719   2.865   0.578   7.015  0.3453 -0.2140 -0.2253
25376SOL    HW179720   2.804   0.608   7.082  0.2273 -1.5008  0.2553
25376SOL    HW279721   2.810   0.532   6.951  0.6037  0.0633 -0.6576
25377SOL     OW79722   2.865   4.518   9.859  0.7652 -0.2384 -0.2433
25377SOL    HW179723   2.825   4.579   9.797 -1.2721 -2.2387 -1.0626
25377SOL    HW279724   2.822   4.536   9.943 -1.3256 -1.7018 -0.9038
25378SOL     OW79725   4.707   8.069   0.072 -0.5314 -0.4256 -0.0252
25378SOL    HW179726   4.638   8.136   0.073  0.2226  0.4431 -1.9787
25378SOL    HW279727   4.724   8.051   0.165  0.2593  3.1834  0.6705
25379SOL     OW79728   7.208   0.005   0.195  0.1772 -0.4238 -0.2144
25379SOL    HW179729   7.241   0.082   0.242  0.7617 -0.7448 -0.0998
25379SOL    HW279730   7.152  -0.039   0.259 -0.7275  0.2680 -0.4980
25380SOL     OW79731   2.495   5.055   0.574 -0.2789  0.0802 -0.3293
25380SOL    HW179732   2.531   5.091   0.655 -1.2101  1.3375 -0.4518
25380SOL    HW279733   2.571   5.043   0.517  0.2606  0.0932  0.3756
25381SOL     OW79734   5.014   4.403   5.190 -0.2305  1.0441 -0.0888
25381SOL    HW179735   5.032   4.326   5.136 -0.1817  1.9667 -1.4412
25381SOL    HW279736   5.036   4.376   5.279  2.6941  0.4186 -0.9199
25382SOL     OW79737   0.875  11.091  10.678  0.1853 -0.4455 -0.3866
25382SOL    HW179738   0.807  11.079  10.613  0.7041 -1.2954 -0.7877
25382SOL    HW279739   0.839  11.155  10.739 -0.3751  0.2397 -1.4080
25383SOL     OW79740   6.239   9.984   5.971 -0.3153 -0.6686  0.0480
25383SOL    HW179741   6.313   9.997   5.911 -0.2265 -0.1238  0.2670
25383SOL    HW279742   6.278   9.995   6.058 -0.7420  0.0925  0.1496
25384SOL     OW79743   5.836   6.630   5.343  0.4721 -0.5459 -0.4446
25384SOL    HW179744   5.806   6.566   5.407  0.9080 -1.9701 -1.5993
25384SOL    HW279745   5.834   6.713   5.390 -0.6601 -1.2971  0.9406
25385SOL     OW79746   7.273   5.280   7.395 -0.3103 -0.4891  0.0205
25385SOL    HW179747   7.314   5.300   7.311 -0.3220  1.0531  0.3529
25385SOL    HW279748   7.197   5.337   7.398 -0.2971 -0.5149  1.0934
25386SOL     OW79749   9.942   9.791   0.033  0.2889 -0.6300  0.3305
25386SOL    HW179750   9.926   9.859   0.099 -1.4832 -0.8736  0.1922
25386SOL    HW279751   9.939   9.838  -0.051 -0.8937 -0.8481  0.2375
25387SOL     OW79752   2.737  10.420   4.533  0.3351  0.1996 -0.4983
25387SOL    HW179753   2.760  10.506   4.570  0.9043 -0.6669  1.2709
25387SOL    HW279754   2.748  10.431   4.439 -0.0463  2.1961 -0.3520
25388SOL     OW79755   1.915   5.660  10.926  0.0603 -0.0662  0.6894
25388SOL    HW179756   1.900   5.715  11.004 -1.6048  0.3666  0.1017
25388SOL    HW279757   1.855   5.696  10.860  1.0729 -0.7552 -0.6418
25389SOL     OW79758   8.183   7.256   5.728  0.0765  0.0471 -0.8152
25389SOL    HW179759   8.233   7.177   5.708  0.3774 -0.2000  0.7610
25389SOL    HW279760   8.246   7.327   5.722  0.8094 -0.2998  1.5070
25390SOL     OW79761   5.183  11.053   0.552  0.0476 -0.4709  0.4273
25390SOL    HW179762   5.167  10.969   0.596 -1.6813 -0.2446  0.2986
25390SOL    HW279763   5.110  11.062   0.491 -0.4141  1.6233  1.2181
25391SOL     OW79764   2.611   5.576   4.139  0.1397 -0.3840 -0.0262
25391SOL    HW179765   2.700   5.609   4.147 -0.3639  1.4727 -1.2707
25391SOL    HW279766   2.559   5.653   4.115 -1.8873 -1.3102  1.0760
25392SOL     OW79767   3.162   9.703   0.937 -0.0932  0.3204  0.2845
25392SOL    HW179768   3.156   9.632   1.001 -1.3685 -0.6138 -0.8143
25392SOL    HW279769   3.090   9.762   0.959 -0.1035  0.3615  0.1446
25393SOL     OW79770   5.313  10.942   4.435 -0.0964 -0.5295  0.3999
25393SOL    HW179771   5.406  10.960   4.421  0.0223 -1.2007  0.2967
25393SOL    HW279772   5.312  10.863   4.489 -0.6129 -1.3996 -0.8344
25394SOL     OW79773  10.575   4.837   6.166  0.3151 -0.5361  0.2021
25394SOL    HW179774  10.555   4.822   6.258  2.8254 -0.4160  0.8437
25394SOL    HW279775  10.562   4.752   6.124 -1.7665 -0.3815  0.4050
25395SOL     OW79776   5.307   3.274   9.915  0.3603 -0.0638 -0.8524
25395SOL    HW179777   5.295   3.249   9.823 -0.7534  1.6061 -1.2147
25395SOL    HW279778   5.226   3.320   9.937  0.6543 -0.3756  0.9538
25396SOL     OW79779   9.824   6.118   4.745  0.0300  0.5683 -0.2475
25396SOL    HW179780   9.901   6.089   4.696 -0.2120  1.0629 -0.9336
25396SOL    HW279781   9.854   6.195   4.794  0.5840 -0.6012  1.3199
25397SOL     OW79782   1.281   1.528   5.904  0.0302 -0.2158  0.0690
25397SOL    HW179783   1.192   1.558   5.923  0.5107  0.8446  0.7481
25397SOL    HW279784   1.314   1.496   5.988  0.5158  0.0361 -0.0196
25398SOL     OW79785   6.594   5.177  10.334  0.4981  0.0318  0.1345
25398SOL    HW179786   6.613   5.084  10.322  0.7787  0.0057  0.7809
25398SOL    HW279787   6.680   5.217  10.350  0.0574 -0.1190  3.3527
25399SOL     OW79788   1.117   4.494  10.421  0.2593 -0.3695 -0.1734
25399SOL    HW179789   1.104   4.578  10.377 -0.7435 -0.3338  0.1663
25399SOL    HW279790   1.180   4.513  10.491  0.4066 -0.0103 -0.4039
25400SOL     OW79791   9.930   8.309   4.570  0.0355  0.5617 -0.2562
25400SOL    HW179792   9.870   8.382   4.559  0.6037  0.9971 -0.5395
25400SOL    HW279793   9.879   8.242   4.615 -1.1049  0.3742 -1.7302
25401SOL     OW79794   1.829   5.779   8.366  0.2851  0.1140  0.2167
25401SOL    HW179795   1.750   5.774   8.313  0.4501 -1.0317  0.0529
25401SOL    HW279796   1.901   5.777   8.304  0.4661  0.0555  0.4256
25402SOL     OW79797   4.186   5.981   9.622 -0.1826 -0.3612  0.4294
25402SOL    HW179798   4.259   6.028   9.662 -1.0225  1.0228  0.4296
25402SOL    HW279799   4.177   6.021   9.536  0.0863 -1.6608 -0.2203
25403SOL     OW79800   1.313   2.290   0.776  0.2259  0.5853  0.2192
25403SOL    HW179801   1.325   2.384   0.785 -2.6878  0.9671  1.1151
25403SOL    HW279802   1.317   2.257   0.866  0.7994 -0.1080 -0.0470
25404SOL     OW79803   8.347   8.158   4.877 -0.5049 -0.3411  0.1437
25404SOL    HW179804   8.432   8.203   4.883 -1.0256  0.8403 -0.9544
25404SOL    HW279805   8.366   8.079   4.825  0.0139 -0.3420  0.3242
25405SOL     OW79806   9.918   7.172   5.197 -0.0981 -0.0070  0.6870
25405SOL    HW179807   9.826   7.195   5.204 -0.1954 -0.3078  0.4274
25405SOL    HW279808   9.965   7.249   5.231 -0.4469  0.0525  1.0386
25406SOL     OW79809   4.601   7.408   4.179  0.3834  0.2654  0.5468
25406SOL    HW179810   4.612   7.474   4.111  0.7368  1.0960  1.4011
25406SOL    HW279811   4.649   7.332   4.145  2.0325  1.2212  0.6162
25407SOL     OW79812   7.407   4.577   2.457  0.4165  0.2623  0.1483
25407SOL    HW179813   7.375   4.663   2.431  1.4085  0.8021  0.6210
25407SOL    HW279814   7.357   4.515   2.404  1.1248  1.2181 -1.7314
25408SOL     OW79815   1.066   8.497   2.006  0.2889  0.5726  0.2538
25408SOL    HW179816   1.035   8.587   1.995 -0.6841  0.4015  1.4438
25408SOL    HW279817   1.158   8.499   1.977 -0.3069  1.4613 -1.7539
25409SOL     OW79818  10.612   8.499   5.573 -0.7143  0.3178  0.6702
25409SOL    HW179819  10.692   8.502   5.625 -1.2075  0.7469  1.4308
25409SOL    HW279820  10.546   8.462   5.633 -1.5835  1.9371  0.7655
25410SOL     OW79821   4.505   3.134   0.577  0.2852  0.1221  0.5882
25410SOL    HW179822   4.434   3.076   0.602  1.0104 -0.3866  1.4944
25410SOL    HW279823   4.462   3.205   0.529 -0.6170 -1.1175 -0.5096
25411SOL     OW79824   4.236   0.611   4.038  0.1911  0.6811 -0.6002
25411SOL    HW179825   4.208   0.549   3.971  0.5347  0.2718 -0.3695
25411SOL    HW279826   4.172   0.600   4.108  0.7587 -0.0696 -0.1812
25412SOL     OW79827   2.760   1.510  11.015  0.2503  0.0767 -0.3008
25412SOL    HW179828   2.832   1.450  10.996  0.8260 -0.0022  1.9369
25412SOL    HW279829   2.722   1.529  10.929  1.2349 -1.9908 -1.2607
25413SOL     OW79830   7.250   6.856   1.330 -0.1010  0.4692 -0.2789
25413SOL    HW179831   7.187   6.837   1.400  2.0676  3.7716  2.9319
25413SOL    HW279832   7.304   6.776   1.325 -1.3383 -0.4649  0.5805
25414SOL     OW79833   3.453   7.158   1.148 -0.1437  0.2427 -0.1580
25414SOL    HW179834   3.508   7.190   1.076 -0.6462  0.6206 -0.3728
25414SOL    HW279835   3.380   7.220   1.153  0.1908  0.5850  1.0713
25415SOL     OW79836   4.846   6.584   8.461  0.2648 -0.1782  0.0512
25415SOL    HW179837   4.846   6.569   8.366  1.5568 -3.1887  0.4183
25415SOL    HW279838   4.763   6.549   8.491 -0.2596  1.0180  0.0324
25416SOL     OW79839   6.171   5.517   1.285 -0.1128  0.2794  0.1880
25416SOL    HW179840   6.099   5.490   1.229  0.7738 -0.0870 -0.8236
25416SOL    HW279841   6.209   5.435   1.316  0.3154  0.4454  0.1130
25417SOL     OW79842   8.611   7.754   1.581  0.4319 -0.5229 -0.7553
25417SOL    HW179843   8.547   7.710   1.525 -0.4598  1.1343 -1.1131
25417SOL    HW279844   8.558   7.811   1.637  1.4187 -1.0680  0.7945
25418SOL     OW79845   9.912   2.863   7.544  0.5071  0.1187 -0.3333
25418SOL    HW179846   9.854   2.903   7.609  0.5275  3.2014 -2.0196
25418SOL    HW279847   9.986   2.830   7.595  0.4061  2.1739  1.2699
25419SOL     OW79848   4.405   6.131   9.693 -0.1307  0.2499  0.6312
25419SOL    HW179849   4.401   6.211   9.641 -2.3647 -0.2795 -0.1492
25419SOL    HW279850   4.468   6.150   9.762  2.6793  1.1445 -1.9466
25420SOL     OW79851   0.089   3.250   1.082  0.0126 -0.3533  0.0198
25420SOL    HW179852   0.126   3.162   1.073  1.0449 -0.1512  1.7255
25420SOL    HW279853   0.133   3.302   1.016 -0.0328 -0.9452 -0.4848
25421SOL     OW79854  10.939  10.323   2.317 -0.5856  0.1843 -0.0086
25421SOL    HW179855  11.008  10.347   2.255 -0.9535 -0.7258 -0.7886
25421SOL    HW279856  10.974  10.248   2.364 -0.9901 -0.2050 -0.3228
25422SOL     OW79857   6.473   3.294   3.890 -0.0184 -0.0911 -0.0787
25422SOL    HW179858   6.548   3.250   3.852 -0.2512 -0.9099  0.3773
25422SOL    HW279859   6.425   3.225   3.936 -0.0883  0.7332  1.1526
25423SOL     OW79860   8.043   6.614   7.516  0.0583 -0.1541  0.0858
25423SOL    HW179861   8.012   6.526   7.538  0.3762  0.3033  2.6696
25423SOL    HW279862   8.033   6.664   7.597 -1.2951  2.5781 -1.6308
25424SOL     OW79863   0.239   8.850   7.815  0.5974 -0.3315  0.2638
25424SOL    HW179864   0.333   8.839   7.800  0.4066 -0.7600 -0.6579
25424SOL    HW279865   0.202   8.866   7.729 -0.1430  0.1753  0.6611
25425SOL     OW79866   1.140   2.419   3.848 -0.0488 -0.1721 -0.0697
25425SOL    HW179867   1.234   2.429   3.857 -0.1580  1.1614 -0.2402
25425SOL    HW279868   1.103   2.481   3.911 -0.8241 -1.6953  1.0223
25426SOL     OW79869   8.494   6.017   8.595  0.1413 -0.0852  0.2708
25426SOL    HW179870   8.573   6.069   8.612  1.0406 -0.6476 -1.9403
25426SOL    HW279871   8.499   5.945   8.657  0.0248  1.2086  1.8611
25427SOL     OW79872  10.294   9.192   8.982  0.1066 -0.2449  1.1101
25427SOL    HW179873  10.346   9.252   8.929 -0.4072 -1.5599 -1.0580
25427SOL    HW279874  10.337   9.190   9.067  2.0714  0.6601  0.1933
25428SOL     OW79875  10.185   5.703   7.792  0.1050  0.2134 -1.0152
25428SOL    HW179876  10.172   5.737   7.880 -0.0259  0.4880 -1.1369
25428SOL    HW279877  10.266   5.744   7.762 -0.4977  1.1148 -1.4823
25429SOL     OW79878   2.539  10.802   7.695 -0.1137  0.4220  0.1069
25429SOL    HW179879   2.509  10.847   7.774  2.8088  2.0660  0.4463
25429SOL    HW279880   2.553  10.712   7.723  1.5736  1.1164  1.7883
25430SOL     OW79881   8.817  10.303   1.036 -0.1671  0.1834  0.2723
25430SOL    HW179882   8.831  10.231   0.975 -1.1177 -0.2138  0.5051
25430SOL    HW279883   8.902  10.315   1.078  0.0715 -0.6470  0.0581
25431SOL     OW79884  11.040   6.610   6.811  0.0644 -0.6114  0.4206
25431SOL    HW179885  10.986   6.531   6.815 -0.6655 -0.0787  1.6838
25431SOL    HW279886  11.104   6.600   6.882 -0.4927  0.2206  1.0736
25432SOL     OW79887   8.090   2.257  10.730 -0.0958  0.0063  0.4805
25432SOL    HW179888   8.166   2.226  10.680  0.0877 -1.0347  1.3534
25432SOL    HW279889   8.100   2.352  10.733 -0.9421  0.3324 -2.7462
25433SOL     OW79890   7.191   4.562   7.451  0.2519 -0.3648  0.0293
25433SOL    HW179891   7.142   4.513   7.516  0.3911  0.0720  0.4682
25433SOL    HW279892   7.200   4.501   7.377 -0.5093 -0.6173  0.1371
25434SOL     OW79893   7.154   2.395   6.149  0.3597 -0.5965 -0.4159
25434SOL    HW179894   7.131   2.488   6.138  2.2792 -0.0414 -0.1244
25434SOL    HW279895   7.163   2.363   6.059 -0.6789 -0.6319 -0.5259
25435SOL     OW79896   5.175   7.225   9.371  0.0318  0.0852  0.1534
25435SOL    HW179897   5.210   7.186   9.451  0.2615 -0.3373 -0.1493
25435SOL    HW279898   5.202   7.317   9.375 -1.2218  0.4333  1.2719
25436SOL     OW79899   6.463   1.487   3.757 -0.2628 -1.0373  0.1621
25436SOL    HW179900   6.527   1.420   3.782  0.2885 -0.2571  0.9263
25436SOL    HW279901   6.391   1.476   3.818  0.6018  0.1592  1.4779
25437SOL     OW79902   5.398  10.240   5.498 -0.2678 -0.4439 -0.3332
25437SOL    HW179903   5.366  10.274   5.581 -1.2595  2.4186 -1.7516
25437SOL    HW279904   5.336  10.171   5.475 -1.2752  0.2220  0.2939
25438SOL     OW79905   8.713   1.069   4.689  0.4042  0.4026 -0.0001
25438SOL    HW179906   8.792   1.020   4.708 -1.0541 -1.1527  2.5572
25438SOL    HW279907   8.685   1.104   4.773 -1.6925  0.7886 -0.7875
25439SOL     OW79908   7.807   5.078  10.520 -0.1872 -0.0562 -0.9459
25439SOL    HW179909   7.794   5.154  10.463 -2.4369 -0.1087 -0.5915
25439SOL    HW279910   7.865   5.110  10.590  0.6468  0.6871 -1.9427
25440SOL     OW79911   3.008   5.662  10.646 -0.3079  0.6806 -0.4208
25440SOL    HW179912   3.066   5.628  10.577 -0.7464 -1.3739  0.1367
25440SOL    HW279913   3.066   5.707  10.707  0.9966 -2.2199  0.6781
25441SOL     OW79914   7.986   6.413   6.281  0.3090  0.4026  0.3406
25441SOL    HW179915   7.938   6.494   6.301 -1.9913 -0.5519 -0.9513
25441SOL    HW279916   8.010   6.422   6.188 -2.0727 -1.2984 -0.5308
25442SOL     OW79917   7.533   8.079   1.529  0.3642 -0.2999  0.1540
25442SOL    HW179918   7.611   8.133   1.541 -0.0848  0.3938  0.0590
25442SOL    HW279919   7.489   8.081   1.614  1.7347 -2.8335  1.0148
25443SOL     OW79920   7.583   7.797   2.019  0.3111  0.0179 -0.2946
25443SOL    HW179921   7.497   7.833   1.995 -0.2206 -0.9786  0.0684
25443SOL    HW279922   7.567   7.704   2.031  1.7458 -0.4370 -1.6090
25444SOL     OW79923   2.123   4.147   7.177 -0.3278 -0.1555  0.1503
25444SOL    HW179924   2.146   4.232   7.215  0.7365 -0.1966 -0.3547
25444SOL    HW279925   2.034   4.158   7.146 -0.9197  0.1449  1.8625
25445SOL     OW79926   2.687   3.376   4.585 -0.3056  0.5765 -0.6238
25445SOL    HW179927   2.708   3.407   4.497 -1.0756  1.3207 -0.5528
25445SOL    HW279928   2.601   3.414   4.605 -0.6461 -0.4847  0.0159
25446SOL     OW79929   5.590   0.574  10.255 -0.0843  0.6322  0.0493
25446SOL    HW179930   5.662   0.582  10.192 -0.8312  0.7630 -0.8148
25446SOL    HW279931   5.625   0.519  10.325  0.0195 -1.5633 -1.6427
25447SOL     OW79932  10.816   8.876   2.932 -0.3787  0.3738 -0.2475
25447SOL    HW179933  10.859   8.946   2.981  0.2218  1.4229 -2.1753
25447SOL    HW279934  10.884   8.809   2.921 -0.1499  0.6839 -0.7089
25448SOL     OW79935   7.579   8.043   3.503 -0.4805 -0.6979 -0.3928
25448SOL    HW179936   7.549   8.134   3.514  0.7512 -0.1090 -1.6426
25448SOL    HW279937   7.527   7.993   3.566  0.3011  1.1884  1.9030
25449SOL     OW79938   5.213   9.892   4.617 -0.7293  0.2222 -0.0784
25449SOL    HW179939   5.143   9.832   4.643 -0.9334  0.3713 -0.2805
25449SOL    HW279940   5.236   9.938   4.698  0.3183 -1.0254  0.3585
25450SOL     OW79941   2.719  10.670   5.177  0.1500  0.0584  0.2168
25450SOL    HW179942   2.645  10.665   5.117 -0.1673  0.3754  0.5694
25450SOL    HW279943   2.757  10.757   5.161  0.2191  0.0428  0.2961
25451SOL     OW79944   9.907  10.912   1.921  0.1764 -0.2982 -0.1042
25451SOL    HW179945   9.852  10.975   1.875 -1.0575 -1.5531 -0.4058
25451SOL    HW279946   9.922  10.952   2.007 -0.9172  0.2339 -0.1390
25452SOL     OW79947  11.107  10.617   4.929 -0.1214 -0.6808  0.0134
25452SOL    HW179948  11.104  10.524   4.908 -0.0833 -0.2121 -2.2759
25452SOL    HW279949  11.016  10.639   4.952 -0.2905 -1.1234 -0.2161
25453SOL     OW79950  10.766   5.717  11.054  0.3917 -0.0715 -0.6836
25453SOL    HW179951  10.711   5.651  11.011  0.1628  0.7639 -1.7059
25453SOL    HW279952  10.803   5.672  11.130  1.1782 -1.7276 -1.9992
25454SOL     OW79953   2.046   1.851   8.250  0.7419 -0.0758  0.2982
25454SOL    HW179954   2.102   1.896   8.186  0.8564 -0.3571  0.2000
25454SOL    HW279955   2.085   1.765   8.259  1.0260  0.1364  1.1474
25455SOL     OW79956   5.043   2.966   2.542  0.0774  0.2449  0.8327
25455SOL    HW179957   5.091   3.044   2.571 -0.1826  0.7545 -0.0711
25455SOL    HW279958   5.006   2.929   2.622  1.4416  0.1998  1.4679
25456SOL     OW79959   4.037   6.152   0.590  0.6269  0.0173 -0.0772
25456SOL    HW179960   3.988   6.134   0.509  0.2220  2.3013 -0.4275
25456SOL    HW279961   4.129   6.153   0.563  0.4364  1.9119 -0.8446
25457SOL     OW79962   6.085   6.331   8.910 -0.2843 -0.2612 -0.0826
25457SOL    HW179963   6.145   6.291   8.973 -0.0202 -2.9389 -1.9025
25457SOL    HW279964   6.004   6.344   8.959  0.0085 -1.9576  0.9222
25458SOL     OW79965   4.285   1.843   8.714 -0.6886  0.2458 -0.0380
25458SOL    HW179966   4.201   1.866   8.673 -0.6538 -0.4145 -0.5030
25458SOL    HW279967   4.351   1.872   8.652 -0.6395 -0.8955 -0.5589
25459SOL     OW79968   9.756   3.104   1.435 -0.0046 -0.7269 -0.0616
25459SOL    HW179969   9.844   3.067   1.427  0.7105  0.6086  1.2119
25459SOL    HW279970   9.705   3.034   1.477  0.8271 -0.9842  0.5522
25460SOL     OW79971   5.486   7.432   2.855 -0.2680  0.5632  0.4553
25460SOL    HW179972   5.482   7.448   2.761  0.5873  0.9805  0.4808
25460SOL    HW279973   5.490   7.336   2.863  2.8914  0.5382 -0.1249
25461SOL     OW79974   9.338   9.919   0.842  0.0154  0.0963  0.2567
25461SOL    HW179975   9.328  10.015   0.845  0.9951  0.4077 -2.6778
25461SOL    HW279976   9.406   9.905   0.776 -1.7283 -2.6843 -1.1038
25462SOL     OW79977   1.025   8.424  10.064  0.0645 -0.0053  0.4023
25462SOL    HW179978   1.027   8.335  10.100  1.4785  0.2044  0.9076
25462SOL    HW279979   1.029   8.411   9.970 -0.4342 -0.4985  0.4434
25463SOL     OW79980  10.870   4.279   4.074  0.0375  0.0892 -0.4271
25463SOL    HW179981  10.898   4.333   4.000  0.5451 -0.9335 -1.0081
25463SOL    HW279982  10.871   4.339   4.149 -0.2599  1.0859 -1.1986
25464SOL     OW79983   3.599   7.669   5.368 -0.4734 -0.1892 -0.2822
25464SOL    HW179984   3.650   7.704   5.441 -1.2712  1.0709 -0.3004
25464SOL    HW279985   3.644   7.588   5.344  1.3776  0.7278 -0.1120
25465SOL     OW79986   8.945   4.095  10.490  0.3029  0.2851  0.1674
25465SOL    HW179987   8.968   4.138  10.573  1.1786 -1.1211  0.6914
25465SOL    HW279988   9.019   4.037  10.472 -0.2702 -0.0641 -1.1646
25466SOL     OW79989   5.324   6.208   8.220  1.1399 -0.2150 -0.5490
25466SOL    HW179990   5.398   6.154   8.244  1.7850  0.8097 -0.1674
25466SOL    HW279991   5.255   6.185   8.282  1.4863 -0.4306 -0.2448
25467SOL     OW79992   3.736   5.870   5.046  0.4175  0.4096  0.3723
25467SOL    HW179993   3.696   5.832   5.125 -0.4624 -0.7836 -0.6174
25467SOL    HW279994   3.702   5.960   5.043  1.1111  0.7535  1.7781
25468SOL     OW79995   2.086   8.551   2.226 -0.1301 -0.7311 -0.7958
25468SOL    HW179996   1.996   8.527   2.206 -0.1102 -1.4351 -0.0846
25468SOL    HW279997   2.138   8.506   2.160 -0.2457 -0.9024 -0.7700
25469SOL     OW79998   9.683  10.672   1.705 -0.0938 -0.5819  0.3355
25469SOL    HW179999   9.642  10.720   1.634  0.6586  0.5921  0.6614
25469SOL    HW280000   9.777  10.684   1.691  0.2287 -3.4157 -0.5440
25470SOL     OW80001   0.738   8.001   3.152 -0.5499  0.4863 -0.2388
25470SOL    HW180002   0.695   8.010   3.237  1.9444 -0.8566  1.3279
25470SOL    HW280003   0.748   7.906   3.141  1.7387  0.7063 -0.5443
25471SOL     OW80004   1.844   1.531   9.952  0.9259 -0.3720 -0.1149
25471SOL    HW180005   1.776   1.570  10.007  1.1784 -1.8758  1.3552
25471SOL    HW280006   1.907   1.602   9.939 -0.4301  0.7721 -0.7181
25472SOL     OW80007   7.799   4.359   5.439  0.1253 -0.5700  0.7019
25472SOL    HW180008   7.708   4.349   5.413 -0.7367  1.3774  2.6642
25472SOL    HW280009   7.830   4.435   5.390  0.7160 -1.1731  0.1071
25473SOL     OW80010   9.525   8.306   6.878 -0.1327 -0.3712  0.1873
25473SOL    HW180011   9.527   8.382   6.937 -1.7577 -0.8024  0.8368
25473SOL    HW280012   9.591   8.247   6.914  0.7672  0.4838 -0.0110
25474SOL     OW80013   4.932   8.033   0.937 -0.0344 -0.0606 -0.5781
25474SOL    HW180014   4.948   8.116   0.982 -0.6779 -0.5095  0.5205
25474SOL    HW280015   4.874   8.056   0.864 -1.3448  0.2709  0.5391
25475SOL     OW80016   6.097   0.262   7.561 -0.4395 -0.3371  0.9202
25475SOL    HW180017   6.186   0.227   7.562  0.0679  0.7326 -1.2742
25475SOL    HW280018   6.090   0.314   7.641  1.0600 -0.0836  0.9070
25476SOL     OW80019   6.365  10.831   3.010 -0.1713 -0.5513  0.1575
25476SOL    HW180020   6.308  10.904   2.986  0.5409  0.7236  2.1412
25476SOL    HW280021   6.322  10.792   3.086  0.8409 -0.4720  0.7822
25477SOL     OW80022   7.113   8.690   7.833 -0.1395  0.2935 -0.2352
25477SOL    HW180023   7.112   8.691   7.738  1.4864  0.6607 -0.2639
25477SOL    HW280024   7.110   8.597   7.856 -0.4956  0.2020 -0.6310
25478SOL     OW80025  10.953   3.307   1.169  0.5239  0.3534  0.4021
25478SOL    HW180026  10.975   3.395   1.201  1.4834  0.0985  0.4908
25478SOL    HW280027  11.035   3.275   1.131 -0.2160  0.0797 -1.0014
25479SOL     OW80028   8.542   0.945   9.874 -0.4124  0.2537 -0.5012
25479SOL    HW180029   8.611   0.919   9.936  0.2240  1.4011 -0.7016
25479SOL    HW280030   8.589   0.984   9.801 -1.2877  1.2473 -0.5572
25480SOL     OW80031  10.092   0.731   4.137 -0.4283  0.6149 -0.0235
25480SOL    HW180032  10.106   0.636   4.128  0.3409  0.6496  0.7053
25480SOL    HW280033  10.088   0.746   4.231 -0.0950  1.3677 -0.1222
25481SOL     OW80034  10.963  10.308   2.779  0.4820  0.2201 -0.2567
25481SOL    HW180035  11.026  10.373   2.810 -1.5432  1.7517  0.8907
25481SOL    HW280036  10.975  10.233   2.838  1.7082  0.1729 -0.5398
25482SOL     OW80037   6.292   1.649   7.766  0.3051  0.1409 -0.7425
25482SOL    HW180038   6.214   1.608   7.729  0.0410  1.1683 -1.3619
25482SOL    HW280039   6.261   1.693   7.844  0.8108 -1.7840  0.6286
25483SOL     OW80040  10.758   4.420  10.018  0.7646  0.3905 -0.0989
25483SOL    HW180041  10.684   4.481  10.016  1.8146  1.6952 -1.2609
25483SOL    HW280042  10.815   4.455  10.087  0.2022 -0.7673  0.9839
25484SOL     OW80043   6.784   4.367   7.282  0.1434 -0.0199 -0.2199
25484SOL    HW180044   6.861   4.373   7.339  1.1823  1.3518 -1.7087
25484SOL    HW280045   6.779   4.452   7.238 -1.5508 -0.4950 -1.0360
25485SOL     OW80046   2.055   1.534   5.037  0.3490  0.1847 -0.1923
25485SOL    HW180047   1.966   1.552   5.067 -0.4501 -1.4999 -1.3850
25485SOL    HW280048   2.086   1.466   5.097  1.1776  1.3362  0.7278
25486SOL     OW80049   5.457   5.639   7.843  0.0618  0.3858  0.0700
25486SOL    HW180050   5.465   5.720   7.792 -0.0732  0.2826 -0.1179
25486SOL    HW280051   5.367   5.639   7.875 -0.5430 -0.5807 -1.4757
25487SOL     OW80052   5.510   8.144   1.470 -0.2701 -0.1994 -0.0356
25487SOL    HW180053   5.459   8.118   1.547  1.1703 -1.5383  0.5205
25487SOL    HW280054   5.453   8.123   1.396 -1.4854  0.6431  0.6271
25488SOL     OW80055   3.451   5.831   8.231  0.0061 -0.1345  0.6317
25488SOL    HW180056   3.542   5.858   8.227  0.7335 -2.4775 -0.0765
25488SOL    HW280057   3.443   5.787   8.315 -0.9428  1.3859  1.3975
25489SOL     OW80058   6.813   9.028  10.504 -0.0489 -0.4084  0.1142
25489SOL    HW180059   6.734   9.060  10.550 -0.1104 -0.6855  0.2006
25489SOL    HW280060   6.818   9.083  10.426  0.4884  0.6057  0.8270
25490SOL     OW80061   5.890   8.068   0.459 -0.1247 -0.4327 -0.2541
25490SOL    HW180062   5.983   8.062   0.482 -0.5949 -2.0371  1.4991
25490SOL    HW280063   5.865   7.978   0.438 -1.3989 -0.1236 -0.1236
25491SOL     OW80064   1.001   8.116   8.922 -0.3487  0.3924  0.2689
25491SOL    HW180065   0.970   8.183   8.860  0.7743  0.6152 -0.0808
25491SOL    HW280066   1.014   8.038   8.868  2.3969  1.0705 -0.2506
25492SOL     OW80067   2.323   1.548   2.293 -0.6727  0.5550 -0.2035
25492SOL    HW180068   2.249   1.578   2.240 -1.2102  0.9485  0.7393
25492SOL    HW280069   2.283   1.513   2.373  0.1120 -0.1291 -0.0964
25493SOL     OW80070   6.279   6.770   0.182  0.1404  0.0834 -0.4316
25493SOL    HW180071   6.204   6.818   0.147 -0.2031  0.0852  0.2850
25493SOL    HW280072   6.258   6.758   0.274  0.4732 -0.9705 -0.4865
25494SOL     OW80073   7.448   4.989   6.270 -0.5835  0.6254  0.8395
25494SOL    HW180074   7.402   4.927   6.327 -0.3552 -0.2497  0.1085
25494SOL    HW280075   7.380   5.027   6.215 -0.8139  1.5237  1.7163
25495SOL     OW80076   1.053   9.325   3.913 -0.7712  0.4555 -0.2338
25495SOL    HW180077   1.009   9.409   3.910 -0.8857  0.5276  1.8758
25495SOL    HW280078   1.092   9.314   3.826 -1.6014  2.1969 -0.8550
25496SOL     OW80079   6.237   3.740   5.994 -0.0456 -0.6332  0.1240
25496SOL    HW180080   6.220   3.721   6.087  1.9924 -0.6085  0.5652
25496SOL    HW280081   6.333   3.746   5.989 -0.0368 -1.8045 -2.2133
25497SOL     OW80082   6.418   4.018  11.076 -0.0973  0.1923 -0.6876
25497SOL    HW180083   6.462   4.103  11.069  1.1730 -0.1512  1.9381
25497SOL    HW280084   6.326   4.040  11.088  0.3604  1.3038  1.1081
25498SOL     OW80085   2.068   4.705  11.104  0.3321 -0.0039  0.1904
25498SOL    HW180086   2.044   4.624  11.149  0.1919  0.6166  1.2743
25498SOL    HW280087   2.057   4.686  11.011 -1.2278 -0.7507  0.5034
25499SOL     OW80088   3.119   6.675   1.036  0.3155 -0.1806  0.1445
25499SOL    HW180089   3.161   6.699   0.954  0.7326 -1.2871  0.0128
25499SOL    HW280090   3.044   6.735   1.043  1.7133  1.6299  0.2453
25500SOL     OW80091   2.908   0.930   2.347 -0.9738 -0.4449 -0.1258
25500SOL    HW180092   2.839   0.870   2.318 -2.4951  1.2621 -0.1995
25500SOL    HW280093   2.892   0.942   2.440 -0.8910  0.1181 -0.1806
25501SOL     OW80094   5.849   4.227   9.268 -0.7094 -0.3824 -0.5583
25501SOL    HW180095   5.798   4.292   9.317 -0.8866 -1.2214  0.4179
25501SOL    HW280096   5.786   4.188   9.207 -0.4874  0.6720 -1.4839
25502SOL     OW80097   9.837   5.642   3.889  0.0310 -0.2553 -0.3590
25502SOL    HW180098   9.919   5.639   3.838 -0.6247  1.3796 -1.6030
25502SOL    HW280099   9.844   5.723   3.939 -0.8426 -0.0702 -0.5296
25503SOL     OW80100   1.851   9.656   1.716  0.2167 -0.0664 -0.0799
25503SOL    HW180101   1.942   9.660   1.747  0.0334 -0.2827  0.5108
25503SOL    HW280102   1.857   9.624   1.626  0.5851 -2.8073  0.8278
25504SOL     OW80103   5.965   5.336  11.007 -0.5062  0.3494 -0.0648
25504SOL    HW180104   5.998   5.271  10.945 -2.1708  1.3359 -2.1246
25504SOL    HW280105   5.999   5.308  11.092  1.1772 -1.5566 -1.2808
25505SOL     OW80106   0.841   9.487   0.886 -0.1084  0.2588 -0.1102
25505SOL    HW180107   0.798   9.568   0.913  0.4700  0.9810 -1.2656
25505SOL    HW280108   0.934   9.505   0.895  0.1472  0.7032 -2.8318
25506SOL     OW80109   2.887   2.394   6.924 -0.4462 -0.1573 -0.3160
25506SOL    HW180110   2.840   2.341   6.860  0.1134 -1.0952  0.0294
25506SOL    HW280111   2.979   2.390   6.895 -0.2368 -0.3264  0.3615
25507SOL     OW80112   7.441   4.471  10.512 -0.5728 -0.3468 -0.6291
25507SOL    HW180113   7.390   4.464  10.592  0.6616 -1.4426  0.0981
25507SOL    HW280114   7.466   4.563  10.508 -1.9901  0.0684 -0.6492
25508SOL     OW80115   7.866   2.243   8.521 -0.0833 -0.0258  0.1482
25508SOL    HW180116   7.866   2.287   8.606  0.0696 -0.5469  0.4251
25508SOL    HW280117   7.957   2.250   8.491 -0.2618  0.6745 -0.2527
25509SOL     OW80118   8.749   3.799   9.736 -0.0680  0.1995  0.0646
25509SOL    HW180119   8.753   3.751   9.653 -3.5518 -0.6555  0.2603
25509SOL    HW280120   8.766   3.890   9.711 -0.5583 -0.1110 -1.4981
25510SOL     OW80121  10.272   0.290   2.027  0.3737 -0.3478 -0.3230
25510SOL    HW180122  10.180   0.302   2.051  0.6585  0.4443  0.3843
25510SOL    HW280123  10.319   0.295   2.110  1.1327  0.0009 -0.7724
25511SOL     OW80124   8.155   7.757   5.710 -0.1119 -0.0855  0.0333
25511SOL    HW180125   8.190   7.721   5.791  0.4027 -0.0790 -0.1786
25511SOL    HW280126   8.062   7.735   5.712 -0.4851  1.4407  1.4416
25512SOL     OW80127   3.564  10.014   1.521  0.3280  0.4340 -0.1356
25512SOL    HW180128   3.536   9.925   1.499  0.8524 -0.0311  1.0179
25512SOL    HW280129   3.484  10.066   1.515 -0.6349 -0.6620  2.0095
25513SOL     OW80130   8.243   3.714  10.970  0.0248 -0.3389  0.0413
25513SOL    HW180131   8.240   3.619  10.983  2.1571 -0.6054 -0.9633
25513SOL    HW280132   8.276   3.749  11.052 -1.2839 -0.3710  0.6083
25514SOL     OW80133   2.965   2.550   2.155 -0.1349  0.3290 -0.5857
25514SOL    HW180134   2.934   2.517   2.071  0.6409  0.7634 -1.0554
25514SOL    HW280135   2.987   2.471   2.205 -1.2890  0.0450 -0.5038
25515SOL     OW80136   7.034   9.768   1.969 -0.3924  0.2719 -0.0350
25515SOL    HW180137   6.958   9.737   2.019 -0.5885 -1.4886 -1.3106
25515SOL    HW280138   7.001   9.840   1.917 -1.8407 -1.7533 -2.1218
25516SOL     OW80139   2.772   2.537   0.935  0.2124  0.2710 -0.4364
25516SOL    HW180140   2.690   2.488   0.927 -0.2834  1.2101 -1.3426
25516SOL    HW280141   2.777   2.562   1.027  0.7774 -1.9338  0.2095
25517SOL     OW80142   9.775   0.876   7.725  0.1363  0.2174 -0.3097
25517SOL    HW180143   9.813   0.911   7.645 -3.2278  1.7288 -1.4429
25517SOL    HW280144   9.692   0.837   7.697 -0.6731 -0.1502  2.3046
25518SOL     OW80145   0.548   1.283   6.414 -0.0974  0.2493  0.0804
25518SOL    HW180146   0.487   1.342   6.369 -0.7530 -1.7409 -1.8357
25518SOL    HW280147   0.588   1.337   6.482 -3.2824  1.9254  0.8246
25519SOL     OW80148   0.413   0.986   0.347 -0.3548 -0.5878 -0.2092
25519SOL    HW180149   0.361   1.066   0.359  0.8219  0.1291  0.3009
25519SOL    HW280150   0.427   0.954   0.436  0.4853 -0.4920 -0.2989
25520SOL     OW80151   6.321   3.763   6.303  0.2066 -0.8778  0.1686
25520SOL    HW180152   6.291   3.851   6.326  1.3728 -0.2572 -0.5881
25520SOL    HW280153   6.241   3.711   6.299 -0.5949  0.3272 -0.1465
25521SOL     OW80154   8.913   0.871  10.910 -0.1724  0.0867 -0.0674
25521SOL    HW180155   8.931   0.841  10.821 -1.5057 -0.5443 -0.1421
25521SOL    HW280156   8.841   0.816  10.940 -1.9733  2.4196  0.2163
25522SOL     OW80157   2.223   6.129   9.129 -0.1054 -0.7201  0.1948
25522SOL    HW180158   2.196   6.215   9.162  1.1792 -0.1749 -0.1001
25522SOL    HW280159   2.209   6.134   9.034  1.3884 -0.2538 -0.0297
25523SOL     OW80160   4.587   6.152   1.618 -0.0620 -0.2353 -0.3416
25523SOL    HW180161   4.540   6.202   1.685 -1.1407 -1.2044 -0.3498
25523SOL    HW280162   4.679   6.155   1.647 -0.3027  0.5964  0.3772
25524SOL     OW80163   2.282   6.954   4.969 -0.2516  0.3509  0.5353
25524SOL    HW180164   2.372   6.922   4.976 -0.3634 -0.0628  0.1480
25524SOL    HW280165   2.281   7.009   4.891 -0.2426  0.6838  0.7672
25525SOL     OW80166   7.743   4.817   7.579 -0.2241  0.0534  0.3623
25525SOL    HW180167   7.765   4.761   7.504 -0.9133  0.1620  0.0765
25525SOL    HW280168   7.797   4.895   7.567 -1.9275  1.0582 -1.2510
25526SOL     OW80169  10.031   9.979   7.839 -0.0112  0.4966 -0.1421
25526SOL    HW180170  10.087  10.055   7.855  0.4085 -0.1304  1.6523
25526SOL    HW280171  10.087   9.916   7.794  0.4595  0.2549  0.7554
25527SOL     OW80172   8.546   3.931   9.842 -0.2093 -0.4672  0.2355
25527SOL    HW180173   8.613   3.983   9.798 -1.1544 -0.8991 -1.8659
25527SOL    HW280174   8.475   3.993   9.860  0.0538 -0.3520  0.8787
25528SOL     OW80175   8.288   5.106   1.477  0.1628 -0.3641  0.5031
25528SOL    HW180176   8.241   5.103   1.561  1.9818 -1.2018  1.5359
25528SOL    HW280177   8.257   5.029   1.430 -0.6658 -0.0364  0.4772
25529SOL     OW80178  10.327   7.128   1.669  0.1866  0.0406 -0.1243
25529SOL    HW180179  10.395   7.167   1.724 -2.5480  2.5590  1.8030
25529SOL    HW280180  10.273   7.078   1.731 -1.8261  1.2592 -0.8124
25530SOL     OW80181   9.326   0.008   6.376  0.6219 -0.3096 -0.0320
25530SOL    HW180182   9.393  -0.019   6.313  1.5267 -0.1235  0.8385
25530SOL    HW280183   9.364  -0.011   6.462 -0.0217  0.7644  0.5028
25531SOL     OW80184   5.047   6.911   5.285  0.0538 -0.0645 -0.3987
25531SOL    HW180185   4.971   6.853   5.280  0.1567 -0.1290 -1.4621
25531SOL    HW280186   5.084   6.894   5.371 -0.4590 -0.8967 -0.3289
25532SOL     OW80187   7.648   6.332   8.743 -0.3831 -0.8317  0.1877
25532SOL    HW180188   7.703   6.407   8.764 -1.2109  0.0776 -0.7794
25532SOL    HW280189   7.629   6.291   8.828  0.9106 -0.5593  0.6280
25533SOL     OW80190   7.510  10.667   2.223 -0.4344 -0.3278 -0.1474
25533SOL    HW180191   7.503  10.760   2.247 -2.2778 -0.2508 -0.7596
25533SOL    HW280192   7.603  10.648   2.226 -0.0343  1.4862  0.2395
25534SOL     OW80193   2.328   6.585   9.102 -0.4458  0.5359  0.1665
25534SOL    HW180194   2.407   6.597   9.156  0.0428  1.1311 -0.6634
25534SOL    HW280195   2.276   6.521   9.150  0.8015 -0.3043  0.4417
25535SOL     OW80196   3.434   3.115   4.709  0.7075  0.1476  0.6852
25535SOL    HW180197   3.487   3.054   4.760  1.3610  1.4414  1.6131
25535SOL    HW280198   3.470   3.110   4.621  1.2345 -0.2613  0.9178
25536SOL     OW80199   4.592   0.303  10.412 -0.5693  0.3029  0.0618
25536SOL    HW180200   4.516   0.281  10.465 -1.0688  1.8971  0.0746
25536SOL    HW280201   4.555   0.345  10.334  0.1941 -1.1827 -1.1407
25537SOL     OW80202   5.657   1.179   6.566 -0.4772 -0.9315  0.2900
25537SOL    HW180203   5.608   1.171   6.648  0.0315 -1.3769  0.5542
25537SOL    HW280204   5.656   1.272   6.547 -0.5268 -0.8127  0.8464
25538SOL     OW80205   4.737   6.364   6.502  0.0013 -0.6770  0.1148
25538SOL    HW180206   4.732   6.399   6.413 -0.0765  1.9304  1.0622
25538SOL    HW280207   4.645   6.357   6.530  0.0385  0.8296  0.7550
25539SOL     OW80208   3.741   8.695   8.192 -0.6222  0.0120 -0.3722
25539SOL    HW180209   3.832   8.717   8.169 -0.8726  0.0590 -1.3210
25539SOL    HW280210   3.739   8.702   8.288  0.2642  0.4460 -0.3742
25540SOL     OW80211   9.225   8.160   1.521  0.5240  0.0723 -0.1440
25540SOL    HW180212   9.300   8.100   1.522 -0.3544 -1.0756 -0.6799
25540SOL    HW280213   9.252   8.231   1.464  0.4326 -1.4165 -2.1391
25541SOL     OW80214   2.306   0.266   8.460 -0.6869  0.0957  0.0107
25541SOL    HW180215   2.300   0.287   8.553  0.5791 -0.0483  0.1439
25541SOL    HW280216   2.387   0.215   8.452 -0.0960  1.1555 -1.3392
25542SOL     OW80217   0.606   0.395   8.741 -0.0950 -0.8627  0.2749
25542SOL    HW180218   0.578   0.329   8.678  0.5900 -1.8412  0.9620
25542SOL    HW280219   0.688   0.429   8.705  0.2259 -1.3251  0.5574
25543SOL     OW80220   4.920   0.606   3.849 -0.5812 -0.1710  0.3113
25543SOL    HW180221   4.839   0.640   3.888 -0.5728 -0.7206  0.8102
25543SOL    HW280222   4.926   0.516   3.880  0.3312 -0.0738  0.4422
25544SOL     OW80223   7.543   4.301   3.059 -0.3298  0.1303  0.1018
25544SOL    HW180224   7.581   4.371   3.005 -0.3686 -0.5287 -0.7965
25544SOL    HW280225   7.450   4.321   3.062 -0.3563  0.0780 -0.2370
25545SOL     OW80226   1.569   8.109   1.991  0.0184  0.0909 -0.2821
25545SOL    HW180227   1.535   8.068   1.911 -2.2957  0.3591  0.4864
25545SOL    HW280228   1.529   8.196   1.992 -0.5061 -0.1343  1.4477
25546SOL     OW80229   4.195   3.133   4.038 -0.3070 -0.1871  0.2527
25546SOL    HW180230   4.104   3.109   4.022 -0.4331  0.6215 -0.2615
25546SOL    HW280231   4.192   3.224   4.068  0.5073  0.7945 -2.3442
25547SOL     OW80232   9.647   7.776   7.365  0.1156  0.5359 -0.1202
25547SOL    HW180233   9.710   7.836   7.405  1.3736 -0.2253 -0.9123
25547SOL    HW280234   9.632   7.709   7.431  1.1357  0.0213 -0.4063
25548SOL     OW80235   1.747   0.041   1.031 -0.2200  0.0907  0.3448
25548SOL    HW180236   1.788   0.008   0.952  0.0845 -1.2378  1.0340
25548SOL    HW280237   1.770  -0.022   1.099 -1.8356  0.3071  1.1504
25549SOL     OW80238  10.535   1.707   0.640  0.5430 -0.1000 -0.1993
25549SOL    HW180239  10.510   1.744   0.725  1.8565  0.0397  0.1590
25549SOL    HW280240  10.599   1.639   0.661  1.8380  0.7861 -1.1222
25550SOL     OW80241  10.821   0.583   3.890  0.0838 -0.0170  0.4615
25550SOL    HW180242  10.839   0.577   3.796 -0.7606  0.5412  0.2549
25550SOL    HW280243  10.736   0.627   3.895  0.1161 -0.0604  1.4882
25551SOL     OW80244   2.318   9.677   6.370 -0.1467  0.5749 -0.2026
25551SOL    HW180245   2.226   9.704   6.373 -0.2322  0.2646 -0.0004
25551SOL    HW280246   2.331   9.627   6.451  0.0457  0.1266 -0.5066
25552SOL     OW80247   6.494   8.966   0.614 -0.6226  0.2399 -0.4383
25552SOL    HW180248   6.428   8.919   0.665  0.4252  0.7805  1.5140
25552SOL    HW280249   6.577   8.925   0.640  0.5100  3.7595  2.3223
25553SOL     OW80250   2.365   2.537   7.045 -0.1179  0.8102 -0.0671
25553SOL    HW180251   2.403   2.454   7.016  0.1805  1.0729 -0.4403
25553SOL    HW280252   2.440   2.597   7.051 -0.0548  0.5937  1.9315
25554SOL     OW80253  10.615   5.422   7.640 -0.0963 -0.3502 -0.3725
25554SOL    HW180254  10.703   5.458   7.637 -0.3697  0.4487  0.6955
25554SOL    HW280255  10.566   5.473   7.575 -0.7831  2.1705  1.9636
25555SOL     OW80256   9.178   0.584   6.660 -0.1235 -0.2436 -0.0052
25555SOL    HW180257   9.120   0.634   6.603 -0.8308  0.2877  1.1356
25555SOL    HW280258   9.127   0.507   6.685  0.1136 -0.3787  0.0678
25556SOL     OW80259   4.494   6.439   3.853  0.6682  0.1753  0.2160
25556SOL    HW180260   4.453   6.355   3.874  0.3393 -0.0931 -1.4174
25556SOL    HW280261   4.467   6.498   3.924 -1.0359 -0.4725  0.1307
25557SOL     OW80262   8.425   7.872   2.031  0.2665  0.0646 -0.0841
25557SOL    HW180263   8.505   7.886   1.979 -0.5591  1.7286 -0.9809
25557SOL    HW280264   8.358   7.921   1.985 -0.8760  0.2573  1.7082
25558SOL     OW80265   3.217   1.955   4.690 -0.2653  0.0484 -0.2672
25558SOL    HW180266   3.304   1.920   4.674  1.1525  2.8790  0.5549
25558SOL    HW280267   3.175   1.890   4.746  2.0068 -0.5875  0.8358
25559SOL     OW80268   4.861   9.835   7.413  0.5361  0.2781  0.1379
25559SOL    HW180269   4.773   9.804   7.436  1.0260 -2.4579 -1.2534
25559SOL    HW280270   4.867   9.819   7.318  2.5820  0.2983  0.2348
25560SOL     OW80271   4.035   7.214   6.117 -0.2264  0.1639 -0.7242
25560SOL    HW180272   3.985   7.236   6.038 -0.8512  0.0529 -0.3676
25560SOL    HW280273   4.104   7.280   6.121  2.0605 -1.8135 -3.2945
25561SOL     OW80274   2.416   6.459   8.854  0.2271  0.3877 -0.5618
25561SOL    HW180275   2.460   6.398   8.914  0.6658  0.5448 -0.7233
25561SOL    HW280276   2.360   6.511   8.911 -1.7887 -1.5425 -0.6313
25562SOL     OW80277   9.191   4.188   7.214 -0.5854 -1.2069  0.2004
25562SOL    HW180278   9.233   4.211   7.132 -1.9117 -3.9003 -1.3930
25562SOL    HW280279   9.163   4.271   7.252  1.3315  0.2142 -1.3139
25563SOL     OW80280   1.653   0.784  10.097  0.4339 -0.0551  0.0797
25563SOL    HW180281   1.683   0.828  10.018  0.3583  1.0051  0.6245
25563SOL    HW280282   1.725   0.726  10.121  0.7156  0.0885 -0.4078
25564SOL     OW80283   6.388   1.724   1.148  0.0273  0.0679  0.0405
25564SOL    HW180284   6.351   1.811   1.132  1.8347  0.4002 -2.9685
25564SOL    HW280285   6.364   1.673   1.071 -0.4087 -1.9611  1.4512
25565SOL     OW80286  10.991   0.197   4.601  0.4424 -0.3226  0.7865
25565SOL    HW180287  10.980   0.115   4.552  0.9387  0.6820 -1.1070
25565SOL    HW280288  11.046   0.173   4.676 -0.3148 -1.9165  0.8738
25566SOL     OW80289   0.874   3.386   6.390 -0.6631 -0.0194  0.6723
25566SOL    HW180290   0.784   3.408   6.416  0.0522  2.0387  1.6519
25566SOL    HW280291   0.907   3.466   6.348  1.0049 -0.4031  1.1701
25567SOL     OW80292   4.269   3.749   8.533 -0.1154  0.4886  0.3633
25567SOL    HW180293   4.332   3.725   8.601 -0.0170  0.6447  0.3268
25567SOL    HW280294   4.298   3.835   8.503  0.3567  0.0397 -0.4880
25568SOL     OW80295   6.012   0.393   3.207 -0.3082  0.4066 -0.2918
25568SOL    HW180296   5.938   0.436   3.164 -0.2202  1.0164  0.1489
25568SOL    HW280297   5.995   0.404   3.300 -0.0166 -0.0732 -0.1782
25569SOL     OW80298  10.703   8.248   8.767  0.2940  0.2903  0.1689
25569SOL    HW180299  10.734   8.160   8.788  0.8617  0.6274  0.7642
25569SOL    HW280300  10.773   8.306   8.797 -0.5528  1.0153  0.7835
25570SOL     OW80301   6.156   1.341   6.419  0.4092  0.3850  0.1332
25570SOL    HW180302   6.242   1.309   6.446 -0.4913 -0.6706  1.9523
25570SOL    HW280303   6.099   1.264   6.424 -0.9637  1.3883  0.4659
25571SOL     OW80304   8.588   8.811   1.941  0.2026 -0.3361  0.8058
25571SOL    HW180305   8.643   8.734   1.954 -0.4409 -0.6774  1.6284
25571SOL    HW280306   8.518   8.801   2.005 -0.6533  0.2390 -0.0107
25572SOL     OW80307  10.456   2.785   6.323 -0.2513  0.1149 -0.1873
25572SOL    HW180308  10.400   2.778   6.245 -0.8300 -0.4220  0.2593
25572SOL    HW280309  10.403   2.834   6.386 -0.2158 -0.3686  0.2301
25573SOL     OW80310   8.357   6.111  10.598  0.3898 -0.2262 -0.1229
25573SOL    HW180311   8.316   6.092  10.682  1.1545 -0.3152  0.2276
25573SOL    HW280312   8.425   6.175  10.618 -0.0894  0.5295 -0.8267
25574SOL     OW80313   9.496   4.978   7.713  0.4540 -0.3043 -0.6538
25574SOL    HW180314   9.402   4.974   7.692  0.3974 -3.4180 -0.2757
25574SOL    HW280315   9.498   4.991   7.808  0.3646 -0.7970 -0.5793
25575SOL     OW80316   9.480   7.706   0.844  0.6719 -0.0343 -0.1531
25575SOL    HW180317   9.499   7.774   0.909 -0.1455 -0.5343  0.6254
25575SOL    HW280318   9.526   7.629   0.877 -1.2437 -0.8021  0.8606
25576SOL     OW80319   1.106  10.019   2.826  0.4890 -0.2207  0.2084
25576SOL    HW180320   1.077   9.941   2.780  1.9181 -0.4847 -0.2896
25576SOL    HW280321   1.053  10.090   2.789  0.2149 -0.7326 -0.3987
25577SOL     OW80322   2.076   3.716   3.586  0.0528 -0.3642 -0.1154
25577SOL    HW180323   2.057   3.624   3.604  0.3740 -0.4021  0.0294
25577SOL    HW280324   2.170   3.724   3.599  0.3236 -0.4094 -1.8652
25578SOL     OW80325   2.687   2.020   3.983  0.2805 -0.5666  0.1054
25578SOL    HW180326   2.683   2.099   4.037  1.3304 -0.0474 -0.5394
25578SOL    HW280327   2.749   1.963   4.027 -1.5596 -1.7089  1.3686
25579SOL     OW80328  10.431   3.383   4.255  0.4883 -0.3839  0.1836
25579SOL    HW180329  10.474   3.438   4.320  0.0721 -0.4040  0.4757
25579SOL    HW280330  10.337   3.397   4.269  0.3649 -1.4597  0.5178
25580SOL     OW80331   9.583  11.093   6.097  0.8148 -0.3076 -0.0139
25580SOL    HW180332   9.548  11.182   6.099 -1.6664 -1.2165  0.3458
25580SOL    HW280333   9.657  11.097   6.038 -0.2038  1.6937 -1.2301
25581SOL     OW80334   4.145   5.616   2.425  0.2145  0.4992 -0.8141
25581SOL    HW180335   4.192   5.699   2.434  0.9392  0.0478 -0.3323
25581SOL    HW280336   4.143   5.580   2.514  1.0473 -0.6060 -1.2210
25582SOL     OW80337   8.735   9.474   9.649  0.4581  0.1090 -0.5149
25582SOL    HW180338   8.684   9.555   9.644 -1.7147 -1.1408  0.1359
25582SOL    HW280339   8.801   9.483   9.580  1.3985  3.1042  0.6175
25583SOL     OW80340   4.077   5.701   0.336 -0.1650  0.2527  0.1743
25583SOL    HW180341   4.101   5.697   0.243  0.8861  0.6806  0.4085
25583SOL    HW280342   4.160   5.689   0.382 -0.6949 -0.0467  1.0657
25584SOL     OW80343   2.744   7.812  10.662  0.0932 -0.3533  0.1418
25584SOL    HW180344   2.788   7.885  10.707  3.1366 -2.2680  0.5271
25584SOL    HW280345   2.778   7.734  10.705 -1.7726 -2.0966 -1.3754
25585SOL     OW80346   1.653   1.527   2.618  0.2386 -0.4627 -0.2946
25585SOL    HW180347   1.693   1.500   2.700  2.0526 -0.6048 -1.1763
25585SOL    HW280348   1.693   1.471   2.552  1.4990  1.9536 -1.7297
25586SOL     OW80349   8.139   4.270   5.642 -0.1678 -0.4458  0.1395
25586SOL    HW180350   8.215   4.325   5.664 -0.1819 -0.7480  0.9796
25586SOL    HW280351   8.176   4.198   5.591  0.2708 -1.0682  1.2843
25587SOL     OW80352  10.529   9.310   8.299  0.1618 -0.1749 -0.0100
25587SOL    HW180353  10.616   9.322   8.263  0.6286 -1.0702  0.7751
25587SOL    HW280354  10.482   9.259   8.233  0.1789  0.4137 -0.4868
25588SOL     OW80355   0.201   6.970   1.977  0.2590  0.5153  0.0795
25588SOL    HW180356   0.245   6.961   1.893  1.0547 -1.9966  0.6706
25588SOL    HW280357   0.259   7.025   2.029  1.4303 -0.5844 -0.0121
25589SOL     OW80358  10.354   7.640   9.484 -0.4575  0.3173  0.2864
25589SOL    HW180359  10.351   7.736   9.480  0.7601  0.3344 -1.9229
25589SOL    HW280360  10.321   7.619   9.572 -0.3697  2.7554  0.9933
25590SOL     OW80361   5.906   1.491   0.143 -0.3120 -0.3981 -0.0777
25590SOL    HW180362   5.968   1.544   0.194 -0.9809  0.0727  0.2713
25590SOL    HW280363   5.869   1.552   0.080 -0.1519 -0.7699 -0.5403
25591SOL     OW80364   7.250   6.862   5.694 -0.4757 -0.6370 -0.3791
25591SOL    HW180365   7.282   6.802   5.627  0.0478  0.5186 -1.1834
25591SOL    HW280366   7.231   6.943   5.647 -1.3155 -0.2092  0.6637
25592SOL     OW80367   9.942   4.625  10.946 -0.5662  0.2735  0.0877
25592SOL    HW180368   9.902   4.703  10.985 -1.3984 -0.1459  0.0959
25592SOL    HW280369   9.975   4.655  10.861 -3.0683  0.1120 -1.0189
25593SOL     OW80370   3.857   3.558   3.433 -0.7998  0.0903  0.2124
25593SOL    HW180371   3.787   3.564   3.367  0.4581  1.2198 -1.0912
25593SOL    HW280372   3.829   3.619   3.502 -2.7094 -1.9779  1.3850
25594SOL     OW80373  11.078   1.928   4.777 -0.1909  0.2769 -0.0369
25594SOL    HW180374  11.046   1.839   4.794 -3.2186  1.6220  2.2549
25594SOL    HW280375  11.031   1.957   4.699 -2.3855  1.1277  1.4963
25595SOL     OW80376   9.877   3.679   0.358  0.3766  0.3067 -0.3271
25595SOL    HW180377   9.953   3.623   0.373  0.2655 -0.2256 -1.5872
25595SOL    HW280378   9.890   3.754   0.416  1.5596 -0.0589 -0.0895
25596SOL     OW80379   4.157   8.339   9.443 -0.6697 -0.2148 -0.2653
25596SOL    HW180380   4.245   8.306   9.429  0.5418  2.6917 -0.0886
25596SOL    HW280381   4.125   8.290   9.519 -0.0411 -2.6834 -1.4821
25597SOL     OW80382   8.572   8.345   6.457  0.0942  0.3476 -0.3056
25597SOL    HW180383   8.587   8.423   6.510 -0.8061  0.6097 -0.4200
25597SOL    HW280384   8.493   8.306   6.493  0.6580 -0.6531 -0.1061
25598SOL     OW80385   2.591   8.543   4.986  0.4272  0.3765  0.1682
25598SOL    HW180386   2.500   8.545   5.015  0.5166  0.5872  0.4342
25598SOL    HW280387   2.642   8.525   5.066  0.6649  0.8587  0.1299
25599SOL     OW80388   0.071   8.795   7.581 -0.7427 -0.0511 -0.1838
25599SOL    HW180389   0.054   8.710   7.542 -0.7431  0.4602 -1.3672
25599SOL    HW280390   0.007   8.853   7.540  0.3599  0.8434 -0.7281
25600SOL     OW80391   5.482   2.432   8.577  0.5958 -0.4589 -0.1591
25600SOL    HW180392   5.421   2.368   8.540 -0.5371  0.4297  0.1396
25600SOL    HW280393   5.427   2.503   8.609  1.7811  0.3162  0.2360
25601SOL     OW80394   4.238   2.715   2.619  0.6019 -0.0917 -0.0313
25601SOL    HW180395   4.200   2.639   2.575  0.5618  0.2120 -0.5304
25601SOL    HW280396   4.237   2.692   2.712  0.6581 -0.7311 -0.1830
25602SOL     OW80397   2.050  10.050   4.399  0.2034  0.2966  0.4570
25602SOL    HW180398   2.050   9.991   4.475 -3.3923  1.0549  1.2277
25602SOL    HW280399   2.128  10.104   4.412  1.0331 -1.2049  2.2684
25603SOL     OW80400   3.165  10.237   7.549 -0.0050 -0.4053 -0.1438
25603SOL    HW180401   3.240  10.188   7.513  1.0230  0.9998  0.0082
25603SOL    HW280402   3.179  10.327   7.520 -2.3826 -0.3176 -1.2759
25604SOL     OW80403   5.450   8.569   6.723  0.0398 -0.6722 -0.2570
25604SOL    HW180404   5.528   8.561   6.779  0.8337  0.7354 -1.1042
25604SOL    HW280405   5.388   8.618   6.777  0.1017 -0.9394  0.0645
25605SOL     OW80406  10.325   1.825   1.758  0.2288  0.1039 -0.5830
25605SOL    HW180407  10.230   1.821   1.768  0.3049  0.3648  0.2946
25605SOL    HW280408  10.358   1.753   1.812  0.5566  0.3926 -0.3911
25606SOL     OW80409   7.706  10.586   8.002  0.6947  0.0238  0.8489
25606SOL    HW180410   7.788  10.549   7.968  0.8777  0.6532  0.5854
25606SOL    HW280411   7.727  10.677   8.021 -0.2331  0.5027 -0.2856
25607SOL     OW80412   5.218  10.445  10.812 -0.0240 -0.3534  0.1225
25607SOL    HW180413   5.123  10.454  10.813  0.1386  1.7971  0.4550
25607SOL    HW280414   5.233  10.360  10.771 -2.0317  0.0778 -1.7145
25608SOL     OW80415   9.508   2.474   1.080  0.3106 -0.0014 -0.8721
25608SOL    HW180416   9.428   2.422   1.072  0.2419  0.2105 -1.7111
25608SOL    HW280417   9.509   2.527   1.001  0.7853  0.7063 -0.3973
25609SOL     OW80418  10.359   7.986   0.218 -0.6027 -0.1552 -0.4266
25609SOL    HW180419  10.413   8.002   0.140 -1.5805 -0.6467 -1.2380
25609SOL    HW280420  10.363   8.068   0.267  0.6711 -0.0984 -0.5801
25610SOL     OW80421   5.851   4.882   1.584  0.0719 -0.2058 -0.1577
25610SOL    HW180422   5.800   4.849   1.658 -2.0740  0.7407 -1.1371
25610SOL    HW280423   5.861   4.976   1.602  0.6424 -0.2042 -0.4679
25611SOL     OW80424  10.742   1.869   2.320 -0.7140 -0.0588  0.2789
25611SOL    HW180425  10.813   1.805   2.308 -1.3435 -0.9059  0.9820
25611SOL    HW280426  10.755   1.932   2.249  1.3186  0.3595  0.9564
25612SOL     OW80427   9.835   5.788   0.826  0.4527  0.3977  0.2308
25612SOL    HW180428   9.788   5.766   0.906 -1.0359 -0.2513 -0.7728
25612SOL    HW280429   9.851   5.883   0.833  3.0657 -0.0695  2.6176
25613SOL     OW80430  11.047   5.664   1.412  0.0741  0.1984 -0.2638
25613SOL    HW180431  10.954   5.679   1.427  0.3394  0.8790  0.8320
25613SOL    HW280432  11.072   5.599   1.478  0.6315  0.9673  0.3051
25614SOL     OW80433  10.878   1.263   7.421 -0.3496 -0.0656  0.3434
25614SOL    HW180434  10.794   1.302   7.394 -0.4734  1.3795  2.5949
25614SOL    HW280435  10.926   1.253   7.339 -1.1387  2.9426 -0.6351
25615SOL     OW80436   9.395   0.331   9.785 -0.6969  0.1876 -0.0937
25615SOL    HW180437   9.350   0.269   9.727 -1.5924 -0.4977  1.2855
25615SOL    HW280438   9.336   0.342   9.859  1.6611 -1.3699  2.2100
25616SOL     OW80439   9.510  10.681   5.089 -0.0853 -0.4096 -0.5437
25616SOL    HW180440   9.516  10.762   5.040  1.3222 -1.4043 -2.1139
25616SOL    HW280441   9.462  10.621   5.031 -1.0986 -0.7375  0.5828
25617SOL     OW80442   9.856   7.435   5.797  0.2434 -0.2228 -0.6019
25617SOL    HW180443   9.809   7.502   5.748  0.0724 -0.7906 -1.2250
25617SOL    HW280444   9.793   7.402   5.860  0.3456  0.2386 -0.2528
25618SOL     OW80445   2.954  10.499   8.824  0.4195 -0.3654 -0.5768
25618SOL    HW180446   2.928  10.407   8.818 -2.4244  0.3918 -1.6315
25618SOL    HW280447   2.957  10.529   8.733 -0.4432  0.9608 -0.2010
25619SOL     OW80448   7.610   4.699   0.355 -0.2674  0.1147  0.2892
25619SOL    HW180449   7.552   4.638   0.308 -0.6596 -0.0738  1.0046
25619SOL    HW280450   7.675   4.643   0.397 -1.4908  0.0217  2.1708
25620SOL     OW80451   4.996   4.959   7.718  0.2249  0.3590  0.1331
25620SOL    HW180452   5.044   5.032   7.679 -0.2840  0.7564  0.2423
25620SOL    HW280453   4.905   4.988   7.718  0.1523  0.1690  1.1686
25621SOL     OW80454   0.454   9.117   7.777  0.5667  0.3268 -0.2761
25621SOL    HW180455   0.537   9.141   7.736  0.6667 -0.2205 -0.4024
25621SOL    HW280456   0.458   9.157   7.864  1.6574 -0.9732  0.3143
25622SOL     OW80457   4.698   7.264   0.497 -0.0072 -0.2974  0.1447
25622SOL    HW180458   4.700   7.171   0.522 -1.6417 -0.5518 -0.5468
25622SOL    HW280459   4.619   7.273   0.443  2.0890  0.6950 -3.0651
25623SOL     OW80460  10.347   4.145   9.907 -0.2004  0.0068  0.5632
25623SOL    HW180461  10.277   4.200   9.871 -0.1410 -1.5104 -2.1492
25623SOL    HW280462  10.422   4.163   9.850  0.4489 -1.2575  0.9995
25624SOL     OW80463  10.937   6.265   8.927  0.0658  0.3879 -0.1339
25624SOL    HW180464  10.884   6.320   8.984 -0.8575 -0.7859  0.1618
25624SOL    HW280465  10.906   6.176   8.942 -0.8154  0.0701 -3.0647
25625SOL     OW80466   3.308   3.080   7.837  0.3427  0.4371  0.6227
25625SOL    HW180467   3.246   3.012   7.861  0.5325  0.0752  0.0983
25625SOL    HW280468   3.391   3.035   7.827  0.5572  0.8145  0.6758
25626SOL     OW80469   2.646   0.591   6.300 -0.2430 -0.3713  0.0340
25626SOL    HW180470   2.593   0.670   6.312 -0.5219 -0.7536  1.4897
25626SOL    HW280471   2.655   0.555   6.388 -0.4566 -2.1912 -0.6591
25627SOL     OW80472   4.644   2.226  10.066  0.1965 -0.0816  0.0345
25627SOL    HW180473   4.657   2.156  10.131  0.0682 -0.9341 -0.8276
25627SOL    HW280474   4.559   2.206  10.027 -1.4353  2.4537  2.0047
25628SOL     OW80475   2.311   1.191   4.726 -0.8958  0.6793  0.1563
25628SOL    HW180476   2.265   1.115   4.690  0.4731 -0.2478  0.3020
25628SOL    HW280477   2.282   1.265   4.672 -3.6884  0.4308  1.1650
25629SOL     OW80478   1.634   5.863   6.456  0.2738  0.0823 -0.3857
25629SOL    HW180479   1.556   5.900   6.497 -0.1861 -0.2914 -0.9058
25629SOL    HW280480   1.707   5.911   6.495 -0.1953  0.2225  0.3317
25630SOL     OW80481   5.113   6.838   7.468  0.8962 -0.1714  0.0887
25630SOL    HW180482   5.164   6.834   7.549 -0.2842 -0.2606  0.8600
25630SOL    HW280483   5.115   6.749   7.433  1.3071 -0.1603  0.0884
25631SOL     OW80484   9.230   3.074   6.182 -0.3115  0.2911  0.0096
25631SOL    HW180485   9.316   3.096   6.146  0.3182  1.3102  1.9653
25631SOL    HW280486   9.209   2.988   6.145  2.1716 -0.6128  0.5073
25632SOL     OW80487   6.756   9.911  10.226  0.2972  0.5732 -0.5192
25632SOL    HW180488   6.679   9.924  10.282  0.0020  1.6673 -1.1537
25632SOL    HW280489   6.815   9.858  10.279 -0.0683  1.3815  0.7432
25633SOL     OW80490   5.399   7.665   2.316  0.6526  0.3936 -0.2303
25633SOL    HW180491   5.308   7.635   2.309  0.9216 -0.4731 -0.0590
25633SOL    HW280492   5.452   7.590   2.287  1.2549  1.8011 -3.1887
25634SOL     OW80493   7.210   8.925  10.377 -0.7345  0.0113 -0.6617
25634SOL    HW180494   7.168   8.972  10.306  0.3302  0.5543 -0.9565
25634SOL    HW280495   7.302   8.953  10.374  0.1369 -2.6018 -1.3220
25635SOL     OW80496  10.632   1.510   0.016  0.3622  0.0393 -0.1243
25635SOL    HW180497  10.564   1.511  -0.051  1.3425 -1.7713 -1.2580
25635SOL    HW280498  10.585   1.521   0.099 -1.5816 -2.5957 -0.7193
25636SOL     OW80499   1.151   1.736   4.323  0.4397 -0.1475  0.0554
25636SOL    HW180500   1.188   1.653   4.354 -1.0167 -1.0549 -0.5246
25636SOL    HW280501   1.071   1.747   4.375 -1.1606 -0.8482 -2.0953
25637SOL     OW80502   7.404   4.602   7.719  0.0784 -0.6622  0.3448
25637SOL    HW180503   7.314   4.600   7.752 -0.0877  1.0328  0.0741
25637SOL    HW280504   7.406   4.676   7.659  2.6949  2.3066  3.5941
25638SOL     OW80505   0.359   5.317   3.805 -0.1713 -0.0181 -0.4825
25638SOL    HW180506   0.323   5.349   3.722 -0.6513  2.9438  0.7432
25638SOL    HW280507   0.283   5.291   3.856  0.1249 -1.8197 -0.8893
25639SOL     OW80508   5.224   9.057   8.735 -0.4592 -0.3522 -0.6965
25639SOL    HW180509   5.273   9.053   8.652  0.3164  0.1032 -0.2747
25639SOL    HW280510   5.161   9.128   8.722 -1.0095 -0.9344 -1.2417
25640SOL     OW80511   7.486  10.976   7.437 -0.5449  0.0714 -0.1652
25640SOL    HW180512   7.579  10.989   7.451 -0.5219  1.5881 -1.4691
25640SOL    HW280513   7.444  11.041   7.494 -0.7829  0.0418 -0.3030
25641SOL     OW80514   7.245   1.284   8.694  0.1446  0.1468 -0.1869
25641SOL    HW180515   7.244   1.365   8.745  1.7699  0.1646 -0.1096
25641SOL    HW280516   7.337   1.272   8.671 -0.3884 -0.4051 -2.2725
25642SOL     OW80517   7.078   6.294  11.004 -0.1070 -0.2740  0.7490
25642SOL    HW180518   7.001   6.266  10.955  1.3180 -0.6242 -1.4285
25642SOL    HW280519   7.051   6.376  11.045 -1.4670 -0.1010 -0.4009
25643SOL     OW80520   6.249  11.000   9.346 -0.0171  0.4873  0.2905
25643SOL    HW180521   6.328  11.039   9.307  0.1014  1.0336  1.0507
25643SOL    HW280522   6.276  10.975   9.435 -0.6976  0.6693  0.5544
25644SOL     OW80523   9.396   3.816   0.910  0.5334 -0.0415 -0.1554
25644SOL    HW180524   9.347   3.814   0.828  0.3082 -0.0192 -0.0202
25644SOL    HW280525   9.405   3.725   0.935 -2.1787  0.0492  1.4613
25645SOL     OW80526  10.965   6.122   7.444  0.0331 -0.2792 -0.3388
25645SOL    HW180527  10.915   6.200   7.418 -1.9965 -1.6193 -0.7370
25645SOL    HW280528  10.943   6.057   7.378 -1.1851 -2.2389  1.8323
25646SOL     OW80529   2.844   7.619   8.142  0.8025  0.2912 -0.4831
25646SOL    HW180530   2.934   7.593   8.119  0.7132 -0.8150  0.3307
25646SOL    HW280531   2.793   7.538   8.130  0.0800  0.6803 -0.0557
25647SOL     OW80532   2.933   3.277   4.693 -0.6857 -0.0632  0.0167
25647SOL    HW180533   2.909   3.194   4.733  0.6117 -1.3701 -1.7452
25647SOL    HW280534   2.855   3.304   4.644 -0.8815 -0.6437  0.0013
25648SOL     OW80535   9.538   2.126   8.859  0.5596  0.6035  0.3592
25648SOL    HW180536   9.464   2.178   8.891  0.6982  0.0192  1.7152
25648SOL    HW280537   9.498   2.060   8.803  0.1338  0.7213  0.5175
25649SOL     OW80538   3.992   2.150   7.879 -0.0533  0.0174  0.3836
25649SOL    HW180539   4.007   2.066   7.834 -2.3747  0.0641 -0.6425
25649SOL    HW280540   4.074   2.197   7.869  0.6116 -1.3176 -0.9065
25650SOL     OW80541   8.578   1.350   5.299  0.4000 -0.8679  0.1201
25650SOL    HW180542   8.538   1.326   5.382  0.2032 -0.7121  0.0691
25650SOL    HW280543   8.594   1.444   5.305  0.6713 -0.9108  0.1029
25651SOL     OW80544   3.613   1.833   6.362 -0.7078  0.4633  0.1977
25651SOL    HW180545   3.596   1.853   6.454 -1.1285 -0.7002  0.3957
25651SOL    HW280546   3.672   1.757   6.365  1.2974  1.9152 -0.5004
25652SOL     OW80547   7.726   6.015   6.758  0.0446 -0.1162 -0.2364
25652SOL    HW180548   7.692   6.026   6.846 -1.5844  3.9513 -1.1381
25652SOL    HW280549   7.805   6.069   6.756  0.5253 -0.8197 -1.0743
25653SOL     OW80550   8.343   9.140   4.065  0.0963 -0.0735  0.2637
25653SOL    HW180551   8.348   9.045   4.050  0.9326 -0.4206  2.3016
25653SOL    HW280552   8.260   9.152   4.111  1.5169 -0.4348  3.1800
25654SOL     OW80553   5.670   7.739   4.832  0.0075 -0.0953  0.2018
25654SOL    HW180554   5.694   7.832   4.835  2.9023 -0.7135 -0.2244
25654SOL    HW280555   5.754   7.693   4.842 -1.4774 -2.6968  1.6786
25655SOL     OW80556   3.139   9.167   1.955  0.0640  0.5877 -0.3594
25655SOL    HW180557   3.168   9.163   2.046 -1.0855  2.0836  0.1138
25655SOL    HW280558   3.212   9.130   1.905  0.7862 -0.1082  1.1367
25656SOL     OW80559   0.772   1.913   0.179  0.1771  0.0273  0.3179
25656SOL    HW180560   0.730   1.828   0.166 -1.3905  0.6498  1.0630
25656SOL    HW280561   0.739   1.968   0.107  1.0442  0.0666 -0.0612
25657SOL     OW80562   9.602   4.196   5.607 -0.0613  0.5851 -0.5318
25657SOL    HW180563   9.595   4.101   5.605 -0.2630  0.5762  0.3951
25657SOL    HW280564   9.687   4.213   5.647 -0.6247  0.7958  0.6084
25658SOL     OW80565   7.561   8.952   0.158  0.1342 -0.3574  0.4519
25658SOL    HW180566   7.523   9.003   0.087 -1.4059 -0.3516  1.2452
25658SOL    HW280567   7.583   8.868   0.118 -1.3092 -0.5813  0.0992
25659SOL     OW80568   8.403   2.696  10.679 -0.1796 -0.3922  0.5052
25659SOL    HW180569   8.356   2.618  10.708 -1.4017  0.1733  0.1385
25659SOL    HW280570   8.343   2.768  10.698  0.6116  0.3819  0.1336
25660SOL     OW80571   5.417   0.066   8.833  0.4888  0.2025  0.4417
25660SOL    HW180572   5.417   0.096   8.742  1.4107 -1.4011 -0.1300
25660SOL    HW280573   5.324   0.050   8.853  0.2970  0.3842 -0.2689
25661SOL     OW80574   6.257   2.227   7.443  0.2532  0.1355 -0.4066
25661SOL    HW180575   6.215   2.142   7.428  1.0074 -0.2582 -0.3334
25661SOL    HW280576   6.348   2.205   7.462  0.6545  1.0275 -1.2669
25662SOL     OW80577   7.957   9.658   2.861  0.2482 -0.5188 -0.0151
25662SOL    HW180578   7.898   9.604   2.808 -0.3679  0.6609 -0.5709
25662SOL    HW280579   7.935   9.748   2.837  2.7559 -0.0351 -0.7706
25663SOL     OW80580   6.394   0.459   4.405  0.8917  0.3752 -0.9471
25663SOL    HW180581   6.366   0.464   4.497  1.4147 -0.5463 -0.7162
25663SOL    HW280582   6.327   0.405   4.363  1.2228 -0.1207 -0.8510
25664SOL     OW80583   5.503   8.520   8.593 -0.1110  0.0071  0.7300
25664SOL    HW180584   5.491   8.607   8.633 -0.1842 -0.5403  1.9593
25664SOL    HW280585   5.561   8.536   8.518  1.8087  0.8115  2.2828
25665SOL     OW80586   0.624   7.240  11.030  0.5461  0.0691  0.2493
25665SOL    HW180587   0.607   7.306  11.098 -3.3331  1.3194 -1.6621
25665SOL    HW280588   0.622   7.157  11.076 -1.8342  0.8705  1.7753
25666SOL     OW80589   1.177   3.707   2.615 -0.1468  0.6463  0.3178
25666SOL    HW180590   1.243   3.775   2.627  0.0629  0.2415  1.5783
25666SOL    HW280591   1.210   3.654   2.542  0.5602  0.8579  0.4811
25667SOL     OW80592   7.971   9.954   9.100 -0.7179 -0.4292 -0.4331
25667SOL    HW180593   7.990  10.033   9.050 -2.0371 -0.2799 -0.7503
25667SOL    HW280594   8.043   9.946   9.163  1.0579 -0.6811 -2.3828
25668SOL     OW80595   4.905   7.055   8.589  0.1252 -0.3699  0.1556
25668SOL    HW180596   4.919   7.137   8.541  0.9165 -1.0030 -0.7283
25668SOL    HW280597   4.946   6.988   8.535  0.0465 -1.2738  1.1793
25669SOL     OW80598   5.638   7.453   6.062  0.5606  0.1726 -0.2750
25669SOL    HW180599   5.622   7.399   5.985  0.9767  0.4940 -0.6000
25669SOL    HW280600   5.661   7.391   6.132 -2.5109 -0.3503  0.3841
25670SOL     OW80601   4.997   5.565   1.331  0.3540 -0.4724  0.7781
25670SOL    HW180602   4.968   5.529   1.416  0.6424 -0.7199  0.7740
25670SOL    HW280603   4.980   5.659   1.338 -1.9157 -0.7791  0.2046
25671SOL     OW80604  11.018   9.373   9.971 -0.4390  0.6599 -0.2720
25671SOL    HW180605  11.028   9.409  10.059  2.4344 -1.3598  0.3674
25671SOL    HW280606  10.940   9.318   9.975  0.4117 -0.4890  1.4712
25672SOL     OW80607   8.112   8.018   2.909 -0.4512  0.6592  0.2117
25672SOL    HW180608   8.110   7.933   2.952  0.4268  1.0801  1.1235
25672SOL    HW280609   8.203   8.048   2.919 -0.7092  1.6305 -0.2267
25673SOL     OW80610   7.321   1.230   0.843  0.0155  0.1523 -0.0249
25673SOL    HW180611   7.331   1.137   0.862  0.6470  1.0397  5.7371
25673SOL    HW280612   7.411   1.262   0.833  0.0533  0.5347  1.3128
25674SOL     OW80613  10.469   2.177   5.791  0.0942  0.1282  0.1419
25674SOL    HW180614  10.455   2.154   5.699 -2.2126  1.7907 -0.0189
25674SOL    HW280615  10.549   2.131   5.816 -1.2804 -3.5637 -1.5664
25675SOL     OW80616   7.063  10.951   7.207 -0.1685  0.0952  0.8958
25675SOL    HW180617   7.092  10.926   7.119  1.0214  0.8996  1.0246
25675SOL    HW280618   7.127  10.911   7.266 -0.9044 -0.3606  1.4075
25676SOL     OW80619   1.354   2.427   1.221  0.3706  0.2912 -0.6624
25676SOL    HW180620   1.348   2.511   1.175 -0.0488  0.1681 -0.8319
25676SOL    HW280621   1.448   2.418   1.242  0.1370  1.9717  1.5421
25677SOL     OW80622   5.445   3.071  10.052  0.6781  0.2351  0.1637
25677SOL    HW180623   5.425   3.145   9.995  0.2350 -0.2295 -0.2937
25677SOL    HW280624   5.498   3.108  10.123  0.2824  1.0210  0.0506
25678SOL     OW80625   2.732   3.146   1.977  0.1665 -0.0691 -0.3428
25678SOL    HW180626   2.761   3.088   2.048 -0.0713 -0.3906 -0.5074
25678SOL    HW280627   2.761   3.102   1.897 -0.9324 -0.4961 -0.5221
25679SOL     OW80628   6.809   8.332  10.831  0.0049  0.3586  0.0051
25679SOL    HW180629   6.866   8.408  10.821 -1.1298  1.4084  1.1465
25679SOL    HW280630   6.764   8.346  10.915 -1.3826 -0.7886 -0.4985
25680SOL     OW80631   8.108   9.560   5.636  0.0889  0.4949  0.6841
25680SOL    HW180632   8.117   9.473   5.674  0.8614  0.9534  1.5961
25680SOL    HW280633   8.173   9.562   5.565 -1.8132 -0.5949 -1.1963
25681SOL     OW80634   2.858   3.738   5.777 -1.2377  0.1097  1.1204
25681SOL    HW180635   2.892   3.713   5.691 -3.0508  0.3036  0.2838
25681SOL    HW280636   2.929   3.720   5.838 -0.0007 -0.3078 -0.3800
25682SOL     OW80637   5.951   6.175   5.690 -0.1294 -0.0104 -0.4056
25682SOL    HW180638   5.963   6.269   5.695 -2.1306  0.2769 -0.3195
25682SOL    HW280639   6.020   6.139   5.747  0.4166  1.3884 -0.1412
25683SOL     OW80640   5.027   0.968   9.105  1.0631 -0.5346  0.5434
25683SOL    HW180641   5.025   0.907   9.031 -1.7335 -0.7948  0.7431
25683SOL    HW280642   5.044   0.913   9.181  0.8480 -0.7121  0.4624
25684SOL     OW80643   6.691   5.669   9.476  0.4627  0.5707  0.0139
25684SOL    HW180644   6.681   5.756   9.514  0.2727  0.1094  1.0623
25684SOL    HW280645   6.771   5.675   9.424  0.6032  1.3000  0.3007
25685SOL     OW80646  10.184   0.731   4.788 -0.2165  0.2231 -0.0334
25685SOL    HW180647  10.275   0.737   4.758 -0.4709  1.0599 -0.6981
25685SOL    HW280648  10.156   0.643   4.763 -0.8610  1.2942 -3.7112
25686SOL     OW80649   9.757   8.054  10.918  0.1562  0.1471 -0.9781
25686SOL    HW180650   9.808   8.115  10.971 -2.7302  1.7106  0.2238
25686SOL    HW280651   9.702   8.110  10.862  0.0904 -1.4347 -2.6123
25687SOL     OW80652   0.796   4.572   7.438  0.3948  0.0014  0.2395
25687SOL    HW180653   0.753   4.651   7.471  0.8148  0.4037 -0.1623
25687SOL    HW280654   0.743   4.500   7.471 -1.4888  0.5027 -1.4911
25688SOL     OW80655  10.075   2.734   9.176  0.1026  0.5658 -0.6884
25688SOL    HW180656  10.029   2.656   9.207 -1.2206  2.0795  1.4660
25688SOL    HW280657  10.008   2.802   9.175  1.5646  2.0595 -0.9260
25689SOL     OW80658   8.519   0.837   9.492  0.3258  0.2952  0.3504
25689SOL    HW180659   8.530   0.807   9.402  1.8460  1.7606 -0.0009
25689SOL    HW280660   8.462   0.771   9.532  2.8484 -2.6934 -0.5354
25690SOL     OW80661   0.243   1.051   1.674 -0.1049 -0.1951 -0.4487
25690SOL    HW180662   0.153   1.037   1.701 -0.3259  1.4273 -0.2151
25690SOL    HW280663   0.294   0.991   1.728 -0.9206 -0.0279  0.5549
25691SOL     OW80664   1.976   6.764   7.934  0.0727  0.3931 -0.1371
25691SOL    HW180665   1.899   6.745   7.881 -0.3766  0.7086  0.4025
25691SOL    HW280666   1.956   6.846   7.978  0.6187  0.3495  0.1972
25692SOL     OW80667   0.504   7.557  10.174  0.1790  0.1028 -0.4514
25692SOL    HW180668   0.473   7.646  10.164 -4.1587 -0.7583  2.6709
25692SOL    HW280669   0.526   7.549  10.267  2.3755 -1.6799 -1.0122
25693SOL     OW80670   4.623   0.360   4.417  0.5370  0.1748 -0.1902
25693SOL    HW180671   4.692   0.338   4.479 -1.1299 -3.3246  0.6747
25693SOL    HW280672   4.636   0.299   4.344  0.3082  1.7961 -1.6575
25694SOL     OW80673   6.055   8.367  10.579  0.5993  0.6658 -0.1233
25694SOL    HW180674   6.092   8.301  10.521 -0.5608 -0.6515  0.5803
25694SOL    HW280675   5.982   8.406  10.530 -0.5027 -0.5803  0.4675
25695SOL     OW80676  10.307   0.266  10.420 -0.5508  0.0297  0.2392
25695SOL    HW180677  10.343   0.184  10.385 -2.5601 -0.5248 -0.6788
25695SOL    HW280678  10.241   0.238  10.483 -0.9695  0.9634  0.2226
25696SOL     OW80679   3.232   6.921  10.197 -0.5664  0.4058  0.7969
25696SOL    HW180680   3.231   6.870  10.278  2.0412  1.1412  1.3741
25696SOL    HW280681   3.141   6.919  10.167 -1.9810  1.2443  4.4465
25697SOL     OW80682   1.039   2.925   8.545  0.4849 -0.4385 -0.0602
25697SOL    HW180683   1.057   2.839   8.583 -1.3363 -0.3870  0.9866
25697SOL    HW280684   1.004   2.906   8.458 -2.2272 -0.9565  1.0438
25698SOL     OW80685  11.035   6.043   0.141 -0.3893 -0.4220  0.3527
25698SOL    HW180686  11.028   5.948   0.154  0.8360 -0.1519  4.9842
25698SOL    HW280687  10.953   6.077   0.176  0.3929  0.2762  1.5749
25699SOL     OW80688   5.704   3.785   1.650 -0.1027  0.1052 -0.2371
25699SOL    HW180689   5.620   3.808   1.689 -0.6549 -1.6312 -0.3444
25699SOL    HW280690   5.718   3.694   1.674  1.0983 -0.0419 -1.3797
25700SOL     OW80691   1.528   0.604   7.803 -0.1382  0.2143 -0.1575
25700SOL    HW180692   1.437   0.611   7.774 -0.6893 -0.0070  1.4253
25700SOL    HW280693   1.529   0.528   7.861  1.1537 -0.0030 -0.4275
25701SOL     OW80694  11.080  10.497   1.830  0.1226 -0.0981 -0.3088
25701SOL    HW180695  11.126  10.580   1.818 -0.4425  0.3965  0.7719
25701SOL    HW280696  11.043  10.477   1.744 -0.0948  0.9933 -0.4848
25702SOL     OW80697   3.686   1.971   7.756  0.1397 -0.4601  0.0758
25702SOL    HW180698   3.611   1.943   7.703  0.3247 -1.4044  0.2954
25702SOL    HW280699   3.760   1.923   7.721  0.3380 -0.7914  0.9268
25703SOL     OW80700   6.045   7.047   3.825  0.3831  0.0571 -0.9569
25703SOL    HW180701   6.113   6.981   3.808  0.6896  0.0082  0.3768
25703SOL    HW280702   6.079   7.126   3.783  1.3930  0.0905 -0.1228
25704SOL     OW80703   4.888   9.334   3.471 -0.2039  0.2219 -0.0561
25704SOL    HW180704   4.795   9.339   3.493 -0.2840 -0.3689 -0.2544
25704SOL    HW280705   4.918   9.425   3.477 -0.3409  0.1768  1.9523
25705SOL     OW80706   8.129   3.396   1.534 -0.1084 -0.1027 -0.4877
25705SOL    HW180707   8.131   3.429   1.444  1.2886 -0.4123 -0.5912
25705SOL    HW280708   8.130   3.301   1.524 -0.2954 -0.1426 -0.1433
25706SOL     OW80709   1.772   6.329   0.046  0.1390 -0.4072 -0.2696
25706SOL    HW180710   1.728   6.323  -0.038  0.4829 -0.6626 -0.4364
25706SOL    HW280711   1.773   6.422   0.067 -1.3909 -0.4744  0.2329
25707SOL     OW80712   9.571   6.061   7.809 -0.0005  0.4975  0.3668
25707SOL    HW180713   9.539   6.011   7.884  0.7690 -0.4519  0.0846
25707SOL    HW280714   9.504   6.048   7.742  0.1916 -0.1727  0.2939
25708SOL     OW80715   2.313   0.451   2.690  0.0791 -0.2324 -0.1233
25708SOL    HW180716   2.282   0.364   2.667 -0.4415 -0.2309  0.5533
25708SOL    HW280717   2.360   0.439   2.772  0.1978  0.0934 -0.1410
25709SOL     OW80718   3.521   1.078   4.578 -0.1704 -0.4697  0.4324
25709SOL    HW180719   3.611   1.107   4.561 -0.7086  0.5109 -0.8301
25709SOL    HW280720   3.499   1.022   4.503 -0.2598 -1.6197  1.2796
25710SOL     OW80721   8.054   7.818   4.649 -0.4346  0.4349 -0.1950
25710SOL    HW180722   8.060   7.856   4.737 -1.3764 -0.1185  0.1213
25710SOL    HW280723   8.108   7.874   4.595  1.2790  0.0150  0.9920
25711SOL     OW80724   7.328   2.198   0.208 -0.2245 -0.0085  0.4558
25711SOL    HW180725   7.376   2.195   0.291 -1.7998  0.1754  1.4135
25711SOL    HW280726   7.321   2.106   0.181  2.0555  0.0640 -0.5782
25712SOL     OW80727   0.879   8.997   8.825  0.2236 -0.1331 -0.5163
25712SOL    HW180728   0.926   8.917   8.846 -2.1411 -1.2064  1.0497
25712SOL    HW280729   0.846   8.984   8.736 -1.4668 -1.6728  0.2666
25713SOL     OW80730   4.957   0.947   2.884 -0.3276  0.0404 -0.7016
25713SOL    HW180731   4.912   1.023   2.848  0.4842  1.1842  0.5814
25713SOL    HW280732   5.040   0.943   2.836 -0.9447 -0.8842 -1.7153
25714SOL     OW80733   3.798   9.234   5.777  0.9351 -0.0576 -0.0748
25714SOL    HW180734   3.887   9.269   5.790  1.3804 -1.4951  0.9850
25714SOL    HW280735   3.811   9.141   5.759 -0.3658 -0.3182  0.2246
25715SOL     OW80736   0.077   9.025   0.143 -0.8625 -0.0269  0.1312
25715SOL    HW180737   0.082   9.019   0.048 -0.5674 -0.4552  0.1723
25715SOL    HW280738   0.109   9.113   0.163  0.7398 -0.5309 -0.0488
25716SOL     OW80739   8.186   5.825   5.182 -0.3537 -0.1383 -0.5735
25716SOL    HW180740   8.134   5.747   5.164  2.2148 -1.7342 -1.5980
25716SOL    HW280741   8.268   5.811   5.135  1.2302  2.0002  1.3254
25717SOL     OW80742   9.271   6.540   2.308 -0.0104  0.2229 -0.0318
25717SOL    HW180743   9.365   6.523   2.314 -0.1527 -0.0789  2.2615
25717SOL    HW280744   9.231   6.477   2.368 -1.6299  0.7631 -0.4756
25718SOL     OW80745   0.422   3.672   2.711 -0.1730  0.3868  0.7225
25718SOL    HW180746   0.369   3.630   2.779 -0.1466  1.5143  1.4810
25718SOL    HW280747   0.508   3.631   2.718 -0.9462 -1.6623 -0.7059
25719SOL     OW80748   0.771   7.731   5.412 -0.1593 -0.4372 -0.7666
25719SOL    HW180749   0.713   7.730   5.489 -0.8184 -0.1461 -1.2524
25719SOL    HW280750   0.716   7.699   5.340  0.5077 -0.8806 -1.0902
25720SOL     OW80751   4.151   7.066   1.018 -0.5829 -0.3356 -0.2801
25720SOL    HW180752   4.118   6.977   1.030  0.4956 -0.8169 -0.6986
25720SOL    HW280753   4.203   7.083   1.096 -0.5070 -0.2047 -0.3583
25721SOL     OW80754  10.377  10.786   2.880 -0.0007  0.2085  0.6704
25721SOL    HW180755  10.337  10.842   2.947 -1.6537 -0.3796  0.2014
25721SOL    HW280756  10.362  10.697   2.911  1.4024 -0.0432  0.7145
25722SOL     OW80757   1.362   6.573   4.279  0.0185 -0.0986  0.3238
25722SOL    HW180758   1.337   6.559   4.188  0.1748  0.6703  0.1495
25722SOL    HW280759   1.291   6.625   4.316  1.2077  2.0289 -0.1532
25723SOL     OW80760   7.905   1.687   3.372 -0.4898  0.7032 -0.0981
25723SOL    HW180761   7.952   1.740   3.437 -1.2731  1.6270 -0.2508
25723SOL    HW280762   7.819   1.673   3.411  0.0334 -1.4261  0.4125
25724SOL     OW80763   0.083   6.475   5.083 -0.1612 -0.8953 -0.8564
25724SOL    HW180764   0.063   6.416   5.156  1.5056  0.0418  0.4506
25724SOL    HW280765   0.019   6.546   5.093  0.3972 -0.4931  0.0940
25725SOL     OW80766   0.996   6.526   3.066  0.2565 -0.0444 -0.3111
25725SOL    HW180767   0.906   6.559   3.067 -0.1434 -1.1044  1.1508
25725SOL    HW280768   0.990   6.440   3.024  0.5459 -0.2037 -0.0298
25726SOL     OW80769   9.456   6.704   8.835 -0.1852  0.0422 -0.4443
25726SOL    HW180770   9.416   6.756   8.766 -1.2861 -0.4863 -0.2275
25726SOL    HW280771   9.406   6.623   8.836  0.3417 -0.2891  0.4305
25727SOL     OW80772   5.831   5.500   7.249  0.3293  0.2315  0.0855
25727SOL    HW180773   5.880   5.429   7.208 -2.2276 -1.3023 -0.5812
25727SOL    HW280774   5.739   5.474   7.239 -0.7192  3.3959  0.3083
25728SOL     OW80775   1.008   3.312   5.362 -0.0260 -0.4886  0.0897
25728SOL    HW180776   1.025   3.241   5.424  0.4916 -0.1661  0.3305
25728SOL    HW280777   0.928   3.353   5.395 -0.4180 -1.0566 -0.1449
25729SOL     OW80778   9.468  11.108  10.331  0.2778 -0.6092  0.0920
25729SOL    HW180779   9.557  11.122  10.365 -0.0451  0.7243  0.4208
25729SOL    HW280780   9.480  11.103  10.236  0.8986 -2.1460  0.2127
25730SOL     OW80781   3.623   1.379   0.675  0.2575 -0.0909  0.1392
25730SOL    HW180782   3.539   1.401   0.635  0.1950 -1.0850 -0.3155
25730SOL    HW280783   3.633   1.441   0.747  0.6948  2.2558 -1.8136
25731SOL     OW80784   3.332   2.754   2.002 -0.8294 -0.3194  0.4574
25731SOL    HW180785   3.355   2.687   2.066 -0.4562 -0.3564  0.2837
25731SOL    HW280786   3.256   2.798   2.040  0.4115  0.8031  1.7373
25732SOL     OW80787   8.642   4.572   1.002  0.2904 -0.4751 -0.3203
25732SOL    HW180788   8.612   4.518   1.076 -0.1607  0.1534 -0.0371
25732SOL    HW280789   8.562   4.611   0.967  0.5547 -0.4103 -0.8660
25733SOL     OW80790   9.807   3.289   8.915 -0.1503 -0.1103  0.1807
25733SOL    HW180791   9.842   3.352   8.853  0.8081 -0.7018  0.0965
25733SOL    HW280792   9.715   3.313   8.925 -0.0409  0.6738 -0.6074
25734SOL     OW80793   3.012   4.747   6.903  0.1343  0.7329  0.8989
25734SOL    HW180794   3.021   4.671   6.846  0.1592  1.5927 -0.2683
25734SOL    HW280795   2.954   4.718   6.973 -0.3349 -0.1765  0.1501
25735SOL     OW80796   2.818   2.646   7.097 -0.1706  0.1517  0.3043
25735SOL    HW180797   2.820   2.558   7.060 -1.9866 -0.1744  0.8511
25735SOL    HW280798   2.873   2.642   7.174 -2.7107 -1.5052  2.2100
25736SOL     OW80799   8.117   3.842   2.804 -0.3969 -0.2848  0.3209
25736SOL    HW180800   8.205   3.856   2.769  0.0988  0.1359  1.6678
25736SOL    HW280801   8.060   3.840   2.727  0.6196  0.7718 -0.4869
25737SOL     OW80802   5.104   3.398   5.736 -0.2623 -0.0372 -0.8776
25737SOL    HW180803   5.190   3.438   5.748 -1.3014  2.7330 -1.8571
25737SOL    HW280804   5.061   3.410   5.820 -0.0060 -0.6337 -0.6575
25738SOL     OW80805   2.450   5.698  10.080  0.5296  0.9830  0.4876
25738SOL    HW180806   2.505   5.642  10.135  0.0059 -0.1732 -0.1253
25738SOL    HW280807   2.370   5.710  10.131  0.1486  0.1289  0.1071
25739SOL     OW80808   3.117  10.692   8.929  0.1507  0.0695 -0.2760
25739SOL    HW180809   3.058  10.619   8.912  0.1553 -0.7403  2.6261
25739SOL    HW280810   3.178  10.692   8.855 -0.3385 -2.3703 -0.7507
25740SOL     OW80811   4.069   5.168   2.506 -0.2273 -0.0563  0.0928
25740SOL    HW180812   4.153   5.201   2.538 -0.5851  0.2974  0.7139
25740SOL    HW280813   4.035   5.115   2.579 -0.5630 -0.1489 -0.1297
25741SOL     OW80814   0.500   5.246   0.127 -0.4584 -0.6497  0.6127
25741SOL    HW180815   0.455   5.330   0.126  0.6639 -0.0344  0.2909
25741SOL    HW280816   0.469   5.201   0.048  0.5235  0.3385 -0.3640
25742SOL     OW80817   5.727   3.553   3.413 -0.0607 -0.8516  0.4481
25742SOL    HW180818   5.718   3.629   3.470  0.0185 -0.4464 -0.0809
25742SOL    HW280819   5.706   3.585   3.326  2.5452 -0.7818 -0.2414
25743SOL     OW80820   0.620   0.885  10.474 -0.1662  0.3105 -0.0097
25743SOL    HW180821   0.603   0.823  10.403  0.0884  0.4913 -0.2333
25743SOL    HW280822   0.655   0.832  10.545  0.5546  0.2622 -0.3883
25744SOL     OW80823   3.027   6.371   1.602 -0.1795  0.3872  0.1152
25744SOL    HW180824   2.955   6.309   1.610  1.0098 -0.8389  2.5562
25744SOL    HW280825   2.992   6.454   1.636 -0.7344  0.0733  0.3099
25745SOL     OW80826   0.557   3.894   8.811 -0.3792  0.2182 -0.1255
25745SOL    HW180827   0.634   3.916   8.863  1.6103 -1.3849 -2.1769
25745SOL    HW280828   0.510   3.977   8.801  0.7079  1.1302  1.6871
25746SOL     OW80829   3.534   0.678   7.009 -0.0196 -0.3657 -0.0222
25746SOL    HW180830   3.482   0.604   6.977  1.3481 -1.6707  0.6401
25746SOL    HW280831   3.483   0.713   7.083 -0.8858 -0.3565 -0.6169
25747SOL     OW80832   4.135   0.077   0.552  0.2651 -0.3340  0.1891
25747SOL    HW180833   4.146  -0.012   0.518 -0.1022 -0.5473  0.6206
25747SOL    HW280834   4.220   0.100   0.587 -0.1759 -1.3489  2.0331
25748SOL     OW80835   0.157   1.758  10.099 -0.2474  0.3828  0.6462
25748SOL    HW180836   0.196   1.807  10.027  0.7879  0.4474  1.2398
25748SOL    HW280837   0.180   1.808  10.177 -1.1097  0.1547  1.0605
25749SOL     OW80838   9.955   4.219   4.425 -0.1419 -0.1050 -0.3850
25749SOL    HW180839   9.915   4.234   4.511  1.2317  2.1376 -0.0699
25749SOL    HW280840   9.904   4.272   4.365 -0.1032 -0.4096 -0.6892
25750SOL     OW80841   6.465  10.209   6.985 -0.5333  0.2374  0.5463
25750SOL    HW180842   6.492  10.299   6.970 -2.3348  1.1413  2.3342
25750SOL    HW280843   6.528  10.175   7.049  0.3981  0.0303 -0.4386
25751SOL     OW80844   1.441   5.471   8.340 -0.3139 -0.6344 -0.3045
25751SOL    HW180845   1.359   5.479   8.389 -0.2343  0.5189 -0.3340
25751SOL    HW280846   1.483   5.393   8.377 -2.2093 -2.3448 -1.4993
25752SOL     OW80847   1.896   1.272   7.898 -0.3633 -0.0729  0.4172
25752SOL    HW180848   1.837   1.199   7.915 -0.1933 -0.4344 -0.4776
25752SOL    HW280849   1.973   1.232   7.858 -0.0791  0.5406  0.3435
25753SOL     OW80850   6.384   5.666   8.526  0.1927 -0.3876 -0.5395
25753SOL    HW180851   6.394   5.571   8.532  0.9964 -0.2951 -0.1912
25753SOL    HW280852   6.290   5.682   8.533  0.0027 -1.1925 -1.1623
25754SOL     OW80853   3.778   2.759   3.370 -0.0133  0.4671  0.4186
25754SOL    HW180854   3.760   2.849   3.346  1.1099  0.7768  0.6868
25754SOL    HW280855   3.868   2.743   3.341 -0.6195 -0.9984 -0.8271
25755SOL     OW80856   1.314   0.282   7.310 -0.2315 -0.3972 -0.9002
25755SOL    HW180857   1.376   0.209   7.306  1.2500  0.5951  1.4602
25755SOL    HW280858   1.241   0.249   7.363  1.5924  0.3961  2.4388
25756SOL     OW80859   0.686  10.698   3.654 -0.0313 -0.0511  0.3867
25756SOL    HW180860   0.664  10.766   3.590  0.6742  2.1547  2.3225
25756SOL    HW280861   0.771  10.665   3.626 -0.4842 -0.3305 -0.7025
25757SOL     OW80862   3.606   0.086  10.783  0.4921 -0.1906 -0.0173
25757SOL    HW180863   3.691   0.082  10.739  0.4475  0.6198 -0.2040
25757SOL    HW280864   3.576   0.176  10.769  0.0423 -0.1870  0.8804
25758SOL     OW80865   9.125   5.398   1.366 -0.0186  0.0008 -0.2106
25758SOL    HW180866   9.097   5.343   1.440 -1.4473  1.6985  0.5956
25758SOL    HW280867   9.048   5.451   1.345  0.9287  0.8550 -1.7377
25759SOL     OW80868   5.736   8.191   8.318 -0.2985 -0.1308  0.1331
25759SOL    HW180869   5.768   8.278   8.294 -1.4814 -0.0131 -1.1560
25759SOL    HW280870   5.782   8.170   8.399  0.0489  1.6701  0.4445
25760SOL     OW80871   1.863   5.473   7.515 -0.3025 -0.7594 -0.1636
25760SOL    HW180872   1.767   5.473   7.513 -0.3018 -1.1692 -0.9059
25760SOL    HW280873   1.887   5.544   7.574 -1.0936 -2.1626  1.9376
25761SOL     OW80874   8.127   4.040   1.564 -0.2780  0.0908  0.3456
25761SOL    HW180875   8.158   4.089   1.488 -1.0366  0.5609  0.3287
25761SOL    HW280876   8.039   4.011   1.540  0.1637 -1.3436  0.3374
25762SOL     OW80877   3.580   7.181  11.089 -0.9278 -0.1336  0.2305
25762SOL    HW180878   3.528   7.116  11.042 -1.7592  1.1680 -0.6999
25762SOL    HW280879   3.621   7.234  11.020 -1.1996  1.0578  0.9534
25763SOL     OW80880   3.230   4.073  10.226  0.6289 -0.5252 -0.1992
25763SOL    HW180881   3.180   4.001  10.264 -0.1016  0.8625  1.6641
25763SOL    HW280882   3.285   4.104  10.298 -2.0661  3.3590  0.4999
25764SOL     OW80883   5.325   3.414   9.374 -0.6588  0.0299 -0.4882
25764SOL    HW180884   5.316   3.356   9.299 -1.7822 -1.1447  0.4999
25764SOL    HW280885   5.419   3.427   9.383 -0.5176  1.5495 -3.0446
25765SOL     OW80886  10.389   6.326   3.692 -0.4025 -0.5063 -0.1788
25765SOL    HW180887  10.446   6.395   3.725 -2.7845  1.9449 -0.7967
25765SOL    HW280888  10.335   6.300   3.767  1.1044 -2.5203  0.3031
25766SOL     OW80889   5.697   4.237   3.839 -0.1491  0.0073 -0.1572
25766SOL    HW180890   5.607   4.207   3.827 -0.1620 -0.3721  0.8476
25766SOL    HW280891   5.736   4.229   3.751 -1.3487  1.1157 -0.8265
25767SOL     OW80892   9.907   2.190   5.640  0.2525 -1.0668  0.1309
25767SOL    HW180893   9.823   2.229   5.618  0.3151 -0.7645  0.4226
25767SOL    HW280894   9.922   2.125   5.571 -0.5111 -1.5583  0.4149
25768SOL     OW80895   5.413   9.332   6.568 -0.0266  0.0098 -0.0366
25768SOL    HW180896   5.370   9.376   6.642 -1.3139 -0.0411 -0.7083
25768SOL    HW280897   5.430   9.243   6.599  2.4740  0.8530  1.2919
25769SOL     OW80898  10.724   5.983   8.198  0.0186  0.4646 -0.1271
25769SOL    HW180899  10.743   6.034   8.277  1.5850  0.8431 -0.6963
25769SOL    HW280900  10.708   6.049   8.130  1.6417  0.2518 -0.7710
25770SOL     OW80901   3.790   5.154   4.816 -0.3593  0.5329 -0.0190
25770SOL    HW180902   3.694   5.157   4.817 -0.4147 -0.3168 -1.0026
25770SOL    HW280903   3.814   5.146   4.908 -1.2850 -0.1176  0.1909
25771SOL     OW80904   9.426   6.010  10.118 -0.2879 -0.0794 -1.1608
25771SOL    HW180905   9.383   6.079  10.067 -0.8110 -1.4650 -2.6438
25771SOL    HW280906   9.364   5.991  10.189  0.4801  1.9109  0.1464
25772SOL     OW80907   6.950   4.704   4.995 -0.0678 -0.1550 -1.1201
25772SOL    HW180908   6.890   4.771   5.028  0.0332 -0.5040 -0.1920
25772SOL    HW280909   7.032   4.752   4.977  0.2586 -0.1371  0.2886
25773SOL     OW80910   3.934   2.454   7.243  0.0291  0.0483  0.3897
25773SOL    HW180911   3.851   2.440   7.289 -1.0289  1.6741 -0.8767
25773SOL    HW280912   3.979   2.521   7.294  0.6130 -0.8536  1.0922
25774SOL     OW80913   6.352   8.330  10.089 -0.0684  0.0612  0.2817
25774SOL    HW180914   6.371   8.326  10.182 -0.9194 -0.3942  0.4498
25774SOL    HW280915   6.285   8.397  10.080 -0.0612  0.0361  0.0064
25775SOL     OW80916   9.287  11.013   4.649  0.4555 -0.3466  0.4317
25775SOL    HW180917   9.271  10.950   4.720 -0.9210  0.7711  1.1878
25775SOL    HW280918   9.203  11.018   4.603  1.1104 -0.4634 -0.7860
25776SOL     OW80919   2.505   2.700   6.766 -0.8263 -0.1138  0.3107
25776SOL    HW180920   2.534   2.718   6.855  0.9054  1.3283 -0.4845
25776SOL    HW280921   2.577   2.730   6.711 -1.8124 -1.0662 -1.5843
25777SOL     OW80922   5.679   3.081   4.921 -0.1118  1.2567  0.1309
25777SOL    HW180923   5.673   3.173   4.896 -1.4368  1.2717  0.4521
25777SOL    HW280924   5.772   3.068   4.941  0.0185  2.6397  0.5253
25778SOL     OW80925  10.675   4.059   3.602 -0.3031  0.1778 -0.9921
25778SOL    HW180926  10.744   4.001   3.573 -0.4023 -0.1393 -0.6049
25778SOL    HW280927  10.720   4.139   3.629  0.1355 -0.6788  1.0277
25779SOL     OW80928   4.820   5.888   5.751 -0.3016 -0.4823  0.5431
25779SOL    HW180929   4.741   5.936   5.727 -0.6937 -1.1084  0.5792
25779SOL    HW280930   4.889   5.927   5.697 -0.4508  0.6786  1.1623
25780SOL     OW80931   2.710   9.625   8.125 -0.5640 -0.7691 -0.1410
25780SOL    HW180932   2.782   9.678   8.161 -0.7041  0.8685 -2.0884
25780SOL    HW280933   2.636   9.685   8.121 -1.0413 -1.4016 -1.3818
25781SOL     OW80934   6.624   5.224   4.167 -0.2895 -0.4564  0.5001
25781SOL    HW180935   6.577   5.304   4.191  0.3572  0.2788 -0.6101
25781SOL    HW280936   6.560   5.154   4.179 -1.5383  0.4614 -0.5165
25782SOL     OW80937   3.910   7.156   4.006 -0.1027 -0.4575 -0.2467
25782SOL    HW180938   4.004   7.174   4.015 -0.2142 -0.5907  1.8908
25782SOL    HW280939   3.885   7.194   3.923  1.6584  0.4523 -0.3961
25783SOL     OW80940   0.293   8.972   7.391  0.2862  0.1540  0.7100
25783SOL    HW180941   0.341   8.891   7.376  0.0051 -0.5877  3.3202
25783SOL    HW280942   0.218   8.967   7.332  1.7158 -0.1386 -1.1532
25784SOL     OW80943   4.206   7.203   0.627 -0.0288  0.1111  0.7730
25784SOL    HW180944   4.228   7.112   0.604 -0.2234 -0.5320  2.9397
25784SOL    HW280945   4.289   7.241   0.655 -0.3385 -0.1174  2.0516
25785SOL     OW80946   6.942   6.537   6.596  0.3952  0.1984  0.0739
25785SOL    HW180947   7.015   6.525   6.535  0.4691  0.5125  0.0994
25785SOL    HW280948   6.872   6.573   6.541 -0.6656 -2.5430 -0.5574
25786SOL     OW80949  10.589   4.589   0.371 -0.2929  0.2152 -0.2380
25786SOL    HW180950  10.591   4.574   0.466 -0.7527  2.1044  0.1243
25786SOL    HW280951  10.648   4.524   0.335  0.5934  0.0221  1.4479
25787SOL     OW80952   1.512   7.362   4.095  0.6699  0.3048  1.0052
25787SOL    HW180953   1.581   7.315   4.142 -0.5604 -0.5813  1.9786
25787SOL    HW280954   1.557   7.402   4.020  2.2498 -0.1486  1.6775
25788SOL     OW80955   5.800   7.847   3.764 -0.1686  0.1575  0.0941
25788SOL    HW180956   5.825   7.939   3.764 -0.0670  0.2294 -3.0225
25788SOL    HW280957   5.860   7.806   3.828  1.8816  1.7709 -0.6915
25789SOL     OW80958   7.886   3.578   9.985 -0.2214 -0.1833  0.0880
25789SOL    HW180959   7.897   3.639  10.058 -0.4077  0.5688 -0.4891
25789SOL    HW280960   7.795   3.550   9.991 -0.5475  0.7061 -0.4571
25790SOL     OW80961   8.835   9.031   6.697 -0.4346 -0.1992  0.4664
25790SOL    HW180962   8.811   9.084   6.621  0.7860 -0.0207  0.1738
25790SOL    HW280963   8.931   9.027   6.694 -0.0553  2.3582  3.6490
25791SOL     OW80964   7.282   6.366   0.137 -0.6082  0.1183 -0.3198
25791SOL    HW180965   7.259   6.456   0.159 -0.7368 -0.1550  0.6767
25791SOL    HW280966   7.251   6.356   0.046  0.1189  1.3053 -0.7243
25792SOL     OW80967   9.768   0.624   3.019  0.1947 -0.1754  0.0248
25792SOL    HW180968   9.832   0.591   3.083  0.1253 -0.1674  0.0977
25792SOL    HW280969   9.726   0.697   3.064  1.6998  1.2825 -0.8130
25793SOL     OW80970   0.911   5.553   3.350 -0.2942  0.4797 -0.5257
25793SOL    HW180971   0.954   5.628   3.309 -2.2379  1.5051 -0.7898
25793SOL    HW280972   0.876   5.503   3.276 -0.3365  0.1294 -0.2709
25794SOL     OW80973   1.714   4.244   1.013 -0.2957 -0.2586  0.1668
25794SOL    HW180974   1.649   4.276   1.074 -0.8985 -1.2173  0.0463
25794SOL    HW280975   1.674   4.167   0.972  0.8222 -0.7565 -0.0519
25795SOL     OW80976   6.449   0.572   8.836  0.0553 -0.3822 -0.3849
25795SOL    HW180977   6.492   0.625   8.904 -1.6526 -0.5689  0.9207
25795SOL    HW280978   6.364   0.614   8.824  1.0573  0.9102 -4.0320
25796SOL     OW80979   1.413   3.637   5.667  0.0242  0.4855 -0.3514
25796SOL    HW180980   1.355   3.651   5.742 -1.6672  1.0615 -1.6821
25796SOL    HW280981   1.380   3.557   5.626  0.6936  0.3692 -0.6778
25797SOL     OW80982   6.689   9.659   8.700  0.8677 -0.2289  0.1253
25797SOL    HW180983   6.641   9.729   8.743  2.8854  0.6483  1.0807
25797SOL    HW280984   6.641   9.644   8.618 -1.0303  0.5045  1.0395
25798SOL     OW80985   2.409  10.906   8.463 -0.0303 -0.2475  0.1506
25798SOL    HW180986   2.379  10.991   8.429 -1.1938 -0.5152  0.4484
25798SOL    HW280987   2.498  10.897   8.430 -0.2680  0.6059 -0.7793
25799SOL     OW80988  10.415   9.351   6.426  0.2982 -0.2142  0.1803
25799SOL    HW180989  10.404   9.353   6.521  1.2506 -1.6417  0.3601
25799SOL    HW280990  10.393   9.261   6.401 -0.0526  0.1644 -0.9754
25800SOL     OW80991  10.285   3.265   9.906 -0.7125  0.1385  0.1406
25800SOL    HW180992  10.308   3.176   9.880 -0.5215  0.5901 -1.3045
25800SOL    HW280993  10.193   3.258   9.934 -0.4730 -0.6429  0.7673
25801SOL     OW80994   7.974   3.582   1.359  0.2600  0.2173 -0.0788
25801SOL    HW180995   7.968   3.616   1.448 -0.3287 -0.2742  0.0733
25801SOL    HW280996   7.972   3.661   1.304  3.5487  0.7708  0.3939
25802SOL     OW80997   8.404   3.344   0.704  0.0735 -0.1388 -0.2841
25802SOL    HW180998   8.319   3.345   0.660  0.2652 -1.3948 -0.7192
25802SOL    HW280999   8.383   3.335   0.797 -0.3069  1.6012 -0.1781
25803SOL     OW81000   7.992   2.798   8.076 -0.5031 -0.3855 -0.1116
25803SOL    HW181001   8.018   2.820   8.165 -1.3265  0.1557  0.0030
25803SOL    HW281002   8.066   2.746   8.042  0.8040  1.2332  0.1265
25804SOL     OW81003   1.325   1.196   0.629 -0.3532 -0.1867 -0.2991
25804SOL    HW181004   1.397   1.238   0.677 -1.3789  1.6048 -0.2564
25804SOL    HW281005   1.328   1.104   0.657  1.6918 -0.1005 -0.0526
25805SOL     OW81006   5.893   9.986   3.877 -0.2609  0.1459 -0.1159
25805SOL    HW181007   5.949  10.017   3.805 -2.7048  1.0522 -1.7700
25805SOL    HW281008   5.872   9.896   3.853 -0.4717  0.2040 -0.1477
25806SOL     OW81009   7.997   1.165   4.793  0.0059 -0.1458  0.2254
25806SOL    HW181010   8.037   1.180   4.878  2.1958 -2.5795 -0.2246
25806SOL    HW281011   8.011   1.247   4.745  2.1780  0.0281  1.0204
25807SOL     OW81012  10.062   1.449   6.007  0.9818  0.7131  0.1761
25807SOL    HW181013  10.052   1.466   5.913  2.4554  1.3640  0.1185
25807SOL    HW281014  10.142   1.397   6.013  0.6042  0.2169  1.0469
25808SOL     OW81015   3.157   7.568  10.378  0.3916 -0.2139 -0.1514
25808SOL    HW181016   3.129   7.606  10.462 -0.8020 -0.1925 -0.5435
25808SOL    HW281017   3.167   7.644  10.320  0.8369 -0.2649 -0.1481
25809SOL     OW81018   5.811   2.113  11.063  0.5686  0.1666 -0.0168
25809SOL    HW181019   5.847   2.129  10.976 -0.7904 -0.4306 -0.7176
25809SOL    HW281020   5.745   2.182  11.075 -0.0203 -0.4049  0.0740
25810SOL     OW81021   5.266   3.910   5.461  0.0048  0.3386  0.5575
25810SOL    HW181022   5.264   3.858   5.381  1.2253  1.3331 -0.1449
25810SOL    HW281023   5.268   4.001   5.432 -1.4688  0.8162  1.7608
25811SOL     OW81024   1.968   9.355   7.972 -0.0734 -0.7154 -0.7774
25811SOL    HW181025   1.907   9.304   7.918 -0.1253 -2.5740  0.9241
25811SOL    HW281026   1.911   9.408   8.028 -0.0955 -1.0995 -0.4327
25812SOL     OW81027   9.597   2.349   3.070  0.0456 -0.1685  0.2539
25812SOL    HW181028   9.676   2.302   3.045  0.1317 -0.5880  1.2766
25812SOL    HW281029   9.603   2.432   3.024  1.1756 -0.1199  0.4713
25813SOL     OW81030   5.399   8.577   7.684  0.1609  0.9118  0.1945
25813SOL    HW181031   5.313   8.604   7.715 -0.7293 -1.3465 -0.0732
25813SOL    HW281032   5.461   8.627   7.736 -1.3110  1.9059  1.0432
25814SOL     OW81033   0.935   0.970  11.019 -0.1650  0.4751  0.4271
25814SOL    HW181034   0.871   0.913  10.976  1.8105 -0.3331 -1.6660
25814SOL    HW281035   0.936   1.049  10.965  1.4199 -0.0239 -0.3261
25815SOL     OW81036   9.092   2.685   5.698 -0.5546 -0.0331 -0.1554
25815SOL    HW181037   9.012   2.632   5.687 -0.5358  0.0494 -0.6805
25815SOL    HW281038   9.140   2.640   5.768 -1.1717  0.0499  0.3340
25816SOL     OW81039   1.986  10.059   5.776  0.0797  0.1658  0.7612
25816SOL    HW181040   2.064  10.100   5.739 -0.8407  0.9929 -0.3105
25816SOL    HW281041   1.956  10.121   5.843 -0.5350  0.6024  0.0895
25817SOL     OW81042   9.203   8.577  10.525 -0.1273 -0.5899  0.2700
25817SOL    HW181043   9.207   8.671  10.508 -0.1523 -0.7554 -0.7128
25817SOL    HW281044   9.218   8.537  10.440 -1.7856 -1.4685  0.3561
25818SOL     OW81045  10.100   6.636   0.514 -0.3979 -0.1386 -0.8049
25818SOL    HW181046  10.079   6.653   0.422  1.1732 -0.2882 -1.2202
25818SOL    HW281047  10.169   6.699   0.535 -0.4109 -0.4194  0.1441
25819SOL     OW81048   5.235   1.066   5.184 -0.4674  0.3943  0.0576
25819SOL    HW181049   5.282   0.997   5.230 -0.5108  1.2318  1.4298
25819SOL    HW281050   5.297   1.101   5.121  0.4914  0.8935  1.2373
25820SOL     OW81051   7.150   6.246   3.149  0.3261  0.2786 -0.1331
25820SOL    HW181052   7.162   6.173   3.087 -3.0538  0.1981 -0.8928
25820SOL    HW281053   7.115   6.317   3.096 -3.1102  0.0810  1.6068
25821SOL     OW81054   7.996   8.022   4.868 -0.1103  0.5969  0.0662
25821SOL    HW181055   7.969   8.080   4.797  0.0317 -0.6794 -1.0767
25821SOL    HW281056   8.090   8.039   4.878 -0.3055  1.4226  0.5849
25822SOL     OW81057   0.216   0.520   8.318 -0.4747 -0.4255 -0.4467
25822SOL    HW181058   0.159   0.527   8.242 -0.0804 -1.7738 -0.8941
25822SOL    HW281059   0.299   0.488   8.283  0.0635 -0.0042  0.4061
25823SOL     OW81060  10.128   7.341   5.036 -0.5342 -0.2125 -0.0615
25823SOL    HW181061  10.055   7.378   5.085  0.5249  1.5275  0.3062
25823SOL    HW281062  10.187   7.308   5.104 -1.0355 -1.7990 -0.3596
25824SOL     OW81063  10.897   7.562   2.207 -0.5660  0.1696 -0.2538
25824SOL    HW181064  10.936   7.551   2.293  0.7976  2.0142 -0.5652
25824SOL    HW281065  10.804   7.546   2.220 -0.1718 -1.1173  1.2148
25825SOL     OW81066   4.284   6.801   3.902  0.2117  0.5457 -0.6162
25825SOL    HW181067   4.300   6.708   3.917 -2.0809 -0.0613 -1.5144
25825SOL    HW281068   4.262   6.808   3.809  4.3757  2.7052 -1.7020
25826SOL     OW81069   7.826   5.542   6.652  0.0346 -0.3045 -0.2491
25826SOL    HW181070   7.825   5.506   6.564 -0.9835  0.3581 -0.5217
25826SOL    HW281071   7.844   5.636   6.640  0.1326 -0.2543  0.2627
25827SOL     OW81072   3.346   3.466   4.407 -0.2700  0.1042 -0.7305
25827SOL    HW181073   3.335   3.428   4.494 -1.9033  3.2602  0.6165
25827SOL    HW281074   3.430   3.432   4.376 -0.3005 -2.2294  1.4329
25828SOL     OW81075   5.846   3.022   4.014  0.6562  0.1958 -0.1301
25828SOL    HW181076   5.898   2.942   4.016  1.6239  0.7611 -1.2602
25828SOL    HW281077   5.906   3.088   3.980 -0.0488  1.4703  1.0226
25829SOL     OW81078   1.870   0.094   4.496  0.1695 -0.0160  0.4362
25829SOL    HW181079   1.914   0.124   4.417  1.7050 -0.6746  0.9930
25829SOL    HW281080   1.870   0.169   4.555  0.0365  0.1494  0.2242
25830SOL     OW81081  10.427   7.499   9.270 -0.1256 -0.1272  0.3423
25830SOL    HW181082  10.410   7.542   9.353  0.1848  0.9055 -0.1142
25830SOL    HW281083  10.341   7.481   9.233 -0.2875 -1.3159  1.2267
25831SOL     OW81084  10.647   0.450   4.486  0.4707  0.0897 -0.0263
25831SOL    HW181085  10.573   0.499   4.520  2.1494  0.9032  2.7392
25831SOL    HW281086  10.698   0.515   4.437  0.3474 -0.0025 -0.2777
25832SOL     OW81087   3.452   2.055   8.873 -0.3415 -0.3514 -0.2685
25832SOL    HW181088   3.542   2.051   8.841 -0.4119 -0.5348 -0.4507
25832SOL    HW281089   3.422   1.964   8.870 -0.3365 -0.3808  0.3640
25833SOL     OW81090   1.851   5.092   4.470 -0.0274  0.3602 -0.3635
25833SOL    HW181091   1.889   5.043   4.397  1.2851  1.1279 -0.2254
25833SOL    HW281092   1.897   5.060   4.547 -0.5977  0.3760 -0.0127
25834SOL     OW81093   4.864   9.340  10.582  0.8927 -0.5079  0.2321
25834SOL    HW181094   4.861   9.325  10.487 -0.4370 -0.1367  0.2015
25834SOL    HW281095   4.958   9.344  10.602  1.1993 -0.9781 -0.9991
25835SOL     OW81096   0.031   4.518   7.025  0.0612 -0.0690  0.2839
25835SOL    HW181097  -0.025   4.584   7.065 -0.5958 -0.5113  0.1095
25835SOL    HW281098   0.104   4.508   7.087 -0.1605  0.3573  0.6170
25836SOL     OW81099   4.369   2.051   7.536 -1.1711  0.2251  0.4810
25836SOL    HW181100   4.403   2.054   7.626 -2.3684  0.7104  0.9284
25836SOL    HW281101   4.359   2.143   7.511 -0.0809  0.1120 -0.4689
25837SOL     OW81102  10.921   8.460   4.142  0.2564 -0.5389 -0.7333
25837SOL    HW181103  10.952   8.494   4.226  1.4638 -0.4435 -1.1975
25837SOL    HW281104  10.868   8.531   4.106  1.1423  0.1068 -0.8085
25838SOL     OW81105   1.064   0.053   5.581  0.3804 -0.6104 -0.2747
25838SOL    HW181106   0.997   0.056   5.512  0.2699  0.1980 -0.1396
25838SOL    HW281107   1.093   0.143   5.590 -0.3919 -0.5020  1.5112
25839SOL     OW81108   9.565   7.362  10.747 -1.0775 -0.8038 -0.4305
25839SOL    HW181109   9.651   7.322  10.758 -0.5758  0.3790  0.1227
25839SOL    HW281110   9.539   7.387  10.836 -0.9412  0.9175 -0.8416
25840SOL     OW81111   4.287   7.711   9.412  0.4064 -0.5521  0.5646
25840SOL    HW181112   4.255   7.797   9.382 -1.3160 -0.5144  2.3447
25840SOL    HW281113   4.370   7.700   9.366  0.7433  2.1230  0.3705
25841SOL     OW81114   2.019   9.408   2.185  0.0848 -0.0657 -0.6745
25841SOL    HW181115   2.014   9.502   2.167 -0.1771 -0.2095 -1.3523
25841SOL    HW281116   2.044   9.369   2.102  2.0848 -0.4200  0.0385
25842SOL     OW81117   3.001  10.969   0.458 -0.6076  0.2014 -0.0882
25842SOL    HW181118   3.062  10.980   0.385 -0.0366  1.6479  0.5758
25842SOL    HW281119   3.044  10.908   0.517 -0.8934 -0.6612 -0.7458
25843SOL     OW81120  10.544   5.793   8.129 -0.3406  0.3274 -0.5916
25843SOL    HW181121  10.506   5.783   8.216 -2.5000  2.4144 -1.1582
25843SOL    HW281122  10.610   5.860   8.139 -0.7516  0.7361 -0.5762
25844SOL     OW81123   8.454  10.124   1.299  0.0068  0.0964  0.0070
25844SOL    HW181124   8.535  10.075   1.290 -0.1292 -0.6198  1.9913
25844SOL    HW281125   8.392  10.081   1.240  0.8315  0.1120 -0.8794
25845SOL     OW81126   1.635   4.032   1.544 -0.0730  0.3108  0.1593
25845SOL    HW181127   1.700   3.970   1.512  0.4970  1.1250 -0.3146
25845SOL    HW281128   1.635   4.103   1.479 -1.1293  0.5307  0.3737
25846SOL     OW81129   3.548  10.864   1.995  0.1866  0.1017  0.0992
25846SOL    HW181130   3.484  10.799   2.023  0.1901 -0.3617 -0.9096
25846SOL    HW281131   3.552  10.927   2.067 -1.3538  0.1166  0.1913
25847SOL     OW81132   1.468   5.571  10.978  0.1199 -0.0791 -0.0923
25847SOL    HW181133   1.394   5.524  10.939  1.3282 -1.6521 -0.5996
25847SOL    HW281134   1.510   5.506  11.035  1.1801  0.7466  0.0889
25848SOL     OW81135   4.426   1.936  11.046 -0.2463  0.1186  0.0817
25848SOL    HW181136   4.353   1.937  10.985 -1.4548 -0.9950  1.4338
25848SOL    HW281137   4.481   1.864  11.016 -0.5184 -0.0418 -0.0312
25849SOL     OW81138   0.263   9.767   3.925  0.3178 -0.6674 -0.1270
25849SOL    HW181139   0.242   9.837   3.863  2.0583  1.1604  1.2262
25849SOL    HW281140   0.305   9.812   3.998 -2.4286 -2.6163  2.8824
25850SOL     OW81141   2.512   2.654   3.622 -0.0123 -0.1564 -1.1522
25850SOL    HW181142   2.457   2.727   3.650  0.8240 -0.3242  1.0411
25850SOL    HW281143   2.591   2.696   3.587  0.0910 -0.0013 -0.7323
25851SOL     OW81144   2.237   1.947   5.234  0.4739 -0.3107  0.1593
25851SOL    HW181145   2.239   1.852   5.245  0.7758 -0.2997  0.2214
25851SOL    HW281146   2.252   1.960   5.140  1.2023 -0.3042  0.2690
25852SOL     OW81147   4.241   4.655   0.938 -0.1076 -0.6185 -0.2370
25852SOL    HW181148   4.177   4.588   0.912 -2.0737  1.1221 -0.1792
25852SOL    HW281149   4.262   4.634   1.029 -0.4320 -1.3674 -0.3301
25853SOL     OW81150   8.347   9.600  10.991  0.3528  0.2965  0.3924
25853SOL    HW181151   8.387   9.535  10.932 -0.1906  0.4142 -0.1089
25853SOL    HW281152   8.375   9.684  10.957 -2.7751  0.5827 -1.9073
25854SOL     OW81153  10.740   9.181  10.303 -0.0228 -1.0170  0.4442
25854SOL    HW181154  10.648   9.160  10.293  0.1468 -1.0715 -1.1920
25854SOL    HW281155  10.775   9.111  10.358 -1.1198 -0.4822  1.8858
25855SOL     OW81156   3.757   6.699   3.844 -0.6856  0.4654  0.0114
25855SOL    HW181157   3.746   6.775   3.787  1.1511  1.0195  0.3487
25855SOL    HW281158   3.851   6.687   3.851 -0.9254 -1.6233  0.2839
25856SOL     OW81159  11.003   1.696   8.592  0.5132 -0.2556 -0.7081
25856SOL    HW181160  11.000   1.762   8.522  0.0917  0.3727 -0.1099
25856SOL    HW281161  10.917   1.654   8.589 -0.2985  1.1998  0.7591
25857SOL     OW81162   5.761   2.463   5.196  0.6685 -0.0716  0.0886
25857SOL    HW181163   5.821   2.535   5.214  0.0417  0.1850  1.2067
25857SOL    HW281164   5.710   2.492   5.121  1.2456  0.1302 -0.2305
25858SOL     OW81165   2.134   6.238   1.807  0.5460  0.1161  0.5527
25858SOL    HW181166   2.143   6.148   1.838  1.0075  0.0065  0.1310
25858SOL    HW281167   2.083   6.283   1.874  0.7325 -0.3422  1.0041
25859SOL     OW81168   1.689   4.867   3.209  0.1699 -0.2555 -0.3259
25859SOL    HW181169   1.697   4.902   3.298 -0.2771  0.4224 -0.5362
25859SOL    HW281170   1.640   4.935   3.162  0.3578 -0.6313 -1.0739
25860SOL     OW81171   3.472   8.943   2.909 -0.3651  0.9455 -0.2452
25860SOL    HW181172   3.414   8.881   2.952  1.1161  0.5320  1.2956
25860SOL    HW281173   3.537   8.888   2.864 -0.5743  1.3897 -1.1098
25861SOL     OW81174   8.799   5.475   1.814  0.0990 -0.0605  0.1238
25861SOL    HW181175   8.802   5.566   1.845 -0.0791  0.3008 -0.8919
25861SOL    HW281176   8.726   5.473   1.753  0.4999 -0.7291 -0.3486
25862SOL     OW81177   8.731   8.503   5.430 -0.2025  0.4135 -0.1342
25862SOL    HW181178   8.677   8.430   5.459 -0.5029  0.8363  0.3948
25862SOL    HW281179   8.681   8.581   5.454  0.4076  0.8039 -0.0900
25863SOL     OW81180   9.378   1.475  10.273 -0.1516  0.0229 -0.0252
25863SOL    HW181181   9.299   1.428  10.243 -0.3190  0.8441 -0.9307
25863SOL    HW281182   9.450   1.418  10.248 -0.4665 -1.0244  1.3567
25864SOL     OW81183   8.062   6.882  10.143 -0.2974 -0.2417 -0.0490
25864SOL    HW181184   8.157   6.878  10.154 -0.1912  1.9199  0.2556
25864SOL    HW281185   8.049   6.899  10.049 -0.2981  0.9011  0.1478
25865SOL     OW81186   1.557   3.613   6.917  0.0365 -0.7821  0.4833
25865SOL    HW181187   1.543   3.519   6.924 -0.6236 -0.7388 -0.1672
25865SOL    HW281188   1.631   3.622   6.857  0.6204 -0.9043  1.1746
25866SOL     OW81189   5.046   4.255   7.294  0.4207  0.2212  0.2568
25866SOL    HW181190   5.061   4.189   7.361  0.1579  0.8040  0.9073
25866SOL    HW281191   4.977   4.310   7.330  0.5525  0.7800 -0.3228
25867SOL     OW81192   4.772   9.500   2.002 -0.3268 -0.0866 -0.3851
25867SOL    HW181193   4.861   9.518   2.032  0.1465 -2.1094 -0.4496
25867SOL    HW281194   4.716   9.548   2.063  0.7725  0.2769  0.3650
25868SOL     OW81195   9.748   4.972   2.192  0.9175  0.1778  0.5491
25868SOL    HW181196   9.760   5.046   2.132 -1.2666 -0.3907 -0.7041
25868SOL    HW281197   9.660   4.985   2.227  1.5175 -0.4376  2.3813
25869SOL     OW81198   7.908   1.958  10.778 -0.0091 -1.1984 -0.3546
25869SOL    HW181199   7.813   1.942  10.776  0.0881 -1.9403  0.2300
25869SOL    HW281200   7.917   2.045  10.817 -0.3630 -2.6402  3.3701
25870SOL     OW81201   7.379   7.606   4.980 -0.2422 -0.6154  0.8565
25870SOL    HW181202   7.339   7.611   5.068  0.3977 -1.7216  1.2349
25870SOL    HW281203   7.453   7.666   4.983 -0.7070 -0.0350  0.7994
25871SOL     OW81204   0.536   8.730   3.651  0.1686 -0.4676 -0.0188
25871SOL    HW181205   0.558   8.771   3.567 -3.0722 -0.9593 -1.2336
25871SOL    HW281206   0.480   8.794   3.695  1.8853 -0.1838  1.9056
25872SOL     OW81207   7.755   0.497  10.252 -0.0204 -0.5312 -0.0201
25872SOL    HW181208   7.822   0.557  10.285  1.7668  0.4317 -4.6100
25872SOL    HW281209   7.745   0.431  10.321  3.4561  0.9489  2.1425
25873SOL     OW81210   7.158   1.003   1.034  0.2286  0.4977  0.7816
25873SOL    HW181211   7.190   1.083   1.076  1.8054 -0.4384  1.4491
25873SOL    HW281212   7.231   0.973   0.980 -0.3525 -0.4705  0.5124
25874SOL     OW81213   5.637   3.764   6.224  0.6926 -0.2416  0.7218
25874SOL    HW181214   5.689   3.796   6.150 -0.0137  1.5552  0.9468
25874SOL    HW281215   5.700   3.756   6.296  0.8167  1.2434  0.8059
25875SOL     OW81216   1.153   9.129   5.593 -0.0065 -0.3056 -0.4250
25875SOL    HW181217   1.188   9.204   5.642  0.5719 -0.6556 -0.2941
25875SOL    HW281218   1.135   9.164   5.506  2.1009 -0.4511 -0.9641
25876SOL     OW81219   7.472   6.518  10.367 -0.2972  0.0756  0.6563
25876SOL    HW181220   7.393   6.532  10.315 -0.5817 -0.1840  1.0200
25876SOL    HW281221   7.484   6.600  10.415 -0.9642 -0.2789  1.4358
25877SOL     OW81222   7.699   8.009   0.837  0.0029  0.3536  0.1936
25877SOL    HW181223   7.735   8.090   0.872  1.6850 -0.8366  1.3641
25877SOL    HW281224   7.775   7.957   0.812 -1.0436 -0.7289 -0.9024
25878SOL     OW81225   5.326   8.576   7.290  0.2650 -0.9529 -0.4871
25878SOL    HW181226   5.374   8.501   7.257 -0.1921 -1.2545 -0.4769
25878SOL    HW281227   5.321   8.637   7.216  0.8411 -0.8246 -0.4242
25879SOL     OW81228   3.155  10.084   0.862 -0.3857 -0.1777  0.1804
25879SOL    HW181229   3.250  10.092   0.858 -0.3376 -0.3777  0.7679
25879SOL    HW281230   3.131  10.036   0.783 -0.0024 -0.0838  0.0096
25880SOL     OW81231  10.502   6.677   9.223 -0.2405 -0.3877 -0.1338
25880SOL    HW181232  10.594   6.692   9.200  0.0853 -1.0055  0.7034
25880SOL    HW281233  10.497   6.698   9.316 -1.0598  0.0866 -0.2729
25881SOL     OW81234   3.749   4.594   4.867 -0.3069  0.1405 -0.0958
25881SOL    HW181235   3.756   4.687   4.848 -2.2701  0.1281 -1.1295
25881SOL    HW281236   3.655   4.577   4.870  0.0082 -1.7929  0.1385
25882SOL     OW81237   1.373   7.862   7.598  0.0732  0.1429  0.0860
25882SOL    HW181238   1.291   7.813   7.604 -0.0429  0.4900  3.3457
25882SOL    HW281239   1.361   7.921   7.525 -2.2633 -0.3806 -0.0246
25883SOL     OW81240   7.033   1.279   9.919 -0.0178  0.2138  0.0829
25883SOL    HW181241   7.001   1.254  10.006 -0.3615  1.4236  0.3240
25883SOL    HW281242   7.080   1.361   9.934  1.3231 -0.3979 -0.6281
25884SOL     OW81243   5.494   1.410   0.211  1.1502  0.0321  0.2081
25884SOL    HW181244   5.585   1.405   0.239  0.4051 -1.9262  2.6014
25884SOL    HW281245   5.489   1.352   0.134  1.9107  0.0934  0.1107
25885SOL     OW81246   5.474   5.197   1.139 -0.5040  0.3530 -0.1836
25885SOL    HW181247   5.454   5.290   1.146  2.7137  1.1617 -0.2532
25885SOL    HW281248   5.468   5.178   1.045  1.7898  1.3297 -0.5851
25886SOL     OW81249   0.415   4.344   5.974  0.0076 -0.0935  0.1288
25886SOL    HW181250   0.488   4.406   5.976 -1.0946  1.3118 -0.9008
25886SOL    HW281251   0.337   4.399   5.972 -1.0398 -1.5365 -0.2001
25887SOL     OW81252   3.387   1.222   6.323 -0.1641  0.7515  0.0137
25887SOL    HW181253   3.474   1.199   6.354 -0.6387 -0.2386  0.6720
25887SOL    HW281254   3.386   1.317   6.321  0.1248  0.8466  2.3953
25888SOL     OW81255   4.726   4.371   2.622  0.4861 -0.5516  0.5092
25888SOL    HW181256   4.668   4.426   2.673  0.3574 -0.8616  0.7005
25888SOL    HW281257   4.711   4.397   2.531 -0.4665 -1.1010  0.4900
25889SOL     OW81258   8.025   7.030   7.045  0.7646 -0.5679  0.1232
25889SOL    HW181259   8.047   7.078   7.125 -0.7241  0.3000  0.0495
25889SOL    HW281260   8.032   6.938   7.070  0.0473 -0.3164  1.3680
25890SOL     OW81261   5.856   8.762  11.054  0.7416 -0.1329  0.0634
25890SOL    HW181262   5.773   8.730  11.018  0.9666 -0.4169 -0.2138
25890SOL    HW281263   5.916   8.688  11.043  1.6342  0.8050 -1.7829
25891SOL     OW81264  10.109   5.381   4.758 -0.2602  0.0857 -0.1009
25891SOL    HW181265  10.078   5.452   4.701 -0.0036  0.4665  0.2287
25891SOL    HW281266  10.203   5.396   4.767 -0.0092 -0.9106 -0.8720
25892SOL     OW81267   7.286   3.824   8.915 -0.2976  0.0778  0.3246
25892SOL    HW181268   7.231   3.784   8.982 -0.3402  0.2229  0.3763
25892SOL    HW281269   7.311   3.751   8.858 -1.6998  0.2263 -0.5312
25893SOL     OW81270   1.891   3.268  10.299 -0.1008  0.2038 -0.1417
25893SOL    HW181271   1.985   3.266  10.286 -0.3936  0.8754 -3.1321
25893SOL    HW281272   1.860   3.339  10.242 -2.4016  0.0552  0.8055
25894SOL     OW81273   4.136   9.870   6.402 -0.2115  0.0736  0.1367
25894SOL    HW181274   4.200   9.939   6.417  0.2910 -0.5665  1.0112
25894SOL    HW281275   4.189   9.792   6.384 -0.7519 -0.3327  0.2732
25895SOL     OW81276   4.930   0.094   1.963  0.3064  0.5321 -0.6450
25895SOL    HW181277   4.894   0.183   1.959 -1.3154 -0.0031  0.9764
25895SOL    HW281278   4.865   0.040   1.920  0.6932 -0.0550 -0.5010
25896SOL     OW81279   9.481   3.165   9.455  0.2015  0.2744 -0.3017
25896SOL    HW181280   9.415   3.219   9.499  0.1597  0.6796 -0.8568
25896SOL    HW281281   9.562   3.214   9.464  0.3681 -0.0670  0.0897
25897SOL     OW81282   5.534   4.527   3.663  0.7461  0.0277  0.2724
25897SOL    HW181283   5.445   4.502   3.689  0.7251  0.1894  0.3529
25897SOL    HW281284   5.565   4.452   3.611  0.5453 -0.0069  0.2009
25898SOL     OW81285   7.172   9.889   6.583 -0.0603  0.3564  0.3466
25898SOL    HW181286   7.223   9.808   6.578 -0.4412  0.0949  0.6451
25898SOL    HW281287   7.172   9.911   6.676  2.3513  2.2023  0.0056
25899SOL     OW81288   4.246   5.873   2.866  0.0818  0.1216  0.1761
25899SOL    HW181289   4.253   5.964   2.892 -0.7558  0.0833  0.5582
25899SOL    HW281290   4.213   5.876   2.776 -2.7553  0.1966  1.1182
25900SOL     OW81291   7.815   4.725   3.001  0.6760 -0.5882  0.2580
25900SOL    HW181292   7.869   4.658   2.959 -2.0193 -1.5300 -2.0545
25900SOL    HW281293   7.802   4.792   2.934 -2.6944 -1.4891 -0.1679
25901SOL     OW81294   2.587   4.925  10.183  0.1775  0.3959 -0.6184
25901SOL    HW181295   2.589   4.906  10.276  1.0172  4.2990  0.3537
25901SOL    HW281296   2.515   4.872  10.149  0.3221 -1.7035  2.0238
25902SOL     OW81297   6.878   4.244   1.827  0.3873 -0.0808 -0.1483
25902SOL    HW181298   6.900   4.300   1.901  0.5960  1.2690 -1.1809
25902SOL    HW281299   6.788   4.218   1.842 -0.5372  2.4971 -0.7746
25903SOL     OW81300   3.671  10.466   9.507 -0.2577 -0.4015 -0.1466
25903SOL    HW181301   3.693  10.556   9.532 -1.4302 -0.5927  1.7504
25903SOL    HW281302   3.751  10.416   9.523 -0.9416 -0.5467  3.7665
25904SOL     OW81303   4.330   7.871   3.826  0.2527 -0.5590 -0.6886
25904SOL    HW181304   4.306   7.784   3.857 -0.3779 -0.2151 -0.1924
25904SOL    HW281305   4.425   7.876   3.839  0.6805 -1.9684 -2.7814
25905SOL     OW81306   4.877   5.905   0.194 -0.1367  0.2374 -0.2898
25905SOL    HW181307   4.834   5.860   0.122  2.7167 -2.1690 -0.6748
25905SOL    HW281308   4.958   5.939   0.156  1.8657 -1.8164  1.8239
25906SOL     OW81309   5.381   1.014   5.955  0.4742 -0.1513 -0.2208
25906SOL    HW181310   5.390   1.096   6.003  2.2177  0.3970 -1.4182
25906SOL    HW281311   5.287   1.008   5.936  0.4205  2.0327 -0.8939
25907SOL     OW81312   7.076   9.265   7.392 -0.2633 -0.4044 -0.6830
25907SOL    HW181313   7.008   9.256   7.325 -1.2948  0.2003  0.2543
25907SOL    HW281314   7.091   9.359   7.398  1.0208 -0.5517 -1.2011
25908SOL     OW81315   3.721   1.194   9.354 -0.5633 -0.6309 -0.1234
25908SOL    HW181316   3.688   1.154   9.274  0.6994 -0.0956 -0.9383
25908SOL    HW281317   3.737   1.285   9.331 -1.1596 -0.2132  1.0452
25909SOL     OW81318   7.790   4.437   3.283 -0.1103 -0.3704  0.1763
25909SOL    HW181319   7.856   4.416   3.217 -0.5083  0.1963 -0.4134
25909SOL    HW281320   7.747   4.516   3.251 -2.3584 -1.7379 -0.4418
25910SOL     OW81321  11.068   5.399   2.919  0.7780  0.2643  0.5761
25910SOL    HW181322  11.157   5.405   2.885 -0.0373 -1.1440 -2.0751
25910SOL    HW281323  11.077   5.412   3.014  3.7659  0.2203  0.3658
25911SOL     OW81324   2.675  10.271   6.127  0.2296  0.1095  0.0741
25911SOL    HW181325   2.689  10.185   6.088  0.3446  1.6188 -3.6420
25911SOL    HW281326   2.588  10.296   6.099 -0.3410  0.7602  2.2263
25912SOL     OW81327   4.420   3.845   8.184  0.5512  0.3024 -0.1956
25912SOL    HW181328   4.351   3.900   8.147  2.2312  1.7052 -1.3981
25912SOL    HW281329   4.485   3.906   8.217  0.6776 -0.9692  2.1673
25913SOL     OW81330   9.029   9.772   1.459  0.3153  0.0112 -0.0066
25913SOL    HW181331   9.061   9.825   1.386  1.2445  0.2851  0.5854
25913SOL    HW281332   9.107   9.730   1.495  0.0370  0.7178  1.4939
25914SOL     OW81333   6.875   4.390  10.408 -0.0884  0.5616  0.1003
25914SOL    HW181334   6.911   4.401  10.496  0.3122  1.4638 -0.1652
25914SOL    HW281335   6.847   4.298  10.405  0.1618  0.4416  1.0633
25915SOL     OW81336   2.613   3.938   7.297  0.2344 -0.5026 -0.4431
25915SOL    HW181337   2.630   4.022   7.340  0.0722 -0.3393 -0.6970
25915SOL    HW281338   2.540   3.901   7.345  1.9222 -1.7095  1.3706
25916SOL     OW81339   5.470   9.291   4.956  0.1047  0.2175  0.1896
25916SOL    HW181340   5.551   9.274   4.908  0.1653  0.9937  0.0052
25916SOL    HW281341   5.474   9.232   5.031  0.0849 -0.8967 -0.6695
25917SOL     OW81342   5.349   9.637   2.710 -0.9196 -0.4592 -0.0536
25917SOL    HW181343   5.406   9.583   2.654 -1.1539  0.3748 -1.1186
25917SOL    HW281344   5.410   9.684   2.767 -0.6435 -0.7982 -0.0637
25918SOL     OW81345   2.093   0.278  10.329 -0.2845  0.0530 -0.5358
25918SOL    HW181346   2.007   0.239  10.315 -0.6337 -0.1821  1.9483
25918SOL    HW281347   2.076   0.373  10.328 -0.3865  0.0327 -1.0343
25919SOL     OW81348   4.125   0.736   8.666 -0.3919 -0.4330 -0.1051
25919SOL    HW181349   4.149   0.707   8.578 -0.5206 -1.6080  0.2308
25919SOL    HW281350   4.203   0.783   8.698 -0.4230  0.1894 -0.9117
25920SOL     OW81351   3.297   0.745   2.934  0.0725 -0.3740 -0.1263
25920SOL    HW181352   3.242   0.711   2.863 -0.6647  1.5613 -0.5548
25920SOL    HW281353   3.307   0.671   2.994 -1.2502 -1.3868 -1.0734
25921SOL     OW81354   4.050   2.721   3.280  0.3371  0.2559 -0.1399
25921SOL    HW181355   4.110   2.649   3.301 -0.2331 -0.2923 -0.3477
25921SOL    HW281356   4.031   2.710   3.187 -2.5374 -1.5358  0.5210
25922SOL     OW81357   0.776   5.562   5.696  0.0437  0.0027 -0.0104
25922SOL    HW181358   0.713   5.492   5.711 -0.1290  0.5790  2.3735
25922SOL    HW281359   0.838   5.553   5.768 -0.7494  3.0982  1.1822
25923SOL     OW81360  10.441   4.903  10.412  0.4735 -0.2106 -0.0025
25923SOL    HW181361  10.467   4.855  10.334  0.1909  0.2300 -0.3687
25923SOL    HW281362  10.434   4.836  10.480 -1.3520 -0.9124 -0.8421
25924SOL     OW81363   1.419  10.154   7.481 -0.3831  0.2142 -0.1653
25924SOL    HW181364   1.403  10.247   7.470  0.5448  0.3988 -0.0921
25924SOL    HW281365   1.358  10.112   7.420 -0.8561  0.8602 -0.1488
25925SOL     OW81366   1.518   8.590   8.224 -0.6334 -0.0777  0.1158
25925SOL    HW181367   1.607   8.559   8.209 -0.8831 -0.2772 -0.9833
25925SOL    HW281368   1.525   8.685   8.224 -0.3333 -0.0913  0.6567
25926SOL     OW81369   5.996   3.135   1.909 -0.1027 -0.1993 -0.0643
25926SOL    HW181370   5.909   3.098   1.898 -0.2116  0.4934 -1.9353
25926SOL    HW281371   5.987   3.226   1.880  1.2713 -0.1782 -0.4838
25927SOL     OW81372   7.060   4.829   3.342 -0.1109  0.0324  0.6037
25927SOL    HW181373   7.017   4.783   3.270  0.1729 -0.5079  0.7713
25927SOL    HW281374   7.126   4.884   3.301 -0.4651  0.3047  0.3984
25928SOL     OW81375   4.618   5.670   4.555 -0.1787  0.0239  0.0642
25928SOL    HW181376   4.654   5.609   4.490  0.9103  0.5157  0.1902
25928SOL    HW281377   4.685   5.675   4.623  1.3500  3.8316 -1.4683
25929SOL     OW81378   8.395   5.672   5.087 -0.0882  0.0449  0.2011
25929SOL    HW181379   8.416   5.655   5.179  0.7015  1.1922  0.2688
25929SOL    HW281380   8.311   5.629   5.073  0.0640 -0.6598  1.2905
25930SOL     OW81381   6.355   1.490   2.272 -0.6047  0.4294  0.6050
25930SOL    HW181382   6.420   1.535   2.217 -1.8170 -0.5136 -1.7720
25930SOL    HW281383   6.384   1.399   2.273 -0.9564  0.3212  0.9736
25931SOL     OW81384   6.964   8.778   1.824 -0.0687 -1.2906 -0.1740
25931SOL    HW181385   7.053   8.745   1.841 -0.1426 -1.6026 -0.3809
25931SOL    HW281386   6.977   8.869   1.798  0.1938 -1.3368 -0.2167
25932SOL     OW81387  10.869   3.284   9.399  0.0139 -0.0321  0.0672
25932SOL    HW181388  10.812   3.355   9.429 -1.2007 -1.3475  1.0074
25932SOL    HW281389  10.926   3.266   9.474 -0.2992 -0.6357  0.1668
25933SOL     OW81390   3.203   0.957   1.034  0.4487 -0.1232 -0.6171
25933SOL    HW181391   3.255   1.017   0.981  2.5885 -0.3983  1.0186
25933SOL    HW281392   3.261   0.933   1.107 -1.7786 -0.9563  1.0024
25934SOL     OW81393   7.813   0.850   2.516 -0.4620  0.1516 -0.1025
25934SOL    HW181394   7.873   0.888   2.580 -1.9389  2.8713 -0.1794
25934SOL    HW281395   7.846   0.882   2.431 -0.6391 -0.3532 -0.3654
25935SOL     OW81396   4.700   3.687   8.754 -0.2126 -0.3978 -0.4762
25935SOL    HW181397   4.726   3.722   8.840  0.6512 -1.2130 -0.3890
25935SOL    HW281398   4.752   3.737   8.691 -1.7778  1.0995 -0.6613
25936SOL     OW81399   4.695   1.749   8.570 -0.7999  0.3298 -0.2762
25936SOL    HW181400   4.638   1.750   8.493 -1.9050 -0.4944  0.4929
25936SOL    HW281401   4.648   1.801   8.635 -0.4606  0.0129  0.2274
25937SOL     OW81402   7.588   3.026   3.812  0.7243 -0.8062  0.5095
25937SOL    HW181403   7.654   2.969   3.773  1.6567  0.7916 -0.3533
25937SOL    HW281404   7.505   2.995   3.776  1.5455  1.0197 -3.5778
25938SOL     OW81405   4.514   4.862   6.441  0.0532 -0.1185  0.2652
25938SOL    HW181406   4.533   4.769   6.454 -0.9315 -0.1802  1.4998
25938SOL    HW281407   4.493   4.869   6.348 -1.1478 -1.4105  0.3941
25939SOL     OW81408   4.312   5.597   3.964  0.0833 -0.1693  0.0837
25939SOL    HW181409   4.381   5.545   3.922  0.4374  0.8194 -0.5948
25939SOL    HW281410   4.309   5.564   4.054 -0.3116 -1.9486 -0.5554
25940SOL     OW81411   5.580   1.227   9.615 -0.3781 -0.4615 -0.0255
25940SOL    HW181412   5.649   1.165   9.591 -0.8204 -0.6989 -0.7267
25940SOL    HW281413   5.558   1.271   9.532  1.6396  2.4381  0.8290
25941SOL     OW81414   1.014   6.261  10.350  0.1977 -0.1032 -0.3623
25941SOL    HW181415   0.970   6.224  10.426  1.8844 -0.2557  0.5695
25941SOL    HW281416   0.948   6.318  10.310 -0.5698  0.3415  1.4574
25942SOL     OW81417   2.605   8.628   4.415 -0.2279  0.4155 -0.4809
25942SOL    HW181418   2.633   8.586   4.334 -2.9776  1.6722 -2.2141
25942SOL    HW281419   2.547   8.564   4.457  0.0112  0.3590 -0.2252
25943SOL     OW81420   9.230   4.931   0.933 -0.0804 -1.0211  0.3908
25943SOL    HW181421   9.192   4.928   1.020 -0.9200 -0.1929  0.0570
25943SOL    HW281422   9.167   4.885   0.877  0.2532 -1.1853  0.1419
25944SOL     OW81423   2.014  10.662   4.065 -0.6654  0.4535 -0.2680
25944SOL    HW181424   1.982  10.575   4.042  1.0787 -0.4009  0.4222
25944SOL    HW281425   2.053  10.696   3.984 -1.9601  0.9261 -0.7283
25945SOL     OW81426   8.998   3.278   0.686 -0.4702 -0.7293  0.6117
25945SOL    HW181427   8.924   3.221   0.663 -0.4962 -0.6245  0.4316
25945SOL    HW281428   8.977   3.362   0.645  0.4571 -1.1064 -0.7169
25946SOL     OW81429   3.069   3.064  10.095  0.4156 -0.1667  0.2457
25946SOL    HW181430   2.993   3.016  10.062  0.0663  0.2487  0.4311
25946SOL    HW281431   3.034   3.150  10.120  0.7507 -0.3322  1.3108
25947SOL     OW81432   0.569   7.597   0.615  0.2764 -0.9155 -0.3243
25947SOL    HW181433   0.629   7.562   0.681  0.1791 -0.0985  0.2092
25947SOL    HW281434   0.482   7.582   0.651  0.2319 -0.1681 -0.0932
25948SOL     OW81435   4.466  10.610   6.136 -0.2166 -0.1830 -0.1132
25948SOL    HW181436   4.385  10.595   6.185  1.0369 -0.6063  1.9940
25948SOL    HW281437   4.464  10.703   6.113 -1.0377 -0.0575  0.4379
25949SOL     OW81438   0.901   2.474   0.057 -0.7191 -0.0916 -0.3324
25949SOL    HW181439   0.967   2.539   0.033  1.2663 -1.5215  0.9825
25949SOL    HW281440   0.949   2.391   0.063 -2.6187 -1.1915  0.7198
25950SOL     OW81441   8.727  10.623   5.455  0.0611  0.4670  0.3381
25950SOL    HW181442   8.706  10.639   5.547 -0.9554  2.0852 -0.1307
25950SOL    HW281443   8.772  10.539   5.455 -1.4060 -0.3949  2.1232
25951SOL     OW81444   8.150   3.297   6.191  0.1991  0.2072  0.1829
25951SOL    HW181445   8.160   3.232   6.122  0.1978 -0.2051  0.5652
25951SOL    HW281446   8.239   3.323   6.214  0.1723  1.7348 -1.2504
25952SOL     OW81447   7.270   9.949   8.757  0.0472  0.3543  0.1334
25952SOL    HW181448   7.188   9.898   8.759  0.1755  0.1669  0.9752
25952SOL    HW281449   7.251  10.026   8.811  0.0695  0.8785 -0.5951
25953SOL     OW81450   2.077  10.979   8.355  0.0063 -0.4384 -0.5827
25953SOL    HW181451   2.002  11.019   8.312  1.1708 -0.2962 -2.5978
25953SOL    HW281452   2.153  11.027   8.320  1.1340 -1.5615  0.2413
25954SOL     OW81453   7.258   0.714   8.125 -0.1589  0.5401  0.0549
25954SOL    HW181454   7.323   0.674   8.184  0.3513  0.4386 -0.5659
25954SOL    HW281455   7.190   0.647   8.116  0.2451  0.1632 -0.2489
25955SOL     OW81456   1.105   8.859   1.299 -0.0646  0.3641  0.0566
25955SOL    HW181457   1.195   8.881   1.273 -0.7137  1.0900 -1.7026
25955SOL    HW281458   1.097   8.766   1.279 -0.3476  0.7676 -1.8827
25956SOL     OW81459   6.606   3.117   3.067  0.2662 -0.4805  0.2559
25956SOL    HW181460   6.603   3.057   2.992  0.0661  0.9414 -0.9119
25956SOL    HW281461   6.535   3.087   3.123  0.5522 -1.7049 -0.0000
25957SOL     OW81462   1.075  10.828   9.957  0.3152  0.1818 -0.1773
25957SOL    HW181463   1.051  10.759   9.895 -0.5538 -0.5556  0.9332
25957SOL    HW281464   1.071  10.785  10.042  2.6130  0.8638  0.3443
25958SOL     OW81465   9.963   1.751   7.121 -0.1083  0.3969  0.1324
25958SOL    HW181466  10.001   1.684   7.065 -0.0168  1.3174 -0.9460
25958SOL    HW281467  10.038   1.803   7.151 -0.2966  0.8882 -0.2254
25959SOL     OW81468   4.969   3.803   5.329 -0.7487  0.0437 -0.5154
25959SOL    HW181469   5.042   3.746   5.353 -2.2140 -2.0095 -0.6770
25959SOL    HW281470   4.990   3.834   5.241  0.6729  0.8443  0.0708
25960SOL     OW81471   8.218   8.447   9.254  0.0335  0.2554 -0.0013
25960SOL    HW181472   8.179   8.362   9.235 -1.2454  0.0751  2.9276
25960SOL    HW281473   8.258   8.436   9.341 -2.6240  3.2773  1.8355
25961SOL     OW81474   5.396   3.917   8.257  0.5512  0.0458 -0.1570
25961SOL    HW181475   5.484   3.956   8.255  1.0929 -0.7904  2.8653
25961SOL    HW281476   5.405   3.841   8.314 -2.1257 -0.1597  0.0918
25962SOL     OW81477   2.500   2.950   1.186 -0.3379  0.1146 -0.0288
25962SOL    HW181478   2.530   2.965   1.276 -1.9952  3.0516  0.1532
25962SOL    HW281479   2.515   3.033   1.141 -0.5489 -0.9477 -2.1778
25963SOL     OW81480   0.592   9.584  10.341  0.3071 -0.0942 -0.5030
25963SOL    HW181481   0.566   9.675  10.355 -1.2875 -0.6300  0.3092
25963SOL    HW281482   0.601   9.549  10.430 -2.6450 -1.6241 -0.6722
25964SOL     OW81483   4.923   7.708   8.349  0.0050  0.0446 -0.1233
25964SOL    HW181484   4.861   7.705   8.423 -0.5301  0.6801 -0.5292
25964SOL    HW281485   4.981   7.634   8.363  1.7451  1.7185  2.5255
25965SOL     OW81486   3.994   1.146  10.167  0.3766 -0.8477  0.0357
25965SOL    HW181487   4.059   1.136  10.097 -0.0068 -0.7062 -0.3464
25965SOL    HW281488   3.953   1.231  10.149  0.8403 -0.4208  0.9100
25966SOL     OW81489   5.716   9.794   7.630 -0.2604 -0.4400  0.1221
25966SOL    HW181490   5.674   9.793   7.717 -0.1220 -0.4154  0.1887
25966SOL    HW281491   5.786   9.729   7.637  1.0598  0.9687  0.6735
25967SOL     OW81492   6.225   4.951   7.547 -0.2883 -0.8172 -0.0073
25967SOL    HW181493   6.305   4.904   7.524  0.4296  0.7182 -0.7615
25967SOL    HW281494   6.252   5.013   7.614 -1.1751 -1.2823  0.8063
25968SOL     OW81495   4.494   3.204   2.662 -0.0825  0.0901 -0.6984
25968SOL    HW181496   4.473   3.112   2.650  0.6489 -0.5295  2.1112
25968SOL    HW281497   4.480   3.220   2.755  1.9326  2.2380 -0.6732
25969SOL     OW81498   0.643   4.272   6.172  0.1716  0.4830 -0.3505
25969SOL    HW181499   0.617   4.212   6.242 -0.2113  1.2933  0.2124
25969SOL    HW281500   0.568   4.272   6.112  1.0123 -1.1962 -1.4459
25970SOL     OW81501   4.789   0.239   3.409  0.0971 -0.1460  0.0249
25970SOL    HW181502   4.870   0.287   3.427 -0.2457  0.2313  0.6165
25970SOL    HW281503   4.794   0.161   3.464  0.9563 -1.1691 -1.4272
25971SOL     OW81504   5.082   2.240   9.421  0.1049  0.1381  0.2850
25971SOL    HW181505   5.114   2.243   9.331 -0.5423 -0.3688  0.0346
25971SOL    HW281506   5.135   2.172   9.463  1.5572  1.5109  0.7554
25972SOL     OW81507   2.713   1.869   5.248 -0.1193 -0.8803 -0.4423
25972SOL    HW181508   2.792   1.818   5.267 -0.2124 -1.3116 -1.1930
25972SOL    HW281509   2.649   1.804   5.218 -0.6997 -0.5079 -0.0359
25973SOL     OW81510   3.463   9.278  10.787  0.0579  0.0346  0.0461
25973SOL    HW181511   3.413   9.242  10.713 -0.1846  0.7580 -0.1478
25973SOL    HW281512   3.517   9.205  10.816  1.0616  0.0574 -1.6199
25974SOL     OW81513   9.086   0.763   7.475 -0.5723 -0.2115 -0.0877
25974SOL    HW181514   9.016   0.801   7.423 -0.7696 -0.0661  0.2754
25974SOL    HW281515   9.045   0.742   7.559 -0.8381 -2.6458 -0.7622
25975SOL     OW81516   8.172   0.570  10.563 -0.2613  0.1448 -0.1285
25975SOL    HW181517   8.162   0.551  10.657  1.0016 -2.1563 -0.3863
25975SOL    HW281518   8.203   0.488  10.525 -1.3212  0.8419 -2.7057
25976SOL     OW81519   1.694   9.596   5.552  0.2986  0.0384  0.5900
25976SOL    HW181520   1.605   9.626   5.532  1.1119  1.7018 -0.7364
25976SOL    HW281521   1.691   9.575   5.646 -1.3009  0.7506  0.7301
25977SOL     OW81522   8.029   3.082   2.964  0.2013 -0.3297  0.1758
25977SOL    HW181523   8.038   3.174   2.986  0.1218 -0.3744  0.3998
25977SOL    HW281524   7.972   3.080   2.887  0.4327 -0.1761 -0.0011
25978SOL     OW81525   8.406   2.945   4.993  0.2921  0.3523 -0.1099
25978SOL    HW181526   8.461   2.870   4.968 -1.3478 -0.8657 -0.2148
25978SOL    HW281527   8.355   2.965   4.915  0.4913  1.4093  0.0154
25979SOL     OW81528   1.041   9.009   2.253  0.1012 -0.6262 -0.0429
25979SOL    HW181529   1.110   8.991   2.189 -1.3347 -2.1698 -1.2473
25979SOL    HW281530   1.084   9.002   2.338  1.3956 -1.6924 -0.7464
25980SOL     OW81531   0.765   6.450   7.626 -0.5878  0.0016  0.2791
25980SOL    HW181532   0.679   6.419   7.651 -1.0327 -0.4486 -1.6520
25980SOL    HW281533   0.802   6.380   7.572  0.0262  1.1289 -0.8383
25981SOL     OW81534   8.476  10.670  10.080  0.9516  0.5288 -0.3163
25981SOL    HW181535   8.456  10.672   9.986  2.5406 -0.1454 -0.7020
25981SOL    HW281536   8.413  10.730  10.119 -0.6638 -0.2417 -1.6275
25982SOL     OW81537   8.857   0.348   4.175  0.6492 -0.4208  0.0180
25982SOL    HW181538   8.918   0.283   4.140  1.9254  0.8071 -0.1814
25982SOL    HW281539   8.788   0.353   4.110  1.2772 -0.5648 -0.6783
25983SOL     OW81540   5.253   2.962   0.369  0.1288  0.0076  0.1823
25983SOL    HW181541   5.288   2.873   0.379 -0.4171 -0.0926  1.3528
25983SOL    HW281542   5.191   2.956   0.297  0.8128 -0.3342 -0.3880
25984SOL     OW81543   1.309   0.871   6.472 -0.1270 -0.4522  0.1619
25984SOL    HW181544   1.357   0.794   6.441 -0.0112 -0.1632 -0.3945
25984SOL    HW281545   1.305   0.860   6.567  0.2876 -0.9162  0.1315
25985SOL     OW81546   1.001   2.079   8.788 -0.0858  0.0261 -0.2093
25985SOL    HW181547   0.992   2.006   8.727  2.2182 -0.5469  0.0316
25985SOL    HW281548   0.911   2.098   8.817 -0.9461 -1.3332 -1.8395
25986SOL     OW81549   2.661   8.310  10.187  0.0709 -0.0357  0.8096
25986SOL    HW181550   2.706   8.382  10.232 -0.6485  0.5420  0.6204
25986SOL    HW281551   2.595   8.353  10.133  1.1700 -0.6842 -1.1336
25987SOL     OW81552  10.483   8.147   8.386  0.0925 -0.3069 -0.0931
25987SOL    HW181553  10.460   8.062   8.350  0.0659 -2.0085  3.4685
25987SOL    HW281554  10.402   8.179   8.427 -0.1739  2.0224 -2.1959
25988SOL     OW81555   0.250   5.191   6.868  0.3060  0.3578  0.6185
25988SOL    HW181556   0.187   5.134   6.825  1.0528 -0.7040  0.8795
25988SOL    HW281557   0.197   5.257   6.912 -0.6531 -0.7369  1.1555
25989SOL     OW81558   3.102   7.677   2.212 -0.5395 -0.0712  0.4271
25989SOL    HW181559   3.118   7.628   2.131  2.3927  0.4467  0.5952
25989SOL    HW281560   3.007   7.671   2.224 -0.8124 -2.1130 -1.7881
25990SOL     OW81561   0.842   2.525   1.702  0.3677 -0.4424 -0.0496
25990SOL    HW181562   0.838   2.528   1.606 -1.5620 -2.8667 -0.1299
25990SOL    HW281563   0.772   2.584   1.730 -0.4263 -1.2674 -0.2296
25991SOL     OW81564   3.440   3.314   9.283  0.1891 -0.2766 -0.1203
25991SOL    HW181565   3.380   3.250   9.246  2.1883 -0.8237 -2.6782
25991SOL    HW281566   3.396   3.346   9.362 -2.2575 -2.4666 -0.4892
25992SOL     OW81567   5.286   1.869   5.593 -0.2070  0.1414 -0.4877
25992SOL    HW181568   5.379   1.881   5.614 -0.6152  1.6703  0.6313
25992SOL    HW281569   5.242   1.871   5.678 -1.2192 -1.2969 -0.9427
25993SOL     OW81570   4.378  10.651   4.442 -0.4434  0.0714  0.5904
25993SOL    HW181571   4.432  10.702   4.501 -0.0748 -1.8334  1.9944
25993SOL    HW281572   4.435  10.630   4.369  0.0835 -0.2072  1.0800
25994SOL     OW81573   5.495   6.171   8.918 -0.1443  0.1695  0.2704
25994SOL    HW181574   5.411   6.183   8.963 -0.7015  0.2740 -0.7565
25994SOL    HW281575   5.502   6.076   8.907 -0.0412  0.1486  0.5112
25995SOL     OW81576  10.674   1.196   2.996  0.6791  0.0949 -0.6704
25995SOL    HW181577  10.741   1.256   2.963  1.4107 -1.3825 -2.0039
25995SOL    HW281578  10.618   1.179   2.921 -0.3281  0.1581  0.0558
25996SOL     OW81579   1.395   4.364   6.761 -0.6917  0.0420 -0.1126
25996SOL    HW181580   1.359   4.448   6.733  1.1219  0.9726  0.1656
25996SOL    HW281581   1.362   4.351   6.850 -0.7143  0.6262 -0.0364
25997SOL     OW81582   7.301  10.918   3.663 -0.0576  0.2798  0.2826
25997SOL    HW181583   7.326  10.964   3.743  0.6788 -0.5672  0.5541
25997SOL    HW281584   7.383  10.887   3.627 -0.5374 -0.7848  0.0834
25998SOL     OW81585   4.186   5.771   7.252 -0.0250  0.3195 -0.0247
25998SOL    HW181586   4.158   5.861   7.236  1.6148  1.2279  1.8034
25998SOL    HW281587   4.221   5.741   7.168  0.6578  1.8913 -0.3363
25999SOL     OW81588   8.654   9.528   7.711 -0.4396  0.4694 -0.0332
25999SOL    HW181589   8.697   9.598   7.661  1.4924 -0.2206  0.5730
25999SOL    HW281590   8.672   9.449   7.661  1.3085 -0.1945  1.5227
26000SOL     OW81591   0.293   9.282   2.605 -0.0049 -0.5837  0.1344
26000SOL    HW181592   0.330   9.221   2.542  0.7237 -0.8867  0.8272
26000SOL    HW281593   0.222   9.234   2.647 -0.6171 -0.3145 -0.5737
26001SOL     OW81594   1.697   8.207   6.953 -0.3976  0.5570 -0.4400
26001SOL    HW181595   1.729   8.175   6.869 -0.4951 -0.6819 -0.0410
26001SOL    HW281596   1.717   8.135   7.014  1.8282  2.3324  1.0916
26002SOL     OW81597   3.437  10.244   7.768  0.2770  0.0160  0.6326
26002SOL    HW181598   3.519  10.200   7.746  0.7387  1.0790  0.1769
26002SOL    HW281599   3.420  10.218   7.859  0.3625 -1.3366  0.2811
26003SOL     OW81600   5.956   6.429   2.112  0.7730  0.0552  0.1107
26003SOL    HW181601   5.869   6.427   2.072  0.7085  0.0829  0.2495
26003SOL    HW281602   6.016   6.407   2.041  0.8873  2.4686 -0.6178
26004SOL     OW81603   6.642  10.373   3.024 -0.2048  0.0786 -0.4569
26004SOL    HW181604   6.658  10.402   2.935  0.0145 -1.7069 -1.0515
26004SOL    HW281605   6.572  10.307   3.016 -0.1058 -0.1944  0.6607
26005SOL     OW81606   7.870   0.287   4.836 -1.0602 -0.2418  0.0383
26005SOL    HW181607   7.831   0.370   4.861 -1.7758 -0.9470  1.3244
26005SOL    HW281608   7.829   0.266   4.751 -1.0632  0.5752 -0.1688
26006SOL     OW81609   3.342   5.599   4.127 -0.0129  0.9499  0.2263
26006SOL    HW181610   3.433   5.604   4.099 -0.1701  1.2373 -0.2501
26006SOL    HW281611   3.344   5.618   4.221  0.4875  0.2956  0.3547
26007SOL     OW81612   3.932   5.638   8.884 -0.4231 -0.0077 -0.1362
26007SOL    HW181613   3.956   5.730   8.900 -2.3831  0.7607 -1.2285
26007SOL    HW281614   4.014   5.590   8.895  0.8158  1.9622 -0.1689
26008SOL     OW81615   2.659   3.089   5.453 -0.3352  0.1340 -0.3041
26008SOL    HW181616   2.692   3.087   5.543 -0.3409  0.9720 -0.2711
26008SOL    HW281617   2.630   3.180   5.441  0.2668  0.1914 -1.3661
26009SOL     OW81618   9.802   0.189   1.322 -0.7588  0.2075  0.3657
26009SOL    HW181619   9.885   0.236   1.315 -0.5670 -0.3032 -1.3260
26009SOL    HW281620   9.765   0.192   1.233 -2.1191 -0.3462  0.8812
26010SOL     OW81621   2.452   6.964   3.660 -0.3684  0.1272 -0.3945
26010SOL    HW181622   2.383   6.999   3.717 -1.1326  0.7936 -1.6914
26010SOL    HW281623   2.492   7.041   3.620  0.9556 -0.2678  0.0914
26011SOL     OW81624   3.314   0.047   5.437  0.0297 -0.0652  0.4895
26011SOL    HW181625   3.384  -0.017   5.419 -1.5151 -1.3875 -1.2638
26011SOL    HW281626   3.312   0.102   5.359  1.2912  2.2117  1.9530
26012SOL     OW81627   3.800   0.821   0.242  0.0094  0.3978  0.4480
26012SOL    HW181628   3.888   0.790   0.222 -0.5186 -0.2652 -0.9498
26012SOL    HW281629   3.776   0.875   0.167 -0.6735  0.8208  0.9571
26013SOL     OW81630   0.394   9.272   8.030 -0.3321  0.1481 -0.5733
26013SOL    HW181631   0.383   9.257   8.123  0.4087  0.1213 -0.4834
26013SOL    HW281632   0.329   9.339   8.008 -0.9931 -0.3648 -0.1873
26014SOL     OW81633   9.903   6.772   5.225  0.3008  0.0622 -0.0614
26014SOL    HW181634   9.867   6.702   5.279  0.2133  0.1484 -0.0074
26014SOL    HW281635   9.949   6.829   5.287 -1.5677  1.3104  0.2505
26015SOL     OW81636   5.035   0.996   0.122  0.1130 -0.1584  0.0058
26015SOL    HW181637   4.964   0.943   0.159 -0.6208 -1.1803 -2.6057
26015SOL    HW281638   4.995   1.081   0.105 -0.0782 -0.2807 -0.1560
26016SOL     OW81639   2.361   2.748   1.045  0.2551  0.2601 -0.7486
26016SOL    HW181640   2.338   2.796   0.966 -0.3890 -0.2440 -0.8728
26016SOL    HW281641   2.427   2.802   1.088  0.2990  0.7409 -1.4138
26017SOL     OW81642  10.069   8.361   4.868 -0.0459 -0.1994  0.4121
26017SOL    HW181643  10.042   8.276   4.903 -1.1548 -0.4954 -1.0607
26017SOL    HW281644  10.070   8.348   4.773 -0.0935  1.3861  0.1747
26018SOL     OW81645   4.086   7.238   1.726 -0.3295  0.3244  0.2145
26018SOL    HW181646   4.062   7.206   1.813 -0.8207  1.0161  0.3362
26018SOL    HW281647   4.168   7.286   1.739  0.2722 -0.6230  0.0740
26019SOL     OW81648   1.572   8.791   7.698 -0.0164 -0.2396  0.1210
26019SOL    HW181649   1.635   8.800   7.626  0.4383 -0.9881  0.4067
26019SOL    HW281650   1.610   8.722   7.753 -1.2562 -0.9240  0.1337
26020SOL     OW81651   5.937   1.729  10.482  0.0369  0.2779  0.3243
26020SOL    HW181652   6.019   1.686  10.502  0.4423  0.5991 -0.5732
26020SOL    HW281653   5.936   1.736  10.386 -1.2271 -0.1033  0.2881
26021SOL     OW81654   3.339  10.695   9.247  0.1065  0.2530 -0.3312
26021SOL    HW181655   3.362  10.748   9.323  0.4753 -0.8431  0.3448
26021SOL    HW281656   3.244  10.700   9.242  0.1763  1.4104 -0.6048
26022SOL     OW81657   1.141  11.050   2.839  0.4535  0.0604 -0.3831
26022SOL    HW181658   1.077  11.055   2.910  0.6098 -1.7953 -0.0534
26022SOL    HW281659   1.226  11.052   2.883  0.6611  1.9391 -0.7796
26023SOL     OW81660   8.925  10.288   7.234 -0.3944 -0.1083 -0.0149
26023SOL    HW181661   8.912  10.261   7.143  1.3745 -0.2406 -0.2747
26023SOL    HW281662   8.926  10.384   7.231 -0.7154 -0.1071 -0.0743
26024SOL     OW81663   4.627   2.034  10.601  0.4791  0.0507 -0.3967
26024SOL    HW181664   4.685   2.009  10.528  0.7043  0.8265 -0.4892
26024SOL    HW281665   4.684   2.036  10.677  0.0366 -1.8464  0.0438
26025SOL     OW81666   5.070   9.275   5.144 -0.1426  0.7276 -0.4595
26025SOL    HW181667   5.053   9.352   5.199  0.7606  0.9571 -0.4988
26025SOL    HW281668   4.984   9.253   5.108 -0.1419  2.8733 -1.9881
26026SOL     OW81669   8.139   8.868   6.827 -0.2674 -0.0436 -0.4300
26026SOL    HW181670   8.084   8.941   6.801 -2.4333 -0.9352  1.2895
26026SOL    HW281671   8.188   8.900   6.903 -0.9710 -0.2480  0.1200
26027SOL     OW81672   4.710   5.409   3.318 -0.2660 -0.0117 -0.2615
26027SOL    HW181673   4.752   5.493   3.337 -2.0324  1.4085 -2.2530
26027SOL    HW281674   4.644   5.399   3.387  1.0979 -0.7236  1.0226
26028SOL     OW81675   8.048   8.613   0.934  0.2503 -0.1476  0.3657
26028SOL    HW181676   8.028   8.641   1.024 -0.2358  0.8694 -0.0427
26028SOL    HW281677   8.015   8.524   0.928  0.3652 -0.2571  1.2189
26029SOL     OW81678   1.786   7.738  11.039  0.0970 -0.4542 -0.3405
26029SOL    HW181679   1.777   7.833  11.027  3.2224  0.6579  3.8656
26029SOL    HW281680   1.844   7.711  10.968  0.5360  1.1127 -0.6230
26030SOL     OW81681   4.825   5.183   5.145  0.1279 -0.1957  0.3444
26030SOL    HW181682   4.811   5.215   5.234 -0.0493 -0.4564  0.4108
26030SOL    HW281683   4.887   5.245   5.107  0.4350 -0.2538  0.7470
26031SOL     OW81684   2.173   8.422   0.605  0.2702  0.1738  0.1623
26031SOL    HW181685   2.253   8.396   0.651  0.3705  1.6343  0.8692
26031SOL    HW281686   2.140   8.340   0.566  1.0648 -0.8028  1.4618
26032SOL     OW81687   5.997   8.399   9.514 -0.2779  0.9924  0.3264
26032SOL    HW181688   5.958   8.315   9.488 -0.7170  1.1847  0.3522
26032SOL    HW281689   5.998   8.450   9.433 -0.7810  1.2568  0.4829
26033SOL     OW81690   1.550   6.156  10.097 -0.2149  0.2510  0.0859
26033SOL    HW181691   1.502   6.229  10.136  0.6264  1.4737 -1.0744
26033SOL    HW281692   1.487   6.115  10.038 -0.6289  0.1586  0.5831
26034SOL     OW81693   3.322   2.107   8.533  0.4332  0.2331 -0.2245
26034SOL    HW181694   3.350   2.173   8.597 -2.1933  0.0240  1.2760
26034SOL    HW281695   3.399   2.052   8.519  2.3889  2.8782 -0.6751
26035SOL     OW81696   7.315   6.627   4.762 -0.0494 -0.5206 -0.3922
26035SOL    HW181697   7.226   6.634   4.729 -0.4560  0.0431  0.7633
26035SOL    HW281698   7.333   6.714   4.799  0.9582 -0.6444 -0.5718
26036SOL     OW81699   7.612   5.329   1.667  0.5035 -0.5353  0.3836
26036SOL    HW181700   7.597   5.265   1.737 -0.9999 -1.5008 -0.7425
26036SOL    HW281701   7.635   5.276   1.591 -0.5523  0.2408 -0.5115
26037SOL     OW81702   1.234   8.307   5.481  0.6195  0.0841  0.2897
26037SOL    HW181703   1.164   8.342   5.537  1.1926  0.0963  1.0233
26037SOL    HW281704   1.194   8.235   5.433  0.1738 -0.0871  0.9105
26038SOL     OW81705   0.016   0.597  10.961  0.3453 -0.2154 -0.1378
26038SOL    HW181706  -0.004   0.602  10.868  0.8462 -0.5900 -0.2706
26038SOL    HW281707   0.098   0.548  10.965  1.4504  1.5950  0.3582
26039SOL     OW81708   7.203   3.228   2.761 -0.5806 -0.8389  0.1434
26039SOL    HW181709   7.185   3.185   2.845 -2.2419 -0.5122 -0.0121
26039SOL    HW281710   7.294   3.257   2.769 -1.0629  0.3481  2.3822
26040SOL     OW81711   4.131   5.811   0.731  0.1914 -0.7322  0.0695
26040SOL    HW181712   4.066   5.880   0.742  0.8304  0.3715 -2.3284
26040SOL    HW281713   4.190   5.845   0.663  2.2958 -2.3905  0.9561
26041SOL     OW81714   0.053   0.201   0.203 -0.2141 -0.6726  0.1766
26041SOL    HW181715   0.014   0.269   0.149 -0.9095 -0.2947  1.1326
26041SOL    HW281716  -0.020   0.166   0.254  0.5635 -0.4539  1.4605
26042SOL     OW81717   0.315   4.066   4.149  0.2304 -0.3122  1.1114
26042SOL    HW181718   0.362   4.124   4.088 -0.3706 -2.0745 -1.1908
26042SOL    HW281719   0.227   4.104   4.154  0.0597 -0.5569  0.2204
26043SOL     OW81720   5.119   4.535   5.731  0.4332 -0.2314  0.2951
26043SOL    HW181721   5.128   4.501   5.820  0.5526 -0.2016  0.2941
26043SOL    HW281722   5.061   4.611   5.740 -0.0384 -0.5755  0.2642
26044SOL     OW81723   9.326   0.996   2.843 -0.8938 -0.1667  0.3886
26044SOL    HW181724   9.415   0.965   2.858 -1.0337 -0.8924 -0.2135
26044SOL    HW281725   9.311   0.981   2.750 -0.9018  1.9311  0.0017
26045SOL     OW81726  10.986   9.737   7.158  0.0403  0.3949  1.0621
26045SOL    HW181727  10.920   9.785   7.108  0.5403  1.0391  1.0010
26045SOL    HW281728  10.985   9.649   7.120 -0.7550  0.4034  1.0456
26046SOL     OW81729  10.535   8.617   3.172 -0.2617  0.4991 -0.2024
26046SOL    HW181730  10.628   8.599   3.155  0.1147  2.8308 -0.9538
26046SOL    HW281731  10.495   8.530   3.177  1.8527 -0.5672 -0.4034
26047SOL     OW81732   5.887   2.841   6.215  0.3944  0.5294 -0.0209
26047SOL    HW181733   5.939   2.921   6.224 -0.0142  0.8799 -0.6626
26047SOL    HW281734   5.951   2.770   6.221  0.6010  0.8364  1.8341
26048SOL     OW81735   4.010   4.829   9.933  0.4608  0.4568  0.2870
26048SOL    HW181736   4.059   4.748   9.948  1.4814  1.1271  0.6917
26048SOL    HW281737   3.956   4.811   9.856 -0.9414 -1.3217  1.6084
26049SOL     OW81738   0.534   7.835   0.863 -0.3704 -0.0139  0.2875
26049SOL    HW181739   0.512   7.744   0.845  1.9105 -0.4734 -0.4791
26049SOL    HW281740   0.518   7.845   0.957 -2.7518 -0.5098  0.0002
26050SOL     OW81741   3.110  10.835  10.812 -0.3769  0.1652  0.2262
26050SOL    HW181742   3.037  10.844  10.873  1.3039  0.6424  2.2978
26050SOL    HW281743   3.158  10.918  10.819  1.9370 -1.1511  1.1603
26051SOL     OW81744   0.337   1.758   6.074  0.1245  0.0993 -0.2542
26051SOL    HW181745   0.334   1.763   5.978  0.8106  0.7219 -0.2513
26051SOL    HW281746   0.314   1.846   6.103 -0.3652 -0.1643  0.1658
26052SOL     OW81747  10.098   4.444   1.997 -0.7039  0.8962  0.1426
26052SOL    HW181748  10.101   4.454   1.902  0.2052 -0.2483  0.0292
26052SOL    HW281749  10.185   4.412   2.021 -1.4783 -0.6148  1.1270
26053SOL     OW81750   6.929   1.911   3.319  0.0513  0.0681 -0.0122
26053SOL    HW181751   6.854   1.956   3.356 -0.2420 -1.2341  1.0455
26053SOL    HW281752   6.981   1.884   3.395 -0.5555 -2.6407 -0.4534
26054SOL     OW81753   9.797   7.389   9.145 -0.5150 -0.0078 -1.0951
26054SOL    HW181754   9.766   7.479   9.132 -0.5934 -0.0233 -1.0144
26054SOL    HW281755   9.720   7.340   9.173  0.1309  0.6174  2.2500
26055SOL     OW81756  10.553   7.993   8.716 -0.4157  0.0673 -0.2570
26055SOL    HW181757  10.580   7.993   8.808 -0.2662  0.4968 -0.2986
26055SOL    HW281758  10.604   7.923   8.676 -0.4581 -0.0998 -0.0182
26056SOL     OW81759   0.298   3.602   5.877 -0.5654  0.3118 -0.5346
26056SOL    HW181760   0.244   3.586   5.954 -0.6217 -0.6587 -0.7576
26056SOL    HW281761   0.333   3.515   5.854 -2.5115  0.0813 -3.0699
26057SOL     OW81762   3.152   2.589   2.361 -0.7050  0.1786  0.1648
26057SOL    HW181763   3.243   2.560   2.364 -0.8479 -0.3400 -0.4684
26057SOL    HW281764   3.126   2.579   2.270 -1.3691  0.4274  0.3199
26058SOL     OW81765  10.605   5.236   9.991  0.0628 -0.7141  0.5152
26058SOL    HW181766  10.669   5.176  10.031  1.6010  0.3885 -0.1917
26058SOL    HW281767  10.597   5.307  10.054  0.4221 -0.2826  0.0733
26059SOL     OW81768   3.918   6.856   5.177 -0.6508 -0.0172 -0.2217
26059SOL    HW181769   3.919   6.931   5.236 -2.0432 -0.9905  1.1041
26059SOL    HW281770   3.904   6.894   5.090  0.8376  1.3948  0.0959
26060SOL     OW81771   2.413   9.536   3.536 -0.1842  0.0098 -0.8680
26060SOL    HW181772   2.421   9.465   3.473 -1.2884 -0.6009 -0.3571
26060SOL    HW281773   2.503   9.554   3.564  0.4225  0.8696 -3.1765
26061SOL     OW81774   8.600   8.296   4.342 -0.0147  0.0454  0.0999
26061SOL    HW181775   8.590   8.221   4.401 -0.9085  0.1687  0.1266
26061SOL    HW281776   8.673   8.346   4.378 -0.8920  0.4124  1.4334
26062SOL     OW81777   3.703   3.151   5.003 -0.2399  0.2481 -0.0695
26062SOL    HW181778   3.707   3.056   5.014  1.9835  0.2517 -0.4518
26062SOL    HW281779   3.612   3.168   4.979 -1.4000 -1.4466  2.6214
26063SOL     OW81780  10.900   6.908   3.896 -0.7307  0.2029  0.1035
26063SOL    HW181781  10.867   6.906   3.805 -1.9041  0.3449  0.5039
26063SOL    HW281782  10.863   6.989   3.932 -1.7482 -0.7243  1.2245
26064SOL     OW81783   9.556   5.376   1.691  0.4586 -0.8975  0.3899
26064SOL    HW181784   9.530   5.297   1.643  1.5698 -1.1031  0.0892
26064SOL    HW281785   9.626   5.414   1.638  0.0333  0.2147  0.6208
26065SOL     OW81786   6.528   0.413   4.870 -0.1540  0.5390 -0.1704
26065SOL    HW181787   6.469   0.406   4.795  1.2118  0.0051 -1.2434
26065SOL    HW281788   6.499   0.344   4.930  0.3330 -0.8121 -1.4088
26066SOL     OW81789   6.940   8.590   7.011  0.0335 -0.9074  0.1069
26066SOL    HW181790   6.938   8.684   6.991 -1.1783 -1.1589 -1.1181
26066SOL    HW281791   7.018   8.558   6.966 -0.9666 -0.9044 -1.7439
26067SOL     OW81792   2.968   4.042   3.964 -0.2360 -0.0289 -0.7701
26067SOL    HW181793   2.933   4.088   4.040  0.4269  0.5190 -0.7798
26067SOL    HW281794   2.893   4.026   3.908 -1.1968 -2.6541  1.0754
26068SOL     OW81795   5.402   2.094   7.316 -0.4890  0.1566 -0.2993
26068SOL    HW181796   5.429   2.147   7.391  1.8706 -1.0897 -0.1970
26068SOL    HW281797   5.466   2.114   7.248 -2.1097  0.6267 -1.7600
26069SOL     OW81798   4.854   7.018  10.205 -0.7804  0.3163  0.3876
26069SOL    HW181799   4.897   6.945  10.248 -0.1289  0.0409 -0.6816
26069SOL    HW281800   4.773   7.032  10.254 -1.1167 -1.3793  0.3598
26070SOL     OW81801   8.616   6.793   6.130 -0.0239  0.1354  0.5097
26070SOL    HW181802   8.617   6.753   6.217  1.2118  1.4476  1.1431
26070SOL    HW281803   8.538   6.848   6.130 -0.6303 -0.7064  0.3635
26071SOL     OW81804   4.937   5.588   0.811  0.3614 -0.0303  0.5622
26071SOL    HW181805   4.969   5.498   0.813 -0.5034 -0.3905 -0.7344
26071SOL    HW281806   5.015   5.641   0.796  0.5146 -0.8364 -1.8296
26072SOL     OW81807   9.329   0.741   6.845  0.0239  0.0234 -0.2503
26072SOL    HW181808   9.418   0.719   6.874 -0.7283 -1.1025  1.3588
26072SOL    HW281809   9.303   0.669   6.788  0.7773  1.2785 -2.2900
26073SOL     OW81810   6.616   0.791   0.096 -0.1916 -0.6890  0.0299
26073SOL    HW181811   6.637   0.720   0.035  0.2199  0.0086 -0.6559
26073SOL    HW281812   6.524   0.777   0.118 -0.6921 -0.2902 -1.6749
26074SOL     OW81813   0.936   0.876  10.137 -0.3559 -0.4689 -0.1115
26074SOL    HW181814   0.845   0.905  10.124 -0.4738 -0.5733  0.4310
26074SOL    HW281815   0.984   0.914  10.064 -0.9319 -0.8489 -0.6991
26075SOL     OW81816   0.631  10.548   7.347  0.0031 -0.1854  0.1924
26075SOL    HW181817   0.554  10.494   7.332  0.4380 -0.5438 -0.8266
26075SOL    HW281818   0.675  10.509   7.423 -0.3537 -0.5009  0.2335
26076SOL     OW81819   2.933   3.681   1.761 -0.9865 -0.1995  0.0523
26076SOL    HW181820   2.882   3.728   1.696  0.5460 -0.3181 -1.2912
26076SOL    HW281821   2.871   3.619   1.800 -2.4982  1.4239  0.3700
26077SOL     OW81822  10.922   2.097   4.947 -0.3474  0.0313  0.1038
26077SOL    HW181823  10.975   2.031   4.903  0.7287  1.0043 -0.0981
26077SOL    HW281824  10.985   2.164   4.975 -1.5778  1.8446 -1.2312
26078SOL     OW81825   0.513   7.899   6.320 -0.3972  0.2103 -0.5407
26078SOL    HW181826   0.569   7.950   6.262 -0.1080 -0.1261 -0.5600
26078SOL    HW281827   0.448   7.962   6.352  0.6368  0.8633  0.3524
26079SOL     OW81828   4.907   9.930   0.920  0.3328 -0.1086 -0.2602
26079SOL    HW181829   4.844   9.980   0.972 -2.0896 -1.5480 -1.6216
26079SOL    HW281830   4.893   9.961   0.830  0.1424 -1.8594 -0.8577
26080SOL     OW81831   0.614   7.551   5.984 -0.1348 -0.1752 -0.3453
26080SOL    HW181832   0.520   7.550   5.969  0.0102  1.8733 -1.7776
26080SOL    HW281833   0.641   7.459   5.977 -1.8606 -0.6661 -0.9406
26081SOL     OW81834   2.113   7.434  10.910  0.4060  0.2860 -0.2067
26081SOL    HW181835   2.047   7.501  10.894  0.1344  0.8063  2.5380
26081SOL    HW281836   2.063   7.352  10.911  0.4000  0.2586 -1.5269
26082SOL     OW81837   2.768   1.661   2.782 -0.1401  0.2023 -0.1886
26082SOL    HW181838   2.841   1.636   2.724 -0.9983  0.4757 -1.4192
26082SOL    HW281839   2.767   1.593   2.849  1.3872  0.3101 -0.0133
26083SOL     OW81840   7.176   4.403   1.405 -0.1758  0.1230 -0.3878
26083SOL    HW181841   7.205   4.412   1.496 -1.5392  0.4344  0.0265
26083SOL    HW281842   7.156   4.310   1.395 -0.5885  0.1929 -0.2002
26084SOL     OW81843   9.872   0.036   5.676 -0.2849  0.2662  0.5260
26084SOL    HW181844   9.862   0.046   5.770 -0.0272 -0.9270  0.6883
26084SOL    HW281845   9.952  -0.016   5.665 -0.5208  0.0632 -0.3307
26085SOL     OW81846   0.347  10.002   7.844 -0.3513  0.1774 -0.4952
26085SOL    HW181847   0.374  10.030   7.931 -0.7445  0.6543 -0.5213
26085SOL    HW281848   0.368  10.076   7.787 -1.7643  0.6196 -0.5023
26086SOL     OW81849   3.932   8.800   9.993  0.5118  0.3197  0.0444
26086SOL    HW181850   3.850   8.753  10.007  1.4872 -1.4972  0.0090
26086SOL    HW281851   3.936   8.815   9.898  0.8096 -0.8136 -0.1433
26087SOL     OW81852   7.200   3.711   5.323  0.3535 -0.4356 -0.4735
26087SOL    HW181853   7.223   3.784   5.266  0.0921  0.2705  0.3084
26087SOL    HW281854   7.121   3.674   5.285  0.2709 -0.0709 -0.6507
26088SOL     OW81855  10.744   8.866   6.817  0.1539 -0.5191  0.8026
26088SOL    HW181856  10.787   8.886   6.734  0.1230 -0.4761  0.7967
26088SOL    HW281857  10.708   8.778   6.806 -0.1044 -0.3973  0.6662
26089SOL     OW81858   5.202   6.547   5.896  0.4168  0.2246  0.3779
26089SOL    HW181859   5.296   6.568   5.896  0.3222  0.7215  1.2478
26089SOL    HW281860   5.197   6.463   5.943  0.3989  0.3766  0.6516
26090SOL     OW81861   3.493   6.097  11.018 -0.4053 -0.0331 -0.0626
26090SOL    HW181862   3.577   6.081  10.977  0.5198 -0.8464  1.9925
26090SOL    HW281863   3.488   6.193  11.026 -0.0527  0.0598 -0.9201
26091SOL     OW81864   5.702   0.163   9.245  0.3368  0.4473 -0.2882
26091SOL    HW181865   5.700   0.252   9.209  0.5407  1.0849  1.1768
26091SOL    HW281866   5.656   0.110   9.181 -0.1772  1.6941 -0.9925
26092SOL     OW81867  10.642   1.886   3.059  0.4346 -0.0963 -0.0586
26092SOL    HW181868  10.638   1.976   3.090  0.9187 -0.2858  0.5916
26092SOL    HW281869  10.717   1.848   3.106  0.7353 -0.6051 -0.9355
26093SOL     OW81870   5.049   8.940   8.161  0.3481  0.0783  0.1822
26093SOL    HW181871   5.013   8.945   8.250 -1.0498  1.5455 -0.4264
26093SOL    HW281872   5.143   8.947   8.174  0.1033  1.5097  1.4819
26094SOL     OW81873   0.447   4.196   7.992 -0.1196  0.3407 -0.1386
26094SOL    HW181874   0.402   4.196   8.077  0.0089 -0.8694 -0.0611
26094SOL    HW281875   0.390   4.246   7.934 -0.0506  1.4723  0.7336
26095SOL     OW81876  10.049  10.518  10.283 -0.2274 -0.1594  0.1852
26095SOL    HW181877   9.989  10.484  10.217  0.3561  0.2378 -0.5669
26095SOL    HW281878  10.004  10.502  10.366 -1.3868  0.1608 -0.3555
26096SOL     OW81879   1.387   8.999   5.717 -0.4480  0.0471 -0.0628
26096SOL    HW181880   1.478   9.023   5.700 -0.3841 -0.0212  0.1755
26096SOL    HW281881   1.339   9.032   5.642 -0.1203 -0.5512 -0.5441
26097SOL     OW81882   0.830   1.043   7.209 -0.8894 -0.6325 -0.2593
26097SOL    HW181883   0.775   0.972   7.178 -1.5551  0.0826 -0.7308
26097SOL    HW281884   0.904   1.044   7.148 -1.6121  0.0193 -1.1395
26098SOL     OW81885  10.700   0.132  10.248  0.1522  0.3300  0.2202
26098SOL    HW181886  10.604   0.132  10.254  0.1253 -0.3180 -0.2001
26098SOL    HW281887  10.719   0.084  10.167  0.8446  0.1558  0.4851
26099SOL     OW81888   9.389   1.468   9.439 -0.5127  1.3938 -0.1914
26099SOL    HW181889   9.296   1.449   9.426 -0.3439 -0.4761  1.0526
26099SOL    HW281890   9.401   1.468   9.534  0.8127  1.3172 -0.3374
26100SOL     OW81891   7.128   1.836   9.836 -0.7091  0.0701 -0.0249
26100SOL    HW181892   7.129   1.861   9.743  0.8084 -1.7942 -0.5673
26100SOL    HW281893   7.201   1.885   9.874 -0.0315 -0.7335 -0.2809
26101SOL     OW81894   3.568   4.258   3.829  0.0125 -0.3861 -0.2638
26101SOL    HW181895   3.577   4.240   3.736  0.0400 -0.1927 -0.2984
26101SOL    HW281896   3.513   4.187   3.862  1.4882 -1.5100 -0.0821
26102SOL     OW81897   9.834   4.547   2.627  0.1460  0.2073  0.0845
26102SOL    HW181898   9.916   4.514   2.590  0.1157 -0.3608  0.5135
26102SOL    HW281899   9.786   4.468   2.652  0.0388  0.5729  1.0567
26103SOL     OW81900   3.738   3.158   5.986 -0.7244  0.1041  0.0218
26103SOL    HW181901   3.720   3.202   6.069 -0.9388 -0.8466  0.5037
26103SOL    HW281902   3.791   3.220   5.936  2.0101 -0.3899  2.0464
26104SOL     OW81903   0.316   8.042   3.966 -0.3823 -0.3963  0.2613
26104SOL    HW181904   0.392   7.999   4.004  0.7697  0.2195 -1.2175
26104SOL    HW281905   0.333   8.135   3.976  0.7403 -0.1207 -2.9096
26105SOL     OW81906   3.609   8.770  11.018 -0.2053 -0.2442 -0.0644
26105SOL    HW181907   3.584   8.683  11.050  1.1860 -0.5600  0.2003
26105SOL    HW281908   3.692   8.756  10.973  0.2851  1.0274  0.4057
26106SOL     OW81909   8.013   9.456   9.392 -0.4904  0.5509 -0.2416
26106SOL    HW181910   8.015   9.487   9.302 -0.7897 -1.8623 -1.1703
26106SOL    HW281911   8.101   9.473   9.426  0.5650 -1.0077 -1.9744
26107SOL     OW81912   1.131   7.518   8.389  0.8989  0.6262  0.1035
26107SOL    HW181913   1.202   7.524   8.326  1.0713  2.1663  0.3962
26107SOL    HW281914   1.053   7.546   8.340  0.2743 -1.8437 -0.4551
26108SOL     OW81915   0.098   9.679   6.245 -0.2356 -0.1646 -0.2374
26108SOL    HW181916   0.062   9.756   6.202 -0.9496 -0.4818 -0.2187
26108SOL    HW281917   0.053   9.674   6.329  0.4343 -0.1108  0.1318
26109SOL     OW81918   7.074   3.881  10.733 -0.4006  0.2997 -0.6043
26109SOL    HW181919   7.072   3.886  10.829 -2.2674 -0.3426 -0.5616
26109SOL    HW281920   7.066   3.972  10.704  2.4915  0.7769 -0.2335
26110SOL     OW81921   7.691   8.762   4.705  0.4182 -0.4702  0.3943
26110SOL    HW181922   7.682   8.856   4.693  0.2296 -0.5151  0.1602
26110SOL    HW281923   7.783   8.749   4.728  0.3539 -0.1930  0.8252
26111SOL     OW81924   1.121   0.591   0.377  0.3509 -0.1466  0.1067
26111SOL    HW181925   1.164   0.639   0.447 -3.2576  1.4399  1.5038
26111SOL    HW281926   1.103   0.657   0.310 -1.9422 -0.1122  0.6683
26112SOL     OW81927   9.953  10.727   8.995 -0.2961 -0.0432  0.5017
26112SOL    HW181928   9.997  10.757   9.074  2.2310 -1.5372 -0.2318
26112SOL    HW281929  10.023  10.695   8.939 -2.2126 -1.0831 -1.4507
26113SOL     OW81930  10.508   6.161   6.657  0.4051  0.7581  0.3544
26113SOL    HW181931  10.498   6.132   6.748  0.8237 -0.4959  0.0232
26113SOL    HW281932  10.593   6.206   6.655  0.1387  1.2829  0.6969
26114SOL     OW81933  11.081   2.748   0.361  0.2893  0.8010 -0.4845
26114SOL    HW181934  11.091   2.661   0.400  1.0671  0.5796 -1.1409
26114SOL    HW281935  10.996   2.745   0.317 -0.2188  0.7771  0.4553
26115SOL     OW81936   5.221   2.160   1.181  0.3046 -0.3368  0.1042
26115SOL    HW181937   5.276   2.184   1.106  0.2917  1.8175  0.7249
26115SOL    HW281938   5.281   2.115   1.241  0.5540 -1.1345 -0.7255
26116SOL     OW81939   8.195   0.089   1.091 -0.2077 -0.4429  0.4857
26116SOL    HW181940   8.252   0.025   1.134 -0.9768 -0.5633  1.3436
26116SOL    HW281941   8.134   0.036   1.039  0.1792 -0.3286 -0.1008
26117SOL     OW81942   2.943   6.428   8.907  0.7547 -0.7082 -0.4217
26117SOL    HW181943   2.938   6.342   8.864 -0.1872  0.0917 -1.9773
26117SOL    HW281944   2.851   6.451   8.924  0.8098  1.0361 -2.2240
26118SOL     OW81945   2.659   1.331   9.176  0.3890 -0.1499 -0.3253
26118SOL    HW181946   2.750   1.301   9.167  0.8484  1.3519 -1.0869
26118SOL    HW281947   2.615   1.300   9.097  0.3232 -0.5865 -0.1192
26119SOL     OW81948   5.898   7.172   5.467  0.0899 -0.4888 -0.2208
26119SOL    HW181949   5.895   7.238   5.397  0.3563  0.8352  0.9775
26119SOL    HW281950   5.807   7.146   5.480 -0.2372  0.8282  0.3476
26120SOL     OW81951   3.125   5.925   1.586 -0.1081  0.2616  0.0123
26120SOL    HW181952   3.034   5.896   1.576  0.1356 -0.2023 -1.0585
26120SOL    HW281953   3.134   5.946   1.679 -0.7252 -1.6919  0.5574
26121SOL     OW81954   1.354   4.801   3.281  0.0853  0.2590  0.0847
26121SOL    HW181955   1.425   4.763   3.333 -1.1451 -0.6075  1.1933
26121SOL    HW281956   1.378   4.893   3.271  1.7501 -0.1893 -0.2611
26122SOL     OW81957   6.080   9.453   4.005  0.7383  0.5962  0.8182
26122SOL    HW181958   6.106   9.475   3.916  0.3535  1.2492  0.8643
26122SOL    HW281959   6.143   9.385   4.032 -0.1120 -0.7608 -0.4908
26123SOL     OW81960   1.888   6.979  10.400  0.1661 -0.2482  0.0347
26123SOL    HW181961   1.946   6.972  10.324 -0.0107  2.1555 -0.4059
26123SOL    HW281962   1.947   6.996  10.474  0.1516  1.0664 -0.2259
26124SOL     OW81963   4.473   9.707   8.497 -0.3761 -0.2605  0.0134
26124SOL    HW181964   4.446   9.625   8.538  1.4084 -0.3829  1.0489
26124SOL    HW281965   4.455   9.694   8.403  1.2774 -2.4760 -0.0927
26125SOL     OW81966   9.575   5.155   8.315  0.0364 -0.7625  0.7977
26125SOL    HW181967   9.583   5.240   8.356 -0.0621 -0.3588  0.0063
26125SOL    HW281968   9.643   5.101   8.356 -0.0025 -0.3492  1.4041
26126SOL     OW81969   9.432   3.354   9.857 -0.0017  0.2927 -0.2713
26126SOL    HW181970   9.396   3.419   9.918 -0.3938  0.9488 -1.1829
26126SOL    HW281971   9.526   3.353   9.876 -0.3645 -1.1099  1.8295
26127SOL     OW81972   9.024   0.587   4.219  0.4061 -1.2569  0.3929
26127SOL    HW181973   8.962   0.570   4.290 -0.2703  0.4884  0.2653
26127SOL    HW281974   8.979   0.555   4.141 -0.5717  0.3686  0.2422
26128SOL     OW81975   3.535   5.881  10.185 -0.2867 -0.2888 -0.1053
26128SOL    HW181976   3.588   5.938  10.130  0.7678 -0.2951  0.8580
26128SOL    HW281977   3.444   5.902  10.162  0.1233 -0.0448 -1.5576
26129SOL     OW81978   4.855   7.633   7.191 -0.0398  0.6168 -0.1130
26129SOL    HW181979   4.851   7.583   7.273  0.1442  0.3394 -0.2735
26129SOL    HW281980   4.771   7.616   7.149  0.8141 -1.2366 -1.1492
26130SOL     OW81981   5.336   1.886   2.685  0.1250 -0.4096 -0.1621
26130SOL    HW181982   5.265   1.938   2.647  0.9518  0.1049 -1.0677
26130SOL    HW281983   5.384   1.852   2.609 -0.3979 -2.5422  0.4139
26131SOL     OW81984   7.508   8.727   0.724 -0.2834  0.1537  0.2526
26131SOL    HW181985   7.589   8.753   0.680 -1.5245  2.6786 -0.7215
26131SOL    HW281986   7.527   8.739   0.817 -0.1095  2.8621 -0.0459
26132SOL     OW81987   5.917  10.928   9.172  0.6383 -0.5347 -0.2595
26132SOL    HW181988   5.997  10.876   9.155  1.0582 -0.2576  0.7820
26132SOL    HW281989   5.870  10.877   9.238 -0.9218 -1.5550 -2.0555
26133SOL     OW81990   6.053   1.266   0.186  0.3664  0.0025  0.0620
26133SOL    HW181991   6.005   1.348   0.177  1.0206  0.5654  1.3399
26133SOL    HW281992   5.988   1.204   0.218 -0.2458 -0.1295 -1.3668
26134SOL     OW81993   9.438   5.423   7.047  0.0109  0.2679 -0.6563
26134SOL    HW181994   9.486   5.393   7.124 -0.9812 -0.7712 -0.4294
26134SOL    HW281995   9.490   5.497   7.014  0.2966  0.9168  1.1672
26135SOL     OW81996   3.707   3.380   8.287  0.4798 -0.2465 -0.4612
26135SOL    HW181997   3.754   3.382   8.371  2.0869 -0.1973 -1.3154
26135SOL    HW281998   3.768   3.420   8.225 -0.2723 -1.1915 -1.8520
26136SOL     OW81999   2.901   1.479   9.347  0.0862  0.1602  0.0694
26136SOL    HW182000   2.834   1.457   9.412 -1.1191  0.3257 -1.0668
26136SOL    HW282001   2.903   1.404   9.288  0.3846  0.4547 -0.3034
26137SOL     OW82002   8.605   7.163   8.220  0.3495 -0.4934  0.3474
26137SOL    HW182003   8.585   7.236   8.279 -1.3123  0.6100 -1.4850
26137SOL    HW282004   8.650   7.203   8.146 -0.2788 -1.3784 -0.5357
26138SOL     OW82005   0.155   0.603   6.549  0.1377 -0.2572 -0.3121
26138SOL    HW182006   0.127   0.527   6.497  1.7029 -1.4021  0.4366
26138SOL    HW282007   0.136   0.579   6.639 -0.4500  0.7636 -0.1492
26139SOL     OW82008   0.299   9.610   0.665 -0.1531  0.2943  0.0396
26139SOL    HW182009   0.231   9.570   0.719  1.2655  0.1349  1.8173
26139SOL    HW282010   0.357   9.537   0.642 -0.9926  0.2574 -2.2377
26140SOL     OW82011   0.772   3.816   1.439  0.2948  0.0909 -0.2431
26140SOL    HW182012   0.833   3.748   1.468  0.3641 -0.6738 -2.0320
26140SOL    HW282013   0.829   3.888   1.411  0.3429 -0.1067 -0.6702
26141SOL     OW82014   0.980   6.786   2.008 -0.1255 -0.5433  0.0402
26141SOL    HW182015   0.935   6.868   2.030 -0.6797 -0.3573 -1.6421
26141SOL    HW282016   1.014   6.754   2.092  1.6238  2.2656  0.5539
26142SOL     OW82017   4.974   9.579   9.490 -0.3841 -0.4192 -0.1602
26142SOL    HW182018   5.066   9.554   9.498 -0.2100 -0.1016 -1.0084
26142SOL    HW282019   4.946   9.599   9.579  0.4705 -0.1713  0.0576
26143SOL     OW82020   2.383   5.084  10.050 -0.3429  0.5017  0.0978
26143SOL    HW182021   2.402   5.169  10.009  0.0581  1.3294  1.8528
26143SOL    HW282022   2.469   5.052  10.078 -0.5901 -0.0501  0.2311
26144SOL     OW82023   2.508   9.772   4.111 -0.6008  0.3235 -0.6721
26144SOL    HW182024   2.525   9.866   4.106 -0.9569  0.5341  1.2888
26144SOL    HW282025   2.585   9.732   4.072  0.8699  1.3985  1.0136
26145SOL     OW82026   5.698   4.201   9.037  0.2795  0.1206 -0.5200
26145SOL    HW182027   5.645   4.271   9.000 -0.6538 -1.1393 -1.6491
26145SOL    HW282028   5.640   4.125   9.039  1.2890 -0.6540  0.6074
26146SOL     OW82029   0.248   1.167   4.600  0.0435  0.5780  0.1741
26146SOL    HW182030   0.187   1.102   4.636  0.9000  0.2641  1.0724
26146SOL    HW282031   0.245   1.240   4.662  1.0149  0.3154  0.5458
26147SOL     OW82032   3.375   7.902   5.628  0.0179  0.2299 -0.2820
26147SOL    HW182033   3.398   7.897   5.721 -1.1330 -0.0152  0.0019
26147SOL    HW282034   3.450   7.947   5.588  1.1365 -0.8273  0.5254
26148SOL     OW82035   7.432   2.490   8.610  0.0158  0.0301 -0.1895
26148SOL    HW182036   7.491   2.556   8.574  0.7236 -0.5020 -0.0438
26148SOL    HW282037   7.420   2.427   8.539 -0.1234 -0.0280 -0.1145
26149SOL     OW82038   6.241   5.763   6.952 -0.0004 -0.1482 -0.1706
26149SOL    HW182039   6.165   5.705   6.949  0.9619 -1.5524  0.8510
26149SOL    HW282040   6.204   5.850   6.969 -1.4685 -0.4643 -1.4561
26150SOL     OW82041   4.512   4.631   5.536 -0.2558  0.1269 -0.0071
26150SOL    HW182042   4.576   4.698   5.558 -0.8626  0.9541 -0.7008
26150SOL    HW282043   4.563   4.550   5.532  0.5217  0.5702  0.6263
26151SOL     OW82044   3.366   1.366   4.139  0.1872  0.4544 -0.1662
26151SOL    HW182045   3.441   1.365   4.080 -0.1516 -1.3171 -0.6490
26151SOL    HW282046   3.310   1.436   4.107  0.7482  0.5346 -0.9882
26152SOL     OW82047   9.141   5.018   8.250 -0.1043  0.4185 -0.3901
26152SOL    HW182048   9.198   4.951   8.287 -0.8359  0.2431  0.4421
26152SOL    HW282049   9.201   5.079   8.206  0.6427 -0.2352 -0.2921
26153SOL     OW82050   7.513   2.400   6.612  0.0773  0.1727 -0.0308
26153SOL    HW182051   7.460   2.320   6.609 -1.0882  0.9448 -1.2354
26153SOL    HW282052   7.499   2.442   6.527  1.1673  1.3495  0.3347
26154SOL     OW82053   8.344   4.936   4.576  0.5130 -0.0795 -0.2231
26154SOL    HW182054   8.294   4.929   4.657 -1.2466 -0.9474 -1.3079
26154SOL    HW282055   8.356   4.846   4.547  0.5460  0.2384 -1.2440
26155SOL     OW82056   5.968   1.501  10.692 -0.0585 -0.3769 -0.2201
26155SOL    HW182057   6.059   1.493  10.662 -0.1053 -2.6509  0.0863
26155SOL    HW282058   5.917   1.509  10.612  0.4638  2.8423 -0.3717
26156SOL     OW82059   7.522   3.362  10.975 -0.0818 -0.5898 -0.1345
26156SOL    HW182060   7.554   3.406  10.897  1.6247  0.1156  0.9089
26156SOL    HW282061   7.458   3.299  10.943  0.3178 -0.0806 -2.0429
26157SOL     OW82062   6.854   7.135   3.982 -0.1221  0.3131 -0.6591
26157SOL    HW182063   6.853   7.093   4.068  1.2141  0.9060 -0.3178
26157SOL    HW282064   6.770   7.180   3.976 -0.8045 -0.8586 -0.2571
26158SOL     OW82065   7.980   8.663  11.069  0.0394  0.1194  0.3225
26158SOL    HW182066   7.884   8.660  11.074 -0.1504  3.0412  0.0078
26158SOL    HW282067   7.998   8.705  10.984  1.7170 -2.1749 -0.5585
26159SOL     OW82068   7.220   1.452   0.655 -0.1642  0.0507 -0.1178
26159SOL    HW182069   7.236   1.479   0.746 -0.8127 -1.2358  0.4034
26159SOL    HW282070   7.222   1.534   0.605  1.4841  0.6357  0.8478
26160SOL     OW82071   9.043   0.471   1.623  0.0233 -0.2129  0.1222
26160SOL    HW182072   9.120   0.528   1.617 -0.6420  0.7984  0.7759
26160SOL    HW282073   8.970   0.527   1.595 -0.4712 -1.1797 -0.5725
26161SOL     OW82074   5.645   5.978   6.079  0.4439 -0.3209  0.1489
26161SOL    HW182075   5.679   6.067   6.080  1.2404 -0.6121  0.2069
26161SOL    HW282076   5.723   5.923   6.070 -0.1170 -0.9716 -0.9888
26162SOL     OW82077   3.455   2.688   0.580  0.0306 -0.0476 -0.2350
26162SOL    HW182078   3.507   2.608   0.577  0.1152  0.0109 -2.6962
26162SOL    HW282079   3.364   2.657   0.581  0.0667 -0.1486  0.8273
26163SOL     OW82080  10.607   7.907   6.292  0.0566 -0.1375  0.4006
26163SOL    HW182081  10.619   7.923   6.198  1.6727  0.1940  0.6307
26163SOL    HW282082  10.611   7.994   6.331  1.3988 -0.4200  0.9469
26164SOL     OW82083  10.463   8.978   4.606 -0.2047  0.1267  0.1395
26164SOL    HW182084  10.530   8.917   4.636 -0.6299  0.2265  1.3453
26164SOL    HW282085  10.421   8.933   4.533  0.5372 -0.3439 -0.0059
26165SOL     OW82086   2.752   3.075   2.517  0.0888  0.3688 -0.1554
26165SOL    HW182087   2.695   3.045   2.588  1.4785  0.7392  1.1769
26165SOL    HW282088   2.730   3.018   2.443 -0.6780 -0.7328  0.8784
26166SOL     OW82089   0.969   8.699  11.103  0.6029 -0.7128  0.2683
26166SOL    HW182090   0.889   8.648  11.092  0.7630 -0.8879 -0.0966
26166SOL    HW282091   0.939   8.787  11.122  0.3234 -0.7722  0.1002
26167SOL     OW82092   0.280   5.445  10.813 -0.0383  0.8165 -0.4295
26167SOL    HW182093   0.225   5.419  10.740  2.1996  1.5861 -2.5254
26167SOL    HW282094   0.368   5.419  10.787  1.0500  2.4174  1.3667
26168SOL     OW82095   2.086   1.426   6.840  0.7425  0.1578 -0.0217
26168SOL    HW182096   2.001   1.460   6.867  0.0926 -1.1794 -0.3183
26168SOL    HW282097   2.076   1.410   6.746  0.3883 -2.5465  0.4047
26169SOL     OW82098   3.579   7.062   9.520 -0.0914 -0.8779 -0.3634
26169SOL    HW182099   3.495   7.065   9.567  0.3952  1.6710  0.5033
26169SOL    HW282100   3.611   6.973   9.535 -1.0518 -0.8869  2.2535
26170SOL     OW82101  10.966   8.925   1.633  0.6311  0.6157  0.0706
26170SOL    HW182102  10.986   8.969   1.716  1.5728  1.2709 -0.4859
26170SOL    HW282103  11.043   8.869   1.617  0.0322 -0.2471  0.1057
26171SOL     OW82104  10.444   0.353   9.903 -0.3778 -0.3907  0.5874
26171SOL    HW182105  10.388   0.388   9.972  0.2308 -1.3627  1.6202
26171SOL    HW282106  10.525   0.405   9.909 -0.7099  0.2287 -0.1197
26172SOL     OW82107   2.680   2.445   0.257 -0.4256 -0.0808 -0.4230
26172SOL    HW182108   2.706   2.402   0.176 -1.8392 -2.5447  0.3215
26172SOL    HW282109   2.700   2.538   0.243  2.2217 -0.8326 -2.3637
26173SOL     OW82110   4.070  10.298   8.261 -0.2623  0.3423 -0.4123
26173SOL    HW182111   4.070  10.320   8.354  0.8557 -0.7766 -0.1149
26173SOL    HW282112   4.069  10.383   8.216 -3.6874  0.9340  0.5298
26174SOL     OW82113   7.830   2.147   9.415  0.4247  0.6548 -0.0692
26174SOL    HW182114   7.736   2.126   9.416  0.2474  1.3878  1.9342
26174SOL    HW282115   7.833   2.242   9.408  0.9884  0.7096  0.8430
26175SOL     OW82116   2.026   5.142   0.019 -0.0948 -0.6417 -0.5113
26175SOL    HW182117   2.035   5.199   0.095 -0.6791 -0.9726 -0.1786
26175SOL    HW282118   2.115   5.113  -0.001  0.2352  0.5689 -0.8441
26176SOL     OW82119   6.712   3.113   7.205  0.7103  0.0043  0.6292
26176SOL    HW182120   6.726   3.203   7.175  1.0383 -0.3082 -0.1769
26176SOL    HW282121   6.617   3.104   7.210  0.5335 -0.5786 -2.4049
26177SOL     OW82122   3.017   8.268  10.298  0.6027 -0.1779 -0.0965
26177SOL    HW182123   3.049   8.354  10.325 -0.8205  1.3038 -2.7216
26177SOL    HW282124   3.076   8.242  10.227  0.8790 -1.2885  0.5238
26178SOL     OW82125   4.632   8.228   8.723 -0.0571 -0.2783 -0.1418
26178SOL    HW182126   4.580   8.268   8.654 -1.3200 -1.7679 -0.1033
26178SOL    HW282127   4.688   8.166   8.677  1.2765  0.8473 -0.1099
26179SOL     OW82128   6.110   7.521   2.588  0.5820  0.2011  0.1695
26179SOL    HW182129   6.043   7.467   2.546  0.5619  0.7613 -0.5414
26179SOL    HW282130   6.171   7.458   2.626  0.7057 -0.3432 -0.8809
26180SOL     OW82131   3.570   3.176   3.451  0.3671  0.1084 -0.5415
26180SOL    HW182132   3.648   3.134   3.415 -0.3193 -0.3701 -1.5117
26180SOL    HW282133   3.544   3.239   3.384 -0.5263 -0.2895 -0.5825
26181SOL     OW82134  10.346   2.359  10.544 -0.0366 -0.2131  0.2712
26181SOL    HW182135  10.277   2.338  10.481 -0.0209  0.8122 -0.1036
26181SOL    HW282136  10.373   2.274  10.579  0.6666 -0.9196 -1.8495
26182SOL     OW82137   5.338   4.124   2.777 -0.4288  0.1253 -0.7641
26182SOL    HW182138   5.268   4.172   2.732  0.2941  1.2660 -0.7044
26182SOL    HW282139   5.300   4.101   2.862 -0.1432  2.4823  0.0862
26183SOL     OW82140   5.675   3.838   3.505  0.6687  0.0307 -0.3580
26183SOL    HW182141   5.614   3.839   3.579  0.9408 -0.6484 -0.1156
26183SOL    HW282142   5.746   3.897   3.532 -0.6135  2.1340 -1.3135
26184SOL     OW82143   4.217   9.550   6.446 -0.0788 -0.3234 -0.5019
26184SOL    HW182144   4.238   9.484   6.513 -0.7929  0.4678  0.5292
26184SOL    HW282145   4.137   9.518   6.405  0.3889 -0.8375 -1.0440
26185SOL     OW82146   9.035   0.766   7.918  0.7608  0.5432 -0.4984
26185SOL    HW182147   9.127   0.742   7.923  1.4090  2.9284  3.4479
26185SOL    HW282148   8.990   0.702   7.973  0.2935  0.2253 -1.2459
26186SOL     OW82149   0.581   5.878   4.966  0.6857  0.3146 -0.0643
26186SOL    HW182150   0.500   5.909   5.006 -0.2619 -2.3828  0.3092
26186SOL    HW282151   0.650   5.904   5.027 -0.1504  0.7379  0.7221
26187SOL     OW82152   3.921   8.635   8.469  0.3481 -0.1421 -0.7466
26187SOL    HW182153   3.977   8.573   8.515  0.7292  1.3114  0.8875
26187SOL    HW282154   3.835   8.594   8.469  0.0542  0.1874  2.3698
26188SOL     OW82155   4.736   0.981  10.195 -0.0361  0.0489 -0.1877
26188SOL    HW182156   4.709   0.960  10.285 -1.8005 -0.4480 -0.8078
26188SOL    HW282157   4.792   0.908  10.170 -0.0352 -0.1218  0.2948
26189SOL     OW82158   9.110   9.198  10.578 -0.1905 -0.1668 -0.2203
26189SOL    HW182159   9.178   9.140  10.543  0.2836 -1.4592  2.5333
26189SOL    HW282160   9.042   9.198  10.510  1.2302 -1.2770 -1.7498
26190SOL     OW82161  10.235   9.528   5.710  0.1196  0.0810 -0.1855
26190SOL    HW182162  10.243   9.624   5.706  1.0983  0.0360  0.2518
26190SOL    HW282163  10.268   9.505   5.797 -5.2067 -0.2631  2.0732
26191SOL     OW82164   4.528   8.618   1.401  0.2753 -0.2485 -0.3029
26191SOL    HW182165   4.485   8.682   1.457 -0.7736  1.5671 -2.9652
26191SOL    HW282166   4.606   8.662   1.369  0.9907 -1.3382 -0.1332
26192SOL     OW82167   6.555   1.470   6.781 -0.2266  0.4694  0.2107
26192SOL    HW182168   6.541   1.445   6.690 -1.2993  2.1244 -0.1456
26192SOL    HW282169   6.468   1.496   6.812  0.3253  1.0826  1.3338
26193SOL     OW82170   9.956  10.560  10.938  0.5007  0.5865 -0.4162
26193SOL    HW182171   9.891  10.498  10.904 -1.7930  1.5034  2.0170
26193SOL    HW282172   9.919  10.646  10.919  0.4665  1.1251  1.9011
26194SOL     OW82173   0.648   7.836   5.153 -0.5594 -0.0887 -0.1610
26194SOL    HW182174   0.738   7.848   5.122 -0.7234 -1.7853 -1.4601
26194SOL    HW282175   0.597   7.897   5.100 -0.5624 -1.5534 -1.9797
26195SOL     OW82176   3.775   6.925   7.243  0.0182 -0.1979  0.3405
26195SOL    HW182177   3.791   6.835   7.215 -1.2720 -0.2177 -0.3848
26195SOL    HW282178   3.845   6.975   7.200 -0.8467 -0.4872 -1.4894
26196SOL     OW82179   5.572   7.429   3.760 -0.4207  0.4016  0.6291
26196SOL    HW182180   5.541   7.498   3.818 -0.0201  0.7613  0.4241
26196SOL    HW282181   5.640   7.384   3.810 -0.4124  0.4040  0.6198
26197SOL     OW82182   2.851   4.596   1.635  0.7831 -0.4807 -1.0931
26197SOL    HW182183   2.870   4.607   1.729 -1.2010 -2.0490 -0.4401
26197SOL    HW282184   2.786   4.664   1.616  0.9531 -0.3615 -1.2450
26198SOL     OW82185   8.838   2.994   9.651  0.0903  0.1960  0.0689
26198SOL    HW182186   8.847   2.972   9.744  1.4246 -1.4337 -0.3789
26198SOL    HW282187   8.915   3.048   9.632  1.5230 -1.9697 -0.6851
26199SOL     OW82188   0.453   5.369   0.611 -0.3011  0.1040  0.2656
26199SOL    HW182189   0.459   5.441   0.675  1.8511  0.4412 -0.2292
26199SOL    HW282190   0.432   5.412   0.529 -1.0030 -0.0800  0.3482
26200SOL     OW82191   8.292  11.074   5.976  0.2266 -0.0658 -1.2391
26200SOL    HW182192   8.251  11.016   5.912  0.2803 -1.3328 -0.1533
26200SOL    HW282193   8.383  11.045   5.980 -0.0551 -0.8400  0.2891
26201SOL     OW82194   0.077  11.040   4.379 -0.3559  0.2848 -0.2482
26201SOL    HW182195   0.142  11.109   4.393  1.0616 -1.1085  0.4537
26201SOL    HW282196   0.084  11.019   4.286  2.1494 -1.5604  0.2333
26202SOL     OW82197   8.563   6.430   3.944  0.0594  1.1025 -0.0682
26202SOL    HW182198   8.527   6.342   3.960 -0.5146  1.5569  1.3007
26202SOL    HW282199   8.625   6.417   3.873  0.6647 -0.6036  0.7000
26203SOL     OW82200   1.084  10.690   4.872 -0.1316  0.2424  0.4820
26203SOL    HW182201   1.057  10.633   4.801 -2.7500  0.6934  1.0241
26203SOL    HW282202   1.078  10.778   4.837 -0.7403  0.4318  1.0482
26204SOL     OW82203   0.247   3.874   0.964 -0.1049  0.1643 -0.0899
26204SOL    HW182204   0.202   3.958   0.969 -1.7029 -0.7089  1.4503
26204SOL    HW282205   0.247   3.852   0.870  1.3299  2.3170 -0.6610
26205SOL     OW82206   2.959   8.410   9.087 -0.2823 -0.7413  0.3336
26205SOL    HW182207   2.938   8.489   9.136  0.0716  0.4453 -1.3534
26205SOL    HW282208   2.876   8.382   9.050 -0.1053 -0.0932 -0.5700
26206SOL     OW82209   4.813   7.763   8.117 -0.1017 -0.0766 -0.0096
26206SOL    HW182210   4.855   7.741   8.200  1.8038 -0.0523 -0.9232
26206SOL    HW282211   4.762   7.842   8.136  1.3748  0.7159  0.8572
26207SOL     OW82212   6.515   8.138   8.861 -0.1462  0.0288  0.6387
26207SOL    HW182213   6.475   8.225   8.857  0.2906  0.2176  0.3409
26207SOL    HW282214   6.555   8.126   8.775  0.2647 -0.2382  0.8649
26208SOL     OW82215   7.245   7.269   2.613  0.1589  0.1626  0.0169
26208SOL    HW182216   7.190   7.243   2.686 -2.9056  3.3955 -0.8767
26208SOL    HW282217   7.292   7.347   2.644 -0.3013  0.8897 -1.0432
26209SOL     OW82218   5.295   7.400   4.083 -0.1602 -0.0520 -0.2500
26209SOL    HW182219   5.296   7.493   4.060  0.7021  0.2283  0.8841
26209SOL    HW282220   5.306   7.398   4.178 -0.7618 -1.2986 -0.1860
26210SOL     OW82221   6.435   4.469   6.139 -0.2913 -0.0557  0.2718
26210SOL    HW182222   6.486   4.550   6.130  3.4162 -2.2718 -0.8786
26210SOL    HW282223   6.434   4.452   6.233 -0.1237  0.7611  0.4261
26211SOL     OW82224   7.574   9.694   3.980 -0.3568 -0.3038  0.2690
26211SOL    HW182225   7.545   9.759   4.044 -0.2927 -1.7113  1.7789
26211SOL    HW282226   7.612   9.624   4.032 -2.3485 -2.5913 -1.1417
26212SOL     OW82227   6.704   3.234   4.391  0.2173  0.9676  0.0224
26212SOL    HW182228   6.767   3.256   4.460  0.8932  1.5938 -0.7694
26212SOL    HW282229   6.633   3.190   4.437  0.7276  1.2202  1.0971
26213SOL     OW82230   8.845   0.841   2.821 -0.3870 -0.7069  0.1709
26213SOL    HW182231   8.803   0.808   2.901  0.2798 -0.2791  0.7021
26213SOL    HW282232   8.936   0.855   2.846 -0.6447  1.6104 -0.0028
26214SOL     OW82233   8.940   8.720   7.304  0.3473 -0.1135 -0.0115
26214SOL    HW182234   8.882   8.738   7.378 -1.9666 -0.8402 -1.5409
26214SOL    HW282235   8.941   8.625   7.297  1.7989 -0.1265 -0.0274
26215SOL     OW82236   9.235   5.837   5.790 -0.1343  0.0194  0.0653
26215SOL    HW182237   9.212   5.765   5.850 -0.9531 -1.9331 -2.3822
26215SOL    HW282238   9.330   5.843   5.794 -0.0876 -0.9487  0.6317
26216SOL     OW82239   3.809   2.187   9.573  0.1073  0.4022  0.2582
26216SOL    HW182240   3.796   2.258   9.510  0.9179  0.2262 -0.1253
26216SOL    HW282241   3.726   2.182   9.622  0.3343  2.2207  0.9230
26217SOL     OW82242   9.589   5.688   9.366 -0.2893 -0.1469  0.4198
26217SOL    HW182243   9.585   5.784   9.360  1.5518 -0.0352  0.3230
26217SOL    HW282244   9.662   5.671   9.425 -1.1525 -1.5179  1.1393
26218SOL     OW82245   0.494   6.275   1.476  0.2415  0.3748 -0.7877
26218SOL    HW182246   0.579   6.306   1.445  0.8786 -0.8391 -0.3533
26218SOL    HW282247   0.470   6.205   1.415  1.8124 -2.4879  1.5892
26219SOL     OW82248   7.329   4.450   1.154  0.5602 -0.0183 -0.2535
26219SOL    HW182249   7.358   4.520   1.096 -1.5966 -0.1992 -1.6559
26219SOL    HW282250   7.263   4.491   1.210 -0.6544 -0.8605 -1.0277
26220SOL     OW82251   5.768  10.420  10.503 -0.3628 -0.0238 -0.5606
26220SOL    HW182252   5.833  10.366  10.459 -0.5926 -0.4872 -0.3320
26220SOL    HW282253   5.790  10.414  10.596  0.4821  1.4271 -0.6445
26221SOL     OW82254   2.564   8.789   9.887 -0.3879  0.4098 -0.2734
26221SOL    HW182255   2.495   8.844   9.924  1.1613 -0.5091  4.7029
26221SOL    HW282256   2.521   8.705   9.871 -0.7849  0.2432  1.4956
26222SOL     OW82257   0.534  10.647  10.039  0.2680  0.1994 -0.0930
26222SOL    HW182258   0.484  10.713  10.087 -1.3194 -1.1812  0.2565
26222SOL    HW282259   0.596  10.613  10.102 -0.0890  0.1555  0.2382
26223SOL     OW82260   5.303   3.521   2.540 -0.3917  0.4118  0.6143
26223SOL    HW182261   5.369   3.546   2.475 -0.8640 -0.7066 -0.3191
26223SOL    HW282262   5.252   3.601   2.554  0.3200  0.9229  0.3333
26224SOL     OW82263   6.556   4.825   1.291 -0.6522  0.1926 -0.1194
26224SOL    HW182264   6.575   4.731   1.292  1.7580  0.6044  0.1967
26224SOL    HW282265   6.514   4.843   1.374 -0.4696 -0.5104  0.1291
26225SOL     OW82266   8.622   4.402   2.164  0.3864  0.1962 -0.1194
26225SOL    HW182267   8.555   4.360   2.109  1.1027 -0.2317 -0.6769
26225SOL    HW282268   8.625   4.493   2.132  0.8588 -0.0703 -0.8550
26226SOL     OW82269   0.387   2.703   2.939  0.3464 -0.6463  0.4716
26226SOL    HW182270   0.419   2.763   3.006  1.1043  0.3423 -0.7413
26226SOL    HW282271   0.466   2.664   2.901 -0.0987 -1.6864  0.5745
26227SOL     OW82272   0.894   1.878   8.618 -0.2697  0.5556  0.4375
26227SOL    HW182273   0.935   1.792   8.606 -0.2462  0.6654 -0.3406
26227SOL    HW282274   0.917   1.926   8.538 -0.6799  1.1210  0.6590
26228SOL     OW82275  10.532   6.975   2.429 -0.3030  0.2732 -0.3089
26228SOL    HW182276  10.477   6.897   2.419 -0.3617  0.3416 -0.5244
26228SOL    HW282277  10.470   7.048   2.436 -0.2911  0.7281 -3.3672
26229SOL     OW82278   6.162   7.484   2.245 -0.1832  0.1681  0.1204
26229SOL    HW182279   6.221   7.534   2.301  0.1514 -0.9253  0.7955
26229SOL    HW282280   6.104   7.439   2.307 -1.7257  1.1886 -0.5246
26230SOL     OW82281   6.369   4.334   3.628 -0.4547 -0.2431 -0.4116
26230SOL    HW182282   6.341   4.421   3.657 -1.0119 -1.0294  1.6511
26230SOL    HW282283   6.458   4.325   3.662 -0.7664 -0.8305  0.2774
26231SOL     OW82284   6.080  10.656   5.056  0.4257  0.4311 -0.5911
26231SOL    HW182285   6.128  10.706   5.122 -0.7675  2.1584 -0.9623
26231SOL    HW282286   6.066  10.719   4.985 -0.5512 -0.6444 -1.3785
26232SOL     OW82287   0.488   6.554   0.909 -0.6144  0.1870 -0.2604
26232SOL    HW182288   0.461   6.553   0.817 -2.0914 -0.1333  0.1483
26232SOL    HW282289   0.579   6.584   0.907 -1.3942  2.7567 -1.6309
26233SOL     OW82290   8.143   1.831   1.657 -0.0222 -0.2562 -0.1777
26233SOL    HW182291   8.227   1.869   1.685  0.3239 -0.0707 -1.3977
26233SOL    HW282292   8.134   1.752   1.710 -1.2840  1.9527  3.2455
26234SOL     OW82293  10.886   2.493   0.065 -0.1203  0.4696 -0.6779
26234SOL    HW182294  10.893   2.398   0.060  0.0298  0.4955 -0.9511
26234SOL    HW282295  10.803   2.514   0.024  0.0671  0.4958 -1.0430
26235SOL     OW82296   1.996   8.237   2.081 -0.3920 -0.1237  0.0470
26235SOL    HW182297   1.919   8.226   2.137 -0.5276 -0.9351 -0.2880
26235SOL    HW282298   1.972   8.194   1.998 -0.4735  1.6441 -0.9068
26236SOL     OW82299   6.751   3.449  10.629 -0.2640  0.0866  0.5654
26236SOL    HW182300   6.823   3.508  10.653  0.4433  0.1639 -1.6057
26236SOL    HW282301   6.715   3.421  10.714  1.5053  1.0196  1.6993
26237SOL     OW82302   3.284   3.410   7.893 -0.4913  0.3666  0.6100
26237SOL    HW182303   3.303   3.317   7.883  0.0128  0.6869 -2.6448
26237SOL    HW282304   3.369   3.453   7.887 -0.7894  1.1056  1.3824
26238SOL     OW82305   5.497   2.969   7.231  0.5544  0.8141  0.0015
26238SOL    HW182306   5.412   2.974   7.275  0.1484 -0.2269 -0.6275
26238SOL    HW282307   5.561   2.987   7.300 -0.0679 -0.7846  1.0683
26239SOL     OW82308   8.780   3.477   6.068  0.1575  0.1835 -0.0838
26239SOL    HW182309   8.820   3.491   5.983  0.8481 -2.3042 -0.2685
26239SOL    HW282310   8.759   3.564   6.100  2.0470  1.3399 -1.7581
26240SOL     OW82311   6.061   3.519   7.347  0.1039 -0.1345  0.0149
26240SOL    HW182312   6.054   3.544   7.440 -1.1478  0.9550 -0.3294
26240SOL    HW282313   6.051   3.602   7.300  0.6164 -0.6951 -1.1055
26241SOL     OW82314   8.523   3.701   7.994  0.0085 -0.5637 -0.2039
26241SOL    HW182315   8.489   3.616   7.967  2.2835 -2.3714  2.1300
26241SOL    HW282316   8.600   3.715   7.938  0.2698 -0.5715  0.1529
26242SOL     OW82317  10.274   8.112   0.870  0.2128  0.3689  0.0266
26242SOL    HW182318  10.182   8.129   0.888 -0.2545  0.5794 -2.3609
26242SOL    HW282319  10.307   8.192   0.829  0.8610 -0.4973 -1.2003
26243SOL     OW82320   1.823   0.958   4.905 -0.1094  0.1739  0.1651
26243SOL    HW182321   1.860   0.911   4.831 -0.0603 -0.4318  0.5733
26243SOL    HW282322   1.821   1.050   4.876  2.7208  0.4371  0.5018
26244SOL     OW82323   4.506   3.097  10.958  0.3554 -0.3438 -0.4848
26244SOL    HW182324   4.465   3.077  10.874 -0.1428  0.8699 -0.5449
26244SOL    HW282325   4.528   3.011  10.994  0.4807 -0.8884 -1.7968
26245SOL     OW82326  10.805   0.193   8.881 -0.0324  0.6657 -0.2784
26245SOL    HW182327  10.860   0.267   8.856 -0.9044  1.3550 -0.2415
26245SOL    HW282328  10.777   0.214   8.971  0.0018  0.1044 -0.1308
26246SOL     OW82329   1.374   1.723   8.411  0.4674  0.5892 -0.0971
26246SOL    HW182330   1.372   1.635   8.372  1.8932  0.6009 -0.2631
26246SOL    HW282331   1.427   1.775   8.351 -2.6562  2.4092 -1.5236
26247SOL     OW82332  10.751   3.208   2.542 -0.3882  0.2051 -0.2129
26247SOL    HW182333  10.806   3.151   2.488  1.3388  2.0811 -0.6082
26247SOL    HW282334  10.753   3.292   2.496 -1.4002  1.0441  1.2091
26248SOL     OW82335   0.568   3.034   7.781 -0.4863 -0.7274  0.1123
26248SOL    HW182336   0.540   3.018   7.691  0.9501 -0.3538 -0.4223
26248SOL    HW282337   0.531   3.120   7.802  1.5383  0.5620 -1.1934
26249SOL     OW82338   1.319   1.993   9.273 -0.4038 -0.2356 -0.3237
26249SOL    HW182339   1.276   1.917   9.312 -0.4195 -0.8211 -1.4505
26249SOL    HW282340   1.347   1.963   9.186 -1.1353  1.2838 -1.1165
26250SOL     OW82341   0.140   6.788   3.753  0.4908 -0.1412 -0.4264
26250SOL    HW182342   0.107   6.699   3.764  1.0091 -0.1942  0.8267
26250SOL    HW282343   0.217   6.792   3.809  0.4433  1.1246 -0.4249
26251SOL     OW82344   0.306   2.895   4.407  0.2451 -0.1791 -0.1927
26251SOL    HW182345   0.231   2.954   4.408 -0.0722 -0.5723 -0.5496
26251SOL    HW282346   0.314   2.865   4.498 -1.2301 -1.6110 -0.4887
26252SOL     OW82347   5.650   2.050   4.317 -0.3285 -0.1185  0.0911
26252SOL    HW182348   5.735   2.030   4.279 -0.5415 -1.4885  0.3107
26252SOL    HW282349   5.661   2.137   4.356  1.2966 -0.7156  1.0513
26253SOL     OW82350  10.813   7.493   2.874 -0.2577  0.0661  0.4430
26253SOL    HW182351  10.816   7.497   2.778  0.1600 -0.4173  0.4318
26253SOL    HW282352  10.784   7.580   2.901 -0.4328  0.1886 -0.1257
26254SOL     OW82353  10.552   2.183   0.930 -0.5164  0.8064  0.0699
26254SOL    HW182354  10.555   2.276   0.950 -1.8208  0.8377  0.2041
26254SOL    HW282355  10.458   2.162   0.926 -0.2647 -0.7147  1.0868
26255SOL     OW82356   9.732   5.404   3.022  0.5264 -0.0080 -0.1290
26255SOL    HW182357   9.666   5.339   3.000  1.6911 -1.2057 -0.1843
26255SOL    HW282358   9.728   5.468   2.951  0.1150 -0.5963 -0.6439
26256SOL     OW82359   4.305   1.230   2.829 -0.2323  0.0487 -0.3329
26256SOL    HW182360   4.309   1.165   2.898  1.7906 -0.0730 -0.5209
26256SOL    HW282361   4.394   1.264   2.822 -0.7400  1.1973 -1.7982
26257SOL     OW82362   1.285  10.114   1.121  0.4607  0.2943  0.6456
26257SOL    HW182363   1.338  10.194   1.123 -0.4086  0.8996  3.4134
26257SOL    HW282364   1.246  10.113   1.034  2.6637  1.3824 -0.4271
26258SOL     OW82365   6.723   1.807   9.763  0.5192 -0.1062  0.4709
26258SOL    HW182366   6.748   1.893   9.729  0.7978  0.1257  1.2254
26258SOL    HW282367   6.715   1.751   9.686  1.1686  0.3856  0.0379
26259SOL     OW82368   0.886   9.381   0.556  0.5368 -0.4646 -0.4167
26259SOL    HW182369   0.948   9.358   0.487  0.2590  0.1444 -0.8806
26259SOL    HW282370   0.909   9.324   0.629  2.6735  0.8104  0.0063
26260SOL     OW82371   4.227   2.556   8.353  0.4652 -0.5045  0.2870
26260SOL    HW182372   4.168   2.482   8.348  0.8662 -0.8870  1.0615
26260SOL    HW282373   4.182   2.619   8.409 -0.3017  0.2667 -1.1260
26261SOL     OW82374  10.657   5.154   5.624 -0.5184 -0.0233  0.7038
26261SOL    HW182375  10.620   5.242   5.617 -1.0640 -0.1774  1.4744
26261SOL    HW282376  10.751   5.168   5.632 -0.2838  0.3558 -1.8145
26262SOL     OW82377   2.294   9.406   4.898  0.2938 -0.2843 -0.3321
26262SOL    HW182378   2.382   9.441   4.890  0.2082  0.3696  1.1940
26262SOL    HW282379   2.297   9.352   4.977 -1.0473  1.0445  0.6831
26263SOL     OW82380   3.659   7.453   6.189 -0.3738 -0.4857  0.5940
26263SOL    HW182381   3.694   7.510   6.257  1.2688  1.0082 -1.3754
26263SOL    HW282382   3.686   7.365   6.215 -3.5996 -0.7091  4.0918
26264SOL     OW82383   5.342   0.095   1.500 -0.1028 -0.1678 -0.7574
26264SOL    HW182384   5.338   0.010   1.455 -1.1773 -1.0401  0.8694
26264SOL    HW282385   5.251   0.123   1.507  0.0801  0.2213  0.3114
26265SOL     OW82386   7.883   2.481   3.798 -0.0560 -0.4929  0.0750
26265SOL    HW182387   7.928   2.477   3.883 -0.1590  1.6939  0.2898
26265SOL    HW282388   7.840   2.396   3.790 -0.1331 -0.7329  2.2748
26266SOL     OW82389   8.852   3.365   7.364 -0.4963  0.0358  0.1094
26266SOL    HW182390   8.793   3.440   7.375  1.8028  1.9825 -0.0937
26266SOL    HW282391   8.824   3.303   7.431 -4.3794 -0.3506 -1.5779
26267SOL     OW82392   3.765   6.440   5.554  0.1989  0.5558 -0.3874
26267SOL    HW182393   3.779   6.496   5.477  0.0153 -0.2008 -0.9873
26267SOL    HW282394   3.773   6.499   5.629  3.2710  0.8304 -0.8156
26268SOL     OW82395  10.406  10.081  10.634  0.1983 -0.0559  0.3191
26268SOL    HW182396  10.391  10.167  10.674 -1.8990 -0.5772  0.7566
26268SOL    HW282397  10.500  10.068  10.642  0.9592  3.0661 -1.5570
26269SOL     OW82398   1.687   8.530   8.865 -0.4363  0.1568  0.7770
26269SOL    HW182399   1.592   8.529   8.870 -0.4583  1.2372  0.7367
26269SOL    HW282400   1.714   8.606   8.917  0.4764 -0.8345  1.8051
26270SOL     OW82401   7.729   6.474   6.817  0.4462  0.1963  0.0625
26270SOL    HW182402   7.781   6.510   6.745 -0.1238 -0.3486 -0.6192
26270SOL    HW282403   7.754   6.528   6.893  1.4466  0.4230 -0.4128
26271SOL     OW82404   4.980   9.526   5.222 -0.1558  0.1108  0.3964
26271SOL    HW182405   4.901   9.575   5.197  0.6197  0.8595 -0.6412
26271SOL    HW282406   5.045   9.551   5.157  0.9995 -0.3682  1.3463
26272SOL     OW82407   9.825   1.312   5.424 -0.2324  0.3829 -0.1646
26272SOL    HW182408   9.790   1.260   5.351 -1.1515 -0.4187  0.8177
26272SOL    HW282409   9.857   1.247   5.486 -1.4786  0.9641  1.1220
26273SOL     OW82410   7.733   7.265   4.062 -0.7761  0.3784  0.4476
26273SOL    HW182411   7.640   7.249   4.051 -0.9943  0.8739  1.4889
26273SOL    HW282412   7.747   7.354   4.030 -1.0308  1.0206  2.0031
26274SOL     OW82413   1.083   7.960   9.552 -0.4765  0.2966  0.1010
26274SOL    HW182414   1.141   7.954   9.477 -0.1235  0.2817  0.3737
26274SOL    HW282415   1.113   8.037   9.600  0.0760 -0.3744  0.8670
26275SOL     OW82416   2.984   8.278   6.763  0.3250 -0.3335  0.0292
26275SOL    HW182417   3.042   8.303   6.835  1.7817 -1.2528 -0.7588
26275SOL    HW282418   3.043   8.267   6.688 -1.2530  1.4341 -1.5496
26276SOL     OW82419   5.249  10.329   8.270  0.1796 -0.6273 -0.3858
26276SOL    HW182420   5.171  10.276   8.289 -1.1180  0.3230 -2.6012
26276SOL    HW282421   5.290  10.285   8.196  0.2697  0.2624 -0.8831
26277SOL     OW82422   6.045   4.267   4.322  0.1542  0.5306  0.9379
26277SOL    HW182423   5.966   4.222   4.353 -2.1024  2.6123 -1.3253
26277SOL    HW282424   6.098   4.198   4.282 -1.9859 -0.5436 -0.2078
26278SOL     OW82425   4.748   4.772   2.000 -0.0661 -0.0635  0.6613
26278SOL    HW182426   4.703   4.838   2.052  0.8614  0.4102  0.8850
26278SOL    HW282427   4.716   4.785   1.911 -1.2284 -0.5020  0.9893
26279SOL     OW82428   9.669   4.119   6.678  0.4569 -0.3438 -0.6401
26279SOL    HW182429   9.609   4.079   6.615  0.5332 -2.0057  0.2795
26279SOL    HW282430   9.688   4.049   6.740  1.7266  0.7581  0.2634
26280SOL     OW82431   7.940   1.579   8.464 -0.6553  0.2675 -0.3888
26280SOL    HW182432   7.896   1.658   8.434 -1.1475  0.8626  1.7472
26280SOL    HW282433   7.895   1.507   8.419 -1.4493  1.0864 -0.9314
26281SOL     OW82434   7.907   5.564   3.887  0.3543 -0.2154  0.0479
26281SOL    HW182435   7.873   5.561   3.797 -0.3944  2.2088  0.1739
26281SOL    HW282436   7.838   5.608   3.937  1.8905  0.9386  1.2295
26282SOL     OW82437   3.901   0.651   3.521  0.1819 -0.4817 -0.0068
26282SOL    HW182438   3.993   0.642   3.544  0.7696 -1.7909 -2.5318
26282SOL    HW282439   3.880   0.742   3.543  2.0819 -0.1200  0.5248
26283SOL     OW82440   8.966   5.360   5.444  0.1806  0.0212  0.0855
26283SOL    HW182441   9.058   5.340   5.427  0.0373 -0.6666  0.0743
26283SOL    HW282442   8.940   5.416   5.371  0.8506  1.0394  0.6150
26284SOL     OW82443   2.307   4.058   4.365  0.4752  0.2324 -0.2135
26284SOL    HW182444   2.261   4.077   4.283  1.0017 -0.7411 -0.7621
26284SOL    HW282445   2.319   3.963   4.364 -1.1091 -0.0776  1.8740
26285SOL     OW82446   7.489   9.014   3.337  0.4214  0.6070  0.4128
26285SOL    HW182447   7.442   9.096   3.318 -1.1122  0.1120  1.8260
26285SOL    HW282448   7.476   8.961   3.258  0.9957  1.5042 -0.3128
26286SOL     OW82449   5.303   5.871   8.762 -0.0761  0.0832  0.3119
26286SOL    HW182450   5.313   5.777   8.748 -0.0923 -0.2234  2.0918
26286SOL    HW282451   5.315   5.883   8.857  0.7168  1.9767  0.0330
26287SOL     OW82452   0.457   3.423   5.035 -0.0207 -0.5946  0.1052
26287SOL    HW182453   0.463   3.491   5.102  2.5679 -1.5632  0.9655
26287SOL    HW282454   0.421   3.468   4.958  0.9834  1.5862  0.8335
26288SOL     OW82455   9.814   7.054  10.620  0.3050  0.2243 -0.1328
26288SOL    HW182456   9.726   7.088  10.603  0.5990  0.5399 -1.0469
26288SOL    HW282457   9.872   7.129  10.607  0.6726  0.1747  1.0600
26289SOL     OW82458   6.094   6.756   4.239 -0.4443  0.1380 -0.5380
26289SOL    HW182459   6.092   6.728   4.147  2.2420  0.6081 -0.8108
26289SOL    HW282460   6.156   6.697   4.281  0.9621  2.0160  0.1530
26290SOL     OW82461   8.731   2.105   9.935  0.1008  0.7860  0.1621
26290SOL    HW182462   8.818   2.113   9.975  0.7467 -0.2877 -0.9654
26290SOL    HW282463   8.712   2.012   9.937 -0.7442  0.9386 -0.2342
26291SOL     OW82464   0.329   1.973   7.574 -0.2650 -0.6805  0.3750
26291SOL    HW182465   0.329   1.993   7.480  0.9814 -0.2807  0.4479
26291SOL    HW282466   0.353   1.881   7.579  1.1600 -0.3288  0.3511
26292SOL     OW82467   7.559   9.816   2.115 -0.9935  0.0647  0.1261
26292SOL    HW182468   7.544   9.813   2.021  0.8216  0.2771 -0.2028
26292SOL    HW282469   7.513   9.894   2.144  1.9634  2.6014 -1.3691
26293SOL     OW82470   9.450   4.700   9.127  0.3472 -0.1193 -0.3742
26293SOL    HW182471   9.388   4.719   9.198  1.9639  2.5400  0.4502
26293SOL    HW282472   9.418   4.752   9.054  1.6264  1.4712  0.1299
26294SOL     OW82473   1.827  10.296   5.061  0.3363  0.2139  0.4578
26294SOL    HW182474   1.865  10.277   4.975 -0.2080 -0.9840  0.4664
26294SOL    HW282475   1.753  10.237   5.068 -2.4151  3.3275 -0.1008
26295SOL     OW82476   6.263   8.112   4.862  0.2525  0.0386  0.5793
26295SOL    HW182477   6.332   8.051   4.890  0.0110  0.1844  1.5201
26295SOL    HW282478   6.296   8.149   4.780  0.2118 -1.6656 -0.2653
26296SOL     OW82479   8.612   0.333   1.952  0.6175  0.3337  0.1937
26296SOL    HW182480   8.569   0.419   1.958  1.9732  1.0281  0.3044
26296SOL    HW282481   8.552   0.280   1.899 -0.2045  1.3690  0.0517
26297SOL     OW82482   1.225   2.897   8.900 -0.0837  0.0212 -0.1983
26297SOL    HW182483   1.197   2.986   8.876 -0.2977  0.5736  1.8979
26297SOL    HW282484   1.143   2.847   8.903 -0.1024  0.0503 -0.2119
26298SOL     OW82485   6.264   2.640   4.395  0.1422 -0.0892 -0.1894
26298SOL    HW182486   6.175   2.661   4.367 -0.3138 -0.1025  1.1580
26298SOL    HW282487   6.280   2.552   4.360  0.4645  0.7364 -2.2524
26299SOL     OW82488   0.571   0.415  10.740 -0.6331  0.0425  0.4484
26299SOL    HW182489   0.614   0.355  10.679 -0.5854  0.6060 -0.0811
26299SOL    HW282490   0.547   0.491  10.686  0.2021  0.9405  1.2923
26300SOL     OW82491  10.804   8.569   3.043  0.4359  0.7293 -0.0494
26300SOL    HW182492  10.831   8.478   3.051 -0.1950  0.6088  0.8772
26300SOL    HW282493  10.733   8.568   2.979 -0.8605  0.2486  1.3137
26301SOL     OW82494   2.947  10.029   6.597  0.7257  0.5801  0.3983
26301SOL    HW182495   2.950  10.115   6.557  0.1912 -0.0041 -0.9537
26301SOL    HW282496   2.907  10.044   6.683 -1.0569  1.4453 -0.5226
26302SOL     OW82497  10.678   4.421   8.448  0.2674 -0.1820 -0.6134
26302SOL    HW182498  10.656   4.337   8.487 -0.4441  0.0089 -0.5911
26302SOL    HW282499  10.710   4.474   8.521  0.2153 -0.2624 -0.5326
26303SOL     OW82500   8.989  10.600  10.155  0.3328 -0.9131 -0.3456
26303SOL    HW182501   8.900  10.602  10.122 -0.2781 -0.8803  1.1870
26303SOL    HW282502   8.989  10.529  10.220  1.0613 -0.1045  0.5766
26304SOL     OW82503   7.810   2.111   6.745  0.2476 -0.2607  0.2607
26304SOL    HW182504   7.792   2.203   6.728  0.6395 -0.5333 -1.7825
26304SOL    HW282505   7.872   2.085   6.678  0.3084 -1.9764  0.9318
26305SOL     OW82506   4.705   1.769   5.122 -0.1373 -0.3226 -0.3537
26305SOL    HW182507   4.731   1.682   5.155 -0.8992 -1.3940 -2.4345
26305SOL    HW282508   4.787   1.811   5.100  0.1642 -1.3985 -1.3884
26306SOL     OW82509  10.831  10.666   7.806  0.7664  0.0664  0.0447
26306SOL    HW182510  10.834  10.728   7.733 -0.5123  0.0121 -0.0819
26306SOL    HW282511  10.771  10.707   7.869  1.7470  0.0483  1.0125
26307SOL     OW82512  10.712   3.481   9.034 -0.0206 -0.5609 -0.6397
26307SOL    HW182513  10.712   3.452   9.125  0.6773  1.4594  0.0656
26307SOL    HW282514  10.797   3.454   9.000 -0.0564 -0.8240 -0.5190
26308SOL     OW82515   0.234   0.835  10.363 -0.6228  0.6184 -0.2507
26308SOL    HW182516   0.303   0.880  10.411  1.0600 -0.4381 -1.5601
26308SOL    HW282517   0.208   0.896  10.294 -1.0994  1.0527  0.2989
26309SOL     OW82518   1.447   8.409   5.320  0.0767 -0.2890 -0.4821
26309SOL    HW182519   1.381   8.395   5.388  0.0844  0.3856 -0.3281
26309SOL    HW282520   1.499   8.483   5.352 -0.5601  0.7229 -1.6867
26310SOL     OW82521   5.799   4.362   7.236  0.0244  0.2234 -0.2325
26310SOL    HW182522   5.893   4.355   7.251 -0.2531  1.0696  2.4352
26310SOL    HW282523   5.784   4.313   7.156  2.9336  1.3099 -1.5932
26311SOL     OW82524   3.052   0.422   4.614  0.3367  0.0606 -0.5499
26311SOL    HW182525   2.971   0.406   4.661 -0.6436 -0.3766 -2.3180
26311SOL    HW282526   3.075   0.512   4.636 -1.5318  0.7636 -1.3034
26312SOL     OW82527   6.631   0.339   0.555 -0.9893  0.0616  0.5102
26312SOL    HW182528   6.629   0.290   0.637 -1.5420 -0.0509  0.4271
26312SOL    HW282529   6.548   0.319   0.512 -0.6552  0.0314 -0.1317
26313SOL     OW82530   1.423   9.482   9.233 -0.0105  0.3877  0.0618
26313SOL    HW182531   1.480   9.409   9.210  0.0000  0.6649 -0.8572
26313SOL    HW282532   1.404   9.525   9.149  1.4541  2.5400  0.7336
26314SOL     OW82533   6.351   7.028  10.700  0.4402  0.5943  0.3430
26314SOL    HW182534   6.342   7.117  10.667 -0.2631 -0.3332 -2.1921
26314SOL    HW282535   6.280   7.019  10.765 -0.1379  1.5768 -0.1342
26315SOL     OW82536   9.138  10.912   6.376  0.6443  0.4562 -0.5738
26315SOL    HW182537   9.209  10.976   6.379 -0.1293  1.2954  1.8454
26315SOL    HW282538   9.139  10.870   6.462 -1.0140 -0.4092 -0.9327
26316SOL     OW82539  10.038   4.398   2.459  0.3998 -0.2823 -0.7351
26316SOL    HW182540  10.002   4.425   2.375 -1.0438  3.1340  0.7811
26316SOL    HW282541  10.132   4.419   2.453 -0.0110  1.6617 -0.9642
26317SOL     OW82542   6.420   2.048  10.235  0.4106  0.1296  0.3431
26317SOL    HW182543   6.368   2.037  10.315  0.7655  3.0678  1.0855
26317SOL    HW282544   6.511   2.036  10.263  0.4713  0.2748  0.2131
26318SOL     OW82545   8.920   2.601   8.485 -0.2527  0.4166  0.0646
26318SOL    HW182546   8.916   2.667   8.553 -0.0968  0.6906 -0.1921
26318SOL    HW282547   8.982   2.635   8.421  0.4035 -0.3183  0.2876
26319SOL     OW82548   0.442   2.811   4.164 -0.2121  0.2796  0.6872
26319SOL    HW182549   0.397   2.839   4.244  0.4822 -0.6214  1.4117
26319SOL    HW282550   0.491   2.733   4.190  1.6104  1.1011 -0.1198
26320SOL     OW82551   2.420  10.354   6.029  0.5056 -0.4723 -0.4181
26320SOL    HW182552   2.381  10.404   6.100  1.2497 -1.9556  1.1148
26320SOL    HW282553   2.392  10.399   5.949 -1.1334  0.7098  0.7575
26321SOL     OW82554   8.389  10.931   0.617 -0.0495 -0.0172  0.0949
26321SOL    HW182555   8.325  10.927   0.546 -1.0011  1.4194  0.8234
26321SOL    HW282556   8.444  11.006   0.595  0.4221 -0.3099  0.2606
26322SOL     OW82557   8.067   5.883   9.481 -0.2853  0.3160 -0.4428
26322SOL    HW182558   8.061   5.796   9.442  0.8251  0.7473 -1.6558
26322SOL    HW282559   7.993   5.888   9.542  0.4291 -1.9664  0.6909
26323SOL     OW82560   0.891   1.735   1.417  0.0373 -0.5452 -0.2191
26323SOL    HW182561   0.881   1.647   1.453  0.3138 -0.5659 -0.1941
26323SOL    HW282562   0.801   1.767   1.409 -0.2109 -1.5262 -1.9887
26324SOL     OW82563  10.801   2.472   6.881  0.8639 -0.9113 -0.1262
26324SOL    HW182564  10.760   2.401   6.831  1.5649 -0.7815 -0.9063
26324SOL    HW282565  10.895   2.460   6.868  0.9898  0.4370 -0.7102
26325SOL     OW82566   8.550   7.767   6.269  0.1044  0.0477 -0.2407
26325SOL    HW182567   8.640   7.777   6.237  0.1269 -1.1923 -0.5990
26325SOL    HW282568   8.558   7.705   6.342 -0.0408  2.2535  1.7885
26326SOL     OW82569   5.324   0.941   8.487  0.0297 -0.1451  0.5233
26326SOL    HW182570   5.420   0.949   8.485  0.1893 -1.7279 -0.1945
26326SOL    HW282571   5.294   0.984   8.407  0.2157 -0.3504  0.3418
26327SOL     OW82572   8.919   7.777  10.974 -0.5247  0.2470 -0.4942
26327SOL    HW182573   9.004   7.817  10.954  0.3472 -1.7602 -1.1531
26327SOL    HW282574   8.934   7.683  10.962 -2.4197 -0.3073  1.0327
26328SOL     OW82575   1.030   4.750   5.350 -0.3330  0.0713  0.5306
26328SOL    HW182576   1.008   4.784   5.437 -3.7709 -2.1832  0.7137
26328SOL    HW282577   0.980   4.804   5.290  0.1844  0.1076  0.1251
26329SOL     OW82578   9.798   9.789   2.511  0.1373 -0.4396  0.7362
26329SOL    HW182579   9.755   9.840   2.442  0.0448 -0.2856  0.9064
26329SOL    HW282580   9.764   9.700   2.501  1.7931 -0.9729 -0.8509
26330SOL     OW82581   5.014   9.238   8.166 -0.6308 -0.5048 -0.2132
26330SOL    HW182582   5.008   9.143   8.177 -1.2563 -0.5256 -0.7382
26330SOL    HW282583   4.994   9.254   8.074  1.5682 -0.0472 -0.6690
26331SOL     OW82584   8.310   8.379   5.084 -0.1182  0.0243  0.7315
26331SOL    HW182585   8.294   8.299   5.035 -1.4845  0.5350  0.2934
26331SOL    HW282586   8.242   8.380   5.151 -3.3902  3.0763 -2.1841
26332SOL     OW82587   9.606   9.655   3.251  0.0751  0.3363 -0.1907
26332SOL    HW182588   9.604   9.729   3.312  0.0685 -0.6438  1.0259
26332SOL    HW282589   9.673   9.679   3.187  1.3575  0.6187  1.2068
26333SOL     OW82590   5.648   3.244  10.636  0.2563  0.2415 -0.0403
26333SOL    HW182591   5.614   3.223  10.549 -0.3968  0.1236  0.2355
26333SOL    HW282592   5.593   3.316  10.666 -0.0128 -0.2105  0.5728
26334SOL     OW82593   6.018   2.900   3.105  0.1483  0.3442  0.1448
26334SOL    HW182594   6.068   2.893   3.024 -1.7479 -1.5119 -0.9632
26334SOL    HW282595   5.935   2.938   3.079 -0.1401  0.6223  1.4010
26335SOL     OW82596   0.209   5.629   6.246 -0.1998 -0.0903 -0.2402
26335SOL    HW182597   0.217   5.614   6.152 -0.8267  1.2936 -0.5432
26335SOL    HW282598   0.114   5.632   6.261 -0.1087 -0.9292  0.5556
26336SOL     OW82599   3.987  10.932   4.118  0.0035 -0.2420 -0.0965
26336SOL    HW182600   4.006  10.936   4.212 -2.0262  0.8132  0.3168
26336SOL    HW282601   3.988  10.838   4.098 -0.3486 -0.5332  1.1560
26337SOL     OW82602   1.347   1.987   1.419 -0.1159  0.5902 -0.5103
26337SOL    HW182603   1.423   2.020   1.468  0.5802 -0.7044 -0.6795
26337SOL    HW282604   1.358   1.892   1.419 -0.9317  0.4741 -1.8445
26338SOL     OW82605  10.490   2.448   7.723 -0.4741  0.1697  0.8323
26338SOL    HW182606  10.456   2.456   7.634  1.1142 -0.7118  0.1018
26338SOL    HW282607  10.419   2.409   7.774 -0.8777 -0.7574 -0.4140
26339SOL     OW82608   4.897   7.840   9.668 -0.0296 -0.1136  0.2841
26339SOL    HW182609   4.859   7.877   9.588  0.1198  0.0056  0.2666
26339SOL    HW282610   4.852   7.756   9.679  1.0641 -0.8956 -0.8321
26340SOL     OW82611   6.303   1.819   0.267  0.3115  0.4124 -0.5263
26340SOL    HW182612   6.283   1.843   0.357  1.2965 -2.2296  0.5074
26340SOL    HW282613   6.388   1.860   0.249  0.8578 -0.3067  0.3447
26341SOL     OW82614   7.779   3.581   9.214  0.1204 -0.4367  0.2502
26341SOL    HW182615   7.757   3.638   9.288  1.3219 -1.3802  1.4038
26341SOL    HW282616   7.874   3.590   9.204  0.1349 -1.2095 -0.4207
26342SOL     OW82617  11.098   8.583   7.452  0.5176  0.3308 -0.0099
26342SOL    HW182618  11.062   8.596   7.364 -0.1204 -0.1646  0.1743
26342SOL    HW282619  11.111   8.489   7.460 -0.7397  0.2030  0.9166
26343SOL     OW82620   9.752   6.982   4.690 -0.5298 -0.0535 -0.4999
26343SOL    HW182621   9.807   7.019   4.759 -2.0061  0.8644  0.2571
26343SOL    HW282622   9.764   7.040   4.615 -1.1775  0.7365 -0.0162
26344SOL     OW82623  10.507   7.203   2.196  0.3489 -0.3074  0.3789
26344SOL    HW182624  10.526   7.110   2.201  0.8174 -0.3649 -1.6945
26344SOL    HW282625  10.500   7.231   2.287 -1.3185 -2.6444  1.0479
26345SOL     OW82626   1.680   0.766   0.392 -0.3648 -0.2457 -0.0148
26345SOL    HW182627   1.734   0.800   0.321  0.0925 -1.6106 -0.3580
26345SOL    HW282628   1.643   0.844   0.434  3.3747  0.9876  1.5040
26346SOL     OW82629  10.442   5.607   1.522 -0.4333  0.3828 -0.1862
26346SOL    HW182630  10.493   5.624   1.601 -0.4559  0.6201 -0.2212
26346SOL    HW282631  10.366   5.665   1.529 -1.9522 -1.6162  1.0207
26347SOL     OW82632   0.132   4.102   8.907 -0.4239  0.3904 -0.0335
26347SOL    HW182633   0.164   4.029   8.855  0.9002  1.1053 -0.2591
26347SOL    HW282634   0.095   4.061   8.986  0.2716 -0.5217 -0.1702
26348SOL     OW82635   3.885   9.650   8.311  0.5346 -0.1246 -0.5659
26348SOL    HW182636   3.946   9.582   8.343  0.5840  0.1913  0.0183
26348SOL    HW282637   3.914   9.666   8.221  0.3198 -1.1101 -0.8250
26349SOL     OW82638   3.409   8.039   7.792 -0.0991  0.3171 -0.0243
26349SOL    HW182639   3.401   8.112   7.731 -0.4556 -0.1958 -0.5993
26349SOL    HW282640   3.321   8.003   7.798  0.1941 -0.4389 -0.2123
26350SOL     OW82641   0.404   8.465   9.700  0.2456 -0.2444  0.1427
26350SOL    HW182642   0.329   8.428   9.747  0.2484  1.7810  1.9136
26350SOL    HW282643   0.365   8.522   9.633  0.2525 -2.4698 -1.8830
26351SOL     OW82644   9.147   8.904   3.954  0.4329  0.4305  0.0967
26351SOL    HW182645   9.092   8.832   3.923  1.5232 -0.6808  0.6773
26351SOL    HW282646   9.234   8.886   3.918  0.2037  2.9432 -2.0463
26352SOL     OW82647   9.406   1.121   6.348  0.2969 -0.1338 -0.0792
26352SOL    HW182648   9.458   1.044   6.370  1.3419  0.1661 -1.3356
26352SOL    HW282649   9.358   1.096   6.269  1.7322  0.9114 -1.3402
26353SOL     OW82650   8.909   6.871   6.791 -0.0428 -0.0200 -0.0109
26353SOL    HW182651   8.902   6.881   6.886 -0.6849  0.0903 -0.0638
26353SOL    HW282652   9.003   6.872   6.774  0.2458 -2.7782  0.9189
26354SOL     OW82653   8.405   0.885   1.433  0.2481 -0.0108  0.7681
26354SOL    HW182654   8.429   0.977   1.426  0.9523 -0.2793 -0.7459
26354SOL    HW282655   8.311   0.886   1.452  0.3282  1.0098  1.1578
26355SOL     OW82656   4.053   8.069   5.069  0.4678  0.1588 -0.6074
26355SOL    HW182657   4.026   8.160   5.082 -1.4960 -0.5395  0.7223
26355SOL    HW282658   4.145   8.075   5.042  0.8043  2.4630  0.7674
26356SOL     OW82659   5.941   1.175   6.422 -0.0694  0.2269  0.6702
26356SOL    HW182660   5.898   1.158   6.505 -0.3353 -1.2958  0.2525
26356SOL    HW282661   5.869   1.193   6.361  0.2032  3.6299  1.1752
26357SOL     OW82662   2.012   8.480   2.784  0.0059 -0.6768  0.0754
26357SOL    HW182663   2.014   8.529   2.702  0.2058 -0.2506  0.3337
26357SOL    HW282664   2.075   8.409   2.771  1.3838  0.4326  0.5000
26358SOL     OW82665   1.908   3.202   1.135  0.9428 -0.0478 -0.1085
26358SOL    HW182666   1.821   3.166   1.119  0.6968  0.4178  0.1519
26358SOL    HW282667   1.966   3.149   1.081  0.4352 -0.0464 -0.6662
26359SOL     OW82668   6.812  10.021   6.451 -0.1323 -0.3343 -0.5728
26359SOL    HW182669   6.854  10.052   6.531  0.5948  1.5777 -1.6336
26359SOL    HW282670   6.858   9.939   6.431  1.5875  0.5617 -0.4793
26360SOL     OW82671   4.492   9.560   4.516 -0.2458 -0.0810 -0.0369
26360SOL    HW182672   4.459   9.472   4.498 -0.3160 -0.0064 -0.2718
26360SOL    HW282673   4.437   9.592   4.588  0.2046 -0.4776  0.4980
26361SOL     OW82674   8.932   9.970   8.157 -0.2383  0.2251 -0.5683
26361SOL    HW182675   8.874   9.894   8.157  0.7502 -0.5550 -0.7916
26361SOL    HW282676   8.966   9.975   8.067  0.3159  0.4495 -0.3526
26362SOL     OW82677   5.337   7.482   9.909 -0.1147  0.0059  0.0246
26362SOL    HW182678   5.335   7.573   9.938  0.6316  0.2712 -0.7072
26362SOL    HW282679   5.282   7.481   9.830  0.3893 -0.0387 -0.3294
26363SOL     OW82680   6.162   7.484  10.973 -0.2683 -0.2667 -0.5929
26363SOL    HW182681   6.152   7.402  11.020  0.0309  0.4672  0.8103
26363SOL    HW282682   6.257   7.496  10.966 -0.3046  0.2344 -0.2713
26364SOL     OW82683   7.096   4.262   2.524 -0.0241  0.4664 -0.1233
26364SOL    HW182684   7.103   4.325   2.596 -0.3647 -0.7127  0.9710
26364SOL    HW282685   7.164   4.197   2.543  0.1808  0.3766 -1.1225
26365SOL     OW82686  10.536   9.319  10.903  0.3935  0.3850  0.5090
26365SOL    HW182687  10.444   9.316  10.877 -0.2113  1.0029  2.4308
26365SOL    HW282688  10.560   9.227  10.914 -0.0975  0.2330  0.3689
26366SOL     OW82689   1.784   1.250   2.940  0.1590  0.9010  0.9179
26366SOL    HW182690   1.797   1.344   2.949  1.1672  0.7822  0.7999
26366SOL    HW282691   1.854   1.211   2.992  1.9346  0.2309 -1.7612
26367SOL     OW82692   1.394   2.479  10.879  0.1900  0.2024 -0.0984
26367SOL    HW182693   1.449   2.454  10.953  1.7346 -1.9058 -1.8104
26367SOL    HW282694   1.452   2.529  10.821 -0.5195  0.4707 -0.5952
26368SOL     OW82695   6.045   9.416   6.997  0.0171 -0.1927 -0.6705
26368SOL    HW182696   6.099   9.470   7.055 -0.3931  2.7052 -2.7863
26368SOL    HW282697   6.109   9.361   6.950  0.7393  0.3612 -0.3592
26369SOL     OW82698   9.343   8.264   8.268  0.3258 -0.2261  0.4092
26369SOL    HW182699   9.336   8.341   8.324  0.7555 -0.4231  0.7450
26369SOL    HW282700   9.348   8.298   8.179 -1.6644  0.0523  0.3529
26370SOL     OW82701   8.245   2.496   2.732 -0.3465  0.1581 -0.4698
26370SOL    HW182702   8.197   2.450   2.802  0.6022  1.6541  1.2216
26370SOL    HW282703   8.189   2.571   2.711 -0.2953  0.0933 -0.8349
26371SOL     OW82704  10.895   0.038   3.540  1.2393 -0.0919  0.1625
26371SOL    HW182705  10.905   0.052   3.446 -1.6769 -0.1253 -0.2439
26371SOL    HW282706  10.956   0.100   3.580  2.4786 -0.0061 -1.7054
26372SOL     OW82707   8.379   6.052   3.423 -0.2563 -0.3812 -0.1714
26372SOL    HW182708   8.420   6.094   3.348 -2.2485  0.0547 -1.0758
26372SOL    HW282709   8.349   6.125   3.478  1.4873 -0.6857  1.3030
26373SOL     OW82710   7.231   1.646   0.440 -0.0622  0.7065  0.2932
26373SOL    HW182711   7.147   1.692   0.433 -1.1188 -1.0122  1.0787
26373SOL    HW282712   7.239   1.599   0.357  1.0297  2.2238 -0.5186
26374SOL     OW82713   3.601   1.415  11.013 -0.1377  0.7056 -0.1731
26374SOL    HW182714   3.585   1.508  11.028  2.2918  1.2842 -0.8464
26374SOL    HW282715   3.586   1.403  10.920 -1.3571  0.1832  0.0713
26375SOL     OW82716   4.745   0.520  10.141  0.3436 -0.0697  0.1005
26375SOL    HW182717   4.678   0.492  10.203  0.3516 -0.6424 -0.1441
26375SOL    HW282718   4.785   0.597  10.182  0.3096 -0.4033  0.7720
26376SOL     OW82719   9.274   5.771   2.031  0.0442  0.6649  0.2624
26376SOL    HW182720   9.284   5.774   1.936 -0.1822  0.7828  0.2404
26376SOL    HW282721   9.200   5.712   2.045 -0.7482  1.6336  0.2977
26377SOL     OW82722   2.335   3.371   7.358 -0.1181 -0.7339 -0.9559
26377SOL    HW182723   2.375   3.287   7.334 -0.2451 -0.4040 -2.4442
26377SOL    HW282724   2.386   3.436   7.310 -0.8216 -0.0765 -0.8307
26378SOL     OW82725   4.426   7.508   7.513 -0.2705  0.8451  0.0073
26378SOL    HW182726   4.507   7.551   7.541  0.2169  0.3671 -0.6108
26378SOL    HW282727   4.415   7.435   7.573  0.1137  0.5379 -0.2852
26379SOL     OW82728   7.641   8.106   6.329 -0.2039  0.3612  0.3160
26379SOL    HW182729   7.678   8.020   6.310 -2.4329 -0.5010 -0.3090
26379SOL    HW282730   7.634   8.149   6.244 -1.2254  0.2657  0.3491
26380SOL     OW82731   5.132   4.436   7.535  0.5511  0.0353 -0.1994
26380SOL    HW182732   5.215   4.473   7.504  0.8655  1.9486  2.6234
26380SOL    HW282733   5.073   4.511   7.543 -1.5773 -1.2872 -2.1597
26381SOL     OW82734   3.609   2.171   8.219  0.0975 -0.0863  0.2109
26381SOL    HW182735   3.646   2.195   8.134 -0.6805 -0.1724 -0.1612
26381SOL    HW282736   3.534   2.228   8.230 -0.4529 -0.8201  0.3435
26382SOL     OW82737   0.685   5.244   7.912  0.0284 -0.1279 -0.8671
26382SOL    HW182738   0.601   5.209   7.945 -0.2465  1.7704  0.6083
26382SOL    HW282739   0.699   5.197   7.830 -0.3007 -3.6647  0.8932
26383SOL     OW82740   0.321  10.360   0.719 -0.1617  0.5557  0.1171
26383SOL    HW182741   0.300  10.268   0.702  0.8558  0.0321  1.4899
26383SOL    HW282742   0.263  10.385   0.792  0.5023  0.5807  0.6446
26384SOL     OW82743   3.095   3.893  10.924 -0.1183 -0.4488  0.1303
26384SOL    HW182744   3.016   3.892  10.978 -0.4916  0.3175 -0.3827
26384SOL    HW282745   3.114   3.986  10.912  0.4683 -0.6233 -0.3274
26385SOL     OW82746   6.221   8.306   0.645 -0.5143 -0.5985  0.2802
26385SOL    HW182747   6.157   8.296   0.716  0.1214  0.4039  1.0327
26385SOL    HW282748   6.234   8.401   0.639  0.2930 -0.7473 -0.4221
26386SOL     OW82749   8.408   8.058   7.634  0.1902  0.1445  0.2433
26386SOL    HW182750   8.483   7.998   7.628 -0.9709 -1.3318 -0.0623
26386SOL    HW282751   8.388   8.080   7.543  0.1663  0.4249  0.3161
26387SOL     OW82752   7.431   1.730   6.259 -0.3041 -0.1487  0.4268
26387SOL    HW182753   7.337   1.711   6.254 -0.8143  1.6593  1.8375
26387SOL    HW282754   7.473   1.658   6.212 -2.3932 -0.9733 -0.2857
26388SOL     OW82755   1.570   1.626   0.751  0.1801  0.4152  0.2114
26388SOL    HW182756   1.615   1.579   0.820  1.1185  2.1893  0.8654
26388SOL    HW282757   1.512   1.561   0.711  0.4310 -0.9155  1.9263
26389SOL     OW82758   4.105   3.538  11.107 -0.0426  0.2473  0.4275
26389SOL    HW182759   4.056   3.561  11.028 -0.0616 -0.6775  0.1560
26389SOL    HW282760   4.196   3.532  11.078 -0.1003 -0.4938  0.3742
26390SOL     OW82761  10.987   1.865  10.062 -0.3530  0.1226 -0.0119
26390SOL    HW182762  11.067   1.814  10.075 -1.5523 -1.2696  2.7971
26390SOL    HW282763  11.003   1.947  10.108 -0.9275 -0.7062  1.7764
26391SOL     OW82764   6.642   0.565   7.864 -1.1541 -0.3649  0.3150
26391SOL    HW182765   6.617   0.598   7.950 -0.1302 -1.8607  1.2426
26391SOL    HW282766   6.629   0.470   7.870 -0.0153 -0.6243 -0.7932
26392SOL     OW82767  10.706   1.454   4.855  0.1793 -0.1300 -0.2149
26392SOL    HW182768  10.750   1.535   4.882  0.6236 -0.1311 -0.8960
26392SOL    HW282769  10.678   1.413   4.936  3.2266 -1.1434  0.4327
26393SOL     OW82770   0.654   4.884   2.514 -0.1634 -0.3862  0.0747
26393SOL    HW182771   0.651   4.789   2.523 -0.7778 -0.3661  0.1590
26393SOL    HW282772   0.743   4.908   2.539 -0.3178 -0.8409  1.1221
26394SOL     OW82773   6.289   8.482   5.903  0.2800  0.3299  0.0908
26394SOL    HW182774   6.247   8.475   5.989  1.1497  0.1421  0.5164
26394SOL    HW282775   6.380   8.458   5.919  0.5962  0.9079 -0.7675
26395SOL     OW82776   2.537   8.866   4.914 -0.1636 -0.1038 -0.0904
26395SOL    HW182777   2.500   8.869   4.825 -0.4438  1.9673  0.0489
26395SOL    HW282778   2.464   8.835   4.968 -1.5756  2.9996  0.0299
26396SOL     OW82779   4.535   3.690   0.176 -0.0327  0.3539 -0.4459
26396SOL    HW182780   4.572   3.778   0.185 -0.4895  0.6860 -1.6113
26396SOL    HW282781   4.457   3.691   0.232 -0.4026  0.9125 -0.9658
26397SOL     OW82782   7.212   0.152   1.670 -0.3605  0.0372 -0.1541
26397SOL    HW182783   7.159   0.155   1.591  1.4954  1.0440 -1.4351
26397SOL    HW282784   7.302   0.163   1.639  0.5192 -0.4789  2.0207
26398SOL     OW82785   0.629   0.619   9.184 -0.0154 -0.1365  0.0867
26398SOL    HW182786   0.621   0.697   9.240  1.2162 -1.0901  1.7048
26398SOL    HW282787   0.546   0.613   9.138 -0.4441  1.6533  0.5623
26399SOL     OW82788   3.152   3.544   7.566  0.3601  0.0247 -0.1995
26399SOL    HW182789   3.203   3.470   7.599 -1.5214 -0.8543  0.8986
26399SOL    HW282790   3.095   3.568   7.638 -2.0238 -0.2107 -1.8853
26400SOL     OW82791   2.178   6.810   1.306  0.1453  0.2467  0.3046
26400SOL    HW182792   2.094   6.786   1.266  0.4020  0.7011 -0.5320
26400SOL    HW282793   2.205   6.732   1.354 -0.2873 -0.2405 -0.2320
26401SOL     OW82794   1.934   8.055   7.269 -0.0073 -0.1708  0.0308
26401SOL    HW182795   1.893   8.087   7.350 -2.1387 -0.0606 -1.0401
26401SOL    HW282796   1.991   8.127   7.242 -0.7922  0.6117  0.3963
26402SOL     OW82797   1.758   1.280   2.545 -0.1651  0.2282  0.4076
26402SOL    HW182798   1.733   1.250   2.458 -0.4247 -0.2209  0.6344
26402SOL    HW282799   1.732   1.209   2.604 -1.3344  1.1308  1.0290
26403SOL     OW82800  10.887   3.178   8.458  0.2621 -0.5206  0.6298
26403SOL    HW182801  10.866   3.096   8.414 -0.9184  0.4730 -0.7508
26403SOL    HW282802  10.837   3.175   8.539 -1.1591 -0.4385 -0.2176
26404SOL     OW82803  10.431   7.625   5.262  0.4871 -0.7033 -0.2759
26404SOL    HW182804  10.355   7.648   5.316  0.4035 -0.9111 -0.3054
26404SOL    HW282805  10.489   7.702   5.268 -0.0055 -0.2880 -0.7599
26405SOL     OW82806   8.618   7.381   7.118 -0.3002  0.1283 -0.1940
26405SOL    HW182807   8.527   7.391   7.146 -0.6670  1.2116 -1.6540
26405SOL    HW282808   8.668   7.437   7.178 -0.7198  0.2860  0.0131
26406SOL     OW82809  10.906   4.812   4.053 -0.1661 -0.0628  0.2083
26406SOL    HW182810  10.878   4.902   4.071  0.1348 -0.2185  1.4816
26406SOL    HW282811  10.982   4.822   3.996 -0.2308  0.4739  0.2043
26407SOL     OW82812   2.206   5.416   3.189  0.4648  0.5468 -0.0592
26407SOL    HW182813   2.171   5.375   3.110 -1.1085  0.2834  0.7370
26407SOL    HW282814   2.281   5.467   3.159  0.2656 -0.0483 -1.6175
26408SOL     OW82815   7.096   7.348   7.835 -0.0630  0.4620  0.0067
26408SOL    HW182816   7.188   7.369   7.822  0.9506 -3.3459 -0.0580
26408SOL    HW282817   7.073   7.290   7.762 -1.9985 -0.0509  0.9297
26409SOL     OW82818   7.715   0.917   9.757 -0.1157  0.0112 -0.2960
26409SOL    HW182819   7.781   0.859   9.795 -0.2788  1.0100  1.6501
26409SOL    HW282820   7.655   0.935   9.830  1.0158  4.1449 -0.1850
26410SOL     OW82821   6.042   3.380   0.243  0.0008 -0.1560  0.3973
26410SOL    HW182822   5.974   3.350   0.182 -0.5167  0.8088  0.4907
26410SOL    HW282823   5.998   3.443   0.299  1.1501  1.0783 -0.0439
26411SOL     OW82824  10.028   0.245   4.978  0.1393 -0.5809  0.2298
26411SOL    HW182825  10.069   0.331   4.968  0.9135 -0.5399  2.9451
26411SOL    HW282826  10.098   0.183   4.959 -0.2492 -0.6436 -1.0985
26412SOL     OW82827   3.339   2.133   8.038  0.4399  0.1549 -0.1185
26412SOL    HW182828   3.409   2.068   8.033 -0.8372 -1.2114 -1.2649
26412SOL    HW282829   3.340   2.163   8.129  0.5439 -2.0914  0.6660
26413SOL     OW82830   0.087   5.037   5.705  0.2525 -0.0973  0.1073
26413SOL    HW182831   0.055   5.045   5.614 -0.3222 -0.1020  0.3043
26413SOL    HW282832   0.166   4.985   5.698 -0.3109 -0.9200 -0.2852
26414SOL     OW82833   8.594   2.426   5.663  0.2269 -0.7683 -0.3141
26414SOL    HW182834   8.598   2.452   5.571 -1.7398 -0.1577 -0.2795
26414SOL    HW282835   8.600   2.330   5.660  0.5644 -0.7347 -1.0363
26415SOL     OW82836   7.879   3.036   2.179 -0.1817  0.7229 -0.1846
26415SOL    HW182837   7.964   3.079   2.166 -0.4887  0.8207 -2.3388
26415SOL    HW282838   7.894   2.946   2.151 -0.8660  0.8539 -1.0235
26416SOL     OW82839   8.501   3.475   6.697  0.3277 -1.0667 -0.4016
26416SOL    HW182840   8.585   3.473   6.742  0.5312 -0.2519 -0.7322
26416SOL    HW282841   8.439   3.441   6.761  0.3438  1.5261  1.1228
26417SOL     OW82842   8.269   0.808   1.752 -0.0903 -0.3628 -0.0058
26417SOL    HW182843   8.208   0.783   1.683 -1.0880  1.6650  0.0763
26417SOL    HW282844   8.225   0.785   1.833  0.0828 -0.6264  0.0154
26418SOL     OW82845   7.016   9.455   0.766 -0.0453  0.1525 -0.0834
26418SOL    HW182846   6.966   9.525   0.724 -0.1275  0.5973  0.7135
26418SOL    HW282847   7.104   9.492   0.777 -0.2721  0.4146  0.9740
26419SOL     OW82848   0.197   1.729   1.851  0.2191 -0.1063 -0.4943
26419SOL    HW182849   0.154   1.813   1.836  1.7191  0.5902 -1.0090
26419SOL    HW282850   0.256   1.744   1.925  1.6238 -0.2481 -1.5442
26420SOL     OW82851  10.819   6.599   3.337  0.1248 -0.5716 -0.0071
26420SOL    HW182852  10.743   6.640   3.378  2.2006  2.1915  1.3914
26420SOL    HW282853  10.855   6.541   3.405 -0.1664 -1.1383 -0.3287
26421SOL     OW82854   3.327   8.438   3.157  0.4037  0.3526 -0.1200
26421SOL    HW182855   3.245   8.477   3.127  0.1427  0.1646  0.3438
26421SOL    HW282856   3.365   8.399   3.078  0.8360  1.8203 -0.6761
26422SOL     OW82857   2.924   3.993   6.524 -1.1032 -0.6897 -0.7750
26422SOL    HW182858   2.849   3.944   6.557 -1.3773  0.5723  0.5641
26422SOL    HW282859   2.908   4.083   6.551 -0.7796  0.2684 -3.4395
26423SOL     OW82860   4.835   6.346   5.790  0.1539 -0.1074 -0.1155
26423SOL    HW182861   4.864   6.296   5.866 -1.3267 -1.4905 -0.4239
26423SOL    HW282862   4.847   6.286   5.716  0.2209  0.7083 -0.7790
26424SOL     OW82863   2.567   5.244   9.040  0.3126 -0.2735  0.1404
26424SOL    HW182864   2.507   5.280   8.974  1.8004  2.8240  0.2798
26424SOL    HW282865   2.632   5.196   8.989  1.2330  1.7686 -0.7652
26425SOL     OW82866  10.596   3.440  10.500 -0.1675  0.3370  0.2358
26425SOL    HW182867  10.517   3.494  10.510 -0.8638 -0.4430 -0.8039
26425SOL    HW282868  10.571   3.355  10.538  0.3499  0.2269  0.3354
26426SOL     OW82869   0.495  10.007   4.984  0.3382  0.1461 -0.0410
26426SOL    HW182870   0.403   9.985   4.999  0.6149 -1.2597 -0.2279
26426SOL    HW282871   0.517  10.071   5.052  0.0450 -1.8136  2.0070
26427SOL     OW82872   3.770  10.455   1.900  0.0409 -0.2081  0.3840
26427SOL    HW182873   3.785  10.455   1.806 -0.9584  1.3784  0.1978
26427SOL    HW282874   3.798  10.368   1.928  0.6454 -0.6046 -1.3171
26428SOL     OW82875   9.337   1.162   1.585 -0.3233  0.0256  0.1319
26428SOL    HW182876   9.394   1.148   1.661 -0.8798  0.9219  0.7306
26428SOL    HW282877   9.395   1.154   1.510  0.4158  0.0113  0.6921
26429SOL     OW82878   4.701   4.065   8.583  0.0932 -0.1340  0.4568
26429SOL    HW182879   4.744   4.100   8.506  0.4636 -0.9572  0.2803
26429SOL    HW282880   4.628   4.125   8.599  1.0523  1.0579  0.5335
26430SOL     OW82881  10.517   8.662   8.282 -0.1399  0.4346  0.1062
26430SOL    HW182882  10.444   8.717   8.313  0.3600  0.0660  2.0813
26430SOL    HW282883  10.502   8.578   8.324  1.2732  0.2754  0.3125
26431SOL     OW82884   3.535   2.283  10.073 -0.0519 -0.0206  0.1730
26431SOL    HW182885   3.523   2.308  10.164 -3.5892 -1.4106  0.2465
26431SOL    HW282886   3.563   2.191  10.076 -2.5760 -0.8850 -0.0012
26432SOL     OW82887   2.715   0.692   9.419  0.5034  0.0876  0.1281
26432SOL    HW182888   2.643   0.754   9.403  1.8771  1.9883  0.8767
26432SOL    HW282889   2.673   0.607   9.426 -1.5177  0.9541 -0.7573
26433SOL     OW82890   3.857   5.332   7.788  0.7815 -0.2294  0.1901
26433SOL    HW182891   3.844   5.412   7.737 -0.0561 -0.6353 -0.2550
26433SOL    HW282892   3.877   5.265   7.723  0.2856 -0.6289  0.4408
26434SOL     OW82893   3.371   5.479   8.847 -0.1204 -0.5879 -0.1826
26434SOL    HW182894   3.332   5.457   8.931 -0.3021 -0.9013 -0.3474
26434SOL    HW282895   3.297   5.505   8.792  0.0516  0.1052 -0.0954
26435SOL     OW82896   5.878   7.411   4.665  0.1516 -0.0650 -0.5634
26435SOL    HW182897   5.955   7.364   4.696  0.0523  0.0850 -0.0607
26435SOL    HW282898   5.905   7.503   4.664  0.6314 -0.1950 -2.4112
26436SOL     OW82899   3.947   7.959   8.976  0.3603 -0.3851 -0.1619
26436SOL    HW182900   4.040   7.981   8.973  0.3421 -0.0900  0.8787
26436SOL    HW282901   3.904   8.041   8.997 -0.3260 -0.1554 -2.2710
26437SOL     OW82902   3.703   1.534   3.651  0.2991 -0.1550  0.2138
26437SOL    HW182903   3.631   1.474   3.668  0.9040 -0.5955  1.2911
26437SOL    HW282904   3.697   1.552   3.557 -1.2165 -0.1626  0.2782
26438SOL     OW82905   7.499   7.628   4.460  0.2824 -0.6872  0.0163
26438SOL    HW182906   7.513   7.719   4.433  0.5326 -0.8464 -0.3988
26438SOL    HW282907   7.465   7.635   4.549  1.1526 -0.2088  0.3273
26439SOL     OW82908   5.725   3.203   0.079 -0.0167  0.3173 -0.1734
26439SOL    HW182909   5.729   3.174   0.171 -0.0654 -0.3040 -0.3660
26439SOL    HW282910   5.681   3.288   0.083  0.3851  0.5083  0.4276
26440SOL     OW82911   4.834   7.778   4.537 -0.3090 -0.7903  0.4244
26440SOL    HW182912   4.830   7.744   4.627 -1.4199 -0.3909  0.5491
26440SOL    HW282913   4.861   7.869   4.547 -0.0997 -0.8397  0.3190
26441SOL     OW82914   1.052   4.905   4.044 -0.2687 -0.3064  0.7274
26441SOL    HW182915   1.029   4.959   3.969 -1.3246 -0.9018  0.5941
26441SOL    HW282916   1.116   4.956   4.092 -0.7734  0.7903  0.2667
26442SOL     OW82917   4.267   9.019   3.463  0.7914  0.1812  0.3264
26442SOL    HW182918   4.213   9.040   3.539  0.1904  1.4034 -0.4108
26442SOL    HW282919   4.347   8.982   3.501  0.2392  0.1519  1.5176
26443SOL     OW82920   2.894   3.067   8.493  0.3226  0.0189  0.0956
26443SOL    HW182921   2.867   3.159   8.492 -0.1325 -0.1017 -1.3843
26443SOL    HW282922   2.852   3.030   8.570 -0.2067  0.8507  0.2129
26444SOL     OW82923   5.813   3.624   4.981 -0.2516 -0.1601  0.2587
26444SOL    HW182924   5.770   3.709   4.985  0.0333 -0.0132  0.2763
26444SOL    HW282925   5.906   3.645   4.968 -0.4618 -0.5094 -2.3338
26445SOL     OW82926   8.601   6.627   8.702  0.0157 -0.2992  0.4884
26445SOL    HW182927   8.628   6.584   8.784 -1.4528 -0.3469  0.9902
26445SOL    HW282928   8.535   6.691   8.730  0.5167  0.6749 -0.5178
26446SOL     OW82929   0.877   4.557   6.488 -0.3757  0.3817  0.9061
26446SOL    HW182930   0.867   4.522   6.400 -1.8298 -1.8273  1.8714
26446SOL    HW282931   0.936   4.496   6.532  0.1383  1.3261  1.5819
26447SOL     OW82932   9.339   7.371   3.383 -0.3621  0.4114  0.1053
26447SOL    HW182933   9.336   7.437   3.313  0.3394  0.1767 -0.1524
26447SOL    HW282934   9.275   7.402   3.447 -1.2834  0.4505 -0.7934
26448SOL     OW82935   0.423   5.836   0.283  0.2848  0.7169 -0.2900
26448SOL    HW182936   0.515   5.831   0.258  0.3594 -1.3249  0.2416
26448SOL    HW282937   0.407   5.929   0.294  2.0473  1.1898 -1.2373
26449SOL     OW82938   7.215   6.266   5.832  0.3364  0.1707 -0.1930
26449SOL    HW182939   7.195   6.227   5.747 -2.6672 -0.9606  0.9128
26449SOL    HW282940   7.281   6.208   5.870 -0.8753 -1.3911 -0.3748
26450SOL     OW82941   8.392   9.242   7.979 -0.7050 -0.2070  0.1496
26450SOL    HW182942   8.312   9.254   8.029 -0.4539 -1.5213  0.9052
26450SOL    HW282943   8.437   9.170   8.022 -0.0453 -0.7955 -1.4409
26451SOL     OW82944   7.886   7.627   4.650 -0.4824 -0.4028  0.1727
26451SOL    HW182945   7.944   7.553   4.631 -0.4186 -0.6057  1.1138
26451SOL    HW282946   7.945   7.702   4.659 -0.4646 -0.4066  0.0879
26452SOL     OW82947   8.427   8.483   8.173  0.8014  0.1740 -0.2251
26452SOL    HW182948   8.345   8.469   8.219  0.2714 -1.0642 -1.4788
26452SOL    HW282949   8.403   8.531   8.093  1.2043 -0.6125 -0.8365
26453SOL     OW82950   0.546   0.120   6.509  0.0626  0.6584 -0.1981
26453SOL    HW182951   0.494   0.167   6.575 -0.6680  0.6815 -0.7706
26453SOL    HW282952   0.536   0.028   6.533 -1.0508  0.5943 -0.8604
26454SOL     OW82953   5.770  10.065   6.502  0.3267 -0.0035  0.4071
26454SOL    HW182954   5.756  10.041   6.411 -0.4065  0.5597  0.3558
26454SOL    HW282955   5.818   9.992   6.540  0.5734 -0.2739 -0.4109
26455SOL     OW82956   7.118   4.142  10.683 -0.1467 -0.3340 -0.1949
26455SOL    HW182957   7.092   4.230  10.656 -2.3581 -0.5164  1.0673
26455SOL    HW282958   7.204   4.129  10.643 -1.0489  1.2349 -2.9232
26456SOL     OW82959   3.685   9.233   1.156  0.1356 -0.1806 -0.9403
26456SOL    HW182960   3.728   9.303   1.108 -0.5707  2.2630  1.7469
26456SOL    HW282961   3.612   9.207   1.100 -0.3050  2.0989 -1.5163
26457SOL     OW82962   8.588   1.491   6.022  0.0911  0.1374 -0.2179
26457SOL    HW182963   8.634   1.447   6.094 -0.5754  0.6547  0.5400
26457SOL    HW282964   8.596   1.584   6.042  0.3723  0.3196 -1.1235
26458SOL     OW82965   1.806   7.942   2.134 -0.0052 -0.1071 -0.4440
26458SOL    HW182966   1.889   7.909   2.100  0.3577 -0.6064  0.8514
26458SOL    HW282967   1.829   7.983   2.218 -1.0085  0.1052 -0.2624
26459SOL     OW82968  10.718   3.738   3.111 -0.2479  0.1103 -0.0081
26459SOL    HW182969  10.761   3.796   3.174 -1.5443  0.3432  0.7190
26459SOL    HW282970  10.702   3.793   3.034 -0.2201  0.3261  0.1396
26460SOL     OW82971   3.787  10.782   6.572  0.4983 -0.3101  0.1447
26460SOL    HW182972   3.757  10.872   6.570 -2.8193 -1.2131  2.2009
26460SOL    HW282973   3.851  10.779   6.643  2.0959  0.6910 -1.1698
26461SOL     OW82974   6.236   9.083  10.636 -0.6159 -0.4158 -0.0981
26461SOL    HW182975   6.256   9.003  10.589 -0.1219 -0.7901  0.7251
26461SOL    HW282976   6.142   9.096  10.623 -0.7147 -1.1621 -0.1709
26462SOL     OW82977   7.023  10.051   6.076  0.4847  0.3311  0.0325
26462SOL    HW182978   7.025  10.121   6.142  1.1433  0.8833 -0.5465
26462SOL    HW282979   7.115  10.027   6.065  0.1746 -1.6119  1.2161
26463SOL     OW82980   6.897   0.663   9.315 -0.3048 -0.1277 -0.3170
26463SOL    HW182981   6.885   0.570   9.333  1.6340 -0.6123 -1.3070
26463SOL    HW282982   6.946   0.666   9.233 -0.4885  1.7857 -0.4077
26464SOL     OW82983   6.676   2.467   9.058  0.1690 -0.0872  0.0665
26464SOL    HW182984   6.711   2.500   8.976  1.4143  1.1213  1.0397
26464SOL    HW282985   6.744   2.408   9.091 -0.6639 -1.1880 -0.1171
26465SOL     OW82986   7.180   4.115   9.880 -0.6469  0.0363 -0.4434
26465SOL    HW182987   7.092   4.149   9.867 -1.0554 -0.3455  1.0564
26465SOL    HW282988   7.169   4.021   9.889  0.1315 -0.2124 -1.7701
26466SOL     OW82989   1.152   5.684   2.668 -0.1092 -0.8130 -0.8652
26466SOL    HW182990   1.144   5.654   2.758 -0.7095 -0.2308 -0.7198
26466SOL    HW282991   1.069   5.727   2.649 -1.0147 -3.0722 -2.5206
26467SOL     OW82992   0.015   5.756  11.068 -0.0255  0.2764 -0.1553
26467SOL    HW182993   0.024   5.782  10.977 -1.0802  1.6341  0.0881
26467SOL    HW282994  -0.079   5.762  11.086 -0.0558 -1.6515  0.5685
26468SOL     OW82995   7.758   9.158   0.541 -0.1125 -0.1712 -0.3409
26468SOL    HW182996   7.776   9.117   0.457 -0.6450 -1.1307 -0.0057
26468SOL    HW282997   7.664   9.177   0.539 -0.0261  0.2856 -0.1696
26469SOL     OW82998   9.269   1.488   2.748  0.4939  0.1262  0.1494
26469SOL    HW182999   9.225   1.403   2.760  1.1959 -0.0247  1.8861
26469SOL    HW283000   9.200   1.547   2.719 -0.2694 -0.7325  0.1803
26470SOL     OW83001   1.772   8.272   6.431 -0.0211 -0.1803 -0.4793
26470SOL    HW183002   1.843   8.242   6.375 -1.7087 -0.9221 -2.3371
26470SOL    HW283003   1.770   8.367   6.419  2.0397  0.1674  1.3793
26471SOL     OW83004   5.162   8.759   2.803 -0.4287  0.0915 -0.3649
26471SOL    HW183005   5.191   8.833   2.749 -0.0522 -0.4123 -0.8688
26471SOL    HW283006   5.068   8.752   2.787 -0.0895 -0.9772 -2.1576
26472SOL     OW83007   6.543   7.304   1.125 -0.1619  0.1489  0.1588
26472SOL    HW183008   6.588   7.263   1.051 -0.9373  0.0118 -0.2524
26472SOL    HW283009   6.518   7.231   1.181 -1.1965  0.0784 -0.3758
26473SOL     OW83010   1.275   7.354  10.912 -0.4856 -0.0060  0.6318
26473SOL    HW183011   1.252   7.406  10.836 -0.4547 -0.2124  0.4812
26473SOL    HW283012   1.216   7.384  10.981  0.2728  1.0089  0.8631
26474SOL     OW83013   9.641   8.158   6.519 -0.1107 -0.0523  0.3209
26474SOL    HW183014   9.711   8.201   6.469 -1.5341  1.4660 -0.4795
26474SOL    HW283015   9.565   8.162   6.461 -1.3739  0.1824  1.9395
26475SOL     OW83016   9.116  10.962   7.186 -0.2435 -0.3606  0.1183
26475SOL    HW183017   9.090  10.875   7.213 -1.0596 -0.3364 -0.5682
26475SOL    HW283018   9.157  11.000   7.264  1.8211 -1.9966 -0.0904
26476SOL     OW83019   6.564   2.986   6.479 -0.3336  0.0468  0.0868
26476SOL    HW183020   6.621   3.062   6.489 -1.2177  0.6745  0.4797
26476SOL    HW283021   6.477   3.018   6.504 -0.4784 -1.4481  1.6988
26477SOL     OW83022   9.881   1.897   1.509 -0.0894 -0.0105 -0.3057
26477SOL    HW183023   9.914   1.982   1.482  1.4969 -0.3643  0.3342
26477SOL    HW283024   9.947   1.865   1.572 -2.6708  0.0607  2.6838
26478SOL     OW83025   9.499   2.942   0.979  0.5251 -0.0135 -0.6146
26478SOL    HW183026   9.514   2.959   1.072 -2.8068 -1.4963  0.3368
26478SOL    HW283027   9.556   2.868   0.958  0.6511 -0.2298  0.4603
26479SOL     OW83028   3.202   3.844   1.220 -0.4071  0.0296  0.5146
26479SOL    HW183029   3.142   3.806   1.284 -0.7392 -0.7854 -0.2578
26479SOL    HW283030   3.164   3.820   1.135  0.0511  1.0499  0.0159
26480SOL     OW83031   8.311   8.271   7.736  0.1948 -0.2417 -0.4386
26480SOL    HW183032   8.227   8.280   7.692  0.2166 -0.2113 -0.4750
26480SOL    HW283033   8.346   8.187   7.705 -0.2559 -0.7223  0.3034
26481SOL     OW83034   7.560  10.748   0.345  0.1957 -0.6570 -0.3130
26481SOL    HW183035   7.648  10.720   0.371  0.1654  0.7854  1.5701
26481SOL    HW283036   7.517  10.770   0.428 -1.7880 -0.8606 -1.2367
26482SOL     OW83037   4.325   0.566   3.169  0.8129 -0.0569 -0.8618
26482SOL    HW183038   4.415   0.598   3.156  0.7785 -0.3108 -1.7696
26482SOL    HW283039   4.297   0.537   3.082 -0.0100 -0.3490 -0.5065
26483SOL     OW83040   6.901   2.122   2.020 -0.1764 -0.1649 -0.6538
26483SOL    HW183041   6.926   2.141   1.929 -1.2818 -0.1678 -0.9823
26483SOL    HW283042   6.808   2.099   2.014  0.0347 -1.3774  0.3157
26484SOL     OW83043   6.639   1.562   5.812  0.6488 -0.3166 -0.0564
26484SOL    HW183044   6.627   1.468   5.824  0.5662 -0.0923  1.9869
26484SOL    HW283045   6.710   1.584   5.871 -0.4093  1.1648  0.7035
26485SOL     OW83046   8.665   3.984   5.559  0.2220  0.1712  0.5029
26485SOL    HW183047   8.595   4.025   5.610 -1.3043 -1.6389 -0.0185
26485SOL    HW283048   8.622   3.912   5.512  2.3558 -0.7217 -0.2221
26486SOL     OW83049   3.611   1.738   4.912  0.6223  0.7840 -0.2573
26486SOL    HW183050   3.692   1.744   4.860  0.7322 -0.2874 -0.2473
26486SOL    HW283051   3.613   1.649   4.947 -0.5553  0.7563 -0.2391
26487SOL     OW83052   6.190  11.083   8.476 -0.1931 -0.3164 -0.7348
26487SOL    HW183053   6.098  11.061   8.465 -0.3897 -0.3588  0.7801
26487SOL    HW283054   6.222  11.023   8.543 -0.1998  2.3991  1.9359
26488SOL     OW83055  10.181  10.514   9.270  0.0251 -0.0997  0.2202
26488SOL    HW183056  10.198  10.442   9.211  0.4195  0.1472  0.0318
26488SOL    HW283057  10.214  10.484   9.355  0.4472 -0.0317  0.0816
26489SOL     OW83058   4.358   8.515  10.580 -0.2129 -0.4160  0.4785
26489SOL    HW183059   4.403   8.598  10.593  0.5853 -1.0827  2.0765
26489SOL    HW283060   4.331   8.517  10.487  1.9377  0.5478 -0.1724
26490SOL     OW83061   7.261   9.532   5.810  0.1320 -0.4239  0.6902
26490SOL    HW183062   7.173   9.541   5.847  0.7108  0.3751  1.9218
26490SOL    HW283063   7.277   9.438   5.808  0.0365 -0.5125  2.4276
26491SOL     OW83064   3.645   1.691   9.091 -0.8586 -0.5377 -0.0206
26491SOL    HW183065   3.720   1.710   9.034 -0.8787 -1.2205 -0.2936
26491SOL    HW283066   3.589   1.768   9.084 -0.1909 -0.0296  0.1743
26492SOL     OW83067   6.543   5.611   5.988 -0.4071  0.2554  0.4573
26492SOL    HW183068   6.575   5.695   6.022  0.9236 -0.7878  1.9591
26492SOL    HW283069   6.488   5.576   6.059 -0.3080 -0.4812  0.1790
26493SOL     OW83070   7.221   2.857   7.216 -0.4017 -0.0677 -0.3650
26493SOL    HW183071   7.178   2.912   7.151 -1.1873  0.9852  0.9899
26493SOL    HW283072   7.154   2.792   7.239 -0.2525 -0.2173 -0.3539
26494SOL     OW83073   3.245   4.699   1.498  1.4164  0.4001  0.0778
26494SOL    HW183074   3.232   4.772   1.437  1.3726  0.6375  0.3715
26494SOL    HW283075   3.212   4.623   1.450 -0.4712  0.8755  0.5396
26495SOL     OW83076  10.304   3.005   9.836 -0.0267 -0.4612  0.4176
26495SOL    HW183077  10.266   2.927   9.795 -1.6400  0.3280  0.3151
26495SOL    HW283078  10.236   3.036   9.896  0.1215  1.4355 -0.3059
26496SOL     OW83079   9.666   1.043   4.691 -0.3800  0.5297 -0.3484
26496SOL    HW183080   9.598   1.017   4.752  0.8266 -0.2627  0.7177
26496SOL    HW283081   9.737   1.077   4.746  0.4978  0.3648 -1.3294
26497SOL     OW83082   0.606   9.816   4.482  0.3631  0.1739 -0.0357
26497SOL    HW183083   0.610   9.872   4.560 -0.6014  0.5639 -0.2509
26497SOL    HW283084   0.693   9.777   4.476  0.4701  0.1929  1.1937
26498SOL     OW83085   7.032   6.612  10.169 -0.2966 -0.3678  0.0177
26498SOL    HW183086   7.110   6.588  10.119 -0.5489 -1.6382  0.1980
26498SOL    HW283087   6.961   6.565  10.127 -0.3987 -2.1209  1.9783
26499SOL     OW83088   2.019   1.137  11.060  0.4169  0.2861  0.0512
26499SOL    HW183089   2.027   1.156  11.153 -1.0545 -1.6979  0.6711
26499SOL    HW283090   1.932   1.169  11.036  0.9700  1.2077 -0.7783
26500SOL     OW83091  10.212   0.112   5.969 -0.1171 -0.0010 -0.2658
26500SOL    HW183092  10.248   0.163   6.042 -0.0061  0.3808 -0.5767
26500SOL    HW283093  10.168   0.038   6.009  3.5392 -2.2467  0.1233
26501SOL     OW83094   7.240  10.757  10.880  0.2794 -0.3816  0.8327
26501SOL    HW183095   7.172  10.819  10.853  0.5368 -0.3077  0.3304
26501SOL    HW283096   7.253  10.774  10.973 -1.3964 -1.3695  1.2892
26502SOL     OW83097   3.870   9.427   7.313  0.1984  0.6098 -0.0922
26502SOL    HW183098   3.799   9.466   7.364  0.6053  0.3480  0.6723
26502SOL    HW283099   3.849   9.451   7.222 -1.3116 -0.1479  0.0216
26503SOL     OW83100  10.898   9.616   9.245 -0.2816  0.0200 -0.0375
26503SOL    HW183101  10.849   9.641   9.323 -0.5118  1.2801 -0.5639
26503SOL    HW283102  10.914   9.699   9.199 -0.2247 -0.7090 -1.3742
26504SOL     OW83103   9.835   4.073   0.768  0.0771  0.1984  0.5384
26504SOL    HW183104   9.873   4.150   0.811  2.7777  0.4578 -1.9833
26504SOL    HW283105   9.892   4.001   0.794 -0.4067 -0.3075  0.2212
26505SOL     OW83106   0.384   2.018  10.386  0.5375  0.0724 -0.0771
26505SOL    HW183107   0.453   2.033  10.450 -1.3767  2.0187  1.6700
26505SOL    HW283108   0.325   1.955  10.429 -0.2621  0.6547 -0.2945
26506SOL     OW83109   1.265   8.197   3.831  0.3260  0.1362  0.4592
26506SOL    HW183110   1.242   8.267   3.892  0.8082 -0.0202  0.8274
26506SOL    HW283111   1.212   8.214   3.753  0.6078  1.0254  0.4627
26507SOL     OW83112   4.424   2.179   3.412  0.0574 -0.4182  0.1352
26507SOL    HW183113   4.426   2.171   3.316 -0.2413 -0.1912  0.1077
26507SOL    HW283114   4.465   2.098   3.444  0.0943 -0.5265 -0.1839
26508SOL     OW83115   8.758   4.846   8.741  0.1344 -0.5396  0.6075
26508SOL    HW183116   8.663   4.853   8.742  0.0635  3.3921 -2.8510
26508SOL    HW283117   8.777   4.788   8.668  0.3201 -0.1533  0.3410
26509SOL     OW83118   8.553   5.314   3.040 -0.3043  0.3036 -0.3556
26509SOL    HW183119   8.497   5.303   2.964 -0.6420 -1.4705  0.1096
26509SOL    HW283120   8.615   5.241   3.036 -0.3726  0.1233  1.0884
26510SOL     OW83121   5.965   1.982   3.015 -0.3344 -0.5416 -0.0547
26510SOL    HW183122   5.958   1.964   2.921 -1.7924 -1.1058  0.1382
26510SOL    HW283123   5.965   2.077   3.022 -0.4823 -0.4978 -0.6177
26511SOL     OW83124   8.969   6.876   7.759 -0.2850 -0.1054 -0.0577
26511SOL    HW183125   8.939   6.806   7.702  0.7004  0.4452 -1.2920
26511SOL    HW283126   8.954   6.956   7.708  2.0527  0.2922 -0.2436
26512SOL     OW83127   4.999   7.178   6.722  0.3055  0.7136 -0.0572
26512SOL    HW183128   5.058   7.160   6.649  0.0215 -1.7918  0.2204
26512SOL    HW283129   5.053   7.223   6.786  0.8480  1.9761 -1.3573
26513SOL     OW83130   3.600   6.474  10.482  0.4573 -0.2278  0.0213
26513SOL    HW183131   3.683   6.498  10.441  0.8022 -0.5381  0.5276
26513SOL    HW283132   3.623   6.408  10.547  0.2520  1.7447  2.2135
26514SOL     OW83133   2.563   6.369   7.408 -0.3590  0.4555 -0.4765
26514SOL    HW183134   2.565   6.303   7.477 -1.8888  1.0331  0.1610
26514SOL    HW283135   2.649   6.362   7.366  0.2636 -0.5428  0.8746
26515SOL     OW83136   3.233   5.476   7.013 -0.4076  0.0049 -0.0702
26515SOL    HW183137   3.327   5.492   7.007 -0.0206 -2.3046 -1.2148
26515SOL    HW283138   3.202   5.479   6.923 -1.0083 -1.4036  0.0723
26516SOL     OW83139   0.733   4.972   6.847 -0.1388 -0.1042 -0.2393
26516SOL    HW183140   0.776   4.888   6.835  2.9355  1.3800 -0.4825
26516SOL    HW283141   0.660   4.971   6.785  0.5726 -2.0908 -1.1032
26517SOL     OW83142   6.584   1.247   6.143 -0.3086  0.3764  0.3992
26517SOL    HW183143   6.590   1.155   6.118  0.9499  0.6163 -0.2413
26517SOL    HW283144   6.510   1.250   6.203 -0.7938 -0.9366 -0.0893
26518SOL     OW83145   3.866   7.096   8.714  0.4782 -0.5019 -0.3813
26518SOL    HW183146   3.874   7.161   8.644 -0.2912 -0.6866 -0.6510
26518SOL    HW283147   3.956   7.082   8.744  0.5957  1.1955  0.1576
26519SOL     OW83148  10.692   8.850   4.689 -0.2920  0.0070 -0.1651
26519SOL    HW183149  10.752   8.923   4.674 -0.8472  0.7767  1.1423
26519SOL    HW283150  10.748   8.772   4.688  0.4267  0.5215 -0.8462
26520SOL     OW83151  10.499   6.376   2.193 -0.1122 -0.5435  0.4817
26520SOL    HW183152  10.459   6.297   2.229 -0.2597 -0.2234  1.0278
26520SOL    HW283153  10.426   6.436   2.180  0.0520 -0.3435  0.4786
26521SOL     OW83154   6.686   1.113   8.505 -0.5511  0.7195 -0.0204
26521SOL    HW183155   6.749   1.041   8.505 -0.7087  0.5518 -1.3548
26521SOL    HW283156   6.728   1.181   8.557  1.5018  1.2359 -2.1758
26522SOL     OW83157   7.138   7.590   2.128 -0.0699  0.4472  0.5320
26522SOL    HW183158   7.195   7.529   2.080  0.9565  1.3999  0.5131
26522SOL    HW283159   7.130   7.552   2.215  1.9226  1.1070  1.0372
26523SOL     OW83160   9.912   6.664  10.847  0.2588 -0.7859  0.4482
26523SOL    HW183161   9.891   6.572  10.836  1.5411 -1.0130 -0.3858
26523SOL    HW283162   9.854   6.709  10.785  0.1724 -1.1180  0.2866
26524SOL     OW83163   7.534   2.734  10.594  0.1186  0.2024  0.0689
26524SOL    HW183164   7.512   2.708  10.504  0.7650  1.2548 -0.4238
26524SOL    HW283165   7.619   2.778  10.585 -1.0426  2.7115  0.7892
26525SOL     OW83166   5.440   6.398   1.669  0.3824 -0.5243 -0.5175
26525SOL    HW183167   5.368   6.340   1.694 -1.3758  1.8585  0.4001
26525SOL    HW283168   5.518   6.343   1.672 -0.9570 -2.4812  1.7281
26526SOL     OW83169   8.655   0.938  10.149  0.2274 -0.2647 -0.0625
26526SOL    HW183170   8.577   0.933  10.205 -1.0456 -0.5395 -1.7638
26526SOL    HW283171   8.677   0.847  10.131  1.3181 -0.2026  0.8405
26527SOL     OW83172   7.285   5.368   0.096 -0.5054  0.4737 -0.5691
26527SOL    HW183173   7.300   5.335   0.008 -1.9505 -1.9536 -0.0084
26527SOL    HW283174   7.205   5.324   0.125  0.5007  0.3578  2.3401
26528SOL     OW83175   9.132   9.881   1.204  0.3542  0.8228  0.0675
26528SOL    HW183176   9.085   9.844   1.130 -0.5452  2.4346 -0.2227
26528SOL    HW283177   9.077   9.954   1.233  1.2724  0.9652  1.5743
26529SOL     OW83178   2.400   3.909   4.731  0.1449  0.2864  0.1879
26529SOL    HW183179   2.410   3.938   4.822 -0.6858 -2.2771  1.1755
26529SOL    HW283180   2.306   3.905   4.717  0.1594 -2.1905  0.2882
26530SOL     OW83181   2.459   4.861   9.473  0.5132  0.0006  0.2591
26530SOL    HW183182   2.394   4.929   9.456  1.7256  1.2850  0.5831
26530SOL    HW283183   2.410   4.779   9.465 -1.2890  0.9268  1.0869
26531SOL     OW83184   4.416   2.827   8.177  0.3422 -0.5266 -0.2503
26531SOL    HW183185   4.331   2.828   8.221  0.6729 -0.8091  0.4110
26531SOL    HW283186   4.400   2.872   8.094 -0.8143 -1.9197 -0.8391
26532SOL     OW83187   1.875   9.568   2.409  0.1603 -0.0071 -0.8854
26532SOL    HW183188   1.843   9.482   2.382  0.1858 -0.2717 -0.1185
26532SOL    HW283189   1.833   9.583   2.494  1.9889 -0.3361  0.1301
26533SOL     OW83190   8.763   5.916   7.440 -0.4663 -0.1854 -0.5292
26533SOL    HW183191   8.806   6.001   7.442  2.2320 -1.4228 -1.1873
26533SOL    HW283192   8.728   5.910   7.351  0.1473 -0.1092 -0.7832
26534SOL     OW83193   5.564   3.963   1.118 -0.3767 -0.6160 -0.0028
26534SOL    HW183194   5.549   4.018   1.195 -0.7455  1.0288 -1.2023
26534SOL    HW283195   5.648   3.921   1.134  1.4880  2.6358 -0.2919
26535SOL     OW83196   0.804   5.653   5.418  0.3201 -0.7025 -0.1134
26535SOL    HW183197   0.804   5.635   5.512 -0.5381  0.9648  0.2383
26535SOL    HW283198   0.721   5.616   5.387 -0.7434  1.1717  0.3417
26536SOL     OW83199   0.589   8.037   5.593  0.2887  0.2326 -0.2894
26536SOL    HW183200   0.601   7.958   5.541 -0.5469  0.3338 -0.6538
26536SOL    HW283201   0.675   8.055   5.629  0.1274 -1.9310  1.3740
26537SOL     OW83202   8.260   3.147   1.149  0.2741  0.1636 -0.3157
26537SOL    HW183203   8.304   3.062   1.151  0.5928  0.3472  0.9347
26537SOL    HW283204   8.206   3.148   1.228  0.4599  1.2164 -0.1916
26538SOL     OW83205   3.297   6.305   5.640 -0.0529  0.0120  0.9444
26538SOL    HW183206   3.357   6.355   5.695 -0.0314  1.3729 -0.2453
26538SOL    HW283207   3.210   6.321   5.678 -0.0534  1.0422  0.5548
26539SOL     OW83208   9.763   3.084   0.258 -0.1064  0.0688 -0.2609
26539SOL    HW183209   9.789   3.036   0.179  0.0232 -0.3309  0.0214
26539SOL    HW283210   9.703   3.026   0.304  0.8950 -0.2959  0.6297
26540SOL     OW83211  10.839   3.710   6.711  0.4427 -0.0682 -0.0535
26540SOL    HW183212  10.785   3.633   6.728  0.1096 -0.2199 -1.6314
26540SOL    HW283213  10.838   3.759   6.793 -1.6105 -0.3543  0.1390
26541SOL     OW83214   0.844   9.828   2.260 -0.3063 -0.6911  0.5415
26541SOL    HW183215   0.871   9.918   2.242 -1.8836 -0.1848  0.5598
26541SOL    HW283216   0.921   9.775   2.240  0.6558  0.6639  0.5664
26542SOL     OW83217   0.205   1.778   9.591  0.1623 -0.2202 -0.4756
26542SOL    HW183218   0.137   1.756   9.655  1.0434  1.0327  0.9685
26542SOL    HW283219   0.263   1.702   9.591 -0.6439 -0.8459 -0.9075
26543SOL     OW83220   1.320   9.045   3.156  0.5551 -0.1551  0.0552
26543SOL    HW183221   1.378   9.024   3.082 -0.4775 -0.2189 -0.7492
26543SOL    HW283222   1.242   8.991   3.141 -1.7684  3.3067 -1.4902
26544SOL     OW83223   2.931   0.443   0.740 -0.1549 -0.1179 -0.3036
26544SOL    HW183224   2.984   0.504   0.792 -0.3437  0.8298 -1.1772
26544SOL    HW283225   2.905   0.375   0.801  0.3000  0.5375  0.6421
26545SOL     OW83226   6.278   6.027   9.340  0.3156 -0.4692  0.0714
26545SOL    HW183227   6.322   6.106   9.309 -0.7594  0.3575  0.5923
26545SOL    HW283228   6.228   6.056   9.416  1.8228 -2.1634  1.8383
26546SOL     OW83229   9.667   2.149   2.258  0.3887  0.4917  0.0008
26546SOL    HW183230   9.615   2.101   2.193  0.4205 -1.9497  1.6525
26546SOL    HW283231   9.753   2.158   2.217  0.4261 -1.0523 -0.3125
26547SOL     OW83232   9.192   6.253   4.958  0.0304  0.0766  0.4277
26547SOL    HW183233   9.146   6.212   4.885 -1.7875  1.5916  0.6323
26547SOL    HW283234   9.262   6.304   4.917 -0.4594  0.2614 -0.1897
26548SOL     OW83235   2.525   2.225   8.810 -0.1554 -0.1798 -0.0225
26548SOL    HW183236   2.469   2.170   8.755 -0.5965 -0.5198  0.7470
26548SOL    HW283237   2.473   2.242   8.888  1.1476 -1.3334  1.1745
26549SOL     OW83238   7.139   6.504   7.956  0.3129  0.1514  0.7388
26549SOL    HW183239   7.051   6.471   7.935  0.8265 -0.4870 -0.5226
26549SOL    HW283240   7.141   6.591   7.916  1.5199 -1.3152 -2.8152
26550SOL     OW83241   3.952   2.044   6.055  0.2953  0.1799  0.7809
26550SOL    HW183242   3.967   2.138   6.065 -0.6545  0.3697  0.5312
26550SOL    HW283243   4.037   2.009   6.028  0.4714  1.0797  0.1172
26551SOL     OW83244   5.511   3.306   6.795 -0.0625 -0.3570  0.2135
26551SOL    HW183245   5.488   3.250   6.869  2.2851 -0.9029  0.6081
26551SOL    HW283246   5.468   3.266   6.720 -1.1066 -0.7648  1.0152
26552SOL     OW83247  11.089   9.804   1.462 -0.5337 -0.3598 -0.3157
26552SOL    HW183248  11.142   9.827   1.538 -0.0557  1.3472 -1.1087
26552SOL    HW283249  11.108   9.712   1.447 -2.6263 -1.5499  3.1297
26553SOL     OW83250   8.896   2.174   4.922  0.1415  0.0633  0.0137
26553SOL    HW183251   8.808   2.167   4.957  0.6066  2.7855  2.0238
26553SOL    HW283252   8.902   2.264   4.889  2.1165 -0.0737 -0.1557
26554SOL     OW83253   9.006   1.718  10.824 -0.3006 -0.6635  0.2626
26554SOL    HW183254   9.050   1.803  10.823 -1.1211 -0.2201 -0.9114
26554SOL    HW283255   9.027   1.678  10.739 -2.4854 -0.2131 -0.5738
26555SOL     OW83256   6.149   1.451   0.748  0.3919 -0.2164 -0.7551
26555SOL    HW183257   6.196   1.463   0.665  3.2232 -1.8051  0.4675
26555SOL    HW283258   6.154   1.357   0.764 -1.3931 -0.1315  0.5679
26556SOL     OW83259   8.840   3.831   8.550  0.2671  0.6087 -0.0589
26556SOL    HW183260   8.889   3.838   8.632 -0.4058 -0.8222  0.5063
26556SOL    HW283261   8.760   3.785   8.575 -0.4233  1.1026 -1.3343
26557SOL     OW83262   1.258   5.661   3.601 -0.4042 -0.8466  0.1165
26557SOL    HW183263   1.302   5.707   3.672 -0.6787 -1.6728  0.8449
26557SOL    HW283264   1.304   5.689   3.522  1.3169 -1.5300  0.8210
26558SOL     OW83265   4.394   4.286   2.241  0.0579 -0.0234 -0.2713
26558SOL    HW183266   4.409   4.239   2.323  0.0842 -1.2308 -0.9454
26558SOL    HW283267   4.449   4.364   2.247 -3.0121  2.1983  2.6334
26559SOL     OW83268   6.449   5.313   7.341 -0.0357  0.2467  0.1624
26559SOL    HW183269   6.453   5.316   7.436 -0.3760  0.6766  0.1658
26559SOL    HW283270   6.355   5.309   7.321 -0.0462  1.6797 -0.1876
26560SOL     OW83271   3.285   3.287   0.578  0.7882  0.0295  0.1941
26560SOL    HW183272   3.269   3.270   0.485 -0.9160 -0.5465  0.5587
26560SOL    HW283273   3.257   3.207   0.622  4.7652 -1.1200  1.0340
26561SOL     OW83274   4.267   7.021   6.600 -0.2292 -0.7152 -0.1851
26561SOL    HW183275   4.278   7.058   6.687 -1.1076 -1.3709  0.2195
26561SOL    HW283276   4.346   7.047   6.553 -0.1611  0.4206  0.5197
26562SOL     OW83277   9.888   5.111   5.930  0.2544 -0.2350  0.1619
26562SOL    HW183278   9.948   5.179   5.961  0.0967  0.2314 -0.5329
26562SOL    HW283279   9.856   5.069   6.010  0.7308  0.1816  0.5770
26563SOL     OW83280   7.542   1.349   4.616 -0.4332 -0.6894 -0.3972
26563SOL    HW183281   7.582   1.414   4.673 -1.2875 -0.0209 -0.5321
26563SOL    HW283282   7.558   1.382   4.527 -2.2844  0.2530 -0.4320
26564SOL     OW83283   3.525   2.206   0.598 -0.3506 -0.5121  0.0719
26564SOL    HW183284   3.460   2.200   0.528 -1.4454 -2.8153  1.1612
26564SOL    HW283285   3.578   2.126   0.588  1.0219  0.3185  0.4486
26565SOL     OW83286   8.613   9.754   5.945  0.6063 -0.0324  0.1671
26565SOL    HW183287   8.568   9.802   5.876 -0.4314  1.3165  1.7058
26565SOL    HW283288   8.612   9.814   6.020  1.5548 -1.4943  1.3929
26566SOL     OW83289   9.303   7.897   8.256  0.5137  0.1735  0.6640
26566SOL    HW183290   9.260   7.933   8.335 -1.4199 -1.7150  0.5765
26566SOL    HW283291   9.385   7.859   8.289  0.6885  1.1487  1.4095
26567SOL     OW83292  10.279   2.936   6.510  0.0693 -0.4880  0.2220
26567SOL    HW183293  10.265   3.025   6.543  2.8662  0.4498 -0.8135
26567SOL    HW283294  10.343   2.898   6.570  2.8679  0.1478 -2.1394
26568SOL     OW83295   7.946  10.719   7.340  0.0303  0.2000 -0.2962
26568SOL    HW183296   7.881  10.756   7.280  0.9231  1.7198 -0.3813
26568SOL    HW283297   7.912  10.741   7.427 -0.3984 -0.4737 -0.2930
26569SOL     OW83298   8.975   9.328   4.387  0.6565  0.3263  0.4023
26569SOL    HW183299   9.005   9.266   4.453 -1.6273 -2.0674 -0.6285
26569SOL    HW283300   8.956   9.408   4.435  0.2979 -0.9168  2.4327
26570SOL     OW83301   8.167   1.259   3.775  0.6186  0.2168 -0.3130
26570SOL    HW183302   8.102   1.324   3.749 -0.1499 -0.8192 -1.0511
26570SOL    HW283303   8.154   1.248   3.869 -0.4004 -0.0949 -0.4837
26571SOL     OW83304   1.794   6.599   5.627  0.6880  0.3955  0.2295
26571SOL    HW183305   1.878   6.593   5.582  1.0491 -0.4325  0.9715
26571SOL    HW283306   1.799   6.531   5.695 -0.0803  1.1830  1.1000
26572SOL     OW83307  10.938   6.297   6.477  0.4053  0.1021 -0.6693
26572SOL    HW183308  11.007   6.346   6.520  0.7908 -0.5477 -0.5324
26572SOL    HW283309  10.978   6.213   6.455 -0.6476 -0.7383  0.4517
26573SOL     OW83310   5.350   3.192   9.216  0.3867 -0.6694  0.1693
26573SOL    HW183311   5.396   3.211   9.134 -0.9663  1.8868 -0.1092
26573SOL    HW283312   5.279   3.133   9.190  0.0660 -0.0085 -0.4819
26574SOL     OW83313  10.133   9.928   6.755 -0.4747  0.0834 -0.0427
26574SOL    HW183314  10.190   9.853   6.775 -0.4797  0.0592 -0.1159
26574SOL    HW283315  10.135   9.982   6.834  1.8863  1.5337 -0.9863
26575SOL     OW83316  10.202   1.636   0.640  0.2038  0.5687 -0.1406
26575SOL    HW183317  10.181   1.729   0.638 -0.8645  0.3399 -2.0091
26575SOL    HW283318  10.276   1.627   0.579 -0.9174 -0.0379 -1.4489
26576SOL     OW83319   8.384   7.465   3.309 -0.7851 -0.1176  0.1035
26576SOL    HW183320   8.296   7.430   3.296 -0.9701  0.2203  0.4100
26576SOL    HW283321   8.409   7.432   3.396 -0.0048 -1.4537 -0.5939
26577SOL     OW83322   4.950   4.741   3.393 -0.1872 -0.1695 -0.5334
26577SOL    HW183323   4.888   4.709   3.326  0.7160 -0.7102 -1.1316
26577SOL    HW283324   4.946   4.836   3.385 -0.1168 -0.2255 -1.3453
26578SOL     OW83325   1.835   4.204  10.089 -0.0971 -0.1254  0.2278
26578SOL    HW183326   1.781   4.136  10.131 -2.1365  0.5085 -1.2189
26578SOL    HW283327   1.921   4.163  10.079 -0.4896 -1.4969  1.8453
26579SOL     OW83328  10.299   4.565   7.153  0.2933  0.3347  0.0112
26579SOL    HW183329  10.315   4.470   7.153  1.1425  0.4713  0.8451
26579SOL    HW283330  10.253   4.581   7.070  1.6198 -0.5669 -0.9445
26580SOL     OW83331   3.100   0.690   9.491  0.3247  0.0620 -0.0122
26580SOL    HW183332   3.059   0.633   9.556 -1.2409  0.6672 -0.4020
26580SOL    HW283333   3.070   0.654   9.407  2.5007 -0.8534 -0.4681
26581SOL     OW83334   1.891   6.238   7.123 -0.4195  0.4472 -0.2671
26581SOL    HW183335   1.920   6.152   7.094 -0.1033  0.4685 -0.0171
26581SOL    HW283336   1.871   6.226   7.216  3.6232  1.5861  0.9169
26582SOL     OW83337   4.902   4.576   0.864  0.0773 -0.5955 -0.1995
26582SOL    HW183338   4.861   4.499   0.824  0.8352 -0.7589 -0.6772
26582SOL    HW283339   4.835   4.644   0.860 -0.8950 -1.4336  0.9482
26583SOL     OW83340   6.452  10.545   3.743 -0.3789  0.3114 -0.0221
26583SOL    HW183341   6.464  10.472   3.683  2.0530  0.9159 -0.3365
26583SOL    HW283342   6.500  10.617   3.705 -0.2866  1.2482  1.7423
26584SOL     OW83343   9.433   8.834   1.357  0.1390 -0.5650 -0.8209
26584SOL    HW183344   9.478   8.749   1.353 -0.8979 -1.1506 -0.5494
26584SOL    HW283345   9.407   8.843   1.449 -2.4281 -1.4323 -1.3711
26585SOL     OW83346   1.628   8.966   5.405 -0.1282 -0.3921  0.6366
26585SOL    HW183347   1.548   9.018   5.415 -0.4741 -0.8743  0.4462
26585SOL    HW283348   1.635   8.952   5.311  1.2342  1.2437  0.4567
26586SOL     OW83349   7.199   8.330   2.183  0.0553 -0.7002  0.5459
26586SOL    HW183350   7.272   8.375   2.225 -0.3137 -0.5883  1.0885
26586SOL    HW283351   7.203   8.241   2.216  0.0247 -0.7263  0.4774
26587SOL     OW83352   0.401   4.149   2.470 -0.2298  0.5788 -0.4305
26587SOL    HW183353   0.428   4.065   2.508  0.2089  0.6095 -0.6702
26587SOL    HW283354   0.338   4.184   2.532 -2.4175 -1.1182 -1.5198
26588SOL     OW83355   1.834   8.405   9.414  0.1008 -1.1425 -0.4962
26588SOL    HW183356   1.830   8.436   9.324  0.2139 -0.6827 -0.3497
26588SOL    HW283357   1.830   8.485   9.467  0.8663 -1.3391 -0.1164
26589SOL     OW83358   3.996   8.900   1.289  0.4349 -0.0079  0.0647
26589SOL    HW183359   4.060   8.829   1.289  0.5893  0.1279 -0.2575
26589SOL    HW283360   3.997   8.933   1.379  0.7102 -0.1019  0.0978
26590SOL     OW83361   7.407  10.891   9.958 -1.0896 -0.6550 -0.4642
26590SOL    HW183362   7.407  10.884   9.863 -0.6312 -1.2744 -0.4258
26590SOL    HW283363   7.386  10.803   9.989  1.0378 -1.0546  0.0181
26591SOL     OW83364   1.085   0.793   7.037  0.8028  0.2135 -0.1795
26591SOL    HW183365   1.039   0.727   6.985 -0.3734  0.3813  0.5842
26591SOL    HW283366   1.178   0.776   7.023  0.5438 -1.8538  0.2873
26592SOL     OW83367   2.024   3.629   9.185 -0.5072 -0.2948  0.2825
26592SOL    HW183368   2.024   3.687   9.109 -1.0358  0.6879  1.0068
26592SOL    HW283369   2.006   3.542   9.149  0.0483  0.0222 -0.7948
26593SOL     OW83370   7.012   0.968   5.413  0.3178  0.3660 -0.4720
26593SOL    HW183371   7.047   0.881   5.398  2.8503  1.1508  0.3567
26593SOL    HW283372   6.938   0.954   5.473  0.7389 -1.2020 -0.2792
26594SOL     OW83373   2.011   8.552   7.163 -0.4307  0.0112 -0.3500
26594SOL    HW183374   1.935   8.567   7.108  0.4051  0.2802 -1.4711
26594SOL    HW283375   2.024   8.457   7.161 -1.8835 -0.2809  1.4761
26595SOL     OW83376  11.008   9.493   5.252 -0.1912 -0.2707 -0.0234
26595SOL    HW183377  10.976   9.578   5.283 -0.8750 -0.4862 -0.1397
26595SOL    HW283378  11.032   9.509   5.161  1.9920  0.4089  0.6004
26596SOL     OW83379   3.782   9.589   5.527  0.0488 -0.0300  0.0673
26596SOL    HW183380   3.740   9.629   5.451 -0.9171  2.9871  1.9933
26596SOL    HW283381   3.711   9.542   5.571  0.4070 -1.0238 -0.3888
26597SOL     OW83382   7.587   8.917   9.176 -0.0921 -0.2190  0.4933
26597SOL    HW183383   7.614   8.829   9.201  1.6539  0.4572  1.2035
26597SOL    HW283384   7.616   8.927   9.086 -1.6062 -0.8471 -0.0825
26598SOL     OW83385   8.890   1.461   6.080 -0.5677 -0.0517 -0.4283
26598SOL    HW183386   8.942   1.457   5.999 -0.8010  1.1480 -0.6604
26598SOL    HW283387   8.871   1.369   6.101 -1.2501 -0.3708 -2.2359
26599SOL     OW83388   6.183   2.589   8.124  0.1073 -0.3260  0.0450
26599SOL    HW183389   6.094   2.620   8.143  1.1891  2.5516  0.9386
26599SOL    HW283390   6.212   2.548   8.206 -0.2038 -0.8240 -0.0904
26600SOL     OW83391   3.218   5.877   9.805  0.3349 -0.0954 -0.1029
26600SOL    HW183392   3.243   5.940   9.737  0.3134 -0.8356 -0.8042
26600SOL    HW283393   3.128   5.854   9.784  0.8621 -1.6081 -0.8500
26601SOL     OW83394   6.420   9.172   7.902 -0.1628 -0.5141  0.2246
26601SOL    HW183395   6.369   9.122   7.966 -0.9276 -0.7298 -0.5329
26601SOL    HW283396   6.362   9.244   7.877 -0.1252 -0.7902 -0.6867
26602SOL     OW83397   4.678   7.168   4.464  0.3321  0.2562 -0.6373
26602SOL    HW183398   4.583   7.158   4.469  0.4855 -2.9314 -1.5265
26602SOL    HW283399   4.692   7.245   4.410 -1.7574  0.4846 -0.9220
26603SOL     OW83400   8.257   9.507   9.518 -0.2794 -0.1273 -0.6668
26603SOL    HW183401   8.238   9.443   9.586  0.2691 -1.1743 -1.4703
26603SOL    HW283402   8.317   9.462   9.459  2.7287  2.1596  0.4146
26604SOL     OW83403   1.173   6.396   2.763 -0.3030  0.2272  0.1548
26604SOL    HW183404   1.112   6.378   2.835 -0.1162  1.0912  0.5463
26604SOL    HW283405   1.259   6.404   2.806 -0.0328 -0.2040 -0.2924
26605SOL     OW83406   8.436   9.873   8.283 -0.5454  0.1648 -0.5022
26605SOL    HW183407   8.467   9.802   8.227 -1.8721 -0.6319 -0.2721
26605SOL    HW283408   8.351   9.844   8.315  0.3874  0.2724  2.4670
26606SOL     OW83409   1.999   7.396   4.588  0.0506 -0.0595 -0.0391
26606SOL    HW183410   2.066   7.460   4.609  0.5283 -0.3661 -0.6081
26606SOL    HW283411   1.930   7.411   4.653  1.3707 -0.8356  1.5939
26607SOL     OW83412   0.716   3.545   0.479 -0.4278  0.6934 -0.5634
26607SOL    HW183413   0.660   3.471   0.455  1.0398 -0.5934 -0.2116
26607SOL    HW283414   0.737   3.587   0.396  0.6644 -0.7843 -1.0830
26608SOL     OW83415   4.746  10.572   6.262  0.1500  0.3590 -0.4924
26608SOL    HW183416   4.661  10.582   6.220 -1.0883 -2.8531  0.8915
26608SOL    HW283417   4.740  10.488   6.308  2.9633  1.4862  2.2936
26609SOL     OW83418   1.268   6.482   1.013  0.0944 -0.4172  0.2129
26609SOL    HW183419   1.196   6.420   1.019  1.0183 -1.4066  2.3923
26609SOL    HW283420   1.316   6.456   0.935 -1.6231 -0.0142 -1.0127
26610SOL     OW83421   6.889   2.828   4.577  0.8380  0.1265 -0.0228
26610SOL    HW183422   6.959   2.811   4.514  0.6369  0.4236 -0.3341
26610SOL    HW283423   6.811   2.838   4.523  0.7210  0.7045  0.2450
26611SOL     OW83424   1.527  10.853   4.217  0.0501  0.0422  0.4643
26611SOL    HW183425   1.588  10.806   4.160 -0.3302 -0.7659  0.7015
26611SOL    HW283426   1.582  10.915   4.265  0.5110  0.1001 -0.1259
26612SOL     OW83427   0.167   7.532   4.148 -0.7195  0.1980 -0.1167
26612SOL    HW183428   0.155   7.535   4.054 -1.1908  2.9155 -0.0674
26612SOL    HW283429   0.248   7.581   4.164 -0.1496 -0.9951  0.8594
26613SOL     OW83430   6.925   1.489   6.760 -0.7290  0.3693  0.3784
26613SOL    HW183431   6.906   1.510   6.668 -1.8272 -1.9634  0.0033
26613SOL    HW283432   6.858   1.424   6.784  0.0426  0.3149  2.5913
26614SOL     OW83433   2.502  10.473   3.009  0.0966  0.2036 -0.3996
26614SOL    HW183434   2.422  10.495   2.961 -0.5010 -0.6221  0.1836
26614SOL    HW283435   2.478  10.396   3.061  1.1315  0.2403  0.1556
26615SOL     OW83436   7.840   8.553   8.410  0.1369 -0.3921 -0.4455
26615SOL    HW183437   7.856   8.582   8.320 -0.7367  0.6105 -0.2887
26615SOL    HW283438   7.800   8.627   8.453  1.0258 -0.6739  0.9515
26616SOL     OW83439   4.614   4.736   1.768 -0.2046 -0.2687  0.3966
26616SOL    HW183440   4.648   4.691   1.691 -1.2662 -1.3967  0.5503
26616SOL    HW283441   4.536   4.687   1.792 -0.2156  0.4013  1.8622
26617SOL     OW83442   3.429   1.245   7.964 -0.2558 -0.3633 -0.2721
26617SOL    HW183443   3.515   1.284   7.949 -0.2773  0.0796  0.6575
26617SOL    HW283444   3.390   1.300   8.032 -0.0417 -2.3748  1.5626
26618SOL     OW83445   2.610  10.457   8.491 -0.1632  0.1105 -0.2211
26618SOL    HW183446   2.555  10.470   8.413  1.9106  0.6271 -1.7146
26618SOL    HW283447   2.596  10.536   8.543 -1.1448  0.0351 -0.3607
26619SOL     OW83448   8.274   2.560   9.320 -0.1786  0.6034  0.1334
26619SOL    HW183449   8.245   2.502   9.390  1.6264  2.2535  2.3977
26619SOL    HW283450   8.223   2.639   9.331  0.6816  1.1778  0.1152
26620SOL     OW83451   8.269   4.096   8.473  0.2296  0.2976  0.1909
26620SOL    HW183452   8.264   4.173   8.416  0.0459 -0.6820 -1.1549
26620SOL    HW283453   8.363   4.084   8.488  0.3092  0.2419 -0.3480
26621SOL     OW83454   6.959   4.652  10.421 -0.4972 -0.8342  0.6472
26621SOL    HW183455   7.017   4.684  10.352 -0.3488 -1.6292  0.3939
26621SOL    HW283456   6.937   4.563  10.395  0.2662 -1.4644  2.0664
26622SOL     OW83457   2.079   0.155   0.309  0.1612  0.1654 -0.2045
26622SOL    HW183458   2.102   0.195   0.393  1.5406 -1.6408  0.3338
26622SOL    HW283459   2.163   0.144   0.264 -0.6499  2.1705 -2.3877
26623SOL     OW83460   0.393   7.058   1.751  0.5378 -0.0837 -0.5726
26623SOL    HW183461   0.350   7.119   1.692 -0.4590 -0.6593 -0.4740
26623SOL    HW283462   0.436   7.114   1.816 -2.3778  0.5973  0.9684
26624SOL     OW83463   9.356   3.007   3.114 -0.4463  0.1010  0.0760
26624SOL    HW183464   9.358   2.913   3.129 -2.2173  0.1271  0.7527
26624SOL    HW283465   9.383   3.018   3.023  0.1558 -1.0221  0.1052
26625SOL     OW83466   4.382   9.718   9.244 -0.1612 -0.3843  0.4030
26625SOL    HW183467   4.294   9.721   9.206  0.2097 -1.4165 -0.6182
26625SOL    HW283468   4.379   9.644   9.304  0.2979 -1.1532 -0.4874
26626SOL     OW83469  10.207   8.109   9.778  0.1888  0.1850  0.7074
26626SOL    HW183470  10.296   8.131   9.805 -0.1036  0.6061  1.3451
26626SOL    HW283471  10.152   8.177   9.817 -0.8270 -1.9738  3.3605
26627SOL     OW83472  10.724   2.102  10.883 -0.1810  0.0918  0.5510
26627SOL    HW183473  10.695   2.039  10.949  0.1156 -0.5934  0.0386
26627SOL    HW283474  10.651   2.107  10.821 -0.2938  0.4227  0.7103
26628SOL     OW83475  10.202   0.181   3.562 -0.1443 -0.1331  0.5369
26628SOL    HW183476  10.237   0.230   3.488  0.4426  0.9003  1.4640
26628SOL    HW283477  10.248   0.097   3.558  0.7367  0.3334  0.3652
26629SOL     OW83478   4.120   6.505  10.089  0.2830 -0.2048 -0.0115
26629SOL    HW183479   4.165   6.446  10.150 -0.0284 -1.3082 -0.8009
26629SOL    HW283480   4.191   6.553  10.046  0.7457 -1.6758 -0.9961
26630SOL     OW83481  11.050   7.617   6.810 -0.3002  0.3487  0.9163
26630SOL    HW183482  11.020   7.687   6.867  1.4447  0.0282  2.3155
26630SOL    HW283483  11.090   7.662   6.735 -1.3809  0.7803  0.5773
26631SOL     OW83484   7.971  10.682  10.610 -0.4468 -0.2252 -0.3406
26631SOL    HW183485   7.919  10.730  10.674  1.2197  0.4176  0.5897
26631SOL    HW283486   7.906  10.638  10.555 -1.9479 -0.7794  1.7375
26632SOL     OW83487   5.421   2.101   3.281 -0.3802  0.6410 -0.4320
26632SOL    HW183488   5.354   2.060   3.335 -1.1283 -1.8354 -3.0455
26632SOL    HW283489   5.503   2.061   3.311 -0.7799 -0.6833 -1.0538
26633SOL     OW83490   9.109   9.471   5.572  0.1528 -0.9597 -0.5533
26633SOL    HW183491   9.136   9.508   5.656 -0.4662  0.0164 -0.7649
26633SOL    HW283492   9.092   9.379   5.590  0.6782 -0.9094  0.2389
26634SOL     OW83493   8.845   5.678   3.123  0.1614 -0.2519 -0.5777
26634SOL    HW183494   8.924   5.627   3.141  0.4127 -0.7528 -2.8232
26634SOL    HW283495   8.775   5.628   3.163  1.0244  0.8393  2.5681
26635SOL     OW83496   6.102   9.284   8.707 -0.9505 -0.0408  0.5958
26635SOL    HW183497   6.067   9.317   8.624  0.8398  1.8269  0.4911
26635SOL    HW283498   6.057   9.335   8.774  0.2165  1.0943  0.5481
26636SOL     OW83499   8.301   7.281   0.639 -0.5002 -0.8180 -0.7093
26636SOL    HW183500   8.232   7.284   0.572 -1.5084 -1.5410  0.2607
26636SOL    HW283501   8.254   7.273   0.722  0.6024  2.0719  0.3516
26637SOL     OW83502   9.944   7.981  10.694  0.2303  0.0350  0.5240
26637SOL    HW183503   9.900   8.013  10.773 -2.3162 -1.7419 -0.0494
26637SOL    HW283504   9.904   8.029  10.622  0.0874 -0.7458  0.0731
26638SOL     OW83505   0.583   3.464   3.228  0.3568 -0.3082  0.6361
26638SOL    HW183506   0.505   3.519   3.239  2.3804  3.6402 -2.1559
26638SOL    HW283507   0.649   3.505   3.283  1.9420  0.2731 -1.5439
26639SOL     OW83508   8.189   9.161   9.179 -0.5270  0.2919 -0.2357
26639SOL    HW183509   8.248   9.090   9.152  0.4836  1.4129 -1.0852
26639SOL    HW283510   8.232   9.200   9.255 -0.9087  0.2230  0.0199
26640SOL     OW83511   9.304   3.315   6.429 -0.1969 -0.1002 -1.0063
26640SOL    HW183512   9.294   3.383   6.363 -1.4472  1.7454  0.9307
26640SOL    HW283513   9.229   3.328   6.488 -0.1697 -2.8412 -0.2464
26641SOL     OW83514   0.787   7.943  10.382 -0.4354  0.4168  0.3018
26641SOL    HW183515   0.820   7.954  10.293  1.1347  2.2445  1.0423
26641SOL    HW283516   0.835   7.869  10.418 -0.3071  0.3466 -0.0141
26642SOL     OW83517   9.504   1.495   1.018 -0.2847  0.1673 -0.2323
26642SOL    HW183518   9.563   1.556   0.973  0.1163  0.9555  1.2832
26642SOL    HW283519   9.458   1.550   1.082 -1.5753 -0.7244 -0.3511
26643SOL     OW83520  10.352  10.557   3.038  0.4029  0.3838  0.1474
26643SOL    HW183521  10.371  10.539   3.130  0.0140  1.1442  0.3813
26643SOL    HW283522  10.309  10.477   3.006  1.7937 -0.4298  0.2404
26644SOL     OW83523   0.882   1.795  10.895  0.3404 -0.2485  0.6250
26644SOL    HW183524   0.919   1.763  10.977 -1.0220 -2.0442  0.6025
26644SOL    HW283525   0.791   1.817  10.917  0.2345  0.1744 -0.1982
26645SOL     OW83526   0.579   2.210   0.543 -0.9987  0.1125  0.3828
26645SOL    HW183527   0.507   2.170   0.493  0.6994 -2.1427 -0.4269
26645SOL    HW283528   0.582   2.161   0.625 -0.4908  0.2993  0.4788
26646SOL     OW83529   7.623   1.859   7.967 -0.2515 -0.1155  0.0743
26646SOL    HW183530   7.676   1.796   8.016 -0.6601 -0.5813 -0.0770
26646SOL    HW283531   7.570   1.903   8.034 -1.1687 -1.0928  0.0288
26647SOL     OW83532   4.919   2.601   3.932  0.0734 -0.1362  0.1679
26647SOL    HW183533   4.861   2.547   3.879 -0.8211  0.7085  0.2558
26647SOL    HW283534   4.860   2.663   3.976  0.9992  0.4500  0.6068
26648SOL     OW83535   8.856  10.493   6.246 -0.9521 -0.0807  0.2947
26648SOL    HW183536   8.915  10.426   6.280 -0.1061  0.5523  0.1177
26648SOL    HW283537   8.867  10.489   6.151  0.3818  1.3847  0.3381
26649SOL     OW83538   0.950   1.506   1.768  0.5961 -0.6679 -0.4604
26649SOL    HW183539   0.876   1.464   1.812  0.4001 -0.8184 -0.9266
26649SOL    HW283540   0.947   1.472   1.679  1.3492 -0.8272 -0.4311
26650SOL     OW83541   1.332   0.491   9.350  0.3251 -0.2842 -0.0123
26650SOL    HW183542   1.303   0.485   9.259  4.3517  0.3792 -1.5583
26650SOL    HW283543   1.319   0.403   9.385 -0.4066 -0.8232 -1.5307
26651SOL     OW83544   1.525   3.364   7.050  0.0395 -0.7996 -0.0789
26651SOL    HW183545   1.600   3.349   6.992 -0.5996 -1.4133 -0.7673
26651SOL    HW283546   1.531   3.294   7.115  0.8467 -0.0183  0.7169
26652SOL     OW83547   3.065   9.180   4.294  0.0254 -0.1294  0.5789
26652SOL    HW183548   3.041   9.219   4.211 -0.1220  0.0485  0.7036
26652SOL    HW283549   3.084   9.088   4.274  1.4849  0.2429  0.0836
26653SOL     OW83550   3.885   4.474   9.388 -0.0331 -0.5288  0.0531
26653SOL    HW183551   3.976   4.460   9.363 -0.1246  0.3177 -0.8157
26653SOL    HW283552   3.884   4.465   9.483  1.6202  2.5862  0.4895
26654SOL     OW83553   5.759   8.145   8.584  0.0338  0.3832 -0.0717
26654SOL    HW183554   5.803   8.087   8.646  0.1761  0.1231 -0.4088
26654SOL    HW283555   5.668   8.115   8.584  0.2150 -0.2081 -0.6475
26655SOL     OW83556   0.504   1.113   0.990  0.1320  0.5485 -0.1366
26655SOL    HW183557   0.490   1.203   1.018 -0.6941 -0.2450  2.2236
26655SOL    HW283558   0.441   1.099   0.919  0.6538  1.9532 -0.9074
26656SOL     OW83559   9.940   9.829   0.436  0.5555  0.1264  0.6347
26656SOL    HW183560  10.033   9.847   0.450  1.0602 -1.6836 -0.0278
26656SOL    HW283561   9.913   9.890   0.368  1.1174  1.0255  1.2077
26657SOL     OW83562   3.245   2.037   1.514 -0.3284 -0.5041  0.4216
26657SOL    HW183563   3.273   1.997   1.431 -2.4364  3.4787 -2.5196
26657SOL    HW283564   3.314   2.101   1.533 -0.9200  0.1197  0.4853
26658SOL     OW83565  10.908   3.098   2.352 -0.0226 -0.2000  0.1221
26658SOL    HW183566  10.980   3.160   2.342 -0.1207  0.1553  1.3467
26658SOL    HW283567  10.846   3.121   2.283  0.0400  0.9606  0.4289
26659SOL     OW83568   7.022   7.624   4.834  0.2828 -0.3022 -0.3819
26659SOL    HW183569   7.091   7.677   4.794 -0.5896  1.6543  0.5366
26659SOL    HW283570   6.973   7.590   4.760  0.2272  1.1292 -1.0468
26660SOL     OW83571   9.946   5.461   2.734 -0.3853  0.5514  0.4148
26660SOL    HW183572   9.934   5.371   2.766 -0.3867  0.2900 -0.3124
26660SOL    HW283573   9.866   5.506   2.760 -1.0758 -0.0638 -0.5818
26661SOL     OW83574   6.233   7.473   3.280 -0.3441 -0.0964 -0.4729
26661SOL    HW183575   6.263   7.488   3.370  0.9016  0.1211 -0.9090
26661SOL    HW283576   6.273   7.543   3.229 -1.0275 -0.2240 -1.2086
26662SOL     OW83577   4.778   1.953  10.098 -0.5002  0.6131  0.0439
26662SOL    HW183578   4.858   1.909  10.128 -2.0520 -2.2828  0.3688
26662SOL    HW283579   4.809   2.022  10.040  2.2501  0.1957  0.8408
26663SOL     OW83580   1.252   4.221  10.427 -0.4227  0.1707  0.2831
26663SOL    HW183581   1.213   4.294  10.378 -0.5690 -0.3870 -0.4473
26663SOL    HW283582   1.187   4.151  10.421  0.5235 -0.6687 -0.6972
26664SOL     OW83583   7.664   2.392  10.995  0.3098  0.3997  0.3137
26664SOL    HW183584   7.665   2.485  10.975 -0.3981  0.7514  1.7650
26664SOL    HW283585   7.716   2.351  10.925  0.1219  1.7951 -0.6779
26665SOL     OW83586   5.817   5.430   9.429 -0.0311  0.1100  0.0396
26665SOL    HW183587   5.809   5.464   9.519  3.3654  1.9094 -0.2064
26665SOL    HW283588   5.889   5.367   9.433  0.6427  0.7284 -1.5182
26666SOL     OW83589   0.065   8.332   7.419 -0.4690  0.0338  0.1400
26666SOL    HW183590   0.123   8.271   7.373 -2.2237  0.5499 -3.1035
26666SOL    HW283591  -0.023   8.309   7.387 -1.1734  4.7303 -2.1701
26667SOL     OW83592   6.026   9.881   1.182 -0.0738 -0.3244  0.3736
26667SOL    HW183593   6.028   9.946   1.111 -1.0327 -0.0321  0.5936
26667SOL    HW283594   5.933   9.859   1.190  0.2205 -1.5734  0.4451
26668SOL     OW83595   9.687   7.034   9.048  0.1121 -0.7000  0.1727
26668SOL    HW183596   9.626   6.961   9.049  1.8643 -2.2638  2.1740
26668SOL    HW283597   9.773   6.993   9.060  1.0871  1.7339  2.2279
26669SOL     OW83598   4.597   6.815   8.906 -0.1363  0.7273 -0.0098
26669SOL    HW183599   4.604   6.802   9.001 -2.5924  2.6285  0.5179
26669SOL    HW283600   4.574   6.729   8.871  1.5629 -0.1762  0.9690
26670SOL     OW83601   0.203   1.822   3.721 -0.7214  0.6843 -0.6263
26670SOL    HW183602   0.158   1.822   3.806 -0.7168  2.1912 -0.6008
26670SOL    HW283603   0.296   1.818   3.743 -0.7579 -1.7101 -0.6625
26671SOL     OW83604   8.898   9.081   7.477  0.5154 -0.2342  0.1466
26671SOL    HW183605   8.808   9.050   7.485  0.3110  0.2806 -0.1098
26671SOL    HW283606   8.950   9.015   7.524  0.2223 -1.5405 -1.2795
26672SOL     OW83607   6.107  10.087   7.881  0.8206 -0.0212 -0.1939
26672SOL    HW183608   6.099  10.182   7.894 -0.0597 -0.0256 -0.6535
26672SOL    HW283609   6.102  10.075   7.787  2.3728 -0.4192 -0.2556
26673SOL     OW83610   7.415   7.868   1.397  0.0755 -0.3709 -0.5082
26673SOL    HW183611   7.452   7.937   1.453  1.1080 -1.8421  0.6965
26673SOL    HW283612   7.487   7.845   1.338 -0.3031 -0.3397 -0.9797
26674SOL     OW83613   1.304   2.812   4.968  0.1147  0.0646  0.7331
26674SOL    HW183614   1.375   2.799   5.030  0.0893 -0.3874  0.6671
26674SOL    HW283615   1.289   2.907   4.968  0.5127  0.1279  0.9707
26675SOL     OW83616   2.329   2.006   2.703  0.1659  0.6376  0.0993
26675SOL    HW183617   2.414   2.048   2.719  0.7469 -0.6241  0.3997
26675SOL    HW283618   2.301   1.975   2.789  0.0458 -0.1483 -0.2184
26676SOL     OW83619   5.334   9.955   7.908 -0.1851 -0.6406 -0.3271
26676SOL    HW183620   5.285   9.880   7.942 -3.0921  2.0705  2.0946
26676SOL    HW283621   5.399   9.973   7.976 -0.0519 -0.4730 -0.4984
26677SOL     OW83622   4.615   8.268   1.476  0.0825  0.2974  0.6725
26677SOL    HW183623   4.553   8.309   1.415  0.3811 -1.7023 -1.1258
26677SOL    HW283624   4.701   8.297   1.445  0.2494 -0.9448 -0.0955
26678SOL     OW83625   1.679   5.864   5.397 -0.1481 -0.0978 -0.3402
26678SOL    HW183626   1.594   5.821   5.404 -0.4833  0.2013 -2.1091
26678SOL    HW283627   1.660   5.957   5.404  0.4477 -0.0906  2.3617
26679SOL     OW83628   3.142   6.108   8.362 -0.7483 -0.5616  0.1256
26679SOL    HW183629   3.147   6.033   8.421 -1.1036 -0.6572  0.0390
26679SOL    HW283630   3.206   6.088   8.293  0.3223 -0.0212  0.9467
26680SOL     OW83631   4.756   2.305   2.870  0.3477  0.2669 -0.5678
26680SOL    HW183632   4.794   2.232   2.919  1.6104  1.9994  1.2338
26680SOL    HW283633   4.800   2.303   2.785  0.8441 -0.6897 -0.2991
26681SOL     OW83634  10.192   5.146   3.093 -0.7175 -0.2958  0.5025
26681SOL    HW183635  10.281   5.180   3.083 -1.4839  1.4161 -0.9826
26681SOL    HW283636  10.204   5.056   3.126  1.5306 -0.0995  0.3618
26682SOL     OW83637   7.029   3.233  10.447  0.6672 -0.3460 -0.8320
26682SOL    HW183638   7.093   3.177  10.490 -0.5861  0.2555  2.0740
26682SOL    HW283639   6.948   3.220  10.496 -0.6784  1.1130 -2.5038
26683SOL     OW83640   3.742   7.216   8.938  0.4490  0.5745  0.1436
26683SOL    HW183641   3.723   7.138   8.990  1.0677  2.3040  3.2022
26683SOL    HW283642   3.763   7.182   8.851 -1.5401 -2.4523  0.6817
26684SOL     OW83643   0.304   0.091   0.221  0.5717 -0.2349 -0.0873
26684SOL    HW183644   0.224   0.145   0.226  0.1983 -0.7626 -0.2689
26684SOL    HW283645   0.375   0.152   0.241  0.1792  0.3856 -0.5445
26685SOL     OW83646   9.322   7.800   8.941  0.1987  0.1097 -0.3687
26685SOL    HW183647   9.385   7.731   8.918  0.1188  0.2798 -1.1207
26685SOL    HW283648   9.238   7.766   8.910 -0.0772 -0.0914  0.5805
26686SOL     OW83649   3.311   0.767   7.793  0.8290  0.2271 -0.0107
26686SOL    HW183650   3.219   0.752   7.773  1.0768 -2.4716  0.4690
26686SOL    HW283651   3.328   0.857   7.764 -1.9506  0.8441  0.0027
26687SOL     OW83652   1.794  11.064   1.537 -0.0955 -0.3846  0.1617
26687SOL    HW183653   1.769  11.156   1.542  1.1217 -0.0079 -0.1800
26687SOL    HW283654   1.861  11.054   1.605  3.3778  0.2687 -2.8696
26688SOL     OW83655   0.431   4.063   2.218 -0.5025  0.4543  0.3694
26688SOL    HW183656   0.489   4.139   2.209  1.2015 -0.8453 -0.3570
26688SOL    HW283657   0.398   4.068   2.307  2.8831 -0.1024  1.8144
26689SOL     OW83658   2.222   3.095   4.501 -0.2235 -0.2672  0.5656
26689SOL    HW183659   2.184   3.115   4.416  0.7338 -1.0112 -0.0506
26689SOL    HW283660   2.237   3.000   4.500 -0.4304 -0.3335  1.6590
26690SOL     OW83661   1.815   7.731   1.659  0.2029  0.1188  0.4029
26690SOL    HW183662   1.775   7.776   1.733 -1.6860 -0.0209 -0.4669
26690SOL    HW283663   1.846   7.802   1.602  1.2169  0.2279  1.0597
26691SOL     OW83664   9.605   7.005   1.893  0.2402 -0.3682  0.4435
26691SOL    HW183665   9.610   6.970   1.804 -2.7357 -0.7148  0.3281
26691SOL    HW283666   9.658   6.945   1.945  0.5093 -1.2422 -0.7828
26692SOL     OW83667   4.365   3.093   1.393 -0.1228  0.0980 -0.2075
26692SOL    HW183668   4.359   3.155   1.320  0.4760 -1.8547 -2.0328
26692SOL    HW283669   4.457   3.068   1.395 -0.1670  0.0175  1.1522
26693SOL     OW83670   4.980   9.587   3.489 -0.1433 -0.2633  0.0300
26693SOL    HW183671   4.960   9.627   3.574 -0.7415  0.1725 -0.3024
26693SOL    HW283672   4.923   9.633   3.427 -0.3884 -1.2067 -0.4696
26694SOL     OW83673   1.748  10.135   7.881  0.0054  0.6096 -0.0545
26694SOL    HW183674   1.661  10.115   7.846  0.3792 -0.7759 -0.2558
26694SOL    HW283675   1.743  10.227   7.906 -1.9982  0.1787  1.3345
26695SOL     OW83676   4.436   3.410   5.741 -0.4448  0.1770  0.0454
26695SOL    HW183677   4.467   3.466   5.813  1.1275  0.9221 -1.1554
26695SOL    HW283678   4.478   3.325   5.758 -0.4659  0.2105  0.2735
26696SOL     OW83679  10.057   3.091   2.423  0.0184  0.1984 -0.0702
26696SOL    HW183680  10.140   3.043   2.422 -0.0569  0.0600  0.0945
26696SOL    HW283681  10.051   3.127   2.511  0.8590  1.9289 -0.6894
26697SOL     OW83682   5.857   2.208   6.322 -0.2717  0.0254  0.4226
26697SOL    HW183683   5.903   2.240   6.245 -0.3464  0.3973  0.5337
26697SOL    HW283684   5.800   2.280   6.349  0.2338  0.1496  1.2162
26698SOL     OW83685   3.201   9.489   6.097 -0.1086  0.6186 -0.4216
26698SOL    HW183686   3.111   9.462   6.077  0.5107 -2.5406  0.4948
26698SOL    HW283687   3.252   9.464   6.020  0.2753  0.7513 -0.2155
26699SOL     OW83688  10.472   6.352   1.166 -0.2108 -0.0637 -0.0839
26699SOL    HW183689  10.552   6.380   1.211  1.1933 -3.2685 -0.3465
26699SOL    HW283690  10.503   6.307   1.088 -2.2950 -1.1812 -0.3293
26700SOL     OW83691   0.149   4.559   8.869 -0.2460  0.3870 -0.5528
26700SOL    HW183692   0.097   4.484   8.840  0.4466 -0.4465  0.2853
26700SOL    HW283693   0.208   4.523   8.935 -0.1250  1.7411  0.1219
26701SOL     OW83694   4.815   1.825   4.084 -0.1136  0.4737  0.1569
26701SOL    HW183695   4.797   1.918   4.096 -1.1034  0.2924  0.2256
26701SOL    HW283696   4.728   1.784   4.085  0.1207 -0.2054 -2.1324
26702SOL     OW83697   5.115   4.699   7.208 -0.3474  0.0176  0.2385
26702SOL    HW183698   5.140   4.607   7.205  3.7515  0.9607 -0.9151
26702SOL    HW283699   5.152   4.731   7.290 -0.5745  0.8898  0.0140
26703SOL     OW83700   4.390   6.309   4.656 -0.2941 -0.0040  0.2114
26703SOL    HW183701   4.338   6.295   4.735  0.2450  0.3274  0.6315
26703SOL    HW283702   4.341   6.264   4.587 -0.0037 -1.6132  1.0017
26704SOL     OW83703   8.652   9.083   0.214 -0.5411  0.0438  0.2222
26704SOL    HW183704   8.606   9.149   0.162  1.6150 -0.4523 -2.5505
26704SOL    HW283705   8.740   9.118   0.224  0.3520 -1.8836 -0.3911
26705SOL     OW83706   0.053   7.459  10.839  0.0801  0.1120  0.4780
26705SOL    HW183707   0.019   7.528  10.896 -0.0558 -0.5831  1.2581
26705SOL    HW283708   0.001   7.382  10.860 -0.8620  0.1333 -1.5309
26706SOL     OW83709   4.993   2.178   3.000 -0.0486 -0.0841 -0.3010
26706SOL    HW183710   5.058   2.109   3.001  0.6034  0.5088  0.8155
26706SOL    HW283711   4.919   2.142   3.049  0.1951 -0.0924  0.0697
26707SOL     OW83712   5.361  10.381   1.258  0.3406  0.1079 -0.0449
26707SOL    HW183713   5.396  10.332   1.184  0.7087  1.4851 -0.8145
26707SOL    HW283714   5.392  10.334   1.335  2.4210  0.2828 -0.7310
26708SOL     OW83715   8.679   7.279   4.520  0.1034 -0.2065  0.2811
26708SOL    HW183716   8.688   7.186   4.502  0.5620 -0.2086  0.5183
26708SOL    HW283717   8.717   7.322   4.444  0.5173 -0.2133  0.4853
26709SOL     OW83718   0.287  10.495   1.647  0.1619  0.5951  0.0327
26709SOL    HW183719   0.233  10.518   1.571  1.5104  0.4000 -1.0121
26709SOL    HW283720   0.263  10.560   1.714 -2.0333 -0.0473 -0.0499
26710SOL     OW83721   8.821   9.753   7.286 -0.7121  0.3151  0.0516
26710SOL    HW183722   8.888   9.685   7.277 -0.6034  0.3129  0.8096
26710SOL    HW283723   8.738   9.705   7.287 -0.6770  0.2516 -0.0574
26711SOL     OW83724   2.115   1.008   9.693  0.0679 -0.1402 -0.1349
26711SOL    HW183725   2.036   1.057   9.716 -1.4629 -2.7052  0.4341
26711SOL    HW283726   2.150   0.978   9.776  0.3997 -0.8355 -0.5177
26712SOL     OW83727  10.255  10.044   1.426  0.4912 -0.5045 -0.0629
26712SOL    HW183728  10.240  10.040   1.331 -0.3279 -0.4954  0.0602
26712SOL    HW283729  10.248  10.137   1.448  0.1141 -0.5671  0.0910
26713SOL     OW83730   1.487   2.024   3.824 -0.2692  0.0093 -0.7275
26713SOL    HW183731   1.492   2.040   3.918 -2.0228 -2.0608 -0.1933
26713SOL    HW283732   1.412   2.075   3.794 -0.3803 -0.1898 -0.7902
26714SOL     OW83733   2.590   6.808   1.132  0.2968 -0.1423 -0.1516
26714SOL    HW183734   2.557   6.891   1.098 -0.4204 -0.3619 -0.0133
26714SOL    HW283735   2.669   6.791   1.081  0.1672  0.3732 -0.5311
26715SOL     OW83736   7.617   8.141   1.915 -0.3884 -0.4761 -0.2339
26715SOL    HW183737   7.672   8.067   1.892 -0.2499 -0.2978 -0.4781
26715SOL    HW283738   7.533   8.124   1.871  0.6414  1.0965 -3.0672
26716SOL     OW83739   7.850   7.376   5.992 -0.2006  0.1237 -0.3242
26716SOL    HW183740   7.925   7.401   6.047  0.1809  0.1204 -0.8347
26716SOL    HW283741   7.782   7.440   6.015 -0.0529  0.1170  0.1558
26717SOL     OW83742   9.046   2.137   0.803 -0.1605  0.5617  0.1066
26717SOL    HW183743   9.131   2.118   0.762  0.6433  1.2630  1.3973
26717SOL    HW283744   9.056   2.224   0.841 -2.0617  1.4200 -1.2074
26718SOL     OW83745   6.390   7.926   2.085 -0.0782 -0.2266  0.1831
26718SOL    HW183746   6.296   7.920   2.095 -0.3565 -0.2075 -1.8833
26718SOL    HW283747   6.418   7.837   2.063  0.4222 -0.2649  0.9321
26719SOL     OW83748   6.318   9.444   0.574  0.1857 -0.4360 -0.6622
26719SOL    HW183749   6.401   9.403   0.551  0.4156  1.2185 -3.2034
26719SOL    HW283750   6.258   9.419   0.504 -0.1451  1.9580 -1.3378
26720SOL     OW83751   2.795   5.059   9.010 -0.4816 -0.1695 -0.0166
26720SOL    HW183752   2.740   4.991   8.971 -0.5158 -0.7915  1.0490
26720SOL    HW283753   2.880   5.016   9.024  0.0987  0.5901 -1.0689
26721SOL     OW83754   6.918   4.235   5.808 -0.8955  0.7382  0.6017
26721SOL    HW183755   6.925   4.141   5.824 -1.2074  0.5411 -0.3669
26721SOL    HW283756   6.926   4.245   5.713  1.5803  1.9333  0.8542
26722SOL     OW83757   8.135   2.840   1.179 -0.1285  0.5186 -0.5892
26722SOL    HW183758   8.230   2.842   1.172 -0.0680 -0.7856 -0.2160
26722SOL    HW283759   8.110   2.750   1.157 -1.2175  0.6489  0.0233
26723SOL     OW83760  10.761   0.764   1.345 -0.0858 -0.3988 -0.0746
26723SOL    HW183761  10.672   0.743   1.318  0.1914 -1.1429 -0.4310
26723SOL    HW283762  10.797   0.815   1.273  0.0034 -0.7050 -0.2512
26724SOL     OW83763   4.680   1.552  10.168 -0.3821  0.1045  0.4306
26724SOL    HW183764   4.754   1.525  10.222 -1.0806  0.4514  1.5930
26724SOL    HW283765   4.717   1.560  10.080  0.6253 -1.1316  0.7082
26725SOL     OW83766   2.396   2.047   4.036  0.0947 -0.2184  0.3918
26725SOL    HW183767   2.311   2.021   4.069 -1.6092  3.0342 -0.9768
26725SOL    HW283768   2.396   2.143   4.040  1.7184  0.2227 -3.9677
26726SOL     OW83769   2.712  10.254   5.712  0.0174 -0.1169  0.3705
26726SOL    HW183770   2.679  10.340   5.740 -1.1047 -0.5456  0.3907
26726SOL    HW283771   2.638  10.195   5.721  1.2663 -1.5090  2.1423
26727SOL     OW83772   5.252   9.507   5.995  0.4768  0.5095 -0.3213
26727SOL    HW183773   5.262   9.476   6.085  1.1742 -0.5177 -0.7336
26727SOL    HW283774   5.190   9.446   5.956 -0.7696  1.6766 -0.2193
26728SOL     OW83775   7.726   1.571   4.670 -0.3693  0.3174 -0.1858
26728SOL    HW183776   7.745   1.651   4.622  0.2234 -0.3372 -1.0884
26728SOL    HW283777   7.744   1.592   4.762 -0.5707  1.3080 -0.3674
26729SOL     OW83778   4.197   5.791   1.947 -0.4921  0.1327  0.4341
26729SOL    HW183779   4.217   5.790   1.854 -1.4662 -0.1563  0.2169
26729SOL    HW283780   4.237   5.872   1.979 -0.0404  0.1703 -0.2039
26730SOL     OW83781   9.506   6.720   3.348 -0.2547  0.4496 -0.2180
26730SOL    HW183782   9.481   6.689   3.436 -0.2629 -0.0469 -0.3898
26730SOL    HW283783   9.569   6.790   3.364  0.8600 -0.5931  0.1888
26731SOL     OW83784   6.987   6.066   0.503 -0.4890 -0.2767 -0.2496
26731SOL    HW183785   7.017   5.985   0.462  0.4107 -0.3815  0.5608
26731SOL    HW283786   7.012   6.135   0.440  0.0511 -0.5061 -0.2908
26732SOL     OW83787   4.221   3.645   1.346  0.4130  1.0137 -0.9838
26732SOL    HW183788   4.247   3.563   1.304  0.1067  0.0754  0.5499
26732SOL    HW283789   4.281   3.654   1.420 -0.3343  1.5392 -0.4269
26733SOL     OW83790   8.400   8.599   2.694  0.4159  0.1659 -0.4546
26733SOL    HW183791   8.431   8.677   2.647  0.0397 -0.9496 -2.6844
26733SOL    HW283792   8.310   8.587   2.664  0.5460 -1.2758 -0.3466
26734SOL     OW83793   1.886   3.018   4.295 -0.2650  0.2438  0.6495
26734SOL    HW183794   1.967   3.063   4.270 -0.9467  0.5113 -1.2901
26734SOL    HW283795   1.910   2.926   4.302  0.0514  0.1833 -0.8642
26735SOL     OW83796   4.135   6.514   2.304  0.3824 -0.2193  0.3913
26735SOL    HW183797   4.085   6.550   2.231  1.7602  0.0552 -0.4610
26735SOL    HW283798   4.182   6.439   2.267  1.2619  0.0426  0.9212
26736SOL     OW83799   0.520   2.406   5.161  0.2153 -0.0710 -0.1184
26736SOL    HW183800   0.511   2.311   5.161 -0.0715 -0.0454 -0.0563
26736SOL    HW283801   0.431   2.439   5.147  0.4991  0.1647 -1.5592
26737SOL     OW83802   5.395   5.025  10.352 -0.5219 -0.0946 -0.0302
26737SOL    HW183803   5.391   4.941  10.307 -0.7713  0.5928 -1.3496
26737SOL    HW283804   5.447   5.008  10.431  1.9895 -0.8494 -1.7397
26738SOL     OW83805   0.183  10.979   2.260  0.2863 -0.1906 -0.4742
26738SOL    HW183806   0.251  11.044   2.243  0.5625 -0.7947 -1.8678
26738SOL    HW283807   0.230  10.902   2.292  0.3248 -0.7214 -1.7513
26739SOL     OW83808   4.529   7.635   4.814 -0.0961  0.2504  0.4055
26739SOL    HW183809   4.535   7.728   4.835  2.1144  0.2073  0.2701
26739SOL    HW283810   4.542   7.590   4.898  0.2927  0.0837  0.2612
26740SOL     OW83811   0.759   9.523   2.515 -0.3310  0.3971  0.5544
26740SOL    HW183812   0.817   9.583   2.561 -0.1341 -0.3104  1.2638
26740SOL    HW283813   0.814   9.448   2.493 -0.8403 -0.0452  0.7453
26741SOL     OW83814   6.456   5.644   2.110 -0.6099  0.3512  0.3682
26741SOL    HW183815   6.386   5.606   2.164  0.2900 -0.7334  0.8147
26741SOL    HW283816   6.417   5.653   2.023 -1.3107 -0.2537  0.6098
26742SOL     OW83817   4.654   9.366   0.281 -0.1521 -0.7233 -0.0634
26742SOL    HW183818   4.746   9.347   0.303 -0.1949 -0.1175  0.7026
26742SOL    HW283819   4.606   9.345   0.361 -0.6124 -0.5129 -0.2823
26743SOL     OW83820   7.443   9.113  11.059  0.3141 -0.2066  0.1344
26743SOL    HW183821   7.513   9.158  11.012  0.2094 -0.0819  0.0977
26743SOL    HW283822   7.373   9.103  10.995 -0.5425  1.5732  0.7308
26744SOL     OW83823   7.584   5.436  10.086 -0.2752 -0.2746  0.1237
26744SOL    HW183824   7.495   5.444  10.120 -0.7298  0.7201 -1.2050
26744SOL    HW283825   7.639   5.430  10.164 -1.6282 -3.0627  0.9633
26745SOL     OW83826   5.372   0.192   6.686 -0.4099 -0.2399  0.4331
26745SOL    HW183827   5.354   0.098   6.683 -2.0733  0.0728 -1.1271
26745SOL    HW283828   5.299   0.229   6.737 -0.5667  0.3420 -0.1953
26746SOL     OW83829   2.636   5.931   9.061  0.0419 -0.3924 -0.4659
26746SOL    HW183830   2.547   5.929   9.097 -0.2489 -0.4426 -1.1855
26746SOL    HW283831   2.656   5.841   9.038  1.2919 -0.8621  2.0899
26747SOL     OW83832   9.610   1.036   3.197  0.3812  0.6783  0.3050
26747SOL    HW183833   9.679   0.970   3.197  0.2812  0.5597  1.3936
26747SOL    HW283834   9.549   1.008   3.128  0.0099 -0.7207  1.1696
26748SOL     OW83835  10.097  10.034   6.290 -0.1979 -0.1672 -0.0413
26748SOL    HW183836  10.131   9.991   6.369 -0.0651 -0.5314 -0.2973
26748SOL    HW283837  10.022   9.982   6.265  1.1902 -1.5372 -1.5686
26749SOL     OW83838   0.370  10.798   0.493  0.6270 -0.1789  0.7418
26749SOL    HW183839   0.394  10.767   0.405 -0.5567 -1.5310  0.8584
26749SOL    HW283840   0.421  10.878   0.505 -0.2074  0.8381 -1.7529
26750SOL     OW83841  10.826   3.712   7.632 -0.8039  0.0551  0.0344
26750SOL    HW183842  10.915   3.721   7.666 -0.6451  0.2386 -0.4200
26750SOL    HW283843  10.770   3.739   7.704 -0.5168 -0.6396  0.5335
26751SOL     OW83844   9.700  11.099   7.113  0.0717 -0.2755 -0.5488
26751SOL    HW183845   9.732  11.054   7.191 -0.5890  1.1597  0.6218
26751SOL    HW283846   9.608  11.072   7.106 -0.2218  0.5226 -0.0579
26752SOL     OW83847   5.103   0.514   8.721 -0.0914 -0.3715  0.6727
26752SOL    HW183848   5.054   0.589   8.685  1.4412  0.1734 -0.3639
26752SOL    HW283849   5.186   0.551   8.749  1.3212 -1.8912 -1.2594
26753SOL     OW83850   3.932   0.987  10.850  0.0990 -0.0429  0.2137
26753SOL    HW183851   3.903   1.020  10.765 -1.2818  0.4047  0.8335
26753SOL    HW283852   3.866   0.922  10.875  1.5994 -1.7367  0.0314
26754SOL     OW83853   4.337  10.472  10.033  0.1987  0.6339 -0.4096
26754SOL    HW183854   4.268  10.502  10.092 -0.2822  0.4691 -0.8903
26754SOL    HW283855   4.319  10.516   9.950  0.8180  0.7878 -0.4703
26755SOL     OW83856   8.139   7.289   6.745  0.0755  0.4253 -0.2790
26755SOL    HW183857   8.184   7.206   6.732  0.9063  0.8523 -0.2046
26755SOL    HW283858   8.138   7.301   6.840  0.0456  0.5462 -0.2941
26756SOL     OW83859   0.980   5.786   1.759 -0.0048  0.3298  0.0995
26756SOL    HW183860   0.922   5.819   1.828 -2.7145  0.5881 -2.1468
26756SOL    HW283861   0.936   5.809   1.677  1.1733 -3.1840 -1.7113
26757SOL     OW83862   7.891  10.971  11.101 -0.8795  0.2075 -0.1999
26757SOL    HW183863   7.873  10.963  11.195  2.4959  1.1085  0.6520
26757SOL    HW283864   7.919  10.883  11.076  0.6136  0.5279  0.2742
26758SOL     OW83865   9.315   9.265   3.772 -0.3722  0.1822 -0.0347
26758SOL    HW183866   9.305   9.300   3.684 -1.9468 -1.1401 -0.4334
26758SOL    HW283867   9.353   9.178   3.759  1.6804  0.8920  0.7958
26759SOL     OW83868   2.886  10.713   4.518  0.1202 -0.3174  0.2821
26759SOL    HW183869   2.934  10.692   4.598  0.7294  0.7680  0.2276
26759SOL    HW283870   2.935  10.785   4.479 -0.2877 -0.6969 -0.9710
26760SOL     OW83871   5.410   5.331  10.391 -0.2970 -0.1176  0.2810
26760SOL    HW183872   5.448   5.245  10.376  0.6507  0.6892 -2.4718
26760SOL    HW283873   5.458   5.365  10.467 -0.0286 -1.6265  0.8074
26761SOL     OW83874   6.145   6.442   9.667  0.3258  0.3156 -0.1766
26761SOL    HW183875   6.068   6.466   9.616 -0.3310  0.2284  0.7428
26761SOL    HW283876   6.186   6.525   9.691  1.7914  0.3432 -2.4792
26762SOL     OW83877   3.930   0.831   0.640  0.0751  0.1454 -0.8603
26762SOL    HW183878   3.888   0.801   0.559  0.3528 -0.5345 -0.7599
26762SOL    HW283879   3.967   0.751   0.679  1.5149  0.7124 -0.9811
26763SOL     OW83880   0.727  10.463  10.824  0.0181 -0.0813 -0.3132
26763SOL    HW183881   0.772  10.536  10.865 -1.9979 -0.1296  2.2634
26763SOL    HW283882   0.732  10.392  10.888 -3.4778 -0.1182  0.1020
26764SOL     OW83883   9.849  10.441   8.407 -0.1115 -0.6438 -0.2020
26764SOL    HW183884   9.899  10.486   8.475 -2.0592  0.3919  0.6330
26764SOL    HW283885   9.900  10.453   8.327  0.4376  1.3350  0.4017
26765SOL     OW83886   8.703   5.923   8.196 -0.3751 -0.1154 -0.0489
26765SOL    HW183887   8.746   5.838   8.188  1.7258  0.8553  0.2071
26765SOL    HW283888   8.690   5.935   8.290  1.1699  0.6552  0.0969
26766SOL     OW83889   4.856   5.687   1.905 -0.6335 -0.5975 -0.8243
26766SOL    HW183890   4.861   5.591   1.905  0.7703 -0.5808  0.8753
26766SOL    HW283891   4.897   5.713   1.988  0.3709  1.5318 -1.9013
26767SOL     OW83892   7.245   6.648   8.741 -0.4430  0.3221  0.5371
26767SOL    HW183893   7.233   6.567   8.692  1.1682 -0.2523  1.0202
26767SOL    HW283894   7.250   6.716   8.674  0.7779 -0.3337 -0.0733
26768SOL     OW83895   1.682   5.860   4.872 -0.2514 -0.3772 -0.7271
26768SOL    HW183896   1.629   5.940   4.875 -1.1125 -0.9114 -1.2759
26768SOL    HW283897   1.638   5.801   4.933  0.0296 -0.6423 -0.7802
26769SOL     OW83898   4.803   3.416   0.016  0.2853 -0.4786  0.2266
26769SOL    HW183899   4.713   3.401   0.046  0.0465 -0.6141 -0.5392
26769SOL    HW283900   4.794   3.438  -0.076  1.0362 -0.4126  0.1657
26770SOL     OW83901   2.072   3.226   4.948 -0.0645 -0.9083  0.3847
26770SOL    HW183902   2.113   3.182   4.873 -0.9282  1.0844 -1.3517
26770SOL    HW283903   1.982   3.195   4.948 -1.0433  1.6004 -1.6372
26771SOL     OW83904   5.749   9.590   6.992  0.4717 -0.1460  0.3033
26771SOL    HW183905   5.771   9.547   6.909  1.2767 -0.2185  0.5399
26771SOL    HW283906   5.715   9.676   6.967 -1.1107 -0.8665 -0.1789
26772SOL     OW83907   7.157   4.955   3.077 -0.1000 -0.1042 -0.2392
26772SOL    HW183908   7.126   5.045   3.072 -2.3657 -0.9118 -2.5533
26772SOL    HW283909   7.215   4.945   3.001 -0.4646 -0.7919 -0.4328
26773SOL     OW83910   0.856   2.366   9.558  0.1328 -0.1238  0.3905
26773SOL    HW183911   0.797   2.367   9.634 -1.8607  0.2336 -1.0871
26773SOL    HW283912   0.842   2.280   9.518  1.2818 -0.3684  0.4627
26774SOL     OW83913  10.568   1.247   2.290 -0.0907 -0.4828 -0.3610
26774SOL    HW183914  10.522   1.208   2.364  3.0490 -0.8969  1.5517
26774SOL    HW283915  10.613   1.323   2.327  1.9283 -0.9592 -1.7000
26775SOL     OW83916   3.139  10.671   2.427 -0.0198 -0.4968 -0.1256
26775SOL    HW183917   3.162  10.612   2.355 -1.4397 -1.3539  0.0962
26775SOL    HW283918   3.082  10.736   2.388  2.0391  1.1987 -0.5121
26776SOL     OW83919   1.611   0.519   8.329  0.1688  0.1093  0.6085
26776SOL    HW183920   1.585   0.579   8.399  1.4566  1.4640 -0.0308
26776SOL    HW283921   1.694   0.481   8.360  1.6269  1.9333 -0.7769
26777SOL     OW83922   7.559   6.142   9.857 -0.0063 -0.0521 -0.0551
26777SOL    HW183923   7.588   6.052   9.868  1.1131  0.3435  0.4339
26777SOL    HW283924   7.618   6.179   9.791 -0.1607  0.4430  0.0772
26778SOL     OW83925   9.568  10.149   0.773  0.3207 -0.2391 -0.4261
26778SOL    HW183926   9.563  10.067   0.724 -2.8058  0.9479 -2.3241
26778SOL    HW283927   9.485  10.154   0.821  1.1824  1.0665  1.0397
26779SOL     OW83928   0.843   4.048   5.199 -0.4690  0.0482  0.1148
26779SOL    HW183929   0.767   4.039   5.256  0.1436  0.3116  0.9943
26779SOL    HW283930   0.849   4.143   5.183 -0.3687  0.0214 -0.0034
26780SOL     OW83931   3.269   1.748   7.379 -0.3577  0.3834  0.0345
26780SOL    HW183932   3.180   1.766   7.350 -0.0265  1.5171 -0.3110
26780SOL    HW283933   3.301   1.682   7.317 -0.0284  1.9888 -1.5773
26781SOL     OW83934   4.859   0.084   7.649 -0.2409  0.3819 -0.0865
26781SOL    HW183935   4.777   0.055   7.609 -1.1582  1.7557  0.7242
26781SOL    HW283936   4.861   0.038   7.733  0.3828 -0.4878 -0.5636
26782SOL     OW83937   6.611  11.033   5.339 -0.1073 -0.3454 -0.2407
26782SOL    HW183938   6.688  11.046   5.283 -0.0855  2.2837  0.2641
26782SOL    HW283939   6.647  10.997   5.420  0.6999  1.2108  0.1318
26783SOL     OW83940  10.598  10.742   7.978  0.5753  0.3709  0.2181
26783SOL    HW183941  10.503  10.751   7.979  0.4239 -1.0213  1.7264
26783SOL    HW283942  10.630  10.828   8.007 -0.1707  1.0672 -0.9566
26784SOL     OW83943   7.164   1.165   3.032 -0.4679 -0.2576  0.1803
26784SOL    HW183944   7.206   1.152   2.947  0.1664  1.6173  0.1573
26784SOL    HW283945   7.148   1.259   3.036 -1.3672 -0.4459  1.7454
26785SOL     OW83946   8.720   3.812  11.075  0.2566 -0.0563 -0.3463
26785SOL    HW183947   8.802   3.789  11.119  0.4773 -0.1303 -0.7893
26785SOL    HW283948   8.678   3.874  11.134  0.8964  0.4104 -0.3749
26786SOL     OW83949  11.070   1.273  11.043  0.8226 -0.1500 -0.0378
26786SOL    HW183950  11.069   1.178  11.033  0.4380 -0.1059 -0.4475
26786SOL    HW283951  10.978   1.299  11.035  1.0977  0.4315 -1.8273
26787SOL     OW83952   1.746   5.734   7.922  0.4584 -0.2924  0.2600
26787SOL    HW183953   1.730   5.827   7.903  1.3770  0.2576  1.8960
26787SOL    HW283954   1.659   5.695   7.927 -0.0173  0.7653  0.7218
26788SOL     OW83955   0.423   9.025   6.775 -0.1473 -0.2290  0.3251
26788SOL    HW183956   0.437   9.110   6.816 -0.9741  1.0939 -1.9369
26788SOL    HW283957   0.392   8.968   6.846 -0.2748  1.5466  1.7549
26789SOL     OW83958   1.306   1.144  10.714  0.0988  0.3434 -0.3569
26789SOL    HW183959   1.310   1.138  10.618  2.0723  0.8065 -0.3423
26789SOL    HW283960   1.380   1.092  10.745 -0.5730  0.1096  0.9412
26790SOL     OW83961  10.424   5.373  10.479  0.1074 -0.1517 -0.5766
26790SOL    HW183962  10.349   5.379  10.419  0.1855  0.0072 -0.6583
26790SOL    HW283963  10.465   5.289  10.458  0.7264  0.3522 -1.4482
26791SOL     OW83964   7.712  10.117   5.757  0.1664  0.6402  0.3501
26791SOL    HW183965   7.748  10.186   5.702  1.9349 -0.5046 -0.0323
26791SOL    HW283966   7.712  10.154   5.845  1.2580  1.0770  0.1815
26792SOL     OW83967   1.852   1.350   8.263 -0.2322  0.4025 -0.1321
26792SOL    HW183968   1.858   1.427   8.319 -0.1389 -0.3622  0.9353
26792SOL    HW283969   1.759   1.341   8.243 -0.1353  1.3523 -1.0896
26793SOL     OW83970   0.906  10.449   3.715 -0.4872 -1.1171 -0.4165
26793SOL    HW183971   0.953  10.369   3.689  1.7863 -0.1129  0.3129
26793SOL    HW283972   0.891  10.438   3.809 -0.7112 -0.9461 -0.4314
26794SOL     OW83973   2.332   5.668   7.514  0.5786 -0.3743  0.6705
26794SOL    HW183974   2.286   5.658   7.597 -0.8251  0.4287  0.0223
26794SOL    HW283975   2.266   5.648   7.447  1.8053 -1.4640 -0.2634
26795SOL     OW83976   9.178   4.504   6.634 -0.6292  0.4872  0.1900
26795SOL    HW183977   9.269   4.523   6.655 -0.1794 -1.4681  0.1988
26795SOL    HW283978   9.147   4.450   6.707 -0.8564 -1.3750 -1.2187
26796SOL     OW83979   8.577  10.210  10.384  0.5376 -0.1712  0.5317
26796SOL    HW183980   8.514  10.143  10.357  0.3077  0.2515  0.0015
26796SOL    HW283981   8.557  10.285  10.329  3.3913 -0.9454 -1.8521
26797SOL     OW83982   5.834  10.424  10.791  0.2458  0.0429 -0.0611
26797SOL    HW183983   5.911  10.397  10.840  0.0722  0.2269  0.3267
26797SOL    HW283984   5.764  10.366  10.822  0.6985 -1.6495 -2.0740
26798SOL     OW83985   6.355   7.262   2.125 -0.1385 -0.4817 -0.6955
26798SOL    HW183986   6.287   7.325   2.148  0.4410 -0.1747  0.2311
26798SOL    HW283987   6.322   7.178   2.159 -0.5396 -0.5381 -1.2107
26799SOL     OW83988   8.173   2.641   2.967  0.0437 -0.1235 -0.4137
26799SOL    HW183989   8.250   2.643   2.911  0.9596  0.4569  0.8348
26799SOL    HW283990   8.169   2.728   3.007 -0.0501 -0.7856  1.0995
26800SOL     OW83991   1.053   4.811   1.963 -0.2500  0.1447  0.2590
26800SOL    HW183992   1.040   4.729   1.916 -0.8552 -0.0405  0.7293
26800SOL    HW283993   1.003   4.800   2.044 -2.0315  1.7046 -0.5383
26801SOL     OW83994   7.984   1.917   9.520 -0.5799 -0.2951  0.5362
26801SOL    HW183995   8.072   1.913   9.484 -0.6092 -0.2001  0.4558
26801SOL    HW283996   7.952   2.004   9.498 -2.2603 -1.6393 -3.1023
26802SOL     OW83997   4.305   8.989   5.697 -0.2648 -0.7205 -0.1027
26802SOL    HW183998   4.321   9.072   5.741 -1.8526 -0.9023  0.9156
26802SOL    HW283999   4.227   9.005   5.643  1.1160 -0.7560 -2.2124
26803SOL     OW84000   9.148   5.710   6.809  0.0961 -0.1319  0.9187
26803SOL    HW184001   9.065   5.687   6.850 -0.0196 -0.0057  0.7581
26803SOL    HW284002   9.187   5.625   6.786  1.5439 -0.4011  3.8885
26804SOL     OW84003   5.666   7.617   2.958 -0.1296  0.2913  0.0311
26804SOL    HW184004   5.597   7.555   2.935 -0.1774 -0.2423  1.5250
26804SOL    HW284005   5.702   7.585   3.041  1.0313  1.2882 -0.0447
26805SOL     OW84006   7.053   6.055   1.419 -0.4652  0.3654  0.3551
26805SOL    HW184007   7.143   6.044   1.447 -1.1346 -1.8882  1.9540
26805SOL    HW284008   7.034   5.976   1.367 -1.9043  0.0573  1.2816
26806SOL     OW84009   2.508   5.182   4.381 -0.0400 -0.1825  0.3511
26806SOL    HW184010   2.549   5.173   4.295 -0.3991 -1.3009  0.2778
26806SOL    HW284011   2.414   5.177   4.364 -0.0979 -2.0255  0.9309
26807SOL     OW84012   6.706   6.975   2.676 -0.2053  0.2190  0.4703
26807SOL    HW184013   6.768   6.990   2.604 -1.1846  1.4928 -0.1572
26807SOL    HW284014   6.723   6.885   2.703  1.3708  0.2699 -0.1959
26808SOL     OW84015   9.289   1.314   0.975 -0.2303  0.3494  0.1361
26808SOL    HW184016   9.365   1.360   1.011  0.5964 -0.9167  0.0375
26808SOL    HW284017   9.219   1.380   0.977  1.0106  1.7435 -0.3828
26809SOL     OW84018   0.697  11.019  10.995  0.0873  0.0298  0.2583
26809SOL    HW184019   0.672  10.927  11.005 -0.8237  0.4024  1.6418
26809SOL    HW284020   0.625  11.058  10.945  0.1933  0.1058  0.1650
26810SOL     OW84021   6.479   9.336   4.959 -0.2122 -0.4806  0.6363
26810SOL    HW184022   6.561   9.374   4.928 -1.3313 -0.4248 -2.6185
26810SOL    HW284023   6.496   9.242   4.964  0.1830 -0.4169  0.5243
26811SOL     OW84024   0.555   2.738  10.051 -0.1652  0.2557  0.8666
26811SOL    HW184025   0.613   2.693   9.990 -0.6354  0.9658 -0.1252
26811SOL    HW284026   0.591   2.716  10.137  0.7430 -0.4500  0.3373
26812SOL     OW84027   5.513   5.749   5.127 -0.4577  0.5083 -0.3411
26812SOL    HW184028   5.561   5.705   5.196 -1.8170  1.2756  1.1636
26812SOL    HW284029   5.430   5.702   5.121 -1.6876  2.3926  0.8724
26813SOL     OW84030   4.174   8.859   8.773 -0.2698  0.0287  0.0294
26813SOL    HW184031   4.185   8.886   8.864  0.7836  1.2275 -0.4311
26813SOL    HW284032   4.247   8.800   8.756  0.2005  0.7111 -0.3597
26814SOL     OW84033   3.775   2.547   6.349  0.0818 -0.0295  0.0063
26814SOL    HW184034   3.838   2.578   6.284  0.0103 -0.8990 -0.4947
26814SOL    HW284035   3.779   2.451   6.342  0.8036 -0.2012  1.9721
26815SOL     OW84036   9.857   3.459   9.754  0.3005  0.5486 -0.0697
26815SOL    HW184037   9.795   3.480   9.684  0.5541 -0.5625 -0.6383
26815SOL    HW284038   9.936   3.429   9.710  0.4296 -0.2718  0.6724
26816SOL     OW84039   8.552   5.665   8.027 -0.4879  0.1282 -0.4030
26816SOL    HW184040   8.480   5.642   8.087 -1.0500 -1.4031 -1.5834
26816SOL    HW284041   8.629   5.673   8.084 -1.4495  1.3170  0.8319
26817SOL     OW84042   8.068   7.676   7.877 -0.8035 -0.1830 -0.2149
26817SOL    HW184043   8.117   7.733   7.937  0.2948 -0.3298 -0.9534
26817SOL    HW284044   8.079   7.716   7.791  1.5412 -2.4280 -1.0833
26818SOL     OW84045  10.573   2.575   7.958 -0.0050  0.0431  0.6361
26818SOL    HW184046  10.558   2.544   7.869 -2.1811  1.6643  0.3370
26818SOL    HW284047  10.644   2.637   7.951 -0.3346  0.3502 -0.0358
26819SOL     OW84048   5.070   2.610   1.972  0.4538  0.4814  0.2587
26819SOL    HW184049   5.087   2.524   2.010 -2.6745 -0.3219  0.0733
26819SOL    HW284050   4.977   2.625   1.987  0.7251  3.5128 -0.4363
26820SOL     OW84051   0.483  10.200   7.688  0.0171  0.4869 -0.0003
26820SOL    HW184052   0.476  10.294   7.699  1.3977  0.7179 -0.8533
26820SOL    HW284053   0.426  10.179   7.615  2.4748  1.2742 -2.3020
26821SOL     OW84054   6.052   1.332   2.891  0.0877 -0.1426 -0.3599
26821SOL    HW184055   6.130   1.359   2.939  1.2698 -2.8919 -0.5359
26821SOL    HW284056   5.982   1.333   2.956  0.5850  0.8832  0.1802
26822SOL     OW84057   8.034   0.955   2.657  0.8236  0.5962 -0.4057
26822SOL    HW184058   8.052   1.038   2.612  1.3189 -0.5276 -2.3944
26822SOL    HW284059   8.119   0.910   2.659  0.2034 -0.6375 -1.0256
26823SOL     OW84060   9.412   7.862   7.260  0.3703 -0.0857 -0.2451
26823SOL    HW184061   9.488   7.831   7.309 -0.2846  2.4471  2.6870
26823SOL    HW284062   9.447   7.924   7.196  0.8470  1.1814  1.1921
26824SOL     OW84063   6.625  10.837  10.755 -1.0924 -0.1456 -0.3344
26824SOL    HW184064   6.627  10.788  10.837  0.6186 -0.6558 -0.6319
26824SOL    HW284065   6.538  10.819  10.718 -1.5484 -0.6345  0.9270
26825SOL     OW84066   1.438   0.480   5.224  0.2569 -0.3532 -0.1810
26825SOL    HW184067   1.348   0.508   5.206  0.9587  1.4164 -1.2203
26825SOL    HW284068   1.439   0.459   5.317 -0.9601  0.8365  0.1327
26826SOL     OW84069   2.685   0.542   8.154 -0.3703 -0.0065 -0.4421
26826SOL    HW184070   2.729   0.460   8.131 -0.8955 -0.8494  1.3824
26826SOL    HW284071   2.733   0.574   8.230 -0.9980  0.6788 -0.3234
26827SOL     OW84072   8.681   3.961  10.168 -0.3333 -0.1471 -0.4874
26827SOL    HW184073   8.606   3.902  10.180  1.2966 -2.0606  1.3289
26827SOL    HW284074   8.685   4.011  10.249  0.5110 -0.3209 -0.4071
26828SOL     OW84075   7.768   3.278   1.550  0.6681 -0.0032 -0.4389
26828SOL    HW184076   7.836   3.214   1.531  0.7053  0.0549 -0.5000
26828SOL    HW284077   7.807   3.335   1.617 -0.3136 -1.6626  1.6473
26829SOL     OW84078   4.325   3.959   5.807 -0.0130 -0.0966 -0.7197
26829SOL    HW184079   4.383   3.893   5.770  0.1670 -0.4766  0.2161
26829SOL    HW284080   4.379   4.007   5.869 -0.7202 -0.5620  0.2835
26830SOL     OW84081   8.970   8.356   8.866 -0.6673  0.4879 -0.0719
26830SOL    HW184082   8.969   8.426   8.931 -0.3862 -0.6078  1.1484
26830SOL    HW284083   8.957   8.275   8.917  0.7451 -0.5040 -1.2082
26831SOL     OW84084   4.967   1.295   0.244  0.3733  0.2637  0.1140
26831SOL    HW184085   4.934   1.317   0.331 -1.4599  0.4108 -0.5700
26831SOL    HW284086   4.922   1.357   0.186  1.4374  0.0600 -0.9634
26832SOL     OW84087   1.505   3.368   9.919 -0.3583 -0.1258 -0.0967
26832SOL    HW184088   1.559   3.360   9.998 -0.8485  0.8907  0.3677
26832SOL    HW284089   1.467   3.281   9.908  1.0504 -0.7534 -0.2169
26833SOL     OW84090   0.710   5.893   0.151  0.2175  0.1898 -0.3051
26833SOL    HW184091   0.763   5.953   0.203 -0.5737  0.4628  0.2069
26833SOL    HW284092   0.678   5.946   0.078  0.2828  0.1464 -0.3649
26834SOL     OW84093  10.775   7.364   6.120 -0.3887  1.0326 -0.1165
26834SOL    HW184094  10.814   7.398   6.040 -2.3672  0.0371 -1.6014
26834SOL    HW284095  10.694   7.322   6.091 -1.6067  1.3590  2.5192
26835SOL     OW84096   7.488   5.051   8.862 -0.0705 -0.1705 -0.2703
26835SOL    HW184097   7.575   5.042   8.823  0.5574  0.9489  0.8154
26835SOL    HW284098   7.501   5.111   8.936 -1.5314 -0.9425  0.6557
26836SOL     OW84099   1.532   6.165   4.559 -0.1033  0.1442 -0.0391
26836SOL    HW184100   1.522   6.123   4.474 -0.1200  0.0126  0.0275
26836SOL    HW284101   1.536   6.259   4.539 -2.5154  0.3274  0.0035
26837SOL     OW84102   7.205   4.852   8.553  0.5593 -0.1021  0.6524
26837SOL    HW184103   7.282   4.900   8.583 -0.0675  0.7164  0.9567
26837SOL    HW284104   7.134   4.915   8.554  0.0775 -0.5814 -0.6000
26838SOL     OW84105   6.167   0.089   7.785  0.5806  0.0870  0.2450
26838SOL    HW184106   6.126   0.145   7.851  0.0646 -0.1667  0.1432
26838SOL    HW284107   6.095   0.064   7.726  0.3852 -2.1927  1.3360
26839SOL     OW84108   8.312   5.043   6.959 -0.0197 -0.3582  0.5280
26839SOL    HW184109   8.388   4.993   6.988  0.5112 -0.4356 -0.8818
26839SOL    HW284110   8.334   5.069   6.869 -1.8010 -0.7173 -0.0633
26840SOL     OW84111   2.003  10.096   7.772  0.0948  0.1833 -0.3750
26840SOL    HW184112   1.979  10.052   7.691 -0.7799  0.6381 -0.3754
26840SOL    HW284113   1.919  10.118   7.814  0.5077 -1.2978  1.3556
26841SOL     OW84114   3.876   2.469   3.900  0.1148  0.4610 -0.4778
26841SOL    HW184115   3.913   2.556   3.914 -1.1414  0.9491 -0.0349
26841SOL    HW284116   3.882   2.456   3.805 -0.2169  1.2824 -0.6174
26842SOL     OW84117   2.102   3.058   0.695  0.4883  0.2509  0.2470
26842SOL    HW184118   2.130   3.086   0.608  0.1957  0.9965  0.3824
26842SOL    HW284119   2.023   3.006   0.679  1.3766 -1.0635 -0.0571
26843SOL     OW84120   5.137   7.496   8.437 -0.0917 -0.4707  0.6049
26843SOL    HW184121   5.166   7.567   8.494  1.4382 -1.3145  0.9176
26843SOL    HW284122   5.207   7.431   8.441 -0.5318 -1.1278 -1.2349
26844SOL     OW84123   2.111   3.054   1.612 -0.0297  0.0778  0.4554
26844SOL    HW184124   2.190   3.089   1.655 -0.3546  1.0807  0.2558
26844SOL    HW284125   2.113   2.960   1.632  3.1864 -0.6799 -2.5683
26845SOL     OW84126   7.725   4.228   8.093 -0.3406 -0.1136  0.3144
26845SOL    HW184127   7.687   4.146   8.125 -1.3043 -0.4294 -1.5064
26845SOL    HW284128   7.779   4.259   8.166 -0.5252 -1.9780  1.3217
26846SOL     OW84129  10.956   5.293   9.735 -0.1191 -0.4111  0.7330
26846SOL    HW184130  10.926   5.344   9.660  0.2290  0.6979  1.3164
26846SOL    HW284131  11.051   5.288   9.724  0.0372  0.4745  1.4951
26847SOL     OW84132   9.307   7.754   3.569 -0.2428  0.2655  0.0829
26847SOL    HW184133   9.245   7.802   3.514 -1.3766  0.8627  1.7887
26847SOL    HW284134   9.268   7.756   3.657  1.2336 -1.0869  0.8267
26848SOL     OW84135   9.836   2.448   6.800 -0.5929  0.1059 -0.4634
26848SOL    HW184136   9.910   2.389   6.813  0.1329  1.0403 -0.1861
26848SOL    HW284137   9.815   2.480   6.887 -1.9133 -0.8062 -0.4230
26849SOL     OW84138   9.825   0.947   5.760 -0.0231 -0.3552  0.3921
26849SOL    HW184139   9.793   1.037   5.772  3.2249  0.9821 -0.0840
26849SOL    HW284140   9.805   0.904   5.843 -1.2476  0.9032  0.7934
26850SOL     OW84141   6.715   5.278   9.632  0.0558  0.3659  0.5780
26850SOL    HW184142   6.669   5.197   9.607  0.2431  0.8783 -1.6906
26850SOL    HW284143   6.804   5.250   9.653  0.4571  0.0485 -1.3536
26851SOL     OW84144   0.687   2.299   0.049  0.8431 -0.4942 -0.6663
26851SOL    HW184145   0.615   2.361   0.045  0.7992 -0.5165 -0.2784
26851SOL    HW284146   0.756   2.345   0.097  0.2883 -1.2339  0.9325
26852SOL     OW84147   5.994   1.835   3.680  0.1066  0.3160  0.2708
26852SOL    HW184148   6.025   1.790   3.602 -0.1804  0.3079  0.1598
26852SOL    HW284149   5.905   1.862   3.658 -0.6125 -1.1536  1.1783
26853SOL     OW84150   9.436  10.455   0.238  0.2880 -0.2850 -0.0540
26853SOL    HW184151   9.389  10.478   0.318 -2.6437  2.9165 -2.4094
26853SOL    HW284152   9.398  10.372   0.211 -1.8375  0.6833 -0.2143
26854SOL     OW84153   7.353   1.211   6.102  0.4561 -0.3861  0.7223
26854SOL    HW184154   7.299   1.282   6.068 -0.7884 -0.6439  2.0641
26854SOL    HW284155   7.409   1.186   6.029 -0.5695  0.5494 -0.4152
26855SOL     OW84156   4.974   8.911   9.078  0.3945 -0.3528  0.0662
26855SOL    HW184157   5.014   8.972   9.016 -0.8756  0.5453  0.0838
26855SOL    HW284158   4.965   8.829   9.029  0.1886  0.0976 -0.6732
26856SOL     OW84159  10.111   0.761  10.302  0.2190 -0.1551 -0.0187
26856SOL    HW184160  10.163   0.784  10.380  1.1726 -0.1888 -0.6284
26856SOL    HW284161  10.112   0.666  10.300  1.4693 -0.1504 -0.8779
26857SOL     OW84162  10.927   8.985   8.483  0.7040  0.1326  0.1854
26857SOL    HW184163  10.897   8.945   8.402  0.3563  1.4844 -0.3924
26857SOL    HW284164  10.866   8.955   8.550  1.9110 -2.2644  0.3114
26858SOL     OW84165  10.745   9.568   4.624  0.1243  0.0764 -0.6165
26858SOL    HW184166  10.682   9.610   4.683  1.0135  1.3379 -0.5260
26858SOL    HW284167  10.801   9.640   4.594  1.2709 -0.9496 -1.0170
26859SOL     OW84168   0.463   3.711   7.222  0.4756  0.0876 -0.0686
26859SOL    HW184169   0.463   3.806   7.222  1.6183  0.1377 -1.7910
26859SOL    HW284170   0.392   3.686   7.281 -0.3174  2.0054 -0.1634
26860SOL     OW84171   9.352   6.478   3.634 -0.1501 -0.0937 -0.0793
26860SOL    HW184172   9.396   6.560   3.659 -1.0358  0.6150 -0.7433
26860SOL    HW284173   9.284   6.506   3.572 -0.8486 -1.2717  0.1238
26861SOL     OW84174   2.863   4.455   5.685 -0.2413  0.2502 -0.3474
26861SOL    HW184175   2.892   4.508   5.760 -1.1391 -0.0418  0.2250
26861SOL    HW284176   2.916   4.485   5.612  0.5705  0.6346  0.3833
26862SOL     OW84177   9.155   3.493   6.080 -0.3804 -0.1912 -0.5625
26862SOL    HW184178   9.092   3.508   6.151 -1.1491  0.1306 -1.2838
26862SOL    HW284179   9.211   3.571   6.081 -0.0915 -0.4048 -0.0129
26863SOL     OW84180  10.833   9.810   8.915  0.5690  0.0059 -0.2756
26863SOL    HW184181  10.792   9.872   8.856  2.9570  3.4548  1.3519
26863SOL    HW284182  10.903   9.769   8.863 -0.5352 -0.8386 -1.1405
26864SOL     OW84183  10.899   7.856   3.692  0.4893  0.4224 -0.4850
26864SOL    HW184184  10.915   7.904   3.773  0.4250 -0.6034  0.1580
26864SOL    HW284185  10.931   7.767   3.710 -0.3645 -0.0640 -1.2647
26865SOL     OW84186  10.045  10.235   0.263  0.1374  0.0303  0.0768
26865SOL    HW184187  10.136  10.245   0.290 -0.4441  0.3587  2.1563
26865SOL    HW284188   9.999  10.306   0.307 -1.1506 -0.1832 -0.8494
26866SOL     OW84189   1.176  10.182   2.515 -0.3078 -0.1422  0.0987
26866SOL    HW184190   1.246  10.165   2.578 -1.1719 -0.8097  0.8849
26866SOL    HW284191   1.097  10.189   2.568 -0.8349  0.7507 -0.7706
26867SOL     OW84192   4.805   9.783   2.856 -0.3614 -0.4951  0.0627
26867SOL    HW184193   4.886   9.823   2.825 -0.1336 -0.8758  0.1627
26867SOL    HW284194   4.766   9.850   2.912 -1.3287  0.6239 -1.8810
26868SOL     OW84195   7.512   8.622   3.620  0.0079 -0.4321  0.4932
26868SOL    HW184196   7.598   8.582   3.615  0.9931  1.6172 -0.3584
26868SOL    HW284197   7.527   8.714   3.596 -2.4803 -0.1199 -0.1739
26869SOL     OW84198  10.695   4.363   5.633  0.1367  0.3398 -0.8539
26869SOL    HW184199  10.733   4.340   5.718 -1.4116 -0.9649 -0.4779
26869SOL    HW284200  10.604   4.383   5.652  0.2198  1.9775 -1.9551
26870SOL     OW84201   2.552   7.403   7.377  0.0137 -0.1178 -0.1546
26870SOL    HW184202   2.572   7.461   7.303  0.4557 -0.2044 -0.1019
26870SOL    HW284203   2.579   7.452   7.454 -1.9541  0.6708  0.1043
26871SOL     OW84204  10.175   9.448  10.430  0.1728  0.1794  0.3867
26871SOL    HW184205  10.115   9.383  10.465 -1.0767  0.1369 -1.6826
26871SOL    HW284206  10.120   9.524  10.410  1.0764  0.7144 -0.1551
26872SOL     OW84207   3.030   9.543   0.716  0.2273  0.5611 -0.4261
26872SOL    HW184208   3.082   9.591   0.780 -0.3207 -0.9311  1.2163
26872SOL    HW284209   2.953   9.598   0.701  0.8458  1.3917 -0.5829
26873SOL     OW84210   6.737   5.568   6.788  0.2735 -0.2639  0.2158
26873SOL    HW184211   6.828   5.558   6.762 -0.1955 -1.4399 -1.1297
26873SOL    HW284212   6.725   5.502   6.858  0.0764 -1.2567 -0.7245
26874SOL     OW84213   8.157   0.866  10.880 -0.1331  0.1261 -0.4669
26874SOL    HW184214   8.213   0.931  10.921  0.0134 -0.1876 -0.1616
26874SOL    HW284215   8.073   0.875  10.925  0.0958 -0.3804  0.0840
26875SOL     OW84216   1.166   3.989   0.547 -0.3924 -0.4018 -0.2017
26875SOL    HW184217   1.138   4.071   0.506 -1.1412 -0.8629 -0.6290
26875SOL    HW284218   1.094   3.928   0.532  0.2744 -1.2314 -0.1446
26876SOL     OW84219   6.081   9.662   0.041 -0.0196  0.6418 -0.1654
26876SOL    HW184220   6.133   9.716  -0.019  0.0214  0.1540 -0.5835
26876SOL    HW284221   6.116   9.574   0.029 -1.7087  0.0737 -1.3707
26877SOL     OW84222   0.426   4.593   6.978  0.3140  0.8159  0.2294
26877SOL    HW184223   0.389   4.508   6.954 -1.8497  1.5434  0.7955
26877SOL    HW284224   0.356   4.656   6.962  1.6397  2.4378  0.4503
26878SOL     OW84225   3.425   5.535   3.760 -0.2534 -0.0911  0.1138
26878SOL    HW184226   3.484   5.565   3.691  1.4602  0.4209  1.7259
26878SOL    HW284227   3.478   5.536   3.840 -2.0774 -0.9206  1.4181
26879SOL     OW84228   2.324  10.824   5.948  0.0283 -0.5040  0.1322
26879SOL    HW184229   2.277  10.891   5.900  0.5537  0.9384  1.5313
26879SOL    HW284230   2.256  10.764   5.980 -0.3634 -1.2041 -1.8948
26880SOL     OW84231   4.836  10.020   8.819  0.2674 -0.7394  0.1752
26880SOL    HW184232   4.858  10.105   8.857 -0.9415 -0.0612 -0.5654
26880SOL    HW284233   4.919   9.972   8.817  1.4340  1.1973 -1.3228
26881SOL     OW84234   2.626   0.738   6.016  0.1230 -0.7476 -0.0049
26881SOL    HW184235   2.564   0.798   5.975  0.1857 -1.4875 -1.2199
26881SOL    HW284236   2.590   0.723   6.104  0.3347  1.3735  0.4826
26882SOL     OW84237   5.675   9.657   2.418  0.5574  0.0261 -0.3052
26882SOL    HW184238   5.712   9.713   2.486  1.6629 -0.4668 -0.4721
26882SOL    HW284239   5.735   9.667   2.344  0.6590 -1.2034 -0.4102
26883SOL     OW84240   1.268   6.547   9.010  0.0996  0.8854 -0.2595
26883SOL    HW184241   1.334   6.571   8.946  0.2889 -0.2668 -0.5228
26883SOL    HW284242   1.301   6.581   9.093 -0.1378  2.3587 -0.7472
26884SOL     OW84243   0.880   0.884   2.173  0.2123  0.2665  0.0681
26884SOL    HW184244   0.803   0.938   2.161 -0.5124 -0.3215  1.7968
26884SOL    HW284245   0.851   0.795   2.151  1.2071  0.4221 -2.0956
26885SOL     OW84246  10.684   0.309  11.025  0.0962  0.3749  0.2146
26885SOL    HW184247  10.751   0.374  11.002 -0.7849  0.9690 -0.7423
26885SOL    HW284248  10.655   0.335  11.113 -0.2337  1.2554 -0.1540
26886SOL     OW84249   8.909   9.802  10.114 -0.2589 -0.0158 -0.5023
26886SOL    HW184250   8.970   9.779  10.043 -0.0609 -0.3197 -0.2386
26886SOL    HW284251   8.846   9.730  10.115  0.0285 -0.2694 -0.0473
26887SOL     OW84252   0.810   6.897   8.986 -0.1248 -0.0508  0.7287
26887SOL    HW184253   0.866   6.920   9.060  1.9983  2.0142 -1.3278
26887SOL    HW284254   0.859   6.829   8.939  0.6631  1.5128 -0.8834
26888SOL     OW84255   9.048   1.967   6.710  0.0443  0.1940  0.3570
26888SOL    HW184256   9.018   1.975   6.800  0.9868  0.7801  0.6206
26888SOL    HW284257   9.108   1.892   6.711 -0.6531 -0.3843  0.0175
26889SOL     OW84258   2.567   4.194   1.632  0.0339 -0.0418 -0.3349
26889SOL    HW184259   2.475   4.220   1.631  0.1885  0.5119 -0.3840
26889SOL    HW284260   2.608   4.255   1.694  0.4796  0.1040 -0.7745
26890SOL     OW84261   7.803   3.182   1.206  0.0699  0.1757 -0.0532
26890SOL    HW184262   7.717   3.140   1.208 -1.0862  2.3896  2.3506
26890SOL    HW284263   7.856   3.130   1.267 -1.1327  1.5963  2.3360
26891SOL     OW84264   0.429  10.149   1.225  0.3829  0.4050  0.3976
26891SOL    HW184265   0.336  10.168   1.235  0.6698  1.9502  0.3426
26891SOL    HW284266   0.443  10.148   1.130  0.0581 -1.8775  0.3243
26892SOL     OW84267   4.756   6.816   8.079  0.2808  0.4540  0.2393
26892SOL    HW184268   4.754   6.721   8.073  2.2336  0.3964 -0.0971
26892SOL    HW284269   4.686   6.845   8.020 -0.1597 -0.7502  0.1485
26893SOL     OW84270   4.561   7.329   8.898 -0.5931  0.8102  0.5015
26893SOL    HW184271   4.575   7.270   8.972 -1.0371  1.0766  0.7990
26893SOL    HW284272   4.649   7.344   8.862 -0.2646  1.4129  1.5385
26894SOL     OW84273   7.268  10.619   8.587  0.2745  0.2365 -0.9424
26894SOL    HW184274   7.262  10.653   8.676  0.0629 -2.0235 -0.0201
26894SOL    HW284275   7.339  10.669   8.546 -0.3855  2.1077  0.0806
26895SOL     OW84276   4.558   3.130   4.660 -0.2813  0.1815 -0.1801
26895SOL    HW184277   4.609   3.208   4.639  0.5033 -0.4167 -0.5868
26895SOL    HW284278   4.611   3.058   4.627 -0.7882 -0.5571  0.5792
26896SOL     OW84279   5.610   5.581   5.346 -0.2824  0.2537 -0.0535
26896SOL    HW184280   5.693   5.578   5.394  0.0391  0.7210 -0.5612
26896SOL    HW284281   5.546   5.545   5.406  0.5429 -1.4991 -0.1797
26897SOL     OW84282   5.328  10.248   6.643 -0.4456 -0.2403 -0.3995
26897SOL    HW184283   5.306  10.178   6.705  0.2159  1.2975  1.6527
26897SOL    HW284284   5.410  10.219   6.603 -1.5256 -1.8562 -1.5946
26898SOL     OW84285   5.236   3.193   8.434 -0.5858  0.7709 -0.1371
26898SOL    HW184286   5.143   3.203   8.414 -0.9222  2.0832  1.7288
26898SOL    HW284287   5.247   3.100   8.455 -1.0626  0.2475 -2.0474
26899SOL     OW84288   2.592   3.563  10.474 -0.3939  0.2519  0.1241
26899SOL    HW184289   2.528   3.497  10.446  1.1958 -1.3412  0.0610
26899SOL    HW284290   2.556   3.597  10.556 -1.7865  0.0942 -0.4021
26900SOL     OW84291   3.017   5.853  10.283  0.0138 -0.3335 -0.0602
26900SOL    HW184292   3.017   5.948  10.291  1.2807 -0.4588  2.1423
26900SOL    HW284293   3.110   5.829  10.280 -0.2206 -1.6066  1.5027
26901SOL     OW84294   2.228   9.462   2.327  0.3343 -0.6239 -0.2677
26901SOL    HW184295   2.187   9.504   2.402 -0.8608 -1.6370 -0.3161
26901SOL    HW284296   2.155   9.421   2.279  1.1714 -0.7678 -1.4810
26902SOL     OW84297   1.806   0.680   3.396 -0.1234 -0.3726  0.3963
26902SOL    HW184298   1.822   0.619   3.468  1.2618  0.9828  1.2812
26902SOL    HW284299   1.739   0.636   3.343  0.3980 -2.4012  1.2973
26903SOL     OW84300   2.691   7.441   9.084 -0.4416 -0.4661  0.1164
26903SOL    HW184301   2.676   7.363   9.136 -2.0762  0.3937  1.0373
26903SOL    HW284302   2.649   7.422   9.000 -0.4497 -0.7512  0.1862
26904SOL     OW84303   5.714   8.002   2.353 -0.2138 -0.3787 -0.2217
26904SOL    HW184304   5.725   8.075   2.415  0.2196 -2.1082  1.8734
26904SOL    HW284305   5.802   7.964   2.346 -0.0382  0.2768 -2.7074
26905SOL     OW84306   1.628   6.219   6.672 -0.0608  0.2199 -0.0886
26905SOL    HW184307   1.665   6.132   6.659 -0.2207  0.0311  0.7165
26905SOL    HW284308   1.616   6.227   6.766 -2.1648  0.2283 -0.3031
26906SOL     OW84309   6.305   5.854   3.003  0.7395 -0.1927 -0.1096
26906SOL    HW184310   6.293   5.929   2.944 -2.2535  1.0043  1.7787
26906SOL    HW284311   6.298   5.892   3.091  2.7236 -2.2489  1.0199
26907SOL     OW84312   8.894   3.879   0.693 -0.3054 -0.7658  0.2969
26907SOL    HW184313   8.875   3.857   0.784  0.9130 -2.1195  0.2453
26907SOL    HW284314   8.926   3.969   0.697 -1.5934 -0.3078  1.0043
26908SOL     OW84315   3.619   7.892   7.236 -0.1350  0.4050  0.3006
26908SOL    HW184316   3.543   7.836   7.218  0.6293 -0.6906  0.3526
26908SOL    HW284317   3.589   7.951   7.305 -1.3418  0.8831 -0.5969
26909SOL     OW84318  11.087   9.264   7.742  0.3321  0.1883  0.1933
26909SOL    HW184319  11.166   9.271   7.688  0.6643  0.3378  0.6817
26909SOL    HW284320  11.117   9.287   7.830 -0.5918  1.7660  0.1259
26910SOL     OW84321   3.127   6.086   2.486 -0.8448 -0.2435 -0.1982
26910SOL    HW184322   3.175   6.137   2.421 -0.4667  0.1546  0.3854
26910SOL    HW284323   3.192   6.065   2.553 -1.5484  0.5785  0.7707
26911SOL     OW84324   2.425  11.068   7.003  0.3341 -0.0288 -0.2410
26911SOL    HW184325   2.342  11.103   7.035  0.0618  0.6518 -1.6423
26911SOL    HW284326   2.431  11.098   6.913  3.5820  2.6895  0.6868
26912SOL     OW84327   5.793   8.503   5.182 -0.4782 -0.1716 -0.0633
26912SOL    HW184328   5.859   8.463   5.238  0.1060 -0.8863 -1.2258
26912SOL    HW284329   5.769   8.584   5.227  1.9644  0.6660 -0.1422
26913SOL     OW84330   4.971   6.306   1.091  0.0141  0.2135 -0.0396
26913SOL    HW184331   4.994   6.380   1.148 -0.0442  0.9064 -0.8934
26913SOL    HW284332   4.947   6.347   1.008 -0.3119 -0.7580 -0.4321
26914SOL     OW84333   0.698   9.873   2.725  0.5069 -0.1925 -0.3425
26914SOL    HW184334   0.701   9.804   2.790 -0.1851 -1.1898 -1.3455
26914SOL    HW284335   0.641   9.940   2.762  0.6757 -0.4364  0.3596
26915SOL     OW84336  10.253   7.764   3.696 -0.0830  0.2934  0.0492
26915SOL    HW184337  10.174   7.799   3.656  0.3613  0.6660 -0.5098
26915SOL    HW284338  10.269   7.821   3.771  1.2524  2.0408 -1.4729
26916SOL     OW84339   0.749   6.196   8.704  0.4821 -0.0775  0.1109
26916SOL    HW184340   0.721   6.116   8.660  1.0685 -0.7238  0.9099
26916SOL    HW284341   0.667   6.233   8.739  0.2306 -0.4081 -0.1166
26917SOL     OW84342   8.544   5.102   2.141  0.2333  0.1183 -0.2557
26917SOL    HW184343   8.516   5.156   2.067  1.3942 -1.2448 -1.7260
26917SOL    HW284344   8.468   5.103   2.200 -1.2926  0.0509 -2.1188
26918SOL     OW84345   1.130   1.439   8.109  0.3153 -0.3828  0.7133
26918SOL    HW184346   1.040   1.449   8.139  0.4778  2.5605  0.5118
26918SOL    HW284347   1.123   1.385   8.031 -0.9246 -2.2973  2.0580
26919SOL     OW84348   2.996   3.030   7.180  0.2477  0.1993 -0.0282
26919SOL    HW184349   3.083   2.998   7.155 -0.4514 -0.8989 -1.1339
26919SOL    HW284350   2.989   3.010   7.273  1.1689  0.3053  0.0769
26920SOL     OW84351   7.408   7.300   7.232  0.7938  0.3932 -0.1730
26920SOL    HW184352   7.426   7.206   7.240 -0.1299  0.1986 -0.3028
26920SOL    HW284353   7.415   7.333   7.322  0.0061 -0.0175  0.0500
26921SOL     OW84354   3.715   0.159   6.888 -0.0323 -0.3715  0.2677
26921SOL    HW184355   3.716   0.187   6.979 -1.0605 -0.6171  0.3668
26921SOL    HW284356   3.740   0.066   6.892 -1.5215 -0.7904  0.4772
26922SOL     OW84357   1.924   2.576   7.225 -0.2676 -0.3252  0.0341
26922SOL    HW184358   1.984   2.632   7.177 -0.7086 -0.9561 -1.2971
26922SOL    HW284359   1.919   2.495   7.173 -2.0332 -0.4029  0.2440
26923SOL     OW84360   1.187   2.787   5.504  0.4813  0.1217 -0.1541
26923SOL    HW184361   1.225   2.746   5.582  0.0253  0.5264  0.2928
26923SOL    HW284362   1.262   2.824   5.457  0.7507 -0.0198  0.1612
26924SOL     OW84363   5.562   4.250   9.710 -0.0325 -0.3681  0.1773
26924SOL    HW184364   5.492   4.310   9.735  0.7613  0.1308  1.3073
26924SOL    HW284365   5.537   4.166   9.748  0.5018  0.0736  1.5875
26925SOL     OW84366   3.203   4.648   6.050  0.0024  0.0756  0.1266
26925SOL    HW184367   3.223   4.723   6.106  1.3716  1.0177 -1.5305
26925SOL    HW284368   3.287   4.603   6.039 -0.6541 -1.2998  0.4816
26926SOL     OW84369   7.310   4.995   7.742 -0.7799 -0.2127  0.2270
26926SOL    HW184370   7.375   4.950   7.688 -0.2354  1.4869 -0.6247
26926SOL    HW284371   7.320   5.088   7.719 -4.3765  0.0375 -0.8767
26927SOL     OW84372   7.030   1.635   0.130  0.3269  0.3888 -0.2094
26927SOL    HW184373   6.982   1.557   0.156  3.0978 -1.2554  0.3393
26927SOL    HW284374   7.033   1.689   0.208  0.5305 -0.1365  0.1501
26928SOL     OW84375  10.002   0.192   5.269  0.1536  1.1972 -0.2547
26928SOL    HW184376  10.071   0.131   5.297  0.1075  1.0647 -0.4289
26928SOL    HW284377  10.024   0.215   5.179 -0.0713  1.0922 -0.3381
26929SOL     OW84378   5.332   7.926   6.375 -0.3992  0.3331 -0.7667
26929SOL    HW184379   5.327   7.940   6.470  0.9619 -0.4842 -0.5558
26929SOL    HW284380   5.265   7.985   6.339 -1.2172  0.3648  0.7162
26930SOL     OW84381   1.534   9.703   0.308  0.9300  0.0173  0.1274
26930SOL    HW184382   1.622   9.668   0.321  1.3494  1.1649  0.4389
26930SOL    HW284383   1.506   9.666   0.224  0.9995 -1.7294  0.8194
26931SOL     OW84384   1.235   2.379   4.705 -0.3777 -0.5082 -0.1104
26931SOL    HW184385   1.276   2.300   4.740 -1.7335 -0.8985  0.6794
26931SOL    HW284386   1.283   2.451   4.748  0.7287 -0.8813 -0.6818
26932SOL     OW84387   4.000   8.017  11.066 -0.3100 -0.5667  0.1009
26932SOL    HW184388   4.022   8.108  11.087 -0.7427 -0.6593  0.9944
26932SOL    HW284389   4.084   7.971  11.067 -0.0430 -0.1210 -0.7061
26933SOL     OW84390   1.496   8.305   2.298 -1.2566 -0.3027 -0.5601
26933SOL    HW184391   1.474   8.361   2.224 -0.6768  0.4354 -0.1848
26933SOL    HW284392   1.489   8.362   2.374  1.4593 -0.1012 -0.3656
26934SOL     OW84393   9.555   7.001   6.325 -0.5885 -0.3208 -0.3046
26934SOL    HW184394   9.646   6.987   6.300 -0.4870  0.6356 -0.4967
26934SOL    HW284395   9.505   6.990   6.244 -0.7320 -1.5178 -0.0735
26935SOL     OW84396   5.947   9.588   9.148 -0.3627 -0.3727  0.1007
26935SOL    HW184397   5.880   9.583   9.216 -0.7550 -0.7934 -0.3152
26935SOL    HW284398   5.990   9.502   9.150 -0.0911 -0.2390  0.0952
26936SOL     OW84399   3.346   3.533  10.215  0.6980 -0.0927  0.6450
26936SOL    HW184400   3.404   3.551  10.141  2.0201  1.9890  2.0745
26936SOL    HW284401   3.348   3.438  10.224  0.8961 -0.3679 -1.6301
26937SOL     OW84402  10.473   7.543   3.153  0.1095  0.2109  0.2722
26937SOL    HW184403  10.524   7.614   3.192  1.9996  0.2703 -2.1149
26937SOL    HW284404  10.397   7.534   3.211  1.2237  2.2579  2.2053
26938SOL     OW84405   0.756   0.688   2.438  0.0241 -0.0472  0.7524
26938SOL    HW184406   0.790   0.643   2.360 -1.7993 -1.6474  0.8290
26938SOL    HW284407   0.665   0.707   2.417 -0.2685  0.2332  2.1970
26939SOL     OW84408   7.839   8.432   1.688 -0.2324 -0.2794 -0.0300
26939SOL    HW184409   7.752   8.469   1.677 -0.3553 -0.7898 -0.8023
26939SOL    HW284410   7.852   8.377   1.611  0.5758 -0.5960  0.3238
26940SOL     OW84411   5.175   6.305  10.252  0.3995  0.1084 -0.0608
26940SOL    HW184412   5.205   6.286  10.163  0.9259  1.7686 -0.2738
26940SOL    HW284413   5.196   6.226  10.301 -0.2855 -1.0119 -1.4841
26941SOL     OW84414  10.753   9.916   1.794 -0.0557 -0.5748 -0.8025
26941SOL    HW184415  10.659   9.906   1.809  0.1539 -0.2970  0.9919
26941SOL    HW284416  10.793   9.881   1.874  1.3531 -0.5025 -1.4608
26942SOL     OW84417   4.602   7.875   3.924  0.0809 -0.5074  0.1118
26942SOL    HW184418   4.646   7.920   3.996  1.0017 -1.8808  0.4489
26942SOL    HW284419   4.650   7.902   3.846 -0.1222 -0.0050  0.1545
26943SOL     OW84420   9.078  10.729   8.992 -0.1918 -0.5705 -0.7656
26943SOL    HW184421   9.043  10.669   9.058  0.9608  0.6251  1.0109
26943SOL    HW284422   9.144  10.780   9.038 -0.6894  1.6580 -2.3487
26944SOL     OW84423   3.619   8.375   1.735 -0.1526  0.2261 -0.3548
26944SOL    HW184424   3.662   8.378   1.649  0.5392 -0.3155 -0.0368
26944SOL    HW284425   3.616   8.282   1.757  0.9923  0.4434  0.8475
26945SOL     OW84426   1.463   5.296   6.461  0.2135  0.1484  1.2181
26945SOL    HW184427   1.548   5.337   6.474 -0.8508  2.7857  0.5233
26945SOL    HW284428   1.443   5.309   6.368 -0.2053 -2.0827  0.9179
26946SOL     OW84429   7.011   5.267   1.542 -0.3754 -0.3243  0.1293
26946SOL    HW184430   7.034   5.176   1.562 -2.3171 -0.9458 -0.1844
26946SOL    HW284431   6.941   5.288   1.604 -0.4027  0.7430 -0.2386
26947SOL     OW84432   6.593  10.236  10.473 -0.8632  0.3528 -0.0787
26947SOL    HW184433   6.551  10.246  10.387 -2.1887 -0.7748  0.4007
26947SOL    HW284434   6.569  10.316  10.520 -1.7021  0.1431 -0.1336
26948SOL     OW84435   6.627   7.351   9.384 -0.1491  0.2355  0.2089
26948SOL    HW184436   6.668   7.406   9.452  1.4747 -2.7500  1.8844
26948SOL    HW284437   6.654   7.391   9.302  1.7564  1.4564  1.3312
26949SOL     OW84438   0.927   2.219   4.409  0.2988 -0.0598 -0.3365
26949SOL    HW184439   0.950   2.145   4.353  0.7201 -0.9283  0.9462
26949SOL    HW284440   0.880   2.180   4.482 -1.1011  1.1687 -0.5394
26950SOL     OW84441   9.505  10.684   7.138  0.4544  0.0335  0.2031
26950SOL    HW184442   9.561  10.677   7.061  0.1372  0.1454 -0.0394
26950SOL    HW284443   9.419  10.656   7.107  0.2007  0.6085  0.3750
26951SOL     OW84444   1.419   7.105   0.281  0.4346 -0.8141 -0.1347
26951SOL    HW184445   1.457   7.020   0.303  0.1935 -1.6597 -2.7066
26951SOL    HW284446   1.355   7.086   0.213 -0.6275  1.2834  0.1913
26952SOL     OW84447   6.968   3.730   3.668 -0.5345  0.5958  0.6510
26952SOL    HW184448   7.031   3.659   3.677 -1.9545 -0.8491 -0.2411
26952SOL    HW284449   6.991   3.772   3.585  2.2632  3.3129  2.6053
26953SOL     OW84450   7.419   9.414   2.250  0.1994 -0.6468 -0.1629
26953SOL    HW184451   7.326   9.404   2.230 -0.1683 -0.5802  1.3930
26953SOL    HW284452   7.422   9.483   2.317  1.0777 -2.5464  1.8632
26954SOL     OW84453  10.622  10.918   2.823  0.0243 -0.4164  0.5112
26954SOL    HW184454  10.542  10.874   2.852 -0.0362 -0.4002  0.3696
26954SOL    HW284455  10.693  10.870   2.866 -0.1314  0.4947  1.8254
26955SOL     OW84456   4.202   7.751   5.088 -0.9960 -0.6275 -0.0309
26955SOL    HW184457   4.263   7.684   5.119  0.0435  1.0126  1.6482
26955SOL    HW284458   4.144   7.767   5.162 -1.1024  0.4553 -0.3305
26956SOL     OW84459   7.664   6.566   7.284 -0.6348 -0.5267  0.4391
26956SOL    HW184460   7.595   6.500   7.274  0.7197 -1.8922 -0.2786
26956SOL    HW284461   7.650   6.602   7.372 -0.2974 -3.1450  1.6656
26957SOL     OW84462   2.577   5.805   8.252  0.1730 -0.4680  0.0169
26957SOL    HW184463   2.504   5.862   8.229  0.0184  0.1082  1.7721
26957SOL    HW284464   2.549   5.759   8.331  1.0707 -1.5220 -0.2291
26958SOL     OW84465  10.913   7.137   7.479 -0.1928  0.1437 -0.5938
26958SOL    HW184466  10.911   7.229   7.452  0.3999  0.0774 -0.8690
26958SOL    HW284467  10.993   7.128   7.530  0.6966 -0.6173 -2.0581
26959SOL     OW84468   6.847   1.339   1.639 -0.5356 -0.0957 -0.1959
26959SOL    HW184469   6.768   1.286   1.649  0.4180 -1.2305  2.3261
26959SOL    HW284470   6.815   1.426   1.613 -2.9592  0.2164  3.1415
26960SOL     OW84471   8.788   9.838   8.527 -0.0566  0.0476  0.0578
26960SOL    HW184472   8.818   9.891   8.454 -1.0815 -1.5664 -1.6213
26960SOL    HW284473   8.697   9.864   8.541  0.4313  1.1025  1.5276
26961SOL     OW84474   1.058   4.639   7.365  0.2702  0.3467  0.2324
26961SOL    HW184475   1.127   4.586   7.404 -0.1902 -0.3496  0.1212
26961SOL    HW284476   0.980   4.620   7.417  0.1141  0.9619  0.2258
26962SOL     OW84477   5.501   5.374   2.058  0.2530 -0.0630 -0.3705
26962SOL    HW184478   5.552   5.451   2.036 -0.7206  0.7856  0.2627
26962SOL    HW284479   5.429   5.373   1.995  0.4730 -0.6838 -0.6228
26963SOL     OW84480   5.181   0.505   5.985 -0.0499  0.3611  0.1739
26963SOL    HW184481   5.247   0.492   6.052 -0.9177  0.6272  1.1019
26963SOL    HW284482   5.102   0.528   6.033 -0.7254  0.4324 -0.9333
26964SOL     OW84483   3.845   8.733  10.567  0.2718  0.1383 -0.2571
26964SOL    HW184484   3.820   8.774  10.485  0.0140  0.9388  0.2170
26964SOL    HW284485   3.932   8.769  10.587  0.0228  0.5040  0.1854
26965SOL     OW84486  10.940   0.743   6.024 -0.4464 -0.2572  0.4545
26965SOL    HW184487  10.935   0.836   6.045  0.8139 -0.4556  1.7718
26965SOL    HW284488  11.005   0.708   6.085 -1.3901 -2.1343  0.4619
26966SOL     OW84489   8.944   5.632   8.703  0.4921  0.5420  0.0277
26966SOL    HW184490   8.900   5.657   8.784 -0.2923  0.7915 -0.4706
26966SOL    HW284491   9.035   5.614   8.730  0.6664  2.2123  0.7003
26967SOL     OW84492   7.091   4.950   8.217  0.0288 -0.3739  0.3535
26967SOL    HW184493   7.154   4.920   8.151  0.3122 -0.0023  0.4536
26967SOL    HW284494   7.089   4.879   8.281  1.6031  0.3008  1.2213
26968SOL     OW84495   4.085   3.800   9.313  0.5499  0.3050  0.1556
26968SOL    HW184496   4.088   3.895   9.323  0.3975  0.2429  0.8506
26968SOL    HW284497   4.139   3.782   9.236 -0.2467  1.0337 -0.5836
26969SOL     OW84498   6.665   3.858   1.772  0.1611  0.9714  0.2007
26969SOL    HW184499   6.608   3.820   1.839  0.8381  0.0796  0.2834
26969SOL    HW284500   6.754   3.837   1.801  0.4580  0.4632 -1.0324
26970SOL     OW84501   9.663  10.375   2.254  0.1750  0.7019 -0.1716
26970SOL    HW184502   9.733  10.374   2.188  0.6307 -0.3863  0.3027
26970SOL    HW284503   9.642  10.283   2.267 -0.3177  0.9391  0.7853
26971SOL     OW84504   4.266   6.471   9.404  0.6006 -0.1232  0.0802
26971SOL    HW184505   4.257   6.446   9.312 -0.3041  0.1492  0.0837
26971SOL    HW284506   4.294   6.563   9.401  0.5363 -0.1038  0.0774
26972SOL     OW84507  10.898   2.178   8.385 -0.6950 -0.5074  0.6057
26972SOL    HW184508  10.961   2.243   8.354  0.0864 -0.8296  1.4820
26972SOL    HW284509  10.852   2.220   8.457 -0.9143 -0.5619  0.4982
26973SOL     OW84510   2.875  10.456   7.257 -0.1990 -0.1048  0.6057
26973SOL    HW184511   2.802  10.403   7.290 -0.4230 -0.6733 -0.7128
26973SOL    HW284512   2.936  10.392   7.221 -0.7262  0.5029 -1.5163
26974SOL     OW84513   7.095  10.822   6.957 -0.4903  0.4098  0.0972
26974SOL    HW184514   7.113  10.738   7.000  0.0852  0.0886 -0.7385
26974SOL    HW284515   7.138  10.815   6.872 -0.2858  1.6277  0.0806
26975SOL     OW84516   4.392   3.434  10.090  0.1103  0.1941 -0.4764
26975SOL    HW184517   4.308   3.467  10.058  0.9095 -0.0442 -3.0214
26975SOL    HW284518   4.401   3.347  10.051  0.0524 -1.3064  2.5556
26976SOL     OW84519  10.135   2.526   0.294 -0.0698 -0.3135  0.1360
26976SOL    HW184520  10.060   2.476   0.263 -0.5812  0.0258  0.7879
26976SOL    HW284521  10.190   2.539   0.217 -0.1826 -1.4271 -0.1454
26977SOL     OW84522   8.039   3.685   3.279 -0.4502  0.2854  0.2388
26977SOL    HW184523   8.076   3.741   3.210  1.1471  1.3153  1.8171
26977SOL    HW284524   7.950   3.668   3.251 -0.9684  3.4686 -0.4956
26978SOL     OW84525   4.729   4.863   6.815  0.1446  0.1534  0.1313
26978SOL    HW184526   4.692   4.775   6.821 -2.6146  1.2941  1.5655
26978SOL    HW284527   4.786   4.870   6.892 -2.7230  0.7912  2.3945
26979SOL     OW84528   3.927   8.314   8.348 -0.5065  0.5215  1.5826
26979SOL    HW184529   3.900   8.373   8.277 -0.4502  0.4111  1.4704
26979SOL    HW284530   4.022   8.312   8.342 -0.5476 -0.1672  1.1166
26980SOL     OW84531   9.242   1.804   0.298 -0.0822  0.1817 -0.1512
26980SOL    HW184532   9.219   1.780   0.388 -1.2719 -0.0547 -0.5005
26980SOL    HW284533   9.322   1.754   0.280  0.2697  0.3638  0.8204
26981SOL     OW84534   4.014   2.553  10.911 -0.2153  0.4052 -0.4174
26981SOL    HW184535   4.061   2.634  10.892  1.8568 -0.5029  0.5237
26981SOL    HW284536   3.922   2.577  10.903  0.3054  2.9310  0.1264
26982SOL     OW84537   9.624   7.067   9.871 -0.3275  0.0615 -0.3394
26982SOL    HW184538   9.635   7.159   9.847  0.9919 -0.0461 -0.2089
26982SOL    HW284539   9.646   7.018   9.792  0.2771 -0.1811 -0.0225
26983SOL     OW84540   1.586   0.660   6.373 -0.2737 -0.1136 -0.0017
26983SOL    HW184541   1.550   0.659   6.284 -0.1157 -0.0858 -0.0673
26983SOL    HW284542   1.626   0.746   6.382 -1.3820  0.3500  0.5467
26984SOL     OW84543   7.227   3.060   1.520 -0.2549 -0.3009 -0.2253
26984SOL    HW184544   7.206   3.100   1.436  0.5245  0.0549 -0.2648
26984SOL    HW284545   7.321   3.073   1.530 -0.3562 -0.2132  0.7623
26985SOL     OW84546  10.529   5.162   6.568  0.2969 -0.6100 -0.9005
26985SOL    HW184547  10.569   5.214   6.499  1.0664  0.4098  0.2706
26985SOL    HW284548  10.436   5.158   6.545  0.4891 -0.0085 -1.8021
26986SOL     OW84549   9.567  10.166   4.826 -0.1138 -0.2667 -0.0577
26986SOL    HW184550   9.660  10.154   4.812 -0.0315  0.0105  0.2276
26986SOL    HW284551   9.529  10.079   4.811  0.0294 -0.1268 -1.3394
26987SOL     OW84552   6.468   5.781   8.290  0.3268  0.0124  0.0032
26987SOL    HW184553   6.415   5.763   8.367  0.5371 -2.5975 -0.3557
26987SOL    HW284554   6.554   5.747   8.312  0.4215 -0.6567 -1.3183
26988SOL     OW84555   7.447   0.973   1.705 -0.3104  0.4341  0.2623
26988SOL    HW184556   7.506   0.926   1.646 -1.0885 -0.0621 -0.1387
26988SOL    HW284557   7.413   1.045   1.653  0.2602  0.9680  0.6239
26989SOL     OW84558   1.515   4.619   5.462  0.1974  0.1382  0.1589
26989SOL    HW184559   1.483   4.707   5.482 -0.9307 -0.4650  1.1343
26989SOL    HW284560   1.471   4.562   5.525 -1.8586 -1.6181 -2.6253
26990SOL     OW84561   6.183   3.158   0.300 -0.0801 -0.4127  0.6920
26990SOL    HW184562   6.259   3.192   0.348  1.0563  1.0335 -1.9099
26990SOL    HW284563   6.127   3.234   0.286 -0.7415 -0.9473  0.3555
26991SOL     OW84564   4.225   8.801   7.260  0.5604 -0.8107  0.7168
26991SOL    HW184565   4.243   8.895   7.250  3.1668 -1.1959  1.2343
26991SOL    HW284566   4.222   8.787   7.355  4.2748 -1.8130  0.8439
26992SOL     OW84567   1.623   1.091   5.911  0.6897  0.6962  0.0687
26992SOL    HW184568   1.619   1.108   5.817  0.4390  0.2972  0.0058
26992SOL    HW284569   1.701   1.138   5.941 -1.0362  3.6809  0.2792
26993SOL     OW84570   4.672   7.775   5.235  0.3635 -0.6996  0.2340
26993SOL    HW184571   4.694   7.797   5.145  1.0994  0.0839  0.5793
26993SOL    HW284572   4.757   7.767   5.279  0.1274 -3.6591  0.3229
26994SOL     OW84573  10.178   0.203   7.889 -0.1618  0.1228  0.6344
26994SOL    HW184574  10.109   0.268   7.901  0.0674  0.4279  0.3394
26994SOL    HW284575  10.192   0.165   7.976 -0.5700  0.1903  0.7299
26995SOL     OW84576   3.633   4.042   9.157 -0.0311 -0.3837 -0.4168
26995SOL    HW184577   3.543   4.069   9.179 -0.5707 -0.7585 -2.0304
26995SOL    HW284578   3.622   3.982   9.083  1.5766 -0.2797 -0.7598
26996SOL     OW84579   7.398   7.688   4.726 -0.1021  0.6080 -0.6987
26996SOL    HW184580   7.363   7.677   4.814 -1.6328 -0.8353 -1.4145
26996SOL    HW284581   7.487   7.720   4.739 -0.3018  0.4646  1.3530
26997SOL     OW84582   7.221   8.695   0.329  0.6832  0.6411 -0.2998
26997SOL    HW184583   7.206   8.733   0.415  0.0781 -0.2678  0.0085
26997SOL    HW284584   7.198   8.764   0.267 -3.2361 -0.0352  0.1530
26998SOL     OW84585   3.932   5.414   5.596  0.1553  0.0655  0.0507
26998SOL    HW184586   3.878   5.446   5.668  1.3267  1.0407  0.5345
26998SOL    HW284587   3.922   5.318   5.600 -1.5603  0.2137  0.0590
26999SOL     OW84588  10.094   7.413  10.043  0.0309 -0.1648  0.2018
26999SOL    HW184589  10.060   7.503  10.033  0.4296 -0.1251 -0.9646
26999SOL    HW284590  10.188   7.424  10.056  0.0772 -0.4055  0.0824
27000SOL     OW84591   0.788   4.909   8.517  0.3643 -0.3546 -0.2453
27000SOL    HW184592   0.868   4.857   8.523 -0.7451 -2.2495 -0.7191
27000SOL    HW284593   0.788   4.943   8.428  1.1591  0.5656  0.1009
27001SOL     OW84594   8.076   8.674   2.601 -0.2804  0.1244  0.5612
27001SOL    HW184595   8.057   8.764   2.628  0.5500  0.1889  0.9603
27001SOL    HW284596   7.998   8.646   2.553 -0.8738  0.7801  1.1252
27002SOL     OW84597   7.346   1.849   8.916  0.0103 -0.0370  0.6734
27002SOL    HW184598   7.306   1.792   8.982 -0.8833 -2.7032 -1.9280
27002SOL    HW284599   7.438   1.823   8.916 -0.0936 -0.4200  0.5356
27003SOL     OW84600   0.738   8.177   7.797  0.1403 -0.3344 -0.7064
27003SOL    HW184601   0.704   8.222   7.874  1.1183 -0.8375  0.0513
27003SOL    HW284602   0.823   8.219   7.781 -0.1895 -0.0243 -1.7165
27004SOL     OW84603   5.300   6.783   7.661 -0.0519  0.0204  0.1962
27004SOL    HW184604   5.376   6.781   7.603 -0.6751  2.5592 -0.8506
27004SOL    HW284605   5.332   6.822   7.742 -0.5179  3.0784 -0.9511
27005SOL     OW84606   1.654   3.146   4.437  0.3939  0.1253  0.3073
27005SOL    HW184607   1.744   3.118   4.424  1.2731  1.5622  2.6493
27005SOL    HW284608   1.603   3.066   4.431  2.0270 -0.9764  0.4903
27006SOL     OW84609   4.431   7.340   7.065  0.5628 -0.1062 -0.1590
27006SOL    HW184610   4.396   7.403   7.128  0.0576  1.5980 -2.0352
27006SOL    HW284611   4.387   7.258   7.087 -1.1494  0.9089  0.4379
27007SOL     OW84612   6.340  10.661   7.884  0.4032  0.0434  0.1935
27007SOL    HW184613   6.348  10.661   7.979  1.2734 -0.2131  0.1368
27007SOL    HW284614   6.325  10.753   7.861  1.2063  0.2695  0.5203
27008SOL     OW84615   6.096   8.101   9.606 -0.6091  0.0651 -0.0825
27008SOL    HW184616   6.135   8.187   9.619 -3.3764  1.4090 -0.0012
27008SOL    HW284617   6.124   8.074   9.519 -0.6679  1.6254 -0.6099
27009SOL     OW84618   5.585   3.875   7.285 -0.3637  0.3549 -0.1795
27009SOL    HW184619   5.580   3.907   7.195  1.1159 -1.3151 -0.9203
27009SOL    HW284620   5.668   3.828   7.289  0.7533  2.3262  2.7525
27010SOL     OW84621   3.060   6.907   4.608  0.5401 -0.2066  0.2427
27010SOL    HW184622   2.994   6.884   4.674  0.7090 -0.1242  0.4441
27010SOL    HW284623   3.142   6.874   4.645  0.5420 -0.7686 -0.2433
27011SOL     OW84624   0.232   4.539   8.342  0.3876 -0.0876  0.5624
27011SOL    HW184625   0.160   4.600   8.329  1.0486  0.5061 -0.4705
27011SOL    HW284626   0.189   4.456   8.365 -0.8316 -0.4347 -2.4673
27012SOL     OW84627   8.501   3.447   8.599 -0.6260  0.1592 -0.1079
27012SOL    HW184628   8.485   3.458   8.505  0.7365  1.4331 -0.2243
27012SOL    HW284629   8.514   3.536   8.632  2.2924 -0.4267  0.6041
27013SOL     OW84630   2.977   5.370   6.201  0.3737 -0.1428 -0.4181
27013SOL    HW184631   3.047   5.305   6.202  0.9027  0.3906  1.2483
27013SOL    HW284632   2.957   5.384   6.294  0.9016  2.7130 -0.6666
27014SOL     OW84633   5.584   1.822   6.814  1.0461  0.0962  0.0297
27014SOL    HW184634   5.671   1.840   6.849  0.4687  1.1437  0.9729
27014SOL    HW284635   5.526   1.879   6.864 -0.3108 -1.2988  0.1135
27015SOL     OW84636   4.500   4.855   9.636  0.1899  0.0862  0.5735
27015SOL    HW184637   4.484   4.828   9.727  0.6125  1.2817  1.0209
27015SOL    HW284638   4.571   4.797   9.606 -0.8699 -1.2459  0.5234
27016SOL     OW84639   6.817   8.021   5.824  0.3393 -0.2346 -0.4454
27016SOL    HW184640   6.850   8.010   5.735  0.0241 -1.2175 -0.4511
27016SOL    HW284641   6.733   8.066   5.813  0.1496 -0.6384 -0.6746
27017SOL     OW84642   2.654   3.381   5.408  0.3429  0.1351 -0.3381
27017SOL    HW184643   2.632   3.397   5.317 -0.2460  0.5034 -0.1380
27017SOL    HW284644   2.569   3.378   5.453  0.5957 -0.5073  0.1225
27018SOL     OW84645   1.184   1.858   4.868 -0.3252 -0.7362  0.1305
27018SOL    HW184646   1.278   1.855   4.887  0.1402  0.2932 -1.7188
27018SOL    HW284647   1.162   1.767   4.846  0.2495 -0.9809  0.5307
27019SOL     OW84648  10.941   8.468   7.025  0.0208  0.0988  0.2948
27019SOL    HW184649  10.857   8.463   6.980 -0.5117 -0.2866  1.2794
27019SOL    HW284650  10.957   8.378   7.055  0.6375  0.2294  0.3760
27020SOL     OW84651  10.295   0.343   4.859  0.1047 -0.6155 -0.6010
27020SOL    HW184652  10.333   0.255   4.868  0.9906 -0.0934  1.1477
27020SOL    HW284653  10.371   0.401   4.850 -0.4828 -0.0397 -2.2132
27021SOL     OW84654   5.590   5.726   4.617  0.2745  0.4389 -0.4898
27021SOL    HW184655   5.560   5.795   4.558  0.1931 -0.6460 -1.7686
27021SOL    HW284656   5.510   5.692   4.656  0.2071  0.3009 -0.7455
27022SOL     OW84657   0.726   8.356   6.940  0.1662  0.1967  0.2090
27022SOL    HW184658   0.819   8.363   6.964  1.1857  1.0453 -3.3605
27022SOL    HW284659   0.689   8.441   6.963 -0.0310 -0.4135  2.3976
27023SOL     OW84660   6.050   9.048   9.389 -0.0655 -0.1349 -0.5697
27023SOL    HW184661   6.057   9.107   9.464 -1.1283 -1.3452  0.5138
27023SOL    HW284662   6.140   9.017   9.374  0.4527  1.4549 -0.9573
27024SOL     OW84663  11.069   9.992   0.672 -0.0251  0.1134 -0.2752
27024SOL    HW184664  10.986   9.946   0.660  0.4949 -1.5285  1.8064
27024SOL    HW284665  11.136   9.929   0.645  0.6150  0.7842 -0.2931
27025SOL     OW84666   3.930   5.518   3.070 -0.9995  0.0210 -0.1065
27025SOL    HW184667   4.011   5.569   3.058 -0.9789 -0.2766 -1.4074
27025SOL    HW284668   3.946   5.466   3.148  0.5335 -0.8586 -0.9641
27026SOL     OW84669   5.484   0.001  10.737 -0.0344  0.4492  0.8797
27026SOL    HW184670   5.536  -0.076  10.716 -0.2829  0.2412  1.0187
27026SOL    HW284671   5.398  -0.017  10.697  0.2049  1.0950  0.0530
27027SOL     OW84672  10.914   2.597   9.374 -0.4399  0.4867  0.1683
27027SOL    HW184673  10.943   2.620   9.286 -0.3454  2.2024  0.6079
27027SOL    HW284674  10.988   2.549   9.412  0.2115  1.2144 -0.1367
27028SOL     OW84675   6.784   5.825   7.378  0.4401 -0.2825  0.4403
27028SOL    HW184676   6.746   5.740   7.397  2.8915 -1.3267  1.1239
27028SOL    HW284677   6.843   5.842   7.452 -0.8325  2.6092  0.9387
27029SOL     OW84678   5.930  10.797   9.670  0.8698  0.0465 -0.4268
27029SOL    HW184679   5.869  10.819   9.599 -0.3195 -0.0001  0.5509
27029SOL    HW284680   5.923  10.870   9.731 -0.2153 -1.1794  0.9771
27030SOL     OW84681   9.281   2.903   1.281  0.1488  0.0508 -0.3544
27030SOL    HW184682   9.251   2.866   1.198 -0.4595 -0.8853  0.2561
27030SOL    HW284683   9.210   2.962   1.307  0.3856  0.4219 -0.5494
27031SOL     OW84684  10.692   8.873   7.472  0.4310 -0.6183 -0.2679
27031SOL    HW184685  10.642   8.942   7.430 -0.2689 -0.3863  0.8769
27031SOL    HW284686  10.728   8.821   7.400 -1.1926 -0.5973 -1.1614
27032SOL     OW84687   5.152   4.836   5.947 -0.2654 -0.0721 -0.4494
27032SOL    HW184688   5.074   4.890   5.939 -1.1332 -1.5586 -3.1489
27032SOL    HW284689   5.217   4.879   5.891  1.4032  1.7838  2.6201
27033SOL     OW84690   8.129   2.075   1.924 -0.2817  0.1959 -0.0395
27033SOL    HW184691   8.071   2.019   1.976  0.0697  0.1058  0.2527
27033SOL    HW284692   8.115   2.163   1.959 -2.2331  0.6416 -1.6999
27034SOL     OW84693   5.194  10.691   3.912  0.2636 -0.5867 -0.2641
27034SOL    HW184694   5.151  10.686   3.998 -0.8389  4.4272 -0.2182
27034SOL    HW284695   5.126  10.664   3.850 -1.6721  2.7342  0.1498
27035SOL     OW84696   0.976   6.752   4.642 -0.1122  0.0198  0.9602
27035SOL    HW184697   0.895   6.802   4.636  1.4782  2.5992 -1.4766
27035SOL    HW284698   0.973   6.692   4.567  0.3049  0.3142  0.7000
27036SOL     OW84699   1.151   3.796   4.220 -0.2232  0.4581 -0.4368
27036SOL    HW184700   1.087   3.846   4.169  1.0660  1.3513 -1.2289
27036SOL    HW284701   1.233   3.807   4.174  0.2206 -2.1342 -0.4576
27037SOL     OW84702   3.587   2.039   5.654 -0.0438  0.4360 -0.2449
27037SOL    HW184703   3.605   2.022   5.746 -2.1053 -1.0442 -0.0289
27037SOL    HW284704   3.620   1.961   5.609 -0.7131  0.2864 -0.4979
27038SOL     OW84705   3.322   0.360  10.505 -0.1422 -0.0150 -0.1983
27038SOL    HW184706   3.390   0.427  10.496  0.3918 -0.3322  1.2260
27038SOL    HW284707   3.243   0.402  10.472  0.5803  0.6227 -1.1841
27039SOL     OW84708   7.884   1.372   2.307 -0.4750 -0.0445  0.0817
27039SOL    HW184709   7.863   1.464   2.318 -1.1336 -0.3982  2.5051
27039SOL    HW284710   7.814   1.337   2.251  0.2104  1.0319 -1.4973
27040SOL     OW84711   7.273   8.619   1.057  0.2713 -0.1550 -0.1616
27040SOL    HW184712   7.262   8.540   1.004  1.5991 -0.5518  0.1252
27040SOL    HW284713   7.253   8.591   1.147  1.7488 -0.4446  0.0966
27041SOL     OW84714   7.468   1.101   5.378 -0.7249 -0.2280 -0.7419
27041SOL    HW184715   7.419   1.069   5.454 -1.4606  0.8756 -0.7450
27041SOL    HW284716   7.498   1.021   5.335  1.0538 -0.9071  1.5384
27042SOL     OW84717   4.998   1.420   7.986  0.0482 -0.0429  0.4800
27042SOL    HW184718   4.968   1.333   7.958 -0.9652  0.3590  0.2610
27042SOL    HW284719   4.966   1.429   8.076  0.9662 -0.2592  0.8376
27043SOL     OW84720   5.459   8.138   6.737 -0.1041 -0.2804  0.2156
27043SOL    HW184721   5.469   8.207   6.802 -1.2605 -0.2586  0.3971
27043SOL    HW284722   5.460   8.056   6.787  3.7523 -0.6590 -0.2204
27044SOL     OW84723   9.647   0.066   9.534  0.1988 -0.5980 -0.0576
27044SOL    HW184724   9.641   0.119   9.613  0.2147 -0.0050 -0.4456
27044SOL    HW284725   9.565   0.017   9.530  0.1231 -0.4922  0.2251
27045SOL     OW84726   4.452  10.892  10.485  0.1289 -0.0142  0.3466
27045SOL    HW184727   4.441  10.856  10.397  2.1807  1.1985 -0.4802
27045SOL    HW284728   4.382  10.957  10.493 -0.6866 -0.8300  0.0373
27046SOL     OW84729   6.713   1.180   8.016 -0.4537  0.0670  0.4525
27046SOL    HW184730   6.699   1.231   8.096 -0.0714 -1.6688  1.6913
27046SOL    HW284731   6.796   1.135   8.031 -1.1892 -1.5831 -0.1689
27047SOL     OW84732   4.475   8.788   1.060  0.7128  0.5438 -0.0863
27047SOL    HW184733   4.554   8.741   1.033  0.7591  0.3033  0.4383
27047SOL    HW284734   4.501   8.880   1.062  0.9389  0.4815 -0.0676
27048SOL     OW84735   7.365   8.793   7.244 -0.3522  0.0960 -0.1646
27048SOL    HW184736   7.386   8.876   7.287 -0.6548  0.2788 -0.3663
27048SOL    HW284737   7.269   8.789   7.244 -0.3388 -0.4059  0.1279
27049SOL     OW84738   8.818   6.179   7.479  0.2248 -0.0825  0.2002
27049SOL    HW184739   8.853   6.259   7.441  1.2441  0.5599  2.3139
27049SOL    HW284740   8.723   6.194   7.484  0.3002  0.5936 -0.2668
27050SOL     OW84741   5.120   1.941   9.953  0.9433  0.1769  0.0542
27050SOL    HW184742   5.191   1.877   9.961 -0.9093 -1.8395  1.4563
27050SOL    HW284743   5.078   1.941  10.038 -0.4035  1.7823 -0.5512
27051SOL     OW84744   0.917   1.526  10.628 -0.0623 -0.1662 -0.9535
27051SOL    HW184745   0.851   1.540  10.696 -0.1783  1.7648 -1.4212
27051SOL    HW284746   1.000   1.519  10.676  0.2650  3.9424 -0.6396
27052SOL     OW84747   1.120   0.110   7.444 -0.3047 -0.4363 -0.3860
27052SOL    HW184748   1.027   0.118   7.426 -0.2605  0.7384 -0.2043
27052SOL    HW284749   1.126   0.104   7.539 -0.2058 -0.7414 -0.4099
27053SOL     OW84750  10.165   8.756  11.005  0.2429  0.3629  0.0934
27053SOL    HW184751  10.189   8.846  10.985  0.6387  0.2108 -0.1239
27053SOL    HW284752  10.247   8.712  11.025 -0.0012  0.1698  0.6878
27054SOL     OW84753   9.751   8.506   4.622  0.3476  0.0259  0.4167
27054SOL    HW184754   9.814   8.570   4.656  1.5461  0.0843 -1.7254
27054SOL    HW284755   9.720   8.545   4.540 -2.1580 -0.2498  1.1543
27055SOL     OW84756  11.081   2.385   8.370  0.1676 -0.1264 -0.0798
27055SOL    HW184757  11.170   2.375   8.402  0.5089 -0.9086 -1.2432
27055SOL    HW284758  11.044   2.454   8.425  2.1253  1.6900 -0.9103
27056SOL     OW84759   9.981   2.333   8.484 -0.0001 -0.3092  0.3049
27056SOL    HW184760   9.919   2.319   8.555 -0.5370  1.7202  0.3091
27056SOL    HW284761  10.038   2.403   8.515  0.4215 -0.1199 -0.8358
27057SOL     OW84762   7.350   7.443   3.481  0.1200  0.2849 -0.0592
27057SOL    HW184763   7.260   7.455   3.450 -0.3820 -0.0891  1.1576
27057SOL    HW284764   7.404   7.488   3.417 -0.7598 -1.1210 -1.8915
27058SOL     OW84765   2.888   3.738  10.557 -0.0515 -0.2707 -0.5114
27058SOL    HW184766   2.978   3.743  10.525 -0.8103  0.4508 -2.8116
27058SOL    HW284767   2.836   3.778  10.486 -2.2650 -1.5058  0.3166
27059SOL     OW84768   0.435   6.320   7.901  0.0602 -0.2737  0.3198
27059SOL    HW184769   0.462   6.272   7.980 -0.7109 -2.3043 -0.5984
27059SOL    HW284770   0.341   6.330   7.910 -0.0400 -0.5695 -0.3646
27060SOL     OW84771   2.650  10.048   1.269 -0.0217  0.0248  0.2074
27060SOL    HW184772   2.719  10.108   1.298  0.3123 -0.0734 -0.3580
27060SOL    HW284773   2.576  10.066   1.327  0.4430  0.2142  0.7422
27061SOL     OW84774   6.578   6.389   5.711 -0.0308 -0.3583  0.9373
27061SOL    HW184775   6.519   6.392   5.636  0.8873 -1.5002  0.1302
27061SOL    HW284776   6.536   6.444   5.777 -0.3034  1.7281 -0.8187
27062SOL     OW84777   7.034   9.890   0.027  0.0606 -0.3895  0.0497
27062SOL    HW184778   7.112   9.855  -0.016  1.6245  1.1939  1.4568
27062SOL    HW284779   6.979   9.923  -0.045  1.3097 -0.2946 -0.8913
27063SOL     OW84780   9.816   2.353   2.476  0.2971 -0.3331  0.1450
27063SOL    HW184781   9.807   2.329   2.568 -1.6427  2.3683  0.7872
27063SOL    HW284782   9.758   2.292   2.430 -0.1835 -0.5029  0.9489
27064SOL     OW84783   0.091   6.696   7.245 -0.2357 -0.6135 -0.5061
27064SOL    HW184784   0.135   6.679   7.328 -2.2886 -0.9418  0.5717
27064SOL    HW284785   0.001   6.665   7.258 -0.5836 -0.8545 -2.9125
27065SOL     OW84786   2.455   2.582   3.286 -0.0180  0.1432  0.3311
27065SOL    HW184787   2.370   2.596   3.327  0.0600  1.6374  0.0571
27065SOL    HW284788   2.502   2.664   3.300  0.2620  0.4875 -2.0781
27066SOL     OW84789   6.939   0.635   3.715 -0.5128  0.2074 -0.1974
27066SOL    HW184790   6.918   0.593   3.798  0.6919 -0.8183 -0.3680
27066SOL    HW284791   7.034   0.629   3.708 -0.5352  0.7738 -1.3921
27067SOL     OW84792  10.529   7.282   4.263 -1.0322 -0.6706  0.1006
27067SOL    HW184793  10.528   7.271   4.168 -0.0807 -0.8182  0.1011
27067SOL    HW284794  10.556   7.196   4.296  0.3317 -0.1463  0.4121
27068SOL     OW84795   0.035   1.370   6.928 -0.2662 -0.2831 -0.2669
27068SOL    HW184796   0.121   1.378   6.968 -0.5755 -1.4110  0.7013
27068SOL    HW284797  -0.013   1.446   6.959 -0.2541 -0.7358  0.9314
27069SOL     OW84798   0.572   9.761   7.125 -0.0878  0.2382  0.5210
27069SOL    HW184799   0.503   9.713   7.080  0.0502  2.0141 -1.7836
27069SOL    HW284800   0.532   9.846   7.146  1.1879  1.1386 -0.4749
27070SOL     OW84801   3.632   8.373  10.262  0.4211  0.2458 -0.5087
27070SOL    HW184802   3.546   8.409  10.285  0.2178 -0.6094  0.1303
27070SOL    HW284803   3.663   8.428  10.190  0.2864  1.9373  0.6485
27071SOL     OW84804   1.307   6.513   3.793 -0.0830 -0.7738  0.5048
27071SOL    HW184805   1.363   6.580   3.754 -1.3942 -0.7106 -1.3624
27071SOL    HW284806   1.232   6.561   3.829 -1.2754 -1.2138 -1.2761
27072SOL     OW84807   6.989   9.153   6.494  0.2677  0.6820  0.1252
27072SOL    HW184808   6.923   9.114   6.436  0.6436 -0.1003  0.2031
27072SOL    HW284809   7.010   9.237   6.455  0.2321  0.3318 -0.6644
27073SOL     OW84810   7.561  10.453   3.155  0.4462 -0.2686  0.2568
27073SOL    HW184811   7.647  10.414   3.167  0.9224  0.3645 -1.0072
27073SOL    HW284812   7.542  10.496   3.239  1.8045  0.4536  0.2127
27074SOL     OW84813   3.095   3.242   1.344 -0.0532 -0.6879 -0.3024
27074SOL    HW184814   3.120   3.163   1.297 -0.2693  0.3855 -2.3414
27074SOL    HW284815   3.176   3.292   1.353 -0.1490 -0.5360 -0.2665
27075SOL     OW84816   3.021   7.450   4.204 -0.0606 -0.1774  0.1698
27075SOL    HW184817   3.049   7.473   4.116  1.9248  1.4717  1.1692
27075SOL    HW284818   3.001   7.534   4.246  0.2330 -0.8305  1.6752
27076SOL     OW84819   4.862   5.864   8.821 -0.2424  0.1752  0.3809
27076SOL    HW184820   4.815   5.822   8.893 -0.7112 -0.3481 -0.2085
27076SOL    HW284821   4.909   5.792   8.778 -0.5256  0.3478 -0.2378
27077SOL     OW84822   1.411   7.102   3.010  0.0763 -0.1983 -0.4945
27077SOL    HW184823   1.326   7.144   3.025  0.1119 -0.3929  0.3104
27077SOL    HW284824   1.474   7.161   3.052  0.1645 -0.8631  0.3278
27078SOL     OW84825   7.580   8.936   7.872 -0.2296  0.3029  0.2609
27078SOL    HW184826   7.514   8.950   7.804 -0.7458 -0.9462  0.4788
27078SOL    HW284827   7.663   8.957   7.830 -0.8142  3.8200  0.5093
27079SOL     OW84828   5.023   4.428   6.727 -0.4867 -0.5484  0.0918
27079SOL    HW184829   5.032   4.342   6.768  0.9929  0.2179  1.4929
27079SOL    HW284830   5.059   4.489   6.792 -1.7507  1.1661 -0.7512
27080SOL     OW84831   2.379  10.722  10.334 -0.0722  0.3453  0.2156
27080SOL    HW184832   2.297  10.688  10.297  0.6495 -2.0417  0.6432
27080SOL    HW284833   2.447  10.685  10.278  0.7779  3.1946 -0.8287
27081SOL     OW84834   0.253   8.961   9.931 -0.3335 -0.0807 -0.3705
27081SOL    HW184835   0.328   9.020   9.932  1.2887 -2.0161 -1.4808
27081SOL    HW284836   0.200   8.988  10.007  3.8443 -1.5979  3.4850
27082SOL     OW84837   2.709   9.701   2.900 -0.0058  0.1546  0.1373
27082SOL    HW184838   2.717   9.795   2.915  1.1210  0.1096 -0.0917
27082SOL    HW284839   2.619   9.689   2.868 -0.1284  1.1612  0.0863
27083SOL     OW84840   7.147  10.139   7.703 -0.2421 -0.4451  0.0753
27083SOL    HW184841   7.232  10.162   7.740 -0.1108 -0.4562 -0.2115
27083SOL    HW284842   7.089  10.209   7.731  0.0845  0.0830 -0.5333
27084SOL     OW84843   3.872   5.388   5.051  0.6706  0.2744 -0.2267
27084SOL    HW184844   3.855   5.446   4.977 -0.0606  0.4014  0.0255
27084SOL    HW284845   3.841   5.437   5.127 -2.9892 -1.5607 -0.2731
27085SOL     OW84846   8.485   8.687   5.518  0.3228 -0.3981 -0.6641
27085SOL    HW184847   8.531   8.715   5.597  1.1224 -1.2116 -0.8218
27085SOL    HW284848   8.457   8.598   5.537  1.0538 -0.8244 -1.5113
27086SOL     OW84849   8.610   2.335   1.738 -0.0820  0.3317 -0.1200
27086SOL    HW184850   8.630   2.298   1.824 -1.2207  1.3954  0.6495
27086SOL    HW284851   8.694   2.337   1.692  0.5564 -0.2149  0.9773
27087SOL     OW84852   8.643   8.655   3.492 -0.2539 -0.1224 -0.0966
27087SOL    HW184853   8.733   8.638   3.522  0.2337  0.5055 -1.1407
27087SOL    HW284854   8.614   8.729   3.545  0.2389  0.3452 -0.4631
27088SOL     OW84855  11.069   8.944   5.141 -0.1070 -0.3950 -0.4036
27088SOL    HW184856  11.155   8.984   5.130 -0.1973  0.1557  0.7484
27088SOL    HW284857  11.008   9.007   5.104 -0.0439 -0.7066 -1.0597
27089SOL     OW84858   9.247   6.511   8.832 -0.2687 -0.2497 -0.6310
27089SOL    HW184859   9.214   6.486   8.918  1.5685 -0.7839 -0.0410
27089SOL    HW284860   9.173   6.555   8.790 -1.5928 -1.0970  0.7219
27090SOL     OW84861   7.693   7.915  10.374 -0.3374 -0.6582 -0.2147
27090SOL    HW184862   7.687   7.819  10.371  1.9346 -0.8732  0.4898
27090SOL    HW284863   7.650   7.940  10.456  0.0954 -1.1881  0.1791
27091SOL     OW84864   4.583   6.376   6.851 -0.2199 -0.7949  0.2319
27091SOL    HW184865   4.506   6.429   6.867  1.2988  1.4348  0.6078
27091SOL    HW284866   4.585   6.364   6.756 -0.6846 -0.3372  0.1655
27092SOL     OW84867   5.378   0.487   7.390  0.5432 -0.1744 -0.1472
27092SOL    HW184868   5.408   0.564   7.341  1.6111  0.0713  0.8636
27092SOL    HW284869   5.308   0.451   7.336  0.4510  1.1387 -0.9521
27093SOL     OW84870   7.504  10.994   5.224 -0.2238  0.2565  0.0366
27093SOL    HW184871   7.470  10.930   5.288  0.4020  1.7033  1.9112
27093SOL    HW284872   7.599  10.986   5.231 -0.1415  0.1749 -1.0301
27094SOL     OW84873  10.423   8.582   4.984 -0.1531 -0.1356 -0.5470
27094SOL    HW184874  10.353   8.646   4.969  0.8524  1.1162 -0.1376
27094SOL    HW284875  10.481   8.626   5.046 -0.4786 -2.2666  1.3948
27095SOL     OW84876   8.283   5.870   5.495 -0.6027  0.1667  0.0447
27095SOL    HW184877   8.290   5.850   5.402 -1.2194  0.9843 -0.1894
27095SOL    HW284878   8.218   5.809   5.529 -0.0550 -0.4294  0.0414
27096SOL     OW84879   7.350   8.988   2.679 -0.1507 -0.0439 -0.4467
27096SOL    HW184880   7.260   9.000   2.709 -0.0870 -0.3886 -0.1084
27096SOL    HW284881   7.396   9.066   2.709 -0.4960  0.4782 -1.2590
27097SOL     OW84882   5.327   2.793  10.977  0.0137 -0.3047  0.2840
27097SOL    HW184883   5.279   2.725  10.929 -1.2355 -0.1065  1.2048
27097SOL    HW284884   5.297   2.785  11.067  1.7099 -0.1168  0.9024
27098SOL     OW84885   8.607   6.155   9.317 -0.9687  0.5565  0.4021
27098SOL    HW184886   8.582   6.066   9.293 -1.4407  0.3656  1.5562
27098SOL    HW284887   8.637   6.194   9.235 -0.3551 -0.7891 -0.0480
27099SOL     OW84888   5.798   4.082   1.707 -0.7337 -0.5286 -0.3098
27099SOL    HW184889   5.713   4.077   1.751 -1.8679 -1.0840 -2.3775
27099SOL    HW284890   5.820   3.990   1.687 -0.0337 -0.3352 -0.4459
27100SOL     OW84891   6.579   3.021  11.094 -0.5095 -0.4376 -0.2647
27100SOL    HW184892   6.573   2.936  11.051  1.9770 -0.4361 -0.7510
27100SOL    HW284893   6.576   3.001  11.188 -0.4942 -0.9875 -0.3797
27101SOL     OW84894   5.922   1.800   1.753 -0.8315 -0.4260 -0.0624
27101SOL    HW184895   5.929   1.796   1.848  0.2027  1.6962  0.0205
27101SOL    HW284896   5.990   1.862   1.727  0.7699 -3.0103 -2.4958
27102SOL     OW84897   1.158  11.043  10.959  0.5988 -0.2844 -0.4090
27102SOL    HW184898   1.216  11.118  10.971 -0.9207  1.0659 -1.1324
27102SOL    HW284899   1.090  11.055  11.026  0.3777 -1.0670 -0.4862
27103SOL     OW84900   6.122   0.787   7.695 -0.3150  0.1190  0.1040
27103SOL    HW184901   6.203   0.829   7.666 -0.0874  0.4641  1.1789
27103SOL    HW284902   6.106   0.717   7.632  0.9739 -0.1236  0.0375
27104SOL     OW84903   9.523   1.909   4.686  0.3386 -0.3376 -0.6458
27104SOL    HW184904   9.507   1.961   4.764  2.3466 -1.0655  0.3185
27104SOL    HW284905   9.469   1.950   4.618 -2.5100 -0.4960  1.3677
27105SOL     OW84906   4.391   4.578   5.813  0.1477 -0.1153  0.1816
27105SOL    HW184907   4.425   4.558   5.726  0.0173  0.4676 -0.0115
27105SOL    HW284908   4.402   4.497   5.863  1.8301  0.0352  0.1232
27106SOL     OW84909   5.743   2.418   2.588  0.0831 -0.3011  0.0563
27106SOL    HW184910   5.823   2.454   2.549  0.7170  0.1723  1.7227
27106SOL    HW284911   5.715   2.484   2.652 -2.3436  0.1080 -1.2974
27107SOL     OW84912   7.781   4.774   7.842  0.6279  0.3954  0.1782
27107SOL    HW184913   7.744   4.752   7.757  0.1383  0.5222  0.3584
27107SOL    HW284914   7.821   4.692   7.872  0.2285  0.1809  0.1209
27108SOL     OW84915   7.861   5.293   0.392  0.3892  0.6009  0.2721
27108SOL    HW184916   7.951   5.261   0.391  0.6023  1.0235  2.1533
27108SOL    HW284917   7.813   5.227   0.442 -0.0445  1.1129  0.5388
27109SOL     OW84918   5.796   0.317   1.814 -0.0145  0.0284 -0.2414
27109SOL    HW184919   5.864   0.324   1.881 -0.5789  0.7310  0.2586
27109SOL    HW284920   5.825   0.243   1.760  0.2744 -0.7768  0.9651
27110SOL     OW84921   8.946   2.781   3.783 -0.0552  0.4503  0.5073
27110SOL    HW184922   8.923   2.690   3.802  1.1787  0.0929  0.4011
27110SOL    HW284923   8.988   2.777   3.697  0.2895  1.0672  0.6426
27111SOL     OW84924   8.534   2.247   8.269  0.0599 -0.0447 -0.0898
27111SOL    HW184925   8.468   2.233   8.202  1.2098  0.5077 -1.3742
27111SOL    HW284926   8.546   2.342   8.272  0.0056 -0.0534  0.9294
27112SOL     OW84927   9.859  10.894   3.998  0.1411 -0.0138  0.1278
27112SOL    HW184928   9.931  10.942   3.958  0.7709 -1.1007 -0.1004
27112SOL    HW284929   9.851  10.930   4.086  0.0728  1.0255 -0.2967
27113SOL     OW84930   0.095   9.298   0.250 -0.5738  0.5113 -0.0899
27113SOL    HW184931   0.050   9.283   0.333  1.8279 -1.2310  1.0168
27113SOL    HW284932   0.173   9.349   0.274  0.0246  0.2071 -1.2911
27114SOL     OW84933  10.025   6.099   0.338 -0.5169 -0.0771  0.0798
27114SOL    HW184934   9.983   6.045   0.272  0.7694  0.4652 -1.2389
27114SOL    HW284935   9.955   6.153   0.374 -1.2419 -0.3844 -0.8452
27115SOL     OW84936   4.452   4.130   2.470 -0.7023 -0.0239 -0.2223
27115SOL    HW184937   4.527   4.075   2.448 -0.6003  0.3706 -0.9165
27115SOL    HW284938   4.447   4.127   2.566  0.6792  0.5472 -0.1040
27116SOL     OW84939   6.261   1.380   2.684 -0.3505 -0.1923  0.2019
27116SOL    HW184940   6.186   1.359   2.741 -1.1045  0.9409 -0.3250
27116SOL    HW284941   6.221   1.414   2.605  0.7484  0.6471 -0.0063
27117SOL     OW84942   0.661   8.807   4.566 -0.4652  0.1392  0.1985
27117SOL    HW184943   0.746   8.844   4.542 -0.9213  1.4833  0.6047
27117SOL    HW284944   0.675   8.712   4.561  0.5758  0.3304 -1.4187
27118SOL     OW84945   3.199   4.061   9.426  0.2869  0.3760  0.1055
27118SOL    HW184946   3.229   4.009   9.501 -1.4681 -1.6743 -0.5023
27118SOL    HW284947   3.151   4.134   9.465 -0.6073 -0.6675  1.0282
27119SOL     OW84948   2.910   1.407   6.000  0.3839 -0.0508  0.2889
27119SOL    HW184949   2.930   1.498   5.977 -0.4392 -0.0612 -0.5807
27119SOL    HW284950   2.918   1.360   5.917  0.4379 -0.7075  0.6622
27120SOL     OW84951   8.491   3.911   7.293 -0.0994 -0.1214 -0.4035
27120SOL    HW184952   8.444   3.828   7.284  1.7969 -1.1897 -1.0145
27120SOL    HW284953   8.566   3.890   7.349 -0.0803  1.4237  0.2007
27121SOL     OW84954   7.652   4.594   7.157 -0.6448  0.7096  0.0422
27121SOL    HW184955   7.724   4.594   7.220 -0.1668  0.3048 -0.4956
27121SOL    HW284956   7.576   4.567   7.208 -0.3534  0.8143  0.5399
27122SOL     OW84957   1.146  10.894   3.728 -0.0826  0.4996  0.0677
27122SOL    HW184958   1.201  10.845   3.789  2.6575  1.4034 -1.5518
27122SOL    HW284959   1.139  10.838   3.651 -2.4130 -0.0544  0.5971
27123SOL     OW84960   1.715   6.063   8.116  0.7981 -0.5182  0.0907
27123SOL    HW184961   1.680   6.018   8.039  0.2735  0.6670 -0.3945
27123SOL    HW284962   1.646   6.056   8.181 -0.6462  2.1335 -0.9841
27124SOL     OW84963   6.537   8.466   1.252 -0.2927  0.1671 -0.1856
27124SOL    HW184964   6.540   8.385   1.304 -0.3521 -0.7739 -1.5873
27124SOL    HW284965   6.629   8.486   1.235 -0.2883  0.2036 -0.1192
27125SOL     OW84966   2.439   1.452   7.968 -0.2772 -0.3299 -0.0407
27125SOL    HW184967   2.398   1.409   7.893 -0.1646 -1.3820  0.4798
27125SOL    HW284968   2.533   1.433   7.958 -0.2528 -0.3954  0.3121
27126SOL     OW84969   5.803   5.799   5.085  0.2159 -0.2378  0.2580
27126SOL    HW184970   5.889   5.835   5.105 -0.1765 -0.0654  1.7530
27126SOL    HW284971   5.817   5.705   5.076  0.6829 -0.1202 -0.2570
27127SOL     OW84972   7.284  10.204   5.084 -0.2478 -0.3447  0.1971
27127SOL    HW184973   7.255  10.260   5.013 -0.0395 -1.9036 -1.1662
27127SOL    HW284974   7.359  10.250   5.122  0.1335  0.1394 -1.1024
27128SOL     OW84975   1.174   6.886   3.721  0.1897 -0.3314 -0.2899
27128SOL    HW184976   1.138   6.824   3.658 -1.5044  0.0815  0.2188
27128SOL    HW284977   1.252   6.921   3.679  1.1498 -2.6990 -0.6295
27129SOL     OW84978   5.400   8.447   9.948  0.2700 -0.3618 -0.2074
27129SOL    HW184979   5.404   8.425  10.041  0.1068  1.0756  0.1710
27129SOL    HW284980   5.348   8.377   9.908 -1.8244  0.2809  1.2278
27130SOL     OW84981   8.923  10.450   3.573  0.6625  0.1400  0.0714
27130SOL    HW184982   8.876  10.372   3.600  1.2757 -0.3973 -0.3478
27130SOL    HW284983   8.857  10.506   3.532  0.2823 -0.3359  0.0292
27131SOL     OW84984   0.124   4.218   9.867  0.2980  0.1249 -0.3660
27131SOL    HW184985   0.079   4.197   9.949  1.7672 -2.6523 -0.1490
27131SOL    HW284986   0.217   4.211   9.887  0.7073 -1.9863 -2.4788
27132SOL     OW84987   0.509   1.168   2.442  0.2172  0.4820  0.0678
27132SOL    HW184988   0.508   1.073   2.432  0.3535  0.3704  1.0151
27132SOL    HW284989   0.482   1.183   2.533 -3.1276  1.5192 -0.9754
27133SOL     OW84990   9.433   7.404   6.469  0.3447  0.5883 -0.4379
27133SOL    HW184991   9.485   7.331   6.503 -0.7925 -0.9345 -1.7758
27133SOL    HW284992   9.345   7.388   6.502 -0.4462 -0.0529 -2.6395
27134SOL     OW84993   8.863   2.995  10.828 -0.7207  0.2780  0.3805
27134SOL    HW184994   8.941   2.944  10.847 -0.9295 -0.1559  0.0906
27134SOL    HW284995   8.793   2.931  10.819 -0.6197  0.3815 -1.9837
27135SOL     OW84996   2.705   1.266   3.278 -0.0830  0.0861 -0.4244
27135SOL    HW184997   2.675   1.267   3.188 -0.5869 -0.0445 -0.2580
27135SOL    HW284998   2.672   1.184   3.314 -0.3247  0.3767  0.0256
27136SOL     OW84999   4.653   0.541   2.423 -0.3406  0.1939  0.1215
27136SOL    HW185000   4.571   0.583   2.396 -1.4397 -0.6779  1.8627
27136SOL    HW285001   4.713   0.614   2.441 -1.0951  0.8946 -0.1405
27137SOL     OW85002   3.852   7.972   0.964  0.5303  0.2258  0.2355
27137SOL    HW185003   3.792   8.040   0.993 -0.3171 -0.1239 -0.6545
27137SOL    HW285004   3.856   7.981   0.869  0.0318 -1.2479  0.0460
27138SOL     OW85005   9.486  11.015   5.718  0.1261 -0.1375  0.7426
27138SOL    HW185006   9.510  11.089   5.774 -0.3578  0.8284 -0.2665
27138SOL    HW285007   9.503  11.047   5.629 -1.2586 -0.7949  0.2239
27139SOL     OW85008   9.288   6.826   5.347 -0.4585 -0.2129 -0.5240
27139SOL    HW185009   9.225   6.894   5.324 -0.4898 -0.0744 -0.0258
27139SOL    HW285010   9.246   6.775   5.416  0.6082  0.9116  1.0410
27140SOL     OW85011   4.514   4.958   3.966 -0.1789  0.5087  0.1500
27140SOL    HW185012   4.512   5.004   4.050 -0.0966  0.8124 -0.0157
27140SOL    HW285013   4.607   4.941   3.950 -0.2930 -1.0683  0.9474
27141SOL     OW85014   5.890   4.685   4.923 -0.5311 -0.0855 -0.3033
27141SOL    HW185015   5.975   4.725   4.938 -1.3553  0.7485  2.8448
27141SOL    HW285016   5.831   4.758   4.904 -1.1264 -0.2970  0.6648
27142SOL     OW85017   4.676   2.046   4.302 -0.0690 -0.2668  0.7933
27142SOL    HW185018   4.599   2.038   4.358  0.0390  2.4822  1.4560
27142SOL    HW285019   4.744   1.996   4.347 -0.5362  0.2109  2.0520
27143SOL     OW85020   5.902   5.706  10.200  0.7655 -0.4432  0.1868
27143SOL    HW185021   5.896   5.613  10.177  0.4039 -0.8014  1.6285
27143SOL    HW285022   5.817   5.741  10.175  1.0007 -0.4252 -0.6186
27144SOL     OW85023   0.009   9.294   8.689 -0.4592  0.3948 -0.0115
27144SOL    HW185024  -0.061   9.298   8.755 -0.4065 -1.8755  0.2789
27144SOL    HW285025  -0.035   9.266   8.609 -0.2080  1.2016 -0.4473
27145SOL     OW85026   3.275   1.174   9.078  0.0434 -0.0651 -0.2594
27145SOL    HW185027   3.318   1.253   9.044  0.9348 -0.2037  0.5018
27145SOL    HW285028   3.326   1.102   9.040  1.1599 -0.2238  1.4221
27146SOL     OW85029   5.160   7.998   4.438  0.5524 -0.3710 -0.3385
27146SOL    HW185030   5.077   8.005   4.484  1.0532  0.3755  0.4760
27146SOL    HW285031   5.149   7.922   4.380  0.0482 -1.6112  1.3048
27147SOL     OW85032   6.522   1.954   5.457  0.2996  0.6332 -0.3768
27147SOL    HW185033   6.505   1.939   5.550  0.5756 -0.6124 -0.5106
27147SOL    HW285034   6.435   1.965   5.419  0.2426  3.2742  0.3186
27148SOL     OW85035   0.487   5.882   9.418 -0.0885 -0.1296  0.3286
27148SOL    HW185036   0.498   5.788   9.406 -0.3362 -0.2727  1.1305
27148SOL    HW285037   0.399   5.891   9.455 -1.0912  0.6366 -2.0697
27149SOL     OW85038   4.704   0.594   6.666 -0.1956 -0.3415 -0.1258
27149SOL    HW185039   4.635   0.582   6.601 -0.0692 -0.0396 -0.3154
27149SOL    HW285040   4.716   0.689   6.671 -0.6144 -0.3272  0.7649
27150SOL     OW85041   9.585   3.646   1.190 -0.7524 -0.1113 -0.0126
27150SOL    HW185042   9.633   3.570   1.158  0.9850  0.6036  0.7933
27150SOL    HW285043   9.598   3.713   1.123 -3.8876 -0.9715 -1.7126
27151SOL     OW85044   1.948  10.796   8.958 -0.3355  0.2226  0.1106
27151SOL    HW185045   1.905  10.863   9.011  0.3419  1.5595 -0.9977
27151SOL    HW285046   2.013  10.843   8.906 -0.7336 -1.0772 -1.6717
27152SOL     OW85047   4.498   5.816   2.209  0.2427 -1.1472 -0.2656
27152SOL    HW185048   4.445   5.862   2.144  0.9759  0.0425 -0.0521
27152SOL    HW285049   4.545   5.749   2.160  0.4916 -0.5133 -0.9094
27153SOL     OW85050   9.209   6.389   7.956  0.3490  0.4478  0.4832
27153SOL    HW185051   9.254   6.472   7.964 -0.5781  0.7864  3.4670
27153SOL    HW285052   9.116   6.410   7.967 -0.2541 -0.7007 -1.6088
27154SOL     OW85053   4.004   1.447   5.480  0.0416  0.4527 -0.4195
27154SOL    HW185054   4.045   1.366   5.511  0.6659  1.4702  1.6678
27154SOL    HW285055   4.058   1.475   5.406 -0.1851 -1.0016 -1.1654
27155SOL     OW85056   0.987   8.984   4.226 -0.4300  0.3470 -0.9012
27155SOL    HW185057   0.926   9.036   4.175 -1.8324  1.8525  2.0370
27155SOL    HW285058   1.059   9.044   4.246 -0.1542 -0.0531 -0.6709
27156SOL     OW85059   9.929   0.201   9.557  0.2626  0.0960 -0.5498
27156SOL    HW185060   9.846   0.152   9.558 -0.5381  1.3946 -0.5963
27156SOL    HW285061   9.989   0.148   9.609 -0.5428 -0.9694 -0.6728
27157SOL     OW85062   8.972   1.640   2.226  0.3025  0.5447 -0.3185
27157SOL    HW185063   9.021   1.703   2.279  0.8842 -0.9083  0.9600
27157SOL    HW285064   9.031   1.565   2.218 -0.5376 -0.0260 -1.4252
27158SOL     OW85065   4.552   9.351   3.636 -0.1952  0.0329  1.2612
27158SOL    HW185066   4.483   9.332   3.699  0.0257  0.3934  1.6151
27158SOL    HW285067   4.584   9.438   3.661  1.1212 -0.5837  1.7633
27159SOL     OW85068   2.061   3.079   6.427  0.5794 -0.4057  0.3658
27159SOL    HW185069   2.042   2.986   6.413  0.1445 -0.5148  1.5561
27159SOL    HW285070   2.145   3.093   6.383 -0.0299 -1.0012 -1.0692
27160SOL     OW85071   0.022   5.596   8.184  0.1246  0.0710 -0.0463
27160SOL    HW185072  -0.028   5.678   8.186  0.1267  0.0979 -0.8326
27160SOL    HW285073   0.035   5.574   8.276  1.9241  2.0572  0.2406
27161SOL     OW85074   6.532   6.232   9.279 -0.3070 -0.5106  0.0291
27161SOL    HW185075   6.478   6.293   9.329  0.5160  1.5151 -1.4638
27161SOL    HW285076   6.529   6.264   9.189  1.0357 -2.0442 -0.6107
27162SOL     OW85077   6.917   6.298   6.939  0.1813 -0.6588 -0.3479
27162SOL    HW185078   6.841   6.353   6.961  1.3513  0.6647  0.5533
27162SOL    HW285079   6.992   6.358   6.942  1.2256 -1.8258 -1.7319
27163SOL     OW85080   9.709   3.077   2.870 -0.3577 -0.2617 -0.8783
27163SOL    HW185081   9.641   3.056   2.806  0.3731 -1.4429 -1.2821
27163SOL    HW285082   9.667   3.061   2.955 -1.0238  0.3857 -1.0722
27164SOL     OW85083   7.665   8.972   7.201  0.0811 -0.9583 -0.2789
27164SOL    HW185084   7.741   9.023   7.230  0.2985 -1.6995  0.5331
27164SOL    HW285085   7.703   8.890   7.168 -0.2984 -0.8543 -0.9911
27165SOL     OW85086   9.689   7.280   3.568  0.0298 -0.0923 -0.1210
27165SOL    HW185087   9.747   7.247   3.500  0.3045 -0.2826  0.2080
27165SOL    HW285088   9.714   7.372   3.579  1.4087 -0.5965  1.1971
27166SOL     OW85089   7.759   0.438   0.925 -0.2200  0.3317 -0.0358
27166SOL    HW185090   7.671   0.438   0.964 -0.4151  2.4386 -0.3204
27166SOL    HW285091   7.810   0.495   0.983  1.6617 -2.5486  1.3867
27167SOL     OW85092   0.511   2.396   3.565 -0.0814  0.5580  0.0478
27167SOL    HW185093   0.471   2.435   3.488 -2.0263 -0.7914  0.2863
27167SOL    HW285094   0.533   2.470   3.621 -1.5119  1.4301 -0.4904
27168SOL     OW85095   7.944   7.686   1.136  0.0475  0.3064  0.1670
27168SOL    HW185096   7.910   7.613   1.083  0.2108  0.9745 -0.8913
27168SOL    HW285097   7.897   7.679   1.219  0.9880 -1.7788  0.6004
27169SOL     OW85098   3.417   9.056   0.549 -0.0553  0.3963  0.4760
27169SOL    HW185099   3.459   9.123   0.602  1.6880  0.2999 -0.6866
27169SOL    HW285100   3.340   9.099   0.511  1.7112  2.1980 -1.2515
27170SOL     OW85101   7.615   9.683   6.760  0.2921 -0.4632  0.2321
27170SOL    HW185102   7.706   9.712   6.752 -0.0881  1.6360  2.3561
27170SOL    HW285103   7.605   9.616   6.693  3.0063  0.2196 -0.9766
27171SOL     OW85104   1.193   3.400   4.217 -0.4016 -0.4988 -0.0825
27171SOL    HW185105   1.135   3.400   4.141 -0.0049  1.3297 -0.4149
27171SOL    HW285106   1.271   3.448   4.189  0.6508 -1.5782  0.8433
27172SOL     OW85107   7.431   1.680   4.727  0.1819 -0.4669  0.4290
27172SOL    HW185108   7.421   1.633   4.810  1.8207  0.0325  0.9372
27172SOL    HW285109   7.506   1.638   4.684  0.4562  0.4320  0.0128
27173SOL     OW85110  10.375  10.417   6.390  0.7832  0.0051 -0.6639
27173SOL    HW185111  10.291  10.395   6.350  1.4338 -2.6788 -0.7327
27173SOL    HW285112  10.429  10.447   6.316  0.3592  0.3085 -0.8576
27174SOL     OW85113   3.306   4.123   1.716  0.2370  0.0707 -0.7527
27174SOL    HW185114   3.257   4.064   1.773  1.4972  1.2449  1.7100
27174SOL    HW285115   3.398   4.097   1.727  0.5712  0.7469 -1.7626
27175SOL     OW85116   5.349   3.922   4.389  0.2238 -0.6921 -0.4044
27175SOL    HW185117   5.298   4.003   4.398 -0.0268 -0.9487  0.6459
27175SOL    HW285118   5.292   3.855   4.427  1.7466 -0.8226  1.8256
27176SOL     OW85119  10.122   5.781   4.041 -0.5747 -0.0633  0.4343
27176SOL    HW185120  10.159   5.696   4.016  0.8272  0.1869  1.5506
27176SOL    HW285121  10.196   5.832   4.073 -1.2565  1.8509 -0.8210
27177SOL     OW85122   0.130   9.652   3.666  0.2516 -0.5821  0.8077
27177SOL    HW185123   0.052   9.627   3.716 -0.6933  0.9918  0.2004
27177SOL    HW285124   0.112   9.625   3.576 -0.3713  1.2397  0.3324
27178SOL     OW85125   6.073   3.251   4.798  0.4533 -0.3846  0.1662
27178SOL    HW185126   6.105   3.333   4.835 -0.0904  0.2754 -0.7868
27178SOL    HW285127   6.150   3.195   4.794  0.9368  0.2536  0.3588
27179SOL     OW85128   3.275   8.682   2.256  0.6394  0.4005  0.2096
27179SOL    HW185129   3.193   8.717   2.221 -1.2685 -1.3420  2.5562
27179SOL    HW285130   3.329   8.759   2.273 -0.7578  1.6564 -0.7946
27180SOL     OW85131   3.979  10.178   5.373  0.0401  0.5848  0.2426
27180SOL    HW185132   4.075  10.174   5.366  0.2584  1.7453  1.9533
27180SOL    HW285133   3.955  10.259   5.328 -0.2361 -0.0322 -0.7544
27181SOL     OW85134   4.140  10.585   4.333 -0.1550  0.1973  0.1799
27181SOL    HW185135   4.227  10.594   4.371 -0.2690  0.4509  0.3873
27181SOL    HW285136   4.152  10.602   4.240  0.4816 -2.3524 -0.2929
27182SOL     OW85137  10.480   7.757   2.551 -0.2112  0.4369 -0.2104
27182SOL    HW185138  10.476   7.664   2.575 -2.7241  0.6862  0.5792
27182SOL    HW285139  10.447   7.803   2.628  3.0969  2.2531  0.3123
27183SOL     OW85140   5.800   1.438   4.429  0.3425 -0.5148  0.3609
27183SOL    HW185141   5.752   1.357   4.447  0.4279 -0.2913  1.7287
27183SOL    HW285142   5.791   1.489   4.510  0.6442  0.6611 -0.3286
27184SOL     OW85143   8.015   2.311   8.143  0.0945  0.1376  0.0462
27184SOL    HW185144   8.057   2.391   8.174 -1.0842  0.8575 -0.1737
27184SOL    HW285145   7.930   2.340   8.109 -0.4930 -1.2550  0.2819
27185SOL     OW85146   9.162   0.420   0.570 -0.0923 -0.1062 -0.0811
27185SOL    HW185147   9.178   0.359   0.497  0.8175 -0.1387  0.1398
27185SOL    HW285148   9.067   0.429   0.572 -0.1902 -0.8487 -0.6709
27186SOL     OW85149   3.216   3.541   9.869  0.3067  0.4851 -0.2816
27186SOL    HW185150   3.244   3.531   9.778  0.3814  1.7779 -0.4195
27186SOL    HW285151   3.217   3.452   9.904 -0.9340 -0.2208 -1.8882
27187SOL     OW85152   4.199  10.426   0.005 -0.1695  0.2391  0.4981
27187SOL    HW185153   4.169  10.517   0.004  0.5708  0.5012 -1.2938
27187SOL    HW285154   4.152  10.384  -0.068  0.0250 -0.6312  0.8604
27188SOL     OW85155   5.602   9.549   8.362  0.2427 -0.6984  0.2454
27188SOL    HW185156   5.665   9.560   8.433 -1.4098 -0.8892  1.8250
27188SOL    HW285157   5.641   9.594   8.287  0.8649  1.9427  2.0416
27189SOL     OW85158   7.749  11.018   7.520 -0.7058 -0.0267  0.3036
27189SOL    HW185159   7.732  11.111   7.535 -0.8418  0.4248 -2.2480
27189SOL    HW285160   7.844  11.012   7.511 -0.7908  0.1166 -0.8198
27190SOL     OW85161   7.660   6.767   2.138  0.7017 -0.3076 -0.4233
27190SOL    HW185162   7.682   6.772   2.231  2.0304  0.3647 -0.7585
27190SOL    HW285163   7.678   6.676   2.114  0.7899 -0.3674 -0.1273
27191SOL     OW85164   2.313   7.880   0.306 -0.2149  0.1143 -0.7126
27191SOL    HW185165   2.247   7.930   0.259 -0.3166  0.8041  0.1460
27191SOL    HW285166   2.382   7.864   0.241  0.4844  2.5857 -0.6619
27192SOL     OW85167   4.393   6.479   8.096  0.2081  0.2933 -0.2584
27192SOL    HW185168   4.436   6.523   8.170  0.3476 -0.2086 -0.0345
27192SOL    HW285169   4.441   6.397   8.086  1.6216  1.2747 -2.3069
27193SOL     OW85170   4.926   3.741   9.642  0.1406  0.2304  0.2491
27193SOL    HW185171   4.835   3.749   9.614 -0.0827 -0.9389  0.6000
27193SOL    HW285172   4.931   3.792   9.723 -0.3975 -0.3189  0.6356
27194SOL     OW85173   8.121   8.807   9.477 -0.0097 -0.1561  0.1849
27194SOL    HW185174   8.055   8.779   9.540 -0.6883  0.3733 -0.2726
27194SOL    HW285175   8.102   8.756   9.398  1.7123 -1.8639  0.8130
27195SOL     OW85176   1.400   5.956   8.836  0.0709  0.1358 -0.3708
27195SOL    HW185177   1.346   5.968   8.759 -0.3405  0.7175 -0.0003
27195SOL    HW285178   1.478   6.010   8.820  0.3210 -0.3152 -0.6903
27196SOL     OW85179   7.427   2.995   2.066  0.1789  0.4169  0.1540
27196SOL    HW185180   7.393   3.085   2.066 -2.1804 -0.4141 -0.4648
27196SOL    HW285181   7.350   2.940   2.074  1.5986 -1.5910  0.7328
27197SOL     OW85182   8.310   2.298   6.526  0.1209 -0.1388 -0.7445
27197SOL    HW185183   8.355   2.259   6.601 -1.0843 -1.0653 -0.4718
27197SOL    HW285184   8.267   2.376   6.563  2.1755  1.3029 -1.2015
27198SOL     OW85185   2.849   0.331   2.000 -0.0313  0.2146  0.5823
27198SOL    HW185186   2.837   0.244   1.962  0.0351  0.8535 -0.9633
27198SOL    HW285187   2.761   0.359   2.025 -0.4808  0.8144 -1.5075
27199SOL     OW85188   5.355   3.471   5.847  0.6580 -0.3954  0.6437
27199SOL    HW185189   5.375   3.548   5.794  0.7140 -0.5684  0.4075
27199SOL    HW285190   5.441   3.437   5.874  0.7214 -1.3096 -0.6162
27200SOL     OW85191  10.842   0.688   8.467  0.1444  0.1822 -0.6595
27200SOL    HW185192  10.811   0.775   8.492  1.1230  1.0435 -2.2560
27200SOL    HW285193  10.793   0.628   8.522 -0.8252  1.7296  0.2257
27201SOL     OW85194  10.071   2.283   9.144 -0.1726 -0.6122 -0.1266
27201SOL    HW185195  10.164   2.298   9.131 -0.1081 -0.1953  0.7927
27201SOL    HW285196  10.057   2.192   9.117  0.6142 -0.8776  0.3470
27202SOL     OW85197   8.625   9.459   8.978  0.6538 -0.5690  0.0708
27202SOL    HW185198   8.680   9.420   8.909  0.2215 -2.1686  0.5915
27202SOL    HW285199   8.535   9.447   8.946  0.4363 -1.5872  1.0178
27203SOL     OW85200   9.432   4.963   7.167  0.3315 -0.1006 -0.3707
27203SOL    HW185201   9.426   4.874   7.132  0.8994 -0.8181  1.2790
27203SOL    HW285202   9.523   4.971   7.195  0.6074  1.4429 -1.5565
27204SOL     OW85203   4.923   7.350   5.598 -0.5861  0.1270 -0.3974
27204SOL    HW185204   4.872   7.297   5.659 -2.4310 -1.2749 -2.9597
27204SOL    HW285205   4.875   7.433   5.594 -1.3389 -0.3248 -1.0136
27205SOL     OW85206   9.718   5.745   6.555 -0.7821 -0.0140 -0.0528
27205SOL    HW185207   9.774   5.816   6.524 -0.4847 -0.2069  0.0319
27205SOL    HW285208   9.725   5.750   6.650  0.6613 -1.2493 -0.0494
27206SOL     OW85209  10.527   3.655   2.739  0.1768 -0.5047  0.4821
27206SOL    HW185210  10.464   3.720   2.705 -1.6895 -2.6872 -0.4995
27206SOL    HW285211  10.597   3.654   2.675 -0.2581 -0.1506 -0.0099
27207SOL     OW85212   3.435   1.349   4.428  0.3449 -0.2888  0.0762
27207SOL    HW185213   3.527   1.347   4.403 -0.0219 -0.8597 -1.2687
27207SOL    HW285214   3.387   1.337   4.347 -0.9632  1.2310  0.5619
27208SOL     OW85215   0.665   2.154   7.701 -0.0287 -0.1817 -0.4278
27208SOL    HW185216   0.614   2.197   7.770  0.7249  1.9726 -1.1310
27208SOL    HW285217   0.626   2.185   7.619  1.4263  0.3301 -0.9659
27209SOL     OW85218   0.396   2.747  10.363  0.2490  0.5325 -0.3839
27209SOL    HW185219   0.468   2.684  10.369  1.2536  1.5509 -1.3065
27209SOL    HW285220   0.331   2.705  10.307  0.1043 -0.3998  0.4595
27210SOL     OW85221   5.339   5.475   3.003  0.0518 -0.3240  0.3673
27210SOL    HW185222   5.396   5.542   3.041 -0.8747  0.7788 -0.1103
27210SOL    HW285223   5.398   5.408   2.971  1.4442  2.3024 -3.1985
27211SOL     OW85224   9.675   2.441   8.288  0.3662  0.2177 -0.1510
27211SOL    HW185225   9.606   2.403   8.342 -1.1033  0.8466 -1.5279
27211SOL    HW285226   9.666   2.398   8.203  1.4638  0.5466 -0.4521
27212SOL     OW85227   6.705   1.399   9.383 -0.0834  0.2866  0.2614
27212SOL    HW185228   6.690   1.307   9.409 -0.3627  0.8429  2.2614
27212SOL    HW285229   6.772   1.394   9.316 -1.7917 -1.5601 -1.4570
27213SOL     OW85230   7.056   1.060  10.818 -0.1470  0.2559  0.4259
27213SOL    HW185231   7.099   1.012  10.747 -0.3423  1.0142 -0.2158
27213SOL    HW285232   7.006   0.994  10.865  0.1140 -0.2803 -0.0430
27214SOL     OW85233   4.543   0.913   0.561  0.9714  0.1007 -0.2058
27214SOL    HW185234   4.465   0.859   0.573  1.8183 -1.5558 -1.6694
27214SOL    HW285235   4.521   0.973   0.490  1.1039 -0.5695 -0.8230
27215SOL     OW85236   4.919   6.964   6.176 -0.7147 -1.2304  0.0045
27215SOL    HW185237   4.835   6.925   6.151 -1.0021 -1.1493  0.7979
27215SOL    HW285238   4.966   6.975   6.094 -1.8848 -0.3157 -0.5655
27216SOL     OW85239   1.110   7.118   9.706  0.0942  0.5099  0.2611
27216SOL    HW185240   1.178   7.078   9.760 -2.0116 -2.5146  0.9491
27216SOL    HW285241   1.112   7.069   9.624  0.1277  1.8558 -0.5785
27217SOL     OW85242   0.604   7.181   4.300 -0.0090  0.1779  0.0351
27217SOL    HW185243   0.647   7.256   4.259  0.4888 -0.4815 -0.6616
27217SOL    HW285244   0.629   7.188   4.393 -0.5268  1.2420  0.1204
27218SOL     OW85245   2.203   5.124   4.609  0.1486 -0.6373 -0.7597
27218SOL    HW185246   2.282   5.080   4.642 -0.5982 -1.6053 -0.2012
27218SOL    HW285247   2.131   5.073   4.646 -0.7441  0.5144 -0.8847
27219SOL     OW85248   8.129   4.850   5.386 -0.4733  0.1660  0.5352
27219SOL    HW185249   8.203   4.797   5.358 -0.7492 -0.2651  0.6183
27219SOL    HW285250   8.051   4.799   5.362 -0.7600  0.8084  0.0484
27220SOL     OW85251   6.787  10.123   5.330 -0.1252  1.0951  0.2999
27220SOL    HW185252   6.833  10.174   5.397  2.0346 -2.5446  1.9139
27220SOL    HW285253   6.706  10.095   5.372  0.0345  0.8660  0.4537
27221SOL     OW85254   8.787  10.805   0.797  0.5012 -0.3050  0.1374
27221SOL    HW185255   8.809  10.806   0.704 -0.2758 -2.5338 -0.1326
27221SOL    HW285256   8.858  10.755   0.838  0.3044 -0.2318  0.5751
27222SOL     OW85257   7.816   4.080   3.909  0.4214 -0.2846 -0.2909
27222SOL    HW185258   7.815   4.174   3.893  0.9656 -0.2808 -0.3181
27222SOL    HW285259   7.879   4.068   3.981 -0.9833 -0.4469  0.9538
27223SOL     OW85260   2.229  11.030   2.956  0.6008 -0.0296 -0.4548
27223SOL    HW185261   2.136  11.021   2.976  1.3144 -1.9364  2.7635
27223SOL    HW285262   2.241  10.982   2.874 -1.0593 -0.7636 -0.3108
27224SOL     OW85263   6.093   0.479   0.265 -0.1413  0.4333  0.3773
27224SOL    HW185264   6.021   0.539   0.287 -0.6253  0.1657 -0.4491
27224SOL    HW285265   6.071   0.398   0.312  0.1049  0.6383  0.8585
27225SOL     OW85266   2.625   7.485   6.331 -0.7827  0.3328 -0.1373
27225SOL    HW185267   2.684   7.526   6.267  0.5966 -0.2757  0.7109
27225SOL    HW285268   2.564   7.554   6.355  1.5746  2.0063  1.3853
27226SOL     OW85269   7.021   3.670   1.153  0.1993 -0.5614  0.3248
27226SOL    HW185270   7.082   3.652   1.081  0.0756 -0.5374  0.2128
27226SOL    HW285271   7.075   3.666   1.232  0.0840 -1.9505  0.3591
27227SOL     OW85272   0.101   6.029   4.833  0.4035  0.0193 -0.1750
27227SOL    HW185273   0.087   5.978   4.913  0.9379 -1.5070 -1.0216
27227SOL    HW285274   0.183   6.075   4.848  1.2823 -1.4218 -0.3930
27228SOL     OW85275   8.375   7.984  10.656  0.1406  0.1875 -0.2467
27228SOL    HW185276   8.398   8.000  10.748 -1.8698 -0.1929  0.3600
27228SOL    HW285277   8.309   8.050  10.636  0.3332  0.0615 -1.3433
27229SOL     OW85278   5.241   9.046   6.303 -0.7600 -0.3896 -0.1402
27229SOL    HW185279   5.283   9.085   6.379 -0.0750 -0.8180 -0.2972
27229SOL    HW285280   5.160   9.096   6.293  0.5217  1.6754 -0.8980
27230SOL     OW85281   6.805   6.860   4.065 -0.0461 -0.2581 -0.3337
27230SOL    HW185282   6.711   6.844   4.074  0.1838 -2.0911 -0.7838
27230SOL    HW285283   6.840   6.848   4.154  0.0822 -2.2033 -0.6132
27231SOL     OW85284   0.400   5.547   0.798  0.0171 -0.6976 -0.0301
27231SOL    HW185285   0.355   5.630   0.815  0.2897  0.3634 -3.7028
27231SOL    HW285286   0.485   5.557   0.840 -0.4792  0.2332  0.8310
27232SOL     OW85287   9.493  11.047   3.362 -0.2562 -0.0647  0.0101
27232SOL    HW185288   9.451  11.124   3.400  0.5578  0.3936  0.0142
27232SOL    HW285289   9.482  10.978   3.427 -0.6103  0.1733  0.2010
27233SOL     OW85290   3.693   1.751   7.169 -0.2512  0.0215  0.7669
27233SOL    HW185291   3.718   1.672   7.217  0.4359  0.2615  0.8141
27233SOL    HW285292   3.603   1.734   7.140 -0.0755 -0.8175  0.6903
27234SOL     OW85293   3.276   2.824   3.087  0.0975  0.7959  0.2181
27234SOL    HW185294   3.254   2.861   3.002  0.7237  0.0915 -0.2506
27234SOL    HW285295   3.312   2.737   3.068  0.0423  0.5443  1.2090
27235SOL     OW85296   1.801   9.641   0.324  0.5810 -0.0862  0.8628
27235SOL    HW185297   1.860   9.574   0.359 -0.4569 -1.0185  0.8859
27235SOL    HW285298   1.782   9.697   0.399  1.3337  0.1548  0.8814
27236SOL     OW85299   4.731   5.254   7.097 -0.2005  0.1585  0.1249
27236SOL    HW185300   4.778   5.172   7.110 -0.1835  0.0190 -0.7894
27236SOL    HW285301   4.796   5.313   7.058 -0.0655  0.7811  1.2378
27237SOL     OW85302   6.601   8.545   9.356  0.6685 -0.0490 -0.5293
27237SOL    HW185303   6.601   8.514   9.265 -0.9857 -0.7468 -0.3316
27237SOL    HW285304   6.561   8.474   9.405  0.3809  0.8443  0.5652
27238SOL     OW85305   3.776   0.365  10.692 -0.3531 -0.5633  0.3959
27238SOL    HW185306   3.681   0.352  10.702 -0.6056 -0.9679 -1.9614
27238SOL    HW285307   3.785   0.455  10.662  0.1250 -0.1883  1.6206
27239SOL     OW85308   3.402   1.775   2.316 -0.1987 -0.0461 -0.3709
27239SOL    HW185309   3.326   1.792   2.259 -0.7329 -1.0261  0.0236
27239SOL    HW285310   3.448   1.702   2.273 -1.4158 -1.8042  1.1490
27240SOL     OW85311   4.873  10.198   6.467  0.4153 -0.3997 -0.0772
27240SOL    HW185312   4.949  10.252   6.489  0.2025 -0.2802  0.3640
27240SOL    HW285313   4.903  10.108   6.484  1.1791 -0.5464 -1.9781
27241SOL     OW85314  10.913   2.785   1.593  0.4344 -0.2232  0.1029
27241SOL    HW185315  10.890   2.876   1.574 -0.7867  0.1825  2.9478
27241SOL    HW285316  11.009   2.784   1.590  0.4728  1.1850  0.0154
27242SOL     OW85317   0.808   4.191   9.152 -0.3802  0.1078  0.0223
27242SOL    HW185318   0.716   4.213   9.161 -0.5657 -0.6295  0.0334
27242SOL    HW285319   0.854   4.252   9.211 -1.0029 -0.5056  1.1719
27243SOL     OW85320  10.886   8.727  10.844  0.4707  0.0576 -0.0910
27243SOL    HW185321  10.798   8.698  10.865  0.6280  0.2903  0.9902
27243SOL    HW285322  10.874   8.808  10.794  0.0685 -0.1883 -0.3915
27244SOL     OW85323   1.124   5.846   2.349  0.0604 -0.6539 -0.3349
27244SOL    HW185324   1.128   5.761   2.305  0.0394 -0.9544  0.2412
27244SOL    HW285325   1.073   5.830   2.429 -0.9258  0.1403 -0.7710
27245SOL     OW85326   7.588   8.165   7.981  0.7822 -0.1965 -0.5324
27245SOL    HW185327   7.563   8.249   7.941  1.2712  0.5119  0.5984
27245SOL    HW285328   7.674   8.146   7.945  1.2204  0.4378  0.1491
27246SOL     OW85329   6.690   0.895   1.716  0.0153  0.0999  0.6346
27246SOL    HW185330   6.605   0.852   1.719  1.1081 -2.3564 -0.5796
27246SOL    HW285331   6.744   0.846   1.777  1.0252  0.4702  0.0637
27247SOL     OW85332   4.035  10.256   0.508 -0.1260  0.1163 -0.2859
27247SOL    HW185333   3.996  10.274   0.422 -0.7756 -0.8901 -0.2151
27247SOL    HW285334   4.099  10.326   0.520  1.6047 -0.9563 -2.5776
27248SOL     OW85335   5.125   1.309   5.227  0.2286 -0.7308 -0.4950
27248SOL    HW185336   5.068   1.321   5.151  0.5812  1.3571 -0.4856
27248SOL    HW285337   5.142   1.215   5.230 -1.5105 -1.1221 -1.7283
27249SOL     OW85338   0.207  10.335   5.364  0.1002  0.2991  1.0550
27249SOL    HW185339   0.131  10.374   5.323 -0.8595 -0.5132  1.9819
27249SOL    HW285340   0.260  10.409   5.393 -0.5540  0.8767  0.7878
27250SOL     OW85341  10.529   1.712   1.203  0.5670  0.2351  0.0021
27250SOL    HW185342  10.532   1.802   1.169 -1.7533  0.6986  0.8120
27250SOL    HW285343  10.569   1.718   1.290 -1.5908  1.0901  1.0370
27251SOL     OW85344  11.070   2.244   8.665 -0.3994  0.0719 -0.1150
27251SOL    HW185345  11.114   2.304   8.726  0.3794 -0.3798 -0.2155
27251SOL    HW285346  11.131   2.171   8.654  0.4259  1.0195 -2.9183
27252SOL     OW85347   3.340   3.947   7.319  0.1503  0.5014  0.0472
27252SOL    HW185348   3.292   3.900   7.388 -0.7172  0.1927 -0.7427
27252SOL    HW285349   3.422   3.973   7.360 -0.5086  0.6517  1.3081
27253SOL     OW85350   3.739   8.578   0.500 -0.3658  0.2384 -0.3123
27253SOL    HW185351   3.754   8.672   0.512  2.3938  0.1415 -2.1755
27253SOL    HW285352   3.676   8.573   0.428 -0.1677  0.6765 -0.5209
27254SOL     OW85353   1.988   6.316   2.617 -0.3908 -0.4028  0.1685
27254SOL    HW185354   2.053   6.341   2.552  0.3178 -1.0440  0.6167
27254SOL    HW285355   1.978   6.393   2.672 -0.9413  0.1211 -0.6331
27255SOL     OW85356   8.202   6.896   5.499  0.1024  0.4490 -0.4000
27255SOL    HW185357   8.231   6.987   5.498  0.6304  0.3012  0.1780
27255SOL    HW285358   8.275   6.849   5.540 -0.8121  0.0019  0.7773
27256SOL     OW85359  10.671   0.306  10.433 -0.2971 -0.4063 -0.2222
27256SOL    HW185360  10.703   0.394  10.411  1.7192 -1.1926 -0.7216
27256SOL    HW285361  10.696   0.252  10.358 -0.2976 -1.6597  0.6460
27257SOL     OW85362   7.401   0.957   8.390 -0.6992  0.3553  0.1340
27257SOL    HW185363   7.344   0.997   8.455 -1.4397 -2.2598  1.2526
27257SOL    HW285364   7.478   0.930   8.439  0.1457  1.1034 -0.7469
27258SOL     OW85365  10.251   3.296   6.831 -0.2883  0.1874 -0.3890
27258SOL    HW185366  10.253   3.209   6.870 -0.1331  1.0529  1.6226
27258SOL    HW285367  10.169   3.335   6.861  0.9676  1.7762  1.2632
27259SOL     OW85368   9.950   9.085  11.106 -0.0694 -0.3161 -0.1258
27259SOL    HW185369   9.914   9.001  11.134 -0.3050 -0.4270 -0.7703
27259SOL    HW285370  10.028   9.096  11.161  0.5556 -1.4478 -0.7511
27260SOL     OW85371   8.917   7.192   3.903  0.2960 -0.2877  0.1005
27260SOL    HW185372   8.978   7.256   3.940  1.7108  0.0764 -2.6277
27260SOL    HW285373   8.843   7.192   3.964  1.7506  1.3620  2.0214
27261SOL     OW85374   7.967   9.608   8.223  0.3212 -0.3114 -0.0506
27261SOL    HW185375   7.898   9.575   8.280 -2.0381  1.3250 -1.8154
27261SOL    HW285376   7.943   9.579   8.135  0.7305  1.9842 -0.9884
27262SOL     OW85377   7.996   1.770   0.957 -0.3624 -0.1104 -0.6615
27262SOL    HW185378   8.008   1.692   0.903  1.2131  0.5110 -1.2878
27262SOL    HW285379   8.045   1.838   0.911 -0.0596  0.7702  0.8958
27263SOL     OW85380   6.105   5.035   8.674  0.1782 -0.0249 -0.2997
27263SOL    HW185381   6.058   5.110   8.712 -2.0313 -1.9540  1.0043
27263SOL    HW285382   6.195   5.046   8.703 -0.2678  1.6866  0.5585
27264SOL     OW85383   4.494   2.790   0.178  0.0103  0.2688 -0.0365
27264SOL    HW185384   4.533   2.710   0.212  0.0514  0.0003 -0.6963
27264SOL    HW285385   4.411   2.799   0.224 -0.4630 -0.6938 -0.6826
27265SOL     OW85386   0.789   8.559   8.754 -0.7631  0.1815  1.2051
27265SOL    HW185387   0.813   8.555   8.847 -1.5722  0.6236  1.4430
27265SOL    HW285388   0.698   8.530   8.751 -0.6843 -0.0132  0.5226
27266SOL     OW85389   2.149   9.843   2.705  0.0064 -0.2394 -0.8039
27266SOL    HW185390   2.128   9.842   2.798 -0.0014  1.3923 -0.7565
27266SOL    HW285391   2.244   9.858   2.702  0.7449 -3.9415 -1.0699
27267SOL     OW85392   6.544  10.113   0.362 -0.0084  0.4547 -0.2034
27267SOL    HW185393   6.457  10.132   0.328  0.2313 -0.8222 -1.6434
27267SOL    HW285394   6.530  10.048   0.430 -0.2159  0.6167 -0.0908
27268SOL     OW85395   6.102   9.612   8.126  0.0392  0.5149 -0.0341
27268SOL    HW185396   6.094   9.705   8.105 -0.2179  0.3323 -0.7664
27268SOL    HW285397   6.142   9.611   8.213 -0.6019  1.3203  0.2894
27269SOL     OW85398   1.202  10.716   6.865 -0.2870 -0.4413 -0.0790
27269SOL    HW185399   1.214  10.809   6.845  0.2807 -0.1120  1.5933
27269SOL    HW285400   1.280  10.673   6.830 -1.0144 -0.4580 -1.7292
27270SOL     OW85401   8.969   3.355   1.535  0.5385 -0.4736  0.0194
27270SOL    HW185402   8.922   3.273   1.523  0.8216 -0.4755 -1.2347
27270SOL    HW285403   8.929   3.395   1.613 -1.9933 -0.1461 -1.3452
27271SOL     OW85404  10.178   4.938   0.743 -0.3319 -0.4924  0.0153
27271SOL    HW185405  10.104   4.925   0.684 -0.7985 -0.8437  0.6607
27271SOL    HW285406  10.255   4.922   0.689 -0.7693 -1.6519 -0.3021
27272SOL     OW85407   8.529  10.036   0.124  0.5844  0.0831 -0.0653
27272SOL    HW185408   8.437  10.047   0.101  0.3795 -0.5550  0.4404
27272SOL    HW285409   8.543  10.097   0.196  0.3287 -0.4412  0.4365
27273SOL     OW85410   1.954  10.298   6.991  0.1150  0.0293 -0.3978
27273SOL    HW185411   1.870  10.265   6.960  0.7192 -1.3742 -0.5895
27273SOL    HW285412   1.961  10.267   7.081  0.3482  0.2930 -0.3232
27274SOL     OW85413   8.706   8.507   6.102 -0.0449 -0.0860 -0.3564
27274SOL    HW185414   8.711   8.522   6.007  3.0387 -0.7417 -0.4121
27274SOL    HW285415   8.731   8.415   6.112  2.0160  0.5839  1.1992
27275SOL     OW85416   3.964   5.640   1.097 -0.0112  0.4977  0.7357
27275SOL    HW185417   3.938   5.729   1.073  0.7391  0.5189 -0.0455
27275SOL    HW285418   3.942   5.587   1.020  1.4239  0.3752  0.3863
27276SOL     OW85419   0.897   5.968   9.417  0.1629  0.0849 -0.1572
27276SOL    HW185420   0.936   6.004   9.496  3.8214 -1.5498 -0.9827
27276SOL    HW285421   0.885   6.043   9.359  0.8580  0.8605  0.6834
27277SOL     OW85422   8.042   5.694   7.864  0.2966 -0.9139 -0.2552
27277SOL    HW185423   8.091   5.615   7.884 -0.5853 -0.4598  5.0087
27277SOL    HW285424   7.960   5.686   7.914 -0.7908  2.3936 -1.2161
27278SOL     OW85425   6.872   7.451   1.144  0.0549 -0.0546  1.3507
27278SOL    HW185426   6.896   7.392   1.073 -0.4366  0.5319  0.6890
27278SOL    HW285427   6.901   7.538   1.114  1.2014  0.0032  2.5115
27279SOL     OW85428   2.305   4.641   9.096 -0.2650 -0.1330  0.2116
27279SOL    HW185429   2.257   4.668   9.017 -1.2346 -0.9564  0.4960
27279SOL    HW285430   2.268   4.555   9.118  1.5944 -0.9713  0.2498
27280SOL     OW85431   6.482   7.337  10.318 -0.2411 -0.3356 -0.4625
27280SOL    HW185432   6.423   7.277  10.273  1.2070 -0.8697 -1.7434
27280SOL    HW285433   6.455   7.424  10.288  0.7620 -0.6861 -2.5552
27281SOL     OW85434   3.781   1.750   9.334 -0.3640  0.3336 -0.1915
27281SOL    HW185435   3.856   1.697   9.361 -0.1611  0.7762  0.1276
27281SOL    HW285436   3.734   1.695   9.272 -0.3474 -0.3466  0.3914
27282SOL     OW85437   4.827   7.876   3.382 -0.3477  0.0378 -0.0906
27282SOL    HW185438   4.851   7.947   3.442  0.1821 -0.7821  0.6906
27282SOL    HW285439   4.893   7.880   3.313 -0.7698  0.7839 -0.4543
27283SOL     OW85440   9.950   8.089   9.609 -0.2384 -0.3261 -0.4461
27283SOL    HW185441   9.935   8.175   9.570 -0.0074 -0.2922 -0.4627
27283SOL    HW285442  10.042   8.069   9.589 -0.9509 -1.7194 -2.6800
27284SOL     OW85443  10.312   8.024  10.531  0.8484  0.0304 -0.3820
27284SOL    HW185444  10.291   8.088  10.600 -0.7824 -1.1353  0.2798
27284SOL    HW285445  10.365   7.958  10.576 -0.5122 -0.9139 -0.1132
27285SOL     OW85446   6.009  10.049   6.759 -0.2724 -0.5364  0.4485
27285SOL    HW185447   5.994  10.069   6.666 -1.0487  0.6458  0.8068
27285SOL    HW285448   6.101  10.070   6.774 -1.0718  3.3533  0.8637
27286SOL     OW85449   1.054   4.551   8.013  0.0642  0.1048  0.3496
27286SOL    HW185450   1.147   4.570   8.003  0.6025 -1.7400  1.4528
27286SOL    HW285451   1.051   4.460   8.043 -2.0511  0.4873  1.4699
27287SOL     OW85452   4.435   7.212   0.396 -0.0816  0.5520 -0.0834
27287SOL    HW185453   4.381   7.240   0.323 -2.3999  0.4308  1.4766
27287SOL    HW285454   4.417   7.118   0.405  0.1484  0.5677  0.6530
27288SOL     OW85455   1.368   4.196   9.439 -0.5283 -0.5048  0.2843
27288SOL    HW185456   1.367   4.185   9.534  0.2707 -3.6341  0.0484
27288SOL    HW285457   1.278   4.178   9.413 -0.6050 -0.2963  0.4048
27289SOL     OW85458   4.864   5.826   6.571 -0.5121  0.3889  0.1684
27289SOL    HW185459   4.878   5.763   6.642  3.8179  1.8033  0.8732
27289SOL    HW285460   4.915   5.791   6.498 -0.5031  1.5937 -0.4250
27290SOL     OW85461  11.003  10.526  10.645  0.1954  0.5055 -0.0545
27290SOL    HW185462  10.964  10.600  10.598 -0.7534  0.0255 -0.0457
27290SOL    HW285463  10.932  10.462  10.651  0.9007 -0.2569  0.2604
27291SOL     OW85464  10.720   2.934   6.655 -0.2173 -0.3480  0.0866
27291SOL    HW185465  10.766   3.018   6.665 -0.2066 -0.3674  0.1886
27291SOL    HW285466  10.757   2.877   6.722 -0.2736 -0.4141  0.0617
27292SOL     OW85467   2.289  10.543   6.212  0.2914  0.2604 -0.0468
27292SOL    HW185468   2.331  10.597   6.280  0.3526  0.1479  0.0057
27292SOL    HW285469   2.213  10.505   6.256 -0.6703  1.5581 -0.5282
27293SOL     OW85470   1.343  10.812   8.738  0.0612 -0.2227  0.0314
27293SOL    HW185471   1.347  10.783   8.829 -1.4868 -0.1522  0.1424
27293SOL    HW285472   1.348  10.731   8.687 -2.2168 -0.5944  0.2936
27294SOL     OW85473   4.577   7.041   4.824  0.3760  0.1891  0.0568
27294SOL    HW185474   4.670   7.061   4.818  0.4182 -0.3764 -2.0660
27294SOL    HW285475   4.539   7.115   4.871  1.8003  0.7246  0.4085
27295SOL     OW85476   6.499   9.957   1.756 -0.1085 -0.0871 -0.1555
27295SOL    HW185477   6.538  10.039   1.786 -1.1083  1.7817 -3.4138
27295SOL    HW285478   6.568   9.915   1.704 -0.1245 -0.4888  0.1432
27296SOL     OW85479   2.434   8.158   8.327  0.3030  0.0180 -0.4069
27296SOL    HW185480   2.421   8.221   8.256 -0.9406  0.8870  0.5317
27296SOL    HW285481   2.526   8.133   8.321  1.4855  3.5370  0.3993
27297SOL     OW85482   7.063  10.316   3.974  0.4902 -0.2795  0.0340
27297SOL    HW185483   7.018  10.392   3.935  1.7671  0.1257 -0.7125
27297SOL    HW285484   7.108  10.351   4.051  0.7627 -0.3517 -0.0897
27298SOL     OW85485   7.229   2.659   0.099  0.1065 -0.3340  0.5205
27298SOL    HW185486   7.163   2.600   0.062  0.0751  0.1268 -0.1764
27298SOL    HW285487   7.181   2.709   0.165 -0.0102 -0.6606  0.6885
27299SOL     OW85488   0.638   9.066   6.467  0.1132  0.4980  0.0773
27299SOL    HW185489   0.632   9.084   6.373 -0.0239 -0.5889 -0.1324
27299SOL    HW285490   0.568   9.119   6.506 -0.7992 -0.1842 -0.6028
27300SOL     OW85491   3.959   8.465   4.428  0.5144  0.1448 -0.2207
27300SOL    HW185492   3.950   8.544   4.374  0.0741 -0.5914 -1.2632
27300SOL    HW285493   3.870   8.440   4.450  0.5855 -0.5857 -0.7048
27301SOL     OW85494   3.606   1.116   1.861 -0.3084 -0.0006 -0.1781
27301SOL    HW185495   3.567   1.031   1.882  0.0204  0.0331  0.6226
27301SOL    HW285496   3.665   1.133   1.934 -0.5136  1.0102 -0.2400
27302SOL     OW85497   9.858   3.188   0.746  0.2843  0.6181 -0.2064
27302SOL    HW185498   9.901   3.163   0.828  0.5753  0.1105 -0.5074
27302SOL    HW285499   9.776   3.229   0.774  0.1933  0.0927  0.3315
27303SOL     OW85500   2.877   2.692   8.244  0.4682 -0.0445 -0.4790
27303SOL    HW185501   2.972   2.687   8.242  0.4919 -1.5489  1.2361
27303SOL    HW285502   2.855   2.775   8.201  2.4687 -0.1421 -1.7843
27304SOL     OW85503   3.550   2.894   6.193  0.0932 -0.7489 -0.8605
27304SOL    HW185504   3.520   2.848   6.115  1.6435  0.2711 -2.1324
27304SOL    HW285505   3.552   2.828   6.261 -1.4715 -1.6284 -1.6136
27305SOL     OW85506   4.684   3.465   9.559 -0.1200 -0.3470  0.0228
27305SOL    HW185507   4.661   3.558   9.558 -1.7616 -0.7272 -0.7397
27305SOL    HW285508   4.697   3.445   9.651 -2.2663  0.1025  0.4820
27306SOL     OW85509   0.194   7.613   6.571  0.1835 -0.1274 -0.2171
27306SOL    HW185510   0.250   7.562   6.629  1.3101 -0.4846 -1.5533
27306SOL    HW285511   0.162   7.549   6.507 -1.1233  0.2250  0.0602
27307SOL     OW85512   4.782   8.306   3.645  0.8602  0.6220  0.0014
27307SOL    HW185513   4.865   8.282   3.687  0.1747 -0.8721  0.5538
27307SOL    HW285514   4.750   8.225   3.606 -0.2143  1.2386 -0.4339
27308SOL     OW85515  10.569   5.255   8.249 -0.0751 -0.3597  0.1237
27308SOL    HW185516  10.560   5.322   8.182  2.9907 -0.9351 -0.9842
27308SOL    HW285517  10.545   5.300   8.331 -1.9819  0.8784 -1.0383
27309SOL     OW85518   3.652   1.995   0.468 -0.1228 -0.7710  0.3130
27309SOL    HW185519   3.730   1.977   0.521  0.6872 -0.3660 -0.6906
27309SOL    HW285520   3.687   2.028   0.385 -1.3993  1.1683  0.4771
27310SOL     OW85521  10.974   5.279   7.022  0.2122  0.4098 -0.1446
27310SOL    HW185522  10.934   5.273   6.936 -0.0082  0.2465 -0.0320
27310SOL    HW285523  11.007   5.191   7.039  1.9957  0.8867 -0.8922
27311SOL     OW85524   9.088   0.493   2.730 -0.5049 -0.1451 -0.1948
27311SOL    HW185525   9.124   0.410   2.701  1.1177  0.3614  0.2455
27311SOL    HW285526   9.157   0.532   2.784 -1.9166  0.6854  1.1094
27312SOL     OW85527   2.321   0.309   4.037  0.3879  0.5277  0.7493
27312SOL    HW185528   2.325   0.280   4.128  0.3318  2.2897  1.3328
27312SOL    HW285529   2.317   0.404   4.041  1.6084  0.7259 -1.1268
27313SOL     OW85530   7.609   2.576   1.955 -0.2471 -0.4871 -0.1096
27313SOL    HW185531   7.644   2.488   1.970 -0.4555 -0.9340 -2.0583
27313SOL    HW285532   7.562   2.597   2.036  0.6979 -1.7046  0.8037
27314SOL     OW85533  10.021   7.506  10.650  0.1997 -0.3114  0.3783
27314SOL    HW185534  10.102   7.533  10.607 -0.8795  0.7381 -1.0902
27314SOL    HW285535  10.016   7.561  10.728  0.7156 -0.1032  0.2692
27315SOL     OW85536   9.167   7.363   7.376 -0.4019 -0.3550  0.8349
27315SOL    HW185537   9.253   7.405   7.374 -0.0026 -1.0713  1.9153
27315SOL    HW285538   9.128   7.385   7.292  1.6459 -1.6352 -0.5477
27316SOL     OW85539   6.198   8.825   7.376 -0.1627 -0.1018 -0.0296
27316SOL    HW185540   6.147   8.744   7.372 -0.4998  0.1053  0.0183
27316SOL    HW285541   6.152   8.885   7.317 -0.7240  0.4981  0.9847
27317SOL     OW85542   3.870   7.701   3.764  0.6733 -0.4786 -0.2542
27317SOL    HW185543   3.935   7.663   3.822  0.5490  1.1353  1.0271
27317SOL    HW285544   3.912   7.778   3.726 -0.3553  0.4450  0.3936
27318SOL     OW85545   5.349  11.098  10.390 -0.2482  0.3926 -0.3311
27318SOL    HW185546   5.381  11.022  10.439 -1.3483  0.5790  0.7116
27318SOL    HW285547   5.303  11.061  10.315  0.0957  0.0656 -0.3864
27319SOL     OW85548   0.594   9.789   5.280  0.2832  0.2482  0.5478
27319SOL    HW185549   0.581   9.694   5.286 -0.5701  0.2485 -0.8646
27319SOL    HW285550   0.671   9.800   5.224  1.3587  0.3886  2.0070
27320SOL     OW85551   6.177   6.709  10.215 -0.0898  0.1421  0.4052
27320SOL    HW185552   6.190   6.797  10.251  0.4225 -0.3605  1.5172
27320SOL    HW285553   6.109   6.720  10.149  0.4604  1.4923  0.0162
27321SOL     OW85554   3.601   9.053  10.861 -0.2745  0.2179 -0.1054
27321SOL    HW185555   3.557   9.017  10.939  0.9571  1.1365  1.0581
27321SOL    HW285556   3.680   9.001  10.851  0.4908  1.2442  0.3758
27322SOL     OW85557   0.309   2.038   9.596  0.7376  0.5462 -0.5604
27322SOL    HW185558   0.394   2.015   9.560  0.4625 -1.5999 -0.0049
27322SOL    HW285559   0.255   1.960   9.581 -1.0488  1.7508 -0.6623
27323SOL     OW85560   6.879   2.995   3.986  0.1826 -0.5254  0.6269
27323SOL    HW185561   6.920   3.070   3.942 -0.1340 -1.0471 -0.5963
27323SOL    HW285562   6.853   3.029   4.072  1.1180  0.4296  0.5595
27324SOL     OW85563   6.707   1.150   3.548  0.2122  0.7197  0.0019
27324SOL    HW185564   6.755   1.069   3.561 -0.9396  0.0189  0.0654
27324SOL    HW285565   6.763   1.218   3.586  0.3959 -0.2746  1.5862
27325SOL     OW85566   1.307   0.129   9.579 -0.2823  0.3715 -0.0264
27325SOL    HW185567   1.251   0.066   9.625  0.3377  1.8748  3.0392
27325SOL    HW285568   1.396   0.098   9.595 -0.0561  0.8074 -0.4310
27326SOL     OW85569   3.160   8.411   8.914 -0.8613 -0.4979  0.2011
27326SOL    HW185570   3.089   8.401   8.977 -0.2965 -1.5789  0.7028
27326SOL    HW285571   3.145   8.343   8.848  0.4291 -1.6745  1.0565
27327SOL     OW85572   2.827   0.168   9.800  0.2968  0.5815 -0.2958
27327SOL    HW185573   2.811   0.187   9.707 -0.3793  0.9707 -0.1021
27327SOL    HW285574   2.744   0.187   9.843  0.8311  1.1275  0.5090
27328SOL     OW85575   9.654   1.165  10.303 -0.0629 -0.2450  0.3698
27328SOL    HW185576   9.588   1.129  10.245  0.2357 -1.8864  0.9867
27328SOL    HW285577   9.646   1.114  10.384 -0.2359  1.7185  1.6693
27329SOL     OW85578   5.618   8.159   0.208 -0.3388 -0.3163 -0.1129
27329SOL    HW185579   5.560   8.208   0.149 -1.5387 -3.0218 -1.3352
27329SOL    HW285580   5.705   8.171   0.170 -1.1491 -2.4937 -2.9664
27330SOL     OW85581   0.193   4.706   1.394 -0.2625  0.1187  0.5483
27330SOL    HW185582   0.273   4.654   1.382  0.9037  1.6513  1.4190
27330SOL    HW285583   0.162   4.722   1.305  0.2115 -0.7671  0.2089
27331SOL     OW85584   6.249   8.704   5.401  0.1764 -0.6884  0.1412
27331SOL    HW185585   6.297   8.670   5.476 -3.4441 -2.0622  2.1343
27331SOL    HW285586   6.178   8.756   5.440 -0.2906  0.8716 -2.5138
27332SOL     OW85587   9.302   9.721   7.986 -0.2363  0.2032 -0.2690
27332SOL    HW185588   9.277   9.773   8.062  1.1926  0.9514 -0.2835
27332SOL    HW285589   9.262   9.635   8.002 -0.7536  0.6299  0.8540
27333SOL     OW85590   5.385   0.282   0.739 -0.4126  0.2459  0.0566
27333SOL    HW185591   5.409   0.370   0.708  0.3435  0.8425  2.1627
27333SOL    HW285592   5.384   0.228   0.660  4.0114  1.0540 -0.8402
27334SOL     OW85593   8.904   4.823   1.784  0.7063 -0.0878 -0.1792
27334SOL    HW185594   8.925   4.742   1.737 -0.0921 -0.9357  0.8748
27334SOL    HW285595   8.825   4.856   1.740  0.4335 -0.4395  0.0410
27335SOL     OW85596  10.597   3.191   1.421  0.0851 -0.0140 -0.3847
27335SOL    HW185597  10.558   3.136   1.354  0.3984  0.0698 -0.6407
27335SOL    HW285598  10.587   3.142   1.502  0.2187 -0.3733 -0.5860
27336SOL     OW85599  11.035   0.242   3.618 -0.4662  0.2645 -0.6324
27336SOL    HW185600  11.098   0.272   3.553  1.3164 -0.4382  0.6960
27336SOL    HW285601  11.077   0.259   3.702 -2.1412 -0.0587  0.3182
27337SOL     OW85602   8.129  11.108   4.705 -0.3607  0.9955  0.6410
27337SOL    HW185603   8.127  11.036   4.769 -0.4530  1.8880  1.6742
27337SOL    HW285604   8.051  11.095   4.652 -0.3934  0.3451  0.8346
27338SOL     OW85605   7.487   6.345   4.608  0.3594 -0.3090  0.0301
27338SOL    HW185606   7.487   6.255   4.640 -1.0499 -0.3560 -0.0463
27338SOL    HW285607   7.529   6.395   4.677  1.7175 -1.1023 -0.1931
27339SOL     OW85608   5.032   4.834   2.458 -0.1600 -0.8317 -0.5350
27339SOL    HW185609   5.009   4.926   2.467 -0.6009 -1.0345  0.5652
27339SOL    HW285610   5.045   4.821   2.364 -0.6795  0.2043 -0.7584
27340SOL     OW85611   6.657   1.748   6.312 -0.4611 -0.0133  0.1212
27340SOL    HW185612   6.635   1.836   6.344 -2.3158  0.8402 -3.0377
27340SOL    HW285613   6.576   1.698   6.320  0.2605 -1.0995  0.7950
27341SOL     OW85614   8.684   8.335   7.390  0.0925 -0.2287 -0.8735
27341SOL    HW185615   8.756   8.299   7.338  0.3420 -1.1711  0.0929
27341SOL    HW285616   8.718   8.339   7.479 -0.7428  0.2074 -0.5609
27342SOL     OW85617   0.452   2.858   0.767  0.6676 -0.0782 -0.5985
27342SOL    HW185618   0.511   2.862   0.692  0.8521 -0.1834 -0.4589
27342SOL    HW285619   0.508   2.871   0.843  0.5588 -0.4751 -0.4461
27343SOL     OW85620   7.202   9.331   9.269 -0.5896 -0.6671 -0.4329
27343SOL    HW185621   7.192   9.250   9.318 -0.9597 -0.5986 -0.3909
27343SOL    HW285622   7.235   9.394   9.334  2.9471 -1.5656 -1.1580
27344SOL     OW85623   7.231   6.623   4.395 -0.4010 -0.0543 -0.1319
27344SOL    HW185624   7.199   6.558   4.458  1.1168 -1.6657 -0.9262
27344SOL    HW285625   7.161   6.628   4.329 -0.4171 -1.1788 -0.2329
27345SOL     OW85626   5.415   7.551   8.329 -0.2244 -0.7323 -0.0571
27345SOL    HW185627   5.506   7.567   8.353  0.1206 -0.1937 -1.5528
27345SOL    HW285628   5.384   7.634   8.293 -0.4301 -1.6094 -2.0781
27346SOL     OW85629   4.578   9.323   6.196  0.3143  0.6052  0.1841
27346SOL    HW185630   4.659   9.360   6.161  1.3387 -0.4683  1.2999
27346SOL    HW285631   4.585   9.229   6.178 -0.1065  0.3351  1.3330
27347SOL     OW85632   9.319   2.800   9.663 -0.6225  0.0775 -0.0554
27347SOL    HW185633   9.397   2.756   9.630 -0.9177 -1.2483  0.9394
27347SOL    HW285634   9.250   2.777   9.601 -0.4454  0.4428 -0.3933
27348SOL     OW85635   2.888   0.037  10.848 -0.0721 -0.0640 -0.5583
27348SOL    HW185636   2.794   0.054  10.839 -0.0839 -0.2699 -0.8128
27348SOL    HW285637   2.894  -0.030  10.916 -0.1443 -0.4777 -0.9595
27349SOL     OW85638   7.224  10.890   9.362 -0.0578  0.3216 -0.0887
27349SOL    HW185639   7.171  10.814   9.336  0.7655  0.2148 -1.5387
27349SOL    HW285640   7.198  10.959   9.301  0.6728  0.6038 -0.0832
27350SOL     OW85641   8.279   1.738   4.982 -0.2857 -0.3095 -0.5110
27350SOL    HW185642   8.202   1.719   5.034 -2.0349  1.1116 -2.4314
27350SOL    HW285643   8.312   1.652   4.954 -0.7617 -0.9499  0.8310
27351SOL     OW85644   2.579   0.146   3.231  0.4086 -0.1127  0.2262
27351SOL    HW185645   2.575   0.168   3.324 -2.2854 -0.9197  0.3828
27351SOL    HW285646   2.592   0.051   3.230 -0.1440 -0.1864 -0.2060
27352SOL     OW85647   6.899   6.375   0.823  0.4402 -0.0221 -0.0177
27352SOL    HW185648   6.995   6.365   0.827  0.3729 -0.5194  0.5573
27352SOL    HW285649   6.867   6.287   0.800  0.0283 -0.2723  1.4545
27353SOL     OW85650   2.879   3.431  11.048 -0.6926  0.6763 -0.1633
27353SOL    HW185651   2.935   3.482  10.989 -0.2728 -0.9893 -1.2576
27353SOL    HW285652   2.940   3.379  11.100 -1.1502 -1.7621 -1.9230
27354SOL     OW85653   7.942   5.004   4.712  0.1362 -0.0652 -0.4600
27354SOL    HW185654   7.939   5.050   4.628 -0.2315  1.0218  0.1304
27354SOL    HW285655   7.903   4.918   4.694  0.0880  0.1479 -1.4026
27355SOL     OW85656   2.628   3.404   0.751 -0.2160  0.5406  0.1587
27355SOL    HW185657   2.700   3.366   0.702 -2.1380 -2.5832 -0.4789
27355SOL    HW285658   2.595   3.474   0.695  0.5204  0.1176 -0.8221
27356SOL     OW85659   7.282   7.735  10.531 -0.1015 -0.5026 -0.1053
27356SOL    HW185660   7.239   7.744  10.446  0.6371 -1.3020 -0.5764
27356SOL    HW285661   7.294   7.641  10.542  2.2125 -0.2977 -0.3566
27357SOL     OW85662   2.344   9.565   3.233 -0.0770 -0.2729  0.3858
27357SOL    HW185663   2.345   9.477   3.270  0.4154 -0.1610  0.6420
27357SOL    HW285664   2.330   9.623   3.308 -0.2847 -0.1213  0.2343
27358SOL     OW85665   8.534   9.789   3.987 -0.3821  0.1782  0.4823
27358SOL    HW185666   8.462   9.740   4.027 -0.3247  1.5059  2.3359
27358SOL    HW285667   8.613   9.748   4.024 -0.2454 -0.0774 -0.0902
27359SOL     OW85668   9.060   9.379   3.311  0.1028 -0.6811  0.0388
27359SOL    HW185669   8.969   9.382   3.339  0.1493 -2.2215  0.4355
27359SOL    HW285670   9.074   9.289   3.283  1.2393 -0.2200 -0.9505
27360SOL     OW85671   7.910   6.344  10.487 -0.4617 -0.0166  0.0041
27360SOL    HW185672   7.999   6.327  10.517  0.1076  0.0691 -1.5340
27360SOL    HW285673   7.893   6.275  10.422 -1.3646  0.2081 -0.0114
27361SOL     OW85674   8.233   9.038   7.746 -0.8090 -0.3284 -0.2585
27361SOL    HW185675   8.311   9.072   7.790 -0.8592 -0.7560  0.1789
27361SOL    HW285676   8.205   9.109   7.688 -0.2080 -0.1008 -0.2793
27362SOL     OW85677   1.345   4.024  10.034 -0.4308 -0.5329 -0.3329
27362SOL    HW185678   1.355   4.064   9.947 -0.6667 -1.3662 -0.7548
27362SOL    HW285679   1.305   3.939  10.016  0.5981 -1.2064  0.4926
27363SOL     OW85680   3.394   3.715   0.169  0.0706 -0.4666 -0.9552
27363SOL    HW185681   3.371   3.695   0.078 -0.9832 -0.3225 -0.7294
27363SOL    HW285682   3.472   3.662   0.186 -0.3214 -1.2800 -1.6257
27364SOL     OW85683   6.531   5.374   3.691 -0.2058 -0.4350 -0.1872
27364SOL    HW185684   6.471   5.390   3.619  1.6834 -0.5557 -1.8714
27364SOL    HW285685   6.519   5.281   3.711 -0.7003 -0.4146 -0.3608
27365SOL     OW85686   7.106   3.144   1.217 -0.0227  0.1113  0.5591
27365SOL    HW185687   7.098   3.232   1.180  0.0723 -0.1107 -0.0140
27365SOL    HW285688   7.036   3.138   1.281 -0.4482  0.3802  0.1271
27366SOL     OW85689   5.753   4.830  10.840  0.4806  0.0857  0.8357
27366SOL    HW185690   5.837   4.785  10.853  1.3035 -0.1422 -3.6644
27366SOL    HW285691   5.776   4.923  10.832  0.4134 -0.0275 -0.8661
27367SOL     OW85692   6.839   6.898   5.479 -0.7380 -0.5648  0.3363
27367SOL    HW185693   6.871   6.975   5.525  0.0847 -0.4773 -0.3636
27367SOL    HW285694   6.744   6.911   5.473 -0.6425  0.2478  0.4825
27368SOL     OW85695   5.544   6.827   7.541 -0.5318  0.2638 -0.2061
27368SOL    HW185696   5.618   6.770   7.523 -0.2774  0.5191  0.0223
27368SOL    HW285697   5.576   6.888   7.607 -1.7315 -1.2711  1.9260
27369SOL     OW85698   0.365   3.112   5.397  0.1709 -0.0029  0.0709
27369SOL    HW185699   0.444   3.114   5.451  0.6755  1.8401 -0.6546
27369SOL    HW285700   0.346   3.019   5.386 -0.2392 -0.4819  3.7419
27370SOL     OW85701   3.802   5.898   1.705 -0.3998 -0.0980 -0.6082
27370SOL    HW185702   3.753   5.981   1.701  0.7716  0.6412 -0.1508
27370SOL    HW285703   3.832   5.893   1.796  0.9258 -0.1835 -1.0276
27371SOL     OW85704   8.773   5.762  10.628  0.4884  0.4522  0.0044
27371SOL    HW185705   8.737   5.734  10.712  0.5892  0.6943  0.1300
27371SOL    HW285706   8.826   5.838  10.650  0.5863  0.4600 -0.2678
27372SOL     OW85707   0.415   4.888   8.852  0.4462  0.4294 -0.1870
27372SOL    HW185708   0.479   4.884   8.924  0.2741 -3.0969 -0.0227
27372SOL    HW285709   0.342   4.938   8.887  1.4604  1.0654  1.1162
27373SOL     OW85710   5.147   4.414   7.905  0.1905 -0.0910  0.0403
27373SOL    HW185711   5.211   4.451   7.843 -1.9867  0.1853 -2.1808
27373SOL    HW285712   5.156   4.319   7.895 -1.2143 -0.0687 -1.9966
27374SOL     OW85713   2.747   9.266   0.395 -0.7531  0.0026  0.0318
27374SOL    HW185714   2.787   9.261   0.482  2.3718 -0.6867 -1.3166
27374SOL    HW285715   2.774   9.186   0.351 -1.1908  0.8950 -1.9963
27375SOL     OW85716   4.080  10.947   6.175 -0.1126  0.1134 -0.0176
27375SOL    HW185717   4.072  10.856   6.204  0.3610  0.3889  1.0443
27375SOL    HW285718   4.067  10.944   6.081 -4.7235 -0.5213  0.4006
27376SOL     OW85719   0.848   6.895  11.018  0.3045 -0.3589 -0.1566
27376SOL    HW185720   0.918   6.843  10.979  0.5669 -1.9284  2.2215
27376SOL    HW285721   0.768   6.849  10.994  0.2991 -0.1510 -0.5437
27377SOL     OW85722  11.061   0.807   5.000 -0.3937 -0.1710 -0.2253
27377SOL    HW185723  11.061   0.902   4.991  0.5704 -0.2726 -1.5293
27377SOL    HW285724  11.132   0.788   5.061  0.3662 -0.1327 -1.0895
27378SOL     OW85725   8.741   1.681   6.380 -0.5105 -0.0681  0.2381
27378SOL    HW185726   8.800   1.670   6.454  0.6127  1.0275 -0.4521
27378SOL    HW285727   8.798   1.673   6.303 -1.3771  0.3778 -0.4596
27379SOL     OW85728   5.945   1.174   0.555  0.3049 -0.0596  0.2627
27379SOL    HW185729   5.854   1.146   0.547 -0.0499  0.8229  1.0703
27379SOL    HW285730   5.941   1.269   0.562  1.3412  0.0446 -0.3265
27380SOL     OW85731   8.289   8.842   3.730  0.0719  0.0037  0.2152
27380SOL    HW185732   8.283   8.752   3.698 -0.8399  0.5191 -1.1833
27380SOL    HW285733   8.241   8.894   3.664  0.0022  1.4203  1.3330
27381SOL     OW85734   8.878   9.278   6.837 -0.2342 -0.2412 -0.8310
27381SOL    HW185735   8.853   9.187   6.824 -0.8557 -0.0350 -1.1404
27381SOL    HW285736   8.850   9.298   6.926  0.7595 -0.6231 -0.4295
27382SOL     OW85737   5.062   5.607   1.070 -0.3492  0.4589 -0.0254
27382SOL    HW185738   5.028   5.580   1.155 -0.4516  0.5474 -0.0381
27382SOL    HW285739   5.092   5.697   1.083 -1.6133  0.9588 -0.4188
27383SOL     OW85740   2.917   3.373   9.850  0.5017  0.2453  0.5207
27383SOL    HW185741   2.850   3.434   9.879 -0.5529 -1.3521  1.6722
27383SOL    HW285742   2.963   3.349   9.931  1.9960  0.7673 -0.1503
27384SOL     OW85743   2.244   4.099  10.334 -0.3050 -0.1013 -0.0554
27384SOL    HW185744   2.305   4.040  10.378  0.2558  1.0868  0.8014
27384SOL    HW285745   2.162   4.088  10.382 -0.3328 -0.5082 -0.1884
27385SOL     OW85746  10.406   6.742   2.344  0.6143 -0.2864  0.6127
27385SOL    HW185747  10.413   6.647   2.353 -1.1491 -0.4960  0.0968
27385SOL    HW285748  10.327   6.765   2.393  0.6165  0.8197  0.1327
27386SOL     OW85749  10.266   8.606   3.535 -0.1514 -0.7565 -0.0593
27386SOL    HW185750  10.293   8.653   3.457 -1.7622 -1.7710 -1.3066
27386SOL    HW285751  10.330   8.536   3.545  0.2012 -0.4729 -0.3148
27387SOL     OW85752   5.702   9.261  10.186 -0.0557 -0.0401  0.2588
27387SOL    HW185753   5.752   9.297  10.113 -1.3078 -0.4681 -0.8363
27387SOL    HW285754   5.683   9.337  10.242  2.4084  0.0312  1.1168
27388SOL     OW85755   6.553   8.011   1.165  0.0152  0.2150  0.8071
27388SOL    HW185756   6.519   7.949   1.229  1.5154 -2.4555 -0.7955
27388SOL    HW285757   6.476   8.042   1.118 -0.7012 -2.4552  0.0296
27389SOL     OW85758   6.699   7.815   6.472 -0.4862 -0.5770  0.3071
27389SOL    HW185759   6.748   7.759   6.412 -2.6610 -0.3311 -1.8329
27389SOL    HW285760   6.761   7.886   6.494  1.1823 -1.9955  0.4156
27390SOL     OW85761   9.072   3.976   5.424 -0.2205 -0.1541 -0.3218
27390SOL    HW185762   9.044   3.885   5.432 -0.7960 -0.0509 -1.0695
27390SOL    HW285763   9.067   4.011   5.513 -2.1528 -0.2391 -0.3727
27391SOL     OW85764   9.629   9.358   3.609 -0.3666  0.1326 -0.4724
27391SOL    HW185765   9.607   9.426   3.672 -0.3986  1.3181 -1.7411
27391SOL    HW285766   9.699   9.395   3.556 -0.1875 -0.9256 -1.0194
27392SOL     OW85767   0.145  10.552  10.639 -0.3843 -0.0518 -0.5888
27392SOL    HW185768   0.186  10.490  10.699 -0.8659 -1.9926 -2.1125
27392SOL    HW285769   0.051  10.537  10.650 -0.7184  2.7122  1.2291
27393SOL     OW85770   1.209   3.610   8.334 -0.0973 -0.3128  0.1622
27393SOL    HW185771   1.183   3.702   8.333  1.4133  0.1598 -1.7433
27393SOL    HW285772   1.298   3.610   8.369  0.7081 -0.7280 -1.7177
27394SOL     OW85773   6.916   4.248   2.281 -0.2757  0.0847  0.0122
27394SOL    HW185774   6.849   4.251   2.213 -1.1368 -0.1119  0.8426
27394SOL    HW285775   6.983   4.189   2.246 -1.1651 -0.7845 -0.2518
27395SOL     OW85776   9.405   7.504   3.757 -0.4953 -0.6103  0.0454
27395SOL    HW185777   9.396   7.441   3.685  0.2187  0.6375 -1.1753
27395SOL    HW285778   9.456   7.575   3.720  0.5867 -0.2881  2.0430
27396SOL     OW85779   5.892  10.947   6.758  1.0105 -1.5242 -0.2724
27396SOL    HW185780   5.926  10.859   6.771  0.0755 -2.2285 -2.2966
27396SOL    HW285781   5.806  10.935   6.717  0.8692  0.3196 -0.6288
27397SOL     OW85782   1.750   6.214   5.211  0.2955  0.3629  0.8164
27397SOL    HW185783   1.836   6.251   5.230  0.8095  1.4686 -2.9864
27397SOL    HW285784   1.747   6.204   5.116 -3.5974 -0.1633  0.8070
27398SOL     OW85785   6.696   9.584   5.663 -0.5474 -0.3442  0.2803
27398SOL    HW185786   6.707   9.498   5.625 -1.7381 -0.1902 -0.4378
27398SOL    HW285787   6.786   9.618   5.671 -0.1978 -0.8452 -1.2727
27399SOL     OW85788   8.213   9.992   4.878 -0.1418 -0.2437  0.0960
27399SOL    HW185789   8.127   9.951   4.886 -0.5129  0.3933 -0.5740
27399SOL    HW285790   8.263   9.932   4.822 -0.4125 -0.2065 -0.1855
27400SOL     OW85791   8.173   7.939   7.728  0.1638  0.1126 -0.3055
27400SOL    HW185792   8.156   7.964   7.819 -1.5042  1.6019 -0.9692
27400SOL    HW285793   8.258   7.978   7.708 -0.2727  1.3183  0.1007
27401SOL     OW85794  10.945  10.127   1.350 -0.4169  0.3930  0.3776
27401SOL    HW185795  11.023  10.167   1.388 -1.1528  3.0811 -0.7004
27401SOL    HW285796  10.883  10.120   1.422  0.2316 -0.2582  0.8901
27402SOL     OW85797   6.734   5.390   1.919 -0.3846  0.5466  0.1625
27402SOL    HW185798   6.735   5.332   1.842 -0.6363  1.7677 -0.7968
27402SOL    HW285799   6.821   5.379   1.958  0.5023  1.3662 -1.4623
27403SOL     OW85800   1.139  10.541   2.248 -0.2292 -0.2170  0.8404
27403SOL    HW185801   1.187  10.619   2.220 -3.5165  2.0686  0.9725
27403SOL    HW285802   1.112  10.560   2.338 -1.3799 -1.3529  0.7659
27404SOL     OW85803  10.198   1.472   0.860 -0.2747 -0.1344 -0.0900
27404SOL    HW185804  10.209   1.534   0.788  1.2350  0.1087  0.2966
27404SOL    HW285805  10.287   1.440   0.877 -0.7766 -1.0584  0.8964
27405SOL     OW85806   5.833   4.603   6.746 -1.3985  0.4027  0.4359
27405SOL    HW185807   5.928   4.592   6.738 -1.5624  0.0161 -1.7140
27405SOL    HW285808   5.818   4.612   6.840  0.8218  1.0920  0.8017
27406SOL     OW85809   7.166   8.875   0.147 -0.2016  0.3314 -0.2378
27406SOL    HW185810   7.096   8.894   0.085  0.3835 -0.4013 -1.1414
27406SOL    HW285811   7.210   8.959   0.159  0.0687  0.3528 -1.3116
27407SOL     OW85812   0.157   4.033   5.877  0.5743  0.7134  0.5812
27407SOL    HW185813   0.098   4.108   5.888 -2.6146 -1.5424  0.1099
27407SOL    HW285814   0.195   4.046   5.790 -0.3840  1.5095  0.2572
27408SOL     OW85815   6.413   5.067   1.262  0.2053  0.3941 -0.1240
27408SOL    HW185816   6.402   5.031   1.174 -0.2637 -2.5694  1.0599
27408SOL    HW285817   6.486   5.017   1.299 -2.4529 -1.7319  2.6812
27409SOL     OW85818   1.020   2.189   0.758  0.1230  0.0597  0.3551
27409SOL    HW185819   1.090   2.222   0.702  0.2927 -0.8719  0.0004
27409SOL    HW285820   1.061   2.121   0.810 -0.1714  0.5347  1.2290
27410SOL     OW85821   6.964   2.264   5.492  0.3068  0.8288 -0.0698
27410SOL    HW185822   6.926   2.350   5.472  0.5303  1.0856  0.5707
27410SOL    HW285823   6.889   2.206   5.501  0.1628  0.9017 -0.7272
27411SOL     OW85824   3.726   0.071   1.907  0.3036  0.2643 -0.1171
27411SOL    HW185825   3.753  -0.006   1.857 -1.2621  0.0285 -0.6606
27411SOL    HW285826   3.764   0.057   1.994  2.1718  0.1561 -0.9073
27412SOL     OW85827   0.834   8.712   6.835 -0.4056 -0.5572 -0.0301
27412SOL    HW185828   0.881   8.767   6.898 -1.5027  0.3756  0.0172
27412SOL    HW285829   0.888   8.633   6.827  1.1025  0.4240  0.0598
27413SOL     OW85830   5.620   3.354   7.841 -0.5821  0.1338  0.3135
27413SOL    HW185831   5.707   3.366   7.802 -0.9875 -0.5296 -0.8289
27413SOL    HW285832   5.559   3.366   7.768 -1.4833  0.8800  1.1603
27414SOL     OW85833   4.958   9.067   4.609  0.3579 -0.1896 -0.6896
27414SOL    HW185834   5.041   9.052   4.655  0.4107 -0.7122 -0.9494
27414SOL    HW285835   4.891   9.059   4.677  0.4019 -1.4027 -0.7668
27415SOL     OW85836   7.330   8.782   7.999 -0.9283 -0.0134  0.1964
27415SOL    HW185837   7.334   8.871   8.035 -1.6895  0.1679 -0.1458
27415SOL    HW285838   7.255   8.784   7.940 -0.3853 -0.6247 -0.5300
27416SOL     OW85839   3.753   2.698   4.314 -0.1245 -0.6206  0.4434
27416SOL    HW185840   3.823   2.653   4.267 -0.3960  0.8645 -1.4980
27416SOL    HW285841   3.672   2.663   4.278 -0.3641 -0.5680  0.9160
27417SOL     OW85842   3.269   4.908   4.385  0.0048  0.0719  0.0506
27417SOL    HW185843   3.249   5.000   4.401 -0.8064  0.0178 -0.5874
27417SOL    HW285844   3.318   4.907   4.304  1.9280  0.1154  1.1559
27418SOL     OW85845  10.395  10.439   7.187  0.3329  0.1278  0.8209
27418SOL    HW185846  10.392  10.507   7.120  0.4564 -2.7200 -2.3376
27418SOL    HW285847  10.480  10.452   7.231  0.7186  1.4590 -0.2518
27419SOL     OW85848   0.988   1.039   0.413  0.1791  0.1022 -0.0927
27419SOL    HW185849   1.033   0.991   0.483 -1.7180 -0.5709  0.7211
27419SOL    HW285850   0.930   0.974   0.373 -2.8039  1.7047  1.3181
27420SOL     OW85851   6.649   9.977   1.092 -0.2695 -0.7025  0.0748
27420SOL    HW185852   6.720   9.948   1.149 -0.3117 -2.3354 -0.6461
27420SOL    HW285853   6.682  10.058   1.053  0.7420 -0.8470  0.5849
27421SOL     OW85854   4.432   0.517   8.578  0.2579 -0.2890 -0.2148
27421SOL    HW185855   4.452   0.433   8.538  0.8772 -0.7843  1.0718
27421SOL    HW285856   4.363   0.554   8.523 -1.4744 -2.5282  0.2850
27422SOL     OW85857   2.847  10.679  10.217 -0.0777  0.0001  0.0954
27422SOL    HW185858   2.841  10.739  10.291  3.6194 -0.5881  1.0894
27422SOL    HW285859   2.812  10.729  10.143  0.6880  2.5334  1.3249
27423SOL     OW85860   5.539   7.344   7.548 -0.6532 -0.8792 -0.1044
27423SOL    HW185861   5.574   7.266   7.591 -0.0341 -0.4953  0.1062
27423SOL    HW285862   5.603   7.413   7.568 -1.4766 -0.1851  0.2018
27424SOL     OW85863   8.729   6.162   6.925 -0.3676 -0.2098 -0.3252
27424SOL    HW185864   8.636   6.185   6.936  0.0384  2.4269 -1.5419
27424SOL    HW285865   8.775   6.227   6.978  0.8311 -1.5512  0.3313
27425SOL     OW85866   4.508   9.634   2.090  0.0355 -0.2848 -0.3863
27425SOL    HW185867   4.530   9.680   2.171  0.7598 -2.2685  0.6079
27425SOL    HW285868   4.444   9.690   2.047  1.5278  2.0599  0.2970
27426SOL     OW85869   8.463   5.946   4.620  0.4573  0.0801 -0.1177
27426SOL    HW185870   8.402   5.972   4.550  0.3021  2.2995  0.7610
27426SOL    HW285871   8.456   6.016   4.685  1.5266 -1.2922  1.5608
27427SOL     OW85872   1.605  10.260   6.614 -0.1551 -0.0213 -0.6015
27427SOL    HW185873   1.599  10.173   6.652 -0.5628  0.1738 -0.2081
27427SOL    HW285874   1.559  10.253   6.530  1.3272 -0.6264 -1.4021
27428SOL     OW85875   6.170  10.564  10.681  0.0699 -0.3233  0.3494
27428SOL    HW185876   6.140  10.640  10.730 -1.4164 -0.1973 -0.7039
27428SOL    HW285877   6.139  10.489  10.732  1.4866 -0.2749  1.3573
27429SOL     OW85878   9.188   9.983   8.292 -0.2374  0.6109 -0.7302
27429SOL    HW185879   9.231  10.024   8.217  1.1185  0.1580 -0.2296
27429SOL    HW285880   9.100   9.962   8.261  0.4893 -0.1599 -2.4094
27430SOL     OW85881   8.269   5.145   3.964  0.2219 -0.4665  0.0647
27430SOL    HW185882   8.173   5.152   3.958  0.1908  0.5126  1.3650
27430SOL    HW285883   8.284   5.055   3.994 -0.2260 -0.9081 -0.9763
27431SOL     OW85884   3.956   8.490   9.705 -0.7784 -0.6893  0.0432
27431SOL    HW185885   3.931   8.549   9.634  0.0361 -1.2421 -0.7272
27431SOL    HW285886   4.045   8.515   9.728 -0.9026 -0.7569  0.6325
27432SOL     OW85887   1.168  10.066   0.203  0.5087 -0.4092  0.1993
27432SOL    HW185888   1.201   9.981   0.231  0.7578  0.2349  1.9460
27432SOL    HW285889   1.142  10.110   0.284 -0.9154  0.6490 -0.7820
27433SOL     OW85890   1.466   7.055   7.988 -0.0836  0.3577  0.0823
27433SOL    HW185891   1.531   6.990   8.014 -0.8994 -0.1982  0.7602
27433SOL    HW285892   1.447   7.036   7.896  0.8742  0.6747 -0.1900
27434SOL     OW85893   2.131   8.337   1.227 -1.0129  0.1739 -0.1252
27434SOL    HW185894   2.066   8.404   1.251 -1.0827  0.0384  0.0678
27434SOL    HW285895   2.215   8.378   1.246 -1.0516  0.2504 -0.1180
27435SOL     OW85896   5.549   4.107   9.359 -0.3689  0.8227  0.1145
27435SOL    HW185897   5.501   4.050   9.420 -0.3962 -0.9404 -1.4376
27435SOL    HW285898   5.635   4.118   9.399 -0.5012  0.0067  0.6629
27436SOL     OW85899   4.729   9.040   6.134  0.0280  0.2236 -0.1953
27436SOL    HW185900   4.678   9.036   6.053 -1.8369 -0.4480  0.9465
27436SOL    HW285901   4.728   8.951   6.168  2.3202  0.1042 -0.2736
27437SOL     OW85902   9.914   0.643   7.855  0.1505 -0.3882 -0.2390
27437SOL    HW185903   9.909   0.645   7.951 -1.6746 -2.1191 -0.2451
27437SOL    HW285904   9.884   0.730   7.828 -0.2273 -0.2007  0.7257
27438SOL     OW85905   9.988   3.010   8.087 -0.7614 -0.2556  0.0987
27438SOL    HW185906  10.072   2.979   8.118 -0.4994  1.4553  1.2450
27438SOL    HW285907   9.924   2.948   8.124 -0.0631 -1.2345 -0.3140
27439SOL     OW85908  10.219   5.733   1.206 -0.2984 -0.2850  0.1529
27439SOL    HW185909  10.253   5.743   1.295 -0.5446  2.4677  0.0327
27439SOL    HW285910  10.152   5.665   1.212  0.6674 -1.1533  1.7353
27440SOL     OW85911   3.883  10.049   9.886 -0.2197  0.1632 -0.0349
27440SOL    HW185912   3.824   9.986   9.846  0.1537 -0.7709  0.8477
27440SOL    HW285913   3.835  10.082   9.962  0.1003 -0.0400  0.2566
27441SOL     OW85914   7.479   1.001   4.993  0.2196 -0.1770 -0.0287
27441SOL    HW185915   7.453   0.945   5.067  3.3053 -1.2509  0.3940
27441SOL    HW285916   7.457   0.950   4.915 -1.3058  0.1386  0.1651
27442SOL     OW85917   9.670   1.952   5.295 -0.2874  0.1846 -0.1634
27442SOL    HW185918   9.656   2.030   5.348 -0.5002 -0.1849  0.3418
27442SOL    HW285919   9.612   1.886   5.334 -0.5675 -0.0525 -0.9563
27443SOL     OW85920   0.380   4.491   9.255  0.2108 -0.1163 -0.1959
27443SOL    HW185921   0.378   4.537   9.339  1.9299 -1.6707  0.7475
27443SOL    HW285922   0.291   4.455   9.245 -0.1846  0.5951  0.6309
27444SOL     OW85923   9.606   2.160   9.497  0.6779 -0.0723  0.1415
27444SOL    HW185924   9.537   2.093   9.496  0.3291  0.2718 -1.1564
27444SOL    HW285925   9.574   2.226   9.559  1.5074 -1.5435  2.2480
27445SOL     OW85926   5.123   6.862   1.666 -0.5191 -0.9912  0.5903
27445SOL    HW185927   5.192   6.927   1.650  0.9107 -2.8870 -1.8375
27445SOL    HW285928   5.159   6.805   1.734  0.2549 -1.8004 -0.4602
27446SOL     OW85929   1.145   6.584   2.316 -0.0918  0.5111  0.1879
27446SOL    HW185930   1.139   6.545   2.404  0.7739  0.8850  0.4176
27446SOL    HW285931   1.054   6.592   2.288 -0.3632  0.0361  0.8970
27447SOL     OW85932   0.913  10.340   4.696  0.3081  0.4286 -0.3616
27447SOL    HW185933   0.904  10.369   4.787  0.6784 -0.5551 -0.0040
27447SOL    HW285934   0.983  10.395   4.661  2.3433 -1.2270  0.8655
27448SOL     OW85935   6.863   4.059  10.096  1.3557 -0.3777 -0.7277
27448SOL    HW185936   6.898   4.130  10.043  1.0711  2.0424  2.1149
27448SOL    HW285937   6.924   4.049  10.168  0.1698 -1.4229  0.1951
27449SOL     OW85938   2.354   8.447  10.381 -0.0577 -0.5698  0.1329
27449SOL    HW185939   2.295   8.521  10.396 -0.0216 -0.7496  1.2221
27449SOL    HW285940   2.397   8.433  10.465 -0.3923 -2.1205  0.0679
27450SOL     OW85941   7.333   1.046   6.589 -0.3169  0.0408  0.2872
27450SOL    HW185942   7.359   1.099   6.513  0.2760 -0.2568  0.2748
27450SOL    HW285943   7.283   0.974   6.551 -1.5466  0.8337  0.3468
27451SOL     OW85944  10.987   0.508   3.159  0.7616  0.2093 -0.5756
27451SOL    HW185945  10.966   0.551   3.242  1.4622  0.8697 -0.7275
27451SOL    HW285946  10.986   0.578   3.094  0.1543 -0.3181 -1.1478
27452SOL     OW85947   6.370   2.391   7.710 -0.3189 -0.0618  0.0596
27452SOL    HW185948   6.344   2.305   7.742  0.7695 -0.4261 -0.0164
27452SOL    HW285949   6.290   2.427   7.672 -0.6387 -1.3025 -0.4925
27453SOL     OW85950  10.588   2.328   9.743 -0.1701  0.3806  0.3887
27453SOL    HW185951  10.540   2.314   9.662  0.6899 -0.3573 -0.0057
27453SOL    HW285952  10.619   2.241   9.768  0.4498  0.7558  0.9652
27454SOL     OW85953   2.905   5.939   6.706 -0.2758 -0.8714 -0.4020
27454SOL    HW185954   2.918   5.846   6.724 -2.0836 -0.9442  0.7873
27454SOL    HW285955   2.843   5.968   6.772  2.1760  1.8464  0.9583
27455SOL     OW85956   2.711   3.904  10.028  0.0424 -0.7604 -0.0556
27455SOL    HW185957   2.797   3.862  10.041  0.3991  0.0676  0.3438
27455SOL    HW285958   2.717   3.986  10.077 -1.8928 -1.8510  2.2298
27456SOL     OW85959   7.998   6.342   0.172  0.2721 -0.3610  0.0637
27456SOL    HW185960   7.990   6.334   0.077  0.3087 -0.1935  0.0459
27456SOL    HW285961   8.065   6.409   0.185 -0.3330  0.2326  0.2027
27457SOL     OW85962   0.484   3.736   0.559  0.2267 -0.2276  0.0477
27457SOL    HW185963   0.475   3.792   0.482  0.7855 -0.1443  0.0381
27457SOL    HW285964   0.447   3.652   0.532  1.2385 -0.4743 -0.6194
27458SOL     OW85965   0.821   3.123   1.304  0.1170 -0.3180 -0.0343
27458SOL    HW185966   0.766   3.105   1.227  0.5312 -1.9012  0.0121
27458SOL    HW285967   0.910   3.101   1.276  0.4512  0.2795  0.5277
27459SOL     OW85968   9.695   9.110   7.873  0.4266 -0.2088  0.2042
27459SOL    HW185969   9.754   9.062   7.815 -0.2820  0.9406 -1.5408
27459SOL    HW285970   9.614   9.118   7.823 -0.1364  1.0150  1.2763
27460SOL     OW85971  10.777   5.031   9.426 -0.0763 -0.1262 -0.0787
27460SOL    HW185972  10.814   5.114   9.457 -0.3062  0.4856 -1.3477
27460SOL    HW285973  10.822   5.015   9.343 -0.9639 -0.5875 -0.4816
27461SOL     OW85974   5.855  10.839   8.566 -0.0476 -0.6094  0.1021
27461SOL    HW185975   5.907  10.759   8.567  1.2458  0.1851  1.5639
27461SOL    HW285976   5.764  10.809   8.577  0.3166 -1.9091 -0.2452
27462SOL     OW85977   0.266   3.032   9.080  0.2278 -0.3323  0.5602
27462SOL    HW185978   0.332   2.967   9.055 -0.5377 -1.3718  1.1301
27462SOL    HW285979   0.309   3.086   9.146  0.6700 -0.6807  0.5640
27463SOL     OW85980   8.035   1.760   5.765 -0.3436 -0.0361  0.2752
27463SOL    HW185981   8.073   1.780   5.851  1.4116  2.1904 -0.9092
27463SOL    HW285982   7.947   1.797   5.769  0.2518  1.4125  0.6691
27464SOL     OW85983   7.863   7.467   0.985  0.1056 -0.0160  0.5306
27464SOL    HW185984   7.891   7.481   0.894 -0.5793  0.6484  0.4087
27464SOL    HW285985   7.846   7.373   0.991 -0.1936 -0.0092 -0.1382
27465SOL     OW85986   9.783   8.473   3.906 -0.3116  0.3814 -0.2805
27465SOL    HW185987   9.687   8.476   3.902 -0.2995  1.3227 -0.1673
27465SOL    HW285988   9.805   8.527   3.981  0.2697 -1.0177  0.5983
27466SOL     OW85989   6.390   2.441   2.402 -0.1130  0.0810  0.4372
27466SOL    HW185990   6.428   2.529   2.408 -2.5944  1.4225 -1.6538
27466SOL    HW285991   6.345   2.428   2.485  1.1350  0.2750  1.1791
27467SOL     OW85992   2.314   2.913  10.729  0.1322  0.9450  0.1597
27467SOL    HW185993   2.351   2.998  10.703 -0.1076  1.5511  1.6682
27467SOL    HW285994   2.300   2.922  10.823  1.1186 -1.1664  0.5536
27468SOL     OW85995   2.635   4.056  10.358 -0.1828 -0.0639 -0.2662
27468SOL    HW185996   2.558   4.015  10.397 -1.0156  0.4959 -1.2595
27468SOL    HW285997   2.630   4.033  10.265  0.3530  0.7133 -0.4975
27469SOL     OW85998   6.110   4.836   7.028 -0.1230  0.2636 -0.5153
27469SOL    HW185999   6.065   4.909   7.071 -0.3381  0.5054 -1.1347
27469SOL    HW286000   6.152   4.875   6.952  1.9770  0.2361  0.5396
27470SOL     OW86001   8.437   8.679   4.217  0.3140 -0.5994 -0.0013
27470SOL    HW186002   8.501   8.697   4.286  0.9352 -1.5374 -0.2961
27470SOL    HW286003   8.478   8.714   4.137  0.1322 -0.5567 -0.0752
27471SOL     OW86004   6.763   4.271   1.328  0.4074  0.2847 -0.9089
27471SOL    HW186005   6.776   4.183   1.364 -2.6907  0.0808 -0.0099
27471SOL    HW286006   6.764   4.258   1.233  1.8323 -0.3624 -0.8350
27472SOL     OW86007   4.002   5.949   7.957 -0.2989 -0.1162 -0.1800
27472SOL    HW186008   4.042   6.019   7.905  0.9706 -0.4314  0.3334
27472SOL    HW286009   3.916   5.937   7.918 -0.8479  2.2123  0.1569
27473SOL     OW86010   2.217   8.750   6.360  0.3464 -0.8726 -0.4544
27473SOL    HW186011   2.251   8.833   6.327 -2.3850 -0.4882 -2.6608
27473SOL    HW286012   2.173   8.773   6.442 -0.5334 -0.0747 -1.1331
27474SOL     OW86013  10.120   8.900   4.075 -0.5370  0.0681  0.6348
27474SOL    HW186014  10.113   8.934   3.986  0.7508 -1.2154  0.0024
27474SOL    HW286015  10.049   8.943   4.123 -2.1722 -0.2942 -1.3478
27475SOL     OW86016   3.387   2.905   6.853 -0.0702  0.6673 -1.2664
27475SOL    HW186017   3.389   2.993   6.890  0.7011  1.2404 -2.5632
27475SOL    HW286018   3.473   2.869   6.873 -0.0169  0.6029 -1.5989
27476SOL     OW86019   7.365   6.186   9.338  0.3838  0.2720  0.1722
27476SOL    HW186020   7.391   6.110   9.390  0.4614  0.0086 -0.2469
27476SOL    HW286021   7.315   6.241   9.399 -0.1667 -0.3928  0.3349
27477SOL     OW86022   7.851   1.539   4.390 -0.0902  0.0425  1.1057
27477SOL    HW186023   7.792   1.513   4.319 -0.8083  1.2876  1.2151
27477SOL    HW286024   7.813   1.499   4.469 -0.2391  0.0389  1.0327
27478SOL     OW86025   5.198   2.620   0.418  0.1435  0.3791  0.1589
27478SOL    HW186026   5.114   2.576   0.422  0.5348 -0.5174 -0.8886
27478SOL    HW286027   5.243   2.594   0.498 -0.0621 -0.2175  0.0814
27479SOL     OW86028   8.259   3.142   8.422 -1.0894  0.6513  0.0049
27479SOL    HW186029   8.207   3.212   8.462 -1.2487  1.5566 -1.6933
27479SOL    HW286030   8.275   3.172   8.333  0.3883 -0.6764 -0.2235
27480SOL     OW86031   0.079  10.731   0.336 -0.2495 -0.1595  0.3778
27480SOL    HW186032   0.047  10.813   0.374  2.0245  1.2376 -0.5412
27480SOL    HW286033   0.153  10.705   0.392 -2.0160 -2.6733  1.7642
27481SOL     OW86034   3.089   3.082   8.937 -0.3016  0.1128 -0.0562
27481SOL    HW186035   2.994   3.076   8.935 -0.6004  2.6827  1.2777
27481SOL    HW286036   3.117   3.008   8.991 -1.5857 -0.4281 -0.1022
27482SOL     OW86037   5.421   2.202   4.527  0.2259 -0.4641  0.1469
27482SOL    HW186038   5.513   2.230   4.527  0.4968 -1.1600 -2.1291
27482SOL    HW286039   5.372   2.282   4.548  1.2073  0.8061 -1.9780
27483SOL     OW86040   2.688   6.154   6.523 -0.2241 -0.2320 -0.4492
27483SOL    HW186041   2.720   6.096   6.453  2.2204  0.1302  0.2518
27483SOL    HW286042   2.718   6.112   6.604 -0.5366  0.7763  0.2011
27484SOL     OW86043   6.235   5.796   3.800  0.0428 -0.2588 -0.3471
27484SOL    HW186044   6.261   5.827   3.713  0.4010  0.4886  0.0148
27484SOL    HW286045   6.139   5.802   3.800  0.0514 -0.1134 -0.6344
27485SOL     OW86046   6.093   7.993   9.313  0.3100  0.6780 -0.0293
27485SOL    HW186047   6.072   7.978   9.221 -0.3794  0.2290  0.1900
27485SOL    HW286048   6.098   7.905   9.351 -1.7112  0.8827  0.8494
27486SOL     OW86049   7.115   2.801   4.796 -0.4152  0.0524 -0.0918
27486SOL    HW186050   7.039   2.833   4.748  0.0463  1.8446  0.3238
27486SOL    HW286051   7.114   2.849   4.878  1.5673  0.6856 -0.3884
27487SOL     OW86052   7.293   8.260  10.778 -0.2495 -0.1168 -0.3111
27487SOL    HW186053   7.388   8.249  10.781 -0.2908 -0.3155  1.6487
27487SOL    HW286054   7.267   8.268  10.870 -2.1274 -0.0002 -0.8132
27488SOL     OW86055   7.303   9.799   7.241  0.4271  0.8925 -0.5394
27488SOL    HW186056   7.391   9.763   7.227  0.4129  0.6991 -0.1443
27488SOL    HW286057   7.297   9.812   7.336 -0.1162  0.5294 -0.5232
27489SOL     OW86058   9.994   5.174   0.422  0.3498 -0.2021 -0.4281
27489SOL    HW186059  10.087   5.156   0.409  0.9970  1.9373  0.6354
27489SOL    HW286060   9.973   5.240   0.356 -0.3471 -0.4389 -0.4508
27490SOL     OW86061   3.134   9.138   2.997 -0.1478  0.5663 -0.2553
27490SOL    HW186062   3.172   9.135   2.909  2.4115  0.6897  0.7781
27490SOL    HW286063   3.207   9.120   3.056 -2.1667 -1.5941  1.8254
27491SOL     OW86064   5.466   8.087   8.316  0.0765 -0.3962 -0.2301
27491SOL    HW186065   5.553   8.126   8.307  0.9072 -1.3741  2.4460
27491SOL    HW286066   5.456   8.074   8.411 -2.3869 -1.6523 -0.5979
27492SOL     OW86067   0.214   2.398   1.202  0.2755  0.2799  0.2020
27492SOL    HW186068   0.295   2.448   1.207  0.3554  0.2025 -0.2505
27492SOL    HW286069   0.204   2.378   1.109  0.3134 -0.6438  0.3834
27493SOL     OW86070  10.047   0.693   6.766  0.2830  0.2753 -0.9768
27493SOL    HW186071  10.136   0.702   6.731  0.1987  0.7445 -1.0726
27493SOL    HW286072   9.997   0.763   6.724  0.2980  1.2070  0.4714
27494SOL     OW86073   7.959   0.272   6.614  0.4479  0.8647 -0.5548
27494SOL    HW186074   7.986   0.301   6.527  1.9736  2.1300  0.2806
27494SOL    HW286075   7.906   0.344   6.648  0.2135  0.5703 -0.2896
27495SOL     OW86076   3.050   1.862  10.591  0.2556  0.3964  0.2800
27495SOL    HW186077   3.099   1.800  10.538 -0.7928  0.2578 -0.5473
27495SOL    HW286078   2.999   1.808  10.651 -0.3240  0.4633 -0.1454
27496SOL     OW86079   3.397   2.413   2.461  0.5542  0.2361  0.0135
27496SOL    HW186080   3.416   2.445   2.549 -1.3597 -0.6328  0.7914
27496SOL    HW286081   3.345   2.334   2.475  0.0563  0.1857 -1.8981
27497SOL     OW86082   3.957   9.633  11.028 -0.0744 -0.0378 -0.1544
27497SOL    HW186083   3.919   9.551  11.059  1.3650 -0.3837  0.8227
27497SOL    HW286084   3.962   9.623  10.933  1.5686 -1.8053  0.0598
27498SOL     OW86085   9.315   9.399   5.342 -0.4471 -0.5454 -0.0706
27498SOL    HW186086   9.304   9.317   5.390 -0.5978 -1.4344 -1.5490
27498SOL    HW286087   9.390   9.442   5.384 -0.3301 -1.4663  0.6920
27499SOL     OW86088   8.452   5.628   0.035 -0.7278  0.1393  0.4231
27499SOL    HW186089   8.427   5.568   0.105 -1.1137 -0.6577 -0.3708
27499SOL    HW286090   8.441   5.715   0.073  1.0956 -0.2729  2.0246
27500SOL     OW86091  11.088  10.368   0.354  0.1396  0.8149  0.0022
27500SOL    HW186092  11.031  10.444   0.361 -0.7449  0.1044  0.7056
27500SOL    HW286093  11.087  10.328   0.442  2.6824  1.4507  0.3958
27501SOL     OW86094   7.776   5.179   0.758 -0.0631  0.0079 -0.3347
27501SOL    HW186095   7.784   5.128   0.678 -2.8702 -1.6726  0.3358
27501SOL    HW286096   7.759   5.115   0.827 -0.6207  1.6062  1.1038
27502SOL     OW86097  10.384   6.145   2.312 -0.3094  0.4119 -0.3679
27502SOL    HW186098  10.319   6.132   2.381 -0.9317 -0.1392 -1.0287
27502SOL    HW286099  10.336   6.127   2.231  0.7406 -0.3194 -0.8580
27503SOL     OW86100  10.844   7.622   0.108 -0.2786  0.5350 -0.4790
27503SOL    HW186101  10.816   7.557   0.172 -1.5272  0.4451 -1.0730
27503SOL    HW286102  10.769   7.682   0.101  1.5577  3.3254  1.5866
27504SOL     OW86103   2.777   4.986   9.998  0.1877 -0.1456 -0.2715
27504SOL    HW186104   2.855   4.934  10.020 -0.2285 -0.8577 -0.4204
27504SOL    HW286105   2.725   4.984  10.078 -0.4138 -1.0571 -0.6632
27505SOL     OW86106   8.983   4.748   3.133  0.3204  0.6878 -0.0142
27505SOL    HW186107   9.055   4.699   3.094 -1.1681 -0.9517 -0.8200
27505SOL    HW286108   9.003   4.840   3.112  0.7582  0.0683 -2.7164
27506SOL     OW86109  10.041   0.765   1.855  0.2174  0.6400  0.3273
27506SOL    HW186110  10.018   0.841   1.801  1.6280  0.4506 -0.5849
27506SOL    HW286111   9.966   0.706   1.846  0.9691 -0.0220 -2.6653
27507SOL     OW86112   5.142   8.178   7.301  0.0591 -0.2471  0.6552
27507SOL    HW186113   5.179   8.208   7.218 -2.3565 -1.6168 -1.0385
27507SOL    HW286114   5.117   8.087   7.285  2.3747 -1.6583  3.9471
27508SOL     OW86115   2.257   1.634   5.315 -0.2191 -0.1500  0.0673
27508SOL    HW186116   2.337   1.585   5.333 -0.4593 -0.5881 -0.0272
27508SOL    HW286117   2.235   1.676   5.398 -1.3324 -2.1731  0.8714
27509SOL     OW86118   2.278   8.923   9.742  0.3320 -0.3571 -0.8017
27509SOL    HW186119   2.207   8.937   9.804  0.4311  0.2972 -0.8274
27509SOL    HW286120   2.247   8.853   9.684  0.9126 -2.2080  1.0088
27510SOL     OW86121   1.826   4.715   9.913 -0.4985 -0.2417 -0.1380
27510SOL    HW186122   1.752   4.698   9.854 -0.4107 -1.4547  0.0672
27510SOL    HW286123   1.835   4.634   9.964  1.3156 -0.3471 -0.5452
27511SOL     OW86124  10.290  10.666   2.654  0.2983 -0.5241 -0.4579
27511SOL    HW186125  10.353  10.690   2.721 -0.5213  1.5859 -0.3787
27511SOL    HW286126  10.205  10.688   2.692 -0.4600 -2.4262 -0.9227
27512SOL     OW86127   7.603  10.410   0.594  0.1451  0.6135 -0.2158
27512SOL    HW186128   7.567  10.333   0.637  0.0249  0.2888 -0.8844
27512SOL    HW286129   7.553  10.484   0.630  0.7206  0.4675  0.9323
27513SOL     OW86130   2.535   6.891   5.510  0.0962 -0.1982 -0.5330
27513SOL    HW186131   2.502   6.847   5.432 -0.9007 -2.0799  0.8579
27513SOL    HW286132   2.470   6.872   5.578  1.3522  0.6236  0.9835
27514SOL     OW86133   0.188   7.164   2.671 -0.8902  0.3953 -0.4157
27514SOL    HW186134   0.125   7.152   2.600 -0.8844  3.4735 -1.1003
27514SOL    HW286135   0.144   7.224   2.732  1.3522  2.9673 -1.1112
27515SOL     OW86136   0.262   7.903   2.891  0.2954  0.4880  0.8109
27515SOL    HW186137   0.240   7.849   2.815  2.2000 -0.9119  1.1959
27515SOL    HW286138   0.355   7.888   2.905  0.5207  2.6069  1.9832
27516SOL     OW86139   2.869  10.388   3.588  0.0362  0.0066  0.1405
27516SOL    HW186140   2.782  10.385   3.627 -0.8756 -0.2406 -1.8283
27516SOL    HW286141   2.923  10.334   3.647 -1.3410 -0.6354  0.8620
27517SOL     OW86142   9.712  10.042   7.582 -0.5670 -0.2930  0.5984
27517SOL    HW186143   9.650  10.073   7.648 -0.5635 -1.0053  0.9427
27517SOL    HW286144   9.683  10.083   7.500 -0.2511  1.0432  1.1188
27518SOL     OW86145  10.206   9.224   7.122  0.0766  0.2291 -0.1927
27518SOL    HW186146  10.237   9.302   7.169 -1.3400  1.8570 -1.7902
27518SOL    HW286147  10.118   9.208   7.158 -0.4991  0.7126 -1.3473
27519SOL     OW86148   5.361  10.518   8.826 -0.2948  0.4211 -0.2008
27519SOL    HW186149   5.284  10.569   8.850 -0.4950 -0.2524  0.6430
27519SOL    HW286150   5.420  10.526   8.901  0.2297  0.4736 -0.6074
27520SOL     OW86151   9.757   5.425   4.008 -0.0108  0.6633  0.1330
27520SOL    HW186152   9.782   5.506   3.963 -0.1873  1.3581  1.2569
27520SOL    HW286153   9.810   5.424   4.087 -0.0232 -0.3236  0.1447
27521SOL     OW86154   9.047  10.231   4.841  0.3510 -0.2509  0.1599
27521SOL    HW186155   9.137  10.263   4.833 -0.0714  0.7056 -1.0418
27521SOL    HW286156   9.021  10.254   4.930  1.0158  0.2129  0.2389
27522SOL     OW86157   0.702   8.929   7.306 -0.0113 -0.2080  0.2497
27522SOL    HW186158   0.656   9.013   7.310  1.8379  0.9473 -0.9190
27522SOL    HW286159   0.745   8.921   7.392 -1.4210 -0.7561  0.9330
27523SOL     OW86160   0.490   1.104   5.983 -0.0619 -0.1550  0.0665
27523SOL    HW186161   0.403   1.143   5.988 -0.2002  0.0550 -2.5322
27523SOL    HW286162   0.551   1.178   5.991 -0.2020  0.0348 -0.5978
27524SOL     OW86163   2.258   6.177   8.826 -0.1233 -0.0599  0.0337
27524SOL    HW186164   2.236   6.270   8.835  0.2881 -0.0521  0.9539
27524SOL    HW286165   2.177   6.138   8.792 -1.1882  0.2014  2.1216
27525SOL     OW86166   5.192   5.379   0.974  0.1550  0.5325  0.0340
27525SOL    HW186167   5.143   5.459   0.993  0.8648  0.9654  0.0761
27525SOL    HW286168   5.160   5.351   0.888  1.5592  2.1789 -1.0885
27526SOL     OW86169   9.918   4.296   1.503  0.6433  0.0027 -0.1055
27526SOL    HW186170   9.987   4.302   1.437 -0.4085  0.9738 -1.1610
27526SOL    HW286171   9.866   4.221   1.476  0.0252  0.5918 -0.6040
27527SOL     OW86172   6.570   1.568   4.388 -0.8346 -0.0931 -0.5377
27527SOL    HW186173   6.631   1.565   4.462 -0.1305 -1.1931 -1.1443
27527SOL    HW286174   6.596   1.495   4.332 -2.1018  0.0155 -1.3006
27528SOL     OW86175   0.555   3.878  10.482  0.4818  0.2737 -0.0026
27528SOL    HW186176   0.462   3.885  10.463  0.3361  0.9208  0.8923
27528SOL    HW286177   0.560   3.814  10.553  0.6083  1.0404  0.6931
27529SOL     OW86178   4.458   9.030   7.996  0.0737 -0.3664  0.3078
27529SOL    HW186179   4.428   9.120   7.984 -0.6789 -0.3805  1.8685
27529SOL    HW286180   4.492   9.028   8.085 -1.1666 -1.9533  0.7925
27530SOL     OW86181   0.205   9.546   5.310  0.3074  0.3189 -0.2562
27530SOL    HW186182   0.150   9.617   5.278  0.4672  0.4552 -0.2333
27530SOL    HW286183   0.253   9.515   5.233  1.5193  1.3868  0.0286
27531SOL     OW86184   0.496   0.636   8.813  0.1698  0.6643 -0.2547
27531SOL    HW186185   0.535   0.551   8.794 -0.5162  0.3057 -0.0862
27531SOL    HW286186   0.448   0.622   8.895  1.1878  1.5795  0.5300
27532SOL     OW86187   5.559   0.698   8.951 -0.1495 -0.7181 -0.2692
27532SOL    HW186188   5.531   0.700   9.042 -0.1381  0.0830 -0.2722
27532SOL    HW286189   5.587   0.788   8.933  1.7264 -1.2928 -0.4716
27533SOL     OW86190   7.401   8.884   8.926 -0.3293 -0.0270 -0.4693
27533SOL    HW186191   7.418   8.978   8.937  0.9608 -0.2772 -0.1329
27533SOL    HW286192   7.366   8.877   8.837  0.4964  0.6685 -0.8670
27534SOL     OW86193   1.670   6.970   7.385 -0.1149  0.2221 -0.0130
27534SOL    HW186194   1.701   7.045   7.334  1.3704 -0.4249 -0.1127
27534SOL    HW286195   1.611   6.923   7.326 -0.7546  1.0800 -0.0785
27535SOL     OW86196  10.527   0.158   2.437 -0.7208 -0.2448 -0.6137
27535SOL    HW186197  10.526   0.071   2.477 -0.0259 -0.1370 -0.3406
27535SOL    HW286198  10.580   0.147   2.358 -0.2957  0.0081 -0.3708
27536SOL     OW86199   1.970   5.527   4.060  0.1420 -0.5107 -0.0696
27536SOL    HW186200   1.988   5.496   4.149 -3.2364  1.9290  1.6564
27536SOL    HW286201   1.912   5.460   4.023  0.2612 -0.7369  0.1482
27537SOL     OW86202  10.419   7.398   7.232  0.4855  0.2318 -0.0519
27537SOL    HW186203  10.359   7.325   7.252 -0.5321  0.0826 -3.1089
27537SOL    HW286204  10.506   7.362   7.249 -0.1164 -0.6065  1.4979
27538SOL     OW86205   8.818   0.793   0.182  0.3465 -0.8190  0.0767
27538SOL    HW186206   8.777   0.742   0.252 -1.0139 -1.6477 -1.2725
27538SOL    HW286207   8.753   0.860   0.160  1.1514  0.0360  0.1972
27539SOL     OW86208   4.831   3.488   5.075  0.0348  0.3490  0.4088
27539SOL    HW186209   4.821   3.415   5.013  0.0685  0.9251 -0.2861
27539SOL    HW286210   4.924   3.485   5.099 -0.0261 -0.0132  0.6085
27540SOL     OW86211   9.271  10.624   4.536 -0.1402 -0.3255  0.7501
27540SOL    HW186212   9.319  10.651   4.614 -0.3472 -0.0296  0.7775
27540SOL    HW286213   9.293  10.532   4.524  1.3412  0.0801  0.1087
27541SOL     OW86214   3.231   0.779   5.915  0.1494  0.6174 -0.4480
27541SOL    HW186215   3.147   0.825   5.917 -0.2488  0.1764 -2.9732
27541SOL    HW286216   3.296   0.847   5.926 -0.5080  1.2606 -0.4561
27542SOL     OW86217   3.163   2.950   5.111  0.1012 -0.2674 -0.3413
27542SOL    HW186218   3.145   3.044   5.102 -0.9175 -0.5471 -1.4024
27542SOL    HW286219   3.234   2.934   5.050  1.6565  0.1506  1.2640
27543SOL     OW86220   5.369   3.576  11.043  0.0077  0.4351 -0.3847
27543SOL    HW186221   5.402   3.489  11.067 -0.0429  0.5336  0.0586
27543SOL    HW286222   5.276   3.562  11.023 -0.3413  0.5926  0.9863
27544SOL     OW86223   5.727   4.500   3.866  0.3391 -0.0437  0.2305
27544SOL    HW186224   5.656   4.534   3.811  1.5868 -0.1279 -1.5425
27544SOL    HW286225   5.700   4.411   3.888  0.8281 -0.9211 -2.3488
27545SOL     OW86226   4.449   7.051   3.564  0.0975 -0.0324 -0.4426
27545SOL    HW186227   4.538   7.026   3.589 -0.5570 -3.1236 -0.7411
27545SOL    HW286228   4.460   7.132   3.514  2.7130 -0.1547 -0.2048
27546SOL     OW86229   9.737   6.513   0.481 -0.2387  0.3600  0.1845
27546SOL    HW186230   9.817   6.499   0.531 -0.0402 -0.0961 -0.2498
27546SOL    HW286231   9.745   6.601   0.445  0.0273  0.3503  0.2223
27547SOL     OW86232  10.414   5.619   0.101  0.4139 -0.8193  0.3168
27547SOL    HW186233  10.371   5.698   0.133  2.5780  0.2344  0.8174
27547SOL    HW286234  10.412   5.628   0.005  0.3584 -0.3440  0.3618
27548SOL     OW86235  10.718  10.337   3.111 -0.0181  0.0124 -0.2047
27548SOL    HW186236  10.742  10.369   3.198  1.3100  0.9387 -0.8740
27548SOL    HW286237  10.645  10.277   3.126  1.7368 -1.7652  1.8344
27549SOL     OW86238   0.199   9.912   8.301 -0.1685  0.6945  0.3472
27549SOL    HW186239   0.155   9.854   8.240  0.2128  3.1421 -2.4953
27549SOL    HW286240   0.293   9.897   8.286 -0.0587  0.7201  0.9635
27550SOL     OW86241   8.559   4.950   6.436  0.1085  0.6743 -0.1281
27550SOL    HW186242   8.578   5.037   6.472  0.5322  0.0333  1.2705
27550SOL    HW286243   8.468   4.955   6.409 -0.1946  1.2470  0.9302
27551SOL     OW86244   3.342   9.861   9.701 -0.1548 -0.2159 -0.6513
27551SOL    HW186245   3.298   9.785   9.739 -1.1567  0.0471 -1.2599
27551SOL    HW286246   3.293   9.881   9.622  0.4394  0.7308 -0.7989
27552SOL     OW86247   1.912   0.404   7.504 -0.0012  0.3320  0.4208
27552SOL    HW186248   1.988   0.438   7.457  1.7046 -2.4466  0.9387
27552SOL    HW286249   1.940   0.398   7.595 -1.6283  1.1886  1.0351
27553SOL     OW86250   7.876   6.947   5.180  0.9631  0.1829  0.3938
27553SOL    HW186251   7.948   6.884   5.184  3.1884  2.5268  0.0076
27553SOL    HW286252   7.844   6.941   5.090  1.2347 -0.2919  0.3228
27554SOL     OW86253   3.513   6.535   4.934 -0.7884 -0.9939  0.7588
27554SOL    HW186254   3.454   6.558   4.863 -0.3400  0.6790  0.8960
27554SOL    HW286255   3.601   6.545   4.897 -0.5541 -0.2560  1.4795
27555SOL     OW86256   4.004   8.115   2.072 -0.2632 -0.4487  1.3306
27555SOL    HW186257   3.936   8.059   2.035  0.6821 -0.7101 -0.1030
27555SOL    HW286258   4.072   8.054   2.102 -0.3586 -0.1632  2.1657
27556SOL     OW86259   9.130   3.369   9.140 -0.6287  0.1354 -0.0946
27556SOL    HW186260   9.161   3.289   9.098  0.5647  1.6027 -2.1836
27556SOL    HW286261   9.067   3.406   9.078 -0.7828  1.0823  0.6031
27557SOL     OW86262   4.445   2.963   9.053  0.3328 -0.0446  0.1974
27557SOL    HW186263   4.447   2.870   9.033 -1.2387  0.0007 -0.2866
27557SOL    HW286264   4.532   2.982   9.088  0.1706 -1.9882  1.7799
27558SOL     OW86265   5.218   3.242   0.965  0.2066 -0.0601  0.5920
27558SOL    HW186266   5.269   3.317   0.997 -0.0042 -0.4485  1.8927
27558SOL    HW286267   5.284   3.179   0.936  0.3817  0.7339 -0.8427
27559SOL     OW86268  11.080   8.244   9.716 -0.1225 -0.4933 -0.2790
27559SOL    HW186269  11.038   8.280   9.794 -1.3336 -0.4823 -0.9049
27559SOL    HW286270  11.008   8.236   9.652  1.0675  0.7389 -1.8420
27560SOL     OW86271   2.627   8.810   5.226 -0.3766  0.1559 -0.4198
27560SOL    HW186272   2.597   8.777   5.311 -0.4640 -0.1603 -0.5727
27560SOL    HW286273   2.549   8.809   5.171  0.2528 -2.5836 -1.4328
27561SOL     OW86274   7.002   4.578   0.789 -0.4427 -1.2026  0.0971
27561SOL    HW186275   7.050   4.641   0.735 -0.4138 -2.6557 -1.6594
27561SOL    HW286276   6.910   4.603   0.778 -0.4131 -1.2879 -0.3846
27562SOL     OW86277   3.382   8.840   1.549 -0.5502 -0.5038 -0.9725
27562SOL    HW186278   3.460   8.842   1.494 -0.2568  1.7114 -0.5625
27562SOL    HW286279   3.331   8.916   1.522 -2.2988 -1.5429 -0.8014
27563SOL     OW86280   8.937   6.181   0.206 -0.1776  0.3825  0.0961
27563SOL    HW186281   8.987   6.260   0.185  0.7042  0.2002  1.3773
27563SOL    HW286282   9.002   6.120   0.242 -0.8527 -0.9094 -0.7655
27564SOL     OW86283   1.373   2.204   9.607  0.2096  0.1971 -0.2067
27564SOL    HW186284   1.345   2.117   9.577  0.6041  0.4147 -1.2549
27564SOL    HW286285   1.295   2.259   9.599 -0.0289 -0.0437  0.4139
27565SOL     OW86286   5.833  10.400   8.489  0.0909 -0.3806  0.4175
27565SOL    HW186287   5.891  10.446   8.427  0.2526 -0.7961  0.2515
27565SOL    HW286288   5.893  10.345   8.540  0.0286  0.3920  1.3488
27566SOL     OW86289   5.198   0.825   4.838 -0.0339  0.1823  0.0461
27566SOL    HW186290   5.125   0.763   4.836  0.4503 -0.3905 -0.9032
27566SOL    HW286291   5.256   0.792   4.906 -0.6328  0.6231  0.7841
27567SOL     OW86292   6.096   3.012   6.856 -0.3262  0.0417  0.1790
27567SOL    HW186293   6.123   3.007   6.948  3.1956 -0.2615 -0.7241
27567SOL    HW286294   6.102   3.105   6.835 -2.0820  0.2384  0.4580
27568SOL     OW86295   3.968   8.408   6.746  0.3078  0.2927  0.2229
27568SOL    HW186296   4.029   8.406   6.672  0.4067  0.8280  0.2885
27568SOL    HW286297   3.902   8.472   6.721  1.3184  1.8604  1.3391
27569SOL     OW86298   8.989   6.108   3.177 -0.3956  0.2385  0.1324
27569SOL    HW186299   9.052   6.058   3.229 -0.1025  0.6720  0.1906
27569SOL    HW286300   8.992   6.196   3.212 -0.6028  0.4038 -0.2577
27570SOL     OW86301   6.201   2.886   0.270  0.3151  0.2680 -0.0066
27570SOL    HW186302   6.197   2.976   0.301  2.0259  0.2792  0.2652
27570SOL    HW286303   6.154   2.887   0.187 -2.6545  0.6499  1.5461
27571SOL     OW86304   5.246   2.774   3.750 -0.4240  0.2500 -0.4329
27571SOL    HW186305   5.178   2.778   3.682  1.2494 -1.2272 -2.3079
27571SOL    HW286306   5.294   2.694   3.731  0.1104 -0.2416  2.5948
27572SOL     OW86307   4.626   7.909   5.613 -0.0949 -0.0982 -0.0630
27572SOL    HW186308   4.668   7.823   5.621  0.7670  0.4526  1.7393
27572SOL    HW286309   4.539   7.890   5.577  0.3699 -1.6340 -0.4384
27573SOL     OW86310   7.842   5.463   6.380  0.3282  0.2885  0.1706
27573SOL    HW186311   7.888   5.503   6.307  0.5687 -0.3796 -0.0550
27573SOL    HW286312   7.754   5.445   6.347  0.6519 -0.6694 -0.1982
27574SOL     OW86313   0.005   5.127   1.895  0.2346 -0.1710  0.8979
27574SOL    HW186314   0.090   5.124   1.850  0.2800 -0.2551  0.9877
27574SOL    HW286315   0.003   5.214   1.935 -0.2420  0.2930 -0.0998
27575SOL     OW86316   8.433   3.390   6.247 -0.2858  0.6548 -0.5560
27575SOL    HW186317   8.488   3.322   6.285 -1.3733 -0.6426 -1.2004
27575SOL    HW286318   8.466   3.401   6.158 -1.3805 -0.5563 -1.1459
27576SOL     OW86319  10.804   7.080   0.413 -0.3949  0.2792 -0.2085
27576SOL    HW186320  10.728   7.045   0.367 -0.5007  0.5193 -0.2164
27576SOL    HW286321  10.878   7.058   0.356 -0.4250 -0.1759 -0.0807
27577SOL     OW86322   5.780   3.819   4.512 -0.3002 -0.3251 -0.1647
27577SOL    HW186323   5.805   3.730   4.539  2.8761 -0.3255 -2.4610
27577SOL    HW286324   5.706   3.806   4.453 -0.5039 -1.3567  0.2923
27578SOL     OW86325   6.164   0.385   5.220 -0.2430 -0.1068  0.0562
27578SOL    HW186326   6.120   0.430   5.148  0.9042  1.1882  0.1162
27578SOL    HW286327   6.094   0.360   5.280 -0.9563  1.4788 -0.0656
27579SOL     OW86328   4.353   2.071   4.845 -0.0224  0.1828 -0.2868
27579SOL    HW186329   4.280   2.088   4.904 -0.1660  1.2498 -0.7484
27579SOL    HW286330   4.373   1.978   4.858 -1.3145 -0.0801  0.0120
27580SOL     OW86331   1.225   1.750   4.053  0.4338  0.2057  0.3186
27580SOL    HW186332   1.197   1.673   4.003 -0.6556  0.6001  0.3023
27580SOL    HW286333   1.181   1.741   4.137  0.2155  0.8645  0.2761
27581SOL     OW86334   4.785   8.613   6.408  0.0872 -0.2915 -0.4189
27581SOL    HW186335   4.722   8.661   6.462  0.4706 -0.5822  0.3040
27581SOL    HW286336   4.735   8.538   6.375  0.4385 -1.4698  1.5228
27582SOL     OW86337   1.996   7.476   3.709 -0.3309 -0.4887  0.0664
27582SOL    HW186338   1.906   7.446   3.719 -0.8417  0.9431 -0.0045
27582SOL    HW286339   2.043   7.401   3.673 -1.4520 -1.3034  0.2617
27583SOL     OW86340   9.440   9.823   5.473  0.3942  0.0825 -0.0156
27583SOL    HW186341   9.393   9.795   5.394 -1.3164  0.3242  0.8616
27583SOL    HW286342   9.393   9.901   5.502  0.5730 -0.3754  1.5881
27584SOL     OW86343   0.714  11.063   5.861  0.0715  0.2579 -0.4304
27584SOL    HW186344   0.810  11.064   5.863  0.0669  0.6509 -0.1514
27584SOL    HW286345   0.691  10.973   5.841  0.5119  0.3744 -1.5529
27585SOL     OW86346   0.736   7.187   9.260  0.0916  0.2762 -0.0303
27585SOL    HW186347   0.691   7.254   9.208 -0.2281 -0.1280 -0.2852
27585SOL    HW286348   0.705   7.200   9.349 -0.5111  0.0207 -0.2001
27586SOL     OW86349   2.178   7.288   9.810  0.4326  0.2981 -0.4048
27586SOL    HW186350   2.225   7.222   9.758  1.8530 -1.8847  3.2515
27586SOL    HW286351   2.247   7.344   9.846 -0.6583  3.0094 -2.1877
27587SOL     OW86352   6.525   1.443   7.810  0.0219 -0.5786 -0.0102
27587SOL    HW186353   6.618   1.467   7.801  0.9463 -3.2690  1.2655
27587SOL    HW286354   6.501   1.410   7.724  1.3468 -3.0039  0.4558
27588SOL     OW86355   5.164   7.217   5.695 -0.9755  0.2105  1.0342
27588SOL    HW186356   5.078   7.258   5.696 -2.1188 -1.9928 -0.1469
27588SOL    HW286357   5.147   7.124   5.709  1.4468 -0.0334  3.0612
27589SOL     OW86358   5.200   6.365   3.457  0.1105 -0.2916 -0.0330
27589SOL    HW186359   5.134   6.419   3.413  0.6361 -0.9339 -1.6968
27589SOL    HW286360   5.221   6.413   3.537  0.9304  2.2881 -1.6760
27590SOL     OW86361   0.215   2.396   2.066  0.3677 -0.6901  0.1040
27590SOL    HW186362   0.246   2.316   2.109  1.0617 -0.1156  0.7091
27590SOL    HW286363   0.248   2.390   1.976  0.0607 -1.2740  0.0293
27591SOL     OW86364   0.296   0.107   4.436 -0.2465 -0.2785 -0.3846
27591SOL    HW186365   0.338   0.091   4.351  0.3106 -1.9473  0.1482
27591SOL    HW286366   0.362   0.152   4.488  0.0793 -0.8425 -0.2936
27592SOL     OW86367   9.696   7.197   0.713 -0.3710  0.3512  0.0185
27592SOL    HW186368   9.708   7.292   0.707  1.4976  0.1411 -0.0817
27592SOL    HW286369   9.782   7.163   0.736 -1.5235 -1.1422  2.5330
27593SOL     OW86370   9.674   6.410   0.753  0.2675 -0.4140  0.1886
27593SOL    HW186371   9.686   6.468   0.678  1.1751 -0.6878  0.1065
27593SOL    HW286372   9.763   6.392   0.784  0.1046 -2.6937 -0.4934
27594SOL     OW86373   1.586   3.513   3.721  0.7636 -0.6204  0.1540
27594SOL    HW186374   1.643   3.496   3.645  0.2772  2.2464 -0.9742
27594SOL    HW286375   1.516   3.568   3.686 -1.1758 -1.6746  2.1239
27595SOL     OW86376   8.630   3.533   9.755 -0.2857  0.1829 -0.6149
27595SOL    HW186377   8.692   3.504   9.688 -1.7394  0.0011 -1.9222
27595SOL    HW286378   8.556   3.473   9.747 -0.6754  0.4175  0.8963
27596SOL     OW86379   7.301   0.301  10.069  0.3908 -0.5792 -0.2142
27596SOL    HW186380   7.334   0.314  10.158 -1.3345  2.1959  0.1274
27596SOL    HW286381   7.364   0.348  10.013 -0.5758  1.0401  0.0013
27597SOL     OW86382   0.447  10.848   1.916 -0.2442 -0.1700  0.2885
27597SOL    HW186383   0.387  10.896   1.972  2.3720  0.2915  2.9201
27597SOL    HW286384   0.482  10.778   1.971  0.3841 -1.4874 -1.6625
27598SOL     OW86385   6.204   4.384   9.546 -0.4026  0.0201  0.0255
27598SOL    HW186386   6.133   4.330   9.580 -0.1040  0.3206  1.1842
27598SOL    HW286387   6.197   4.377   9.451 -0.0578 -2.4657  0.1241
27599SOL     OW86388  10.895   2.546  10.247 -0.0253 -0.2189  0.3183
27599SOL    HW186389  10.880   2.582  10.335 -1.8640  1.4662 -0.6221
27599SOL    HW286390  10.873   2.453  10.255 -0.8074  0.0455  1.5018
27600SOL     OW86391   6.185   0.678  10.036 -0.5386  0.3238 -0.2368
27600SOL    HW186392   6.263   0.726  10.064 -0.2120  0.2965 -1.0772
27600SOL    HW286393   6.139   0.657  10.117 -0.3926  1.5597  0.1819
27601SOL     OW86394   1.098   7.705   9.789 -0.3005  0.0517 -0.2543
27601SOL    HW186395   1.132   7.652   9.862  1.5390  0.8491 -0.4710
27601SOL    HW286396   1.134   7.792   9.804  0.3594  0.1723 -2.2376
27602SOL     OW86397   5.095   5.412   5.823  0.3177 -0.1855 -0.4580
27602SOL    HW186398   5.075   5.332   5.775  0.7769 -0.5229 -0.0947
27602SOL    HW286399   5.176   5.392   5.870  0.9239  0.7998 -1.0626
27603SOL     OW86400   2.487   0.754   8.159 -0.6471  0.1740  1.0049
27603SOL    HW186401   2.511   0.809   8.085 -0.3645  1.3442  1.9237
27603SOL    HW286402   2.544   0.678   8.153 -1.4399 -0.3291 -0.6223
27604SOL     OW86403  10.893   4.559  10.546  0.0539  0.1311  0.1293
27604SOL    HW186404  10.977   4.603  10.532  0.6055 -0.7710  0.4597
27604SOL    HW286405  10.901   4.519  10.633 -0.6862 -0.0360  0.1300
27605SOL     OW86406   7.183   4.297   7.272  0.2856 -1.2927 -0.7589
27605SOL    HW186407   7.226   4.217   7.301 -0.0186 -1.0786  0.3462
27605SOL    HW286408   7.108   4.306   7.330  0.0102 -0.4936 -1.2245
27606SOL     OW86409   4.740   0.972   1.721  0.0184 -0.1695  0.0306
27606SOL    HW186410   4.743   0.885   1.760  1.6092  0.2520  0.9111
27606SOL    HW286411   4.828   0.986   1.686 -0.1644  1.1360  0.0367
27607SOL     OW86412   0.647   1.966   5.154  0.4860 -0.2779  0.0629
27607SOL    HW186413   0.718   1.997   5.099 -0.0140  0.1058 -0.3772
27607SOL    HW286414   0.583   2.037   5.154 -1.3066 -1.7587 -2.0280
27608SOL     OW86415   2.167   4.161   4.117 -0.4267  0.4996 -0.1819
27608SOL    HW186416   2.115   4.238   4.139 -0.2041  0.6422 -0.1461
27608SOL    HW286417   2.107   4.104   4.069 -1.3123 -0.3977  1.8681
27609SOL     OW86418   5.380   8.794   9.921 -0.3596  0.0539  0.6374
27609SOL    HW186419   5.413   8.878   9.891 -2.4149  0.5695 -0.3124
27609SOL    HW286420   5.366   8.743   9.841 -1.3351 -0.3332  1.0458
27610SOL     OW86421   2.394   1.484   6.811  0.5522 -1.0263 -0.2152
27610SOL    HW186422   2.358   1.571   6.792 -0.3935 -1.3370  0.0846
27610SOL    HW286423   2.323   1.438   6.857  1.3451 -1.6692  0.3888
27611SOL     OW86424   3.936  10.286   9.522 -0.0066  0.0534  0.0871
27611SOL    HW186425   3.999  10.215   9.532  0.8387  0.8626  0.6753
27611SOL    HW286426   3.988  10.366   9.531 -0.7334  0.7822 -1.6565
27612SOL     OW86427   9.818   9.896   6.391 -0.2687  0.0521 -0.3202
27612SOL    HW186428   9.809   9.844   6.471 -0.5948 -0.2078 -0.5252
27612SOL    HW286429   9.877   9.845   6.336  0.3634  0.4730 -0.0512
27613SOL     OW86430   4.855   1.073   6.343  0.0581 -0.0456  0.1481
27613SOL    HW186431   4.853   1.138   6.272  0.9212  0.1255  0.2714
27613SOL    HW286432   4.763   1.049   6.356 -0.1421  0.1412 -0.8253
27614SOL     OW86433   6.978   3.163   7.312  0.1083 -0.4626 -0.2048
27614SOL    HW186434   6.988   3.075   7.348 -1.5196 -0.4011  0.5046
27614SOL    HW286435   6.898   3.160   7.261 -0.0741  0.6491 -0.0234
27615SOL     OW86436   7.857   3.692   5.734 -0.0961 -0.7141 -0.0234
27615SOL    HW186437   7.825   3.658   5.818 -0.0053 -0.8941 -0.0618
27615SOL    HW286438   7.899   3.616   5.692 -1.0618 -0.8956 -0.6880
27616SOL     OW86439   6.219   0.184   9.562 -0.7180 -0.1312  0.1060
27616SOL    HW186440   6.235   0.109   9.505 -0.5953  1.1636 -1.6459
27616SOL    HW286441   6.307   0.216   9.584 -0.7760 -0.1191  0.3184
27617SOL     OW86442  10.767   6.797   2.568 -0.4479 -0.1848 -0.3094
27617SOL    HW186443  10.724   6.718   2.535 -2.4685  0.1735  1.2877
27617SOL    HW286444  10.750   6.863   2.500  1.2657 -1.0457 -1.6622
27618SOL     OW86445   4.371  10.277   4.965 -0.7293  0.5037  0.3665
27618SOL    HW186446   4.289  10.282   4.916 -0.7190  2.0700  0.4698
27618SOL    HW286447   4.431  10.335   4.918 -0.0958  0.4402  1.0739
27619SOL     OW86448   9.295  10.798   2.792  0.6824 -0.4523  0.3483
27619SOL    HW186449   9.349  10.782   2.869  3.6243 -0.3516 -1.5506
27619SOL    HW286450   9.278  10.893   2.794  0.3766 -0.5147  1.0510
27620SOL     OW86451   9.002   4.471   8.712  0.0174  0.5122  0.0729
27620SOL    HW186452   9.007   4.376   8.713  1.4936  0.5561  1.3299
27620SOL    HW286453   8.929   4.491   8.654  0.7053 -1.3309 -1.5542
27621SOL     OW86454   9.950   7.286   8.207 -0.4461 -0.6381 -0.2864
27621SOL    HW186455   9.868   7.330   8.230 -0.7256 -0.2641 -1.8551
27621SOL    HW286456   9.959   7.301   8.112  0.5292 -2.1750 -0.4669
27622SOL     OW86457   8.147   1.683  10.508 -0.2568 -0.5305  0.2999
27622SOL    HW186458   8.185   1.606  10.548  1.3617 -0.4518 -0.9569
27622SOL    HW286459   8.158   1.669  10.414 -1.5450  0.4414 -0.0303
27623SOL     OW86460   9.904   9.409   4.317 -0.3803  0.0751  0.5715
27623SOL    HW186461   9.818   9.452   4.310  0.3350  1.3184 -1.4035
27623SOL    HW286462   9.954   9.444   4.243  1.2247 -2.0264  0.5749
27624SOL     OW86463   8.864   7.663   6.708  0.3238 -0.1290  0.1063
27624SOL    HW186464   8.901   7.672   6.797  0.8289 -1.0502 -0.0010
27624SOL    HW286465   8.839   7.752   6.685  1.4543  0.3645  0.6452
27625SOL     OW86466   5.364   7.433   1.803  0.2015  0.0015  0.0823
27625SOL    HW186467   5.448   7.388   1.791 -0.0006 -0.3991  0.1698
27625SOL    HW286468   5.388   7.524   1.818  0.5317  0.6663 -3.4927
27626SOL     OW86469   5.680  10.487   8.111 -0.0343  0.1841  0.2037
27626SOL    HW186470   5.621  10.441   8.051  0.2326 -1.7070  1.3021
27626SOL    HW286471   5.647  10.466   8.198  1.4880  0.1368  0.7957
27627SOL     OW86472   8.214   4.996   9.176 -0.4105  0.5731 -0.6736
27627SOL    HW186473   8.178   5.079   9.145 -1.3157  0.0267 -1.1124
27627SOL    HW286474   8.289   4.979   9.119 -0.2188  1.0788 -0.5785
27628SOL     OW86475   7.805   4.900   2.788  0.4333  0.4539 -0.3434
27628SOL    HW186476   7.887   4.868   2.752  0.5692  0.3214  0.0710
27628SOL    HW286477   7.759   4.938   2.714  0.8018  0.3883 -0.6086
27629SOL     OW86478  10.957   5.061   3.827 -0.0651 -0.7001  0.0474
27629SOL    HW186479  10.997   5.139   3.866  1.3418 -0.8613 -1.0112
27629SOL    HW286480  10.937   5.086   3.737 -3.4645 -0.2745  0.8134
27630SOL     OW86481  10.380   5.273   3.624 -0.3217  0.7679 -0.1625
27630SOL    HW186482  10.450   5.332   3.596  0.0982 -0.4134 -1.7296
27630SOL    HW286483  10.410   5.237   3.707  0.8278  0.4726 -0.6851
27631SOL     OW86484   5.203   0.255   0.050  0.0300 -0.6745  0.8616
27631SOL    HW186485   5.269   0.230  -0.014  0.7310  0.0062  1.2919
27631SOL    HW286486   5.143   0.313   0.002  1.5897  1.3580  1.2145
27632SOL     OW86487   5.537   3.763   9.248 -0.3483  0.3494  0.1831
27632SOL    HW186488   5.613   3.811   9.280  1.5550 -0.7472 -2.3276
27632SOL    HW286489   5.499   3.818   9.180 -0.6205  0.0255  0.0651
27633SOL     OW86490   5.828   8.412   8.216  0.0503 -0.2699 -0.5623
27633SOL    HW186491   5.919   8.421   8.188 -0.4445  1.6979 -1.8069
27633SOL    HW286492   5.778   8.422   8.135 -1.2986 -0.3003  0.2508
27634SOL     OW86493   4.125   6.599   6.680  0.3159 -0.3982  0.2898
27634SOL    HW186494   4.052   6.536   6.683 -0.1509 -0.0512 -1.9270
27634SOL    HW286495   4.116   6.649   6.761 -2.3625  0.0656 -0.1811
27635SOL     OW86496   2.192  11.028   8.620 -0.1681 -0.2891  0.0126
27635SOL    HW186497   2.287  11.024   8.617 -0.1237 -0.1925  0.9591
27635SOL    HW286498   2.166  11.053   8.532  0.6128 -1.4647 -0.5766
27636SOL     OW86499  10.498   9.005   8.869 -0.4631 -0.0027 -0.2625
27636SOL    HW186500  10.498   9.097   8.842 -2.4014 -0.0860 -0.7169
27636SOL    HW286501  10.435   9.001   8.941 -0.1070 -0.9120  0.0101
27637SOL     OW86502   4.832   8.185   9.377  0.1529  0.1765 -0.2181
27637SOL    HW186503   4.920   8.220   9.372  0.1940 -0.0482 -1.0533
27637SOL    HW286504   4.783   8.232   9.310 -0.4256  0.4640  0.3914
27638SOL     OW86505   6.329   6.254   6.916 -0.5901  0.4403 -0.0240
27638SOL    HW186506   6.386   6.187   6.878 -0.5388  0.0707  0.6948
27638SOL    HW286507   6.374   6.337   6.898 -0.0191  0.1809  0.1954
27639SOL     OW86508   3.058   9.785   7.075  0.2070  0.3324 -0.0166
27639SOL    HW186509   3.131   9.738   7.115  0.9680  0.6139 -1.0542
27639SOL    HW286510   3.012   9.718   7.024  0.9634  0.5800 -1.0407
27640SOL     OW86511  10.215   0.096   6.895  0.4788 -0.1168 -0.7456
27640SOL    HW186512  10.160   0.154   6.947  0.3867 -0.3440 -0.5856
27640SOL    HW286513  10.253   0.152   6.828  0.3565  0.1180 -0.6186
27641SOL     OW86514   6.425   5.807  10.426 -0.1373 -0.1730 -0.1047
27641SOL    HW186515   6.399   5.784  10.336 -1.9146 -2.3090  0.8628
27641SOL    HW286516   6.500   5.751  10.444 -0.6200 -0.7360  0.1776
27642SOL     OW86517   1.355   7.103  10.969 -0.1221 -0.3693 -0.3519
27642SOL    HW186518   1.288   7.035  10.963  0.9680 -1.3547 -3.4151
27642SOL    HW286519   1.308   7.185  10.955 -1.2795 -0.4758  2.2559
27643SOL     OW86520   9.414   8.391   7.959  0.7129 -0.0981 -0.2628
27643SOL    HW186521   9.340   8.431   7.913 -0.2137 -1.5390 -0.0736
27643SOL    HW286522   9.468   8.465   7.986 -1.3363  1.0998  0.7642
27644SOL     OW86523   5.329   6.781   2.310  0.2217 -0.5758 -0.0797
27644SOL    HW186524   5.334   6.740   2.224  0.2199  1.0443 -0.8970
27644SOL    HW286525   5.246   6.829   2.309  0.7072  0.3083  0.4058
27645SOL     OW86526   4.194  10.906   1.054 -0.1300 -0.1457 -0.1676
27645SOL    HW186527   4.263  10.935   0.995 -1.0684 -0.4797 -1.4968
27645SOL    HW286528   4.186  10.812   1.036 -0.5129 -0.2246  0.4119
27646SOL     OW86529  10.435   9.648   5.298 -0.0014  0.2320  0.0298
27646SOL    HW186530  10.377   9.619   5.228 -0.3022  0.5910  0.1299
27646SOL    HW286531  10.406   9.598   5.375 -0.8697  1.1598  0.3310
27647SOL     OW86532   5.724   8.180   6.509  0.5722 -0.3420  0.0387
27647SOL    HW186533   5.724   8.174   6.413 -0.8188  0.9011 -0.0732
27647SOL    HW286534   5.668   8.108   6.537 -1.4232  1.0038 -0.2879
27648SOL     OW86535   8.364   7.708   2.651 -0.2714 -0.4855  0.3137
27648SOL    HW186536   8.307   7.645   2.696 -0.2771 -0.5846  0.1672
27648SOL    HW286537   8.309   7.744   2.581 -0.7278  0.6968  1.2387
27649SOL     OW86538   1.007   0.407   0.947  0.2557  0.6643 -0.6807
27649SOL    HW186539   0.955   0.329   0.928  0.7797 -0.3132  1.5194
27649SOL    HW286540   0.950   0.463   1.000  1.0376  0.0097  0.9404
27650SOL     OW86541  10.230   7.045   0.160 -0.7088  0.3892 -0.4664
27650SOL    HW186542  10.139   7.066   0.182 -0.8701 -0.4605 -0.3101
27650SOL    HW286543  10.282   7.109   0.210 -1.2388  1.6914 -1.5091
27651SOL     OW86544   9.543   0.066   3.886 -0.4543  0.1033 -0.0005
27651SOL    HW186545   9.475   0.131   3.903  1.1199  1.5193  1.1895
27651SOL    HW286546   9.555   0.021   3.970 -0.4107 -0.6610 -0.3986
27652SOL     OW86547  10.772   8.749   3.292  0.6651 -0.2105  0.0007
27652SOL    HW186548  10.686   8.708   3.295  0.2461  0.5515 -1.0152
27652SOL    HW286549  10.812   8.714   3.212  0.2610  1.3800 -0.9351
27653SOL     OW86550   3.369   9.342   0.867  0.4959 -0.1500 -0.0445
27653SOL    HW186551   3.417   9.416   0.904 -0.1377  1.0264 -1.4219
27653SOL    HW286552   3.427   9.307   0.799 -0.2827  0.9043 -1.3106
27654SOL     OW86553   8.923  10.699   8.724  0.4051 -0.0392  0.0274
27654SOL    HW186554   8.914  10.794   8.714 -2.8206 -0.1135  1.0006
27654SOL    HW286555   8.833  10.667   8.728  1.3804 -2.9818  1.2841
27655SOL     OW86556   1.444   0.637   3.392 -0.1427  0.0546 -0.8870
27655SOL    HW186557   1.409   0.726   3.399 -2.0717 -0.5665 -2.1338
27655SOL    HW286558   1.453   0.622   3.298  0.8449 -0.8317 -0.6662
27656SOL     OW86559   8.765   3.736   6.138  0.2435 -0.3864 -0.0482
27656SOL    HW186560   8.811   3.811   6.176  0.2039 -0.6472  0.5379
27656SOL    HW286561   8.683   3.773   6.104  0.2523 -0.1532  0.1801
27657SOL     OW86562   3.564   3.513   5.224 -0.2988 -0.1124  0.1393
27657SOL    HW186563   3.513   3.593   5.238 -0.6966 -0.3221 -0.0990
27657SOL    HW286564   3.537   3.482   5.137  0.8193  0.2109 -0.3499
27658SOL     OW86565   7.649  10.480   5.923  0.0770 -0.2933  0.3712
27658SOL    HW186566   7.718  10.441   5.870 -0.9804  0.1456 -1.3964
27658SOL    HW286567   7.607  10.544   5.865 -1.8565 -0.5987  1.3545
27659SOL     OW86568   1.782   4.654   0.292  0.1553  0.1345 -0.2463
27659SOL    HW186569   1.741   4.616   0.214 -0.1337 -0.9748  0.4296
27659SOL    HW286570   1.817   4.738   0.262 -1.0183  0.2783 -1.2703
27660SOL     OW86571  10.477   0.834   6.496  0.2648 -0.1334  0.3397
27660SOL    HW186572  10.487   0.797   6.409  0.2777  0.3286  0.1425
27660SOL    HW286573  10.482   0.929   6.483 -0.4417 -0.0299  0.7421
27661SOL     OW86574   3.327   6.918   2.047 -0.7739  0.5681  0.6813
27661SOL    HW186575   3.339   6.930   1.952 -0.8173  0.0888  0.6105
27661SOL    HW286576   3.302   6.826   2.056 -1.7706  0.8750  1.0729
27662SOL     OW86577   7.101   2.050   3.153  0.0669 -0.1299  0.9541
27662SOL    HW186578   7.092   2.022   3.062  3.5120 -1.4392  0.8934
27662SOL    HW286579   7.026   2.011   3.198 -1.1003 -0.3588 -1.0800
27663SOL     OW86580   3.727   7.793   8.415  0.4101 -0.2473 -0.2992
27663SOL    HW186581   3.662   7.784   8.345  1.2714 -0.0171 -1.1481
27663SOL    HW286582   3.772   7.875   8.395  1.4863 -0.7988 -0.1683
27664SOL     OW86583   5.958  10.216  10.111  0.8023 -0.2038  0.4716
27664SOL    HW186584   5.869  10.184  10.125  0.2204  0.8632 -0.6110
27664SOL    HW286585   6.002  10.147  10.063  0.0469 -0.0859 -0.4282
27665SOL     OW86586   1.764   9.317   0.421  0.3799 -0.1973 -0.5522
27665SOL    HW186587   1.768   9.223   0.402 -1.8474 -0.1888 -1.3338
27665SOL    HW286588   1.686   9.327   0.476 -0.2908  1.3500 -1.7084
27666SOL     OW86589   9.702   1.375   8.115  0.1073  0.2321 -0.0367
27666SOL    HW186590   9.768   1.346   8.052  0.3060 -2.0562  1.1176
27666SOL    HW286591   9.706   1.310   8.185 -2.7949  0.4938  0.4756
27667SOL     OW86592   3.601   2.735   3.973 -0.4525 -0.5045  0.7107
27667SOL    HW186593   3.578   2.656   4.021 -0.4698 -0.1487  1.2877
27667SOL    HW286594   3.669   2.776   4.026 -0.7172  0.0700  0.6110
27668SOL     OW86595   6.572   7.294  10.863  0.1664 -0.2733 -0.0983
27668SOL    HW186596   6.523   7.354  10.920 -2.3992 -1.1642 -1.1968
27668SOL    HW286597   6.513   7.279  10.789  1.7260 -2.2910 -1.0023
27669SOL     OW86598   1.390   0.836   1.875 -0.1420  0.0402  0.1903
27669SOL    HW186599   1.375   0.903   1.808 -0.6153  1.0505  1.2700
27669SOL    HW286600   1.324   0.769   1.857 -1.5902  1.2364  0.7969
27670SOL     OW86601   1.281   8.213   3.078  0.1545  0.2372  0.5000
27670SOL    HW186602   1.287   8.191   3.171  2.8161  1.1812  0.6313
27670SOL    HW286603   1.292   8.130   3.033  2.6312  0.1635  1.0661
27671SOL     OW86604   7.420   7.361   4.854  0.0877 -0.4688  0.6784
27671SOL    HW186605   7.391   7.442   4.895  0.1187  0.1450 -0.4773
27671SOL    HW286606   7.515   7.359   4.867 -0.0070 -0.7152  1.3758
27672SOL     OW86607  10.237  10.276   4.422 -0.3039 -0.1706 -0.3347
27672SOL    HW186608  10.227  10.369   4.446 -2.6210 -0.6164  0.7546
27672SOL    HW286609  10.227  10.275   4.327 -0.5148  0.6817 -0.3369
27673SOL     OW86610   8.663   7.133  10.538  0.2916 -0.1135  0.2478
27673SOL    HW186611   8.633   7.063  10.481 -0.3725 -0.8346  1.4473
27673SOL    HW286612   8.589   7.152  10.596 -0.1113  2.6765 -1.0189
27674SOL     OW86613   2.471   4.352   9.345 -0.3915 -0.2069 -0.3016
27674SOL    HW186614   2.403   4.336   9.411 -0.9103  0.4918 -0.6562
27674SOL    HW286615   2.433   4.319   9.264  0.5690 -1.8359 -0.1436
27675SOL     OW86616   5.092   5.193   0.058 -0.2482 -0.0868 -0.6536
27675SOL    HW186617   5.162   5.242   0.015  1.4839 -0.5118  1.5239
27675SOL    HW286618   5.054   5.140  -0.013  2.7690 -1.1151 -1.6636
27676SOL     OW86619  10.375   2.770   4.672  0.0502 -0.1436 -0.3580
27676SOL    HW186620  10.374   2.861   4.699 -0.3230 -0.1941 -0.2078
27676SOL    HW286621  10.447   2.731   4.723  1.5411  0.5044 -1.8753
27677SOL     OW86622   0.968   7.506   9.549 -0.2593  0.2507  0.0141
27677SOL    HW186623   0.885   7.505   9.597 -1.5685 -1.8955 -2.0769
27677SOL    HW286624   0.976   7.597   9.518 -0.7788  0.9694  1.8715
27678SOL     OW86625   4.446   9.948   4.433 -0.3002  0.3731 -0.4396
27678SOL    HW186626   4.538   9.949   4.461 -0.5079 -2.1137  0.6062
27678SOL    HW286627   4.451   9.954   4.337  1.1717 -1.9739 -0.6015
27679SOL     OW86628   9.528   5.952  10.858  0.7947  0.4501 -0.1159
27679SOL    HW186629   9.438   5.919  10.856  1.5513 -1.9839  1.4263
27679SOL    HW286630   9.572   5.905  10.787  1.5598 -0.9000  1.2043
27680SOL     OW86631   4.208   1.239   0.208  0.2648 -0.3459 -0.2765
27680SOL    HW186632   4.122   1.280   0.209  0.7556  0.7163  0.0242
27680SOL    HW286633   4.236   1.241   0.300  1.5468  1.4182 -0.6542
27681SOL     OW86634   2.992   9.906   9.749 -0.2963 -0.3839  0.0172
27681SOL    HW186635   2.906   9.930   9.714  0.5921 -0.3902 -2.3257
27681SOL    HW286636   3.052   9.916   9.675  1.8417  0.1853  1.7393
27682SOL     OW86637  10.540   8.538   5.295  0.0756  0.1595 -0.3241
27682SOL    HW186638  10.605   8.501   5.354 -1.1185  0.8742  1.5231
27682SOL    HW286639  10.475   8.469   5.284  0.0250  0.2144 -0.3740
27683SOL     OW86640   3.072   3.632  10.205 -0.2261  0.0541  0.2921
27683SOL    HW186641   3.075   3.716  10.251 -1.4354 -0.2127  0.8829
27683SOL    HW286642   3.164   3.612  10.187  0.2786  0.3146  2.3084
27684SOL     OW86643   7.492   9.228   2.754 -0.0553  0.2299 -0.3757
27684SOL    HW186644   7.585   9.251   2.754  0.5700 -1.3194 -4.8206
27684SOL    HW286645   7.448   9.307   2.724  0.1435  0.2580 -0.5976
27685SOL     OW86646   0.572   4.723   0.796  0.1853  0.5539 -0.1316
27685SOL    HW186647   0.534   4.811   0.790 -0.6314  0.3057  0.8951
27685SOL    HW286648   0.569   4.689   0.707 -0.0872  1.3328 -0.4291
27686SOL     OW86649   0.044   9.783   1.016  0.6033  0.1134  0.2216
27686SOL    HW186650   0.116   9.846   1.017  0.8348 -0.0606 -1.6128
27686SOL    HW286651  -0.035   9.836   1.020  0.8120  0.4730 -0.3366
27687SOL     OW86652   8.728   5.388   7.447  0.2641  0.8609 -0.3542
27687SOL    HW186653   8.640   5.360   7.474  0.4103  0.4654 -0.2868
27687SOL    HW286654   8.735   5.359   7.356  1.2852 -1.4344  0.3984
27688SOL     OW86655  10.224  10.194   8.627  0.1298  0.6072  0.0718
27688SOL    HW186656  10.300  10.223   8.677  0.2687  2.1290 -0.9787
27688SOL    HW286657  10.172  10.273   8.613 -0.5963 -0.0308 -1.0136
27689SOL     OW86658   6.118   7.457   1.375 -0.6191  0.4441 -0.0294
27689SOL    HW186659   6.024   7.471   1.388 -0.6332  0.2959  0.0276
27689SOL    HW286660   6.153   7.545   1.361 -0.3146  0.8986  2.8603
27690SOL     OW86661   2.447   0.148   1.751 -0.0905 -0.1238 -0.9435
27690SOL    HW186662   2.513   0.215   1.767 -1.3443  0.8708  0.2413
27690SOL    HW286663   2.407   0.172   1.667  1.1695 -0.8877 -1.8101
27691SOL     OW86664   7.603   3.927   4.827  0.3916 -0.1870 -0.5573
27691SOL    HW186665   7.531   3.866   4.810  0.6812 -0.4647 -0.7855
27691SOL    HW286666   7.679   3.871   4.842  0.7282  0.1277 -1.0790
27692SOL     OW86667   5.497   9.266   3.543 -0.1367  0.4554 -0.4437
27692SOL    HW186668   5.451   9.261   3.627 -0.1649  0.6037 -0.4498
27692SOL    HW286669   5.453   9.337   3.496  0.5912  1.1206 -0.1406
27693SOL     OW86670  10.448   9.445   1.588 -0.4220  0.0415  0.4653
27693SOL    HW186671  10.402   9.398   1.518 -1.2692  1.1339  0.2673
27693SOL    HW286672  10.500   9.510   1.541  0.9008 -0.7803  0.7268
27694SOL     OW86673   9.729   6.106   2.121  0.3119 -0.2236 -0.1609
27694SOL    HW186674   9.758   6.050   2.193  0.0024 -0.0232  0.1240
27694SOL    HW286675   9.645   6.141   2.150  0.5266  0.4354 -0.3021
27695SOL     OW86676   4.785   3.927   1.352 -0.0305 -0.2070  0.1791
27695SOL    HW186677   4.699   3.889   1.335 -1.1195  0.9918  2.4851
27695SOL    HW286678   4.839   3.902   1.276 -2.3780 -1.0159 -1.3127
27696SOL     OW86679  10.552  10.188   7.882 -0.3298 -0.4212 -0.0193
27696SOL    HW186680  10.489  10.216   7.949 -0.5055  1.0536 -0.7535
27696SOL    HW286681  10.624  10.149   7.932 -0.0594  1.4167  1.1292
27697SOL     OW86682   9.663  10.413   9.423  0.0532  0.1660 -0.0253
27697SOL    HW186683   9.696  10.356   9.354  0.9689  0.1813  0.3961
27697SOL    HW286684   9.694  10.500   9.398  2.2297 -0.1027  1.4715
27698SOL     OW86685   5.769   6.224   5.165  0.1398  0.3526 -0.4953
27698SOL    HW186686   5.730   6.309   5.185  1.1252  0.7440 -0.1676
27698SOL    HW286687   5.715   6.161   5.213 -2.4082  0.4107 -3.0213
27699SOL     OW86688   8.975   8.429   3.062 -0.2835 -0.1063  0.2823
27699SOL    HW186689   9.039   8.429   2.991 -0.2949 -0.3657  0.2740
27699SOL    HW286690   8.934   8.343   3.058 -0.2118 -0.1580  0.6724
27700SOL     OW86691   0.702  10.116   3.625  0.0961  0.2446 -0.3687
27700SOL    HW186692   0.615  10.124   3.663 -0.1735 -0.9091 -0.7042
27700SOL    HW286693   0.724  10.205   3.596 -0.9258  0.5664 -0.1904
27701SOL     OW86694   9.889   7.867   7.769  0.1865  0.1640  0.0899
27701SOL    HW186695   9.940   7.795   7.806  0.0127 -0.5340 -0.9765
27701SOL    HW286696   9.811   7.873   7.824  0.2762 -0.3733  0.2741
27702SOL     OW86697   4.899   5.542   2.862  0.4214 -0.1462 -0.5046
27702SOL    HW186698   4.968   5.476   2.863  0.2199 -0.3851  1.4031
27702SOL    HW286699   4.828   5.502   2.913 -1.0991  0.1528 -2.2630
27703SOL     OW86700   5.997   0.857   7.930 -0.0326 -0.5733 -0.0745
27703SOL    HW186701   6.054   0.839   7.855 -0.7115 -1.0993 -0.4758
27703SOL    HW286702   5.923   0.797   7.919  0.1059 -1.0347  1.2995
27704SOL     OW86703   6.316   2.497  11.080  0.1693  0.1997  0.6262
27704SOL    HW186704   6.225   2.474  11.062  0.3610 -0.0876 -0.0152
27704SOL    HW286705   6.364   2.470  11.002  1.1688 -1.8278  1.8374
27705SOL     OW86706   8.857   3.038   8.542 -0.0479 -0.0430 -0.0818
27705SOL    HW186707   8.862   3.071   8.452  1.5716  1.2989  0.4428
27705SOL    HW286708   8.934   2.983   8.552 -0.7901 -1.0677  0.1900
27706SOL     OW86709  10.933   0.391   9.077  0.6214 -0.4105 -0.1597
27706SOL    HW186710  10.879   0.428   9.008  2.4377  0.2618 -1.3048
27706SOL    HW286711  11.016   0.368   9.034  1.7041 -0.2907  1.7054
27707SOL     OW86712   7.661   7.890   9.661 -0.0586 -0.1398  0.5778
27707SOL    HW186713   7.607   7.859   9.587  1.9754 -1.9066 -0.2791
27707SOL    HW286714   7.619   7.971   9.689 -3.2993 -1.5371  0.1801
27708SOL     OW86715   5.691   6.760   5.126 -0.5681 -0.2139  0.0719
27708SOL    HW186716   5.763   6.804   5.171  1.0585 -0.9314 -1.6574
27708SOL    HW286717   5.719   6.758   5.034 -3.0241 -0.1425 -0.7560
27709SOL     OW86718   8.381   7.367  11.092 -0.1268  0.3501  0.1441
27709SOL    HW186719   8.347   7.391  11.178 -0.3203 -0.4567  0.3052
27709SOL    HW286720   8.440   7.438  11.068 -2.1377  1.9840 -0.2713
27710SOL     OW86721   0.507   8.215  10.258 -0.5982 -0.2062 -0.0588
27710SOL    HW186722   0.542   8.300  10.233 -1.0536  0.1456  0.4672
27710SOL    HW286723   0.467   8.182  10.178  0.0259 -0.1561 -0.3959
27711SOL     OW86724   9.323   6.923   2.569 -0.5569  0.2650  0.4595
27711SOL    HW186725   9.375   6.979   2.512 -0.9016  0.1002 -0.0213
27711SOL    HW286726   9.233   6.935   2.539 -0.4826 -1.8160 -0.7861
27712SOL     OW86727  10.379   7.106   8.560 -0.4912  0.2084 -0.5472
27712SOL    HW186728  10.355   7.084   8.650  2.1438  0.9014  0.4136
27712SOL    HW286729  10.307   7.160   8.529 -1.2097  0.4289  1.3556
27713SOL     OW86730   7.167   7.964   4.861  0.4986  0.3751  0.3608
27713SOL    HW186731   7.115   8.013   4.925 -0.2532 -2.0537  1.7194
27713SOL    HW286732   7.143   8.002   4.777 -0.2194  2.1524  1.3079
27714SOL     OW86733   1.610   6.078  10.900 -0.4549  0.5665  0.1010
27714SOL    HW186734   1.537   6.109  10.846 -0.4207 -0.5948 -0.6580
27714SOL    HW286735   1.576   5.998  10.941  1.3950 -1.9564 -2.9206
27715SOL     OW86736   4.956   1.159   5.450  0.4105  0.5024  0.3433
27715SOL    HW186737   4.995   1.246   5.449  2.1638 -0.2417 -1.0338
27715SOL    HW286738   4.974   1.122   5.363 -0.1726 -1.2857  0.9174
27716SOL     OW86739   0.985   0.944   9.145  0.4750  0.4776 -0.4110
27716SOL    HW186740   0.992   0.973   9.235 -0.4991  0.4749 -0.3231
27716SOL    HW286741   0.980   0.848   9.151 -0.0687  0.4997 -0.4213
27717SOL     OW86742   1.348  10.567   8.550 -0.3634 -0.2722 -0.1569
27717SOL    HW186743   1.259  10.538   8.527 -1.1835  1.9910 -0.0186
27717SOL    HW286744   1.404  10.518   8.490 -1.4115 -3.5417  1.2897
27718SOL     OW86745   3.150  10.442   9.148 -0.1151 -0.2234 -0.2096
27718SOL    HW186746   3.230  10.468   9.102  0.2856  1.2261  1.2099
27718SOL    HW286747   3.166  10.466   9.239 -2.1698  0.1513  0.1105
27719SOL     OW86748   8.783   0.399   7.129  0.0211 -0.3328 -1.2091
27719SOL    HW186749   8.864   0.403   7.079  1.2964 -4.1684  0.1751
27719SOL    HW286750   8.795   0.461   7.201  2.4155 -1.7523 -0.2676
27720SOL     OW86751   9.800   6.419   7.722 -0.6880  0.3007 -0.3373
27720SOL    HW186752   9.724   6.363   7.732 -1.5362  1.3417 -0.7134
27720SOL    HW286753   9.777   6.478   7.650  1.1289 -0.4179 -1.5920
27721SOL     OW86754   9.283   4.597   0.591  0.2849 -0.1525 -1.0851
27721SOL    HW186755   9.350   4.636   0.535  0.4674 -0.2570 -0.9394
27721SOL    HW286756   9.306   4.625   0.679 -0.2997  0.4436 -1.1175
27722SOL     OW86757   2.068   5.381   0.196  0.1592  0.1554  1.0213
27722SOL    HW186758   2.045   5.379   0.289  0.2984  0.9079  1.0762
27722SOL    HW286759   1.992   5.420   0.154 -0.3618 -1.1865  0.6667
27723SOL     OW86760   6.257   9.067   5.688  0.1000 -0.2939  0.2099
27723SOL    HW186761   6.346   9.088   5.716  0.5802 -0.3121 -1.2325
27723SOL    HW286762   6.229   9.143   5.638  0.3587 -1.3404 -1.6439
27724SOL     OW86763   1.356   0.279   6.084  0.3785 -0.5041 -0.0685
27724SOL    HW186764   1.372   0.212   6.018 -1.2932 -0.4310 -0.5823
27724SOL    HW286765   1.305   0.233   6.152  0.3708 -0.0806  0.2125
27725SOL     OW86766   0.779   3.877   2.889 -0.3767  0.1428 -0.4454
27725SOL    HW186767   0.701   3.825   2.908 -0.5142  0.4511 -0.1478
27725SOL    HW286768   0.751   3.968   2.903 -0.5331  0.4068 -2.2776
27726SOL     OW86769   9.000   2.499  10.215  0.2161  0.2290  0.0048
27726SOL    HW186770   9.061   2.512  10.288 -0.2101 -2.5789  0.9885
27726SOL    HW286771   8.932   2.564  10.230  0.8153  0.5960  1.3708
27727SOL     OW86772   1.500   0.027   1.750  0.0214 -0.1172  0.1866
27727SOL    HW186773   1.419  -0.003   1.792  0.3612  0.7680  1.5416
27727SOL    HW286774   1.472   0.055   1.663 -0.9789 -0.6029  0.3310
27728SOL     OW86775   4.782   0.831   6.943  0.3878  0.8447 -0.3722
27728SOL    HW186776   4.820   0.871   7.021  0.1168  0.8407 -0.2379
27728SOL    HW286777   4.826   0.746   6.936 -0.1408  0.5147  0.2183
27729SOL     OW86778  10.990   9.531   2.132  0.4595 -0.0080 -0.4751
27729SOL    HW186779  11.046   9.599   2.170  0.2694  0.6559 -1.3447
27729SOL    HW286780  11.013   9.530   2.039 -1.3699  0.7316 -0.9898
27730SOL     OW86781   1.823   3.174   8.579  0.5220  0.0236  0.2152
27730SOL    HW186782   1.767   3.171   8.502  0.3480 -2.7690  0.3572
27730SOL    HW286783   1.764   3.159   8.653  1.1645 -1.1112  0.5222
27731SOL     OW86784   4.149   2.345   9.402  0.1648  0.2947 -0.0870
27731SOL    HW186785   4.073   2.333   9.346 -1.0818  3.3339  0.7547
27731SOL    HW286786   4.134   2.287   9.477 -2.0937  1.7842  0.7145
27732SOL     OW86787   5.684   1.925   6.578  0.0259  0.0658  0.1427
27732SOL    HW186788   5.747   1.862   6.545 -0.8545 -0.6655 -0.1749
27732SOL    HW286789   5.642   1.881   6.653 -1.1663 -0.0769 -0.5761
27733SOL     OW86790  10.687   1.478   2.407 -0.4207 -0.3407  0.4632
27733SOL    HW186791  10.711   1.559   2.452 -0.9611  0.0948 -0.0137
27733SOL    HW286792  10.747   1.413   2.442 -0.2732  0.1658  1.1873
27734SOL     OW86793   9.376   0.904   6.116  0.3988 -0.4973 -0.0296
27734SOL    HW186794   9.394   0.841   6.046 -1.3871 -0.9140 -0.1682
27734SOL    HW286795   9.317   0.858   6.175 -0.0803  0.6880  0.4388
27735SOL     OW86796   5.294   8.334   2.808 -0.1249 -0.7320  0.0452
27735SOL    HW186797   5.200   8.318   2.796  0.0521 -1.6313 -0.2044
27735SOL    HW286798   5.335   8.249   2.789  0.7973 -0.1681 -0.5491
27736SOL     OW86799   2.839   5.448   3.639 -0.0995 -0.6203  0.0150
27736SOL    HW186800   2.833   5.538   3.608 -0.6918 -0.2235  1.2294
27736SOL    HW286801   2.933   5.430   3.642  0.1183  0.5943  1.4620
27737SOL     OW86802  10.917   6.621   7.985 -0.1179  0.7575  0.0010
27737SOL    HW186803  10.867   6.552   8.028 -0.7781  0.7448 -0.7684
27737SOL    HW286804  10.937   6.683   8.055 -1.0836  0.6868  0.3522
27738SOL     OW86805   5.052   1.626   3.206 -0.6146 -0.3616 -0.4535
27738SOL    HW186806   5.123   1.687   3.185 -0.2681 -0.8076 -0.5845
27738SOL    HW286807   5.065   1.604   3.298  0.7361 -2.1330 -1.0113
27739SOL     OW86808   6.279   9.240   1.749  1.0243 -0.1237 -0.4446
27739SOL    HW186809   6.277   9.145   1.740 -0.3551  0.0107 -2.2003
27739SOL    HW286810   6.367   9.265   1.722  0.7942 -0.8023 -1.9482
27740SOL     OW86811   6.752   7.398   2.198 -0.1748 -0.4833  0.1898
27740SOL    HW186812   6.681   7.461   2.206 -0.7317 -1.2125  1.1914
27740SOL    HW286813   6.709   7.313   2.193  0.6347 -0.9946  1.4554
27741SOL     OW86814   5.770   7.420   0.371 -0.5996 -0.0456 -0.0327
27741SOL    HW186815   5.840   7.459   0.422 -0.0945 -0.7531 -0.1645
27741SOL    HW286816   5.753   7.336   0.413 -3.2937  1.2283  1.6901
27742SOL     OW86817   6.445   3.641   5.016 -0.0175 -0.0165 -0.0787
27742SOL    HW186818   6.442   3.553   4.978 -1.1868 -0.3375  0.7136
27742SOL    HW286819   6.439   3.627   5.110  1.1642  0.8649  0.1550
27743SOL     OW86820   2.982   0.335   9.546  0.1409  0.2737  0.1776
27743SOL    HW186821   2.911   0.271   9.550  0.0207  0.3266 -0.9095
27743SOL    HW286822   2.954   0.405   9.605 -1.2226  0.7735 -0.9871
27744SOL     OW86823   8.515   3.154   6.848 -0.6414  0.6609 -0.5272
27744SOL    HW186824   8.559   3.097   6.785 -0.2548  0.9634 -0.5321
27744SOL    HW286825   8.501   3.098   6.924  0.1253  0.6743 -0.3707
27745SOL     OW86826   6.840   1.538   6.519 -0.4500  0.3278  0.0675
27745SOL    HW186827   6.838   1.445   6.498 -0.1411 -0.2552  2.2751
27745SOL    HW286828   6.757   1.573   6.487 -1.0239 -0.9479  0.1386
27746SOL     OW86829   1.757   9.665   0.065 -0.2644 -0.1025  0.1575
27746SOL    HW186830   1.783   9.673   0.157  0.5775 -0.9512  0.0121
27746SOL    HW286831   1.694   9.593   0.063 -0.1328 -0.2151  0.0431
27747SOL     OW86832   0.213   7.198   5.827 -0.2024  0.1126  0.2287
27747SOL    HW186833   0.205   7.110   5.865  1.5421 -0.2851 -0.2275
27747SOL    HW286834   0.308   7.212   5.821 -0.4620  1.4359 -1.0690
27748SOL     OW86835   4.124   6.915   9.295 -0.7411 -0.2863 -0.0317
27748SOL    HW186836   4.154   7.004   9.311 -2.1492  0.1949  0.0729
27748SOL    HW286837   4.145   6.898   9.203 -2.8176  1.1680 -0.8546
27749SOL     OW86838   8.135   2.909   0.251  0.7395  0.0608  0.1700
27749SOL    HW186839   8.137   2.843   0.182 -0.1812  1.9719 -1.8120
27749SOL    HW286840   8.088   2.867   0.324 -2.4182 -0.6160 -2.0578
27750SOL     OW86841   9.662   6.933   7.609  0.6951  0.0424 -0.1010
27750SOL    HW186842   9.568   6.944   7.617  1.0318  2.0772  2.8193
27750SOL    HW286843   9.675   6.890   7.525 -2.7361  0.6346 -1.0641
27751SOL     OW86844   8.421   6.771   8.864 -0.4301  0.6219  0.0698
27751SOL    HW186845   8.483   6.841   8.845  0.4235 -0.2678 -0.5738
27751SOL    HW286846   8.401   6.780   8.957 -0.6480  1.9431 -0.0976
27752SOL     OW86847   1.495   1.419   9.344 -0.4009  0.0352  0.3595
27752SOL    HW186848   1.533   1.331   9.337 -0.7603 -0.1912  1.1626
27752SOL    HW286849   1.570   1.478   9.342 -0.2127 -0.1963 -1.4141
27753SOL     OW86850   8.594   7.862   4.961  0.4075 -0.0977 -0.5377
27753SOL    HW186851   8.579   7.948   4.999  0.5389 -0.1678 -0.3246
27753SOL    HW286852   8.541   7.860   4.882  1.3301  0.6392 -1.2007
27754SOL     OW86853   3.269   7.130   5.041 -0.3271 -0.2476 -0.3800
27754SOL    HW186854   3.214   7.085   5.105 -0.4000  1.2396  0.6787
27754SOL    HW286855   3.215   7.138   4.963 -1.3250  0.4250  0.3510
27755SOL     OW86856   5.849   5.130   8.489  0.0786 -0.1034 -0.3520
27755SOL    HW186857   5.871   5.044   8.454 -0.0799 -0.4151  0.3149
27755SOL    HW286858   5.840   5.117   8.583 -1.6543  0.2676 -0.4290
27756SOL     OW86859   1.276  10.894   4.119 -0.2919  0.2115  0.0935
27756SOL    HW186860   1.364  10.899   4.157  0.1029 -1.2177 -0.5830
27756SOL    HW286861   1.283  10.827   4.051 -1.4708  1.3017 -1.1639
27757SOL     OW86862   5.267   7.687   5.620  0.5103  0.2012  0.1303
27757SOL    HW186863   5.228   7.751   5.679  1.1949 -0.6958  1.6122
27757SOL    HW286864   5.249   7.602   5.661 -0.8097 -0.6568 -2.0347
27758SOL     OW86865   1.062   8.944   3.895 -0.0021 -0.4981  0.0065
27758SOL    HW186866   0.996   8.953   3.963  1.3970  4.3380  1.1005
27758SOL    HW286867   1.144   8.933   3.943  0.5107 -1.9501 -1.1453
27759SOL     OW86868   4.607   4.042   9.827 -0.3004  0.4502 -0.4644
27759SOL    HW186869   4.636   4.069   9.740 -0.0611  2.5314  0.1917
27759SOL    HW286870   4.605   4.124   9.877  0.7136 -0.8471  1.8311
27760SOL     OW86871   9.246   9.499   9.317  0.5824  0.3550 -0.1384
27760SOL    HW186872   9.171   9.551   9.289  1.5430  2.1177  0.3554
27760SOL    HW286873   9.311   9.564   9.344  2.4150 -1.0866 -0.8472
27761SOL     OW86874   8.536   9.225   5.928 -0.0526  0.2227 -0.1483
27761SOL    HW186875   8.498   9.302   5.969 -1.5116 -0.5834  0.0886
27761SOL    HW286876   8.519   9.236   5.834  1.5811  1.1432 -0.3767
27762SOL     OW86877   2.219   1.265   8.571  0.0786  0.6679 -0.2320
27762SOL    HW186878   2.220   1.338   8.633  0.1861 -0.1806  0.7968
27762SOL    HW286879   2.177   1.194   8.619 -0.1520  0.0932 -1.2648
27763SOL     OW86880   9.343   8.430   7.710 -0.5932  0.0932 -0.2415
27763SOL    HW186881   9.339   8.335   7.722 -0.6185  0.2160  0.8744
27763SOL    HW286882   9.313   8.444   7.621 -1.3833 -0.8883 -0.1554
27764SOL     OW86883   9.483   2.462   2.605 -0.6202 -0.5589 -0.0765
27764SOL    HW186884   9.453   2.505   2.525 -0.2096 -1.3439 -0.6682
27764SOL    HW286885   9.448   2.373   2.599  1.0044 -1.2334 -0.3541
27765SOL     OW86886  10.949   7.219   4.189  0.1667  0.5509  0.0679
27765SOL    HW186887  11.034   7.180   4.165  0.3823  0.6477  0.6582
27765SOL    HW286888  10.885   7.166   4.142  0.4622 -0.5152  0.8185
27766SOL     OW86889   7.795   2.397   1.419 -1.0352 -0.0032 -0.4294
27766SOL    HW186890   7.711   2.385   1.375 -0.1663 -0.1056 -2.1131
27766SOL    HW286891   7.845   2.318   1.399  1.4188  2.1838 -4.0825
27767SOL     OW86892   4.160   6.320  10.583 -0.4840 -0.4764  0.6877
27767SOL    HW186893   4.189   6.236  10.617 -0.4404 -0.6021  0.3432
27767SOL    HW286894   4.067   6.324  10.605 -0.3213 -0.2830  1.3681
27768SOL     OW86895   7.478   3.482   4.610  0.1971 -0.5964  0.3950
27768SOL    HW186896   7.496   3.408   4.668  0.4673 -0.1587  0.8772
27768SOL    HW286897   7.486   3.446   4.521  0.3053 -1.1454  0.6258
27769SOL     OW86898  10.976   9.576   8.698 -0.3057  0.4977  0.1988
27769SOL    HW186899  11.064   9.594   8.663 -0.0808  0.9830  0.9993
27769SOL    HW286900  10.988   9.501   8.756 -0.3940  0.6421  0.4059
27770SOL     OW86901   9.150   2.188   7.739 -0.1441 -0.5537  0.2860
27770SOL    HW186902   9.123   2.124   7.805  1.4027  0.3633  1.8789
27770SOL    HW286903   9.149   2.272   7.784  3.4177 -0.1998  0.0365
27771SOL     OW86904   0.874  10.310   1.826  0.0442 -0.3779  0.3019
27771SOL    HW186905   0.939  10.363   1.871 -1.0876  3.5567 -2.2379
27771SOL    HW286906   0.790  10.345   1.855 -0.7653 -0.8313 -1.3472
27772SOL     OW86907   5.383   1.649   6.489 -0.1001  0.5304  0.1040
27772SOL    HW186908   5.414   1.607   6.408  0.0869  0.7789  0.0462
27772SOL    HW286909   5.454   1.635   6.552  0.0322  0.8929  0.0398
27773SOL     OW86910   2.421   3.076   8.283 -0.0050  0.1801 -0.0095
27773SOL    HW186911   2.342   3.023   8.278 -0.0960  0.3062  0.1127
27773SOL    HW286912   2.423   3.110   8.373  1.5140 -1.9080  0.8350
27774SOL     OW86913   3.029   4.520   2.670 -0.8197  0.2641  0.0606
27774SOL    HW186914   3.057   4.513   2.761  0.7158 -0.6639 -0.4499
27774SOL    HW286915   3.082   4.591   2.634  0.2636 -0.8598 -0.6594
27775SOL     OW86916   0.600   6.889   7.168 -0.8773  0.2302  0.5037
27775SOL    HW186917   0.507   6.909   7.177 -0.9262 -0.4071  1.6162
27775SOL    HW286918   0.604   6.816   7.107 -1.1969 -0.4424  1.2821
27776SOL     OW86919   0.510   1.971   4.026 -0.2633 -0.0559 -0.2363
27776SOL    HW186920   0.579   2.036   4.031 -1.2689  0.9568  2.0775
27776SOL    HW286921   0.456   1.987   4.104 -1.5426 -2.5446 -0.4995
27777SOL     OW86922   0.439   0.825  10.811 -0.1188  0.3977 -0.1859
27777SOL    HW186923   0.480   0.910  10.795 -0.1155  0.2178 -1.1980
27777SOL    HW286924   0.405   0.831  10.900  1.0568  0.9813  0.2434
27778SOL     OW86925  10.862   0.486   4.776 -0.0509  0.3702 -0.1238
27778SOL    HW186926  10.851   0.473   4.682  1.1837  1.0217 -0.3830
27778SOL    HW286927  10.940   0.436   4.798  0.0021  0.6900  0.4393
27779SOL     OW86928   2.634   6.201   4.975 -0.0449 -0.1574  0.2337
27779SOL    HW186929   2.600   6.282   4.935  0.2750 -0.5006 -0.7432
27779SOL    HW286930   2.592   6.199   5.062 -0.0709  1.0449  0.2718
27780SOL     OW86931   3.107   3.141   9.728 -0.2018  0.7620 -0.0669
27780SOL    HW186932   3.155   3.059   9.720 -0.7597  0.3259  0.9542
27780SOL    HW286933   3.032   3.131   9.669 -1.4813 -0.3824  1.6483
27781SOL     OW86934  10.465   9.964   6.694  0.2150  0.3391  0.0729
27781SOL    HW186935  10.457   9.890   6.754  2.8685  0.8894  1.2406
27781SOL    HW286936  10.494   9.925   6.611 -1.0143 -0.1546 -0.1481
27782SOL     OW86937   2.746   1.959   7.652  0.0279  0.4483  0.2812
27782SOL    HW186938   2.657   1.938   7.624  0.0708  0.8005 -0.1410
27782SOL    HW286939   2.783   2.009   7.579  1.0496 -0.8714 -0.1546
27783SOL     OW86940   2.747   6.261   6.982  0.0936 -0.2201 -0.3338
27783SOL    HW186941   2.802   6.209   7.041  2.2432  0.5410 -1.5705
27783SOL    HW286942   2.741   6.347   7.023 -3.2200 -1.1568  1.5604
27784SOL     OW86943  10.967   1.852   6.636  0.3849 -0.0430 -0.3280
27784SOL    HW186944  10.873   1.855   6.618  0.2863  1.8222  0.2865
27784SOL    HW286945  10.973   1.849   6.731  0.9554 -0.2963 -0.3692
27785SOL     OW86946   4.894   3.493   4.521 -0.3782  0.3254 -0.0603
27785SOL    HW186947   4.944   3.572   4.503 -1.0345  0.9834  0.8730
27785SOL    HW286948   4.959   3.429   4.550  0.3681 -0.0042 -2.2599
27786SOL     OW86949   3.482   5.067   0.060  0.3672 -0.2933 -0.1995
27786SOL    HW186950   3.475   4.972   0.069 -0.1550 -0.1169  1.6289
27786SOL    HW286951   3.572   5.087   0.088  0.2360 -0.1877  0.1546
27787SOL     OW86952   1.589   3.443   2.211  0.2074  0.1705 -0.4144
27787SOL    HW186953   1.594   3.401   2.125 -0.5504  0.7950 -0.7769
27787SOL    HW286954   1.680   3.461   2.234  0.4173  0.0080 -1.0883
27788SOL     OW86955  10.462   3.610   5.332 -0.0846 -0.2688 -0.3737
27788SOL    HW186956  10.479   3.593   5.425 -1.4968  1.3097  0.2304
27788SOL    HW286957  10.542   3.584   5.288  0.9067 -0.3480  1.3795
27789SOL     OW86958   8.061  10.415   5.280  0.2354  0.2610  0.6985
27789SOL    HW186959   8.008  10.364   5.341 -1.4742  2.1200  0.8612
27789SOL    HW286960   8.141  10.435   5.329  0.3648 -1.0673  1.0861
27790SOL     OW86961   9.350   4.584   6.947 -0.8545 -0.1163 -0.1813
27790SOL    HW186962   9.427   4.603   7.000  0.2506 -0.7114 -1.5249
27790SOL    HW286963   9.336   4.662   6.894  1.0180 -1.2256 -2.4894
27791SOL     OW86964   3.236   3.359  10.705  0.2298 -0.4052 -0.1457
27791SOL    HW186965   3.252   3.265  10.713 -0.5161 -0.5965 -0.7918
27791SOL    HW286966   3.302   3.389  10.643 -1.1988 -1.0070 -2.0245
27792SOL     OW86967   4.755   2.949   0.246  0.2708 -0.0916 -0.4309
27792SOL    HW186968   4.670   2.904   0.251 -0.1943  0.8723  1.1487
27792SOL    HW286969   4.753   3.013   0.318  1.6230  1.2108 -1.4742
27793SOL     OW86970   5.778   7.611   6.268 -0.0174  0.1516  0.6503
27793SOL    HW186971   5.832   7.604   6.189  0.9557  1.1823  1.2016
27793SOL    HW286972   5.688   7.600   6.237  0.3890  0.0901 -0.5356
27794SOL     OW86973   5.953   2.577   6.806 -0.6917 -0.5795  0.0110
27794SOL    HW186974   5.989   2.545   6.889  0.9928  0.4112 -0.2931
27794SOL    HW286975   5.863   2.544   6.805 -0.3014 -1.8382  1.5484
27795SOL     OW86976   8.057   4.547   9.805 -0.5926 -0.0554 -0.2401
27795SOL    HW186977   8.083   4.633   9.839  0.7157 -1.5007  2.7890
27795SOL    HW286978   8.123   4.526   9.739 -1.7478  1.7659 -2.1196
27796SOL     OW86979   0.283   8.023   9.132  0.2852  0.4884  0.2658
27796SOL    HW186980   0.307   7.941   9.175  0.8801  0.1894 -0.6001
27796SOL    HW286981   0.189   8.016   9.117 -0.5689  1.7810  3.9399
27797SOL     OW86982   9.563  10.399   1.143 -0.9171 -0.1126  0.3123
27797SOL    HW186983   9.621  10.357   1.206 -1.0880 -1.1319 -0.1992
27797SOL    HW286984   9.557  10.338   1.070 -0.5130  1.1623 -0.8277
27798SOL     OW86985   8.667  10.207   8.506  0.3136 -0.6458 -0.3062
27798SOL    HW186986   8.574  10.199   8.482  0.1524 -0.9095  0.3706
27798SOL    HW286987   8.714  10.200   8.423 -0.3105  0.2977 -0.7598
27799SOL     OW86988   1.447  10.634   7.546 -0.2693  0.4369 -0.0648
27799SOL    HW186989   1.535  10.654   7.580 -0.9883  0.3528  2.0225
27799SOL    HW286990   1.434  10.695   7.474  1.0616  1.2400  0.3398
27800SOL     OW86991   5.440   5.025   7.627  0.6236 -0.6837 -0.5058
27800SOL    HW186992   5.396   4.955   7.675  1.5406 -1.2881 -0.5103
27800SOL    HW286993   5.522   4.985   7.598  1.2588  0.4611 -0.3242
27801SOL     OW86994  10.878  10.236  10.854  0.4788 -0.1188 -0.0167
27801SOL    HW186995  10.915  10.299  10.916  0.4593 -1.2442  1.1610
27801SOL    HW286996  10.900  10.150  10.890 -0.7570 -0.8013 -0.8194
27802SOL     OW86997   0.022  10.434   9.086 -0.0526  0.4080  0.1432
27802SOL    HW186998  -0.013  10.492   9.018  0.4445  0.1376 -0.3568
27802SOL    HW286999   0.069  10.491   9.146  1.7113  0.3989 -1.1472
27803SOL     OW87000   0.185   8.646   5.709 -0.0596 -0.2083 -0.3421
27803SOL    HW187001   0.181   8.551   5.695 -0.8745 -0.3594  0.7430
27803SOL    HW287002   0.260   8.658   5.767 -0.9488 -0.4061  0.8940
27804SOL     OW87003   9.882   6.855   1.761  0.3771 -0.1388  0.2527
27804SOL    HW187004   9.957   6.914   1.767 -2.1504  3.2702  1.4487
27804SOL    HW287005   9.905   6.782   1.818  2.2998  1.3701  1.5671
27805SOL     OW87006   6.495  10.079   3.394 -0.3579  0.5996  0.7174
27805SOL    HW187007   6.460   9.992   3.416  2.0737 -0.8684 -0.7718
27805SOL    HW287008   6.458  10.098   3.308  0.9018 -0.0789 -0.0002
27806SOL     OW87009   6.825   7.917   9.406 -0.6073 -0.2066  0.6597
27806SOL    HW187010   6.802   7.982   9.339  0.6707 -0.3303  0.0639
27806SOL    HW287011   6.743   7.900   9.452 -1.1601  1.1621  0.2464
27807SOL     OW87012   3.595   7.809   9.939 -0.0785  0.2765  0.8879
27807SOL    HW187013   3.644   7.829  10.018  0.6039  2.4147 -0.0069
27807SOL    HW287014   3.641   7.856   9.869 -1.3680 -0.5320 -0.5824
27808SOL     OW87015   1.613   2.567   3.451  0.1428  0.1601 -0.0284
27808SOL    HW187016   1.538   2.509   3.466 -0.8541  1.1883 -0.9048
27808SOL    HW287017   1.575   2.654   3.442  1.6851  1.1802  2.2203
27809SOL     OW87018   8.406   4.594   7.519 -0.0830 -0.1504 -0.5418
27809SOL    HW187019   8.394   4.595   7.424  0.0751 -0.0076 -0.5617
27809SOL    HW287020   8.373   4.509   7.547  0.4090 -0.4269 -0.7983
27810SOL     OW87021   5.478  10.602   7.105 -0.0232  0.5053 -0.0041
27810SOL    HW187022   5.480  10.644   7.191 -3.7465  0.9225  0.0337
27810SOL    HW287023   5.435  10.665   7.048  2.0786  0.1073 -2.1890
27811SOL     OW87024   0.100   5.671   1.188 -0.0105 -0.4790 -0.4477
27811SOL    HW187025   0.077   5.677   1.281 -1.5422 -1.5524 -0.7225
27811SOL    HW287026   0.054   5.593   1.157  1.0946 -0.5693 -1.9465
27812SOL     OW87027   6.694   1.361   1.089  0.2232 -0.4365  0.3490
27812SOL    HW187028   6.662   1.343   1.000  0.1225  0.6693  0.1557
27812SOL    HW287029   6.788   1.374   1.078 -0.0466  1.6226  0.0713
27813SOL     OW87030  10.011  10.663   6.445 -0.1448  0.2328  0.4547
27813SOL    HW187031  10.023  10.619   6.361 -1.4881 -1.4838  1.1161
27813SOL    HW287032  10.067  10.614   6.506 -0.8084  0.1366  0.9912
27814SOL     OW87033   5.064   9.358   1.191 -0.1578  0.3892  0.8429
27814SOL    HW187034   5.088   9.314   1.273 -0.1308  0.0714  0.6670
27814SOL    HW287035   4.988   9.309   1.159 -0.0280  0.3650  0.5630
27815SOL     OW87036  10.964   7.338   8.110 -0.0340 -0.4951  0.2314
27815SOL    HW187037  10.975   7.277   8.183  0.3768 -0.6819  0.0138
27815SOL    HW287038  10.895   7.299   8.056  0.6707 -1.1059 -0.2496
27816SOL     OW87039   6.586   4.667   3.006  0.3875  0.5739 -0.3615
27816SOL    HW187040   6.664   4.616   2.985 -0.1537 -0.1588 -0.6414
27816SOL    HW287041   6.594   4.747   2.955  1.7706  1.2670  0.8884
27817SOL     OW87042   6.060   4.784   6.062  1.1956 -0.1841  1.0645
27817SOL    HW187043   6.041   4.715   6.125 -0.4285  0.2767  1.1103
27817SOL    HW287044   6.070   4.738   5.979 -0.5542 -0.4577  0.9672
27818SOL     OW87045  10.239   9.869   4.787 -0.2540  0.1783  0.2042
27818SOL    HW187046  10.186   9.939   4.750 -0.9712 -0.3638  0.1888
27818SOL    HW287047  10.212   9.790   4.740 -0.5889 -0.3820  1.3014
27819SOL     OW87048   7.740   0.251  10.387  0.0502 -0.0312 -0.4638
27819SOL    HW187049   7.816   0.251  10.328 -0.4843  0.1485 -1.1731
27819SOL    HW287050   7.754   0.176  10.444  0.3189 -0.5319 -1.1717
27820SOL     OW87051   8.656   8.537   1.134 -0.1648 -0.5514  0.4265
27820SOL    HW187052   8.729   8.485   1.101 -0.2644 -0.1414 -0.4490
27820SOL    HW287053   8.655   8.519   1.228  0.0286 -1.8494  0.2021
27821SOL     OW87054   0.972  10.718   5.531 -0.1775  0.3879 -0.6127
27821SOL    HW187055   0.906  10.786   5.547 -0.5417 -0.3606  1.2684
27821SOL    HW287056   1.045  10.742   5.588  0.8539  0.6810 -1.9837
27822SOL     OW87057   9.757   5.986   1.869  0.6359 -0.0029  0.6433
27822SOL    HW187058   9.730   5.999   1.960  0.7175  1.9589  0.4237
27822SOL    HW287059   9.687   5.933   1.830 -0.8384  1.5186  1.1402
27823SOL     OW87060   7.685   1.799   2.532 -0.1487  0.4101 -0.3565
27823SOL    HW187061   7.663   1.885   2.498 -2.0014  0.5460  1.0297
27823SOL    HW287062   7.601   1.760   2.557  0.6323 -1.7889 -0.8909
27824SOL     OW87063   6.403   1.052   7.250  0.2855 -0.1725  0.0967
27824SOL    HW187064   6.403   0.998   7.329  1.0244  0.0706  0.2651
27824SOL    HW287065   6.386   1.140   7.283 -0.8240 -0.2727 -0.1678
27825SOL     OW87066   9.377   3.704   0.613 -0.0261 -0.0101  0.3084
27825SOL    HW187067   9.323   3.627   0.633 -1.1362  0.2695 -1.4778
27825SOL    HW287068   9.315   3.776   0.609  0.8003  0.7155  0.4129
27826SOL     OW87069   7.309   3.542   5.929  0.5860  0.4256 -0.3205
27826SOL    HW187070   7.230   3.567   5.977  0.2580  4.5241 -2.5317
27826SOL    HW287071   7.375   3.528   5.997 -1.4375 -1.0392  1.4888
27827SOL     OW87072   8.479   3.440   7.890  0.2023  0.0012 -0.2656
27827SOL    HW187073   8.561   3.393   7.869  1.5262  2.1895 -0.2599
27827SOL    HW287074   8.420   3.371   7.921  1.8420 -1.7464 -0.8039
27828SOL     OW87075   6.711   4.359   4.652 -0.3683  0.1456 -0.2400
27828SOL    HW187076   6.688   4.389   4.565  0.5200  0.1776 -0.4741
27828SOL    HW287077   6.793   4.311   4.640 -0.5321 -0.3296  0.4894
27829SOL     OW87078   2.287   3.077   6.271  0.6291 -0.1886 -0.0129
27829SOL    HW187079   2.379   3.051   6.269  0.8416  0.5637 -1.3985
27829SOL    HW287080   2.243   3.012   6.216  0.8372  1.0852 -1.7729
27830SOL     OW87081   5.201   0.881   0.964 -0.3685  0.1289 -0.1537
27830SOL    HW187082   5.258   0.939   1.015  0.1437  0.1825 -0.7797
27830SOL    HW287083   5.233   0.888   0.874 -0.3072 -1.1296 -0.2461
27831SOL     OW87084   8.053   8.958   3.868  0.4808 -0.5545 -0.1100
27831SOL    HW187085   8.110   8.919   3.802  1.1440 -0.8939  0.6433
27831SOL    HW287086   8.070   8.908   3.948  0.2873  0.3522  0.5199
27832SOL     OW87087   8.960   9.185   4.800 -0.1516 -0.1678 -0.1555
27832SOL    HW187088   9.017   9.246   4.848 -1.4596  1.0550 -0.0771
27832SOL    HW287089   8.915   9.136   4.869 -1.7973  1.3711 -0.0503
27833SOL     OW87090   2.674   7.074   6.304 -0.2206  0.1893 -0.1439
27833SOL    HW187091   2.652   6.980   6.308  0.9021 -0.0623  1.2789
27833SOL    HW287092   2.609   7.116   6.360 -0.2356  0.1362 -0.1211
27834SOL     OW87093   3.478  10.910   8.535  0.5772 -0.1529  0.9245
27834SOL    HW187094   3.530  10.988   8.519  0.1377 -0.0952 -0.3546
27834SOL    HW287095   3.422  10.902   8.457 -0.1111 -1.1594  1.4962
27835SOL     OW87096   5.621   6.330   5.413  0.2949 -0.0723  0.1263
27835SOL    HW187097   5.649   6.258   5.471  2.5247  1.2850  0.8321
27835SOL    HW287098   5.528   6.314   5.400  0.6569 -2.9871  0.4036
27836SOL     OW87099   3.483   2.300   8.626 -0.3379 -0.1992  0.0284
27836SOL    HW187100   3.558   2.309   8.567 -1.8148  1.6630 -1.6904
27836SOL    HW287101   3.491   2.374   8.686  0.1188 -1.0122  1.0009
27837SOL     OW87102   8.512   9.784   3.628 -0.2694 -0.1399 -0.1598
27837SOL    HW187103   8.443   9.737   3.675  0.5178 -0.3279  0.8455
27837SOL    HW287104   8.557   9.834   3.696 -0.1012  0.8496 -0.9750
27838SOL     OW87105   0.043  11.026   5.841  0.2567  0.2020  0.1502
27838SOL    HW187106  -0.011  11.039   5.763 -0.2241 -0.1223  0.4193
27838SOL    HW287107   0.080  10.938   5.831 -0.9026 -0.4010  0.9201
27839SOL     OW87108   4.895   3.297   3.620  0.1911  0.0890  0.1170
27839SOL    HW187109   4.882   3.313   3.527  0.0317  1.4444  0.3585
27839SOL    HW287110   4.813   3.324   3.661 -0.3906 -2.0724  0.5152
27840SOL     OW87111   4.192   4.638   9.991 -0.0076 -0.0010 -0.3312
27840SOL    HW187112   4.182   4.563  10.050  1.9409 -0.6299 -0.7187
27840SOL    HW287113   4.235   4.704  10.045 -0.6334  0.4048 -0.3259
27841SOL     OW87114   5.999   5.067   5.527  0.5382  0.2683  0.2936
27841SOL    HW187115   5.956   5.118   5.459  0.1727  0.3022  0.5518
27841SOL    HW287116   6.085   5.109   5.537  0.7106  0.0821 -0.3513
27842SOL     OW87117  10.772   7.969  10.951 -0.6215 -0.5851  0.0112
27842SOL    HW187118  10.757   7.888  10.903 -0.5197 -0.6137  0.0265
27842SOL    HW287119  10.763   8.038  10.885  1.1404 -0.7136 -0.4224
27843SOL     OW87120   9.572   0.232   5.298 -0.1558 -0.7718 -0.0573
27843SOL    HW187121   9.623   0.299   5.345 -0.7110  0.1335 -0.7057
27843SOL    HW287122   9.554   0.166   5.365 -0.5665  0.2817  0.9237
27844SOL     OW87123   6.824   4.477  10.129  0.3659  0.1474 -0.2175
27844SOL    HW187124   6.902   4.479  10.184  1.1902 -2.1641 -1.1632
27844SOL    HW287125   6.768   4.410  10.168 -0.0666  0.0927 -0.9009
27845SOL     OW87126   1.606   0.121  10.417  0.2531 -0.0394  0.1414
27845SOL    HW187127   1.640   0.155  10.335 -0.7950 -0.2754 -0.4112
27845SOL    HW287128   1.563   0.039  10.393  1.0005 -0.7353  1.1276
27846SOL     OW87129   4.881   8.453   2.978  0.4009 -0.2690  0.6029
27846SOL    HW187130   4.851   8.538   2.945 -3.1559 -0.8252  1.9053
27846SOL    HW287131   4.941   8.475   3.050 -0.3798  1.1686  0.8509
27847SOL     OW87132   4.257   8.728   2.642 -0.2006  0.1838 -0.4463
27847SOL    HW187133   4.245   8.634   2.629 -2.4330  0.5828 -1.6882
27847SOL    HW287134   4.247   8.740   2.736 -0.2113 -0.7732 -0.3125
27848SOL     OW87135   3.447  10.818   1.474  0.3534 -0.0640  0.4172
27848SOL    HW187136   3.479  10.796   1.561  0.4595  0.4829  0.5241
27848SOL    HW287137   3.481  10.748   1.417  1.1865  0.1446  0.6428
27849SOL     OW87138   3.770   9.161   4.447 -0.1303 -0.5630  0.5107
27849SOL    HW187139   3.710   9.234   4.462  1.2182  0.6989  0.0076
27849SOL    HW287140   3.725   9.085   4.484 -1.0687  0.7171  2.1620
27850SOL     OW87141   6.480   6.972   7.193 -0.1638  0.3604 -0.5477
27850SOL    HW187142   6.438   7.056   7.173 -0.6260 -0.0752 -1.4995
27850SOL    HW287143   6.461   6.957   7.286 -0.0173  1.3346 -0.3510
27851SOL     OW87144   9.820   7.806   8.626 -0.2388 -0.6652  0.0151
27851SOL    HW187145   9.856   7.850   8.703  2.8037 -1.1123 -1.0126
27851SOL    HW287146   9.770   7.874   8.581  1.0420  0.6883  0.5270
27852SOL     OW87147   4.935   2.937   8.475  0.5738 -0.1376  0.2001
27852SOL    HW187148   4.935   3.027   8.444  2.2463 -0.5028 -0.9936
27852SOL    HW287149   4.942   2.944   8.570 -1.6351  0.9760  0.3280
27853SOL     OW87150   0.321   3.549   7.603  0.0736  0.0237 -0.4078
27853SOL    HW187151   0.251   3.505   7.652  1.3553  2.5540  4.4215
27853SOL    HW287152   0.392   3.486   7.600 -0.7288 -0.8746 -0.7749
27854SOL     OW87153  10.066   6.264   6.816  0.4949  0.4995  0.0885
27854SOL    HW187154  10.147   6.277   6.865  0.5167  0.5691  0.0348
27854SOL    HW287155  10.001   6.241   6.883  0.3687  1.2584  0.2451
27855SOL     OW87156   0.539  10.207   0.255  0.6332 -0.3082 -0.1929
27855SOL    HW187157   0.593  10.156   0.195  0.2864  0.6542 -1.3646
27855SOL    HW287158   0.517  10.146   0.326  0.4329 -1.7004 -1.4166
27856SOL     OW87159   5.388   6.049   0.574 -0.0756 -0.2793  0.1128
27856SOL    HW187160   5.376   6.144   0.573  2.2414  0.0862 -1.3420
27856SOL    HW287161   5.448   6.032   0.501  1.8986 -2.4976  2.0751
27857SOL     OW87162   0.498   8.558   8.138 -0.0960 -0.1672 -0.1812
27857SOL    HW187163   0.514   8.652   8.151  0.7381  0.0269 -2.1850
27857SOL    HW287164   0.433   8.555   8.067 -0.7092 -1.1137  0.4047
27858SOL     OW87165   7.707   8.614   6.581  0.0583 -0.6309  0.6625
27858SOL    HW187166   7.634   8.553   6.574 -0.0104 -0.4410 -0.4677
27858SOL    HW287167   7.705   8.643   6.673 -1.8856  0.0939  0.4482
27859SOL     OW87168   1.385   6.526   7.246 -0.2519  0.5777  0.0918
27859SOL    HW187169   1.396   6.441   7.205 -0.6129  0.3626  0.4299
27859SOL    HW287170   1.367   6.506   7.338 -0.2385  1.0225  0.1948
27860SOL     OW87171   9.952  10.696   0.436  0.3199  0.5455  0.2491
27860SOL    HW187172   9.910  10.769   0.390  1.0588  1.1322  0.4839
27860SOL    HW287173   9.940  10.716   0.529  1.3228  0.8724  0.3279
27861SOL     OW87174   3.869   3.584   7.347  0.4090 -0.3685 -0.1614
27861SOL    HW187175   3.908   3.608   7.431  0.2323 -1.0708  0.1259
27861SOL    HW287176   3.928   3.621   7.281  1.3807 -1.1393  0.2691
27862SOL     OW87177   1.161   9.199   8.912 -0.0691  0.4911 -0.2773
27862SOL    HW187178   1.080   9.148   8.910  0.9776 -1.2351 -1.5766
27862SOL    HW287179   1.141   9.274   8.968 -1.8668 -1.0377  1.2666
27863SOL     OW87180   1.073   2.158   6.272  0.0595  0.1181  0.3141
27863SOL    HW187181   0.983   2.149   6.304 -0.3244 -2.1649 -1.2029
27863SOL    HW287182   1.126   2.165   6.351 -1.4027  1.3262  1.2435
27864SOL     OW87183   6.703   8.351   0.137 -0.4623  0.1782  0.3432
27864SOL    HW187184   6.768   8.285   0.112  0.2466  0.2825  1.7885
27864SOL    HW287185   6.678   8.393   0.055 -0.5662 -1.5450 -0.5480
27865SOL     OW87186  10.691   8.027   2.521 -0.1154  0.1882  0.6949
27865SOL    HW187187  10.620   7.971   2.488  1.2725 -1.2755  0.0765
27865SOL    HW287188  10.675   8.032   2.615  0.5724 -2.5993  1.0396
27866SOL     OW87189   2.198   6.390   2.966  0.0336 -0.2347  0.6666
27866SOL    HW187190   2.167   6.300   2.959  0.0515 -0.2735  1.0620
27866SOL    HW287191   2.151   6.437   2.897  3.2445 -1.3906 -2.6453
27867SOL     OW87192   9.143   2.589   9.037 -0.1969  0.5814  0.1940
27867SOL    HW187193   9.082   2.649   9.078  0.3195  1.0165  0.3419
27867SOL    HW287194   9.150   2.516   9.098 -0.8351  0.3549  0.0078
27868SOL     OW87195   9.430   9.724   4.919 -0.2460  0.1309 -0.3499
27868SOL    HW187196   9.404   9.712   5.010 -0.6709 -1.2218 -0.6302
27868SOL    HW287197   9.502   9.786   4.923  2.0172 -2.3812  1.2782
27869SOL     OW87198   2.407   8.074  10.538  0.0654 -0.3497 -0.9074
27869SOL    HW187199   2.427   7.984  10.563 -1.0304 -0.0765  1.1559
27869SOL    HW287200   2.491   8.111  10.510  1.2592 -1.0337  1.5281
27870SOL     OW87201  10.839   1.757   3.176  0.3534 -0.3687  0.2823
27870SOL    HW187202  10.889   1.796   3.247  1.6322 -1.0071 -0.2204
27870SOL    HW287203  10.905   1.736   3.110 -0.8137  0.3529 -1.1703
27871SOL     OW87204   5.235   4.062   9.086  0.4279 -0.3737 -0.0118
27871SOL    HW187205   5.214   4.121   9.014  1.8579  0.0725 -0.0761
27871SOL    HW287206   5.149   4.029   9.115 -0.2275  0.0648 -1.3645
27872SOL     OW87207   8.195   3.657   9.668  0.0077 -0.0056  0.0367
27872SOL    HW187208   8.189   3.568   9.633  0.0668  0.0262 -0.0572
27872SOL    HW287209   8.107   3.677   9.700  0.1017 -0.2619  0.4661
27873SOL     OW87210  10.439   4.448   5.254  0.0436 -0.1522  0.0772
27873SOL    HW187211  10.491   4.519   5.217 -0.2744 -0.3428 -0.7618
27873SOL    HW287212  10.412   4.396   5.178 -1.9387  0.3329  0.3946
27874SOL     OW87213  10.724  10.106   5.341  0.8996  0.1622  0.0396
27874SOL    HW187214  10.814  10.076   5.351  0.5340 -0.5201  1.5616
27874SOL    HW287215  10.672  10.026   5.345  0.1160  0.7001  1.1376
27875SOL     OW87216   9.898   1.940   2.801  0.6573  0.1852  0.5161
27875SOL    HW187217   9.834   1.872   2.823 -1.0338  0.4922 -2.8564
27875SOL    HW287218   9.981   1.893   2.792  1.2429 -0.1929  5.1885
27876SOL     OW87219   3.507   8.640   4.284  0.2784 -0.2596 -0.1060
27876SOL    HW187220   3.558   8.592   4.349  1.5268 -0.4931 -1.2014
27876SOL    HW287221   3.416   8.632   4.313  0.4163 -3.2473 -0.1834
27877SOL     OW87222   4.350   1.516   0.049 -0.0874 -0.5203 -0.4726
27877SOL    HW187223   4.391   1.576   0.112 -0.8417 -0.9421  0.4495
27877SOL    HW287224   4.263   1.499   0.085 -0.5062 -0.8421 -1.6010
27878SOL     OW87225  10.839   2.064   3.303  0.0678 -0.1444  0.5069
27878SOL    HW187226  10.870   1.991   3.357 -0.6072 -0.8559 -0.0534
27878SOL    HW287227  10.920   2.102   3.267  0.4080 -0.9243  0.4139
27879SOL     OW87228   7.873   7.339   1.700  0.3520 -0.0368 -0.2741
27879SOL    HW187229   7.781   7.363   1.708  0.7121  1.4688 -0.3512
27879SOL    HW287230   7.906   7.337   1.790  0.4677  0.4076 -0.3032
27880SOL     OW87231   3.843   7.681   1.002 -0.1602  0.5422 -0.3426
27880SOL    HW187232   3.763   7.651   0.960 -0.5593  0.9546  0.1010
27880SOL    HW287233   3.846   7.775   0.985 -0.4260  0.7493  0.6876
27881SOL     OW87234   7.394   6.288   2.016 -0.2111 -0.1583 -0.4701
27881SOL    HW187235   7.331   6.288   1.944 -1.7880  1.5700  0.8042
27881SOL    HW287236   7.478   6.265   1.976 -1.2902 -0.6663 -2.5576
27882SOL     OW87237   5.975   3.688   4.186  0.1391 -0.1303 -0.0542
27882SOL    HW187238   5.987   3.609   4.135 -0.2940 -0.1817 -0.0777
27882SOL    HW287239   5.884   3.712   4.173 -0.2343 -0.6315  1.3787
27883SOL     OW87240   6.165   6.532   3.757 -0.1428 -0.3266  0.0174
27883SOL    HW187241   6.159   6.440   3.783  0.6892  0.2042  2.3074
27883SOL    HW287242   6.230   6.532   3.686 -1.0736 -1.6272 -0.8753
27884SOL     OW87243   1.184   1.387   7.673  0.1504 -0.3378 -0.6074
27884SOL    HW187244   1.127   1.345   7.737  0.2322 -0.9453 -0.9236
27884SOL    HW287245   1.268   1.397   7.717  0.5429 -1.7851 -0.9661
27885SOL     OW87246  10.331   3.731   2.161 -0.7263  0.3815  0.0993
27885SOL    HW187247  10.321   3.638   2.184 -2.0665  0.6737  0.7642
27885SOL    HW287248  10.380   3.768   2.234 -0.3574  0.2414 -0.0746
27886SOL     OW87249   8.467   8.466   3.424 -0.5381  0.1952  0.6995
27886SOL    HW187250   8.524   8.534   3.460 -0.7458  1.6384 -1.4863
27886SOL    HW287251   8.507   8.444   3.339 -0.0156 -3.0859  1.6644
27887SOL     OW87252   9.333  10.071   8.071  0.0304  0.1957 -0.0040
27887SOL    HW187253   9.397  10.055   8.001 -1.2702  0.5058 -1.3233
27887SOL    HW287254   9.319  10.166   8.070 -0.6433  0.1037  0.0744
27888SOL     OW87255   1.454   2.161   6.829 -0.6467  0.7526 -0.2376
27888SOL    HW187256   1.428   2.133   6.742 -0.7056  1.9179 -0.6192
27888SOL    HW287257   1.548   2.175   6.823 -0.4890 -0.1037  0.1656
27889SOL     OW87258   2.563   9.468   0.600  0.6639  0.1781 -0.0577
27889SOL    HW187259   2.531   9.394   0.549  1.5010 -0.0611 -0.2566
27889SOL    HW287260   2.545   9.544   0.547  2.1484 -0.1238 -1.0743
27890SOL     OW87261   8.917   2.068   5.993  0.1664 -0.3377 -0.4025
27890SOL    HW187262   8.932   2.100   6.082  2.2713 -0.5709 -0.6141
27890SOL    HW287263   8.934   1.974   5.998 -1.3080 -0.6403 -0.7455
27891SOL     OW87264   2.986   5.118   7.954 -0.1276  0.2066 -0.9659
27891SOL    HW187265   3.064   5.172   7.944  0.2404 -0.1072  0.0891
27891SOL    HW287266   2.963   5.125   8.047  0.5751 -2.2861 -0.5330
27892SOL     OW87267   1.632   4.968   0.495  0.1390  0.0090  0.2350
27892SOL    HW187268   1.542   4.937   0.493  0.6230 -1.5749  1.1643
27892SOL    HW287269   1.633   5.044   0.437 -1.8090  0.1305  0.3175
27893SOL     OW87270   6.633   7.985   1.479 -0.1180 -0.3105 -0.0857
27893SOL    HW187271   6.643   7.928   1.555 -1.7837  0.5105  0.7979
27893SOL    HW287272   6.586   7.931   1.415 -0.9017 -0.2394  0.4125
27894SOL     OW87273   5.945   2.199  10.797  0.0780 -0.2067 -0.0079
27894SOL    HW187274   6.030   2.226  10.761  0.7593 -0.6747  1.2081
27894SOL    HW287275   5.882   2.227  10.731  1.2927 -1.1449 -1.6541
27895SOL     OW87276   8.162   4.419   9.363 -0.4397 -0.1565  0.3573
27895SOL    HW187277   8.218   4.460   9.429  1.5203 -0.1986 -1.2084
27895SOL    HW287278   8.078   4.464   9.372  0.5309  1.5873  1.2054
27896SOL     OW87279   4.676   3.635   4.361  0.4073  0.0590  0.4445
27896SOL    HW187280   4.687   3.651   4.455  1.7404  0.4368  0.2523
27896SOL    HW287281   4.684   3.540   4.353  0.0906  0.0064  0.7397
27897SOL     OW87282   3.899  10.458   5.311 -0.3998  0.9180 -0.3333
27897SOL    HW187283   3.809  10.483   5.289 -0.8895  0.3837  0.9719
27897SOL    HW287284   3.952  10.534   5.286 -1.1917  1.2364 -1.1289
27898SOL     OW87285   9.100   8.304   7.883 -0.2081  0.3599 -0.5892
27898SOL    HW187286   9.131   8.334   7.798 -1.3721  1.5008 -0.6284
27898SOL    HW287287   9.017   8.261   7.865  0.0840 -0.4033 -0.1634
27899SOL     OW87288   7.130   7.939   7.006 -0.5300  0.4757 -0.5270
27899SOL    HW187289   7.039   7.927   6.980 -1.0005  2.6628 -0.1218
27899SOL    HW287290   7.172   7.975   6.928 -0.0403 -0.3384 -0.6503
27900SOL     OW87291   9.062   9.303   6.184 -0.0243  0.2650 -0.2641
27900SOL    HW187292   9.017   9.388   6.189  0.4001  0.5002 -0.4332
27900SOL    HW287293   9.043   9.261   6.268 -0.1157  0.5879 -0.1207
27901SOL     OW87294   0.044   1.575   9.780  0.3683 -0.2985 -0.0388
27901SOL    HW187295  -0.029   1.531   9.823 -0.9012  0.8111 -0.9981
27901SOL    HW287296   0.040   1.544   9.689 -0.4512  1.6037 -0.6946
27902SOL     OW87297   5.849   9.812   3.568  0.3260  0.2133  0.7535
27902SOL    HW187298   5.885   9.726   3.549 -0.0285  0.6448 -2.4575
27902SOL    HW287299   5.778   9.796   3.630  1.2974 -1.5617  1.4694
27903SOL     OW87300   8.911   1.722   0.930  0.0323 -0.4575  0.1885
27903SOL    HW187301   8.860   1.785   0.878  0.6591  1.1533  1.4489
27903SOL    HW287302   8.852   1.697   1.001 -0.0660 -0.9991 -0.0779
27904SOL     OW87303   1.468   9.791   2.902 -0.2178 -0.4101 -0.2189
27904SOL    HW187304   1.523   9.715   2.920  2.2801  1.0070 -1.3484
27904SOL    HW287305   1.431   9.775   2.815  0.6461 -0.1649 -0.6364
27905SOL     OW87306   6.836   4.427   4.213 -0.0074  0.1878  0.2057
27905SOL    HW187307   6.917   4.410   4.260 -1.3206  0.7960  2.9330
27905SOL    HW287308   6.777   4.462   4.280 -2.9568 -1.4535 -1.3221
27906SOL     OW87309   3.253   0.970   9.444 -0.5977  0.0167  0.0216
27906SOL    HW187310   3.327   0.963   9.505 -0.8794 -0.7759  0.2803
27906SOL    HW287311   3.220   0.881   9.437 -1.2265  0.2878 -0.4800
27907SOL     OW87312   2.689   0.662   2.865  0.6157  0.1494 -0.0768
27907SOL    HW187313   2.610   0.674   2.917 -1.4086 -0.7683 -2.7541
27907SOL    HW287314   2.678   0.577   2.822  2.8960  0.1547 -0.8439
27908SOL     OW87315   2.196   4.021   3.511  0.2999 -0.1020 -0.1035
27908SOL    HW187316   2.158   3.972   3.438  1.2011 -0.4696 -0.3281
27908SOL    HW287317   2.140   4.099   3.519  0.9622  0.6341 -2.0613
27909SOL     OW87318   6.917   0.035  11.074 -0.3935 -0.2959 -0.0621
27909SOL    HW187319   6.976   0.069  11.007 -0.3750 -0.4845 -0.1420
27909SOL    HW287320   6.832   0.030  11.031 -0.7733  1.2654  0.4407
27910SOL     OW87321   7.982   8.232   2.744 -0.0905  0.0714 -0.1356
27910SOL    HW187322   7.979   8.191   2.831  0.3016 -0.2802 -0.2846
27910SOL    HW287323   7.891   8.245   2.720 -0.2320 -1.0017 -0.2187
27911SOL     OW87324   7.899   2.013   0.597 -0.2835 -0.0185  0.0421
27911SOL    HW187325   7.885   1.920   0.612  0.9377 -0.0917  0.8163
27911SOL    HW287326   7.985   2.018   0.554  0.0281  0.7989  0.7443
27912SOL     OW87327   0.219  10.190   3.581 -0.4793 -0.1068 -0.0621
27912SOL    HW187328   0.278  10.258   3.548 -0.1917  0.6166  1.8211
27912SOL    HW287329   0.194  10.220   3.668 -1.8217 -1.5354  0.0853
27913SOL     OW87330   9.377   2.186  10.885 -0.5595 -0.5292 -0.3369
27913SOL    HW187331   9.337   2.179  10.799  1.0275  0.5566 -1.2102
27913SOL    HW287332   9.470   2.167  10.870 -0.0750  0.6292  0.9352
27914SOL     OW87333   8.497   0.676   8.355  0.3344 -0.2681  0.2132
27914SOL    HW187334   8.507   0.718   8.269  1.9255  1.9027  1.3533
27914SOL    HW287335   8.413   0.709   8.388  0.0624 -0.5287 -0.2108
27915SOL     OW87336   3.982   0.559   0.089 -0.6416  0.6002  0.3264
27915SOL    HW187337   4.015   0.601   0.169 -0.3926 -1.7889  1.5719
27915SOL    HW287338   3.976   0.466   0.112 -3.2559  0.2058 -1.5502
27916SOL     OW87339   5.553   2.393   9.077 -0.2672  0.2471  0.4266
27916SOL    HW187340   5.572   2.300   9.093  1.3481  0.3819 -0.4302
27916SOL    HW287341   5.613   2.440   9.135  2.5558  0.7029 -2.5188
27917SOL     OW87342   0.971   3.775   8.576 -0.0020 -0.2616  0.0751
27917SOL    HW187343   0.881   3.772   8.608  0.0424 -1.3912  0.1665
27917SOL    HW287344   0.995   3.682   8.565  0.7821  0.0404 -0.9623
27918SOL     OW87345   5.559   4.645   9.878 -0.6115  0.2258 -0.3730
27918SOL    HW187346   5.592   4.685   9.958  1.7122 -0.7915 -0.7332
27918SOL    HW287347   5.566   4.714   9.812 -0.8300  0.5270 -0.0856
27919SOL     OW87348   7.142   1.436   7.433  0.1663 -0.5615 -0.4931
27919SOL    HW187349   7.075   1.503   7.419  0.6144 -0.2575 -1.3045
27919SOL    HW287350   7.105   1.357   7.394  0.1390 -0.4737 -0.6489
27920SOL     OW87351   8.135   2.442   9.560 -0.1161  0.0272 -0.1137
27920SOL    HW187352   8.080   2.509   9.600  0.6886  0.5773  0.0930
27920SOL    HW287353   8.076   2.395   9.502 -1.1769 -0.4320  1.2839
27921SOL     OW87354   8.563   5.171   2.548  0.1607 -0.1866  0.0424
27921SOL    HW187355   8.500   5.144   2.481 -1.1914  0.6773  0.8950
27921SOL    HW287356   8.542   5.263   2.565  1.6476  0.1220  0.3985
27922SOL     OW87357   9.575   0.373   4.257  0.3086 -0.2502  0.3505
27922SOL    HW187358   9.546   0.388   4.347  1.2263 -1.1175  0.8153
27922SOL    HW287359   9.549   0.452   4.210 -1.5401 -0.4181  1.0209
27923SOL     OW87360   2.439  10.051   2.382  0.1912 -0.3607  0.1533
27923SOL    HW187361   2.393  10.088   2.457  1.2634  0.4704  0.4157
27923SOL    HW287362   2.473  10.126   2.334  1.3988 -0.9493  0.0536
27924SOL     OW87363   6.365   1.801  10.122 -0.1709  0.2655 -0.3418
27924SOL    HW187364   6.449   1.763  10.095 -0.6745 -1.2003  0.0243
27924SOL    HW287365   6.381   1.895  10.126  0.8239  0.2479 -2.4726
27925SOL     OW87366  11.062   4.796   1.156 -0.2518  0.2072  0.7238
27925SOL    HW187367  11.049   4.729   1.089 -1.0877  0.7232  0.3601
27925SOL    HW287368  10.992   4.781   1.219  0.1857  0.0941  1.1945
27926SOL     OW87369   3.931   6.370   9.360  0.3109 -0.1242  0.0220
27926SOL    HW187370   3.896   6.439   9.416 -0.3885 -1.2149  0.9718
27926SOL    HW287371   4.023   6.393   9.348 -0.3045  1.9389 -1.2035
27927SOL     OW87372   9.901  10.106   4.120  0.1574  0.2834 -0.0654
27927SOL    HW187373   9.825  10.108   4.062  0.2165  0.4955 -0.1349
27927SOL    HW287374   9.929  10.197   4.127  2.4112 -0.0567 -2.6882
27928SOL     OW87375   4.290   8.992  10.818 -0.0223 -0.4751 -0.6167
27928SOL    HW187376   4.310   8.916  10.874  1.1353  0.1020 -0.2090
27928SOL    HW287377   4.347   8.982  10.743  0.0191 -0.0850 -0.6366
27929SOL     OW87378   7.437   2.386   4.045 -0.0735 -0.7447 -0.0723
27929SOL    HW187379   7.364   2.377   4.105  1.8608 -1.0923  2.3698
27929SOL    HW287380   7.459   2.479   4.047 -0.5862 -0.5864 -1.0359
27930SOL     OW87381   3.016   3.281   0.127  0.7429 -0.4574 -0.3681
27930SOL    HW187382   3.001   3.218   0.057  0.1728 -1.4739  0.6400
27930SOL    HW287383   2.928   3.300   0.161  1.0559 -0.4054  0.4372
27931SOL     OW87384   3.685   5.237   1.852 -0.0414  0.1116 -0.5694
27931SOL    HW187385   3.772   5.267   1.876  0.2410  0.4299 -1.9101
27931SOL    HW287386   3.633   5.317   1.847 -1.1084 -0.2346  2.6189
27932SOL     OW87387   4.766   9.141   6.878 -0.0372 -0.1127  1.0189
27932SOL    HW187388   4.683   9.109   6.845 -0.3031  1.6556 -0.1868
27932SOL    HW287389   4.815   9.062   6.902 -1.5290 -1.2436  0.4749
27933SOL     OW87390   4.857   1.139  10.002  0.4679  0.0274 -0.1492
27933SOL    HW187391   4.945   1.125  10.038  0.0511 -1.8329  0.2492
27933SOL    HW287392   4.801   1.081  10.052 -0.8237  0.3714 -1.1336
27934SOL     OW87393   1.553   6.411  10.985 -0.0068 -0.2741  0.5241
27934SOL    HW187394   1.510   6.349  11.043  1.6639 -0.8178  1.2405
27934SOL    HW287395   1.508   6.494  11.001 -1.7516 -1.0904  0.1245
27935SOL     OW87396   5.826   7.712   4.127 -0.2971  0.2752  0.2195
27935SOL    HW187397   5.863   7.776   4.188  1.0658  0.4790 -0.7828
27935SOL    HW287398   5.731   7.719   4.139 -0.1140  1.5692  1.0297
27936SOL     OW87399   2.421  10.605   3.928  0.6883  0.1991  0.8123
27936SOL    HW187400   2.485  10.633   3.863  0.9713  0.6042  1.2547
27936SOL    HW287401   2.353  10.672   3.925 -0.1151 -0.6286 -0.1954
27937SOL     OW87402   0.917   8.999   5.134 -0.6215 -0.1550 -0.2753
27937SOL    HW187403   0.982   8.939   5.097  0.0242  1.0876 -1.2389
27937SOL    HW287404   0.880   8.952   5.208  1.0909 -1.0615  0.0488
27938SOL     OW87405  10.661  10.038   8.156  0.1010  0.8019  0.5318
27938SOL    HW187406  10.646  10.130   8.133 -0.5966  1.1789  2.2954
27938SOL    HW287407  10.680  10.040   8.250  0.8810 -0.7965  0.4436
27939SOL     OW87408   1.819   5.883  10.654 -0.5241  0.2826 -0.5212
27939SOL    HW187409   1.771   5.938  10.592 -0.2104 -0.8971 -1.8608
27939SOL    HW287410   1.761   5.810  10.672 -0.9503  1.0148  1.2791
27940SOL     OW87411   9.580   6.028   1.089  0.1529 -0.7258  0.2343
27940SOL    HW187412   9.611   5.994   1.174  0.4926  1.4897  1.0819
27940SOL    HW287413   9.546   6.115   1.110  0.7653  0.1062 -2.0083
27941SOL     OW87414   7.780   1.104   6.073  0.1013 -0.0515 -0.2449
27941SOL    HW187415   7.783   1.098   6.169 -2.4094 -1.8296 -0.1717
27941SOL    HW287416   7.717   1.173   6.055  0.5439  0.2545 -0.6239
27942SOL     OW87417   7.921   1.272   4.148  0.4826 -0.4736  0.5640
27942SOL    HW187418   7.942   1.232   4.233  0.8457 -1.9172 -0.1902
27942SOL    HW287419   7.963   1.216   4.083  1.8726  1.6688 -0.5217
27943SOL     OW87420   0.695   4.995   4.676 -0.0306 -0.4618  0.1518
27943SOL    HW187421   0.668   5.075   4.722 -1.3866 -0.3096 -0.8412
27943SOL    HW287422   0.615   4.962   4.636  1.2024  0.0628 -3.0595
27944SOL     OW87423   3.162   2.304   6.011 -0.4536  0.9418  0.1324
27944SOL    HW187424   3.162   2.228   5.954 -1.3679 -0.4839  1.9199
27944SOL    HW287425   3.254   2.325   6.024 -0.1345 -0.5127  0.3879
27945SOL     OW87426   2.747   9.039   3.912 -0.1522 -0.5133  0.3243
27945SOL    HW187427   2.840   9.050   3.932 -0.3497 -0.7565  1.4317
27945SOL    HW287428   2.708   9.126   3.928 -0.1048 -0.3836 -0.2423
27946SOL     OW87429   8.595   0.465   5.504  0.0109  0.1272 -0.3864
27946SOL    HW187430   8.614   0.558   5.493 -0.0995  0.0953 -0.8418
27946SOL    HW287431   8.673   0.430   5.549 -1.0496  0.9458  2.2818
27947SOL     OW87432   7.820   8.270   0.812  0.2034 -0.1197 -0.0919
27947SOL    HW187433   7.751   8.239   0.754  0.5384  0.8997 -1.0596
27947SOL    HW287434   7.876   8.324   0.757  1.0592  0.1198  0.9710
27948SOL     OW87435  10.762   4.730   1.302  0.4373 -0.2596 -0.4867
27948SOL    HW187436  10.766   4.747   1.396  2.4212  0.2743 -0.6246
27948SOL    HW287437  10.697   4.791   1.269  0.7713  0.5704  0.3509
27949SOL     OW87438   4.303  10.142   4.584  0.3499 -0.2385  0.2304
27949SOL    HW187439   4.334  10.056   4.555  2.1242  0.5827 -0.4488
27949SOL    HW287440   4.248  10.173   4.512  0.4206 -0.4223  0.0963
27950SOL     OW87441   3.845   3.300   7.374  0.0682 -0.1817 -0.4281
27950SOL    HW187442   3.759   3.317   7.412 -0.2840 -1.2768 -0.7019
27950SOL    HW287443   3.870   3.383   7.333 -0.1985  0.5834  0.8816
27951SOL     OW87444   6.539  10.256   6.163 -0.2168  0.7108  0.1411
27951SOL    HW187445   6.451  10.277   6.131 -0.7261 -1.8625 -0.3570
27951SOL    HW287446   6.544  10.297   6.250 -1.2104  2.3725 -0.5428
27952SOL     OW87447   4.947   9.267  10.349  0.2276  0.3199  0.0049
27952SOL    HW187448   4.958   9.183  10.393  1.0448  1.4401  2.0905
27952SOL    HW287449   4.910   9.245  10.263 -1.7925 -1.9906  1.3263
27953SOL     OW87450   3.901   2.611   0.255  0.0026  0.5185 -0.3774
27953SOL    HW187451   3.854   2.648   0.330  0.0883  0.4125 -0.2703
27953SOL    HW287452   3.918   2.686   0.198  0.1035  0.6316 -0.2000
27954SOL     OW87453   0.795   4.425   4.014  0.5279  0.4941  0.1508
27954SOL    HW187454   0.782   4.461   3.926  0.5062  2.0089  0.7473
27954SOL    HW287455   0.769   4.333   4.006 -3.4996  1.5043 -0.5215
27955SOL     OW87456   3.018   7.542   7.449  1.2126  0.3037 -0.1511
27955SOL    HW187457   3.045   7.492   7.526  0.3590  0.4573  0.2603
27955SOL    HW287458   2.993   7.476   7.384 -1.4073  0.1286  0.9212
27956SOL     OW87459   5.784   7.072   0.283 -0.4731  0.3508  0.1199
27956SOL    HW187460   5.794   7.131   0.358 -1.2494  1.5700 -0.6975
27956SOL    HW287461   5.710   7.108   0.234 -0.7032 -1.0824 -0.6396
27957SOL     OW87462   1.409   7.960   5.034 -0.4842 -0.4164 -0.0422
27957SOL    HW187463   1.405   7.882   4.978 -0.2490 -0.1283 -0.4653
27957SOL    HW287464   1.368   8.029   4.982 -2.0395 -0.5770  0.9063
27958SOL     OW87465  10.593   0.530   0.965  0.1653 -0.7781 -0.1894
27958SOL    HW187466  10.606   0.606   1.022 -0.0352 -0.8883  0.0038
27958SOL    HW287467  10.498   0.522   0.958  0.1635  0.3363 -1.9951
27959SOL     OW87468   1.939  10.894   3.426  0.4271 -0.0983  0.4319
27959SOL    HW187469   1.998  10.841   3.372 -1.2170 -0.4357 -1.1178
27959SOL    HW287470   1.878  10.830   3.463 -0.2480  0.4700  0.3025
27960SOL     OW87471  10.983   3.205   7.767  0.6118  0.8252 -0.5372
27960SOL    HW187472  11.016   3.231   7.681  0.6243  0.8069 -0.5382
27960SOL    HW287473  11.053   3.152   7.804  0.4752  0.5639 -0.6475
27961SOL     OW87474   1.650   8.787   6.364 -0.2002  0.4543  0.0838
27961SOL    HW187475   1.570   8.766   6.317 -0.4855  1.5247  0.0684
27961SOL    HW287476   1.720   8.758   6.305 -0.5357 -1.9004  0.7468
27962SOL     OW87477   2.762   2.616   1.189  0.3102  0.3474 -0.0169
27962SOL    HW187478   2.670   2.606   1.213 -0.1466  0.0885 -1.7332
27962SOL    HW287479   2.810   2.582   1.264 -1.0154 -0.6178  0.4431
27963SOL     OW87480   5.070   3.303   4.606  0.1049  0.1790  0.1225
27963SOL    HW187481   5.106   3.289   4.693  0.4695 -0.1464 -0.0762
27963SOL    HW287482   5.128   3.254   4.548 -1.5300 -1.6709 -0.0392
27964SOL     OW87483   2.692   1.453   3.510 -0.6161  0.2825  0.0767
27964SOL    HW187484   2.618   1.503   3.475 -1.1422 -0.9691 -0.6851
27964SOL    HW287485   2.652   1.378   3.554  0.1603  0.3669  0.9578
27965SOL     OW87486   7.854   4.581   0.431  0.0386 -0.1009 -0.5247
27965SOL    HW187487   7.941   4.613   0.454 -0.2266  1.3225 -1.3483
27965SOL    HW287488   7.863   4.549   0.342 -0.4764  1.0116 -0.9996
27966SOL     OW87489   9.259   0.316   8.286  0.1798 -0.2068 -0.0698
27966SOL    HW187490   9.252   0.388   8.223  1.4484 -1.3172 -1.5426
27966SOL    HW287491   9.342   0.331   8.331  1.1102 -1.4083 -1.3063
27967SOL     OW87492   0.130   9.915   3.495  0.7303 -0.0004 -0.0955
27967SOL    HW187493   0.139  10.007   3.518 -3.0068  0.8196 -1.2311
27967SOL    HW287494   0.131   9.869   3.579 -1.0619  1.5699  0.8667
27968SOL     OW87495   3.264   9.473   8.832 -0.7479 -1.0093  0.6720
27968SOL    HW187496   3.181   9.491   8.787 -1.3435 -2.7166  1.0137
27968SOL    HW287497   3.317   9.427   8.767 -0.0097  0.1325  0.4346
27969SOL     OW87498   2.680  10.863   8.425 -0.0479  0.0198  0.6300
27969SOL    HW187499   2.742  10.927   8.391  0.1555  1.0282  2.7281
27969SOL    HW287500   2.717  10.778   8.401  2.4858  0.5644  2.2155
27970SOL     OW87501  10.371   1.405  10.204 -0.8988  0.1552 -0.1358
27970SOL    HW187502  10.346   1.313  10.201  1.3636 -0.4873 -1.3816
27970SOL    HW287503  10.342   1.435  10.290 -1.4870 -1.7592  0.3828
27971SOL     OW87504   0.978   0.759   6.627  0.0041 -0.2200  0.7145
27971SOL    HW187505   0.896   0.711   6.614  0.0729 -0.2115  0.1926
27971SOL    HW287506   1.040   0.692   6.657  0.6374 -0.9517 -1.9389
27972SOL     OW87507   8.662   8.632   5.128 -0.1869  0.6109 -0.1229
27972SOL    HW187508   8.727   8.683   5.080  0.5221  0.2662  0.4470
27972SOL    HW287509   8.693   8.542   5.120 -0.5728  0.4500  0.2010
27973SOL     OW87510   3.092  10.988   6.497  0.8325  0.2160  0.2558
27973SOL    HW187511   3.032  10.955   6.564  1.3034 -1.0662  0.0738
27973SOL    HW287512   3.090  11.083   6.508  0.3437  0.0739  1.6029
27974SOL     OW87513  10.105   9.704  10.789  0.1032 -0.2840  0.1583
27974SOL    HW187514  10.066   9.738  10.708 -1.6953  1.2546  1.5913
27974SOL    HW287515  10.031   9.668  10.838  1.0921 -0.8352  1.2964
27975SOL     OW87516   4.302   0.362   5.610 -0.1181  0.3328 -0.1272
27975SOL    HW187517   4.303   0.387   5.517  1.0119  0.4721 -0.0881
27975SOL    HW287518   4.393   0.348   5.632 -0.2977  1.0652  1.1795
27976SOL     OW87519   0.755   3.190   5.220 -0.5202 -0.1757  0.2661
27976SOL    HW187520   0.731   3.255   5.287  0.6391 -1.2534  1.8051
27976SOL    HW287521   0.685   3.195   5.156 -0.4654  2.6106  0.2899
27977SOL     OW87522   1.682   6.008   1.281  0.2179  0.2064  0.3473
27977SOL    HW187523   1.609   6.066   1.305  0.2437  0.2054  0.4313
27977SOL    HW287524   1.717   6.045   1.200 -0.6810 -0.5286 -0.4002
27978SOL     OW87525   1.294   7.615  10.000  0.1007 -0.2142 -0.5953
27978SOL    HW187526   1.324   7.597   9.911  0.2488  0.6721 -0.7378
27978SOL    HW287527   1.322   7.539  10.051 -0.2920 -0.8833 -1.3708
27979SOL     OW87528   5.061   4.102   6.163  0.0385 -0.7464  0.3297
27979SOL    HW187529   5.136   4.054   6.198  0.7431 -0.8550 -1.2595
27979SOL    HW287530   5.004   4.034   6.128 -0.6759 -0.6402  1.2414
27980SOL     OW87531   7.828   0.774   5.462  0.6153  0.6113  0.2793
27980SOL    HW187532   7.840   0.853   5.514  0.6540  1.1750 -0.5729
27980SOL    HW287533   7.909   0.764   5.413  0.3651  0.4027 -0.0974
27981SOL     OW87534   1.190  10.337   5.466  0.2785 -0.4210  0.1285
27981SOL    HW187535   1.144  10.421   5.466  0.0154 -0.5653 -0.4141
27981SOL    HW287536   1.261  10.349   5.530  1.7919  1.0611 -1.6917
27982SOL     OW87537   1.599   3.121   5.717  0.2290  1.0311  0.4206
27982SOL    HW187538   1.550   3.053   5.763  0.6323  0.7381  0.4295
27982SOL    HW287539   1.533   3.168   5.667  0.3454 -2.2625 -3.3338
27983SOL     OW87540   3.579   2.324  11.051 -0.6142 -0.3485  0.4237
27983SOL    HW187541   3.638   2.271  10.997  0.6532  0.4756  0.9532
27983SOL    HW287542   3.512   2.355  10.990  1.1723  1.1574 -0.9184
27984SOL     OW87543   7.145   1.676   6.591  0.3279 -0.4870  0.3728
27984SOL    HW187544   7.185   1.659   6.677  1.0759  1.0959  0.3678
27984SOL    HW287545   7.166   1.767   6.572 -0.9761 -0.4184 -0.9047
27985SOL     OW87546   6.460   3.635   5.301 -0.4565 -0.3443 -0.1057
27985SOL    HW187547   6.544   3.604   5.335 -1.0066 -1.5395  0.2195
27985SOL    HW287548   6.398   3.567   5.326 -1.9895  1.6142  1.7790
27986SOL     OW87549   6.117   9.036   4.018 -0.0850  0.0584  0.1192
27986SOL    HW187550   6.190   9.085   4.056  0.4212 -0.6612  0.0921
27986SOL    HW287551   6.055   9.027   4.091 -0.2983  0.9343  0.0608
27987SOL     OW87552   8.043   5.041   3.560 -0.0725 -0.2997 -0.1800
27987SOL    HW187553   8.078   4.989   3.488  1.3966 -0.2528  0.4531
27987SOL    HW287554   7.961   5.076   3.527 -0.0203 -1.2524 -1.3907
27988SOL     OW87555   6.658   7.258   0.840 -0.2909  0.4777 -0.0906
27988SOL    HW187556   6.615   7.339   0.811 -1.2168  0.7930  1.9738
27988SOL    HW287557   6.699   7.224   0.761 -2.4154  1.3707 -1.7128
27989SOL     OW87558   4.403   9.146   8.462 -0.1746 -0.6666 -0.3749
27989SOL    HW187559   4.331   9.209   8.459 -0.1298 -0.4772  1.5216
27989SOL    HW287560   4.395   9.105   8.549  2.0950 -0.5435 -0.0705
27990SOL     OW87561   7.490   1.445   9.283  0.5329  0.3530  0.1956
27990SOL    HW187562   7.540   1.370   9.250 -0.1824  0.9291 -2.4962
27990SOL    HW287563   7.555   1.500   9.326  1.2470 -1.2888  1.3111
27991SOL     OW87564   5.406   2.535   3.707  0.5804 -0.2564  0.0298
27991SOL    HW187565   5.384   2.465   3.769 -0.7194 -0.6891 -0.8825
27991SOL    HW287566   5.433   2.488   3.628  0.2758  0.2722 -0.3899
27992SOL     OW87567   6.188  10.827   3.295 -0.2326 -0.1474 -0.1897
27992SOL    HW187568   6.127  10.850   3.224  0.5095 -0.1978 -0.8617
27992SOL    HW287569   6.145  10.859   3.374 -1.5487 -0.9746 -0.5315
27993SOL     OW87570   0.711   0.682   0.225  0.1957 -0.2370 -0.9588
27993SOL    HW187571   0.773   0.620   0.187  0.2559  0.7640 -2.6126
27993SOL    HW287572   0.763   0.760   0.244  0.0223 -0.4698  0.6138
27994SOL     OW87573  10.476   2.221   1.675  0.3378 -0.9282  0.0837
27994SOL    HW187574  10.422   2.260   1.606  2.6286  0.3790 -1.0781
27994SOL    HW287575  10.477   2.287   1.745  3.8101  1.2255 -1.6834
27995SOL     OW87576   6.376   6.512   3.569 -0.0692 -0.0921 -0.7639
27995SOL    HW187577   6.451   6.487   3.623 -1.3850 -1.9542  0.2855
27995SOL    HW287578   6.366   6.438   3.508 -0.2862  0.7389 -1.7573
27996SOL     OW87579   8.356   0.717   7.412  0.1360  0.1728  0.1999
27996SOL    HW187580   8.333   0.670   7.492  0.8164 -0.5539 -0.0146
27996SOL    HW287581   8.430   0.668   7.376 -0.2913  0.3663 -0.9851
27997SOL     OW87582   0.337   4.578   6.170  0.4779  0.0248 -0.0535
27997SOL    HW187583   0.303   4.556   6.083  2.3801  1.4150 -1.2370
27997SOL    HW287584   0.259   4.589   6.224 -0.7682 -0.7180 -1.6068
27998SOL     OW87585   0.809   6.285   1.379  0.0528  0.3192  0.0019
27998SOL    HW187586   0.868   6.357   1.401  2.0416 -1.1486 -0.2623
27998SOL    HW287587   0.829   6.217   1.443 -1.3775 -0.2551 -0.1144
27999SOL     OW87588   6.250  10.955   1.938 -0.1758 -0.2003 -0.2816
27999SOL    HW187589   6.246  10.996   1.851  0.1604 -0.8035 -0.5876
27999SOL    HW287590   6.286  10.868   1.921  0.2333 -0.1881  0.5142
28000SOL     OW87591   9.557   0.602   4.116 -0.0039  0.0081 -0.1180
28000SOL    HW187592   9.554   0.687   4.159 -1.9369  0.4347 -0.9877
28000SOL    HW287593   9.632   0.606   4.058  0.1644  0.9642  0.1556
28001SOL     OW87594   6.615   5.694   5.557 -0.3479  0.2457  0.0535
28001SOL    HW187595   6.655   5.776   5.527 -0.5967 -0.0508 -1.1279
28001SOL    HW287596   6.604   5.642   5.478  1.1843 -1.5653  0.9734
28002SOL     OW87597   0.109   9.841  10.686  0.5002  0.0857 -0.1171
28002SOL    HW187598   0.017   9.846  10.712  0.1652 -0.0324 -1.2107
28002SOL    HW287599   0.112   9.888  10.602  1.5020  0.3662  0.0632
28003SOL     OW87600  10.313   1.329   8.015  0.0229  0.2938 -0.2019
28003SOL    HW187601  10.227   1.357   7.984 -0.6694 -0.2813  1.0986
28003SOL    HW287602  10.297   1.299   8.105  1.6838  0.6982  0.2593
28004SOL     OW87603   8.575   4.757   3.875 -0.2190  0.5397  0.1507
28004SOL    HW187604   8.500   4.794   3.921 -1.0172  0.8236 -1.3256
28004SOL    HW287605   8.561   4.779   3.783 -0.2517 -2.5758 -0.7038
28005SOL     OW87606   8.178   0.203   1.843 -0.4268  0.3152  0.2548
28005SOL    HW187607   8.136   0.289   1.837 -2.5840 -0.6758 -0.0290
28005SOL    HW287608   8.160   0.162   1.758  0.5219 -0.4418  0.4015
28006SOL     OW87609   3.685   6.179   2.750  0.2910 -0.1342 -0.2481
28006SOL    HW187610   3.641   6.197   2.834  1.3277 -1.3625  0.5872
28006SOL    HW287611   3.775   6.210   2.763 -0.1148  1.9248 -1.7864
28007SOL     OW87612   4.688   3.679   0.808 -0.2466  0.2984 -0.0962
28007SOL    HW187613   4.729   3.751   0.855 -0.4406  0.0060  0.5391
28007SOL    HW287614   4.721   3.686   0.719 -1.3486  2.0227 -0.4112
28008SOL     OW87615   9.569   8.745   5.878 -0.3784  0.2530 -0.0960
28008SOL    HW187616   9.519   8.741   5.797  0.3566  0.8903 -0.5946
28008SOL    HW287617   9.508   8.714   5.946 -1.7513  1.8782 -0.5223
28009SOL     OW87618   3.759  11.103   2.981  0.0259  0.2488 -0.7347
28009SOL    HW187619   3.802  11.113   3.066 -0.7088 -0.7872 -0.2306
28009SOL    HW287620   3.734  11.193   2.957  1.3838  0.7176 -0.4888
28010SOL     OW87621   3.462   2.802  10.528  1.5644 -0.5762 -0.0307
28010SOL    HW187622   3.537   2.809  10.587  1.4836  1.2659 -0.0738
28010SOL    HW287623   3.492   2.841  10.446  0.1721  1.6228  0.4122
28011SOL     OW87624   5.855   1.691   9.397 -0.1310 -0.0408 -0.1685
28011SOL    HW187625   5.926   1.634   9.368 -0.9769 -1.1270 -0.1808
28011SOL    HW287626   5.778   1.634   9.401 -1.0050  1.0900 -0.1282
28012SOL     OW87627   1.630   9.904   0.908  0.1581 -0.2042 -0.9533
28012SOL    HW187628   1.722   9.924   0.893  0.0654  0.6542 -0.4751
28012SOL    HW287629   1.618   9.815   0.875  1.0980 -0.2290 -1.2405
28013SOL     OW87630   2.019  10.567   7.019 -0.5164  0.0924 -0.5969
28013SOL    HW187631   2.111  10.582   6.994 -0.4218  1.1619  0.3242
28013SOL    HW287632   2.003  10.476   6.995  0.8401 -0.1613 -0.6522
28014SOL     OW87633   0.084   7.981   5.110 -0.2173  0.2729  0.0944
28014SOL    HW187634   0.091   7.889   5.084 -1.5172  0.6784 -1.8477
28014SOL    HW287635  -0.008   8.003   5.095 -0.4652  1.3400  2.6130
28015SOL     OW87636  10.082   6.959  10.816  0.6156 -0.3172 -0.2578
28015SOL    HW187637  10.037   6.932  10.896 -0.4866  0.5929 -0.5432
28015SOL    HW287638  10.030   6.921  10.745  1.2847 -0.6733 -0.5721
28016SOL     OW87639   5.616   6.756  10.639 -0.1728  0.3129  0.2757
28016SOL    HW187640   5.600   6.836  10.590  2.8222  0.5604 -0.5244
28016SOL    HW287641   5.687   6.778  10.699  0.0990 -1.4963  0.6914
28017SOL     OW87642   6.112   8.403   4.665  0.1589  0.3568 -0.5932
28017SOL    HW187643   6.071   8.393   4.579  1.9677 -1.3096 -1.3305
28017SOL    HW287644   6.202   8.429   4.646  0.1240  1.7077  0.8952
28018SOL     OW87645  10.729   4.778   3.278 -0.3834  0.3405  0.3251
28018SOL    HW187646  10.777   4.745   3.354  0.3460 -1.3719 -0.8025
28018SOL    HW287647  10.695   4.699   3.236 -0.1625  1.1708 -1.5041
28019SOL     OW87648   3.382   9.657   5.568  0.3967  0.3272  0.6558
28019SOL    HW187649   3.437   9.643   5.491 -1.2805  0.6564 -0.6609
28019SOL    HW287650   3.427   9.725   5.617  0.7177  1.2900 -0.8849
28020SOL     OW87651   0.553   9.613   6.581  0.0943 -0.7245 -0.4948
28020SOL    HW187652   0.609   9.664   6.524  1.0256 -1.4703 -0.2674
28020SOL    HW287653   0.482   9.583   6.524 -2.3313  3.3693 -0.0366
28021SOL     OW87654   1.250   5.806   3.065 -0.5961  0.5835  0.4665
28021SOL    HW187655   1.258   5.711   3.060  0.3235  0.6791 -0.4476
28021SOL    HW287656   1.175   5.822   3.121 -0.6700 -0.6828  0.7467
28022SOL     OW87657   5.029   7.448   0.784  0.0566 -0.3674  0.0644
28022SOL    HW187658   4.947   7.406   0.807 -0.8988  0.1159 -2.1542
28022SOL    HW287659   5.007   7.541   0.776  1.3339  0.0965  1.4942
28023SOL     OW87660   2.092   7.870   1.036  0.2135  0.7774  0.6219
28023SOL    HW187661   2.060   7.862   0.946  1.1787 -0.1995  0.3474
28023SOL    HW287662   2.131   7.957   1.040 -0.9428  1.3217  0.4759
28024SOL     OW87663   4.147  10.114   1.312  0.3494 -0.5838  0.3166
28024SOL    HW187664   4.216  10.051   1.332  3.1450  2.1153 -0.0242
28024SOL    HW287665   4.158  10.183   1.377 -1.0977  0.6230 -0.6562
28025SOL     OW87666   5.277   6.230   9.976  0.5883  0.4502 -0.1811
28025SOL    HW187667   5.365   6.198   9.996  0.4083 -0.8405 -1.3233
28025SOL    HW287668   5.226   6.151   9.959 -1.0822  1.1142  1.4594
28026SOL     OW87669   6.103  10.020   2.404 -0.8431  0.3768 -0.4058
28026SOL    HW187670   6.172  10.085   2.391 -0.8077  0.2009 -1.1352
28026SOL    HW287671   6.130   9.973   2.483 -1.0407  1.4516  0.3282
28027SOL     OW87672   2.342   2.097   5.628  0.1574  0.0976 -0.5388
28027SOL    HW187673   2.390   2.017   5.608 -0.9194 -1.0249  1.1259
28027SOL    HW287674   2.275   2.103   5.559 -0.4221 -1.0289 -0.0891
28028SOL     OW87675   8.545   8.177  10.357  0.3343 -0.4622  0.0811
28028SOL    HW187676   8.453   8.197  10.375  0.6802 -0.4183  2.0395
28028SOL    HW287677   8.591   8.203  10.437  2.0281 -0.7094 -0.7666
28029SOL     OW87678   3.530   6.788   9.019 -0.4471  0.2453  0.3062
28029SOL    HW187679   3.504   6.731   9.092 -0.6049 -0.0787 -0.0039
28029SOL    HW287680   3.475   6.760   8.946 -0.2527  0.5391  0.0469
28030SOL     OW87681   1.237   6.495   3.256 -0.1190 -0.3634 -0.0723
28030SOL    HW187682   1.228   6.590   3.266 -1.2616 -0.4709  0.0658
28030SOL    HW287683   1.171   6.471   3.190 -2.2567 -1.4688  2.2731
28031SOL     OW87684   3.078   0.067   6.209  0.1780  0.7436 -0.5398
28031SOL    HW187685   2.999   0.083   6.261 -1.2531  0.9358 -2.6541
28031SOL    HW287686   3.132   0.145   6.222 -0.2269  0.8763  0.4651
28032SOL     OW87687   1.375   6.165  10.795  0.5044  0.5631  0.1271
28032SOL    HW187688   1.395   6.222  10.720 -0.8138 -0.7068 -1.2748
28032SOL    HW287689   1.292   6.198  10.828  0.5423  0.4341  0.3518
28033SOL     OW87690   8.110   5.413   7.838  0.1884 -0.8267 -0.5236
28033SOL    HW187691   8.189   5.358   7.834  0.3550 -0.5204 -2.0555
28033SOL    HW287692   8.076   5.413   7.749  0.9612  2.6322 -0.9703
28034SOL     OW87693   8.483   4.185  11.099 -0.5232 -0.0760  0.2019
28034SOL    HW187694   8.576   4.170  11.080 -0.0852  2.0900  0.3988
28034SOL    HW287695   8.437   4.124  11.041  0.9998 -1.2466  0.1497
28035SOL     OW87696  10.659   4.654   8.339  0.3873 -0.5504  0.0336
28035SOL    HW187697  10.656   4.655   8.243  0.0235 -0.7141  0.0442
28035SOL    HW287698  10.656   4.562   8.362 -2.2237 -0.4607  0.2889
28036SOL     OW87699   8.375   7.320   9.764 -0.4245  0.1950  0.2773
28036SOL    HW187700   8.322   7.393   9.730 -1.1233 -0.1530  0.5885
28036SOL    HW287701   8.455   7.321   9.712  0.1395  1.9772  1.0924
28037SOL     OW87702   6.093   4.005   5.907  0.0081 -0.5359 -0.4892
28037SOL    HW187703   6.175   3.982   5.951  0.9916  1.1297 -1.3514
28037SOL    HW287704   6.071   3.928   5.855  0.2166 -1.5547  0.8594
28038SOL     OW87705   0.792   9.016   4.764 -0.4204  0.7988  1.0006
28038SOL    HW187706   0.820   8.968   4.686  0.1957  0.5281  1.3857
28038SOL    HW287707   0.764   8.948   4.826 -0.0634  0.9608  1.3442
28039SOL     OW87708   1.420   0.055   8.154 -0.2452  0.6239 -0.0620
28039SOL    HW187709   1.476  -0.020   8.132  0.1808  1.1268 -0.7307
28039SOL    HW287710   1.332   0.025   8.131 -0.1114  0.2415 -0.0991
28040SOL     OW87711   0.087   1.220   9.338 -0.5173  0.4030 -0.2674
28040SOL    HW187712   0.021   1.160   9.303 -0.0061 -0.4071  0.1300
28040SOL    HW287713   0.155   1.223   9.270 -1.6998  2.5874 -1.4748
28041SOL     OW87714   6.119   5.734   0.587 -0.1796 -0.2556 -0.4490
28041SOL    HW187715   6.119   5.812   0.532  2.1460 -0.4254 -0.7891
28041SOL    HW287716   6.181   5.754   0.657  3.0216 -2.8173 -2.2613
28042SOL     OW87717   3.006   3.874   3.138 -0.1629  0.7235  0.5823
28042SOL    HW187718   2.974   3.817   3.068  0.5200  1.8944 -0.7381
28042SOL    HW287719   2.928   3.894   3.190 -0.4082 -1.3977  1.1253
28043SOL     OW87720   5.075   2.717   2.758 -0.0099  0.0744  0.3627
28043SOL    HW187721   5.056   2.804   2.794 -0.8863  0.1154 -0.1651
28043SOL    HW287722   5.152   2.729   2.703 -1.1225  0.9040 -1.0829
28044SOL     OW87723   6.052   0.265   7.970  0.4147 -0.4009 -0.0138
28044SOL    HW187724   6.043   0.332   7.902 -2.0556  0.8218  1.3546
28044SOL    HW287725   6.126   0.294   8.022  0.5104  0.2684 -0.5091
28045SOL     OW87726   8.511   7.780   7.270  0.2285  0.5027 -0.8002
28045SOL    HW187727   8.542   7.818   7.352  0.7492 -0.5707 -0.4797
28045SOL    HW287728   8.422   7.812   7.261 -0.5828 -0.9485  1.2499
28046SOL     OW87729   4.051   0.592   1.732 -0.2550  0.8327 -0.6483
28046SOL    HW187730   4.048   0.499   1.711  0.1190  0.8424 -0.7434
28046SOL    HW287731   4.066   0.635   1.647 -3.5648  1.2100 -1.1766
28047SOL     OW87732   4.513   0.672   8.997 -0.0569 -0.0836 -0.4056
28047SOL    HW187733   4.598   0.711   9.018 -0.6313  0.9452  0.0939
28047SOL    HW287734   4.532   0.607   8.929  0.9725  0.9486 -1.1491
28048SOL     OW87735   0.128   9.797   0.581  0.1689  0.5794 -0.5793
28048SOL    HW187736   0.190   9.739   0.626 -0.4248 -0.9889 -1.7129
28048SOL    HW287737   0.115   9.757   0.495 -2.7503  0.6103 -0.2453
28049SOL     OW87738   4.509   5.384   3.533 -0.0472 -0.1396 -0.2697
28049SOL    HW187739   4.416   5.365   3.546 -0.1047  0.3990  0.1381
28049SOL    HW287740   4.517   5.479   3.543  0.5758 -0.1978 -0.1229
28050SOL     OW87741   3.948   9.866   2.575 -0.5191 -0.2193 -0.5272
28050SOL    HW187742   3.957   9.773   2.596  0.4234  0.2398  1.3179
28050SOL    HW287743   3.854   9.882   2.576 -0.7665 -1.3876 -2.1072
28051SOL     OW87744   9.961   2.425   0.911 -0.5016  0.0074 -0.1186
28051SOL    HW187745   9.905   2.427   0.834  0.2686 -2.3394 -0.8135
28051SOL    HW287746   9.997   2.337   0.913 -1.0279 -0.2614  3.3621
28052SOL     OW87747   1.224  10.864   2.269  0.1183  0.0692 -0.1673
28052SOL    HW187748   1.311  10.827   2.282  0.7910  1.3388 -0.8022
28052SOL    HW287749   1.238  10.959   2.270 -1.2920  0.3046 -0.1098
28053SOL     OW87750   1.494   4.330   0.330 -0.2865 -0.1324 -0.0535
28053SOL    HW187751   1.466   4.304   0.418 -0.6203 -1.9806 -0.6578
28053SOL    HW287752   1.582   4.364   0.342 -0.0623 -0.9902  0.9334
28054SOL     OW87753  10.818   1.168   1.863 -0.0719  0.5291  0.1252
28054SOL    HW187754  10.769   1.112   1.924  1.0056 -2.6425 -1.7003
28054SOL    HW287755  10.853   1.238   1.918 -0.1030 -1.5121  2.9693
28055SOL     OW87756   0.386   9.071   0.585 -0.2605  0.1733 -0.3860
28055SOL    HW187757   0.470   9.025   0.580 -1.4218 -2.3414  1.2586
28055SOL    HW287758   0.345   9.056   0.500 -0.6200 -1.9850  0.1263
28056SOL     OW87759   9.642   7.296   5.981  0.0902 -0.2230  0.4569
28056SOL    HW187760   9.682   7.210   5.969  0.0847 -0.2906  0.9117
28056SOL    HW287761   9.584   7.285   6.056 -1.5344 -0.3851 -0.7871
28057SOL     OW87762   6.916   3.646   8.145  0.5057 -0.0102  0.6166
28057SOL    HW187763   6.980   3.614   8.208  3.3490  1.3676 -1.3614
28057SOL    HW287764   6.882   3.726   8.184  3.8696  2.0758 -0.2898
28058SOL     OW87765   6.145   0.883   8.589  0.0472 -0.1286 -0.4535
28058SOL    HW187766   6.066   0.838   8.558  1.1099 -2.7256  0.3356
28058SOL    HW287767   6.175   0.932   8.513 -1.6085 -0.1204 -1.1515
28059SOL     OW87768   0.456  10.675   0.248  0.2952  0.4926 -0.1605
28059SOL    HW187769   0.373  10.629   0.237  0.5726 -0.4973  1.5710
28059SOL    HW287770   0.523  10.609   0.233  0.7407  0.8381  0.2401
28060SOL     OW87771   4.705   6.769  10.566 -0.4374  0.0169 -0.3123
28060SOL    HW187772   4.669   6.751  10.479  1.2103  3.2688 -1.8650
28060SOL    HW287773   4.643   6.830  10.605  0.6263  1.5099 -0.8455
28061SOL     OW87774   0.188   8.335  10.481  0.1547  0.3652 -0.4167
28061SOL    HW187775   0.180   8.375  10.395  0.3456 -0.5796 -0.8899
28061SOL    HW287776   0.169   8.242  10.467  0.5306  0.1297  0.4922
28062SOL     OW87777   9.604   9.317   5.125 -0.1706 -0.5500 -0.8397
28062SOL    HW187778   9.631   9.246   5.067  2.1550 -0.4984  0.0569
28062SOL    HW287779   9.581   9.273   5.207  0.9027 -0.3297 -0.4045
28063SOL     OW87780   9.990   3.761   7.564 -0.0179  0.3121 -0.2765
28063SOL    HW187781  10.005   3.693   7.499 -1.8621 -0.1725 -0.2623
28063SOL    HW287782  10.077   3.797   7.582  0.9070 -1.4814 -0.8789
28064SOL     OW87783   0.704   7.250   7.610  0.2195  0.6261  0.2424
28064SOL    HW187784   0.705   7.173   7.668 -0.2158  0.6757  0.3239
28064SOL    HW287785   0.707   7.213   7.522 -0.2514  0.4998  0.2744
28065SOL     OW87786   0.705   3.304   2.833  0.4100 -0.3213 -0.4237
28065SOL    HW187787   0.759   3.337   2.905  0.7907 -0.4238 -0.6613
28065SOL    HW287788   0.747   3.222   2.807 -0.1979 -0.7011 -0.2239
28066SOL     OW87789  10.198  10.199   9.658  0.3379 -0.0068 -0.3219
28066SOL    HW187790  10.246  10.267   9.706 -1.1762  0.7188  0.2390
28066SOL    HW287791  10.219  10.216   9.566  0.4405  0.8763 -0.1470
28067SOL     OW87792   9.721   3.690   7.596  0.4164 -0.1482  0.5235
28067SOL    HW187793   9.697   3.648   7.513  0.4412 -0.5868  0.7384
28067SOL    HW287794   9.806   3.731   7.578  0.6590 -0.6608  0.4706
28068SOL     OW87795   9.915  11.015   2.506 -0.0250  0.3772 -0.0666
28068SOL    HW187796   9.936  11.054   2.591 -0.3699  2.2370 -0.7989
28068SOL    HW287797   9.997  10.976   2.477 -0.0000 -0.6388  1.2829
28069SOL     OW87798   8.110   0.346   4.990  0.4670 -0.3800 -0.3878
28069SOL    HW187799   8.181   0.281   4.995  1.5964  0.8290 -0.2041
28069SOL    HW287800   8.054   0.315   4.919  1.0145 -1.5138 -0.3512
28070SOL     OW87801   7.736   2.587   7.220 -0.2153  0.0810 -0.4333
28070SOL    HW187802   7.787   2.603   7.141  0.1761 -1.4217 -0.5038
28070SOL    HW287803   7.797   2.602   7.292 -0.7491  2.1379 -0.3285
28071SOL     OW87804   1.835  11.052  10.329  0.1346  0.5175 -0.2615
28071SOL    HW187805   1.820  11.130  10.277  2.4938 -0.2144 -2.2460
28071SOL    HW287806   1.810  10.979  10.271  1.1246 -0.2683  0.2637
28072SOL     OW87807   4.474   6.765   5.999  0.2291  0.0980  0.3510
28072SOL    HW187808   4.446   6.781   6.089  0.4772  1.8417  0.1593
28072SOL    HW287809   4.567   6.789   5.998  0.2605 -0.0301 -0.3291
28073SOL     OW87810   2.701  10.003   6.025 -0.2454  0.3432  0.0306
28073SOL    HW187811   2.662   9.915   6.023  0.8072 -0.2131  1.5453
28073SOL    HW287812   2.750  10.009   5.944  0.7117 -1.0218  0.4599
28074SOL     OW87813   7.109   9.872   7.788  0.0153 -0.3625  0.0220
28074SOL    HW187814   7.023   9.885   7.828 -0.4008 -0.2272 -0.9079
28074SOL    HW287815   7.133   9.958   7.754  0.3564 -0.4826 -0.0502
28075SOL     OW87816   5.229   2.254   2.511  0.0539  0.1122  0.4516
28075SOL    HW187817   5.325   2.253   2.506  0.1587  1.2474  1.6577
28075SOL    HW287818   5.209   2.327   2.569 -1.5548 -0.1244  0.2325
28076SOL     OW87819  10.805   9.484   2.331  0.1387  0.0817  0.3520
28076SOL    HW187820  10.727   9.529   2.298  0.0208  1.4246  2.2997
28076SOL    HW287821  10.870   9.493   2.261 -0.8880  0.4842 -0.5808
28077SOL     OW87822   2.684   9.147   9.711  0.0670 -0.5229  1.1268
28077SOL    HW187823   2.604   9.159   9.761 -1.5850 -1.8356 -1.0209
28077SOL    HW287824   2.703   9.232   9.673 -2.2429 -0.8346 -0.9487
28078SOL     OW87825   9.723   3.182   5.347 -0.1215 -0.1879 -0.4816
28078SOL    HW187826   9.762   3.264   5.319 -0.7031  0.0687 -0.5497
28078SOL    HW287827   9.796   3.120   5.348  0.4568  0.4860  0.2407
28079SOL     OW87828   1.823   7.228  10.302  0.1486  0.0905  0.2043
28079SOL    HW187829   1.911   7.264  10.301 -0.2588  1.1959  1.1629
28079SOL    HW287830   1.835   7.134  10.318  1.0922  0.4452  1.7017
28080SOL     OW87831   4.598   8.891   0.778  0.3881 -0.4620  0.0469
28080SOL    HW187832   4.536   8.924   0.714  2.0258  0.6946 -1.0319
28080SOL    HW287833   4.670   8.856   0.726  2.4666  1.8684  1.1485
28081SOL     OW87834   7.950   0.244   0.557 -0.5211  0.0139 -0.1689
28081SOL    HW187835   7.960   0.273   0.467 -0.2234  2.3962  0.5451
28081SOL    HW287836   7.855   0.237   0.570 -0.6942  1.8634 -0.1045
28082SOL     OW87837   3.967   2.322   6.107  0.2675  0.0008  0.3587
28082SOL    HW187838   4.060   2.299   6.105  0.5130  0.9598  0.3494
28082SOL    HW287839   3.964   2.415   6.084 -0.8071 -0.3113 -0.9620
28083SOL     OW87840   6.130   0.205   2.496 -0.8627  0.4177  0.1210
28083SOL    HW187841   6.217   0.183   2.463 -0.9821  0.9074 -0.5367
28083SOL    HW287842   6.135   0.299   2.517 -1.6251  0.7924 -1.2522
28084SOL     OW87843   8.723   4.585   9.861  0.6585  0.1922 -0.0872
28084SOL    HW187844   8.707   4.676   9.887  1.4841  0.6344 -1.0685
28084SOL    HW287845   8.817   4.581   9.846  1.1108 -1.5452  2.5865
28085SOL     OW87846   6.039   3.264   7.242 -0.2115  0.1152  0.2895
28085SOL    HW187847   6.051   3.353   7.274 -0.1798 -0.3702  1.6810
28085SOL    HW287848   5.962   3.232   7.289 -0.2695 -0.5694 -0.2563
28086SOL     OW87849   9.660   3.328   1.121  0.4107 -0.0816 -0.0360
28086SOL    HW187850   9.682   3.341   1.214 -0.9294 -0.1330  0.3130
28086SOL    HW287851   9.682   3.236   1.104 -1.3012 -0.6984  0.8477
28087SOL     OW87852   1.320   7.339   6.257  0.5396  0.4855 -0.1983
28087SOL    HW187853   1.268   7.284   6.199  0.7666 -1.4094  1.2861
28087SOL    HW287854   1.266   7.350   6.335  1.3859  0.5056  0.4032
28088SOL     OW87855   0.910   8.930   4.518 -0.0798 -0.4909  0.2822
28088SOL    HW187856   0.947   8.926   4.430 -1.1853 -1.5926 -0.1674
28088SOL    HW287857   0.978   8.896   4.575  0.2937 -0.6751 -0.2746
28089SOL     OW87858   1.561  10.124   5.052  1.0371 -0.4575  0.1605
28089SOL    HW187859   1.600  10.166   4.975 -1.0138  1.5380  0.0939
28089SOL    HW287860   1.548  10.033   5.025  1.6624 -0.1469 -1.3241
28090SOL     OW87861   3.313  10.200   2.191 -0.0222 -0.1901  0.7294
28090SOL    HW187862   3.356  10.216   2.107 -2.8151 -1.2586 -1.0742
28090SOL    HW287863   3.340  10.272   2.247  0.5409  1.5925 -1.6921
28091SOL     OW87864   8.808   2.219  10.366  0.0909 -0.4889 -0.5220
28091SOL    HW187865   8.787   2.288  10.303 -1.8847 -0.3659  0.2221
28091SOL    HW287866   8.759   2.143  10.335 -2.4055  0.0420  1.7433
28092SOL     OW87867   6.721   6.181   8.322  0.0451 -0.2480  0.4811
28092SOL    HW187868   6.769   6.232   8.257 -0.4937 -0.2256  0.0962
28092SOL    HW287869   6.634   6.169   8.284  0.0239 -1.0595  0.7716
28093SOL     OW87870   8.572   1.690  10.840 -0.0680 -0.5774 -0.1530
28093SOL    HW187871   8.496   1.745  10.860  0.6168  0.3989 -0.1361
28093SOL    HW287872   8.640   1.721  10.900  0.6792 -0.6514 -0.9443
28094SOL     OW87873   2.247   2.691   8.177  0.0806  0.1906  0.2286
28094SOL    HW187874   2.342   2.689   8.179  0.1233  1.5091  0.4305
28094SOL    HW287875   2.222   2.612   8.129  1.2263 -0.7442  1.0954
28095SOL     OW87876   9.040   8.255   3.770  0.1369 -0.1962  0.2970
28095SOL    HW187877   9.025   8.341   3.731  0.3382 -0.8052 -1.2287
28095SOL    HW287878   8.970   8.245   3.835  0.4090  1.2954  0.8381
28096SOL     OW87879  10.002   8.825   6.653 -0.3988 -0.6191  0.2287
28096SOL    HW187880  10.056   8.854   6.726  0.0586  0.4023 -0.4830
28096SOL    HW287881  10.008   8.897   6.589  0.2784 -2.0193 -1.3609
28097SOL     OW87882   9.686   2.930  10.644  0.2040 -0.3135 -0.3955
28097SOL    HW187883   9.639   2.961  10.721  1.5208  1.1727 -0.1263
28097SOL    HW287884   9.624   2.873  10.598 -1.1009 -0.0533  0.9840
28098SOL     OW87885   0.522   7.696   2.592  0.3675  0.3882  0.1438
28098SOL    HW187886   0.549   7.751   2.518  0.5784  1.9858  1.3637
28098SOL    HW287887   0.427   7.709   2.598  0.3038  0.0194 -0.0127
28099SOL     OW87888   6.915   5.316  10.462 -0.3303 -0.0257  0.0290
28099SOL    HW187889   6.931   5.407  10.436 -0.0312  0.0844  0.5719
28099SOL    HW287890   6.925   5.266  10.382  0.2044  0.3430 -0.1418
28100SOL     OW87891   0.482   1.227   2.712 -0.5160  0.0539  0.0809
28100SOL    HW187892   0.471   1.181   2.796 -3.5191  0.9986  0.3536
28100SOL    HW287893   0.529   1.307   2.735 -0.0153 -0.3774  0.5907
28101SOL     OW87894   1.269   1.658   8.944  0.2920  0.4922 -0.6386
28101SOL    HW187895   1.241   1.569   8.967  0.3080  0.5147 -0.5338
28101SOL    HW287896   1.329   1.645   8.870  0.5616  0.3874 -0.4061
28102SOL     OW87897   2.918   2.549   2.803 -0.4704  0.2208 -0.0294
28102SOL    HW187898   2.945   2.512   2.720 -1.2521  0.9833 -0.6462
28102SOL    HW287899   2.899   2.641   2.783 -2.6411 -0.0434  0.5199
28103SOL     OW87900   3.464   0.384   8.514  0.0631  0.3183  0.6158
28103SOL    HW187901   3.492   0.372   8.604  0.0486  1.2488  0.7614
28103SOL    HW287902   3.543   0.409   8.467  0.1701 -0.6604  0.2539
28104SOL     OW87903   5.416  10.630   4.847 -0.0137  0.1563 -0.0831
28104SOL    HW187904   5.506  10.644   4.878  0.0951 -0.3853 -0.1472
28104SOL    HW287905   5.426  10.577   4.767 -0.4435 -0.8738  0.5273
28105SOL     OW87906   9.713  10.580   6.543 -0.2235 -0.0164 -0.3887
28105SOL    HW187907   9.796  10.600   6.499 -0.4815 -1.2739 -1.5437
28105SOL    HW287908   9.655  10.652   6.520 -0.0280 -0.1265 -1.2847
28106SOL     OW87909   6.811  10.417   2.325 -0.4387  0.5043 -0.2004
28106SOL    HW187910   6.772  10.455   2.247  1.1427 -0.3122 -1.4720
28106SOL    HW287911   6.897  10.460   2.332  0.5046 -1.2509 -0.4572
28107SOL     OW87912   4.097   4.117   4.649 -0.0015  0.1959 -0.6151
28107SOL    HW187913   4.159   4.186   4.627  0.0816  0.6392  0.8989
28107SOL    HW287914   4.128   4.041   4.600  1.7458  0.4105  0.0651
28108SOL     OW87915   3.487  10.983   0.531 -0.4283 -0.7607  0.0962
28108SOL    HW187916   3.527  11.051   0.586  1.1563 -1.9105  0.4356
28108SOL    HW287917   3.427  11.031   0.474 -0.0437  0.8106  0.9398
28109SOL     OW87918   6.958   0.490   2.192  0.1114  0.0845 -0.3877
28109SOL    HW187919   7.045   0.501   2.154  0.8156  0.0465  1.1212
28109SOL    HW287920   6.968   0.517   2.284 -0.5694 -3.2404  0.7979
28110SOL     OW87921  10.558   8.223   9.566  0.1046 -0.2877  0.3007
28110SOL    HW187922  10.544   8.198   9.657  1.2173 -0.1306  0.5224
28110SOL    HW287923  10.578   8.141   9.521 -0.7052 -0.4021  0.1386
28111SOL     OW87924   3.439  10.659  11.024  0.2315  0.6392  0.2387
28111SOL    HW187925   3.346  10.678  11.036 -0.2795 -0.6926 -1.2731
28111SOL    HW287926   3.470  10.726  10.963 -0.1746  0.1290 -0.5565
28112SOL     OW87927   1.618   0.381   7.540 -0.7811 -0.6318 -0.3218
28112SOL    HW187928   1.595   0.310   7.480 -0.4886 -1.1271  0.1348
28112SOL    HW287929   1.681   0.434   7.492 -0.7416 -0.8751 -0.5406
28113SOL     OW87930   0.277   1.294   3.052  0.5107 -0.8328  0.2800
28113SOL    HW187931   0.226   1.367   3.017 -0.0912 -1.2804  0.2254
28113SOL    HW287932   0.358   1.335   3.083 -0.5551  0.1558  1.9184
28114SOL     OW87933  10.036   2.801   2.361 -0.2301 -0.3301 -0.7952
28114SOL    HW187934  10.003   2.779   2.274 -2.5864  1.5996 -0.4997
28114SOL    HW287935  10.023   2.721   2.412 -1.0361 -0.7640 -1.6439
28115SOL     OW87936   4.038   0.549   2.296 -0.3111  0.5760  0.2909
28115SOL    HW187937   3.970   0.506   2.348  0.9121 -2.0815 -0.1005
28115SOL    HW287938   4.110   0.485   2.293  1.2083  2.2162 -1.4124
28116SOL     OW87939   7.847   8.947   1.218 -0.6346  0.0768 -0.3977
28116SOL    HW187940   7.801   8.932   1.301  0.1089  1.5005  0.3147
28116SOL    HW287941   7.832   9.040   1.199  0.3402  0.0947 -1.1567
28117SOL     OW87942  10.885   4.844   5.891  0.2961  0.0816  0.6116
28117SOL    HW187943  10.945   4.916   5.909  1.7038 -0.6827 -0.7649
28117SOL    HW287944  10.812   4.884   5.843  0.1096  0.8824  1.5485
28118SOL     OW87945  11.072   1.007  10.977 -0.4724 -0.3756  0.2614
28118SOL    HW187946  11.145   0.957  10.941 -1.2860  0.0425 -2.1880
28118SOL    HW287947  10.996   0.980  10.926 -1.3722  1.6853  0.3783
28119SOL     OW87948   4.177  10.901   8.732 -0.2432  0.0722 -0.3623
28119SOL    HW187949   4.231  10.856   8.796  0.5193  0.1697 -0.9309
28119SOL    HW287950   4.101  10.844   8.720  0.6215 -0.9725 -0.9422
28120SOL     OW87951   7.862   6.387   2.455  0.3516 -0.9909 -0.0464
28120SOL    HW187952   7.844   6.326   2.384 -2.1229 -0.0097 -0.3481
28120SOL    HW287953   7.895   6.466   2.411 -0.8910 -0.4909 -0.0976
28121SOL     OW87954   8.177   1.383   5.297 -0.5534 -0.2595  0.2665
28121SOL    HW187955   8.231   1.333   5.235 -1.9705 -0.3999 -0.8947
28121SOL    HW287956   8.105   1.324   5.319 -1.9510  1.0108 -0.6992
28122SOL     OW87957   6.504   5.784   7.031  0.0331 -0.0254  0.0346
28122SOL    HW187958   6.419   5.762   6.993 -0.7200  0.9465  1.0911
28122SOL    HW287959   6.484   5.819   7.118  1.4862  0.6016  0.1578
28123SOL     OW87960   2.115   5.529   9.062 -0.2166  0.0276  0.1288
28123SOL    HW187961   2.183   5.550   9.126  0.3728 -0.3955 -0.3544
28123SOL    HW287962   2.122   5.435   9.048 -0.3209  0.1171 -0.5758
28124SOL     OW87963   5.837   8.136   3.251 -0.5461 -0.0839 -0.4008
28124SOL    HW187964   5.898   8.185   3.305 -0.4355 -0.0978 -0.5111
28124SOL    HW287965   5.763   8.195   3.238 -0.1374  0.3001 -1.0582
28125SOL     OW87966   3.507   2.620   4.200 -0.0093 -0.4456  0.4798
28125SOL    HW187967   3.433   2.669   4.235  0.9552  0.7855  0.8933
28125SOL    HW287968   3.484   2.528   4.212 -1.3103 -0.0809  0.8958
28126SOL     OW87969   3.670   5.415   2.826 -0.3671 -0.3903  0.3914
28126SOL    HW187970   3.593   5.364   2.851  0.0122 -0.0271  2.4787
28126SOL    HW287971   3.741   5.382   2.881  0.7597 -0.0720 -0.8187
28127SOL     OW87972   5.499   1.806   2.475 -0.6961  0.3491  0.0585
28127SOL    HW187973   5.472   1.754   2.399  0.9104  0.2354 -0.4846
28127SOL    HW287974   5.581   1.766   2.503 -0.9777  0.7541  1.5132
28128SOL     OW87975   3.030   8.975   5.752  0.1437  0.0979 -0.4319
28128SOL    HW187976   2.950   8.999   5.704  0.3308  0.3098 -0.6363
28128SOL    HW287977   3.055   8.890   5.716  1.0658  0.8780 -1.7024
28129SOL     OW87978   2.322   0.005   7.877 -0.1145 -0.1168  0.0614
28129SOL    HW187979   2.293   0.005   7.785 -0.6312 -1.4553  0.1979
28129SOL    HW287980   2.319   0.097   7.903  2.1337  0.6020 -1.8739
28130SOL     OW87981  10.372   9.700   7.577 -0.5023 -0.2769  0.8529
28130SOL    HW187982  10.384   9.624   7.634 -0.7199  1.2262  3.0381
28130SOL    HW287983  10.371   9.664   7.489 -0.0887 -2.7361  1.7693
28131SOL     OW87984   2.509   4.021   6.852  0.0239  0.0595 -0.3062
28131SOL    HW187985   2.565   3.968   6.796  1.3811  0.4796  0.5961
28131SOL    HW287986   2.569   4.068   6.909 -1.2675  0.2095  1.0110
28132SOL     OW87987   2.540   8.148   0.223  0.0331 -0.0303  0.7436
28132SOL    HW187988   2.457   8.167   0.267 -1.0656  0.6665 -1.4529
28132SOL    HW287989   2.532   8.057   0.195  0.9346 -0.6294  2.3121
28133SOL     OW87990   8.018   7.926   6.276  0.6523 -0.5605  0.3340
28133SOL    HW187991   8.044   7.978   6.201 -1.2052 -0.5964 -0.3743
28133SOL    HW287992   8.095   7.925   6.332  1.8216  0.1099 -1.1997
28134SOL     OW87993   3.545   9.585   9.080  0.4868 -0.4706 -0.4528
28134SOL    HW187994   3.619   9.602   9.138  0.6208  0.3039 -0.8467
28134SOL    HW287995   3.472   9.570   9.139  0.8457 -0.7295 -0.0668
28135SOL     OW87996   7.111   8.242   9.891 -0.3269  0.9972  0.1041
28135SOL    HW187997   7.155   8.165   9.854 -0.6629  0.0944  1.4789
28135SOL    HW287998   7.046   8.266   9.824 -2.3584 -1.8611  0.8300
28136SOL     OW87999   8.702   6.616   4.102 -0.0894 -0.3518 -0.5101
28136SOL    HW188000   8.658   6.542   4.061  0.0113 -2.1915  2.4731
28136SOL    HW288001   8.641   6.689   4.092 -1.3845 -1.4908 -1.1696
28137SOL     OW88002   1.786   4.886   6.679  0.8060  0.1926 -0.4633
28137SOL    HW188003   1.798   4.886   6.774  2.2617 -1.6382 -0.5903
28137SOL    HW288004   1.691   4.897   6.667  0.6031  0.5140  1.1819
28138SOL     OW88005  10.497   1.413   3.925  0.0556  0.1949  0.4085
28138SOL    HW188006  10.501   1.330   3.878 -2.3399 -0.4475  1.1597
28138SOL    HW288007  10.572   1.463   3.894  0.4425 -1.4844 -1.5384
28139SOL     OW88008   8.826   4.225   5.506 -0.2234  0.4273 -0.1036
28139SOL    HW188009   8.771   4.147   5.496  0.8178 -0.0619 -3.8336
28139SOL    HW288010   8.904   4.194   5.551 -0.6959 -0.1977  0.2957
28140SOL     OW88011   2.133   9.063   3.594 -0.1027  0.4984  0.0302
28140SOL    HW188012   2.133   8.997   3.664  1.0281  0.5362  0.0850
28140SOL    HW288013   2.209   9.117   3.612 -1.1851  2.0407  0.1602
28141SOL     OW88014   8.688   2.694   8.964  0.1895 -0.2639  0.4196
28141SOL    HW188015   8.682   2.606   9.002 -0.5708  0.4371  2.0517
28141SOL    HW288016   8.597   2.723   8.958  0.4805  1.7213  3.3273
28142SOL     OW88017   8.603   0.868   4.504 -0.1951  0.3175  0.7916
28142SOL    HW188018   8.583   0.789   4.555 -0.1388  0.3409  0.8489
28142SOL    HW288019   8.656   0.922   4.562  2.3168 -0.8906 -0.2152
28143SOL     OW88020   3.157   6.895  11.027  0.0137  0.1672 -0.2581
28143SOL    HW188021   3.193   6.809  11.009 -2.2981 -0.7505 -0.8162
28143SOL    HW288022   3.093   6.910  10.958  1.7575  3.2791 -1.3977
28144SOL     OW88023   6.258   1.148   1.357  0.0828  0.0867 -0.1292
28144SOL    HW188024   6.348   1.181   1.363  0.1564 -0.3707  3.6585
28144SOL    HW288025   6.223   1.158   1.446 -3.8573  0.7775 -1.5687
28145SOL     OW88026   5.711   3.743   6.816 -0.3338  0.0569  0.1491
28145SOL    HW188027   5.645   3.679   6.791 -0.1248 -1.4449  3.0007
28145SOL    HW288028   5.783   3.727   6.755 -0.9129 -1.3537 -0.2173
28146SOL     OW88029   3.469   3.268  10.384 -0.6222 -0.5399 -0.4612
28146SOL    HW188030   3.546   3.262  10.328 -0.9200 -2.3627 -0.7485
28146SOL    HW288031   3.501   3.244  10.471 -0.7258 -0.6041 -0.4408
28147SOL     OW88032   2.196   8.722   7.833 -0.2319  0.3454  0.0516
28147SOL    HW188033   2.269   8.661   7.846 -0.4476 -0.0730 -0.6412
28147SOL    HW288034   2.230   8.806   7.863 -0.3325 -0.3101  2.1647
28148SOL     OW88035   4.838   3.286   4.877 -0.2268 -0.6122  0.3037
28148SOL    HW188036   4.933   3.273   4.884  0.3827  2.6683  0.1153
28148SOL    HW288037   4.821   3.289   4.783 -0.6779 -1.8911  0.3301
28149SOL     OW88038   3.925   4.793   5.545 -0.2657 -0.0125  0.0794
28149SOL    HW188039   3.983   4.736   5.595 -0.4974  0.9240  1.4863
28149SOL    HW288040   3.972   4.876   5.538  0.0974 -0.3364 -1.9998
28150SOL     OW88041   1.325   9.279   2.819 -0.6466 -0.0610 -0.0734
28150SOL    HW188042   1.245   9.262   2.768  0.2375 -1.7513 -0.9755
28150SOL    HW288043   1.303   9.250   2.907 -1.4286  0.7086  0.0051
28151SOL     OW88044   9.568   0.052   2.273  0.1246  0.0905  0.0842
28151SOL    HW188045   9.610   0.086   2.194  3.5205 -1.0045  1.2552
28151SOL    HW288046   9.549  -0.039   2.253  1.3813 -0.3072  0.6074
28152SOL     OW88047   3.941   3.357  10.059 -0.0302  1.0680  0.3453
28152SOL    HW188048   3.914   3.296  10.128  1.0128  0.6387  0.3909
28152SOL    HW288049   3.920   3.311   9.978  2.1325 -0.0486  0.3607
28153SOL     OW88050   6.553   0.666   9.403  0.0803  0.0359 -0.3002
28153SOL    HW188051   6.495   0.712   9.464  0.9257 -0.7994  1.2009
28153SOL    HW288052   6.638   0.709   9.415  0.8774 -1.7926  1.1032
28154SOL     OW88053   8.060   9.346   6.349  0.1664  0.4156 -0.0442
28154SOL    HW188054   8.123   9.292   6.396 -1.4413 -1.4049  0.0924
28154SOL    HW288055   8.035   9.414   6.412 -0.9648 -1.2114  1.3677
28155SOL     OW88056   7.294  10.646  10.576  0.0281  0.2670  0.2371
28155SOL    HW188057   7.331  10.600  10.501  1.3601  2.3133 -0.4317
28155SOL    HW288058   7.223  10.698  10.539  0.2808  0.8123  0.5203
28156SOL     OW88059   9.084   8.688   0.576  0.5232  0.0088 -0.4531
28156SOL    HW188060   9.159   8.718   0.525 -0.3359  0.9725 -1.2080
28156SOL    HW288061   9.122   8.652   0.656  1.9152 -1.6479 -1.7899
28157SOL     OW88062   2.423   5.621  10.399 -0.3487  0.4882 -0.4325
28157SOL    HW188063   2.342   5.651  10.357 -1.7245 -2.3677 -0.0855
28157SOL    HW288064   2.469   5.572  10.331 -0.5178 -0.5892  0.1996
28158SOL     OW88065  10.515  11.009   5.753  0.0456 -0.1604  0.1677
28158SOL    HW188066  10.464  11.085   5.780  0.7793  0.8983 -1.2732
28158SOL    HW288067  10.606  11.034   5.769  0.3336 -0.4820 -0.8389
28159SOL     OW88068   9.205   5.287   6.306  0.5443  0.0713  0.1134
28159SOL    HW188069   9.228   5.341   6.231 -1.1474  0.3935 -0.2022
28159SOL    HW288070   9.126   5.241   6.280  0.3235 -0.3567  1.4392
28160SOL     OW88071   5.771   8.573   0.821  0.4627  0.1931 -0.6358
28160SOL    HW188072   5.676   8.570   0.834  0.4793 -0.9109 -0.6746
28160SOL    HW288073   5.806   8.518   0.891  1.3037  2.8529  1.2028
28161SOL     OW88074   8.857   0.808   7.349  0.4913  0.0524 -0.3713
28161SOL    HW188075   8.873   0.899   7.322  1.9822 -0.6739 -2.1648
28161SOL    HW288076   8.811   0.769   7.275 -0.1576 -0.6690  0.4019
28162SOL     OW88077  10.236   9.007  10.928 -0.2478 -0.2407  0.3485
28162SOL    HW188078  10.191   8.996  10.844  0.7778 -2.3473 -0.0133
28162SOL    HW288079  10.194   9.082  10.969 -2.4445 -0.6470 -0.9928
28163SOL     OW88080  10.721   5.532   8.699  0.3560 -0.0054 -0.3225
28163SOL    HW188081  10.668   5.611   8.698  1.2655  0.7235  1.8363
28163SOL    HW288082  10.809   5.562   8.675  0.2999 -0.7586 -1.5254
28164SOL     OW88083   3.647   0.504   0.901  0.6201 -0.5180  0.2877
28164SOL    HW188084   3.572   0.468   0.948  0.8247 -0.0463  0.9777
28164SOL    HW288085   3.654   0.449   0.822  0.5637 -1.6238  1.0244
28165SOL     OW88086   3.792   9.211   3.969 -0.5476 -0.4545  0.6651
28165SOL    HW188087   3.784   9.304   3.991 -0.9105 -0.2513 -0.3180
28165SOL    HW288088   3.715   9.170   4.007 -0.3516 -0.3737  1.1613
28166SOL     OW88089   2.910   1.715   6.845 -0.1872 -0.1080 -0.4270
28166SOL    HW188090   2.875   1.646   6.790  0.5409 -1.2739  0.5307
28166SOL    HW288091   2.987   1.676   6.887 -0.4252  0.9061  1.0204
28167SOL     OW88092   2.870   6.431   2.381 -0.6639 -0.1888  0.6148
28167SOL    HW188093   2.891   6.368   2.312  0.5181  0.0645  0.7300
28167SOL    HW288094   2.894   6.387   2.462  3.1378  1.4398  0.5635
28168SOL     OW88095  10.933   5.696   8.687  0.3209 -0.3760 -0.4805
28168SOL    HW188096  10.894   5.767   8.637 -0.2887  0.1391  0.6780
28168SOL    HW288097  11.008   5.736   8.732 -0.3339 -0.2937  0.5887
28169SOL     OW88098  10.451   8.546   0.201  0.5194 -0.0447  0.1987
28169SOL    HW188099  10.539   8.528   0.233  0.8232 -0.1229 -0.6517
28169SOL    HW288100  10.429   8.631   0.237  0.8540 -0.1270  0.6048
28170SOL     OW88101  10.601   8.069   1.980  0.1630 -0.0747 -0.0523
28170SOL    HW188102  10.601   8.068   1.884  0.3030 -0.9512 -0.0518
28170SOL    HW288103  10.656   8.144   2.003  0.9573 -0.4403 -0.6766
28171SOL     OW88104   9.590   4.087   9.846  0.6111  0.1023  0.0063
28171SOL    HW188105   9.543   4.010   9.813  0.7045 -0.1189  0.3740
28171SOL    HW288106   9.678   4.054   9.867  0.3905  0.1002  0.9929
28172SOL     OW88107   9.626   3.256   0.503  0.3766 -0.2778 -0.6394
28172SOL    HW188108   9.595   3.345   0.487 -0.4201 -0.5374 -0.5694
28172SOL    HW288109   9.721   3.262   0.494  0.4126  0.7732  0.3018
28173SOL     OW88110   5.438  10.792   0.861  0.1823  0.0263 -0.0191
28173SOL    HW188111   5.425  10.886   0.853  0.6499  0.1653  0.7918
28173SOL    HW288112   5.349  10.756   0.863 -0.0064  0.5024  0.2702
28174SOL     OW88113   6.721   8.758   9.201 -0.8407  0.1252  0.1885
28174SOL    HW188114   6.698   8.707   9.278 -0.0305 -0.8732 -0.1920
28174SOL    HW288115   6.691   8.704   9.127  1.0411 -0.4015 -0.2567
28175SOL     OW88116   6.631   5.955   1.053 -0.4686 -0.3100 -0.6469
28175SOL    HW188117   6.725   5.969   1.042 -0.3889 -0.7339 -0.5318
28175SOL    HW288118   6.622   5.920   1.142 -0.6946 -0.5986 -0.7792
28176SOL     OW88119   3.527   2.343   5.666 -0.5832 -0.0108  0.1323
28176SOL    HW188120   3.561   2.254   5.669  2.3557  1.0200  1.2507
28176SOL    HW288121   3.484   2.350   5.581  0.5557 -2.0273 -0.6702
28177SOL     OW88122   4.131   9.649   9.099  0.1116  0.2042  0.2997
28177SOL    HW188123   4.077   9.570   9.091  0.3400  0.0060  0.7303
28177SOL    HW288124   4.111   9.699   9.020 -0.9846  0.3074  0.6309
28178SOL     OW88125   4.053   7.463   0.709  0.7482 -0.4307  0.2443
28178SOL    HW188126   4.066   7.372   0.681  0.5678  0.1053 -1.7177
28178SOL    HW288127   4.063   7.460   0.804 -1.3776 -2.9092  0.5259
28179SOL     OW88128   5.564   4.997   5.483  0.4880 -0.1735 -0.1362
28179SOL    HW188129   5.630   4.928   5.474  0.0523 -0.8541  1.6083
28179SOL    HW288130   5.569   5.024   5.574 -2.4966 -1.1520  0.4073
28180SOL     OW88131   7.253   9.424   4.960  0.1385  0.0560  0.3617
28180SOL    HW188132   7.174   9.470   4.988  0.6484  0.1772  1.6345
28180SOL    HW288133   7.293   9.392   5.040 -0.0639 -2.4705 -0.4490
28181SOL     OW88134  10.976  10.014   6.151  0.0099 -0.4812  0.6684
28181SOL    HW188135  10.958   9.923   6.175  0.3802 -0.5618  0.6495
28181SOL    HW288136  11.069  10.015   6.128  0.3039  0.1484  1.8078
28182SOL     OW88137   4.791   7.947   8.892  0.1734 -0.0962 -0.4563
28182SOL    HW188138   4.715   7.893   8.870  0.9806 -1.1403 -0.7870
28182SOL    HW288139   4.754   8.032   8.917 -1.0889 -0.5684 -0.6403
28183SOL     OW88140  10.422  10.751   6.748  0.1932  0.0657 -0.3289
28183SOL    HW188141  10.426  10.844   6.772  2.5357  0.3028 -1.3131
28183SOL    HW288142  10.398  10.751   6.656  0.3564 -0.3072 -0.3725
28184SOL     OW88143   9.896   7.802   7.015 -0.1305  0.1875  0.5440
28184SOL    HW188144   9.892   7.897   6.999 -1.7277  0.6481  2.9484
28184SOL    HW288145   9.989   7.781   7.013  0.2920  1.8862  0.3011
28185SOL     OW88146   6.574   8.486   5.217  0.2773 -0.6157 -0.2655
28185SOL    HW188147   6.495   8.432   5.220 -0.8717  0.9033 -1.4064
28185SOL    HW288148   6.596   8.491   5.124  0.8744  0.1423 -0.0943
28186SOL     OW88149   2.551   9.404   8.081 -0.2417 -0.2621 -0.1941
28186SOL    HW188150   2.462   9.411   8.116 -1.4329 -0.1823 -2.9644
28186SOL    HW288151   2.587   9.492   8.088 -0.4425 -0.2339  0.6671
28187SOL     OW88152   7.064   8.616   2.477 -0.2790 -0.3652 -0.7203
28187SOL    HW188153   7.053   8.706   2.448 -0.9288 -0.4826 -0.8504
28187SOL    HW288154   7.088   8.623   2.569 -0.2654 -0.0580 -0.7467
28188SOL     OW88155   5.873   2.407   7.558  0.1615  0.2228 -0.1401
28188SOL    HW188156   5.839   2.420   7.470 -0.4663  1.4285  0.2707
28188SOL    HW288157   5.817   2.459   7.614  0.2255 -0.9448  1.0589
28189SOL     OW88158   1.218  10.022  10.410  0.0740 -0.7251  0.0211
28189SOL    HW188159   1.206   9.934  10.447 -1.3740 -0.9414 -0.8749
28189SOL    HW288160   1.156  10.025  10.337  0.1833  1.0146 -0.0302
28190SOL     OW88161   5.341   4.116   2.415  0.3892  0.0316 -0.1516
28190SOL    HW188162   5.346   4.147   2.324 -0.9635  0.0830 -0.2222
28190SOL    HW288163   5.248   4.102   2.431  0.7038 -1.0916  0.8692
28191SOL     OW88164   7.761   5.418   5.395 -0.5578  0.0501 -0.3677
28191SOL    HW188165   7.684   5.468   5.422 -1.0675 -0.9504  0.0795
28191SOL    HW288166   7.737   5.326   5.409  0.4956 -0.3109 -0.7962
28192SOL     OW88167   3.085   2.850   2.033  0.4009 -0.3910 -0.5331
28192SOL    HW188168   3.024   2.804   2.091 -0.6443 -0.2265 -1.4824
28192SOL    HW288169   3.056   2.829   1.945  2.4630 -1.2941 -1.0536
28193SOL     OW88170   9.323   7.170  10.362 -0.1345  0.4957 -0.2921
28193SOL    HW188171   9.238   7.132  10.385  1.0030 -1.2173  1.4238
28193SOL    HW288172   9.324   7.255  10.406 -1.1112  0.7288 -0.6910
28194SOL     OW88173   6.402   5.261   9.670  0.1448  0.6192 -0.4352
28194SOL    HW188174   6.461   5.335   9.681 -0.0240  0.6213  0.6076
28194SOL    HW288175   6.426   5.201   9.741 -0.9122  0.5140 -0.1467
28195SOL     OW88176   2.052   2.761   7.505 -0.6772 -0.2812  0.0883
28195SOL    HW188177   2.001   2.821   7.451 -1.1039 -0.0705  0.7195
28195SOL    HW288178   2.138   2.802   7.512  0.1024 -1.3683 -2.2456
28196SOL     OW88179   5.165   5.005   1.003  0.4903  0.3565  0.4010
28196SOL    HW188180   5.252   5.046   1.000  0.3301  0.7955  1.2501
28196SOL    HW288181   5.105   5.079   1.009 -0.0237  0.0926 -1.2661
28197SOL     OW88182   2.710   8.441   5.731  0.5384  0.3086  0.0319
28197SOL    HW188183   2.804   8.428   5.719  0.5963  0.7791 -0.0378
28197SOL    HW288184   2.702   8.526   5.773  0.0692  0.9851 -1.3632
28198SOL     OW88185   6.724  10.573  10.497  0.0358 -0.5361 -0.2629
28198SOL    HW188186   6.628  10.577  10.501  0.0507 -0.6769  3.1425
28198SOL    HW288187   6.751  10.665  10.492 -0.2805 -0.4625 -0.6676
28199SOL     OW88188   9.048   1.117  10.700  0.4261  0.4033  0.0710
28199SOL    HW188189   9.106   1.193  10.710  0.2061  0.5242  0.4121
28199SOL    HW288190   9.105   1.042  10.717  1.1855  0.3353 -2.2755
28200SOL     OW88191   3.890   8.700   0.069 -0.1413  0.0240  0.1013
28200SOL    HW188192   3.847   8.674  -0.012  1.1793 -0.6515 -0.4093
28200SOL    HW288193   3.886   8.622   0.124 -2.6670  1.0087  1.4682
28201SOL     OW88194  10.731  10.128   9.424  0.0108  0.1130  0.0322
28201SOL    HW188195  10.720  10.100   9.333  1.5102  0.4065 -0.2798
28201SOL    HW288196  10.750  10.047   9.472 -0.2522  0.0212 -0.0205
28202SOL     OW88197   8.545   4.269   8.194 -0.3611  0.1287 -0.3790
28202SOL    HW188198   8.517   4.189   8.149 -1.9048  0.2820  0.2438
28202SOL    HW288199   8.639   4.274   8.177 -0.3288 -1.5070 -0.9010
28203SOL     OW88200   3.731   0.582   2.233  0.2353 -0.1489  0.1389
28203SOL    HW188201   3.667   0.512   2.241 -0.2451  0.1004 -1.2417
28203SOL    HW288202   3.684   0.654   2.192  1.6955 -0.4294 -2.2026
28204SOL     OW88203   4.632   9.671   5.890  0.4923  0.1294 -0.2547
28204SOL    HW188204   4.544   9.708   5.892  1.7553  3.4530  0.0058
28204SOL    HW288205   4.644   9.631   5.977 -0.7069 -0.2915 -0.2756
28205SOL     OW88206   4.531   4.902   8.563 -0.0593  0.2341  0.1610
28205SOL    HW188207   4.550   4.960   8.490 -2.4286 -0.4293 -1.0664
28205SOL    HW288208   4.452   4.938   8.602  0.1207 -0.5095  1.2440
28206SOL     OW88209   4.550   9.010   0.253  0.3545 -0.5865 -0.0531
28206SOL    HW188210   4.486   9.009   0.325  1.7001  0.7499  1.2409
28206SOL    HW288211   4.605   9.086   0.271  0.5273  0.0277 -2.7554
28207SOL     OW88212   2.866   2.651   4.714 -0.0649 -0.4491 -0.5468
28207SOL    HW188213   2.907   2.567   4.691 -0.5187 -1.4310  1.9192
28207SOL    HW288214   2.933   2.696   4.766 -0.7895 -0.5042  0.4554
28208SOL     OW88215   0.580   4.880   2.113  0.2293  0.2268 -0.1932
28208SOL    HW188216   0.587   4.790   2.079 -2.0260  0.6617 -2.1312
28208SOL    HW288217   0.497   4.881   2.161  0.6825  1.0692  0.6014
28209SOL     OW88218   8.767   8.622   3.829 -0.3575 -0.2875 -0.5843
28209SOL    HW188219   8.796   8.704   3.789  0.4124  0.2804  1.0334
28209SOL    HW288220   8.778   8.636   3.923 -2.1743 -1.5254 -0.1329
28210SOL     OW88221  10.035   1.427  10.498 -0.1120  0.0698  0.5357
28210SOL    HW188222  10.015   1.419  10.404  1.2264 -2.9272  0.3815
28210SOL    HW288223   9.957   1.394  10.542  0.0256 -0.4722  0.3814
28211SOL     OW88224  11.055   1.271   3.334 -0.5017  0.2753  0.4609
28211SOL    HW188225  10.970   1.232   3.313 -0.1575 -0.4081  0.3399
28211SOL    HW288226  11.043   1.365   3.315 -1.3629  0.2582  0.8611
28212SOL     OW88227   5.495   9.088   0.758 -0.2151  0.1668  0.2081
28212SOL    HW188228   5.535   9.066   0.842  0.7136  1.1996  0.0652
28212SOL    HW288229   5.561   9.142   0.714 -1.0939  0.4835 -0.7630
28213SOL     OW88230   0.259   9.195   5.595 -0.1037  0.2567 -0.2466
28213SOL    HW188231   0.201   9.184   5.671 -0.0448 -1.2239 -0.3894
28213SOL    HW288232   0.224   9.135   5.530  0.6540  0.5271 -0.9178
28214SOL     OW88233   3.941   0.338   9.547 -0.3707 -0.2858 -0.1302
28214SOL    HW188234   4.020   0.378   9.584 -0.0660  0.8946 -1.9099
28214SOL    HW288235   3.878   0.409   9.542 -0.3092 -0.3047 -2.0024
28215SOL     OW88236   3.676   8.449   8.060  0.3141  0.0659 -0.2220
28215SOL    HW188237   3.680   8.529   8.112 -0.7491  0.0385 -0.0766
28215SOL    HW288238   3.586   8.417   8.072  0.8888 -1.4595  0.1865
28216SOL     OW88239   2.660   2.548   7.763  0.0534  0.2231 -0.0275
28216SOL    HW188240   2.671   2.505   7.678 -1.7051 -0.8025  0.2085
28216SOL    HW288241   2.588   2.610   7.749  0.7135  1.1095  0.3718
28217SOL     OW88242   0.618  10.277   6.331  0.3470 -0.0355 -0.2349
28217SOL    HW188243   0.583  10.261   6.418 -2.4176  1.0700 -1.0264
28217SOL    HW288244   0.614  10.192   6.287  0.3786 -0.2974  0.2693
28218SOL     OW88245   5.913   7.797   6.443  0.4134  0.0994 -0.1427
28218SOL    HW188246   5.878   7.712   6.417  1.0656 -0.0636 -0.5040
28218SOL    HW288247   5.854   7.861   6.402 -0.9311 -0.1504  1.2912
28219SOL     OW88248   2.765   0.424   3.863 -0.2452  0.0621 -0.6919
28219SOL    HW188249   2.799   0.448   3.949 -0.4525  0.7318 -0.7983
28219SOL    HW288250   2.785   0.499   3.807  0.1488 -0.4849 -1.3049
28220SOL     OW88251   7.981   4.766   8.462  0.1224 -0.0025  0.0161
28220SOL    HW188252   7.932   4.684   8.456 -1.0458  0.7120 -0.4409
28220SOL    HW288253   7.990   4.796   8.372  1.8672 -0.3531  0.0336
28221SOL     OW88254   8.654   2.911   3.072  0.3537  0.3674 -0.0276
28221SOL    HW188255   8.715   2.889   3.143  0.6527 -0.5226 -0.5331
28221SOL    HW288256   8.571   2.872   3.098  0.6724 -0.6936 -0.5307
28222SOL     OW88257   4.211   1.157   3.257  0.1981 -0.5538  0.0417
28222SOL    HW188258   4.246   1.219   3.193 -3.4445  0.3406 -1.3032
28222SOL    HW288259   4.223   1.072   3.216 -1.9971 -0.0052 -1.9561
28223SOL     OW88260   0.475   1.484   3.225 -0.3509 -0.3430  0.6505
28223SOL    HW188261   0.520   1.403   3.249 -0.5303 -0.1560  1.6704
28223SOL    HW288262   0.533   1.553   3.256 -0.8437 -0.0964  1.0432
28224SOL     OW88263   6.677   1.946   4.254 -0.1018  0.1965  0.0752
28224SOL    HW188264   6.736   1.936   4.179 -2.1049  0.0577 -1.5739
28224SOL    HW288265   6.608   1.883   4.238 -0.9290  0.6326  1.7357
28225SOL     OW88266   3.880   5.660   0.642 -0.3562 -0.3795  0.4435
28225SOL    HW188267   3.957   5.694   0.688 -1.0436 -0.4330  1.6661
28225SOL    HW288268   3.844   5.735   0.595  0.0437 -0.2009  0.4213
28226SOL     OW88269   8.335   9.668   5.892 -0.2192  0.1982 -0.3133
28226SOL    HW188270   8.303   9.681   5.982 -1.1448  1.6836 -0.8056
28226SOL    HW288271   8.283   9.729   5.840  0.4534 -0.4824 -1.8414
28227SOL     OW88272   2.780   9.937   2.531  0.1007 -0.6085  0.1751
28227SOL    HW188273   2.693   9.977   2.536 -1.0061 -2.8630  0.2142
28227SOL    HW288274   2.835   9.994   2.585 -0.1646  3.4585 -3.2838
28228SOL     OW88275   8.583   6.894   7.030 -0.0248  0.7439  0.3092
28228SOL    HW188276   8.597   6.972   6.977  1.8214  1.0382  1.1508
28228SOL    HW288277   8.548   6.829   6.969 -2.7310  2.5039 -0.1779
28229SOL     OW88278   1.642   5.646  10.030  0.5075 -0.1785 -0.2261
28229SOL    HW188279   1.660   5.624  10.121  1.6150  0.0601 -0.3738
28229SOL    HW288280   1.547   5.664  10.028  0.2766 -1.1994  0.6470
28230SOL     OW88281   1.187   9.120   3.706  0.4738  0.0797  0.0189
28230SOL    HW188282   1.154   9.089   3.790 -0.3898  1.8008  0.3520
28230SOL    HW288283   1.278   9.145   3.723  0.8998 -1.3424 -0.0454
28231SOL     OW88284   5.524   6.637   0.889  0.2927  0.0648  0.8520
28231SOL    HW188285   5.548   6.555   0.932 -1.1340 -0.3394  0.9293
28231SOL    HW288286   5.457   6.612   0.825  0.3436  1.0734  0.3844
28232SOL     OW88287   1.734   3.279   9.433 -0.0057 -0.1288  0.3513
28232SOL    HW188288   1.788   3.207   9.400 -0.0586 -0.0718  0.1403
28232SOL    HW288289   1.646   3.242   9.439  0.0659 -0.2478  0.7766
28233SOL     OW88290   8.909   5.332  11.097 -0.0108 -0.0704 -0.3668
28233SOL    HW188291   8.842   5.400  11.111 -0.7850 -0.7555 -0.6438
28233SOL    HW288292   8.991   5.381  11.090 -0.4604  0.7854  0.0988
28234SOL     OW88293  10.041   8.042   9.209  0.3220 -0.3995  0.0866
28234SOL    HW188294  10.090   8.063   9.289 -2.1519  1.6852  1.2112
28234SOL    HW288295  10.054   8.118   9.153 -1.7495  0.3848  0.5663
28235SOL     OW88296   9.889   0.280   6.126  0.1098 -0.4309  0.0265
28235SOL    HW188297   9.951   0.252   6.192  0.3276  1.8579  0.8677
28235SOL    HW288298   9.814   0.313   6.175 -1.0805 -1.5235 -0.9504
28236SOL     OW88299   4.483   7.810   0.563 -0.4150  0.0210 -0.2495
28236SOL    HW188300   4.484   7.837   0.654  0.9223 -1.2707  0.1442
28236SOL    HW288301   4.490   7.892   0.513  2.1978  0.5598  0.8729
28237SOL     OW88302   1.497   8.028   1.732 -0.1699  0.2278  0.0063
28237SOL    HW188303   1.406   8.050   1.748  0.2730  1.5096  0.8775
28237SOL    HW288304   1.509   8.043   1.638 -0.3625  1.9611  0.2414
28238SOL     OW88305   8.723   0.354   6.700 -0.1131 -0.0960 -0.2388
28238SOL    HW188306   8.668   0.332   6.776 -2.2269 -1.1393 -1.9610
28238SOL    HW288307   8.679   0.430   6.661 -0.5521 -1.1246 -1.8098
28239SOL     OW88308   5.160   1.258   6.661 -0.3501  0.7469  0.2497
28239SOL    HW188309   5.150   1.337   6.714 -1.6376  1.1751 -0.5803
28239SOL    HW288310   5.158   1.289   6.571  1.3773 -0.0166 -0.0963
28240SOL     OW88311   1.120   6.010   7.041  0.1503 -0.0477 -0.2855
28240SOL    HW188312   1.114   6.013   6.945 -2.3378 -0.4022 -0.2099
28240SOL    HW288313   1.199   6.058   7.062  0.8825 -0.1757 -2.5382
28241SOL     OW88314   2.385   4.803   0.321  0.1894  0.6653  0.1424
28241SOL    HW188315   2.340   4.719   0.328 -0.1674  0.5042 -2.6007
28241SOL    HW288316   2.472   4.788   0.357 -0.0543 -0.7329  0.2089
28242SOL     OW88317  11.008   2.824   6.999  0.3037 -0.1997  0.4472
28242SOL    HW188318  11.026   2.850   7.089 -0.0455 -0.9885  0.7557
28242SOL    HW288319  11.083   2.770   6.973  0.7454  0.5953  0.0103
28243SOL     OW88320   6.279   9.490   7.945 -0.3679 -0.3194  0.6209
28243SOL    HW188321   6.232   9.435   7.883 -0.7590 -0.8102  1.3334
28243SOL    HW288322   6.214   9.514   8.011 -0.3459  1.5018  0.0224
28244SOL     OW88323   9.039   2.627   1.848 -0.4928 -0.8998  0.1582
28244SOL    HW188324   8.971   2.688   1.877  0.4818  0.6046 -0.6342
28244SOL    HW288325   8.992   2.564   1.793 -1.3242 -0.1248 -0.0451
28245SOL     OW88326   2.259   8.066   6.559  0.1005  0.1787 -0.0886
28245SOL    HW188327   2.199   8.136   6.531  1.2367  1.2385  0.0193
28245SOL    HW288328   2.214   8.024   6.632 -0.4842  0.9928  0.0382
28246SOL     OW88329   9.251  10.690  10.359 -0.6960 -0.5376  0.4419
28246SOL    HW188330   9.171  10.651  10.325 -0.2779 -0.3714 -0.7752
28246SOL    HW288331   9.316  10.620  10.356 -0.7109 -0.5971  1.1770
28247SOL     OW88332   8.309   0.676   0.382 -0.3109  0.2924 -0.2353
28247SOL    HW188333   8.388   0.727   0.395  1.1118 -1.1460 -2.5019
28247SOL    HW288334   8.255   0.728   0.322 -1.0232  1.1404  1.0851
28248SOL     OW88335   7.760   9.319   8.592  0.3053 -0.2428 -0.4156
28248SOL    HW188336   7.799   9.322   8.679  1.4970 -0.0274 -0.9385
28248SOL    HW288337   7.681   9.267   8.603 -0.0416  0.5389  0.9691
28249SOL     OW88338   5.070   9.925   2.825 -0.2678  0.6935 -0.4876
28249SOL    HW188339   5.133   9.898   2.892  1.6764  2.7916 -1.3454
28249SOL    HW288340   5.115   9.909   2.742 -1.7380  0.3000 -1.2535
28250SOL     OW88341   0.982   8.665   3.846 -0.2899 -0.2978  0.7519
28250SOL    HW188342   1.075   8.650   3.862  0.1459  0.7919 -0.5979
28250SOL    HW288343   0.973   8.759   3.836 -1.3444 -0.4784 -0.2687
28251SOL     OW88344   1.499   1.946   8.907 -0.0511 -0.2156  0.0792
28251SOL    HW188345   1.404   1.949   8.898  0.0249  0.1691 -0.7599
28251SOL    HW288346   1.531   1.951   8.817  0.7657 -0.2646  0.3602
28252SOL     OW88347   5.410   0.647   6.660  0.0028  0.6217 -0.3223
28252SOL    HW188348   5.440   0.561   6.690 -0.4451  0.8231  0.7615
28252SOL    HW288349   5.455   0.661   6.577  0.2794 -0.5462 -0.3854
28253SOL     OW88350   0.456   7.844   2.331  0.1388 -0.1460 -0.0281
28253SOL    HW188351   0.443   7.907   2.260 -0.5310  0.5630  0.6979
28253SOL    HW288352   0.375   7.793   2.333 -0.6836  1.1368  1.4613
28254SOL     OW88353   0.144   4.999   3.887 -0.7527  0.2721  0.4741
28254SOL    HW188354   0.097   4.916   3.882 -0.3948  0.1091 -0.3542
28254SOL    HW288355   0.192   5.004   3.805  0.8067  0.3469  1.3534
28255SOL     OW88356   5.625  10.330   0.117 -0.1740  0.4145  0.3124
28255SOL    HW188357   5.594  10.369   0.035 -1.3068 -0.4121  0.3291
28255SOL    HW288358   5.560  10.354   0.182 -1.0255 -1.5907  0.2900
28256SOL     OW88359   7.484   7.255   6.414  0.2929 -0.3640 -0.4892
28256SOL    HW188360   7.452   7.291   6.331  0.4177 -0.3027 -0.5108
28256SOL    HW288361   7.414   7.196   6.443  0.6296 -1.0853 -1.0941
28257SOL     OW88362  10.054   7.665   8.578  0.0181  0.0379 -0.3432
28257SOL    HW188363  10.054   7.622   8.493 -2.6998 -1.2659  0.1955
28257SOL    HW288364   9.973   7.716   8.579  1.4696  2.4782  0.3773
28258SOL     OW88365   0.636   5.624   0.926 -0.4861  0.2332 -0.1449
28258SOL    HW188366   0.708   5.686   0.936 -0.2294  0.0164 -0.5851
28258SOL    HW288367   0.646   5.562   0.998 -1.6093  1.5291  1.1772
28259SOL     OW88368   4.319   9.699   3.281 -0.1894 -0.3201 -0.2399
28259SOL    HW188369   4.406   9.709   3.319 -0.8954  0.9804  1.1597
28259SOL    HW288370   4.329   9.631   3.215  1.9070 -0.1097 -0.2031
28260SOL     OW88371   0.598   6.712  10.671  0.0309  0.0244  0.4277
28260SOL    HW188372   0.586   6.700  10.765 -0.7088 -0.5250  0.2775
28260SOL    HW288373   0.613   6.624  10.637 -1.2538  0.0049 -0.1604
28261SOL     OW88374   0.277   3.999  10.463  0.1384  0.5792 -0.2637
28261SOL    HW188375   0.210   3.940  10.495 -1.3293  1.6190 -1.2647
28261SOL    HW288376   0.254   4.084  10.500  1.3703  0.8167  0.0008
28262SOL     OW88377   9.450   1.559  10.015 -0.2471  0.2243 -0.6585
28262SOL    HW188378   9.469   1.549  10.108 -0.3716  1.1460 -0.5247
28262SOL    HW288379   9.471   1.474   9.977 -0.4084 -0.2328  0.2446
28263SOL     OW88380  10.573  10.833   5.394  0.1371  0.3344  0.4345
28263SOL    HW188381  10.528  10.767   5.341 -0.2048 -0.8240  2.1021
28263SOL    HW288382  10.532  10.916   5.368  0.8563  0.0044 -1.9886
28264SOL     OW88383   3.004  11.097   1.964  0.2280  0.0840 -0.2057
28264SOL    HW188384   3.079  11.156   1.953 -0.3029  1.2188  1.6796
28264SOL    HW288385   2.934  11.138   1.914  1.0074 -1.4327 -2.6949
28265SOL     OW88386   5.800   9.252   0.226  0.1560  0.0148  0.3968
28265SOL    HW188387   5.835   9.189   0.289  0.7565  0.6994  0.7454
28265SOL    HW288388   5.869   9.263   0.161  1.1908  2.4040  1.8150
28266SOL     OW88389   9.059   7.142   3.382 -0.1041 -0.7709 -0.0583
28266SOL    HW188390   9.119   7.216   3.371  0.3668 -0.7964  1.9248
28266SOL    HW288391   8.999   7.171   3.450 -0.2300 -2.0290  0.3787
28267SOL     OW88392   4.899   5.678   9.651  0.8710 -0.4440  0.3316
28267SOL    HW188393   4.922   5.705   9.739  0.8356  0.5206  0.0582
28267SOL    HW288394   4.868   5.588   9.660  2.8220 -1.1074  1.0074
28268SOL     OW88395   9.408   1.576   3.826 -1.1264  0.4176  0.1779
28268SOL    HW188396   9.364   1.577   3.741  0.7129 -0.6874 -0.8610
28268SOL    HW288397   9.369   1.503   3.873 -1.8410  0.7489  0.1027
28269SOL     OW88398   0.399  11.007   1.300  0.0788  0.1511  0.4433
28269SOL    HW188399   0.454  10.934   1.269  1.1804  1.4005 -0.6698
28269SOL    HW288400   0.430  11.023   1.389  0.0221 -0.5459  0.5994
28270SOL     OW88401   3.073  10.424   0.546  0.0424  0.4832 -0.6271
28270SOL    HW188402   3.122  10.343   0.563 -0.1335  0.5150  0.0371
28270SOL    HW288403   3.119  10.464   0.472  0.8016  0.3284 -0.2507
28271SOL     OW88404   8.844   4.052   9.659 -0.4352 -0.4847 -0.2020
28271SOL    HW188405   8.922   4.099   9.688 -1.3012 -0.5668  2.5016
28271SOL    HW288406   8.775   4.118   9.657 -0.8146 -0.8776 -0.2435
28272SOL     OW88407   2.039   0.544  10.300 -0.0780 -0.2069  0.6141
28272SOL    HW188408   1.964   0.545  10.241  0.6873  0.3953 -0.3885
28272SOL    HW288409   2.025   0.619  10.358 -0.5873 -0.5098  0.8918
28273SOL     OW88410   9.514   1.450   5.450  0.4177 -0.7161 -0.2138
28273SOL    HW188411   9.542   1.541   5.444 -3.2069  0.4640 -1.4450
28273SOL    HW288412   9.559   1.406   5.377  1.1352  0.3768 -0.4481
28274SOL     OW88413   3.305   2.137   6.264  0.3342  0.2266  0.2277
28274SOL    HW188414   3.392   2.108   6.293 -0.3610 -1.8369  0.4088
28274SOL    HW288415   3.324   2.195   6.189  1.8731 -0.0344  0.3681
28275SOL     OW88416   5.822   4.782   3.268  0.5835  0.0386 -0.2200
28275SOL    HW188417   5.745   4.742   3.308  0.7085  1.4336  1.5301
28275SOL    HW288418   5.846   4.722   3.197 -0.3716 -1.9374  1.0361
28276SOL     OW88419   5.130   2.627   7.008 -0.2463 -0.5297 -0.0049
28276SOL    HW188420   5.050   2.589   7.044 -1.3143  0.5212 -1.1806
28276SOL    HW288421   5.122   2.615   6.914  0.5199  0.4397 -0.2083
28277SOL     OW88422  10.426   4.276   6.273 -0.4090  0.3344  0.0034
28277SOL    HW188423  10.398   4.185   6.266 -2.0833  0.7816  0.4307
28277SOL    HW288424  10.509   4.280   6.224 -0.8022 -1.1920 -0.8424
28278SOL     OW88425   7.277   3.385  10.315 -0.1781  0.2360 -0.0234
28278SOL    HW188426   7.281   3.339  10.232  3.1065 -1.5101  0.9594
28278SOL    HW288427   7.213   3.336  10.367 -2.3255  1.4005 -1.3951
28279SOL     OW88428   5.760   0.262   8.635 -0.2372  0.1518  0.1556
28279SOL    HW188429   5.711   0.305   8.705 -1.8649 -0.2771 -0.6448
28279SOL    HW288430   5.772   0.172   8.666  0.9329  0.5059  0.7642
28280SOL     OW88431   4.586   5.918   8.267  0.5551 -0.1371 -0.5394
28280SOL    HW188432   4.618   5.841   8.220  1.4721 -0.1345  0.0607
28280SOL    HW288433   4.656   5.982   8.259 -0.4899  0.9179 -1.6481
28281SOL     OW88434   4.480  10.428   6.712  0.2801  0.2755  0.1110
28281SOL    HW188435   4.393  10.453   6.742 -0.0751 -0.9548  0.1658
28281SOL    HW288436   4.540  10.477   6.769 -0.3773  0.9484  0.2274
28282SOL     OW88437   9.260   9.739   1.560 -0.0103  0.0323 -0.4291
28282SOL    HW188438   9.297   9.771   1.642  1.9416  0.4390 -1.4075
28282SOL    HW288439   9.303   9.654   1.546 -2.2674 -1.3069  0.2108
28283SOL     OW88440   1.069   5.190   8.404 -0.4908  0.0127 -0.3674
28283SOL    HW188441   1.037   5.207   8.492 -0.7408 -0.9413 -0.2584
28283SOL    HW288442   1.014   5.118   8.372  2.3164 -2.6651  0.3331
28284SOL     OW88443   9.509   8.051   7.548 -0.0779  0.2262 -0.2569
28284SOL    HW188444   9.523   7.969   7.596  0.6596 -1.0559 -2.5360
28284SOL    HW288445   9.580   8.054   7.484 -0.0882  2.6770 -0.2518
28285SOL     OW88446   6.438   6.048  10.208 -0.3528  0.0684 -0.0790
28285SOL    HW188447   6.385   6.127  10.203  0.0189  0.3905  0.7771
28285SOL    HW288448   6.375   5.976  10.204 -0.6040  0.3425 -2.1514
28286SOL     OW88449  10.515   8.370   2.328 -0.1797  0.1509  0.5225
28286SOL    HW188450  10.563   8.427   2.389 -1.1934  1.5758  0.0231
28286SOL    HW288451  10.430   8.356   2.370 -0.2868 -0.2247  0.1873
28287SOL     OW88452   7.297   9.246  10.534  0.5241  0.1781 -0.2242
28287SOL    HW188453   7.391   9.266  10.543  0.5278 -0.7217  2.7152
28287SOL    HW288454   7.253   9.329  10.556  0.6237  0.3115 -0.5241
28288SOL     OW88455  10.352   9.927   7.906 -0.4488  0.3497  0.5384
28288SOL    HW188456  10.284   9.958   7.967 -1.0031 -0.5800  0.4064
28288SOL    HW288457  10.340   9.832   7.904 -1.1446  0.4226 -1.8400
28289SOL     OW88458  10.581   3.153   6.975  0.2609  0.6623  0.0965
28289SOL    HW188459  10.663   3.110   7.002 -0.4418 -1.2716 -0.6873
28289SOL    HW288460  10.514   3.113   7.031 -0.4770  0.3663 -0.9655
28290SOL     OW88461   9.468   4.465   5.094  0.4551  0.2928  0.2282
28290SOL    HW188462   9.452   4.381   5.137 -0.7977  0.1143 -0.5360
28290SOL    HW288463   9.539   4.446   5.032 -0.5937 -0.5307 -0.7714
28291SOL     OW88464   4.495   2.115   3.118  0.1900 -0.6687  0.1933
28291SOL    HW188465   4.522   2.045   3.058  0.9161 -0.5924  0.4236
28291SOL    HW288466   4.446   2.176   3.063  1.1963 -0.3953 -0.4193
28292SOL     OW88467   4.678   3.440   0.586  0.2987 -0.1112 -0.0219
28292SOL    HW188468   4.727   3.360   0.601 -0.1142 -0.5101 -0.6939
28292SOL    HW288469   4.672   3.446   0.490 -0.8665 -0.0410  0.0352
28293SOL     OW88470   0.374   7.850   8.485  0.8988 -0.4766  0.0377
28293SOL    HW188471   0.467   7.834   8.476  0.9786  0.1588 -0.3431
28293SOL    HW288472   0.334   7.763   8.486  1.6218 -0.8465  1.9031
28294SOL     OW88473   0.746   4.152   8.282  0.1163  0.1430  0.8367
28294SOL    HW188474   0.663   4.112   8.258  0.7461 -0.5004 -0.3949
28294SOL    HW288475   0.788   4.088   8.340 -0.1800  0.4021  1.3394
28295SOL     OW88476   8.526   3.176   1.913 -0.3705  0.5512  0.4820
28295SOL    HW188477   8.620   3.196   1.911 -0.3701  1.0340  3.0332
28295SOL    HW288478   8.495   3.202   1.826  2.1149 -1.2300 -1.1113
28296SOL     OW88479   6.473   1.874   9.188  0.0865 -0.0623 -0.3934
28296SOL    HW188480   6.556   1.873   9.236 -0.1736 -1.2685  0.0629
28296SOL    HW288481   6.498   1.896   9.098  0.9607 -0.8560 -0.3560
28297SOL     OW88482   4.484   7.605   6.749 -0.3109  0.3173  0.3279
28297SOL    HW188483   4.511   7.651   6.669 -0.7702 -0.3002 -0.1892
28297SOL    HW288484   4.423   7.538   6.719 -0.2097 -0.1639  1.1595
28298SOL     OW88485   9.599   8.094   5.773 -0.1616  0.0713 -0.1436
28298SOL    HW188486   9.682   8.055   5.801  0.0920  0.3964 -0.4387
28298SOL    HW288487   9.548   8.102   5.854  0.2400  0.2135  0.1015
28299SOL     OW88488   8.065   8.802   7.178 -0.8999  0.2863  0.6721
28299SOL    HW188489   8.128   8.857   7.133 -0.5193 -2.8121 -3.1490
28299SOL    HW288490   7.980   8.826   7.139 -1.2160  0.3180  1.3597
28300SOL     OW88491   1.744   5.233  10.055 -0.5485 -0.2479  0.0144
28300SOL    HW188492   1.750   5.141  10.029  0.4279 -0.2444  0.1803
28300SOL    HW288493   1.764   5.282   9.974 -0.7823 -0.1865 -0.0067
28301SOL     OW88494  10.065   7.626   2.745  0.0893  0.2188  0.0171
28301SOL    HW188495  10.062   7.721   2.728  0.6952  0.2776  0.2314
28301SOL    HW288496  10.101   7.619   2.833  0.2617 -0.2215 -0.0878
28302SOL     OW88497   9.896   0.706   4.612  0.2812 -0.1473  0.2288
28302SOL    HW188498   9.858   0.657   4.685 -0.4822  0.3973  0.2180
28302SOL    HW288499   9.820   0.744   4.567  0.8528  1.7369  0.7339
28303SOL     OW88500  10.340   0.658   0.284  0.0859 -0.1427  0.2214
28303SOL    HW188501  10.254   0.653   0.241  0.7493  0.2495 -1.2051
28303SOL    HW288502  10.354   0.570   0.320 -0.8729 -0.2281  0.4341
28304SOL     OW88503   3.844   8.351   3.053  0.6740  0.4382  0.3015
28304SOL    HW188504   3.758   8.317   3.077  0.0799  1.1258 -0.7863
28304SOL    HW288505   3.906   8.294   3.100 -0.3567 -0.0503  1.1169
28305SOL     OW88506   4.771   8.095   4.140 -0.0567 -0.4767  0.0265
28305SOL    HW188507   4.730   8.033   4.201 -0.3650  1.1763  1.5773
28305SOL    HW288508   4.698   8.146   4.104  0.3967  1.1713  1.3176
28306SOL     OW88509   2.990   9.283   0.611  0.2561  0.4014  0.0648
28306SOL    HW188510   3.012   9.375   0.625  1.0298 -0.0715  2.3281
28306SOL    HW288511   3.036   9.237   0.680 -1.2843 -1.5511 -0.1490
28307SOL     OW88512   6.321   7.316   9.019 -0.5094 -0.1660  0.1245
28307SOL    HW188513   6.315   7.230   8.978 -1.2628 -0.1657  0.2160
28307SOL    HW288514   6.330   7.297   9.113 -0.2439 -0.1490  0.1029
28308SOL     OW88515   9.498   1.849  10.165  0.5980 -0.0693 -0.7380
28308SOL    HW188516   9.564   1.784  10.189 -1.8288 -2.0301  1.1763
28308SOL    HW288517   9.473   1.890  10.248 -1.5812 -0.4516 -1.1447
28309SOL     OW88518   3.578   9.641   5.352 -0.2882 -0.1109 -0.6218
28309SOL    HW188519   3.530   9.571   5.308 -4.2852  1.7909  0.2057
28309SOL    HW288520   3.568   9.717   5.295  2.2653  0.3524 -0.5707
28310SOL     OW88521   1.589   8.116   0.577  0.1966  0.0451  0.1498
28310SOL    HW188522   1.527   8.070   0.634  0.6095 -0.5067  0.1609
28310SOL    HW288523   1.571   8.083   0.489  1.1366 -0.8806  0.2836
28311SOL     OW88524   6.176   5.654  11.022  0.3050  0.0700 -0.6021
28311SOL    HW188525   6.121   5.633  10.947  0.2598 -0.7400 -0.3467
28311SOL    HW288526   6.264   5.626  10.996 -0.1390 -2.8237  0.6470
28312SOL     OW88527   9.977   3.718   9.417  0.3454 -0.0415 -0.7130
28312SOL    HW188528   9.933   3.791   9.460  0.5907 -0.5028  0.3604
28312SOL    HW288529  10.063   3.714   9.459 -0.5559 -2.5148  1.1334
28313SOL     OW88530   6.864   2.819  10.868 -0.1179 -0.0879  0.6069
28313SOL    HW188531   6.930   2.756  10.897  1.0181  1.5306  1.7430
28313SOL    HW288532   6.907   2.904  10.875 -1.9625  0.9406  0.2589
28314SOL     OW88533   9.834   8.829  10.274  0.2822 -0.5095 -0.3861
28314SOL    HW188534   9.754   8.799  10.230 -1.1937 -0.0637  1.7953
28314SOL    HW288535   9.847   8.765  10.344  1.8346 -0.5206 -0.6545
28315SOL     OW88536   0.555   0.439   9.593  0.4563 -0.3705  0.3169
28315SOL    HW188537   0.511   0.384   9.659 -1.8369  1.3937  0.3870
28315SOL    HW288538   0.509   0.523   9.598  1.4032  0.3903 -2.3115
28316SOL     OW88539   2.289   6.852   6.302 -0.3369 -0.3314 -0.2409
28316SOL    HW188540   2.345   6.820   6.373 -1.3092 -1.9082 -0.1385
28316SOL    HW288541   2.222   6.785   6.292 -1.7848  1.1354 -0.8835
28317SOL     OW88542   6.377   1.371   8.523  0.3008 -0.5635  0.0166
28317SOL    HW188543   6.385   1.354   8.617  1.4528  1.9707  0.4620
28317SOL    HW288544   6.454   1.423   8.501 -1.4398  1.5338 -1.6578
28318SOL     OW88545   9.349   5.988   3.018 -0.3689  0.4764 -0.4361
28318SOL    HW188546   9.345   6.010   2.925 -0.1087  2.2576 -0.0786
28318SOL    HW288547   9.364   6.073   3.061  0.2222 -0.4047  1.1687
28319SOL     OW88548   3.027   0.201   6.887  0.2966  0.3462 -0.6040
28319SOL    HW188549   3.010   0.239   6.973 -1.7587  1.1428 -1.2962
28319SOL    HW288550   2.998   0.110   6.894  0.4617  0.3135 -0.3526
28320SOL     OW88551   9.280   0.296   1.295  0.0147 -0.5366 -0.2620
28320SOL    HW188552   9.324   0.380   1.312  0.4745 -0.1319 -3.0669
28320SOL    HW288553   9.348   0.230   1.312  0.9874 -0.0589 -2.0592
28321SOL     OW88554   4.336   7.248   7.595 -0.1204 -0.1430  0.0976
28321SOL    HW188555   4.359   7.156   7.582  1.9936  0.3000  0.3173
28321SOL    HW288556   4.322   7.256   7.690  0.2235 -0.1286  0.1473
28322SOL     OW88557   0.523   6.742   7.657 -0.5906 -0.6323  0.3549
28322SOL    HW188558   0.537   6.679   7.728 -0.5692 -0.4266  0.5347
28322SOL    HW288559   0.431   6.767   7.666 -0.5959 -0.6283  0.2894
28323SOL     OW88560   5.181   3.642   5.365 -0.0582  0.0142  0.6979
28323SOL    HW188561   5.217   3.619   5.451 -1.1228 -0.9869  0.9017
28323SOL    HW288562   5.258   3.664   5.312  0.8882 -2.0438  1.1152
28324SOL     OW88563   2.825   9.649   7.875  0.3872 -0.4328  0.7862
28324SOL    HW188564   2.859   9.738   7.871  2.2769 -1.1218  0.9267
28324SOL    HW288565   2.792   9.640   7.964  2.2737 -0.5708  1.5102
28325SOL     OW88566   0.341   0.371   7.260  0.7869 -0.6115 -0.4672
28325SOL    HW188567   0.303   0.458   7.251 -0.2595 -1.1352 -1.3974
28325SOL    HW288568   0.307   0.338   7.343  1.8291  0.1421  0.2897
28326SOL     OW88569   1.975   6.693   3.322  0.0312 -0.0163 -0.0861
28326SOL    HW188570   1.972   6.782   3.357  0.9095 -0.3744  0.9548
28326SOL    HW288571   2.051   6.692   3.264  0.2650 -0.1872  0.2182
28327SOL     OW88572  10.527   2.648  10.863 -0.2390  0.1367 -1.4275
28327SOL    HW188573  10.544   2.741  10.845 -0.6342  0.7155  0.8229
28327SOL    HW288574  10.450   2.627  10.811 -0.6898  1.3574 -1.2999
28328SOL     OW88575   3.283   4.701   5.448  0.5073  0.1403  0.1222
28328SOL    HW188576   3.337   4.779   5.456 -0.2202  0.5023  2.3383
28328SOL    HW288577   3.223   4.706   5.523 -1.3139 -1.2067 -1.1597
28329SOL     OW88578   8.738   7.774   4.001  0.5558 -0.5681 -0.0009
28329SOL    HW188579   8.782   7.809   3.924  0.9055 -2.0200 -0.4901
28329SOL    HW288580   8.661   7.830   4.012  1.2247  0.4979 -0.5740
28330SOL     OW88581   6.883   2.926   7.447 -0.6583  0.8591  0.2038
28330SOL    HW188582   6.795   2.892   7.432  1.0990 -3.3844 -1.9777
28330SOL    HW288583   6.906   2.894   7.535 -0.4408 -0.2713 -0.2491
28331SOL     OW88584   2.725   0.048   0.009 -0.1728  0.3261 -0.2388
28331SOL    HW188585   2.758   0.111   0.073  0.6905 -0.5364  0.2056
28331SOL    HW288586   2.789  -0.023   0.011 -0.5119 -0.0447 -1.5561
28332SOL     OW88587   2.670   4.739   0.117  0.0004  0.1310  0.0789
28332SOL    HW188588   2.582   4.722   0.083 -0.3657 -1.6242  1.7528
28332SOL    HW288589   2.727   4.679   0.069  0.0099 -0.0033  0.2595
28333SOL     OW88590   8.053  10.587   0.938  0.2869 -0.2619 -0.4919
28333SOL    HW188591   8.133  10.640   0.933 -0.6974  1.3026 -0.3759
28333SOL    HW288592   8.070  10.513   0.879  2.3248 -0.7129  0.5630
28334SOL     OW88593   7.174   0.417  10.632 -0.2973  0.2965 -0.1303
28334SOL    HW188594   7.248   0.463  10.673 -1.4505  2.8879 -0.7651
28334SOL    HW288595   7.105   0.420  10.698 -0.4005 -0.5551 -0.1950
28335SOL     OW88596   2.104   7.280  10.312  0.8188 -0.0739  0.0222
28335SOL    HW188597   2.187   7.259  10.355  0.2234 -2.5308  0.1213
28335SOL    HW288598   2.129   7.337  10.239  2.3016  0.9609  1.2561
28336SOL     OW88599   5.882   9.482   5.317  0.1576 -0.3249 -0.6661
28336SOL    HW188600   5.971   9.512   5.300 -0.2813  0.9613 -0.8444
28336SOL    HW288601   5.875   9.400   5.268  0.7151  0.4290 -2.0726
28337SOL     OW88602   9.062  10.152   8.599 -0.0703 -0.1030 -0.1596
28337SOL    HW188603   9.118  10.079   8.624 -0.5212 -0.4613 -0.1778
28337SOL    HW288604   9.118  10.209   8.546  0.7495  0.3841  1.1750
28338SOL     OW88605   1.228   0.947   0.292  0.6147 -0.4333  0.4213
28338SOL    HW188606   1.166   0.889   0.248  0.5086  0.4401 -0.6266
28338SOL    HW288607   1.253   0.900   0.372 -1.3370 -0.8294  0.8298
28339SOL     OW88608   2.845   1.245   5.730 -0.2431 -0.0765 -0.3418
28339SOL    HW188609   2.915   1.209   5.676  1.5270  0.0926  1.7414
28339SOL    HW288610   2.796   1.169   5.761  0.8953 -0.4566  0.6091
28340SOL     OW88611   3.416   0.581  10.773 -0.1729  0.1026 -0.6954
28340SOL    HW188612   3.412   0.674  10.754 -1.7932  0.6525  1.8246
28340SOL    HW288613   3.450   0.576  10.862  0.9241 -1.8303 -1.1574
28341SOL     OW88614   9.021  10.415   8.720  0.0316 -0.5991 -0.4478
28341SOL    HW188615   8.929  10.424   8.694  0.2681  2.0665 -0.6295
28341SOL    HW288616   9.047  10.329   8.686 -2.1521 -1.0814 -1.0703
28342SOL     OW88617  10.430   7.709   4.062  0.1740 -0.5785  0.4946
28342SOL    HW188618  10.481   7.640   4.021  0.5061  0.0671 -0.2171
28342SOL    HW288619  10.455   7.707   4.154  0.6198 -1.0142  0.3675
28343SOL     OW88620   3.853   3.188   4.765  0.1089  0.6904 -0.0327
28343SOL    HW188621   3.794   3.184   4.840 -0.0563 -1.2264 -0.2256
28343SOL    HW288622   3.795   3.200   4.690 -0.0324 -0.7889 -0.1803
28344SOL     OW88623   0.762   7.931   2.487 -0.3203 -0.4843  0.3498
28344SOL    HW188624   0.728   7.965   2.570  2.1303  0.1956  1.1691
28344SOL    HW288625   0.767   8.007   2.429  0.0182 -0.5124  0.3363
28345SOL     OW88626   6.937   8.913  10.737  0.1755 -0.1428  0.6229
28345SOL    HW188627   7.032   8.897  10.728  0.8999  2.2144  2.9906
28345SOL    HW288628   6.913   8.960  10.658  1.7510  2.0084  1.3323
28346SOL     OW88629   2.547   3.322   0.451 -0.2403 -0.1597  0.5350
28346SOL    HW188630   2.632   3.302   0.412 -0.6405  0.6249 -0.8003
28346SOL    HW288631   2.527   3.246   0.506  0.9777 -0.6788  0.2888
28347SOL     OW88632   1.125   8.331   6.518 -0.2934  0.0448 -0.0652
28347SOL    HW188633   1.157   8.421   6.521 -0.1752 -0.0134  0.4855
28347SOL    HW288634   1.037   8.338   6.481 -0.4722  0.4388  0.4287
28348SOL     OW88635   2.235   6.021   0.093 -0.8515 -0.1170 -0.1592
28348SOL    HW188636   2.164   6.075   0.059 -1.3534 -0.6454  0.0348
28348SOL    HW288637   2.241   5.948   0.032 -0.0815  0.2234 -0.5000
28349SOL     OW88638   0.854   3.272   7.680  0.5946 -0.4848 -0.3513
28349SOL    HW188639   0.858   3.177   7.685  0.5409 -0.4335  0.8061
28349SOL    HW288640   0.922   3.295   7.617  2.9776 -1.0919  1.8602
28350SOL     OW88641   5.096  10.109   3.944  0.4753  0.2186 -0.2112
28350SOL    HW188642   5.004  10.119   3.922  0.1733  0.5255  1.1032
28350SOL    HW288643   5.121  10.194   3.981  1.5396  0.4403 -1.3727
28351SOL     OW88644   5.534   9.798   6.636 -0.3955  0.4097 -0.3353
28351SOL    HW188645   5.604   9.834   6.582 -0.1605 -0.0670 -0.3478
28351SOL    HW288646   5.572   9.788   6.723 -0.7692  1.1593 -0.0748
28352SOL     OW88647   1.671   3.628   3.060  0.0090  0.3245 -0.0116
28352SOL    HW188648   1.662   3.634   3.155  0.0451  0.9286 -0.0438
28352SOL    HW288649   1.756   3.587   3.046  0.0705  0.3791  0.2089
28353SOL     OW88650  10.378   0.737   3.065 -0.1042  0.0028  0.0544
28353SOL    HW188651  10.361   0.761   3.156  0.9782  0.9320  0.0389
28353SOL    HW288652  10.314   0.669   3.045 -0.8005  0.2728  1.2964
28354SOL     OW88653   9.195   6.995   1.884  0.3232  0.1780 -0.1708
28354SOL    HW188654   9.162   7.084   1.876 -1.2305 -0.2369  1.1333
28354SOL    HW288655   9.218   6.985   1.976  1.5721 -0.4362 -0.5153
28355SOL     OW88656   6.934   1.895   3.870  0.3944  0.2850 -0.2978
28355SOL    HW188657   7.026   1.876   3.890 -0.2132 -2.0517  0.6113
28355SOL    HW288658   6.905   1.951   3.943  0.6031 -0.6100  0.4879
28356SOL     OW88659   1.244   7.306   0.912  0.4480 -0.2551 -0.4883
28356SOL    HW188660   1.215   7.321   0.822 -0.4889  1.6799  0.0602
28356SOL    HW288661   1.163   7.286   0.960  1.1581 -3.2743 -0.3503
28357SOL     OW88662  10.374   4.560   3.826 -0.3203  0.7979  0.2619
28357SOL    HW188663  10.341   4.591   3.910 -1.3386 -0.6198  0.4124
28357SOL    HW288664  10.466   4.539   3.843 -0.5715  0.3130  1.1029
28358SOL     OW88665   6.845   8.810   6.138  0.2382  0.3159  0.6105
28358SOL    HW188666   6.935   8.815   6.170 -0.1559  2.1795  1.5155
28358SOL    HW288667   6.840   8.875   6.068 -0.6091  0.8452  1.1430
28359SOL     OW88668   8.283   5.623   0.921  0.0742  0.1435  0.4993
28359SOL    HW188669   8.314   5.603   0.833  3.1307 -0.1989  1.5047
28359SOL    HW288670   8.205   5.570   0.933 -0.5630  0.4148 -2.0660
28360SOL     OW88671   1.906   1.566   8.453  0.0623  0.6158  0.5099
28360SOL    HW188672   1.935   1.538   8.540  1.8246 -0.6798 -0.4288
28360SOL    HW288673   1.986   1.571   8.401 -1.0511  0.3233 -1.3304
28361SOL     OW88674   5.614   9.640   9.210 -0.0482  0.3187  0.8308
28361SOL    HW188675   5.578   9.584   9.279 -0.4513 -1.0736 -0.4520
28361SOL    HW288676   5.564   9.616   9.131  1.3023  0.8976 -0.2396
28362SOL     OW88677   5.829   7.721   0.783 -0.9179 -0.7858  0.2861
28362SOL    HW188678   5.742   7.693   0.812 -1.4727 -0.3562 -0.9238
28362SOL    HW288679   5.849   7.665   0.708 -0.1985 -0.7962  0.4760
28363SOL     OW88680   9.161   7.522  10.021  0.4325  0.4646 -0.2010
28363SOL    HW188681   9.119   7.552   9.941 -1.3473 -1.7143 -0.1750
28363SOL    HW288682   9.240   7.477   9.992 -0.3447 -0.5535 -0.7984
28364SOL     OW88683   1.407   7.163   9.349  0.2105  0.4145 -0.2878
28364SOL    HW188684   1.500   7.140   9.356  0.5922  2.0269  0.4713
28364SOL    HW288685   1.393   7.176   9.256  0.5869 -0.4272 -0.4731
28365SOL     OW88686   0.561   3.087   5.617  0.4945  0.0011 -0.4279
28365SOL    HW188687   0.496   3.051   5.678  1.4458  1.0178  1.2949
28365SOL    HW288688   0.587   3.013   5.563  0.0440 -1.1298  0.8457
28366SOL     OW88689   3.971   7.055   9.977 -0.2056 -0.7234 -0.4506
28366SOL    HW188690   3.990   7.116   9.905 -1.2112 -0.9250 -0.9073
28366SOL    HW288691   3.882   7.025   9.960  0.6426 -3.1668 -0.8198
28367SOL     OW88692   2.963   9.418   6.011 -0.2480 -0.4242 -0.1991
28367SOL    HW188693   2.885   9.434   6.064 -1.4089 -0.6700 -1.7580
28367SOL    HW288694   2.953   9.328   5.980  1.3031 -0.8974  0.5704
28368SOL     OW88695   7.139   4.248  10.363 -0.4393 -0.3344 -0.3690
28368SOL    HW188696   7.193   4.292  10.297  0.0901 -0.5274 -0.0716
28368SOL    HW288697   7.064   4.306  10.376  0.6690  0.9122  0.6564
28369SOL     OW88698   1.502   4.533   9.593  0.5942  0.2400  0.1122
28369SOL    HW188699   1.535   4.473   9.526  0.5611  1.1722 -0.7589
28369SOL    HW288700   1.454   4.477   9.654  1.8807 -0.8247  0.1695
28370SOL     OW88701   4.633   2.735   6.446  0.0767 -0.7341  0.2335
28370SOL    HW188702   4.549   2.739   6.492 -0.1268  2.2528 -0.2044
28370SOL    HW288703   4.617   2.679   6.370 -2.2884  1.6288 -1.1414
28371SOL     OW88704   7.358   5.636   5.753  0.3207 -0.3911  0.3924
28371SOL    HW188705   7.278   5.611   5.707  0.4756 -1.0848  0.4799
28371SOL    HW288706   7.429   5.602   5.697  0.5093 -1.2977  1.1479
28372SOL     OW88707   4.458  10.688   9.293 -0.6644  0.6496 -0.4657
28372SOL    HW188708   4.484  10.678   9.385  0.3312  1.8020 -0.6033
28372SOL    HW288709   4.367  10.659   9.291 -0.5447  0.1185  0.7856
28373SOL     OW88710  10.940   4.301   9.049 -0.5286  0.3283  0.2878
28373SOL    HW188711  10.993   4.280   9.126  2.2186  1.8239 -1.0135
28373SOL    HW288712  10.916   4.393   9.060  0.1501  0.6502 -0.7012
28374SOL     OW88713   2.110  10.784   3.843 -0.5817 -0.1093  0.1475
28374SOL    HW188714   2.067  10.859   3.803  2.6454  0.8856 -1.7496
28374SOL    HW288715   2.112  10.718   3.774  1.0557 -0.0466  0.1068
28375SOL     OW88716   8.943   3.336   2.251 -1.2106 -0.1875 -0.0551
28375SOL    HW188717   8.870   3.340   2.314 -0.1488  0.0274  1.2001
28375SOL    HW288718   8.948   3.243   2.227 -1.8137 -0.2242 -0.0750
28376SOL     OW88719   6.094   5.732   8.075  0.3349  0.4104 -0.0236
28376SOL    HW188720   6.180   5.774   8.075  0.1571  0.7939  0.8652
28376SOL    HW288721   6.089   5.688   8.160  0.5892 -1.5808 -0.9869
28377SOL     OW88722   6.896  10.478   8.037  0.3451 -0.1760  0.1699
28377SOL    HW188723   6.863  10.444   8.120 -1.6423 -1.0308 -0.9167
28377SOL    HW288724   6.832  10.543   8.010 -0.5060 -1.7618 -1.9194
28378SOL     OW88725   9.529  10.372   8.713 -0.3628  0.1441  0.2319
28378SOL    HW188726   9.613  10.374   8.759  0.1764 -0.2579 -0.6769
28378SOL    HW288727   9.543  10.308   8.643 -1.2656  0.4587 -0.2512
28379SOL     OW88728   2.625   6.214   0.635 -0.1546 -0.1416 -0.2719
28379SOL    HW188729   2.699   6.214   0.575 -0.4948 -0.0368 -0.6990
28379SOL    HW288730   2.554   6.255   0.586 -0.0477  1.2850  0.7041
28380SOL     OW88731  10.843   9.142   0.254 -0.7058 -0.3230  0.1794
28380SOL    HW188732  10.792   9.116   0.330 -3.0999  1.6539 -0.6042
28380SOL    HW288733  10.877   9.228   0.276 -1.0343  0.0675 -0.7651
28381SOL     OW88734   5.135   5.089   2.773 -0.1222 -0.2254  0.0559
28381SOL    HW188735   5.069   5.046   2.719  0.0931 -0.3666 -0.0960
28381SOL    HW288736   5.202   5.023   2.786  0.8341  0.4539 -1.2628
28382SOL     OW88737   5.823   4.614   6.201 -0.9498 -0.2760 -0.5463
28382SOL    HW188738   5.910   4.600   6.239 -0.8349  1.9761  0.2162
28382SOL    HW288739   5.831   4.586   6.110  0.2313 -1.1830 -0.1860
28383SOL     OW88740   9.086   6.693   8.722  0.3150  0.3672  0.4800
28383SOL    HW188741   9.026   6.751   8.769 -0.3919 -0.2684  0.3758
28383SOL    HW288742   9.093   6.732   8.634 -0.1126  0.3288  0.4285
28384SOL     OW88743   8.652  10.975   3.136  0.1740 -0.4488  0.4543
28384SOL    HW188744   8.637  10.961   3.229 -0.4866 -1.3658  0.2198
28384SOL    HW288745   8.591  10.916   3.092  0.3383  0.1122 -0.5649
28385SOL     OW88746   3.505   3.404   9.965 -0.4647  0.3424 -0.1295
28385SOL    HW188747   3.589   3.412   9.920  0.3353 -1.0406  1.0092
28385SOL    HW288748   3.467   3.323   9.932 -0.6444  0.1943  0.4191
28386SOL     OW88749   0.780   5.820   9.212 -0.2249 -0.2380  0.1041
28386SOL    HW188750   0.812   5.871   9.286 -1.7225 -1.1016  1.4141
28386SOL    HW288751   0.809   5.730   9.230 -3.7616 -1.2328  1.7744
28387SOL     OW88752   5.857   5.998   8.606 -0.3153  0.3625  0.1031
28387SOL    HW188753   5.864   5.923   8.666  0.7848  1.4616  1.4082
28387SOL    HW288754   5.913   6.065   8.645 -1.5872  2.0215 -0.8092
28388SOL     OW88755   8.043   1.607   4.177 -0.3086 -0.4914 -0.2528
28388SOL    HW188756   8.051   1.514   4.200  1.9769 -0.3088 -0.0509
28388SOL    HW288757   7.974   1.640   4.234  1.4671 -1.2694  2.5709
28389SOL     OW88758   4.620  11.045   7.504 -0.1240 -0.0166 -0.8219
28389SOL    HW188759   4.668  10.973   7.463 -0.0538  0.0861 -0.9245
28389SOL    HW288760   4.604  11.106   7.432  0.6014  0.4897 -0.5605
28390SOL     OW88761   7.564   9.671   7.286  0.3034 -0.0386  0.1624
28390SOL    HW188762   7.580   9.635   7.199 -0.1219  0.3948 -0.1002
28390SOL    HW288763   7.638   9.731   7.301 -0.3686  0.9959 -0.5185
28391SOL     OW88764   6.914   4.431   0.419  0.0179 -0.5088  0.1002
28391SOL    HW188765   6.905   4.337   0.436 -0.4549 -1.3448 -3.9050
28391SOL    HW288766   6.846   4.451   0.354 -0.0135  2.7032  0.9381
28392SOL     OW88767   1.042   6.727   1.023 -0.1147  0.1266 -0.1599
28392SOL    HW188768   1.081   6.656   1.074  0.4853  0.0298 -0.7297
28392SOL    HW288769   1.049   6.804   1.078 -1.0807 -0.3131  0.6074
28393SOL     OW88770   7.587  10.743   3.836 -0.1587  0.1977  0.3293
28393SOL    HW188771   7.575  10.781   3.748  1.7889 -1.9645 -0.9867
28393SOL    HW288772   7.510  10.772   3.885 -2.3175  0.0122 -2.6514
28394SOL     OW88773   9.851   7.930   7.496 -0.6201 -0.6888  0.1830
28394SOL    HW188774   9.895   8.012   7.474 -1.1406 -0.9008 -1.9066
28394SOL    HW288775   9.889   7.903   7.579  0.4391  1.0425  0.3013
28395SOL     OW88776  10.406   7.806   7.654 -0.0364  0.4610 -0.5440
28395SOL    HW188777  10.347   7.853   7.713 -0.2847  0.3072 -0.6629
28395SOL    HW288778  10.469   7.764   7.712  1.1989  2.2698 -0.5307
28396SOL     OW88779   7.922   1.238   5.241  0.4494  0.2221 -0.4318
28396SOL    HW188780   7.830   1.212   5.231  0.4603  0.6234 -1.6493
28396SOL    HW288781   7.971   1.169   5.196  0.5843  1.2942 -1.9941
28397SOL     OW88782   9.173   1.430   0.575 -0.6502  0.4356  0.7074
28397SOL    HW188783   9.195   1.495   0.641 -2.3363 -0.0294  1.7985
28397SOL    HW288784   9.121   1.365   0.621  1.0659 -1.8042 -0.3309
28398SOL     OW88785   3.816   7.819   5.495 -0.1849  0.0753 -0.7855
28398SOL    HW188786   3.786   7.797   5.584  3.4686  0.6835  0.7948
28398SOL    HW288787   3.829   7.913   5.497 -0.7766  0.2135 -2.3013
28399SOL     OW88788  10.462   8.781   3.850  0.0458  0.4030  0.0683
28399SOL    HW188789  10.407   8.768   3.927 -0.4026  0.1530 -0.2862
28399SOL    HW288790  10.487   8.692   3.824 -0.7965  0.3940 -0.7751
28400SOL     OW88791  10.694   1.868   6.301  0.1536 -0.0610  0.3717
28400SOL    HW188792  10.687   1.886   6.395  0.9601 -0.8778  0.6077
28400SOL    HW288793  10.716   1.952   6.262 -0.1423  0.2780  0.9191
28401SOL     OW88794   6.659   3.998   7.160  0.3199 -0.4993 -0.7093
28401SOL    HW188795   6.617   3.919   7.192  0.1014  0.0350  0.3587
28401SOL    HW288796   6.614   4.070   7.205  0.1001  0.2840 -2.1088
28402SOL     OW88797   8.615   0.239   2.547 -0.0051  0.2958 -0.5102
28402SOL    HW188798   8.706   0.232   2.518 -0.4607  0.5486 -2.0960
28402SOL    HW288799   8.577   0.307   2.491 -1.4831 -0.6552 -0.7085
28403SOL     OW88800   6.996   1.279  10.556 -0.7138 -0.7218  0.0173
28403SOL    HW188801   6.904   1.290  10.579 -0.7412  0.2290 -0.5201
28403SOL    HW288802   7.041   1.276  10.641 -1.0399  0.6737  0.2584
28404SOL     OW88803   4.348   1.315   5.717 -0.4054 -0.0574  0.2409
28404SOL    HW188804   4.293   1.338   5.792 -0.8485  0.0284 -0.1017
28404SOL    HW288805   4.368   1.222   5.730  3.1911  0.8864  2.7706
28405SOL     OW88806   4.375   2.843   8.582  0.3602  0.2250  0.0046
28405SOL    HW188807   4.366   2.847   8.678 -1.4676 -1.2250 -0.0499
28405SOL    HW288808   4.448   2.782   8.568  0.8311  0.6743  0.4667
28406SOL     OW88809  10.720   7.335   3.584  0.3312  0.3740 -0.9665
28406SOL    HW188810  10.780   7.335   3.509  1.4984  0.7341 -0.0691
28406SOL    HW288811  10.739   7.416   3.631 -1.2631  0.7644 -0.9428
28407SOL     OW88812   0.862   1.990   9.707 -0.2716 -0.0585 -0.5257
28407SOL    HW188813   0.942   2.002   9.758  0.0551  0.1219 -1.0765
28407SOL    HW288814   0.890   1.995   9.616 -0.7225 -1.2014 -0.7447
28408SOL     OW88815   1.653   4.689   5.806 -0.0004  0.6389 -0.2355
28408SOL    HW188816   1.697   4.604   5.806 -1.6944 -0.2983  0.7493
28408SOL    HW288817   1.681   4.730   5.724  3.0612  0.3786  0.5648
28409SOL     OW88818   7.048   3.800   4.341  0.1817  0.2572  0.3129
28409SOL    HW188819   7.069   3.714   4.377 -2.9978 -0.2811  1.1692
28409SOL    HW288820   7.073   3.862   4.409 -1.7491 -0.4162  1.7019
28410SOL     OW88821   8.348   9.463   8.852 -0.1261  0.0148  0.1859
28410SOL    HW188822   8.314   9.399   8.789  0.9569  1.4702 -1.9725
28410SOL    HW288823   8.290   9.453   8.928 -0.1208 -3.3737 -0.0856
28411SOL     OW88824   2.685  10.293   7.973 -0.2727 -0.8105  0.3046
28411SOL    HW188825   2.596  10.273   7.945 -0.0667 -0.7601 -0.4081
28411SOL    HW288826   2.736  10.298   7.891 -0.1344  1.7945  0.4712
28412SOL     OW88827   4.943  10.428  10.769 -0.0117 -0.6122 -0.0240
28412SOL    HW188828   4.939  10.475  10.686  0.6411  0.2368  0.4104
28412SOL    HW288829   4.869  10.460  10.819  0.1602 -0.3935  0.0917
28413SOL     OW88830   4.112  10.617   5.235  0.6411 -0.9468 -0.8148
28413SOL    HW188831   4.158  10.604   5.317 -0.0608  1.5938  0.0999
28413SOL    HW288832   4.147  10.699   5.201  0.8297 -1.8768 -3.0272
28414SOL     OW88833   1.437   2.751   8.810  0.4902 -0.2797  0.1498
28414SOL    HW188834   1.461   2.791   8.727  0.0989 -0.7359 -0.1932
28414SOL    HW288835   1.358   2.798   8.838  1.2489  0.6121  0.8207
28415SOL     OW88836   3.045   2.504   5.866 -0.0855 -0.2431 -0.3195
28415SOL    HW188837   3.079   2.434   5.921  0.8206  0.8336  0.5186
28415SOL    HW288838   3.007   2.567   5.927  1.0835  1.0532 -0.8713
28416SOL     OW88839   1.312   0.011   3.058  0.0912  0.3757  0.0798
28416SOL    HW188840   1.253   0.016   3.134  2.3519 -1.0083  2.0613
28416SOL    HW288841   1.356   0.096   3.056 -0.9701  0.9267 -0.5892
28417SOL     OW88842   5.971   0.810   3.409  0.7361 -0.1744 -0.4094
28417SOL    HW188843   6.003   0.872   3.474 -2.5385  1.2990 -0.0026
28417SOL    HW288844   6.032   0.819   3.336  0.7782  3.1074 -0.1254
28418SOL     OW88845   2.716   3.386   1.382  0.3099 -0.0698 -0.0224
28418SOL    HW188846   2.628   3.380   1.420  0.3653  0.3140  0.1737
28418SOL    HW288847   2.725   3.478   1.358  1.0180  0.1026  0.8371
28419SOL     OW88848   2.558   0.909   7.914  0.6237 -0.0747 -0.2752
28419SOL    HW188849   2.512   0.985   7.879  0.6267  0.8522  1.5890
28419SOL    HW288850   2.633   0.946   7.960 -1.0893 -0.8025  3.4713
28420SOL     OW88851   3.048   8.594   0.506  0.2030 -0.0367  0.2125
28420SOL    HW188852   3.128   8.597   0.454 -0.3395  2.7906 -0.6819
28420SOL    HW288853   2.991   8.659   0.464 -0.9529  1.0857  3.2844
28421SOL     OW88854   6.863   6.146   5.592  0.6405  0.3426  0.2929
28421SOL    HW188855   6.830   6.226   5.550 -0.5345 -0.0145  0.5036
28421SOL    HW288856   6.957   6.161   5.601  0.4367  1.7092  0.3496
28422SOL     OW88857   4.917   1.418   9.915  0.1739  0.3444  0.5950
28422SOL    HW188858   4.919   1.344   9.977  2.2039  2.3294  3.1385
28422SOL    HW288859   5.003   1.416   9.873  0.6304  1.7713  1.4145
28423SOL     OW88860   8.255   9.310   9.969  0.2415 -0.6802  0.3184
28423SOL    HW188861   8.339   9.281  10.004 -0.4779 -1.5236  1.4384
28423SOL    HW288862   8.193   9.243   9.998 -0.4630 -1.4024 -2.5362
28424SOL     OW88863   7.448   7.560   4.213 -0.2648 -0.1781  0.0398
28424SOL    HW188864   7.392   7.483   4.211  1.9113 -1.8609 -2.1176
28424SOL    HW288865   7.472   7.570   4.306 -3.0246 -0.1023  0.8290
28425SOL     OW88866   6.157   8.766   3.945  0.3690 -0.4073  0.0831
28425SOL    HW188867   6.170   8.729   4.032  0.7483  0.8534  0.5874
28425SOL    HW288868   6.138   8.858   3.960 -0.3156 -0.3207 -1.1398
28426SOL     OW88869  10.041   4.157  10.144  0.2489  0.4000  0.5089
28426SOL    HW188870  10.103   4.117  10.083  0.4514  1.5568 -0.0575
28426SOL    HW288871  10.061   4.250  10.142 -1.7352  0.8659  0.0502
28427SOL     OW88872   3.337  11.082   5.144 -0.5383  0.0849  0.2879
28427SOL    HW188873   3.376  11.042   5.066 -0.9175  0.3600 -0.0492
28427SOL    HW288874   3.345  11.015   5.211 -0.3700 -0.2294 -0.0394
28428SOL     OW88875   0.067  10.759   3.778 -0.0183  0.0275  0.2882
28428SOL    HW188876   0.080  10.681   3.832 -0.7585  1.0839  2.1147
28428SOL    HW288877   0.155  10.793   3.763  0.1683  1.0787  3.0855
28429SOL     OW88878   0.674   0.138   9.235  0.2899  0.3890  0.1633
28429SOL    HW188879   0.691   0.172   9.147  3.9240 -0.4753  0.4016
28429SOL    HW288880   0.677   0.216   9.291 -0.9252  0.7910 -0.2811
28430SOL     OW88881   9.551   5.559   9.132 -0.4700 -0.4748  0.5046
28430SOL    HW188882   9.601   5.480   9.152 -3.0535 -2.5804 -0.6056
28430SOL    HW288883   9.554   5.611   9.212  1.4449 -1.5834  1.2284
28431SOL     OW88884   6.287   1.105   0.155 -0.2638  0.0248 -0.2149
28431SOL    HW188885   6.212   1.160   0.180  1.0720  0.6525  2.8438
28431SOL    HW288886   6.296   1.118   0.061 -0.0042  5.2263  0.2690
28432SOL     OW88887   9.868   5.845   4.296  0.4428  0.3634 -0.2378
28432SOL    HW188888   9.937   5.866   4.233  1.7301 -1.8811  0.2944
28432SOL    HW288889   9.881   5.906   4.368  1.9343 -0.0481 -0.1367
28433SOL     OW88890   7.298   7.385   7.507  0.0041 -0.4811 -0.3304
28433SOL    HW188891   7.335   7.305   7.544  0.5072  0.8501  2.2491
28433SOL    HW288892   7.203   7.372   7.511  0.0510 -0.4350  1.3716
28434SOL     OW88893  10.721   9.411   9.030  0.1488  0.2971 -0.1987
28434SOL    HW188894  10.709   9.384   9.121  2.6700 -0.1149  0.0731
28434SOL    HW288895  10.665   9.489   9.020 -0.5041  0.0881  1.5492
28435SOL     OW88896   1.666   6.000   7.844 -0.0172  0.3052 -0.5184
28435SOL    HW188897   1.727   6.073   7.831 -0.8508  0.8738 -1.3842
28435SOL    HW288898   1.638   5.976   7.756 -0.7711 -0.1716 -0.1549
28436SOL     OW88899   8.651   2.143   9.006 -0.5293  0.2782 -0.2573
28436SOL    HW188900   8.685   2.119   9.092 -1.4928  0.2766  0.1300
28436SOL    HW288901   8.714   2.105   8.944  0.9420  1.4849  0.4521
28437SOL     OW88902   9.389   6.463   2.049  0.4825  0.9880  0.4923
28437SOL    HW188903   9.391   6.559   2.055  1.2601  0.9392  1.1577
28437SOL    HW288904   9.481   6.438   2.040  0.2446  0.3220 -0.2487
28438SOL     OW88905   3.327   3.578   6.318  0.0554 -0.4915 -0.2534
28438SOL    HW188906   3.357   3.508   6.376 -0.0842 -0.7584 -0.4982
28438SOL    HW288907   3.235   3.589   6.339  0.9420  2.6630  2.9204
28439SOL     OW88908   7.512   8.314   0.785 -0.2036  0.1025  0.2060
28439SOL    HW188909   7.520   8.219   0.794 -0.8553 -0.0890 -1.0283
28439SOL    HW288910   7.547   8.349   0.867 -0.3676 -1.2180  0.8633
28440SOL     OW88911   8.209   5.502   3.770  0.0773 -0.0086 -0.2546
28440SOL    HW188912   8.128   5.535   3.733 -0.1624  0.1576  0.4013
28440SOL    HW288913   8.237   5.433   3.710 -0.5211 -0.0322 -0.5101
28441SOL     OW88914   9.610   8.648   4.054 -0.1274 -0.0960 -0.2804
28441SOL    HW188915   9.597   8.724   4.111  0.1344  0.6962 -1.2318
28441SOL    HW288916   9.654   8.684   3.976 -0.3961 -1.1473 -0.9427
28442SOL     OW88917   6.292   1.889   6.485 -0.0977  0.2402  0.0529
28442SOL    HW188918   6.198   1.904   6.493 -0.4633 -0.6855 -1.8387
28442SOL    HW288919   6.302   1.794   6.485  0.7024  0.2996 -0.7985
28443SOL     OW88920   1.935   2.429   5.247 -0.4303 -0.1378 -0.6784
28443SOL    HW188921   1.923   2.383   5.163 -1.1769  2.8575 -2.3564
28443SOL    HW288922   2.026   2.458   5.246 -0.8057  1.1111 -1.1985
28444SOL     OW88923   6.650   6.626  10.237  0.4907  0.4809 -0.1280
28444SOL    HW188924   6.586   6.617  10.307 -0.0812  0.6810 -0.6163
28444SOL    HW288925   6.711   6.553  10.251  0.1218  0.2479  0.3033
28445SOL     OW88926   7.888   7.972  10.760  0.3151 -0.1968 -0.2764
28445SOL    HW188927   7.891   8.059  10.719 -0.7632  1.3269  2.6292
28445SOL    HW288928   7.795   7.954  10.772  0.5686 -0.5729  1.3948
28446SOL     OW88929   1.522   1.303   1.898  0.5635  0.2038 -0.0626
28446SOL    HW188930   1.599   1.252   1.874 -0.1747 -1.9207  1.7356
28446SOL    HW288931   1.458   1.282   1.830  0.4394 -0.9137  0.3782
28447SOL     OW88932   4.146  10.715   7.222 -0.6270  0.1550 -0.1032
28447SOL    HW188933   4.216  10.780   7.212  1.2495 -1.3959  1.7669
28447SOL    HW288934   4.186  10.633   7.194 -0.3211 -1.4317  4.2119
28448SOL     OW88935   2.695   9.398   9.307  0.2860 -0.3280  0.5911
28448SOL    HW188936   2.647   9.336   9.361  0.3137 -0.6255  0.2774
28448SOL    HW288937   2.629   9.460   9.275 -0.5205 -2.4906 -2.3726
28449SOL     OW88938  10.027   1.568   3.009 -0.0162  0.0180  0.5248
28449SOL    HW188939   9.936   1.588   3.030  0.3648 -0.2108  2.5247
28449SOL    HW288940  10.028   1.561   2.913 -1.9898  0.4882  0.4287
28450SOL     OW88941   2.256   7.729   3.745  0.1844  0.1461 -0.2882
28450SOL    HW188942   2.207   7.781   3.681  2.3139  1.2297 -1.1447
28450SOL    HW288943   2.284   7.652   3.696 -0.5430 -0.4353  0.1797
28451SOL     OW88944   5.593  10.918   6.912 -0.0443  0.1405  0.3237
28451SOL    HW188945   5.571  10.957   6.827 -0.3083  0.3784  0.4984
28451SOL    HW288946   5.509  10.883   6.944  0.0924 -0.1226  0.3983
28452SOL     OW88947   8.192  10.192   0.822 -0.4646  0.2331 -0.1281
28452SOL    HW188948   8.234  10.118   0.778  0.1742 -0.7639  2.0188
28452SOL    HW288949   8.138  10.232   0.755  0.6003 -1.0659 -1.8487
28453SOL     OW88950   9.166   1.130   9.637  0.0205 -0.1518 -0.2780
28453SOL    HW188951   9.193   1.187   9.565 -1.1598  1.2778  0.3560
28453SOL    HW288952   9.243   1.074   9.653  1.0604  0.9304 -1.2454
28454SOL     OW88953   6.003   2.447   1.877  0.4215 -0.1698  0.5607
28454SOL    HW188954   6.027   2.519   1.935 -2.1859  1.5334 -0.3166
28454SOL    HW288955   5.941   2.395   1.929 -2.1963  1.5525 -0.6102
28455SOL     OW88956   8.485   1.458   8.556 -0.2375  0.2955  0.0839
28455SOL    HW188957   8.508   1.512   8.480 -0.4346  2.4637  1.4658
28455SOL    HW288958   8.568   1.420   8.584 -0.2709 -1.1231 -1.5801
28456SOL     OW88959   5.728   7.570   1.921  0.0380  0.2762 -0.3772
28456SOL    HW188960   5.751   7.536   2.007 -0.1500  0.2511 -0.3361
28456SOL    HW288961   5.639   7.602   1.931  0.3509  1.1444 -0.3119
28457SOL     OW88962   4.750   0.370   8.534 -0.3014 -0.6068 -0.0532
28457SOL    HW188963   4.660   0.337   8.533 -0.2576 -0.7930  0.9400
28457SOL    HW288964   4.740   0.465   8.538 -0.4300 -0.4969 -2.1156
28458SOL     OW88965   6.535   6.575   4.561  0.2215 -0.0537  0.3873
28458SOL    HW188966   6.456   6.548   4.609 -0.0209  1.2507  0.7673
28458SOL    HW288967   6.506   6.586   4.471 -0.4205  1.8069  0.7711
28459SOL     OW88968   3.805   7.927   9.795 -0.1898 -0.2903 -0.1341
28459SOL    HW188969   3.829   7.991   9.862 -0.6677 -0.8698  0.6098
28459SOL    HW288970   3.872   7.859   9.803 -0.1927 -0.3120 -0.3061
28460SOL     OW88971   5.698  10.579   4.638  0.7744  0.4350  0.5004
28460SOL    HW188972   5.752  10.515   4.683 -1.6558 -1.1056  1.3826
28460SOL    HW288973   5.693  10.653   4.698  2.4157  0.9204  0.0928
28461SOL     OW88974   9.025  10.101   5.448  0.4441  0.1509  0.2026
28461SOL    HW188975   8.971  10.177   5.426  0.2827  0.4942  1.6608
28461SOL    HW288976   8.969  10.026   5.429 -1.0619  0.5147  2.7122
28462SOL     OW88977   2.144   5.759   0.225  0.7020  0.4137 -0.1949
28462SOL    HW188978   2.214   5.702   0.191 -0.3605 -0.9481 -0.1942
28462SOL    HW288979   2.082   5.766   0.153  0.3904  0.8591  0.1122
28463SOL     OW88980   6.894   9.642   0.127  0.0566 -0.3444 -0.6525
28463SOL    HW188981   6.881   9.731   0.095  1.5988 -0.0445 -0.5133
28463SOL    HW288982   6.891   9.588   0.047  0.9697  0.0553 -0.9638
28464SOL     OW88983   4.761   7.458   2.473 -0.0302  0.2207  0.0087
28464SOL    HW188984   4.682   7.405   2.469 -0.3416  0.5722  1.0168
28464SOL    HW288985   4.831   7.396   2.493 -0.6656  0.3424  3.0626
28465SOL     OW88986   0.335   9.675   8.300  0.0337  0.7748  0.9258
28465SOL    HW188987   0.428   9.690   8.319 -0.3303  0.2944  3.3891
28465SOL    HW288988   0.327   9.579   8.295 -0.1325  0.8347 -0.7327
28466SOL     OW88989   8.368   4.623   2.189  0.4193 -0.5470 -0.2399
28466SOL    HW188990   8.356   4.582   2.104  0.1818 -1.3485  0.1676
28466SOL    HW288991   8.325   4.708   2.181 -2.7644 -1.9652  0.1030
28467SOL     OW88992   3.111   6.405   7.304  0.1222  0.4974 -0.8518
28467SOL    HW188993   3.206   6.402   7.305  0.1622  1.2705 -1.5587
28467SOL    HW288994   3.088   6.469   7.372  0.1405  0.8242 -1.1492
28468SOL     OW88995   3.367   8.563   4.720 -0.3541  0.1985  0.7605
28468SOL    HW188996   3.337   8.564   4.629  0.6362 -0.2468  0.4170
28468SOL    HW288997   3.381   8.470   4.739  2.2019  0.4477  0.4115
28469SOL     OW88998   0.870  10.104   2.304  0.3249  0.0924 -0.6737
28469SOL    HW188999   0.831  10.064   2.381  0.9475  0.3541 -0.2164
28469SOL    HW289000   0.901  10.189   2.334  0.9044  0.0431 -1.1147
28470SOL     OW89001   7.957   4.824   5.139 -0.2437  0.0217 -0.4420
28470SOL    HW189002   7.928   4.883   5.208 -0.3783 -0.8436  0.2606
28470SOL    HW289003   8.017   4.876   5.086  1.6985  0.0457  1.6730
28471SOL     OW89004   9.045   4.402   2.777  0.1230  0.4902 -0.5838
28471SOL    HW189005   9.076   4.397   2.687  0.3935  0.2007 -0.4773
28471SOL    HW289006   8.950   4.403   2.770  0.0945 -1.2854 -0.8104
28472SOL     OW89007   1.940   7.409   9.708 -0.1666  0.2235 -0.0052
28472SOL    HW189008   1.927   7.436   9.617 -0.0607  0.6846  0.1132
28472SOL    HW289009   2.027   7.371   9.710  0.2883  1.2475  0.1331
28473SOL     OW89010   2.608   1.749   7.138  0.0444  0.1789  0.3292
28473SOL    HW189011   2.610   1.742   7.043  1.4966  0.4140  0.3215
28473SOL    HW289012   2.661   1.676   7.169 -1.5541 -0.7254  1.0379
28474SOL     OW89013   0.243   0.262   6.239 -0.2216 -0.0510  0.0449
28474SOL    HW189014   0.265   0.172   6.260  1.9640  0.2654 -0.6608
28474SOL    HW289015   0.258   0.270   6.145  1.0249  1.3617  0.3097
28475SOL     OW89016   8.525   0.947   7.415 -0.2946 -0.2513 -0.7257
28475SOL    HW189017   8.462   0.878   7.394  0.0335 -0.8904  0.3105
28475SOL    HW289018   8.605   0.921   7.370 -0.1630 -0.5799 -0.3130
28476SOL     OW89019   4.491   8.829   1.614  0.1725  0.7313  0.4893
28476SOL    HW189020   4.481   8.923   1.600 -0.2881  0.6273  0.0772
28476SOL    HW289021   4.553   8.822   1.687  0.5297  1.3426  0.2554
28477SOL     OW89022   3.303   8.918  11.100 -0.4538 -0.2377 -0.1344
28477SOL    HW189023   3.360   8.900  11.025 -1.2601 -0.1683 -0.7764
28477SOL    HW289024   3.354   8.977  11.155  0.3502 -0.6959 -0.3663
28478SOL     OW89025   1.648   7.924   6.703  0.2410  0.9982  0.0675
28478SOL    HW189026   1.677   8.015   6.710  1.1573  0.7525 -0.3403
28478SOL    HW289027   1.701   7.887   6.632 -0.1241  0.1503  0.2164
28479SOL     OW89028   2.816   1.879   1.935  0.1450 -0.1810  0.7361
28479SOL    HW189029   2.780   1.856   1.849 -0.1752 -2.2223  1.3726
28479SOL    HW289030   2.873   1.806   1.958  1.9373  1.3254  1.3589
28480SOL     OW89031   4.599   0.426   7.480  0.4476  0.4403 -0.0752
28480SOL    HW189032   4.569   0.391   7.396 -0.6099 -0.8361  0.7909
28480SOL    HW289033   4.519   0.444   7.529  1.0366 -0.2799  1.2192
28481SOL     OW89034   6.010   3.063   5.804  0.2212  0.3536 -0.3215
28481SOL    HW189035   6.089   3.064   5.857  2.7623 -1.3643 -3.6538
28481SOL    HW289036   6.006   3.150   5.764  0.8522  0.2548 -0.6173
28482SOL     OW89037   3.431   3.026   9.544  0.0473  0.2619 -0.4745
28482SOL    HW189038   3.419   3.025   9.639  0.5737  0.6738 -0.4006
28482SOL    HW289039   3.491   3.099   9.528  0.2678 -0.0462 -1.0871
28483SOL     OW89040   0.905   3.381   9.526  0.2783  0.3055  0.5716
28483SOL    HW189041   0.990   3.359   9.487  1.0695  1.7907  1.3668
28483SOL    HW289042   0.843   3.320   9.485  1.5546 -0.1455 -0.7746
28484SOL     OW89043   8.837   6.999  11.102 -0.6280 -0.0249 -0.2912
28484SOL    HW189044   8.813   7.079  11.056 -0.6011  0.4465  0.5003
28484SOL    HW289045   8.779   6.932  11.066 -0.2083  0.2000 -1.4320
28485SOL     OW89046   8.725   1.717   9.164 -0.1817 -0.0507 -0.4131
28485SOL    HW189047   8.729   1.729   9.259  1.5776  2.5472 -0.6964
28485SOL    HW289048   8.739   1.805   9.128 -1.6630 -0.7904 -3.1111
28486SOL     OW89049   9.195   9.178   7.799 -0.2692  0.2387  0.4217
28486SOL    HW189050   9.285   9.147   7.810  1.3202  3.8251 -0.8992
28486SOL    HW289051   9.159   9.122   7.731  1.2303 -0.7667  0.3980
28487SOL     OW89052   5.444   7.644   6.880 -0.0702 -0.4106  0.2544
28487SOL    HW189053   5.467   7.572   6.939 -0.4018 -0.8425 -0.1396
28487SOL    HW289054   5.349   7.647   6.882 -0.1060 -0.7140 -0.5957
28488SOL     OW89055   7.585   2.370   6.921  0.1722 -0.1846 -0.0246
28488SOL    HW189056   7.496   2.388   6.893  0.4281 -1.1725 -1.5349
28488SOL    HW289057   7.640   2.425   6.865  0.6073 -0.9220 -0.3343
28489SOL     OW89058   6.168   1.513  10.535  0.6114  0.6169 -0.2292
28489SOL    HW189059   6.143   1.441  10.478  0.3439  0.2551  0.3320
28489SOL    HW289060   6.206   1.579  10.477  1.6894 -0.3425 -0.6435
28490SOL     OW89061   7.988   5.284   1.013  0.4380  0.3332 -0.3263
28490SOL    HW189062   7.978   5.364   0.962 -0.5043 -0.4032 -1.3338
28490SOL    HW289063   7.906   5.276   1.062  1.3187  1.0236  1.3479
28491SOL     OW89064   4.683   8.469   5.179  0.9631  1.4821 -0.4140
28491SOL    HW189065   4.662   8.533   5.111  0.7099  2.1521  0.2808
28491SOL    HW289066   4.670   8.384   5.137 -1.4279  1.8554 -0.5533
28492SOL     OW89067   6.779   1.835   1.820 -0.6299  0.4496  0.3059
28492SOL    HW189068   6.778   1.894   1.745  1.3137 -0.5142 -0.5264
28492SOL    HW289069   6.869   1.834   1.850 -0.9424 -0.8520  1.3167
28493SOL     OW89070   7.320   1.992   9.950 -0.2868  0.1267  0.3222
28493SOL    HW189071   7.370   1.953  10.021 -0.0662 -1.6900 -0.7615
28493SOL    HW289072   7.364   2.075   9.933  1.7192 -0.8939  0.1508
28494SOL     OW89073  10.178   9.261   4.124 -0.7298 -0.4702  0.2933
28494SOL    HW189074  10.101   9.229   4.078 -0.3741 -0.4836 -0.3108
28494SOL    HW289075  10.167   9.356   4.126 -0.9357 -0.4989  0.5323
28495SOL     OW89076   0.726   8.277   9.877 -0.4354  0.1662 -0.2400
28495SOL    HW189077   0.756   8.325   9.800 -1.3449  1.3819  0.1482
28495SOL    HW289078   0.806   8.238   9.913  0.1376  0.3691 -1.2533
28496SOL     OW89079   1.526   2.748   5.158  0.3548  1.2784 -0.6228
28496SOL    HW189080   1.534   2.653   5.149 -1.3380  1.0849 -0.4649
28496SOL    HW289081   1.582   2.783   5.089  2.2232  0.2440  0.2608
28497SOL     OW89082   2.184  10.207   1.845  0.3902  0.3137 -0.1568
28497SOL    HW189083   2.212  10.222   1.755  0.4478  2.1508  0.1327
28497SOL    HW289084   2.104  10.156   1.837  0.9927 -0.5215 -1.1802
28498SOL     OW89085   5.799   4.395   7.861  0.1380 -0.1228 -0.2058
28498SOL    HW189086   5.711   4.389   7.898 -0.2362  0.9778 -0.8850
28498SOL    HW289087   5.814   4.310   7.821 -0.6834 -0.2580 -0.2404
28499SOL     OW89088   5.561   7.737   8.128 -0.0048  0.2469 -0.4720
28499SOL    HW189089   5.506   7.784   8.191 -1.2834 -0.2858 -1.1612
28499SOL    HW289090   5.650   7.765   8.149 -0.4660  0.7009  1.0453
28500SOL     OW89091   6.689  10.433  10.078  0.1174 -0.2176 -0.2640
28500SOL    HW189092   6.769  10.387  10.102  0.4236  0.5644  0.2707
28500SOL    HW289093   6.649  10.379  10.010  0.0745 -1.6580  0.8537
28501SOL     OW89094   9.511   1.192   7.977 -0.1097  0.0744  0.0671
28501SOL    HW189095   9.594   1.176   8.023  0.3172  2.4762  0.2945
28501SOL    HW289096   9.483   1.278   8.009 -1.6533  0.2174 -1.5383
28502SOL     OW89097   2.808   7.020   8.264 -0.2989 -0.1889  0.1815
28502SOL    HW189098   2.883   6.981   8.219 -1.8786 -2.9165 -0.3356
28502SOL    HW289099   2.828   7.010   8.357  0.6245  0.5609  0.0814
28503SOL     OW89100   5.826   3.779   0.499  0.1833 -0.1318  0.0909
28503SOL    HW189101   5.823   3.841   0.572  0.0471  0.2971 -0.2784
28503SOL    HW289102   5.768   3.815   0.433  0.5295 -0.3675 -0.3539
28504SOL     OW89103  10.363   4.328   0.642 -0.1589 -0.4920 -0.0415
28504SOL    HW189104  10.426   4.256   0.638 -1.0846 -1.2488 -1.6724
28504SOL    HW289105  10.416   4.404   0.668  1.0664 -1.4729  0.4434
28505SOL     OW89106   6.883   9.745   0.719 -0.0747  0.6775  0.0346
28505SOL    HW189107   6.827   9.667   0.720 -1.1369  1.2609 -2.9746
28505SOL    HW289108   6.827   9.815   0.753  0.1426  0.5461  0.6690
28506SOL     OW89109   5.215   0.578   6.956 -0.1928 -0.5131 -0.1231
28506SOL    HW189110   5.223   0.660   7.005  1.0142 -0.1197 -0.9246
28506SOL    HW289111   5.229   0.510   7.021  1.7747  0.0016  0.0555
28507SOL     OW89112  10.150   5.265   6.710 -0.3607  0.4287  0.1960
28507SOL    HW189113  10.167   5.359   6.701  0.2401  0.8364  3.9844
28507SOL    HW289114  10.178   5.244   6.799 -2.8300 -2.8237  0.3903
28508SOL     OW89115   7.002   6.868   7.514  0.5491 -0.4149  0.2366
28508SOL    HW189116   7.063   6.846   7.443 -0.3270 -0.2279 -0.5876
28508SOL    HW289117   6.929   6.911   7.470  1.1176  2.0058  1.5328
28509SOL     OW89118   8.207   5.969   8.717 -0.7765  0.2835 -0.2953
28509SOL    HW189119   8.296   5.983   8.748  0.3275  1.6259 -3.6860
28509SOL    HW289120   8.189   5.876   8.734  2.0130 -0.5105 -1.2473
28510SOL     OW89121   0.598   1.548   7.538  0.7509  0.1352  0.0801
28510SOL    HW189122   0.623   1.461   7.570 -1.7840 -0.9252 -0.5024
28510SOL    HW289123   0.633   1.552   7.449 -0.6304 -1.1477 -0.5833
28511SOL     OW89124   4.151   0.099   1.637 -0.2902  0.1895  0.2159
28511SOL    HW189125   4.124   0.017   1.677 -0.0615  0.3352  0.6828
28511SOL    HW289126   4.246   0.102   1.650 -0.2197  0.2679 -0.2918
28512SOL     OW89127   8.897   9.133   0.368  0.4527 -0.3864  0.1055
28512SOL    HW189128   8.970   9.149   0.428  0.6113  0.0408 -0.2036
28512SOL    HW289129   8.937   9.090   0.292  0.3949 -0.0894 -0.0941
28513SOL     OW89130   3.771   9.473   7.065 -0.3254 -0.1553 -0.5418
28513SOL    HW189131   3.684   9.439   7.089 -0.6176  0.6288 -0.4698
28513SOL    HW289132   3.753   9.541   7.000  0.1404  0.7909  0.2975
28514SOL     OW89133   9.233  11.035   3.616 -0.2743  0.0157 -0.4474
28514SOL    HW189134   9.323  11.049   3.646 -0.3261  0.8876 -0.6533
28514SOL    HW289135   9.214  11.113   3.563 -1.1225 -0.2018 -0.4729
28515SOL     OW89136   8.504   6.438   3.152 -0.3929 -0.2687 -0.4626
28515SOL    HW189137   8.419   6.470   3.124 -0.3221 -0.4380 -0.8751
28515SOL    HW289138   8.555   6.431   3.071  0.0279 -0.1237 -0.2152
28516SOL     OW89139   5.314   0.746   3.389 -0.2698 -0.3636 -0.1910
28516SOL    HW189140   5.326   0.830   3.344 -1.2158  0.1075  0.4127
28516SOL    HW289141   5.223   0.722   3.370  0.1800 -1.6002 -0.9161
28517SOL     OW89142   0.737  10.289   8.027 -0.2756 -0.1673 -0.0459
28517SOL    HW189143   0.710  10.204   7.993  1.4478 -0.7420 -0.0693
28517SOL    HW289144   0.832  10.291   8.015 -0.2269  1.6064  0.3144
28518SOL     OW89145   8.165   6.777   1.595  0.4410 -0.0230  0.0976
28518SOL    HW189146   8.182   6.860   1.551 -0.8199  0.5817  0.7116
28518SOL    HW289147   8.107   6.729   1.536 -0.0331  0.1632  0.4037
28519SOL     OW89148   7.828   6.260  10.763 -0.3785  0.3222 -0.0908
28519SOL    HW189149   7.901   6.284  10.706  0.9842  3.6029  2.6685
28519SOL    HW289150   7.753   6.306  10.725 -0.2665 -0.2554 -1.0432
28520SOL     OW89151   6.088   3.747   7.596  0.0046 -0.1276 -0.0821
28520SOL    HW189152   6.020   3.811   7.621 -1.7575 -1.7369 -0.4961
28520SOL    HW289153   6.081   3.742   7.501  1.4734  0.4529 -0.2349
28521SOL     OW89154   9.053   7.021  10.437 -0.1673 -0.2951  0.6538
28521SOL    HW189155   8.969   7.043  10.396  1.2567  2.7068 -1.0274
28521SOL    HW289156   9.095   6.962  10.374 -0.1270 -0.0012  0.4047
28522SOL     OW89157   6.441   9.376   4.498 -0.1260  0.0207  0.0052
28522SOL    HW189158   6.463   9.441   4.565 -0.8454  1.0447 -0.7129
28522SOL    HW289159   6.452   9.423   4.415  1.9113 -1.5675 -0.6947
28523SOL     OW89160   6.787   9.251   8.483 -0.2436 -0.5311  0.0510
28523SOL    HW189161   6.841   9.172   8.484  0.1853 -0.2471  0.8997
28523SOL    HW289162   6.844   9.318   8.522 -0.7315  0.0998 -0.3117
28524SOL     OW89163   2.885   4.012  10.435  0.2982  0.2365 -0.1548
28524SOL    HW189164   2.796   4.038  10.410  0.8562 -0.2373 -2.9144
28524SOL    HW289165   2.890   4.034  10.528 -2.2512  1.5100 -0.2090
28525SOL     OW89166   0.721   8.575   6.591  0.5001 -0.3698  0.5643
28525SOL    HW189167   0.749   8.571   6.683 -0.8546 -0.3160  0.9970
28525SOL    HW289168   0.670   8.656   6.585  2.5787  0.9323 -0.8511
28526SOL     OW89169   8.354   7.094   0.255  0.1693 -0.2986  0.2065
28526SOL    HW189170   8.288   7.028   0.234 -1.9792  1.8753 -0.2655
28526SOL    HW289171   8.391   7.119   0.171 -0.6657  0.6867  0.1164
28527SOL     OW89172   2.931   9.639  10.334  1.1638 -0.9145  0.0382
28527SOL    HW189173   2.889   9.554  10.348  3.6670 -2.3595 -0.5758
28527SOL    HW289174   2.986   9.651  10.411  1.6478 -0.3856 -0.3822
28528SOL     OW89175   8.904   2.901   9.401  0.4291 -0.0060  0.3806
28528SOL    HW189176   8.859   2.977   9.364  0.3360  0.0457  0.5955
28528SOL    HW289177   8.888   2.908   9.495  0.0938 -0.5102  0.3644
28529SOL     OW89178   2.902  10.242  10.161 -0.2261  0.5011  0.3580
28529SOL    HW189179   2.982  10.197  10.134 -1.3274 -1.7863  0.6193
28529SOL    HW289180   2.922  10.335  10.151  1.9350 -0.0296 -1.0212
28530SOL     OW89181   3.892   2.837   7.957  0.2280  0.1133  0.1310
28530SOL    HW189182   3.914   2.744   7.962  0.0189 -0.0217 -1.0835
28530SOL    HW289183   3.809   2.845   8.004 -0.9831 -0.7707 -1.7548
28531SOL     OW89184   8.016  10.321   2.673  0.3743 -0.0306  0.4641
28531SOL    HW189185   7.955  10.343   2.603 -1.4432 -0.7020  1.7509
28531SOL    HW289186   8.001  10.227   2.689  1.0445  0.0210  1.4733
28532SOL     OW89187   7.407   4.467   8.623  0.1626  0.4142 -0.0024
28532SOL    HW189188   7.354   4.498   8.696  0.9930  1.5346  0.1494
28532SOL    HW289189   7.475   4.534   8.612  0.3725 -0.0024 -1.4547
28533SOL     OW89190   2.385   0.588   9.083 -0.2776  0.1762  0.2069
28533SOL    HW189191   2.336   0.599   9.001 -1.8427 -0.6648  0.9865
28533SOL    HW289192   2.383   0.674   9.124  0.4146  0.5748 -0.5496
28534SOL     OW89193   2.582   7.466  10.542  0.8200  0.0066 -0.0069
28534SOL    HW189194   2.650   7.529  10.517  0.4712  0.1738 -0.5473
28534SOL    HW289195   2.505   7.519  10.558  0.2965 -0.3326 -1.2535
28535SOL     OW89196   8.302   8.677  10.150 -0.3295 -0.1641  0.0217
28535SOL    HW189197   8.361   8.684  10.075 -1.4751 -0.3879 -0.9342
28535SOL    HW289198   8.360   8.659  10.224  0.9945  1.6553 -0.4897
28536SOL     OW89199   3.921   8.609   3.474 -0.2646 -0.2065  0.6358
28536SOL    HW189200   3.832   8.576   3.462 -0.3500  0.3973 -0.5991
28536SOL    HW289201   3.912   8.704   3.466  0.5347 -0.1611  0.1158
28537SOL     OW89202   4.720   2.090   8.744  0.0134 -0.2796  0.2505
28537SOL    HW189203   4.684   2.174   8.773  0.0158  0.0908 -0.7516
28537SOL    HW289204   4.749   2.047   8.824  1.0816  1.1851  0.7045
28538SOL     OW89205   3.310   6.482   6.314  0.3943 -0.3337  0.7678
28538SOL    HW189206   3.238   6.544   6.322  0.8164  0.0834  1.5087
28538SOL    HW289207   3.313   6.437   6.399 -0.4871 -2.0345 -0.0730
28539SOL     OW89208   4.679   0.053  10.246 -0.5757 -0.5502  0.0185
28539SOL    HW189209   4.620   0.115  10.289  0.8857  0.7025  0.3477
28539SOL    HW289210   4.713  -0.001  10.317  1.1939  0.9700  0.4399
28540SOL     OW89211   2.325   3.316   3.998  0.0356  0.3860  0.2145
28540SOL    HW189212   2.271   3.394   4.011 -1.0212 -0.1585 -0.8606
28540SOL    HW289213   2.294   3.254   4.064 -0.6579  0.0761 -0.3977
28541SOL     OW89214   4.480   0.389   9.099  0.1853  0.0720  0.6620
28541SOL    HW189215   4.402   0.357   9.052 -0.7658 -1.5580  3.1101
28541SOL    HW289216   4.465   0.483   9.109 -2.0181 -0.3405  1.8940
28542SOL     OW89217   8.509   3.290   5.439 -0.1189  0.3431  0.2153
28542SOL    HW189218   8.540   3.368   5.393  0.3051  0.0360 -0.0233
28542SOL    HW289219   8.415   3.289   5.424 -0.0749  0.6169 -0.0814
28543SOL     OW89220   1.848   2.881   9.924 -0.1495 -0.5387 -0.0156
28543SOL    HW189221   1.936   2.913   9.907  0.1823 -1.0870  0.5990
28543SOL    HW289222   1.804   2.954   9.968 -0.0526 -0.2152 -0.4473
28544SOL     OW89223  11.046   8.745   2.977 -0.1859  0.2097 -0.3447
28544SOL    HW189224  10.970   8.697   3.010  0.5856 -1.5623 -0.9789
28544SOL    HW289225  11.109   8.743   3.049 -0.8496  2.0758  0.3476
28545SOL     OW89226   2.864   8.425   0.164  0.1064 -0.2030  0.3006
28545SOL    HW189227   2.774   8.431   0.133  1.2244  0.9377 -3.2197
28545SOL    HW289228   2.890   8.335   0.145 -0.3882 -0.6911  1.8129
28546SOL     OW89229   4.931   1.274   8.773  0.0039 -0.1680 -0.4011
28546SOL    HW189230   5.013   1.323   8.768 -0.2532  0.1700 -2.6403
28546SOL    HW289231   4.869   1.326   8.722 -1.2344 -1.0734  0.1433
28547SOL     OW89232   6.669   5.115   7.679  0.0273  0.0553  0.1751
28547SOL    HW189233   6.753   5.092   7.640  0.2945  0.3949  0.5527
28547SOL    HW289234   6.610   5.046   7.649  0.5171 -0.3800  0.1899
28548SOL     OW89235   0.475   8.212  10.571  0.0901 -0.0862  0.1705
28548SOL    HW189236   0.484   8.220  10.476  0.0328 -1.8888 -0.0143
28548SOL    HW289237   0.394   8.164  10.584  1.5334 -2.5179  0.9420
28549SOL     OW89238   0.171   6.150   0.566  0.2626 -0.5331 -0.2000
28549SOL    HW189239   0.155   6.239   0.597 -0.4897 -1.0974  1.0850
28549SOL    HW289240   0.089   6.125   0.523  0.2254 -0.8665  0.0687
28550SOL     OW89241   3.276   3.767   9.630 -0.1226 -0.0127 -0.3305
28550SOL    HW189242   3.351   3.818   9.660  0.2960 -0.9531  0.2525
28550SOL    HW289243   3.302   3.733   9.544 -0.8809  1.7383 -1.3002
28551SOL     OW89244   1.789   2.378   4.339  0.2700  0.3664 -0.0589
28551SOL    HW189245   1.694   2.388   4.344  0.2219  0.5315 -1.0195
28551SOL    HW289246   1.817   2.366   4.430 -0.6046  0.8880  0.2939
28552SOL     OW89247   2.315   5.795  10.973 -0.0525  0.8217  0.1858
28552SOL    HW189248   2.384   5.803  11.040  0.1682  3.4432 -0.2724
28552SOL    HW289249   2.355   5.827  10.893 -1.5521  1.5854 -0.2900
28553SOL     OW89250   7.408   5.412   4.222 -0.0605 -0.0558 -0.4091
28553SOL    HW189251   7.333   5.404   4.282 -1.8474  0.5413 -2.4485
28553SOL    HW289252   7.385   5.485   4.164  3.5148  2.2390  0.7248
28554SOL     OW89253   3.675   2.126   4.012 -0.6628 -0.1548  0.2297
28554SOL    HW189254   3.703   2.043   4.052 -0.2036 -0.3573 -0.5003
28554SOL    HW289255   3.700   2.118   3.920 -1.5332  0.3862 -0.0646
28555SOL     OW89256   7.162  10.395   7.463 -0.3620  0.0776  0.2045
28555SOL    HW189257   7.091  10.347   7.420 -0.4545  0.8342 -0.5274
28555SOL    HW289258   7.124  10.426   7.545 -1.4380  1.7965 -0.8623
28556SOL     OW89259   4.621   4.154   1.181 -1.1540 -0.7077 -0.0740
28556SOL    HW189260   4.715   4.170   1.175 -1.2761  0.4848  0.7975
28556SOL    HW289261   4.592   4.143   1.091 -0.5153  1.0341 -0.5300
28557SOL     OW89262  10.870   8.059   6.259  0.2337  0.4496 -0.3299
28557SOL    HW189263  10.944   8.069   6.318 -0.3710 -0.1082  0.5658
28557SOL    HW289264  10.798   8.103   6.304 -0.3115 -0.2410 -0.5048
28558SOL     OW89265  10.863   1.992   4.095  0.0896 -0.4268  0.0742
28558SOL    HW189266  10.893   2.033   4.176  0.4766 -2.3020  0.9359
28558SOL    HW289267  10.929   1.925   4.076  0.1575  0.1260 -1.9739
28559SOL     OW89268   9.602   1.041   0.050  0.3971 -0.0316  0.3900
28559SOL    HW189269   9.510   1.029   0.028  0.4647  0.6006 -0.2788
28559SOL    HW289270   9.604   1.042   0.146 -0.3402  0.3053  0.4070
28560SOL     OW89271   0.967   2.885   1.617 -0.3539  0.3337  0.2247
28560SOL    HW189272   1.024   2.961   1.629  0.2970 -0.3529  1.7277
28560SOL    HW289273   1.024   2.810   1.629 -1.2044 -0.3842 -0.1344
28561SOL     OW89274   4.985   0.362   3.150  0.0295  0.2852 -0.3916
28561SOL    HW189275   4.954   0.279   3.113 -1.4192  0.9523 -0.7691
28561SOL    HW289276   4.914   0.391   3.208  0.9173  0.8085  0.4658
28562SOL     OW89277   4.675   5.866   2.653  0.1808  0.2328  0.2978
28562SOL    HW189278   4.707   5.917   2.728  0.6252  1.1602 -0.5033
28562SOL    HW289279   4.740   5.880   2.585 -0.3679 -0.3656 -0.3664
28563SOL     OW89280  10.425   3.708   8.661 -0.0535  0.1182 -0.0186
28563SOL    HW189281  10.405   3.779   8.723  0.2101  0.2731 -0.1103
28563SOL    HW289282  10.484   3.650   8.709  1.8561  1.3239 -0.7996
28564SOL     OW89283   0.051   0.249   1.422 -0.1875 -0.3887 -0.2598
28564SOL    HW189284   0.051   0.174   1.363  0.7567 -0.0714 -0.6976
28564SOL    HW289285  -0.041   0.270   1.435 -0.5357 -2.3597  0.8625
28565SOL     OW89286   0.574   0.253   7.311 -0.0789 -0.1670  0.2370
28565SOL    HW189287   0.495   0.288   7.268 -0.9520 -1.9548  0.3063
28565SOL    HW289288   0.540   0.200   7.383  1.0821 -2.4730 -0.8140
28566SOL     OW89289   2.467   2.436   6.703  0.3299 -0.4876 -0.2454
28566SOL    HW189290   2.509   2.519   6.726 -0.7655 -0.0982  0.4356
28566SOL    HW289291   2.512   2.408   6.623  1.4377  0.2197  0.1044
28567SOL     OW89292   8.438   5.312   4.275  0.5530  0.0489  0.4894
28567SOL    HW189293   8.461   5.345   4.188  0.1992 -1.6277 -0.2988
28567SOL    HW289294   8.347   5.340   4.287 -0.2027 -1.6508 -0.7591
28568SOL     OW89295  10.504   3.285   0.249  0.0397 -0.0404 -0.4817
28568SOL    HW189296  10.524   3.363   0.300  1.9948 -0.9065  0.1844
28568SOL    HW289297  10.452   3.230   0.308 -1.1978  0.6570 -0.8953
28569SOL     OW89298   6.235   0.212   8.346  0.0448 -0.2068 -0.3068
28569SOL    HW189299   6.253   0.272   8.418 -0.6624 -0.2817 -0.0632
28569SOL    HW289300   6.233   0.125   8.386  2.2410 -0.5601 -0.8404
28570SOL     OW89301   8.619   7.874   2.345  0.6208  0.0294 -0.8121
28570SOL    HW189302   8.671   7.954   2.337  0.9645 -0.0653  0.3162
28570SOL    HW289303   8.589   7.874   2.436  0.9929 -1.3477 -0.6713
28571SOL     OW89304   9.449   0.152  11.018 -0.2981  0.1165 -0.3157
28571SOL    HW189305   9.459   0.228  11.076 -0.3355 -1.4776  1.8984
28571SOL    HW289306   9.355   0.132  11.022 -0.2651 -0.1470 -0.7902
28572SOL     OW89307   9.381   5.120   0.550  0.3033  0.0253 -0.2040
28572SOL    HW189308   9.319   5.106   0.621 -0.0422 -1.2671 -0.7374
28572SOL    HW289309   9.455   5.063   0.571  1.0094  1.0056  0.0488
28573SOL     OW89310   7.318   3.220   2.035 -0.0060 -0.8912 -0.2888
28573SOL    HW189311   7.225   3.230   2.015 -1.0096 -1.8295  3.1841
28573SOL    HW289312   7.362   3.272   1.968 -3.1669  1.7524 -0.6022
28574SOL     OW89313   1.056   1.278   0.654 -0.0750 -0.0575  0.2057
28574SOL    HW189314   1.020   1.222   0.585  3.4558 -0.6704 -1.3257
28574SOL    HW289315   1.146   1.247   0.666  0.1785  1.5122  3.5507
28575SOL     OW89316   9.092   6.911   6.160  0.4954 -0.2070  0.3444
28575SOL    HW189317   9.176   6.924   6.116  1.4187 -1.3001  1.6887
28575SOL    HW289318   9.110   6.927   6.253 -1.1441  1.0000  0.5104
28576SOL     OW89319   2.411  10.679   5.150 -0.1877 -0.3289  0.0556
28576SOL    HW189320   2.398  10.773   5.161 -0.3180 -0.2391 -0.7689
28576SOL    HW289321   2.421  10.645   5.239  2.6358  0.8424  0.2594
28577SOL     OW89322   8.043   5.979   7.984 -0.0053  0.4606 -0.6383
28577SOL    HW189323   8.088   5.939   7.909 -0.1465 -1.6661  0.3487
28577SOL    HW289324   7.951   5.982   7.958 -0.0549 -0.2748 -0.5611
28578SOL     OW89325   3.748   9.853   5.656  1.0805  0.3542 -0.2108
28578SOL    HW189326   3.755   9.758   5.642  0.9339  0.1622  0.9360
28578SOL    HW289327   3.760   9.891   5.568 -0.5842 -0.7957 -0.9925
28579SOL     OW89328   4.520   1.493   2.269  0.0642  0.7009 -0.5478
28579SOL    HW189329   4.477   1.410   2.250 -1.1357  1.0640  0.4477
28579SOL    HW289330   4.493   1.551   2.197  0.0873  0.5189 -0.7036
28580SOL     OW89331   2.715   6.186   2.790  0.0993  0.2925 -0.8969
28580SOL    HW189332   2.684   6.277   2.791  1.3166  0.7223  0.8595
28580SOL    HW289333   2.781   6.185   2.721 -1.2274  0.2319 -2.2260
28581SOL     OW89334   6.939   9.637   7.133  0.1366  0.3075  0.0103
28581SOL    HW189335   7.004   9.703   7.107  1.9653 -0.6088  1.9619
28581SOL    HW289336   6.955   9.563   7.075  1.7409 -0.3552  1.1953
28582SOL     OW89337   6.827   2.959   0.213  0.2502  0.0571  0.0422
28582SOL    HW189338   6.737   2.975   0.240  1.1936  1.9761  2.4117
28582SOL    HW289339   6.838   2.864   0.223 -1.4389 -0.2026 -0.2197
28583SOL     OW89340   2.036   8.167   8.838  0.3963  0.0624 -0.0464
28583SOL    HW189341   2.064   8.122   8.759  0.3243 -0.8075  0.4158
28583SOL    HW289342   2.039   8.260   8.815 -1.3016 -0.2269 -1.6261
28584SOL     OW89343  10.771   5.861   3.546 -0.2558  0.1389  0.4525
28584SOL    HW189344  10.751   5.767   3.545 -1.1506  0.3155 -0.2992
28584SOL    HW289345  10.779   5.884   3.454  1.1833  0.5806  0.6622
28585SOL     OW89346  10.462   9.536   6.003  0.1417 -0.1362 -0.2976
28585SOL    HW189347  10.509   9.529   6.086 -0.7613  0.3563  0.2727
28585SOL    HW289348  10.425   9.625   6.003 -0.6742 -0.4596 -0.7793
28586SOL     OW89349   9.787   8.208   6.756 -0.4088 -0.3292 -0.0884
28586SOL    HW189350   9.735   8.183   6.680  0.6340 -1.5978 -0.4473
28586SOL    HW289351   9.832   8.288   6.730 -1.0879 -0.0157 -0.2992
28587SOL     OW89352   4.703   2.184   6.774 -0.3103  0.4123  0.0557
28587SOL    HW189353   4.634   2.160   6.836  0.6556 -2.1695  0.2751
28587SOL    HW289354   4.721   2.102   6.727  0.7198  1.6976 -1.9146
28588SOL     OW89355   0.304   1.475   5.903 -0.0708  0.1120 -0.0623
28588SOL    HW189356   0.399   1.469   5.889  0.6538  5.0863  0.8239
28588SOL    HW289357   0.267   1.471   5.815  0.6192 -3.2807 -0.3554
28589SOL     OW89358   2.408   8.947   8.374 -0.9805 -0.1510  0.3505
28589SOL    HW189359   2.458   9.028   8.383  0.9774 -1.3402  0.7988
28589SOL    HW289360   2.393   8.937   8.280 -0.6136  0.3546  0.2381
28590SOL     OW89361   5.403   1.991   8.686  0.6046  0.1416 -0.4118
28590SOL    HW189362   5.384   2.066   8.741  0.1232  0.2920 -0.7726
28590SOL    HW289363   5.491   1.963   8.712  0.4611  0.3232  0.2883
28591SOL     OW89364   4.148   0.151   3.918 -0.0351  0.8377  0.1979
28591SOL    HW189365   4.097   0.131   3.840  1.8227 -1.2536 -0.5558
28591SOL    HW289366   4.172   0.066   3.954  5.0576  1.4485 -0.9783
28592SOL     OW89367   1.240   6.392   0.217  0.5510 -0.3260  0.4749
28592SOL    HW189368   1.243   6.477   0.173 -0.3344 -0.4129  0.2279
28592SOL    HW289369   1.166   6.398   0.277 -0.6046 -1.4513 -0.7424
28593SOL     OW89370   5.551  10.319   9.468  0.4665  0.2663 -0.8710
28593SOL    HW189371   5.611  10.375   9.518 -0.0604  0.2924 -0.2621
28593SOL    HW289372   5.484  10.379   9.436  0.0744  0.0345 -0.4846
28594SOL     OW89373   7.726   1.599   5.908  0.0734 -0.3085 -0.3630
28594SOL    HW189374   7.780   1.521   5.908  1.2468  0.4805 -0.2506
28594SOL    HW289375   7.728   1.631   5.817 -1.6973 -1.2410 -0.7831
28595SOL     OW89376   4.025   0.627   9.493  0.2337 -0.2438  0.5110
28595SOL    HW189377   3.968   0.658   9.423  3.5713 -0.6105 -2.6592
28595SOL    HW289378   4.101   0.685   9.491  2.1675 -2.5774  1.1484
28596SOL     OW89379  10.467   5.213   0.320 -0.0747 -0.3887  0.6628
28596SOL    HW189380  10.393   5.183   0.372 -0.0913 -0.3252  0.6750
28596SOL    HW289381  10.506   5.132   0.286 -0.4473 -0.3970  0.2457
28597SOL     OW89382   2.830   1.699   6.099 -0.2068 -0.1507  0.5571
28597SOL    HW189383   2.889   1.736   6.164  0.2043 -0.6592  0.4751
28597SOL    HW289384   2.780   1.633   6.148 -1.6759  1.1907  0.9642
28598SOL     OW89385   4.934   8.748   3.183 -0.0057  0.6023 -0.5125
28598SOL    HW189386   4.902   8.756   3.273 -2.8364 -0.4031 -1.3470
28598SOL    HW289387   4.911   8.832   3.143 -1.5416 -0.0640 -1.0725
28599SOL     OW89388   7.491   1.529   3.361 -0.1270 -0.0556  0.0626
28599SOL    HW189389   7.503   1.452   3.305 -1.8833 -0.6544  0.4468
28599SOL    HW289390   7.412   1.571   3.328 -1.4498 -0.6485  2.2748
28600SOL     OW89391   5.579   9.278   3.237 -0.4757  0.2523  0.1425
28600SOL    HW189392   5.583   9.190   3.199  0.7804  0.9901 -1.5918
28600SOL    HW289393   5.499   9.279   3.288 -1.2865 -1.4368 -1.0049
28601SOL     OW89394   1.049  10.900   1.768 -0.5791  0.2608 -1.1637
28601SOL    HW189395   1.032  10.817   1.722  1.4893 -0.3169 -0.9577
28601SOL    HW289396   0.976  10.907   1.830 -1.4040 -0.8183 -1.9583
28602SOL     OW89397   4.976   0.618   6.112 -0.0832 -0.0908  0.3302
28602SOL    HW189398   4.882   0.601   6.117 -0.6493  2.7285  1.8274
28602SOL    HW289399   4.992   0.678   6.185  3.1719 -1.5311  0.9313
28603SOL     OW89400   1.138   7.402   9.709 -0.2757 -0.3907  0.3102
28603SOL    HW189401   1.090   7.448   9.640  2.0819  0.0406 -1.1361
28603SOL    HW289402   1.148   7.312   9.676 -1.2016 -0.8701  1.2374
28604SOL     OW89403   4.586   9.438   9.557 -0.2694  0.0687  0.4990
28604SOL    HW189404   4.571   9.531   9.571  2.3312  0.5227  0.6775
28604SOL    HW289405   4.604   9.430   9.463  0.1564 -0.1648  0.6019
28605SOL     OW89406   6.007   7.930   3.956  0.2999 -0.2395  0.2680
28605SOL    HW189407   6.070   7.889   4.015 -0.4941 -0.5341  0.9238
28605SOL    HW289408   5.948   7.978   4.013  0.6518  1.0592 -0.4283
28606SOL     OW89409   4.204   8.332   8.388  0.0131 -0.4641 -0.2637
28606SOL    HW189410   4.214   8.406   8.448  2.0123 -0.3329 -0.6973
28606SOL    HW289411   4.262   8.264   8.422 -0.1699 -1.0501 -1.0632
28607SOL     OW89412  10.104  10.998   7.018  0.0741 -0.2317 -0.2462
28607SOL    HW189413  10.032  11.059   7.037  0.9401  0.3280  1.4709
28607SOL    HW289414  10.173  11.053   6.981  1.0823 -0.0000  1.8654
28608SOL     OW89415   3.470   9.540   4.911 -0.4271 -0.3033  0.5183
28608SOL    HW189416   3.431   9.483   4.845 -1.3934 -0.5100  1.2467
28608SOL    HW289417   3.553   9.498   4.933  0.2329  0.1060 -1.0025
28609SOL     OW89418  10.581   0.152   0.640 -0.2710  0.9223  0.1652
28609SOL    HW189419  10.533   0.220   0.689 -0.1399 -0.0342  1.6831
28609SOL    HW289420  10.582   0.077   0.699 -0.2973 -0.3816 -1.4256
28610SOL     OW89421   5.278  10.117   1.992  0.6679  0.3770  0.1642
28610SOL    HW189422   5.309  10.058   1.923 -0.7732 -0.4924  0.2299
28610SOL    HW289423   5.200  10.158   1.957  0.0279  0.0824  1.1837
28611SOL     OW89424   6.278   6.007   2.784  0.0092  0.3542  0.3483
28611SOL    HW189425   6.371   5.988   2.782  0.2297  1.3729 -0.3042
28611SOL    HW289426   6.273   6.101   2.800 -0.7971  0.7441 -1.7483
28612SOL     OW89427   9.917   6.068   9.401 -0.0573 -0.5801 -0.3166
28612SOL    HW189428   9.938   6.032   9.314  0.1184 -1.9848  0.2778
28612SOL    HW289429   9.835   6.117   9.387  1.2023  1.2678 -1.7522
28613SOL     OW89430   9.819   1.086   5.221  0.1546  0.2032 -0.1661
28613SOL    HW189431   9.904   1.093   5.263 -0.2843 -0.4869  0.9091
28613SOL    HW289432   9.836   1.101   5.128  1.3406  0.6813  0.1118
28614SOL     OW89433   4.101   9.848   9.308 -0.1124 -0.3524 -0.0995
28614SOL    HW189434   4.097   9.759   9.274  1.5819 -0.0956 -1.0760
28614SOL    HW289435   4.042   9.898   9.252 -0.1159 -0.6399 -0.3565
28615SOL     OW89436   0.407   6.022  10.549  0.1493  0.4353  0.6995
28615SOL    HW189437   0.320   5.992  10.576 -0.9277  1.6938 -1.1512
28615SOL    HW289438   0.390   6.102  10.499  2.1726 -0.3343 -1.3728
28616SOL     OW89439   3.933   6.223   4.320  0.4383  0.0128  0.4993
28616SOL    HW189440   4.022   6.216   4.286 -0.7512 -0.7040 -2.8074
28616SOL    HW289441   3.900   6.306   4.285 -0.6225 -0.3653  0.5577
28617SOL     OW89442   4.672   2.432   9.859 -0.3147 -0.0009 -0.2194
28617SOL    HW189443   4.680   2.396   9.947 -0.2914  0.1318 -0.1677
28617SOL    HW289444   4.625   2.364   9.810  1.2481 -0.8707 -0.5700
28618SOL     OW89445   3.922   2.392   3.223 -0.2259  0.3460  0.6659
28618SOL    HW189446   3.864   2.333   3.175 -0.3781  1.5772 -0.7232
28618SOL    HW289447   4.007   2.349   3.221 -0.2621  0.3054 -0.6002
28619SOL     OW89448   8.529   4.516   2.793  0.0588 -0.0886  0.4934
28619SOL    HW189449   8.594   4.447   2.797  1.2087  0.8295 -1.2313
28619SOL    HW289450   8.568   4.589   2.842  0.7330  0.7337 -1.2028
28620SOL     OW89451   8.523   5.453   3.537  0.3065 -0.4063 -0.2897
28620SOL    HW189452   8.446   5.458   3.480 -0.3641 -0.1716  0.6196
28620SOL    HW289453   8.592   5.498   3.488 -1.3797  4.0143  0.8954
28621SOL     OW89454   3.315  10.103   1.566 -0.0678  0.1236  0.3686
28621SOL    HW189455   3.250  10.150   1.514 -1.3392 -0.1666  1.6231
28621SOL    HW289456   3.271  10.022   1.592  1.9713 -1.7498 -1.5238
28622SOL     OW89457   4.888   8.689  11.054  0.1036  0.5665 -0.0374
28622SOL    HW189458   4.864   8.604  11.090 -1.2719  0.6220 -0.7693
28622SOL    HW289459   4.878   8.750  11.128 -1.4342  0.4777 -0.1465
28623SOL     OW89460  10.491   6.777   1.854  0.7376  0.0653  0.8872
28623SOL    HW189461  10.504   6.698   1.801  1.9596  0.6958  0.2052
28623SOL    HW289462  10.537   6.758   1.935 -0.6374 -0.6665  1.5465
28624SOL     OW89463   3.115  10.162   2.984 -0.3850  0.0010 -0.3596
28624SOL    HW189464   3.190  10.185   3.039  0.9004 -0.9244 -1.6725
28624SOL    HW289465   3.102  10.238   2.927 -0.4672  0.1735 -0.1113
28625SOL     OW89466   5.130   8.699   1.542  0.0124 -0.1182 -0.2695
28625SOL    HW189467   5.190   8.666   1.608  1.1383  0.2428 -1.0795
28625SOL    HW289468   5.060   8.741   1.591  1.1502  0.7110  0.6856
28626SOL     OW89469   9.357   3.982   5.366  0.0772 -0.2247  0.1556
28626SOL    HW189470   9.277   4.013   5.407  0.2810 -0.0856  0.4533
28626SOL    HW289471   9.400   3.928   5.433 -0.2625 -1.1511 -0.3492
28627SOL     OW89472   7.529   5.559   5.545 -0.0099  0.0784 -0.3924
28627SOL    HW189473   7.475   5.503   5.488  0.8363 -0.8940 -0.2709
28627SOL    HW289474   7.526   5.645   5.503  0.2386 -0.5190 -1.6764
28628SOL     OW89475   7.742   0.169   5.508  0.6360 -0.3220 -0.4376
28628SOL    HW189476   7.783   0.140   5.589  1.4648  1.0081 -0.3504
28628SOL    HW289477   7.652   0.136   5.514  0.5985 -0.0307  1.1629
28629SOL     OW89478   1.139   9.180   1.618  0.0743  0.3325  0.7599
28629SOL    HW189479   1.181   9.177   1.532  0.6586 -2.5787  1.0681
28629SOL    HW289480   1.185   9.250   1.664 -0.1687  1.8841 -1.1948
28630SOL     OW89481   0.335   6.115   8.488  0.0660 -0.2237  0.1105
28630SOL    HW189482   0.294   6.042   8.535 -1.2855  0.6970  0.4325
28630SOL    HW289483   0.330   6.091   8.396 -0.3469 -0.5633  0.2182
28631SOL     OW89484   2.847   4.268   6.457  0.1899  0.1757  0.4502
28631SOL    HW189485   2.841   4.303   6.368  0.3022  0.0225  0.3806
28631SOL    HW289486   2.756   4.259   6.486 -0.0403 -2.6349 -0.7806
28632SOL     OW89487   6.110  10.286   5.083  0.3115  0.0113  0.0162
28632SOL    HW189488   6.043  10.318   5.142 -0.6410 -3.9583  1.3813
28632SOL    HW289489   6.098  10.337   5.003 -3.9238 -0.0185  0.4204
28633SOL     OW89490  10.494   3.842   3.476 -0.3512  0.1601  0.1830
28633SOL    HW189491  10.550   3.765   3.479 -0.4359  0.1082  0.4867
28633SOL    HW289492  10.555   3.916   3.474 -0.2599  0.1242  1.0988
28634SOL     OW89493   1.263   0.820  10.141 -0.0568  0.2418  0.2821
28634SOL    HW189494   1.318   0.787  10.070  1.0186  0.8472  0.7974
28634SOL    HW289495   1.181   0.846  10.099 -0.1118 -1.0268 -0.4559
28635SOL     OW89496   4.196  10.078   8.455  0.2832 -0.0551 -0.8580
28635SOL    HW189497   4.137  10.021   8.406 -0.0702 -0.2483 -0.2239
28635SOL    HW289498   4.156  10.165   8.449 -0.0429 -0.1760 -0.4751
28636SOL     OW89499   8.004   5.262   6.554  0.2561 -0.1243  0.2066
28636SOL    HW189500   8.094   5.281   6.526 -0.3405  1.7330 -0.6157
28636SOL    HW289501   7.956   5.343   6.537 -1.8495 -1.4341 -0.4428
28637SOL     OW89502   3.641   0.604   0.186  0.3186  0.1027 -0.4668
28637SOL    HW189503   3.576   0.605   0.256  1.6794 -2.3371  0.9676
28637SOL    HW289504   3.699   0.679   0.205 -0.0585  0.2150  0.2572
28638SOL     OW89505   0.105   2.729   1.200 -0.6327 -0.0079 -0.2714
28638SOL    HW189506   0.060   2.654   1.239  1.0677 -0.8141  0.2381
28638SOL    HW289507   0.126   2.700   1.111 -1.1547  0.3800 -0.5233
28639SOL     OW89508   0.597   7.116  10.800 -0.1714  0.5197  0.5570
28639SOL    HW189509   0.602   7.152  10.889 -1.2693 -1.6524  1.5661
28639SOL    HW289510   0.513   7.071  10.797  0.2983 -0.3143 -1.2720
28640SOL     OW89511   7.639  10.656   6.117  0.0152 -0.3333 -0.7554
28640SOL    HW189512   7.680  10.740   6.093  1.2821 -0.7734 -0.2343
28640SOL    HW289513   7.647  10.603   6.038 -1.1185  0.1329 -1.2070
28641SOL     OW89514   8.410  10.528   0.484  0.0132 -0.0042  0.3032
28641SOL    HW189515   8.431  10.528   0.390  0.5888 -0.7692  0.4210
28641SOL    HW289516   8.475  10.587   0.522 -0.1160  0.1772  0.2419
28642SOL     OW89517   5.597   9.725   3.707  0.0615 -0.3351  0.1563
28642SOL    HW189518   5.638   9.641   3.729  0.9123 -0.0419 -0.2838
28642SOL    HW289519   5.555   9.710   3.623 -2.3140 -1.1545  1.4099
28643SOL     OW89520   0.390   0.673   2.767  0.2209 -0.0603  0.5954
28643SOL    HW189521   0.390   0.705   2.858  1.8433 -1.1077  1.0193
28643SOL    HW289522   0.402   0.578   2.775  1.2444 -0.0717 -0.7167
28644SOL     OW89523  10.281   5.844   2.218 -0.4480 -0.3728  0.5345
28644SOL    HW189524  10.271   5.922   2.163 -2.3389 -1.3771 -0.6653
28644SOL    HW289525  10.372   5.847   2.247  0.5713  0.4529 -2.3466
28645SOL     OW89526   3.707   8.753   2.220  0.4671 -0.0954  0.2280
28645SOL    HW189527   3.679   8.665   2.194  1.6588 -0.5581  0.4323
28645SOL    HW289528   3.636   8.810   2.191 -0.0483 -1.0540 -0.4753
28646SOL     OW89529   6.548   7.496   3.911  0.3910 -0.1271 -0.3028
28646SOL    HW189530   6.555   7.581   3.955  1.3703 -0.1232 -0.4384
28646SOL    HW289531   6.479   7.450   3.959 -0.1184  0.7236 -0.1989
28647SOL     OW89532   2.239   5.067   5.346 -0.0239 -0.2589 -0.5281
28647SOL    HW189533   2.211   5.157   5.330  2.0943  0.5206 -0.2377
28647SOL    HW289534   2.175   5.013   5.299 -0.0381  1.4861 -2.7041
28648SOL     OW89535   6.199   0.755   5.708 -0.1688 -0.1776  0.3662
28648SOL    HW189536   6.167   0.679   5.659 -0.1410 -0.8466  1.3615
28648SOL    HW289537   6.125   0.782   5.762 -0.2917  0.7403 -0.2435
28649SOL     OW89538   6.840   9.708   6.687  0.1442 -0.0121 -0.1535
28649SOL    HW189539   6.791   9.759   6.752 -1.1540  0.5014 -1.4792
28649SOL    HW289540   6.929   9.704   6.722 -0.1309  1.6586  0.8551
28650SOL     OW89541   8.917  10.979   9.000 -0.4569  0.3456  0.3768
28650SOL    HW189542   8.950  10.902   8.955 -1.1468 -1.1447  2.2793
28650SOL    HW289543   8.995  11.032   9.019  0.1931 -0.5330  0.1952
28651SOL     OW89544   6.996   5.577   2.557  0.1274 -0.2365 -0.2573
28651SOL    HW189545   6.931   5.509   2.576 -0.3476 -0.2086 -1.6650
28651SOL    HW289546   6.948   5.659   2.564  0.5026 -0.0828  0.6261
28652SOL     OW89547   4.992   0.520   6.635 -0.0836 -0.4658 -0.5655
28652SOL    HW189548   5.032   0.605   6.618  2.4587 -1.0244  1.8980
28652SOL    HW289549   4.917   0.539   6.692 -0.4107  0.1896 -1.2003
28653SOL     OW89550   3.763   4.097  10.608  0.4422 -0.0197 -0.0422
28653SOL    HW189551   3.687   4.154  10.599  1.0503  0.8013 -0.0878
28653SOL    HW289552   3.811   4.108  10.527  0.9018 -0.1104  0.2142
28654SOL     OW89553   5.876   0.645   9.398 -0.2350 -0.6672  0.5355
28654SOL    HW189554   5.937   0.577   9.425  0.4879 -0.3370 -0.2222
28654SOL    HW289555   5.913   0.726   9.434 -0.0611 -0.4302 -0.1541
28655SOL     OW89556   5.190   7.695   6.187  0.2466 -0.0201  0.0782
28655SOL    HW189557   5.279   7.672   6.161  0.7479  0.9835  0.8243
28655SOL    HW289558   5.184   7.789   6.170 -0.6103 -0.0389  0.2241
28656SOL     OW89559   0.513   7.536   7.246  0.0699  0.1149 -0.1188
28656SOL    HW189560   0.438   7.522   7.304  0.8207 -0.8822  0.6529
28656SOL    HW289561   0.495   7.482   7.169  0.0998 -0.3007  0.1637
28657SOL     OW89562   6.130  10.370   0.654  0.4496  0.0920  0.0392
28657SOL    HW189563   6.064  10.394   0.589  0.5279 -0.4646 -0.2521
28657SOL    HW289564   6.213  10.375   0.606  0.6042  0.5469  0.3389
28658SOL     OW89565   4.649   8.389   9.224 -0.0335  0.2853  0.2586
28658SOL    HW189566   4.555   8.392   9.210 -0.0296  1.0837  0.3989
28658SOL    HW289567   4.674   8.478   9.247  0.7307  0.0470  0.4042
28659SOL     OW89568   0.880   9.205  10.725  0.4193  0.3253  0.5712
28659SOL    HW189569   0.914   9.249  10.803  0.5576 -1.5871  1.6508
28659SOL    HW289570   0.921   9.251  10.652  2.5295  0.4011  1.7227
28660SOL     OW89571   6.242   7.918  11.095  0.2988  0.3273  0.1932
28660SOL    HW189572   6.191   7.873  11.162 -0.4821  0.7999 -0.0729
28660SOL    HW289573   6.219   7.875  11.013 -0.0092  0.8292  0.0143
28661SOL     OW89574   5.152  10.009  10.786 -0.3132 -0.0855 -0.3103
28661SOL    HW189575   5.231   9.958  10.802  0.6684  1.5835  0.5430
28661SOL    HW289576   5.090   9.979  10.852  0.4796  0.2429  0.6212
28662SOL     OW89577   5.466   7.907   1.018  0.0339 -0.4375 -0.2202
28662SOL    HW189578   5.498   7.818   1.034  0.5513 -0.3812 -0.8945
28662SOL    HW289579   5.467   7.917   0.923  1.4361  0.7805 -0.1298
28663SOL     OW89580   5.251   6.520   6.940 -0.5116  0.3641  0.4796
28663SOL    HW189581   5.168   6.474   6.927  0.1783 -0.5875 -0.7149
28663SOL    HW289582   5.295   6.472   7.010 -0.7694  0.6014  0.8074
28664SOL     OW89583   2.214   1.999   8.075  0.6578  1.0134 -0.4439
28664SOL    HW189584   2.166   2.070   8.032 -0.4617  0.3867 -0.2783
28664SOL    HW289585   2.299   1.999   8.033  0.2573  1.6757 -1.2896
28665SOL     OW89586   5.858   6.884   5.471  0.4350  0.1413  0.0512
28665SOL    HW189587   5.931   6.945   5.482 -0.7471  1.1807  3.4339
28665SOL    HW289588   5.783   6.940   5.449  0.5387 -0.9346 -3.6908
28666SOL     OW89589  10.155   4.050   0.714  0.1961  0.0016 -0.6469
28666SOL    HW189590  10.168   3.961   0.685 -1.4108  0.4329 -2.9192
28666SOL    HW289591  10.173   4.047   0.808  1.0497 -2.4809 -0.8181
28667SOL     OW89592   7.010   6.600  11.020 -0.1804 -0.2304 -0.3915
28667SOL    HW189593   7.046   6.671  10.967  0.9565 -0.8702 -0.5246
28667SOL    HW289594   6.973   6.643  11.096 -0.8238  0.6127 -1.1682
28668SOL     OW89595   8.152   5.423   9.788  0.4479  0.1069  0.3577
28668SOL    HW189596   8.170   5.517   9.782 -1.3414  0.4503 -0.1571
28668SOL    HW289597   8.057   5.417   9.795  0.2224 -1.7721 -2.6178
28669SOL     OW89598   3.097   7.551   1.021  0.0007 -0.2148 -0.4152
28669SOL    HW189599   3.015   7.504   1.012 -0.5393  0.5502  0.2778
28669SOL    HW289600   3.079   7.638   0.986  0.3070  0.1663  0.3402
28670SOL     OW89601   6.336   2.082   3.048 -0.9347 -0.0597  0.4039
28670SOL    HW189602   6.325   2.084   2.953  2.0058 -0.1613 -0.0390
28670SOL    HW289603   6.326   2.173   3.075 -1.3758  0.0314 -0.0423
28671SOL     OW89604   3.696   6.630   2.195 -0.2655 -0.8112  0.2006
28671SOL    HW189605   3.698   6.553   2.252 -1.9319 -0.3834  0.8895
28671SOL    HW289606   3.609   6.629   2.155 -0.5053  0.9485  0.5795
28672SOL     OW89607   7.544   4.639   6.164 -0.9071  0.2929  0.0316
28672SOL    HW189608   7.553   4.595   6.080  0.6035 -1.2207  0.9143
28672SOL    HW289609   7.450   4.646   6.178 -1.1844 -0.9190 -1.0423
28673SOL     OW89610   6.204   7.318   7.426  0.3066 -0.6464  0.2183
28673SOL    HW189611   6.264   7.353   7.359  1.5022 -0.4464  1.3612
28673SOL    HW289612   6.169   7.238   7.386  1.0865 -0.5964 -0.6104
28674SOL     OW89613   6.135   1.058   2.022 -0.2126  0.4600 -0.1971
28674SOL    HW189614   6.161   1.042   2.112 -0.4249 -1.5594 -0.4401
28674SOL    HW289615   6.212   1.098   1.981 -0.4906  2.4267  1.1008
28675SOL     OW89616   5.591   2.944   2.546  0.3125  0.2497  0.0736
28675SOL    HW189617   5.580   3.035   2.576  0.3890  0.0629  0.6855
28675SOL    HW289618   5.520   2.931   2.483 -1.3598 -0.0773  1.9062
28676SOL     OW89619   6.509   6.840   4.075  0.5636 -0.1868 -0.0009
28676SOL    HW189620   6.463   6.848   4.159  0.6180  0.9158 -0.0697
28676SOL    HW289621   6.478   6.757   4.039 -2.2045  0.9773 -0.5246
28677SOL     OW89622   1.885   0.080   3.764 -0.4040  0.1872 -0.3776
28677SOL    HW189623   1.857   0.093   3.855  0.6969 -1.2443  0.2202
28677SOL    HW289624   1.966   0.129   3.757  0.2224 -0.7837 -0.1484
28678SOL     OW89625   7.536   3.078   5.872 -0.1079  0.4701  0.2532
28678SOL    HW189626   7.552   3.101   5.781 -1.5062 -1.1200 -0.4446
28678SOL    HW289627   7.542   2.982   5.874 -2.7845  0.2536  1.2422
28679SOL     OW89628   6.400   1.607   7.201 -0.0928  0.3268  0.1477
28679SOL    HW189629   6.448   1.619   7.119  0.6445  0.2798  0.5588
28679SOL    HW289630   6.412   1.690   7.248  0.4835 -0.0624  0.7047
28680SOL     OW89631   2.464   7.789   2.642 -0.1706  0.5691 -0.1941
28680SOL    HW189632   2.462   7.709   2.590  2.2192  1.2964 -1.5940
28680SOL    HW289633   2.556   7.814   2.643 -0.6026  2.3517  1.7347
28681SOL     OW89634   0.074   4.263   3.862 -0.6016  0.1871  0.0227
28681SOL    HW189635   0.092   4.173   3.837 -1.8328 -0.7584  2.2725
28681SOL    HW289636   0.060   4.259   3.957  0.1073  2.8760  0.3203
28682SOL     OW89637   4.562   1.706   4.083 -0.7731  0.6788  0.3457
28682SOL    HW189638   4.541   1.751   4.165 -0.3287  1.0892  0.2380
28682SOL    HW289639   4.505   1.629   4.082  0.2118 -0.0943  1.7115
28683SOL     OW89640  10.267   9.807  10.362 -0.2284  0.0424  0.5107
28683SOL    HW189641  10.261   9.817  10.457 -0.3725  1.3213  0.3839
28683SOL    HW289642  10.332   9.738  10.349 -0.0499  0.0098  1.5244
28684SOL     OW89643   4.705   8.755   2.372 -0.3264  0.1006 -0.6424
28684SOL    HW189644   4.757   8.835   2.378  1.1019 -0.8389  0.0777
28684SOL    HW289645   4.617   8.786   2.352  0.2032  1.8430 -0.5124
28685SOL     OW89646   1.308   0.476   3.585  0.4760 -0.1872 -0.3568
28685SOL    HW189647   1.231   0.448   3.536  1.0820  0.0347 -1.4711
28685SOL    HW289648   1.360   0.527   3.522 -0.2059  2.8680  1.3285
28686SOL     OW89649   4.036   2.655   7.704 -0.2750  0.1559 -0.1061
28686SOL    HW189650   4.110   2.714   7.716  0.2402 -0.7211  1.3193
28686SOL    HW289651   4.036   2.600   7.783 -2.5051  0.2051  0.0044
28687SOL     OW89652   6.314   8.487  11.106  0.2900  0.1591 -0.0575
28687SOL    HW189653   6.400   8.518  11.077 -0.3634 -0.0269 -2.3722
28687SOL    HW289654   6.320   8.392  11.101 -0.5028  0.1693 -1.7851
28688SOL     OW89655   2.587   0.849   7.112 -0.6985  0.4371 -0.3780
28688SOL    HW189656   2.590   0.880   7.202  2.1329 -0.4197 -0.0919
28688SOL    HW289657   2.594   0.754   7.118  1.0629  0.4559 -1.5105
28689SOL     OW89658   1.264   1.391   8.629  0.3748  0.1610  0.3896
28689SOL    HW189659   1.246   1.298   8.614  0.1113  0.2350  0.2416
28689SOL    HW289660   1.234   1.407   8.719  1.0449 -0.0539  0.6498
28690SOL     OW89661   9.309   0.359   6.418 -0.3301 -0.2539  0.1376
28690SOL    HW189662   9.249   0.337   6.490 -1.5250  0.4002 -0.6199
28690SOL    HW289663   9.311   0.455   6.418 -0.4458 -0.2452 -0.7638
28691SOL     OW89664  10.505   0.259   4.681  0.1504 -0.7547 -0.1536
28691SOL    HW189665  10.543   0.317   4.615  0.8478  0.1795  1.0221
28691SOL    HW289666  10.412   0.258   4.662  0.0063  1.3506  0.1891
28692SOL     OW89667   9.823   2.553   7.517  0.1067  0.5593 -0.2272
28692SOL    HW189668   9.775   2.477   7.551 -1.2141  1.5040  0.1296
28692SOL    HW289669   9.880   2.580   7.589  0.5957 -0.1040 -0.3635
28693SOL     OW89670   6.858  10.124   5.072  0.4782 -0.5969 -0.4645
28693SOL    HW189671   6.801  10.147   5.146 -0.9459 -2.5607 -0.8595
28693SOL    HW289672   6.888  10.208   5.038 -2.2774  0.5819 -0.2783
28694SOL     OW89673   3.392  11.021  10.040 -0.8320 -0.0292 -0.1927
28694SOL    HW189674   3.403  11.044   9.948  0.4255 -0.4812 -0.1718
28694SOL    HW289675   3.418  10.929  10.045 -1.5027 -0.1929  0.5040
28695SOL     OW89676   1.170  10.595   2.555  0.0259 -0.1547  0.0811
28695SOL    HW189677   1.107  10.662   2.582 -0.0219 -0.3830  0.5537
28695SOL    HW289678   1.244  10.607   2.616  0.0295 -0.5076  0.1473
28696SOL     OW89679   6.601   4.199   1.605  0.2087 -0.7409  0.3107
28696SOL    HW189680   6.650   4.128   1.564 -0.9706 -0.3582 -1.9426
28696SOL    HW289681   6.522   4.207   1.551 -0.0295  1.7895  0.9315
28697SOL     OW89682   3.552   9.578   0.127  0.6817  0.4971 -0.0885
28697SOL    HW189683   3.526   9.665   0.097  0.4581  0.5967  0.3945
28697SOL    HW289684   3.522   9.519   0.057 -0.2599  0.6822  0.1520
28698SOL     OW89685   5.287   7.629   9.222 -0.1248  0.2644  0.1274
28698SOL    HW189686   5.210   7.600   9.173 -1.3459  0.5528  1.7587
28698SOL    HW289687   5.259   7.712   9.262  0.9768  0.2867  0.8860
28699SOL     OW89688   0.257   1.675   6.907  0.2980 -0.1017  0.3492
28699SOL    HW189689   0.314   1.660   6.982  0.0775  2.2217  1.0517
28699SOL    HW289690   0.282   1.607   6.844  1.0280 -1.6365  2.1770
28700SOL     OW89691   7.578   4.341   7.015  0.2759  0.1998 -0.1094
28700SOL    HW189692   7.574   4.429   7.053  1.7850  0.4176 -0.4085
28700SOL    HW289693   7.600   4.284   7.089  3.4673  0.6568 -0.5892
28701SOL     OW89694   7.004   4.573   8.676 -0.1108 -0.0377  0.4583
28701SOL    HW189695   6.998   4.664   8.704  1.9778  0.7687 -1.4158
28701SOL    HW289696   7.089   4.543   8.709  1.3359  0.2116 -2.7045
28702SOL     OW89697   2.657  10.661   4.671 -0.1263 -0.0260 -0.1222
28702SOL    HW189698   2.718  10.689   4.603 -0.7877  0.4116 -0.5555
28702SOL    HW289699   2.572  10.657   4.626 -0.7404  1.1227  0.8894
28703SOL     OW89700   4.783   2.722   2.280  0.4294 -0.1998  0.0388
28703SOL    HW189701   4.879   2.719   2.284  0.4100 -1.7054  0.2102
28703SOL    HW289702   4.762   2.682   2.196 -0.0500  0.4040 -0.1338
28704SOL     OW89703   3.462   9.921   3.694  0.2130  0.2345  0.2342
28704SOL    HW189704   3.555   9.943   3.701  0.6204 -0.5128 -1.9109
28704SOL    HW289705   3.418   9.985   3.749  1.8268  2.1692 -0.5962
28705SOL     OW89706   4.681   2.701  10.374 -0.9625  0.1257 -0.1266
28705SOL    HW189707   4.739   2.711  10.449  0.3064  0.0547 -1.0632
28705SOL    HW289708   4.737   2.716  10.298 -1.4962 -2.6224 -1.1904
28706SOL     OW89709   4.809   7.087  10.501  0.0022 -0.4950 -0.5374
28706SOL    HW189710   4.853   7.003  10.512  0.3032 -0.1840  0.8034
28706SOL    HW289711   4.875   7.144  10.461  0.3832 -0.4263  0.1662
28707SOL     OW89712   7.649   2.275   0.268  0.5837 -0.3600 -0.0414
28707SOL    HW189713   7.599   2.263   0.348  0.3558 -1.1796 -0.2990
28707SOL    HW289714   7.606   2.349   0.224  0.8286  0.2138  0.6703
28708SOL     OW89715   4.781   7.358   6.764  0.2949 -0.3265  0.1662
28708SOL    HW189716   4.716   7.351   6.695  0.0311 -0.0641  0.3825
28708SOL    HW289717   4.850   7.295   6.740  1.4506  1.4940 -1.6781
28709SOL     OW89718   6.313   0.370   4.670 -0.2802  0.9385  0.2875
28709SOL    HW189719   6.236   0.354   4.725 -1.2219 -0.1409 -1.2821
28709SOL    HW289720   6.302   0.313   4.595  3.2214 -0.9871  1.0141
28710SOL     OW89721   6.652   6.857  10.433 -0.0647  0.3113 -0.0710
28710SOL    HW189722   6.601   6.845  10.353 -0.2148  0.5979 -0.0193
28710SOL    HW289723   6.743   6.859  10.404 -0.1945  2.4579 -0.5064
28711SOL     OW89724   6.729   7.605   1.643 -0.1995  0.0572  0.1442
28711SOL    HW189725   6.686   7.555   1.573 -1.5350 -0.3040  1.1711
28711SOL    HW289726   6.672   7.593   1.719  1.3462  0.2349  1.3728
28712SOL     OW89727  10.283   9.423   0.953  0.0792  0.1887 -0.5837
28712SOL    HW189728  10.303   9.399   0.863  1.6707  0.2705 -0.2852
28712SOL    HW289729  10.328   9.358   1.006  1.3339  1.6100  0.1791
28713SOL     OW89730   6.838   0.268   5.192  0.0056  0.3897 -0.6015
28713SOL    HW189731   6.805   0.185   5.158  0.5708  0.9349 -2.6091
28713SOL    HW289732   6.930   0.272   5.163  0.3890  1.1244  0.6081
28714SOL     OW89733   4.606   4.018   5.936  0.3249  0.3715  0.9251
28714SOL    HW189734   4.631   4.110   5.943  1.7664 -0.0484  1.8715
28714SOL    HW289735   4.682   3.976   5.895 -1.0218 -0.1349 -1.1581
28715SOL     OW89736   0.105   0.789   7.133 -0.1643 -0.1787 -0.2281
28715SOL    HW189737   0.107   0.809   7.039  0.2613 -1.2312 -0.4635
28715SOL    HW289738   0.019   0.817   7.162  0.1122  1.2346 -0.6729
28716SOL     OW89739   7.015   4.400  10.673 -0.0215  0.2465 -0.0621
28716SOL    HW189740   7.090   4.447  10.711  0.4693 -0.8332  0.3510
28716SOL    HW289741   6.939   4.441  10.713  0.3112  1.6929 -0.8612
28717SOL     OW89742   7.968   7.282  10.753  0.0838 -0.0088  0.6030
28717SOL    HW189743   8.029   7.322  10.814 -0.8372 -0.1529  1.6565
28717SOL    HW289744   7.883   7.318  10.777 -0.3651 -0.4549 -0.2736
28718SOL     OW89745   8.096   7.794   3.063 -0.4162 -0.2906 -0.1122
28718SOL    HW189746   8.127   7.746   3.140 -1.0837 -4.1714 -2.0310
28718SOL    HW289747   8.001   7.799   3.075 -0.4549 -0.3335 -0.4019
28719SOL     OW89748   7.418   4.947   4.786  0.0376 -0.2012  0.5957
28719SOL    HW189749   7.430   5.042   4.782 -0.0422 -0.2178 -2.7801
28719SOL    HW289750   7.506   4.911   4.782  0.0445 -0.1667 -2.5240
28720SOL     OW89751   4.584   9.091   5.901 -0.1267  0.0697  0.5605
28720SOL    HW189752   4.606   9.048   5.818  1.3802  0.3354  0.8000
28720SOL    HW289753   4.492   9.115   5.892 -0.1429 -0.4425 -0.8011
28721SOL     OW89754   9.873   6.833  11.080  0.1770  0.2453 -0.0859
28721SOL    HW189755   9.804   6.802  11.139 -1.1801 -0.3792 -1.9067
28721SOL    HW289756   9.889   6.759  11.022  1.5515  0.8039 -0.4535
28722SOL     OW89757   3.354  10.711   2.147  0.4192 -0.1927  0.6823
28722SOL    HW189758   3.303  10.791   2.136  0.7212 -0.0342  0.3867
28722SOL    HW289759   3.295  10.641   2.121  0.6978  0.0752 -0.8323
28723SOL     OW89760   0.911   1.652   6.227 -0.3619  0.1217  0.1093
28723SOL    HW189761   0.824   1.686   6.248  0.0697 -0.0204  2.4518
28723SOL    HW289762   0.947   1.627   6.312  2.4221  1.2622 -0.6339
28724SOL     OW89763   6.669   5.107   0.815 -0.3038  0.5187  0.3528
28724SOL    HW189764   6.619   5.112   0.733 -0.4679  2.6350  0.5455
28724SOL    HW289765   6.731   5.035   0.800 -2.8395 -1.7551 -0.1690
28725SOL     OW89766   6.649   1.965   3.512 -0.0010  0.5181 -0.1298
28725SOL    HW189767   6.616   1.875   3.522 -0.6280  0.6451 -0.9745
28725SOL    HW289768   6.570   2.018   3.502  0.3151  1.3235  1.3909
28726SOL     OW89769   5.914   4.317   6.348 -0.4794  0.2579  0.1617
28726SOL    HW189770   5.870   4.240   6.385 -0.4422  0.1391 -0.0389
28726SOL    HW289771   5.843   4.371   6.314 -0.3846 -1.1609 -2.5805
28727SOL     OW89772   1.471   3.667   0.312  0.3147  0.0267  0.1131
28727SOL    HW189773   1.452   3.582   0.274 -0.3867  0.7328 -1.2047
28727SOL    HW289774   1.397   3.684   0.371  0.1287 -0.0071 -0.1102
28728SOL     OW89775  10.426   9.002   7.498 -0.0437  0.4141  0.8114
28728SOL    HW189776  10.354   8.966   7.446 -1.3074  0.2665  2.5609
28728SOL    HW289777  10.457   9.077   7.448  0.6520 -1.2823 -1.4609
28729SOL     OW89778   3.363   0.677   9.008 -0.4760  0.2233 -0.2079
28729SOL    HW189779   3.327   0.592   9.034  0.0697  0.4523  1.4722
28729SOL    HW289780   3.415   0.659   8.930 -0.5591 -0.9367 -0.0140
28730SOL     OW89781   9.225   5.026   4.756  0.0818 -0.3647 -0.7224
28730SOL    HW189782   9.304   5.077   4.737 -0.0445  0.1151 -0.0097
28730SOL    HW289783   9.154   5.091   4.754 -0.3928 -0.8923 -1.9564
28731SOL     OW89784   5.997   9.748   2.069 -0.1631  0.1533 -0.2288
28731SOL    HW189785   5.936   9.728   1.999 -0.2584 -0.6561  0.0779
28731SOL    HW289786   5.972   9.836   2.099 -0.2636  0.4064 -1.0459
28732SOL     OW89787   4.428   8.750   9.349  0.3843  0.3781  0.5016
28732SOL    HW189788   4.414   8.839   9.317  0.6106  0.2858  0.1320
28732SOL    HW289789   4.369   8.696   9.297  0.4943  0.2707  0.4879
28733SOL     OW89790  10.289   8.313  10.145  0.2509  0.3751 -0.3687
28733SOL    HW189791  10.331   8.380  10.091 -0.3776 -1.9149 -4.0555
28733SOL    HW289792  10.195   8.329  10.136  0.0444 -1.4999 -2.2160
28734SOL     OW89793   1.599   2.381  10.285 -0.1571 -0.2958  0.4543
28734SOL    HW189794   1.690   2.404  10.268 -0.3274  2.2622  2.3592
28734SOL    HW289795   1.549   2.456  10.252 -1.3976 -0.7657  1.1743
28735SOL     OW89796   1.313   3.686   7.299  0.2173  0.0608 -0.0067
28735SOL    HW189797   1.303   3.680   7.394  0.0516 -0.8205 -0.0719
28735SOL    HW289798   1.230   3.654   7.264  0.2531  0.4416 -0.4542
28736SOL     OW89799  10.798   1.013   6.136  0.0508 -0.5698 -0.3974
28736SOL    HW189800  10.786   1.108   6.134 -0.9219 -0.5932  1.7981
28736SOL    HW289801  10.735   0.979   6.073 -1.3711  0.1369  0.5897
28737SOL     OW89802   0.343   5.181   8.787 -0.7522 -0.2299 -0.3145
28737SOL    HW189803   0.287   5.117   8.831  1.1956 -1.1656  0.9472
28737SOL    HW289804   0.365   5.244   8.855  0.6014 -0.5015 -0.4802
28738SOL     OW89805   6.401   3.051   1.253  0.2853  0.6374  0.7126
28738SOL    HW189806   6.437   3.135   1.284 -0.0299  1.4545 -0.9831
28738SOL    HW289807   6.375   3.005   1.332  1.1231  1.8475  1.7354
28739SOL     OW89808   4.264   7.621   4.446  0.7419 -0.2570 -0.0241
28739SOL    HW189809   4.286   7.655   4.360 -1.2321  0.4097 -0.2941
28739SOL    HW289810   4.348   7.619   4.493  1.3418  2.7632 -0.7619
28740SOL     OW89811   5.211   1.032   4.460  0.3099  0.4193 -0.2521
28740SOL    HW189812   5.128   0.994   4.430  0.3301 -1.4174  1.8655
28740SOL    HW289813   5.263   1.040   4.380 -1.6041  0.9561 -1.5311
28741SOL     OW89814   7.386   6.930   7.637 -0.5882 -0.1713  0.4040
28741SOL    HW189815   7.353   6.905   7.551 -0.6340  2.7222 -0.5021
28741SOL    HW289816   7.481   6.932   7.627 -0.6506  1.9709 -0.2036
28742SOL     OW89817   4.958   3.252   2.942  0.9444 -0.2438  0.8645
28742SOL    HW189818   4.999   3.331   2.906 -0.9721  0.7957  0.8288
28742SOL    HW289819   4.901   3.221   2.871  1.2339 -1.3233  1.0927
28743SOL     OW89820   2.021   2.430   5.791 -0.4513  0.7552  0.3246
28743SOL    HW189821   1.945   2.434   5.733 -0.1868 -0.7723 -0.1797
28743SOL    HW289822   2.038   2.337   5.801  0.3472  1.0310  1.7839
28744SOL     OW89823   7.338   4.418  10.215 -0.1256  0.0156 -0.7180
28744SOL    HW189824   7.379   4.360  10.150 -0.0142 -0.6110 -0.0994
28744SOL    HW289825   7.392   4.408  10.293 -2.1396 -1.8162  0.5420
28745SOL     OW89826  11.056   1.404   1.053 -0.2234  0.0911  0.5034
28745SOL    HW189827  11.106   1.485   1.062  0.0274  0.1494 -1.0450
28745SOL    HW289828  10.980   1.429   1.001 -0.0603 -0.6769 -0.1252
28746SOL     OW89829   4.230   0.261   6.047  0.2472  0.0133 -0.4085
28746SOL    HW189830   4.239   0.345   6.092 -0.0031 -0.2591  0.1654
28746SOL    HW289831   4.221   0.284   5.955  1.4909  0.5422 -0.4160
28747SOL     OW89832   5.536   7.098   5.269 -0.4307  0.3692  0.2360
28747SOL    HW189833   5.456   7.151   5.263  0.0888  1.0293 -4.7318
28747SOL    HW289834   5.607   7.160   5.258  0.5484 -0.7105  0.3005
28748SOL     OW89835   5.640   4.767  10.109 -0.7555  0.3218 -0.9880
28748SOL    HW189836   5.658   4.858  10.089 -0.8986  1.0723  1.8733
28748SOL    HW289837   5.554   4.768  10.152  0.0057 -0.8409  0.6894
28749SOL     OW89838   3.801   1.003   0.047  0.2922 -0.0105  0.4914
28749SOL    HW189839   3.767   1.029  -0.039  2.2271  1.2420  0.0403
28749SOL    HW289840   3.858   1.074   0.073  0.0219 -0.5215  2.7111
28750SOL     OW89841   1.285   0.454   0.151  0.0774 -0.2342  0.4261
28750SOL    HW189842   1.345   0.480   0.221  1.2580 -1.1391 -0.1994
28750SOL    HW289843   1.221   0.397   0.193 -1.5714  2.2648  1.4855
28751SOL     OW89844   7.347   4.786   8.895  0.8508 -0.1311 -0.1968
28751SOL    HW189845   7.428   4.750   8.931  2.3905  2.2763 -0.9743
28751SOL    HW289846   7.371   4.874   8.865 -2.6289  1.7263  1.8231
28752SOL     OW89847   6.174   6.080   4.201  0.3746  0.1970  0.6883
28752SOL    HW189848   6.207   5.995   4.231 -0.9721  0.2876  2.6064
28752SOL    HW289849   6.121   6.060   4.124 -0.2115 -0.7678  1.3253
28753SOL     OW89850   5.832   4.791   6.503  0.6269 -0.0285 -0.2352
28753SOL    HW189851   5.904   4.731   6.523 -1.2734 -2.1368  0.7859
28753SOL    HW289852   5.797   4.816   6.588 -1.3631 -1.0980 -0.6720
28754SOL     OW89853   5.247   2.954   7.329 -0.2168 -0.3124 -0.2946
28754SOL    HW189854   5.183   2.952   7.258 -1.1578 -0.0817  0.5281
28754SOL    HW289855   5.205   3.004   7.399  0.5844 -0.7441  0.5303
28755SOL     OW89856   2.093  10.185   8.332  0.0608  1.2102  0.7929
28755SOL    HW189857   2.174  10.206   8.285 -0.0401  0.7722  0.4160
28755SOL    HW289858   2.071  10.266   8.378 -1.1378  2.4994 -1.8184
28756SOL     OW89859   2.762  10.480   1.609  0.0696 -0.1724  0.4107
28756SOL    HW189860   2.673  10.448   1.597 -0.1386  0.7734 -0.9042
28756SOL    HW289861   2.769  10.554   1.548  1.2385  0.8054  1.6682
28757SOL     OW89862   0.102   8.453   4.769 -0.0822 -0.9761  0.3846
28757SOL    HW189863   0.140   8.402   4.840 -0.2177 -1.6832 -0.0490
28757SOL    HW289864   0.095   8.392   4.696 -0.5422 -0.4248 -0.0398
28758SOL     OW89865   7.373   9.576   7.659 -0.1835 -0.4781 -0.1361
28758SOL    HW189866   7.415   9.493   7.681 -0.6387 -1.3297 -2.2418
28758SOL    HW289867   7.337   9.562   7.571  0.3680  2.1832 -0.8795
28759SOL     OW89868   6.603   2.935   2.894 -0.2945  0.1096 -0.0749
28759SOL    HW189869   6.679   2.906   2.843 -1.1668 -2.0109 -0.2612
28759SOL    HW289870   6.531   2.881   2.863 -2.3646  3.1953 -1.1196
28760SOL     OW89871   8.282   1.969  10.151  0.2888  0.1477 -0.5650
28760SOL    HW189872   8.195   1.933  10.166 -0.0509  1.4546  0.8427
28760SOL    HW289873   8.342   1.907  10.194  0.0339 -0.5490 -1.1999
28761SOL     OW89874  10.266   9.645   3.385  0.1089 -0.1457  0.0743
28761SOL    HW189875  10.352   9.635   3.345  0.8427  0.9732  1.2665
28761SOL    HW289876  10.283   9.694   3.466 -1.7094  0.5408  0.0906
28762SOL     OW89877   1.257   0.131   5.352  0.7166 -0.6509 -0.4514
28762SOL    HW189878   1.237   0.195   5.420  1.5272 -0.8962  0.0401
28762SOL    HW289879   1.173   0.095   5.326  0.2653  0.4786 -0.6064
28763SOL     OW89880   9.072   0.267   1.791 -0.0881  0.2126 -0.3512
28763SOL    HW189881   9.065   0.348   1.741  0.4281 -1.0645 -2.6151
28763SOL    HW289882   9.022   0.202   1.741 -0.3564 -0.9429  1.3060
28764SOL     OW89883   3.948  10.513   7.194  0.4015  0.4462 -0.7415
28764SOL    HW189884   4.003  10.470   7.260 -0.6684 -0.3184 -0.3251
28764SOL    HW289885   4.001  10.588   7.165  0.4311  1.5744  1.8920
28765SOL     OW89886   3.814   3.259   5.592  0.4386 -0.0827 -0.2016
28765SOL    HW189887   3.876   3.301   5.651 -0.7393  0.5456  0.6259
28765SOL    HW289888   3.828   3.165   5.606  0.4003  0.0586  0.8402
28766SOL     OW89889   1.202   1.253   1.777 -0.0262 -0.9051  0.2597
28766SOL    HW189890   1.207   1.344   1.748  1.5860 -0.7929  0.7840
28766SOL    HW289891   1.126   1.250   1.835  0.7981  0.5104  1.4895
28767SOL     OW89892   9.719   5.329   8.869  0.1763 -0.1252 -0.0576
28767SOL    HW189893   9.758   5.243   8.882 -1.5739 -0.7855  1.1603
28767SOL    HW289894   9.745   5.379   8.947 -1.8738 -0.8058  1.1431
28768SOL     OW89895   2.481   7.108   6.552  0.3836  0.3971 -0.2380
28768SOL    HW189896   2.448   7.162   6.479 -1.9891  0.3391  0.7009
28768SOL    HW289897   2.450   7.153   6.631  0.4251 -1.0613  0.6450
28769SOL     OW89898   0.875   8.491   9.034  0.3076 -0.2662  0.2013
28769SOL    HW189899   0.956   8.533   9.005 -0.2189  0.2862 -0.4819
28769SOL    HW289900   0.843   8.547   9.105 -1.0379  1.2579 -1.5049
28770SOL     OW89901   5.206   3.566  10.384  0.4158  0.1202  0.1984
28770SOL    HW189902   5.163   3.625  10.322  0.2630 -0.1623  0.0326
28770SOL    HW289903   5.145   3.492  10.393 -0.6187  1.1621  2.3642
28771SOL     OW89904   1.211   5.971   6.345  0.0635 -0.3438  0.3540
28771SOL    HW189905   1.218   5.971   6.440 -0.9341  3.0696  0.5777
28771SOL    HW289906   1.138   5.911   6.326 -1.6271  1.0160  2.0804
28772SOL     OW89907  10.980   7.641   1.710 -0.4673  0.0004  0.3437
28772SOL    HW189908  10.976   7.715   1.770 -1.3493 -0.6594  1.1319
28772SOL    HW289909  10.917   7.578   1.745 -1.5588 -0.1117 -1.6739
28773SOL     OW89910   5.137   5.055   5.212 -0.0226 -0.1305  0.2443
28773SOL    HW189911   5.064   5.117   5.211 -0.5563 -0.7323 -1.4212
28773SOL    HW289912   5.213   5.109   5.233 -0.9260  0.4912  2.1396
28774SOL     OW89913   3.732   5.813   5.675 -0.3905 -0.1313 -0.0695
28774SOL    HW189914   3.781   5.848   5.601 -0.0824  1.4481  0.8432
28774SOL    HW289915   3.799   5.794   5.741 -0.8659  0.7113  0.6694
28775SOL     OW89916   5.156  10.645   4.989  0.1379  0.4382  0.0700
28775SOL    HW189917   5.247  10.670   4.975 -0.0705  0.1807 -1.9344
28775SOL    HW289918   5.144  10.565   4.938 -1.0298  0.0580  0.8931
28776SOL     OW89919   0.148   5.572   9.531  0.0814 -0.1117 -0.8539
28776SOL    HW189920   0.225   5.531   9.571 -0.5681 -0.2496  0.2692
28776SOL    HW289921   0.174   5.663   9.519  0.1725  0.0096  0.1904
28777SOL     OW89922   3.957   7.040   0.683  0.5241  0.4220  0.3937
28777SOL    HW189923   3.962   7.108   0.750  0.0356  1.2540 -0.3963
28777SOL    HW289924   4.043   6.997   0.686  1.7201  2.6113 -0.6879
28778SOL     OW89925  10.931   1.875   5.706 -0.5566 -0.2337 -0.0582
28778SOL    HW189926  10.996   1.825   5.656 -0.0248 -0.0312  0.4209
28778SOL    HW289927  10.882   1.808   5.754 -1.2719 -0.4557 -1.0621
28779SOL     OW89928   5.745   4.219   0.392  0.5982  0.4303 -0.2694
28779SOL    HW189929   5.769   4.130   0.421  0.1916  0.1855 -0.6698
28779SOL    HW289930   5.824   4.270   0.406  0.9683 -0.0902 -0.4083
28780SOL     OW89931   9.864   3.799  10.435 -0.1073  0.0898  0.0922
28780SOL    HW189932   9.929   3.848  10.386 -0.0466 -0.0222  0.0592
28780SOL    HW289933   9.899   3.710  10.438  0.1392  0.2079  0.7821
28781SOL     OW89934   8.857   7.991   6.354 -0.3576  0.9228 -0.3222
28781SOL    HW189935   8.932   8.041   6.320  0.1801  0.3095 -0.0649
28781SOL    HW289936   8.835   7.930   6.283  1.8139 -1.4975  0.9316
28782SOL     OW89937   5.431  10.224   4.366 -0.5579 -0.0805  0.7087
28782SOL    HW189938   5.482  10.299   4.336  0.7030 -0.0537  2.7228
28782SOL    HW289939   5.457  10.212   4.458 -0.1080 -3.4401  0.3032
28783SOL     OW89940   2.823  10.916   5.092  0.3412  0.1931 -0.4170
28783SOL    HW189941   2.772  10.996   5.100  0.0856  0.0088 -0.1733
28783SOL    HW289942   2.912  10.942   5.113  0.0520  0.1661  0.9342
28784SOL     OW89943   8.841   0.910   2.537  0.2106 -0.1945  0.1611
28784SOL    HW189944   8.784   0.987   2.532  1.2786  0.6812  1.0035
28784SOL    HW289945   8.854   0.895   2.630 -0.2811 -1.6583  0.0253
28785SOL     OW89946   0.875   8.632   1.632 -0.5543 -0.1735  0.1671
28785SOL    HW189947   0.912   8.635   1.720  0.3012 -3.3501  0.0455
28785SOL    HW289948   0.788   8.672   1.642 -0.5467 -0.5696  2.4924
28786SOL     OW89949   2.987   4.057   8.151 -0.1487  0.3275 -0.1001
28786SOL    HW189950   2.922   4.050   8.082 -1.6371  0.7260  1.2171
28786SOL    HW289951   3.069   4.030   8.109 -1.0607  0.2121 -1.9023
28787SOL     OW89952   3.743   1.130   1.054  0.2063 -0.4479  0.5584
28787SOL    HW189953   3.718   1.124   1.146  0.3857  0.5830  0.6875
28787SOL    HW289954   3.698   1.057   1.012  1.4584 -1.9995  1.7390
28788SOL     OW89955   1.855   2.904   7.376 -0.5004  0.1841  0.1284
28788SOL    HW189956   1.801   2.901   7.456  0.9281 -1.0581  1.0956
28788SOL    HW289957   1.818   2.836   7.320  1.4576 -2.4752  1.8145
28789SOL     OW89958   4.583   6.550   2.920 -0.4970 -0.1354  0.2772
28789SOL    HW189959   4.505   6.506   2.888 -1.1204  0.9010  0.3516
28789SOL    HW289960   4.655   6.489   2.900 -1.0881 -0.3305 -1.3674
28790SOL     OW89961   0.211   9.116  10.596  0.0950  0.3685  0.1669
28790SOL    HW189962   0.258   9.036  10.621 -1.2707 -0.6411 -0.3323
28790SOL    HW289963   0.219   9.120  10.501 -0.5738  0.3192  0.0990
28791SOL     OW89964   1.547   4.297  10.321 -0.4505 -0.4638  0.3129
28791SOL    HW189965   1.580   4.363  10.259 -0.4290 -3.1088 -2.7725
28791SOL    HW289966   1.452   4.308  10.319 -0.4912 -0.9082 -0.7051
28792SOL     OW89967   6.303   8.057   6.996  0.0978 -0.7862  0.0373
28792SOL    HW189968   6.220   8.060   6.948  0.0657 -1.4992  0.0285
28792SOL    HW289969   6.321   8.147   7.020  0.7409 -0.1843 -2.3831
28793SOL     OW89970   6.425   4.333   3.198 -0.0566 -0.8079 -0.0007
28793SOL    HW189971   6.413   4.308   3.107 -0.6094  0.7020 -0.3734
28793SOL    HW289972   6.342   4.312   3.241  0.3755 -1.9877  0.2900
28794SOL     OW89973   9.212   6.342   2.519  0.2914 -0.5989 -0.1337
28794SOL    HW189974   9.191   6.369   2.609 -2.5464 -2.6298 -0.0539
28794SOL    HW289975   9.218   6.247   2.523  2.0456 -0.6175 -1.8021
28795SOL     OW89976   4.903   5.016   8.573  0.0485 -0.3027 -0.2951
28795SOL    HW189977   4.895   4.940   8.515 -0.9762 -1.8880  1.7745
28795SOL    HW289978   4.823   5.014   8.625  0.2851  1.8961  0.2188
28796SOL     OW89979   3.815   1.517   3.915  0.2393 -0.2184 -0.3897
28796SOL    HW189980   3.858   1.450   3.862  2.4745  0.2379  0.6754
28796SOL    HW289981   3.781   1.580   3.852 -0.8154 -1.7048 -1.3589
28797SOL     OW89982   3.058   5.969  10.577  0.0326  0.2145  0.3002
28797SOL    HW189983   3.034   5.892  10.525  1.7541 -0.0565 -0.1451
28797SOL    HW289984   3.140   5.999  10.539  0.4154  1.0848  1.7413
28798SOL     OW89985   2.928   1.239   9.185 -0.0498 -0.4013  0.2999
28798SOL    HW189986   3.001   1.239   9.247  0.2044  1.0435  0.0394
28798SOL    HW289987   2.963   1.198   9.106  1.2057  2.1560 -0.5669
28799SOL     OW89988   4.608   2.127   1.957  0.0205  0.5898  1.0232
28799SOL    HW189989   4.539   2.098   2.016 -0.1238 -0.2226  0.4723
28799SOL    HW289990   4.649   2.201   2.002  0.0002 -0.0880  2.1882
28800SOL     OW89991   0.751  10.815  10.004 -0.0015  0.4668 -0.2558
28800SOL    HW189992   0.755  10.844   9.913  1.4219 -0.3749 -0.4897
28800SOL    HW289993   0.719  10.725   9.998  1.4836 -0.0979 -0.0698
28801SOL     OW89994   2.697   9.357   1.128 -0.0493  0.7546  0.0139
28801SOL    HW189995   2.743   9.411   1.064  0.2334  0.8359  0.2813
28801SOL    HW289996   2.631   9.416   1.166 -0.5379  0.5681 -0.5417
28802SOL     OW89997   2.190  10.201   0.544 -0.0789 -0.3904 -0.1467
28802SOL    HW189998   2.262  10.158   0.498  0.6749  2.1562 -1.5036
28802SOL    HW289999   2.114  10.185   0.489 -0.2559 -1.6310  0.4142
28803SOL     OW90000   3.693   7.779   6.979 -0.3815  0.5282 -0.3764
28803SOL    HW190001   3.698   7.840   7.053  1.9456  1.0064 -0.8267
28803SOL    HW290002   3.646   7.703   7.013 -0.2664  1.1516  1.2840
28804SOL     OW90003   0.789   4.076   1.192 -0.1564 -0.3744  0.0310
28804SOL    HW190004   0.865   4.018   1.206  0.1228  0.4275  2.0618
28804SOL    HW290005   0.800   4.146   1.256 -3.3824 -0.9856  1.4215
28805SOL     OW90006  11.034   3.386   3.536 -0.2944 -0.6258 -1.0373
28805SOL    HW190007  11.115   3.358   3.580 -0.6868  0.7681  0.6821
28805SOL    HW290008  10.964   3.350   3.591 -0.7919  1.8204  0.0533
28806SOL     OW90009   6.572   0.709   0.542  0.3147  0.7965  0.4625
28806SOL    HW190010   6.584   0.642   0.609  1.6082 -2.4322 -2.6545
28806SOL    HW290011   6.478   0.708   0.524  0.2939 -0.1174  0.5555
28807SOL     OW90012  10.403   3.144   6.080 -0.7508  0.2243 -0.1584
28807SOL    HW190013  10.321   3.102   6.105 -0.4190 -0.8859 -0.8529
28807SOL    HW290014  10.447   3.080   6.024  1.2236  0.2145  1.2833
28808SOL     OW90015   6.911   8.241   7.149  0.3102 -0.1474 -0.1482
28808SOL    HW190016   6.989   8.197   7.183 -0.3210 -0.1850  1.3434
28808SOL    HW290017   6.899   8.317   7.207  0.0648  0.6973 -1.2659
28809SOL     OW90018   2.047   2.759   1.962  0.2240 -0.5875 -0.2813
28809SOL    HW190019   2.103   2.803   2.026 -1.8393  0.2067  1.0778
28809SOL    HW290020   2.064   2.666   1.975  0.0599 -0.4229  1.2647
28810SOL     OW90021   4.985   8.020   3.570 -0.5055  0.2749 -0.5694
28810SOL    HW190022   4.991   8.095   3.630  1.0361 -0.8094  0.7430
28810SOL    HW290023   5.044   8.041   3.498  0.4087  0.0968  0.1078
28811SOL     OW90024  10.218   3.019   5.030 -0.8141  0.2669 -0.0233
28811SOL    HW190025  10.268   3.014   4.949  2.2633 -0.2516  1.7342
28811SOL    HW290026  10.246   3.101   5.071 -0.1948 -0.7344  1.6863
28812SOL     OW90027   2.872  10.452   6.233 -0.1578  0.0519 -0.2764
28812SOL    HW190028   2.818  10.377   6.209 -0.9308  0.2375  0.8063
28812SOL    HW290029   2.831  10.527   6.189 -0.3708  0.0884 -0.0161
28813SOL     OW90030   4.574   4.123   7.101  0.2230  0.1697  0.2611
28813SOL    HW190031   4.578   4.201   7.157 -0.2007 -0.4741  1.2282
28813SOL    HW290032   4.625   4.058   7.149 -1.9095 -1.0505  1.0252
28814SOL     OW90033   3.413  10.790   6.884  0.2217 -0.2070  0.0645
28814SOL    HW190034   3.365  10.707   6.876 -0.2776  0.1896 -1.3909
28814SOL    HW290035   3.375  10.846   6.817  1.0745  0.9651  0.5215
28815SOL     OW90036   8.891   7.840   3.759 -0.1439 -0.0213 -0.2525
28815SOL    HW190037   8.832   7.914   3.748 -0.6585 -0.3851 -0.0196
28815SOL    HW290038   8.841   7.764   3.729  0.5718 -0.2072 -1.0072
28816SOL     OW90039   9.140  10.138   2.978  0.4527  0.1889 -0.3005
28816SOL    HW190040   9.073  10.093   3.030 -1.6400  0.5499 -2.4790
28816SOL    HW290041   9.109  10.130   2.888  2.3422  2.1568 -1.2132
28817SOL     OW90042   1.190   9.575   4.770 -0.0814 -0.0089 -0.0826
28817SOL    HW190043   1.202   9.521   4.848 -2.4191 -0.9398 -0.3199
28817SOL    HW290044   1.201   9.515   4.696 -1.9031 -0.0513 -0.3601
28818SOL     OW90045   0.344   0.629   5.119  0.1454 -0.4957 -0.0812
28818SOL    HW190046   0.299   0.554   5.158 -3.0422  1.7489  0.9117
28818SOL    HW290047   0.355   0.691   5.191  0.3264  1.0425 -1.3819
28819SOL     OW90048   0.010   4.366   8.104  0.4787 -0.2469 -0.3645
28819SOL    HW190049  -0.052   4.345   8.174  2.1590  0.7312  1.5137
28819SOL    HW290050  -0.020   4.449   8.069  1.2927  0.8287  1.3438
28820SOL     OW90051   9.660   9.074  10.278 -0.5890  0.3146 -0.2444
28820SOL    HW190052   9.613   8.999  10.242 -0.9728  0.0939  0.7021
28820SOL    HW290053   9.724   9.096  10.210 -2.8701  1.4442 -2.2065
28821SOL     OW90054   6.350   7.812   9.265  0.1139  0.4459  0.3449
28821SOL    HW190055   6.360   7.729   9.218  2.9550  1.1012 -0.4314
28821SOL    HW290056   6.310   7.871   9.201  0.8409  0.4274 -0.1467
28822SOL     OW90057   2.086   8.494   8.420  0.1377  0.4580  0.4884
28822SOL    HW190058   2.125   8.407   8.425 -1.7003 -0.5776 -1.6507
28822SOL    HW290059   2.022   8.495   8.491 -0.4579 -0.2908 -0.0292
28823SOL     OW90060   0.496   8.728   8.831  0.0948  0.0989  0.4432
28823SOL    HW190061   0.433   8.697   8.896 -0.4137  1.1120  0.4504
28823SOL    HW290062   0.444   8.773   8.765  0.7986  1.0231  0.4862
28824SOL     OW90063   1.495   5.492   4.108 -0.1045  0.6229 -0.1354
28824SOL    HW190064   1.457   5.578   4.127  1.1342  0.9078  1.1872
28824SOL    HW290065   1.574   5.512   4.057 -1.0063  0.0980 -1.8325
28825SOL     OW90066  10.863   0.121  10.863 -0.1153 -0.0560  0.7457
28825SOL    HW190067  10.856   0.072  10.945  0.8120  0.1791  0.9803
28825SOL    HW290068  10.845   0.212  10.889  0.2301  0.0255  0.7006
28826SOL     OW90069   1.730   6.386   9.962 -0.7703 -0.5977  0.1722
28826SOL    HW190070   1.640   6.356   9.979 -0.8360 -0.2755  0.3914
28826SOL    HW290071   1.779   6.358  10.039 -0.6804 -0.7774  0.0510
28827SOL     OW90072   7.675   4.034   5.383  0.1712 -0.2901 -0.2299
28827SOL    HW190073   7.663   4.032   5.478 -0.7278 -1.4937 -0.3427
28827SOL    HW290074   7.766   4.009   5.369 -0.1747 -1.9753  0.2674
28828SOL     OW90075   8.120   6.010   7.458  0.1572  0.0321  0.2404
28828SOL    HW190076   8.150   5.927   7.422 -0.6197  0.7809 -2.3599
28828SOL    HW290077   8.080   5.987   7.542 -0.5779 -2.3181 -0.6743
28829SOL     OW90078   1.548  11.077   5.267 -0.3116 -0.3384  0.0294
28829SOL    HW190079   1.512  11.101   5.181 -0.1931  0.5437  0.2179
28829SOL    HW290080   1.643  11.092   5.258 -0.1211 -1.5359 -0.1002
28830SOL     OW90081   8.080   4.680   3.625 -0.3265 -0.0863  0.0747
28830SOL    HW190082   8.084   4.597   3.672  0.9256 -0.1017 -0.0481
28830SOL    HW290083   8.123   4.743   3.683  0.7057  0.0123 -0.7732
28831SOL     OW90084   6.140   9.760   1.566  0.1507  0.4297  0.2071
28831SOL    HW190085   6.154   9.753   1.472  1.4908 -1.9628  0.5173
28831SOL    HW290086   6.227   9.777   1.602 -0.2376  0.6010  1.0822
28832SOL     OW90087   7.584   8.147   9.707 -0.5507  0.0910  0.3520
28832SOL    HW190088   7.633   8.229   9.695  0.8666 -0.7489  0.1384
28832SOL    HW290089   7.524   8.144   9.633  1.1760 -0.2592 -1.1126
28833SOL     OW90090   9.382   6.143   1.374  0.7655  0.1958 -0.2168
28833SOL    HW190091   9.297   6.137   1.331  1.3105 -0.6524 -1.2267
28833SOL    HW290092   9.384   6.230   1.413 -1.2766 -0.4018  1.3813
28834SOL     OW90093  10.499   4.554   1.354 -0.2827 -0.2115  0.2018
28834SOL    HW190094  10.437   4.624   1.332 -0.2328 -0.5772 -1.2033
28834SOL    HW290095  10.584   4.590   1.328 -0.0347 -0.1369  1.0953
28835SOL     OW90096   5.298   1.199   7.829 -0.0713 -0.6806 -0.4643
28835SOL    HW190097   5.241   1.246   7.769  1.5733 -0.3695 -1.8526
28835SOL    HW290098   5.336   1.268   7.884 -1.7048 -0.9792  1.1322
28836SOL     OW90099  10.402   6.944   2.129 -0.4056  0.4936 -0.6571
28836SOL    HW190100  10.308   6.932   2.123 -0.1011 -2.9249 -0.7916
28836SOL    HW290101  10.433   6.867   2.177  2.3399  1.4713 -0.6422
28837SOL     OW90102   2.415   5.387   7.708 -0.0991  0.7381  0.4346
28837SOL    HW190103   2.400   5.327   7.782 -1.3988 -0.0311 -0.4058
28837SOL    HW290104   2.357   5.461   7.726 -1.4842 -0.0873 -0.4740
28838SOL     OW90105   8.384   2.436   1.575  0.1587 -0.2305  0.1048
28838SOL    HW190106   8.301   2.389   1.586  0.4882 -1.1159 -1.0078
28838SOL    HW290107   8.451   2.373   1.603  0.5728 -0.2301 -0.8464
28839SOL     OW90108   6.819   8.609   7.862 -0.2955  0.5314  1.0097
28839SOL    HW190109   6.771   8.583   7.941 -0.7068  2.2594  1.3671
28839SOL    HW290110   6.908   8.627   7.893  0.1228 -0.8168  0.6767
28840SOL     OW90111   4.666   9.206   8.830 -0.2181 -0.6132 -1.0349
28840SOL    HW190112   4.650   9.255   8.749  0.6955  0.1578 -0.7687
28840SOL    HW290113   4.644   9.268   8.900  0.9252 -0.5584 -0.6957
28841SOL     OW90114   4.944  10.248   8.936  0.2309  0.5506 -0.2455
28841SOL    HW190115   4.875  10.273   8.998 -0.3094 -1.7313  0.1533
28841SOL    HW290116   5.018  10.304   8.960 -0.5719  1.0695  1.1862
28842SOL     OW90117   4.063   5.708   9.632 -0.1580  0.1966 -0.2729
28842SOL    HW190118   4.058   5.739   9.722 -0.4321  2.3542 -0.9846
28842SOL    HW290119   4.097   5.782   9.582  0.0546 -0.9668 -1.9566
28843SOL     OW90120   5.103   1.257   3.250  0.0736 -0.3859 -0.1144
28843SOL    HW190121   5.023   1.301   3.219 -0.2012 -0.9613 -0.2442
28843SOL    HW290122   5.075   1.167   3.268  0.4721 -0.3287  0.8166
28844SOL     OW90123  10.968   8.562   0.172 -0.0416 -0.2883  0.0998
28844SOL    HW190124  11.021   8.543   0.249 -0.7991  1.1366  1.0106
28844SOL    HW290125  11.013   8.635   0.129 -0.5751  0.0967  0.1843
28845SOL     OW90126   4.783   7.209   3.632  0.1682  0.1608  0.7466
28845SOL    HW190127   4.747   7.129   3.670  1.3042  0.2941  2.1735
28845SOL    HW290128   4.716   7.238   3.569 -0.8631 -1.1518  1.1911
28846SOL     OW90129   8.526   6.571   9.378 -0.6082 -0.0101  0.6477
28846SOL    HW190130   8.569   6.567   9.464  3.6854 -1.7249 -1.3022
28846SOL    HW290131   8.562   6.649   9.337 -1.6643  0.1147 -0.0588
28847SOL     OW90132   2.227   1.899   4.824  0.3610 -0.1585 -0.6025
28847SOL    HW190133   2.205   1.828   4.884 -1.0964  1.5398  0.9689
28847SOL    HW290134   2.255   1.971   4.880 -0.8898  1.4414 -1.9153
28848SOL     OW90135   7.339   1.911   9.227 -0.2117  0.6252  0.2662
28848SOL    HW190136   7.415   1.902   9.285 -0.0813  2.4034  0.4227
28848SOL    HW290137   7.314   1.821   9.206  1.0986 -0.0130  1.3052
28849SOL     OW90138   5.871   1.013   0.187  0.0434  0.2355 -0.0430
28849SOL    HW190139   5.781   1.001   0.218  0.4239 -0.0674  0.9500
28849SOL    HW290140   5.868   0.983   0.096 -0.5253 -1.2001  0.4232
28850SOL     OW90141   5.071   4.048   2.448 -0.0438 -0.1002 -0.4404
28850SOL    HW190142   4.998   4.065   2.508  0.0818 -0.4474 -0.1876
28850SOL    HW290143   5.030   4.030   2.364 -0.1863  2.7452 -1.0953
28851SOL     OW90144   7.727  10.204   4.216 -0.4495 -0.0550  0.7134
28851SOL    HW190145   7.805  10.258   4.227 -0.4054  0.3023 -1.0171
28851SOL    HW290146   7.654  10.262   4.237 -0.3539  0.4575 -0.2765
28852SOL     OW90147  10.650   9.560  10.197 -0.1598 -0.5779 -0.1781
28852SOL    HW190148  10.610   9.581  10.282 -0.2256 -1.5967  0.0596
28852SOL    HW290149  10.605   9.480  10.169 -1.1275  0.4881 -1.8547
28853SOL     OW90150   5.308   3.223   3.070  0.0625  0.2282 -0.9532
28853SOL    HW190151   5.248   3.282   3.116  0.9214  0.8608 -0.6088
28853SOL    HW290152   5.302   3.250   2.978 -0.4093  0.0846 -0.9638
28854SOL     OW90153   7.631   9.273   8.070 -1.0005 -0.2386 -0.2580
28854SOL    HW190154   7.539   9.291   8.089 -1.5556 -2.9812  0.0798
28854SOL    HW290155   7.631   9.239   7.981 -0.3043 -0.1890 -0.2825
28855SOL     OW90156   1.923   6.054   1.452  0.0311 -0.0483 -0.1037
28855SOL    HW190157   1.843   6.002   1.462 -1.8686  2.8740  1.3433
28855SOL    HW290158   1.941   6.054   1.358 -1.4495 -1.0628 -0.4114
28856SOL     OW90159   8.314   4.794   7.741 -0.3066 -0.2075  0.2917
28856SOL    HW190160   8.328   4.745   7.660 -1.6967  0.2570 -0.2576
28856SOL    HW290161   8.376   4.868   7.734  1.3401 -1.4721  0.8381
28857SOL     OW90162   3.393   0.587   6.533  0.6857  0.0023 -0.1052
28857SOL    HW190163   3.442   0.668   6.549 -2.1203  2.0351 -0.9427
28857SOL    HW290164   3.369   0.591   6.441 -0.8273 -1.0126  0.2135
28858SOL     OW90165   8.821   1.973   0.727 -0.1904 -0.0215  0.0062
28858SOL    HW190166   8.808   1.940   0.638 -0.9184 -0.9322  0.4302
28858SOL    HW290167   8.912   2.002   0.728  0.4329 -1.7795 -0.5052
28859SOL     OW90168   9.581   7.519   2.385  0.3632  0.2762 -0.0509
28859SOL    HW190169   9.608   7.427   2.381 -0.6681 -0.0255 -0.6901
28859SOL    HW290170   9.647   7.566   2.335 -0.7132 -0.5710 -2.4432
28860SOL     OW90171   9.821   3.282  10.761 -0.3873  0.0282  0.7261
28860SOL    HW190172   9.888   3.247  10.820  0.1859  0.8480  0.5841
28860SOL    HW290173   9.848   3.253  10.674  0.0605  0.7637  0.6145
28861SOL     OW90174   9.665   5.786   8.930 -0.1455 -0.4724  0.2316
28861SOL    HW190175   9.611   5.741   8.995 -0.6544 -0.0158  0.1319
28861SOL    HW290176   9.754   5.760   8.951 -0.2521  0.0338  1.4122
28862SOL     OW90177   4.248   2.838   0.352 -0.2043  0.2980  1.1019
28862SOL    HW190178   4.282   2.927   0.345  0.2811  0.1484  1.5004
28862SOL    HW290179   4.174   2.836   0.291  3.0086 -0.5897 -3.2508
28863SOL     OW90180   3.032   6.220   9.262  0.0686  0.4266  0.7495
28863SOL    HW190181   3.097   6.193   9.197  1.6819  1.8050  1.6927
28863SOL    HW290182   2.976   6.144   9.275 -0.7348  0.2996 -2.6912
28864SOL     OW90183   5.062  10.076   1.378  0.4697 -0.1719  0.1119
28864SOL    HW190184   5.062  10.166   1.412 -0.6365 -0.5122  1.0732
28864SOL    HW290185   5.021  10.083   1.291 -0.0530  0.1900  0.3830
28865SOL     OW90186  10.377   7.582   7.911  0.5027 -0.2596  0.6100
28865SOL    HW190187  10.405   7.665   7.950  1.7674 -0.2212 -0.3390
28865SOL    HW290188  10.303   7.605   7.855  0.2078  0.0598  1.1229
28866SOL     OW90189   2.612   6.906  10.903 -0.5055  0.3357 -0.0082
28866SOL    HW190190   2.537   6.852  10.877  0.8764 -1.5794 -0.1847
28866SOL    HW290191   2.669   6.847  10.952  1.2726  1.5241 -0.5424
28867SOL     OW90192   8.382   3.230   1.660  0.1007 -0.5235  0.3585
28867SOL    HW190193   8.308   3.224   1.721 -0.1165 -0.2449  0.1224
28867SOL    HW290194   8.373   3.154   1.603 -0.9911  0.4114 -0.7680
28868SOL     OW90195   5.850   2.324   7.039 -0.0362  0.0749  0.3177
28868SOL    HW190196   5.874   2.235   7.065  0.2397  0.0293 -0.0804
28868SOL    HW290197   5.932   2.373   7.041  0.1689 -0.1537 -1.3284
28869SOL     OW90198  11.053   1.604   1.814 -0.7684 -0.7792 -0.2944
28869SOL    HW190199  11.054   1.629   1.721 -1.5829 -3.7882 -1.2080
28869SOL    HW290200  11.145   1.598   1.838 -0.5300  1.5725 -0.3665
28870SOL     OW90201   2.549  11.001   2.541 -0.4354  0.1702  0.1080
28870SOL    HW190202   2.531  10.910   2.515 -0.7259 -0.2313  1.6026
28870SOL    HW290203   2.559  10.997   2.637  3.0176  1.1152 -0.0669
28871SOL     OW90204   5.582   6.910   5.828 -0.0225 -0.1253  0.1563
28871SOL    HW190205   5.566   6.856   5.751 -0.5951  1.3797 -0.8236
28871SOL    HW290206   5.567   6.851   5.902  0.2157 -1.5118 -0.8584
28872SOL     OW90207   4.228   1.992   0.691  0.0519  0.5960 -0.3568
28872SOL    HW190208   4.231   2.071   0.637  1.4286  0.6958 -0.1867
28872SOL    HW290209   4.136   1.981   0.713 -0.3828  1.2268 -1.7310
28873SOL     OW90210   4.959   4.517   9.401 -0.3313 -0.2411  0.3885
28873SOL    HW190211   5.025   4.559   9.346 -0.8550 -1.4650 -1.2254
28873SOL    HW290212   4.960   4.425   9.376 -1.3589 -0.6428  1.6636
28874SOL     OW90213   5.629   6.487   5.191 -0.1399 -0.1611  0.6775
28874SOL    HW190214   5.610   6.462   5.282  0.5077  0.7898  1.0861
28874SOL    HW290215   5.692   6.558   5.198  3.1861 -2.6848 -0.5663
28875SOL     OW90216   0.589   1.847   3.119 -0.2652  0.2029 -0.5774
28875SOL    HW190217   0.586   1.768   3.066  0.3168 -0.5218  0.4300
28875SOL    HW290218   0.599   1.815   3.209  0.0517  1.4229 -0.1572
28876SOL     OW90219   9.738   0.892   6.008 -0.2753  0.3472  0.0454
28876SOL    HW190220   9.686   0.972   6.018 -0.2076  0.2308  1.4909
28876SOL    HW290221   9.693   0.827   6.062  0.6603 -0.1071  0.2921
28877SOL     OW90222   8.552   2.997   3.341 -0.4237 -0.3048  0.5752
28877SOL    HW190223   8.492   2.946   3.396 -0.1149  1.1891  2.4303
28877SOL    HW290224   8.629   2.940   3.331 -0.5496 -0.6812  1.6111
28878SOL     OW90225   4.675  10.109   7.571  0.1515 -0.0522 -0.3781
28878SOL    HW190226   4.673  10.083   7.479  0.2084  1.1521 -0.7319
28878SOL    HW290227   4.767  10.107   7.595  0.1788  0.0726 -0.4744
28879SOL     OW90228   7.153   0.546   7.173  0.5462 -0.4571 -0.1159
28879SOL    HW190229   7.197   0.462   7.187  0.3017 -0.4049  1.1085
28879SOL    HW290230   7.186   0.602   7.243 -0.8762 -0.1896  0.3722
28880SOL     OW90231  10.274   8.653   9.824 -0.5281  0.1645  0.2548
28880SOL    HW190232  10.242   8.593   9.756  0.3641 -0.3100  0.2462
28880SOL    HW290233  10.255   8.740   9.789  0.1085 -0.0682 -0.7006
28881SOL     OW90234   8.470   1.203  10.269 -0.0362  0.3113  0.2568
28881SOL    HW190235   8.502   1.117  10.296  0.1968 -0.2225 -1.6074
28881SOL    HW290236   8.467   1.254  10.350 -0.4173 -1.5155  1.4364
28882SOL     OW90237   7.391   3.067   9.187 -0.0152 -0.3932 -0.4166
28882SOL    HW190238   7.374   3.025   9.271  0.4170 -1.0955 -0.6749
28882SOL    HW290239   7.305   3.070   9.144 -0.0363 -1.0576 -0.4196
28883SOL     OW90240   7.732   4.162   9.830  0.3715  0.3108 -0.1612
28883SOL    HW190241   7.687   4.246   9.832 -0.3620 -0.0775 -0.0570
28883SOL    HW290242   7.705   4.123   9.747  0.3922  0.0106 -0.0262
28884SOL     OW90243   2.210   3.319   3.364  0.1704  0.1447  0.3728
28884SOL    HW190244   2.197   3.357   3.278  2.0174  0.7432  0.3063
28884SOL    HW290245   2.149   3.245   3.367  0.2839 -0.0799 -1.5603
28885SOL     OW90246   7.693  10.529   1.929 -0.0936 -0.7370 -0.5526
28885SOL    HW190247   7.729  10.487   2.007  0.5374  0.0250 -0.4232
28885SOL    HW290248   7.675  10.457   1.869  0.8978 -1.2028 -0.3035
28886SOL     OW90249   7.215   8.714   1.859 -0.3164 -0.3998  0.1389
28886SOL    HW190250   7.238   8.627   1.893  1.0907 -0.5301 -1.0261
28886SOL    HW290251   7.266   8.775   1.913  0.2876 -0.4594 -0.3534
28887SOL     OW90252   2.454   9.177   9.910  0.0532 -0.0024  0.1101
28887SOL    HW190253   2.464   9.223   9.994 -2.2755  0.0480  0.4218
28887SOL    HW290254   2.386   9.112   9.926 -0.5878  0.1448 -1.7992
28888SOL     OW90255   0.413   9.945   3.634 -0.4250 -0.1870 -0.5587
28888SOL    HW190256   0.454  10.031   3.624 -0.1070 -0.1743  0.7821
28888SOL    HW290257   0.327   9.964   3.671 -0.4668 -0.4372 -0.5245
28889SOL     OW90258  10.809   8.998  10.766  0.3188  0.0420 -0.0549
28889SOL    HW190259  10.768   9.083  10.752  0.2780 -0.1290 -1.1071
28889SOL    HW290260  10.827   8.994  10.860  0.7371  1.3846 -0.0713
28890SOL     OW90261  10.339  10.690   7.039  0.2334  0.0647  0.2272
28890SOL    HW190262  10.327  10.759   7.104 -1.9161  0.2364 -0.2780
28890SOL    HW290263  10.353  10.737   6.957  1.8191 -0.1558  0.3335
28891SOL     OW90264   5.436   7.700   1.590 -0.3422 -0.2611 -0.2972
28891SOL    HW190265   5.431   7.704   1.685  0.1109 -0.9252 -0.2406
28891SOL    HW290266   5.367   7.760   1.560 -0.2725  0.1994  0.4384
28892SOL     OW90267   5.773   1.937   9.466  0.2358  0.0460  0.1831
28892SOL    HW190268   5.800   1.983   9.387  3.5137  0.7073  1.4821
28892SOL    HW290269   5.800   1.846   9.452 -1.6981 -0.4684 -0.4551
28893SOL     OW90270   8.256   8.845   7.424 -0.1672 -0.6449  0.0468
28893SOL    HW190271   8.224   8.934   7.417 -0.6000 -0.7304  0.8893
28893SOL    HW290272   8.341   8.846   7.379 -0.3950  0.0652 -0.3734
28894SOL     OW90273   4.410   1.594  10.405  0.0346  0.1602 -0.1732
28894SOL    HW190274   4.397   1.508  10.365 -0.6195  0.0851  0.1934
28894SOL    HW290275   4.380   1.657  10.340 -0.8791  0.0446  0.1264
28895SOL     OW90276   9.344   3.474   6.952 -0.2531  0.4195  0.0294
28895SOL    HW190277   9.358   3.543   7.017  2.7650  0.4597 -0.5294
28895SOL    HW290278   9.320   3.397   7.003 -1.7270  1.3519  0.8159
28896SOL     OW90279   0.449   0.460   7.541  0.3552  0.1547 -0.4466
28896SOL    HW190280   0.469   0.385   7.597  0.1159 -0.3185 -0.9829
28896SOL    HW290281   0.355   0.452   7.524  0.4870  0.0932 -1.1861
28897SOL     OW90282  10.054   2.780   1.675  0.3272  0.5853  0.2370
28897SOL    HW190283  10.071   2.837   1.600 -1.6924  0.9011 -0.0282
28897SOL    HW290284  10.051   2.840   1.750  0.6927  0.4896  0.3289
28898SOL     OW90285   5.051   1.756   2.042  0.1152 -0.3828  0.3907
28898SOL    HW190286   4.999   1.738   1.963  0.5290 -0.4631  0.1368
28898SOL    HW290287   5.086   1.671   2.068  0.5125 -0.2544  0.2832
28899SOL     OW90288   1.202   7.695   7.788 -0.0105  0.1377 -0.0800
28899SOL    HW190289   1.285   7.648   7.777 -1.1468 -1.8214 -0.7616
28899SOL    HW290290   1.157   7.685   7.704 -1.5100 -0.0146  0.7026
28900SOL     OW90291   0.681   7.912   1.952  0.3823 -0.2833 -0.4575
28900SOL    HW190292   0.588   7.900   1.968  0.4875 -0.1567  0.2914
28900SOL    HW290293   0.704   7.844   1.889 -0.0123 -0.9695  0.1250
28901SOL     OW90294   6.073   0.518  10.793  0.1162  0.1799 -0.6768
28901SOL    HW190295   6.067   0.505  10.888  0.1316  1.8853 -0.3995
28901SOL    HW290296   6.050   0.434  10.755  1.4215 -0.9318  0.8704
28902SOL     OW90297   8.151  10.222   0.025 -0.6173  0.4587 -0.0500
28902SOL    HW190298   8.084  10.233   0.093 -0.8525  0.2806 -0.2520
28902SOL    HW290299   8.175  10.129   0.029  0.5951  0.7794  0.9280
28903SOL     OW90300   7.167   7.108   6.487  0.5946  0.1303  0.0926
28903SOL    HW190301   7.150   7.049   6.413  1.2377  1.1114 -0.8622
28903SOL    HW290302   7.233   7.062   6.540  0.9124 -0.1209 -0.5147
28904SOL     OW90303   5.274   5.629   5.972 -0.0854  0.4473 -0.3514
28904SOL    HW190304   5.189   5.656   5.939 -0.2508  1.0569  0.5272
28904SOL    HW290305   5.260   5.614   6.066  0.6380 -0.0203 -0.3048
28905SOL     OW90306   9.409   9.285   3.466 -0.2511 -0.0631 -0.0946
28905SOL    HW190307   9.471   9.290   3.539 -1.7513  0.2277  1.2221
28905SOL    HW290308   9.460   9.314   3.390  1.1029  0.6202  1.0079
28906SOL     OW90309   5.112   1.539   1.122  0.1476  0.0459 -0.0617
28906SOL    HW190310   5.123   1.633   1.133  1.5445 -0.0161 -0.6895
28906SOL    HW290311   5.139   1.501   1.206  0.5546  0.1512 -0.1448
28907SOL     OW90312   7.223   0.247   2.790 -0.0703  0.1667  0.2441
28907SOL    HW190313   7.147   0.304   2.802 -0.3475 -0.0176 -0.5554
28907SOL    HW290314   7.205   0.200   2.708  0.7698 -0.0932  0.1963
28908SOL     OW90315   2.258   1.626   6.445 -0.1137  0.3749  0.0184
28908SOL    HW190316   2.198   1.586   6.508 -0.6095 -0.3878 -0.9046
28908SOL    HW290317   2.272   1.558   6.379 -0.1116  1.3601 -1.0237
28909SOL     OW90318   3.485   7.263   5.747 -0.6116  0.7715  0.2157
28909SOL    HW190319   3.457   7.347   5.783  2.2742  2.1126 -0.4224
28909SOL    HW290320   3.506   7.281   5.656 -0.1718 -0.7322 -0.0110
28910SOL     OW90321   9.797  10.246   9.243 -0.3797 -0.7418  0.3944
28910SOL    HW190322   9.860  10.292   9.187  1.8694 -2.9291  0.9451
28910SOL    HW290323   9.731  10.211   9.183  0.7923 -1.2155 -0.6565
28911SOL     OW90324   4.987   5.848   1.369 -0.4646 -0.0554  0.1861
28911SOL    HW190325   4.927   5.903   1.319  1.1826 -0.9621 -3.0938
28911SOL    HW290326   5.048   5.909   1.410 -0.6124  0.7021 -0.6908
28912SOL     OW90327   8.938   5.555   9.705  0.7173  0.0129  0.0343
28912SOL    HW190328   8.946   5.596   9.619 -0.0535 -0.3928 -0.2358
28912SOL    HW290329   8.849   5.522   9.708  1.1010 -1.0115  0.5382
28913SOL     OW90330   6.244   4.709   6.449  0.2021 -0.2695  0.5236
28913SOL    HW190331   6.337   4.686   6.447  0.1133 -0.7513 -2.5001
28913SOL    HW290332   6.239   4.792   6.401 -0.8970 -0.1237  0.8735
28914SOL     OW90333   4.489   2.553   8.076 -0.0395  0.5980 -0.0308
28914SOL    HW190334   4.551   2.517   8.013  0.1000  1.3360 -0.3232
28914SOL    HW290335   4.498   2.497   8.153  2.0291  1.5121  0.4580
28915SOL     OW90336   5.534  10.389   2.034 -0.4978 -0.0337 -0.0132
28915SOL    HW190337   5.515  10.458   2.098  0.6941  0.0620  0.2501
28915SOL    HW290338   5.474  10.318   2.058  0.1048 -0.1040  1.4086
28916SOL     OW90339   9.060  10.434   0.024  0.0595 -0.0705 -0.4035
28916SOL    HW190340   9.004  10.429  -0.053 -0.7979 -2.1773  0.2958
28916SOL    HW290341   9.122  10.505   0.004 -3.1421  2.8375 -0.9738
28917SOL     OW90342   1.621   8.522   7.224  0.2643 -0.0771  0.0710
28917SOL    HW190343   1.678   8.504   7.149  0.3589  0.9139 -0.1083
28917SOL    HW290344   1.680   8.525   7.299  0.7520  2.5497 -0.3234
28918SOL     OW90345   6.590   9.580   1.944  0.0683 -0.2500  0.1164
28918SOL    HW190346   6.630   9.651   1.995  0.3352 -0.7604  0.6351
28918SOL    HW290347   6.597   9.503   2.001  0.0912 -0.7693 -0.5715
28919SOL     OW90348   9.991   7.748   2.066  0.3253  0.6356 -0.1411
28919SOL    HW190349   9.967   7.689   1.994  0.6824 -1.3547  1.3085
28919SOL    HW290350  10.084   7.764   2.053  0.5480 -0.2863  0.2432
28920SOL     OW90351   4.143   7.243  10.717 -0.0561 -0.6542  0.2381
28920SOL    HW190352   4.062   7.251  10.667 -0.3117 -0.4621  0.6781
28920SOL    HW290353   4.173   7.155  10.699  1.4244  0.2991 -2.6201
28921SOL     OW90354   1.625   8.930   9.570 -0.4285  0.1447 -0.2651
28921SOL    HW190355   1.563   8.985   9.522 -3.0579 -2.1110  0.3287
28921SOL    HW290356   1.601   8.940   9.661 -0.5626 -1.4712 -0.0933
28922SOL     OW90357   9.407   6.447   4.071  0.3205  0.5528  0.3825
28922SOL    HW190358   9.337   6.512   4.074 -0.3964 -0.1397 -0.6698
28922SOL    HW290359   9.438   6.440   4.161  0.6609  2.6016  0.4777
28923SOL     OW90360   4.387   0.677   2.392 -0.1711 -0.0061 -0.0254
28923SOL    HW190361   4.329   0.749   2.417  1.6033  1.7575 -0.6977
28923SOL    HW290362   4.329   0.603   2.377 -2.1421  1.4437  0.0840
28924SOL     OW90363   2.154  10.712   9.455  0.6551 -0.1214 -0.2064
28924SOL    HW190364   2.141  10.646   9.387 -0.2598  1.6933 -1.8989
28924SOL    HW290365   2.065  10.734   9.484  0.7645  1.7376 -1.1241
28925SOL     OW90366   7.306   8.122  10.386  0.0840  0.2897  0.0105
28925SOL    HW190367   7.248   8.077  10.325  2.5099 -2.4066 -0.5225
28925SOL    HW290368   7.372   8.164  10.331 -0.0850  1.4855  0.6761
28926SOL     OW90369   3.992   2.172   7.338  0.5256 -0.0863 -0.1802
28926SOL    HW190370   3.996   2.248   7.281 -3.4803 -0.4755 -1.2583
28926SOL    HW290371   4.020   2.099   7.283 -0.7354 -0.0730 -0.8725
28927SOL     OW90372   8.361   5.871  10.438  0.5984  0.1294  0.5772
28927SOL    HW190373   8.359   5.950  10.493  1.1129  0.4743  0.1092
28927SOL    HW290374   8.454   5.850  10.429  0.5033 -0.0825  0.0596
28928SOL     OW90375  10.600   5.696   3.063 -0.1175  0.0317 -0.6615
28928SOL    HW190376  10.641   5.783   3.061  0.5588 -0.2379  0.5620
28928SOL    HW290377  10.599   5.669   2.971  1.0080  0.7277 -0.9088
28929SOL     OW90378  10.276   2.102   2.060  0.1112 -0.0149  0.3636
28929SOL    HW190379  10.210   2.171   2.047 -0.6984 -0.4415  1.9455
28929SOL    HW290380  10.227   2.021   2.055  0.5798 -0.3579  1.2367
28930SOL     OW90381   0.317   9.675  11.006 -0.2873  0.2364 -0.1923
28930SOL    HW190382   0.378   9.747  11.023 -0.9350  0.4056  1.6699
28930SOL    HW290383   0.333   9.614  11.078 -2.2086  0.2352  0.2921
28931SOL     OW90384   3.010   5.161   3.955 -0.1881 -0.0574 -0.0305
28931SOL    HW190385   3.090   5.212   3.939 -0.1893 -0.2510 -0.6779
28931SOL    HW290386   2.938   5.221   3.935 -0.2161  0.2644  1.0069
28932SOL     OW90387  10.323   5.871   1.435 -0.0093 -0.1052 -0.0173
28932SOL    HW190388  10.376   5.936   1.390 -0.3125 -0.4048 -0.8293
28932SOL    HW290389  10.278   5.920   1.504  0.8289  0.2654  0.2804
28933SOL     OW90390   6.214   8.785  11.063  0.4677  0.2153  0.2068
28933SOL    HW190391   6.188   8.705  11.019 -0.5841  1.2977 -1.2323
28933SOL    HW290392   6.310   8.787  11.056  0.3198  0.7838 -2.9541
28934SOL     OW90393   0.015   8.143   8.709 -0.5610 -0.2410 -0.2721
28934SOL    HW190394   0.111   8.141   8.707 -0.4370 -1.8465  2.3353
28934SOL    HW290395  -0.012   8.084   8.639  0.4540 -1.3181  0.2032
28935SOL     OW90396   5.135   3.290   4.138 -0.2695  0.1795 -0.2256
28935SOL    HW190397   5.191   3.284   4.061 -0.6748  0.0106 -0.5144
28935SOL    HW290398   5.123   3.199   4.166  0.4015  0.2872  0.4253
28936SOL     OW90399   2.731   9.350   2.972 -0.3275 -0.1537 -0.9179
28936SOL    HW190400   2.762   9.262   2.996 -0.5852 -0.0356 -0.1062
28936SOL    HW290401   2.705   9.343   2.881  1.6156 -0.3957 -1.5123
28937SOL     OW90402   3.112   0.665   7.026  0.2694  0.3733  0.4481
28937SOL    HW190403   3.076   0.754   7.035 -0.4756  0.1541 -0.2339
28937SOL    HW290404   3.034   0.609   7.025  0.4642 -0.0064 -2.6305
28938SOL     OW90405   1.269   0.509   8.051 -0.0192  0.2828  0.2172
28938SOL    HW190406   1.285   0.567   7.977  0.8396 -0.2645 -0.0453
28938SOL    HW290407   1.356   0.477   8.075 -0.3903 -0.2430  0.8881
28939SOL     OW90408   0.954   0.557  10.363  0.1853  0.3648 -0.5507
28939SOL    HW190409   0.968   0.651  10.378 -0.0671  0.4885 -1.0522
28939SOL    HW290410   0.999   0.540  10.280  1.7855 -0.3515  0.4168
28940SOL     OW90411   2.249   0.114   9.777  0.1962 -0.6246  0.2519
28940SOL    HW190412   2.164   0.073   9.761  0.4135 -1.0719  0.2357
28940SOL    HW290413   2.255   0.123   9.872 -0.0705 -0.1577  0.2263
28941SOL     OW90414  11.089   5.686  10.183 -0.2693 -0.0606 -0.8273
28941SOL    HW190415  11.182   5.680  10.204 -0.6452 -1.0614  0.7471
28941SOL    HW290416  11.077   5.625  10.110  0.2285 -0.2905 -0.7212
28942SOL     OW90417   0.749   2.207   2.738 -0.2842 -0.2651 -0.1660
28942SOL    HW190418   0.724   2.116   2.753  2.7966 -1.0509  0.9783
28942SOL    HW290419   0.721   2.254   2.817 -1.6747 -0.2157 -0.6626
28943SOL     OW90420   6.351   4.324   7.477 -0.0876  0.1816  0.4451
28943SOL    HW190421   6.419   4.328   7.410  0.1872 -1.0365  0.6165
28943SOL    HW290422   6.274   4.363   7.436  0.6326  1.3564  0.1581
28944SOL     OW90423   0.235  10.633   5.037 -0.1117 -0.3616  0.4294
28944SOL    HW190424   0.303  10.671   4.982  0.6800 -2.5929 -0.2362
28944SOL    HW290425   0.153  10.658   4.995  0.1969  2.4406  1.2931
28945SOL     OW90426  11.074  10.856   1.590  0.5287  0.2846  0.2561
28945SOL    HW190427  11.162  10.887   1.614  1.3296 -0.3881 -1.6640
28945SOL    HW290428  11.089  10.789   1.524 -1.3837 -1.1408  1.1952
28946SOL     OW90429   2.360   0.133   2.879  0.1789 -0.5356 -0.0308
28946SOL    HW190430   2.342   0.044   2.909  2.3236 -1.6897 -1.8294
28946SOL    HW290431   2.310   0.142   2.798 -0.7557  0.2717  0.6150
28947SOL     OW90432   0.338   0.686   7.905 -0.2197  0.0404 -0.1958
28947SOL    HW190433   0.338   0.738   7.985 -0.0998  1.2639 -0.9632
28947SOL    HW290434   0.426   0.695   7.869 -0.2927 -0.4238 -0.5072
28948SOL     OW90435   4.994   7.571   4.280 -0.1905  0.0787  0.2821
28948SOL    HW190436   4.962   7.505   4.218 -1.8147  2.7323 -1.9338
28948SOL    HW290437   5.052   7.523   4.339  0.8719 -2.7898 -2.8264
28949SOL     OW90438   8.188   9.778   3.517  0.0565  0.2213  0.7416
28949SOL    HW190439   8.106   9.737   3.488  1.4823 -2.4370  0.1213
28949SOL    HW290440   8.200   9.746   3.607  0.4195  0.6045  0.8327
28950SOL     OW90441   9.072   0.786   0.675 -0.0204 -0.0354  0.7824
28950SOL    HW190442   9.135   0.729   0.631 -1.8931 -0.6914 -1.2438
28950SOL    HW290443   9.063   0.750   0.763  0.7988 -1.2346  0.3972
28951SOL     OW90444   3.119  10.101  10.126  0.4451  0.4666  0.0190
28951SOL    HW190445   3.124  10.010  10.097 -0.9313  1.3261 -3.3850
28951SOL    HW290446   3.189  10.109  10.191  0.7307 -2.9372  0.2932
28952SOL     OW90447   0.946  10.296   0.173  0.0215  0.0586 -0.0840
28952SOL    HW190448   1.035  10.319   0.148  0.0175 -1.7655 -2.0891
28952SOL    HW290449   0.912  10.374   0.216  2.2706  1.1089 -0.0733
28953SOL     OW90450   2.866   9.124   3.015 -0.5025 -0.1721  0.0808
28953SOL    HW190451   2.961   9.129   3.024 -0.5583  1.9531 -0.1486
28953SOL    HW290452   2.853   9.087   2.928  0.1786  1.9480 -0.9908
28954SOL     OW90453   8.798   1.135  11.025  0.5253  0.8860  0.1668
28954SOL    HW190454   8.889   1.152  11.050  1.2337  0.8121 -2.1988
28954SOL    HW290455   8.802   1.064  10.962 -1.5108 -1.2411  2.2187
28955SOL     OW90456   6.681   6.988   4.428  0.6289  0.0133  0.0227
28955SOL    HW190457   6.771   6.978   4.395  0.0791 -1.8204 -1.0947
28955SOL    HW290458   6.676   6.927   4.502  0.0934 -0.5154 -0.4385
28956SOL     OW90459   1.027   3.555   0.272 -0.1034  0.5742 -0.2601
28956SOL    HW190460   0.937   3.529   0.252  0.2371  0.2666 -1.4954
28956SOL    HW290461   1.076   3.472   0.274  0.1598  0.7424  0.3251
28957SOL     OW90462   8.761   2.426   4.007  0.1861 -0.2540 -0.0516
28957SOL    HW190463   8.854   2.424   3.984  0.2758  0.8036  0.1764
28957SOL    HW290464   8.723   2.492   3.949  0.0098  0.9041  1.3136
28958SOL     OW90465   2.495   9.231   1.443 -0.2462  0.4266  0.2537
28958SOL    HW190466   2.400   9.227   1.455 -0.3269  0.9160 -0.2026
28958SOL    HW290467   2.507   9.253   1.351  0.3078  0.5441  0.3513
28959SOL     OW90468  10.486   4.428  10.559 -0.5909 -0.1940 -0.3216
28959SOL    HW190469  10.552   4.462  10.498  0.2784 -0.5957  0.3760
28959SOL    HW290470  10.534   4.409  10.639 -1.8083  0.9178  0.7383
28960SOL     OW90471   9.021   7.547  10.247 -0.2615  0.2780 -0.1278
28960SOL    HW190472   8.945   7.497  10.216  0.0144  1.5190 -3.1428
28960SOL    HW290473   9.083   7.542  10.174  1.3268  1.8001  1.0635
28961SOL     OW90474   5.431   1.634  10.751 -0.6326 -0.0888  0.6892
28961SOL    HW190475   5.404   1.661  10.664  0.2175  0.3253  0.5438
28961SOL    HW290476   5.502   1.693  10.774 -0.2153 -0.7926  1.2779
28962SOL     OW90477   2.875   8.943   9.256 -0.0263 -0.2544 -0.0752
28962SOL    HW190478   2.959   8.935   9.212  0.8842  0.0573  1.5595
28962SOL    HW290479   2.825   9.004   9.201  1.3614  0.7599 -0.2565
28963SOL     OW90480   4.025   3.035   7.568  0.8507 -0.1305  0.2011
28963SOL    HW190481   4.019   3.047   7.663 -1.1798 -0.6130  0.1938
28963SOL    HW290482   3.934   3.020   7.540  1.3380  0.4529 -1.8899
28964SOL     OW90483   6.998   5.819   0.359 -0.4039 -0.7343  0.0119
28964SOL    HW190484   6.925   5.762   0.337  0.6227 -1.6679 -1.1613
28964SOL    HW290485   7.059   5.810   0.285  0.9273 -0.0431  0.9666
28965SOL     OW90486   0.639   6.761   2.186 -0.1323 -0.0059  0.2191
28965SOL    HW190487   0.594   6.729   2.265  1.4965  1.0171  1.6113
28965SOL    HW290488   0.613   6.853   2.179  1.8411  0.6707  1.1838
28966SOL     OW90489   8.846  10.200   0.517  0.7023 -0.0894 -0.0163
28966SOL    HW190490   8.791  10.188   0.440  0.8759 -0.0029 -0.1545
28966SOL    HW290491   8.809  10.140   0.583  0.3953  0.0279 -0.0807
28967SOL     OW90492   7.441   4.256  10.030 -0.7740  0.6432  0.1979
28967SOL    HW190493   7.496   4.219  10.100  1.4933  2.6134 -0.3961
28967SOL    HW290494   7.402   4.179   9.988  0.8392 -0.8520  1.2510
28968SOL     OW90495   5.221   2.594   1.723  0.9560  0.5274 -0.3696
28968SOL    HW190496   5.175   2.622   1.802 -0.0384  2.1715 -1.4547
28968SOL    HW290497   5.166   2.526   1.686  1.6784 -0.6041  0.5729
28969SOL     OW90498   2.391  10.284   8.173 -0.1293 -0.5735 -1.1423
28969SOL    HW190499   2.421  10.374   8.185  0.2997 -0.5321 -2.3338
28969SOL    HW290500   2.344  10.286   8.089 -1.1560 -1.2082 -0.5925
28970SOL     OW90501   5.165  10.264   4.296 -0.3275  0.1333  0.2290
28970SOL    HW190502   5.108  10.216   4.356  0.0284  0.5137  0.8806
28970SOL    HW290503   5.253  10.235   4.318 -0.1162  1.0104  0.5661
28971SOL     OW90504   9.994   5.116  10.908  0.6229  0.1576  0.3754
28971SOL    HW190505  10.058   5.186  10.892  2.2626 -0.9847  1.5100
28971SOL    HW290506   9.910   5.155  10.888  1.6070  1.9977 -0.4404
28972SOL     OW90507   1.590  10.697   2.142  0.5595  0.2118 -0.4440
28972SOL    HW190508   1.545  10.621   2.104  1.0833 -0.6002  0.4809
28972SOL    HW290509   1.654  10.723   2.076  0.7950 -0.5507 -0.5275
28973SOL     OW90510   7.805   9.455   4.783  0.2811 -0.2497  0.1118
28973SOL    HW190511   7.771   9.472   4.870 -1.3569  1.9152 -0.8631
28973SOL    HW290512   7.839   9.539   4.753 -0.0902 -0.7020 -1.7152
28974SOL     OW90513   8.565   7.804   8.946  0.0200 -0.8112  0.2852
28974SOL    HW190514   8.636   7.856   8.983  0.2357 -1.5986  1.0213
28974SOL    HW290515   8.502   7.869   8.914  0.6268 -0.1040  0.4896
28975SOL     OW90516   9.769   5.263   4.744 -0.4420  0.2761  0.0181
28975SOL    HW190517   9.744   5.296   4.830  0.6167  1.6652 -0.1640
28975SOL    HW290518   9.741   5.330   4.682  0.8493  0.3975 -0.4766
28976SOL     OW90519   2.448   0.107  11.053 -0.1579 -0.2866 -0.2665
28976SOL    HW190520   2.470   0.062  11.135 -0.0102  1.2177  0.5591
28976SOL    HW290521   2.500   0.188  11.055 -0.0268 -0.2883 -1.9366
28977SOL     OW90522   1.839   1.587   2.290  0.2979 -0.8411 -0.3469
28977SOL    HW190523   1.781   1.660   2.312  1.7897  0.1562  0.4595
28977SOL    HW290524   1.884   1.567   2.372  0.4426 -2.2098 -0.7348
28978SOL     OW90525   3.218   3.545   0.019  0.9949 -0.1341  0.6809
28978SOL    HW190526   3.247   3.458   0.046  1.6006  0.6340  2.7346
28978SOL    HW290527   3.165   3.577   0.092 -0.8201  0.5182 -0.8318
28979SOL     OW90528   6.125   1.518   7.589  0.0942 -0.0756  0.4901
28979SOL    HW190529   6.137   1.515   7.494  0.0763 -3.7400  0.4400
28979SOL    HW290530   6.047   1.465   7.605 -0.7707  1.6622  2.5190
28980SOL     OW90531   2.790   0.525   8.716 -0.8279 -0.3743 -0.5840
28980SOL    HW190532   2.740   0.443   8.726 -0.0156 -0.6516  1.9023
28980SOL    HW290533   2.852   0.507   8.646 -1.4654 -1.4622 -0.8967
28981SOL     OW90534   9.819   0.212   0.578 -0.3780  0.7934  0.0235
28981SOL    HW190535   9.869   0.208   0.660  0.5822  0.1519 -0.5687
28981SOL    HW290536   9.755   0.141   0.585 -0.5452  0.9752  0.3653
28982SOL     OW90537   2.322   4.224   6.851  0.1355  0.3316  0.4962
28982SOL    HW190538   2.389   4.162   6.878  1.0714  0.5816 -1.1208
28982SOL    HW290539   2.356   4.310   6.875  0.6472  0.4979 -0.7644
28983SOL     OW90540   4.962   1.580   7.520 -0.6528 -0.0137  0.1959
28983SOL    HW190541   4.986   1.511   7.458  2.4729  1.6220 -0.6349
28983SOL    HW290542   5.008   1.558   7.601 -0.1936  0.6716  0.1382
28984SOL     OW90543   0.889  10.630   4.231 -0.0136  0.2823  0.4025
28984SOL    HW190544   0.809  10.663   4.191 -0.0927 -0.4684 -0.0754
28984SOL    HW290545   0.860  10.573   4.302  0.1268  1.6576  1.6211
28985SOL     OW90546   3.750   1.033   5.266  0.5819  0.0685  0.0015
28985SOL    HW190547   3.682   1.094   5.235  0.3732 -0.5012 -0.6927
28985SOL    HW290548   3.702   0.971   5.321  0.9018  0.8955  1.2360
28986SOL     OW90549   5.758   6.522   3.591 -0.0017  0.4807 -0.1426
28986SOL    HW190550   5.815   6.527   3.514  1.8273 -1.1441  1.0023
28986SOL    HW290551   5.762   6.610   3.630  1.0950  0.6175 -0.5389
28987SOL     OW90552   0.323   5.747   4.992 -0.4683 -0.0439  0.5436
28987SOL    HW190553   0.316   5.838   5.022 -0.9700 -0.1638  0.7887
28987SOL    HW290554   0.359   5.700   5.067 -0.6794 -0.1418  0.5824
28988SOL     OW90555   2.705   3.403   4.312  0.9775 -0.1626  0.4656
28988SOL    HW190556   2.680   3.496   4.313  0.0978 -0.3710  2.4637
28988SOL    HW290557   2.628   3.358   4.279  1.8774 -0.1430 -1.8851
28989SOL     OW90558   4.148   2.214   1.558 -0.1691  0.3799  0.3409
28989SOL    HW190559   4.098   2.135   1.580  0.0278 -0.7054 -2.6505
28989SOL    HW290560   4.090   2.286   1.581 -0.1922 -0.5265  3.5544
28990SOL     OW90561   6.689   5.402   3.272 -0.1336  0.7863 -0.1210
28990SOL    HW190562   6.610   5.417   3.220 -0.8833 -0.4276  0.6290
28990SOL    HW290563   6.698   5.307   3.275 -0.1185  0.8164  1.9478
28991SOL     OW90564   1.577   9.424   1.599 -0.2437  0.2577  0.4319
28991SOL    HW190565   1.522   9.346   1.603  0.6961 -0.4525 -0.1521
28991SOL    HW290566   1.605   9.429   1.507  0.9522  0.4020  0.7932
28992SOL     OW90567   9.002   1.584   4.367  0.1220 -0.3842 -0.0833
28992SOL    HW190568   8.977   1.675   4.387 -2.7391 -1.0888  0.0473
28992SOL    HW290569   9.031   1.548   4.450 -0.1184  0.0230  0.1801
28993SOL     OW90570   0.834   1.339   6.818  0.1863 -0.0208  0.7802
28993SOL    HW190571   0.927   1.321   6.801  0.3710  0.4455  1.2320
28993SOL    HW290572   0.815   1.292   6.899 -0.4234 -1.4452 -0.1698
28994SOL     OW90573   4.507   2.516   2.137  0.4116  0.3503 -0.3526
28994SOL    HW190574   4.510   2.546   2.228  2.7834 -1.1652  0.1350
28994SOL    HW290575   4.578   2.563   2.093 -0.0759  0.3162 -1.2135
28995SOL     OW90576   7.589   5.310   2.940 -0.2692 -0.3511 -0.0912
28995SOL    HW190577   7.540   5.362   3.003  0.1669  0.9419 -0.7770
28995SOL    HW290578   7.594   5.223   2.979 -0.4813  0.2696  1.3919
28996SOL     OW90579   6.113   2.821   5.143  0.0495 -0.7100  0.2529
28996SOL    HW190580   6.171   2.897   5.144 -0.2604 -0.3533 -2.2193
28996SOL    HW290581   6.162   2.753   5.096 -0.3333 -1.4837  0.9396
28997SOL     OW90582   1.544   5.702   0.461 -0.2434  0.0224 -0.0363
28997SOL    HW190583   1.495   5.635   0.413 -0.8634  1.1743 -1.0495
28997SOL    HW290584   1.631   5.701   0.422  0.2591 -1.2454  1.0136
28998SOL     OW90585   1.240  10.348   2.789 -0.1422 -0.3850  0.6102
28998SOL    HW190586   1.301  10.421   2.799  0.7592 -0.9651 -0.4805
28998SOL    HW290587   1.297  10.272   2.778 -1.0470 -0.8703 -0.9130
28999SOL     OW90588  10.196   5.870  11.039 -0.0165  0.0867  0.3253
28999SOL    HW190589  10.204   5.953  10.992 -0.4020  0.2430  0.5340
28999SOL    HW290590  10.232   5.888  11.126  0.3984 -0.1147  0.1953
29000SOL     OW90591   1.098   3.369   7.941  0.5120 -0.0776 -0.2001
29000SOL    HW190592   1.054   3.293   7.903 -0.4294  0.1405  0.4359
29000SOL    HW290593   1.118   3.342   8.031  0.3010  0.3780 -0.0164
29001SOL     OW90594  10.564  11.075   3.978  0.2422 -0.4288 -0.1545
29001SOL    HW190595  10.616  10.998   4.001 -0.5187 -1.1478 -0.7912
29001SOL    HW290596  10.606  11.108   3.898  0.7418  0.0011  0.2754
29002SOL     OW90597   4.133   6.968   8.395  0.1703  1.1338  0.4298
29002SOL    HW190598   4.208   7.021   8.420  0.5055  0.8806 -0.0155
29002SOL    HW290599   4.142   6.887   8.446 -0.1321  1.3444  0.8232
29003SOL     OW90600   8.109   9.402   7.234  0.5040  0.4194  0.3806
29003SOL    HW190601   8.061   9.482   7.256 -0.7739 -0.2285  0.0677
29003SOL    HW290602   8.101   9.348   7.312  0.3548  0.1409  0.1728
29004SOL     OW90603  10.536  11.011   2.508  0.0602  0.2744  0.1927
29004SOL    HW190604  10.452  11.022   2.553  1.3348  2.4035  2.2974
29004SOL    HW290605  10.566  10.923   2.532 -2.5826 -1.6024 -2.6708
29005SOL     OW90606  10.721   1.367   9.733 -0.0180  0.3581  0.4067
29005SOL    HW190607  10.813   1.360   9.706 -0.2464 -0.4158 -0.2213
29005SOL    HW290608  10.725   1.388   9.826  0.8097 -0.9584  0.6967
29006SOL     OW90609   5.273   4.837   0.032 -0.4380  0.6718 -0.0732
29006SOL    HW190610   5.218   4.841   0.110 -0.5516 -1.5425 -0.0026
29006SOL    HW290611   5.361   4.819   0.065  0.0061  2.1967 -0.3306
29007SOL     OW90612   4.621   9.115   1.393  0.0964 -0.0289  0.2870
29007SOL    HW190613   4.594   9.126   1.302 -0.8170  0.1122  0.5638
29007SOL    HW290614   4.542   9.085   1.438  0.1617  1.2246  1.2974
29008SOL     OW90615   2.476  11.104  10.279  0.0078 -0.6429  0.3653
29008SOL    HW190616   2.480  11.184  10.331  0.2346 -0.5519  0.2075
29008SOL    HW290617   2.419  11.045  10.330 -1.1588  0.0499 -0.1079
29009SOL     OW90618   2.223  11.095   1.246  0.3937 -0.0341  0.6834
29009SOL    HW190619   2.157  11.048   1.297 -1.7612  2.5165  0.4197
29009SOL    HW290620   2.229  11.047   1.164  0.5322 -1.5394  1.5298
29010SOL     OW90621   6.391   4.047   6.038 -0.4579 -0.1715 -0.4013
29010SOL    HW190622   6.440   4.050   6.120 -0.0026 -0.0450 -0.6729
29010SOL    HW290623   6.436   3.981   5.986 -1.4565 -1.1157 -0.1087
29011SOL     OW90624   0.960   2.537   5.686 -0.2966  0.3514 -0.0716
29011SOL    HW190625   1.055   2.550   5.687 -0.5035  2.1560  1.7761
29011SOL    HW290626   0.944   2.474   5.756 -0.5037  0.4831 -0.0002
29012SOL     OW90627   7.388   1.759   4.147 -0.2749 -0.5797  0.1051
29012SOL    HW190628   7.338   1.778   4.226  0.2992  0.9506  0.1316
29012SOL    HW290629   7.472   1.803   4.161 -0.0007 -0.6778 -1.1578
29013SOL     OW90630   8.716   0.616   4.285  0.2168 -0.2416  0.0151
29013SOL    HW190631   8.655   0.679   4.247 -1.7439 -0.7165  2.1507
29013SOL    HW290632   8.721   0.545   4.221  3.5645  2.4172 -3.1356
29014SOL     OW90633   9.038   6.519   3.725  0.2218 -0.3055  0.2694
29014SOL    HW190634   9.076   6.571   3.654  2.8052 -1.4541  0.7008
29014SOL    HW290635   9.054   6.570   3.804 -0.0116 -0.3714  0.3616
29015SOL     OW90636   9.779   4.160   8.412 -0.2285  0.7225 -0.1990
29015SOL    HW190637   9.870   4.181   8.389 -0.4166  0.8329 -0.8715
29015SOL    HW290638   9.729   4.234   8.380 -0.5930  0.5112 -0.1211
29016SOL     OW90639   1.257  10.903   6.469 -0.5498 -0.0126 -0.5407
29016SOL    HW190640   1.299  10.965   6.409  0.8637 -0.0614  0.3575
29016SOL    HW290641   1.234  10.955   6.546 -1.1916 -0.2076 -0.5950
29017SOL     OW90642   8.274   8.485   3.245 -0.3109  0.2354  0.0968
29017SOL    HW190643   8.332   8.495   3.321 -1.2636  0.9633  0.7592
29017SOL    HW290644   8.320   8.528   3.173 -0.7579  2.3436  1.0076
29018SOL     OW90645   3.072   3.796   0.976  0.2207 -0.5500  0.0587
29018SOL    HW190646   3.015   3.720   0.967  0.4603 -0.7370  0.1279
29018SOL    HW290647   3.035   3.861   0.917  0.2651 -0.8667 -0.3205
29019SOL     OW90648   2.813   3.952   1.279  0.5663 -0.5861  0.1150
29019SOL    HW190649   2.798   3.935   1.372 -0.2859  1.8384  0.4730
29019SOL    HW290650   2.908   3.959   1.271  0.6083  0.0446  0.9913
29020SOL     OW90651  10.616   9.814   5.660 -0.2073  0.0253  0.3012
29020SOL    HW190652  10.603   9.905   5.689 -1.7596 -0.5821  1.6947
29020SOL    HW290653  10.604   9.818   5.565  1.4563  1.5268  0.1059
29021SOL     OW90654   0.496   5.777   7.867 -0.0971  0.0032 -0.1683
29021SOL    HW190655   0.492   5.714   7.796  0.7245  1.3805 -1.4865
29021SOL    HW290656   0.405   5.793   7.891 -0.3301 -1.4247 -0.0091
29022SOL     OW90657   1.918   1.549   8.733 -0.5920  0.0193  0.3349
29022SOL    HW190658   1.885   1.635   8.759 -0.8065  0.0939 -0.1681
29022SOL    HW290659   1.909   1.495   8.811 -1.9974  0.0209  0.1979
29023SOL     OW90660   3.089   2.028   8.442 -0.4033 -0.3650 -0.2054
29023SOL    HW190661   3.172   2.039   8.489 -0.4952  0.6701 -0.2759
29023SOL    HW290662   3.028   2.086   8.487 -0.6995  0.0286 -1.1043
29024SOL     OW90663   9.393   0.263   2.286 -0.2271 -0.5676  0.2056
29024SOL    HW190664   9.319   0.237   2.231 -1.4560 -0.8313  1.9302
29024SOL    HW290665   9.447   0.184   2.293  0.3541 -0.3325 -1.1798
29025SOL     OW90666   7.409   0.583   1.525  0.0425 -0.2044 -0.2295
29025SOL    HW190667   7.499   0.582   1.493 -0.1495 -1.1929 -0.7549
29025SOL    HW290668   7.356   0.555   1.451 -0.5556 -1.0442  0.4866
29026SOL     OW90669   5.751   6.655   0.063  0.5720  0.2323  0.4640
29026SOL    HW190670   5.777   6.566   0.088 -0.9333 -0.5876 -0.7220
29026SOL    HW290671   5.813   6.711   0.109  1.6225 -1.4219  1.1894
29027SOL     OW90672   0.311   3.423   3.703 -0.5333 -0.1370  1.2543
29027SOL    HW190673   0.322   3.479   3.627  0.7815 -1.6130  0.2952
29027SOL    HW290674   0.383   3.446   3.761  0.2288 -1.0249  0.6956
29028SOL     OW90675   3.665   9.319   9.073  0.4844 -0.2307  0.2763
29028SOL    HW190676   3.657   9.327   9.168 -1.3208  0.7355  0.0881
29028SOL    HW290677   3.583   9.355   9.039  1.2529 -0.2069 -1.6757
29029SOL     OW90678   1.674   4.213  10.993 -0.4618  0.1558 -0.4506
29029SOL    HW190679   1.669   4.135  11.048  1.3821  0.7503  0.6544
29029SOL    HW290680   1.675   4.179  10.904 -1.8145 -0.9261 -0.0893
29030SOL     OW90681   0.797   8.734   5.685 -0.0518  0.5956  0.4653
29030SOL    HW190682   0.788   8.737   5.780  2.6282  0.3330  0.7912
29030SOL    HW290683   0.845   8.813   5.662  1.7032 -0.6189 -0.2908
29031SOL     OW90684   5.106   1.416   4.744 -0.0272  0.5101 -0.1550
29031SOL    HW190685   5.172   1.437   4.810  0.2592  0.3899 -0.3987
29031SOL    HW290686   5.143   1.449   4.662 -1.1408  2.2218 -0.0123
29032SOL     OW90687   1.172   6.069   8.531  0.0143 -0.2300  0.0104
29032SOL    HW190688   1.154   6.108   8.445 -0.0962  0.0432  0.1559
29032SOL    HW290689   1.134   6.131   8.594  0.9975  0.1047  0.3059
29033SOL     OW90690   3.451   0.646   2.343  0.1456  0.2720  0.2468
29033SOL    HW190691   3.368   0.624   2.385 -1.6212  2.6186 -1.6876
29033SOL    HW290692   3.449   0.597   2.261 -0.2395  1.5880 -0.5823
29034SOL     OW90693  10.564   8.760  10.079 -0.2405 -0.1420 -0.4153
29034SOL    HW190694  10.606   8.814  10.012  1.1503 -0.7455 -0.0551
29034SOL    HW290695  10.632   8.744  10.144 -1.3414 -0.2451  0.7547
29035SOL     OW90696   0.477   3.679   6.590 -0.0014  0.2171 -0.1011
29035SOL    HW190697   0.463   3.658   6.682 -1.6295  1.0304 -0.1203
29035SOL    HW290698   0.401   3.641   6.545 -1.1143  2.7990 -0.5972
29036SOL     OW90699   9.269  10.244   7.301  0.2571 -0.0884 -0.1960
29036SOL    HW190700   9.203  10.274   7.363 -0.1804 -2.4343  0.5742
29036SOL    HW290701   9.312  10.171   7.345  2.0621  0.1387 -1.4666
29037SOL     OW90702   4.097   4.028   0.088 -0.5487 -0.0388  0.4744
29037SOL    HW190703   4.090   4.025   0.183 -2.1880  0.2316  0.3994
29037SOL    HW290704   4.161   4.096   0.070  1.5499 -1.6698  1.3959
29038SOL     OW90705   7.210   5.665   9.425  0.3770 -0.2446  0.1034
29038SOL    HW190706   7.197   5.585   9.373  1.1244  0.2953 -0.9513
29038SOL    HW290707   7.304   5.664   9.447  0.3133  0.1550  0.4071
29039SOL     OW90708   0.034   1.806   5.977 -0.2515  0.1763  0.8683
29039SOL    HW190709   0.026   1.713   5.997 -0.9384 -0.3697 -1.6540
29039SOL    HW290710   0.107   1.835   6.031 -0.0118 -1.8006  1.7135
29040SOL     OW90711   4.717  10.693  10.286 -0.0446  0.2658 -0.6094
29040SOL    HW190712   4.622  10.684  10.281 -0.1479  1.3877 -1.1007
29040SOL    HW290713   4.744  10.628  10.351 -1.2870  0.7682  0.4719
29041SOL     OW90714   4.214   1.532   7.329  0.2848  0.2992  0.4235
29041SOL    HW190715   4.184   1.538   7.239 -1.1741 -0.6738  0.8088
29041SOL    HW290716   4.294   1.585   7.332 -0.3390  1.3679 -1.1222
29042SOL     OW90717   6.214   4.414   3.373  0.2817  0.1698  0.3538
29042SOL    HW190718   6.227   4.370   3.457  0.1365  0.2545  0.4215
29042SOL    HW290719   6.132   4.463   3.384  1.0121  1.3580  0.6573
29043SOL     OW90720   4.414   1.822   0.810  0.0443  0.3203 -0.5009
29043SOL    HW190721   4.350   1.888   0.782 -0.6350 -0.6416 -1.2941
29043SOL    HW290722   4.381   1.793   0.895 -0.4556 -0.0035 -0.7990
29044SOL     OW90723   4.824   1.802   1.554  0.3757 -0.1447 -0.7037
29044SOL    HW190724   4.789   1.732   1.498  2.6577 -1.6244 -0.4083
29044SOL    HW290725   4.883   1.850   1.496  0.9906 -0.2569 -0.1736
29045SOL     OW90726   9.142  10.669   2.608  0.0839  0.0757  0.0728
29045SOL    HW190727   9.203  10.706   2.671  0.1570 -0.2780  0.2114
29045SOL    HW290728   9.119  10.742   2.550 -0.4778  0.5603  0.8926
29046SOL     OW90729  10.807   3.747   4.352 -0.1718 -0.1865  0.2752
29046SOL    HW190730  10.892   3.769   4.315  0.2470 -0.2254  1.1830
29046SOL    HW290731  10.751   3.730   4.276  0.3139  0.9757 -0.3637
29047SOL     OW90732   1.214   3.433   0.573  0.0919 -0.0251  0.1199
29047SOL    HW190733   1.220   3.523   0.542 -1.6923  1.1032  2.7761
29047SOL    HW290734   1.121   3.411   0.567  0.6850 -2.4767 -2.2401
29048SOL     OW90735   8.281   9.260   6.475  0.0100 -0.1552 -0.0314
29048SOL    HW190736   8.264   9.303   6.558 -2.8802 -1.5754  0.2179
29048SOL    HW290737   8.302   9.170   6.499 -0.2462 -0.4263 -0.8018
29049SOL     OW90738   7.067   1.283   8.320  0.2635 -0.2225  0.0575
29049SOL    HW190739   7.012   1.226   8.266 -0.0345 -0.1071  0.2376
29049SOL    HW290740   7.056   1.370   8.281  0.6277 -0.2638 -0.1454
29050SOL     OW90741  10.947   5.344  10.709  0.6890 -0.3838 -0.0961
29050SOL    HW190742  11.032   5.368  10.670  1.0206 -0.5017  0.5346
29050SOL    HW290743  10.890   5.417  10.688  1.0139 -0.1936 -0.3319
29051SOL     OW90744   6.491   0.596   3.182 -0.5821  0.4814 -0.3181
29051SOL    HW190745   6.402   0.607   3.151 -1.0988  1.5070  1.4133
29051SOL    HW290746   6.535   0.677   3.158 -0.9990  1.3046  1.5513
29052SOL     OW90747   2.248   6.807  10.305  0.5834  1.4102  0.1797
29052SOL    HW190748   2.164   6.851  10.301 -0.0015  0.2251 -1.8417
29052SOL    HW290749   2.234   6.724  10.259  2.7562  1.0471  0.0684
29053SOL     OW90750   2.109   9.450   6.571 -0.5284  0.2653 -0.2815
29053SOL    HW190751   2.066   9.377   6.616  2.0853 -1.4178 -0.3363
29053SOL    HW290752   2.071   9.450   6.484 -0.2862 -1.3438 -0.4164
29054SOL     OW90753   0.791   8.441   0.351  0.1192 -0.1145  0.5053
29054SOL    HW190754   0.743   8.361   0.328 -0.7746  0.6371 -0.2923
29054SOL    HW290755   0.823   8.475   0.267  1.0905  0.0181  0.9088
29055SOL     OW90756   8.896   4.715  10.424  0.3452 -0.1425 -0.4579
29055SOL    HW190757   8.836   4.651  10.462  0.6294  0.5182  1.1710
29055SOL    HW290758   8.977   4.667  10.410  0.7880 -0.0260  1.4299
29056SOL     OW90759   8.187   7.410  10.896 -0.3432  0.1183  0.4961
29056SOL    HW190760   8.140   7.477  10.945 -1.1336  0.1579 -0.3010
29056SOL    HW290761   8.266   7.393  10.948  0.1108  1.9977  0.4647
29057SOL     OW90762   2.209   9.351   0.975 -0.2321 -0.2040 -0.4084
29057SOL    HW190763   2.242   9.264   0.995  0.8402  0.1889 -0.3546
29057SOL    HW290764   2.281   9.393   0.927 -0.7737  0.6076 -0.5393
29058SOL     OW90765   5.918  11.099   7.684  0.3025  0.1398 -0.0352
29058SOL    HW190766   5.914  11.052   7.767  0.5020  0.2496  0.0385
29058SOL    HW290767   5.840  11.154   7.683 -1.2734 -1.9248 -1.1931
29059SOL     OW90768   5.071   8.551   1.301 -0.5823  0.2294  0.4317
29059SOL    HW190769   5.134   8.486   1.272 -0.9644  0.8869 -2.0786
29059SOL    HW290770   5.111   8.591   1.378  2.1293  0.7218 -1.1437
29060SOL     OW90771   4.234   7.679  10.425  0.0442  0.0609  0.2401
29060SOL    HW190772   4.255   7.608  10.486 -1.3670  0.2467  0.9918
29060SOL    HW290773   4.265   7.648  10.340  0.9617 -0.7301  0.8459
29061SOL     OW90774  10.016   4.333   7.719  0.5197 -0.2503 -0.5333
29061SOL    HW190775   9.922   4.316   7.720  0.9396 -3.1174 -0.0411
29061SOL    HW290776  10.043   4.312   7.629  0.6683  0.8858 -0.7671
29062SOL     OW90777   0.469   9.087   2.803  0.2982 -0.3742 -0.2924
29062SOL    HW190778   0.449   9.172   2.843 -0.4288 -0.9130  0.5318
29062SOL    HW290779   0.546   9.104   2.748  0.0302  0.8591 -0.3188
29063SOL     OW90780   1.054   6.493   7.377 -0.4725 -0.0048  0.1207
29063SOL    HW190781   1.139   6.488   7.420 -0.1172  0.8628 -0.4439
29063SOL    HW290782   1.027   6.402   7.365  0.7152 -0.3130 -0.3424
29064SOL     OW90783   6.466   7.245   5.553  0.2247 -0.7678 -0.3334
29064SOL    HW190784   6.373   7.234   5.575 -0.1348  3.7262  1.3968
29064SOL    HW290785   6.512   7.206   5.627 -0.4162 -0.5588  0.1945
29065SOL     OW90786   4.051   9.635   5.667  0.6840 -0.2618  0.3595
29065SOL    HW190787   3.961   9.619   5.640 -0.0163  1.3376  1.5561
29065SOL    HW290788   4.103   9.626   5.587 -0.7684  0.4600 -0.7099
29066SOL     OW90789   1.464   8.471   0.446  0.1248  0.1404 -0.0148
29066SOL    HW190790   1.417   8.475   0.363 -2.4317 -1.5936  1.2259
29066SOL    HW290791   1.556   8.461   0.421 -0.7673 -2.7585 -2.7313
29067SOL     OW90792   6.201   5.382   3.760  0.6363 -0.2107 -0.1640
29067SOL    HW190793   6.250   5.453   3.800 -0.1100  0.0460  0.3194
29067SOL    HW290794   6.127   5.367   3.819 -0.6208  0.3319 -1.5159
29068SOL     OW90795   5.737  10.374   3.590  0.0954  0.0240  0.0308
29068SOL    HW190796   5.693  10.294   3.563  0.7144 -0.7055  1.0962
29068SOL    HW290797   5.700  10.394   3.676  0.2535  0.6439 -0.0378
29069SOL     OW90798   6.615   5.101   7.209 -0.3858 -0.3404  0.1105
29069SOL    HW190799   6.637   5.038   7.277 -0.5549 -2.3260 -1.5807
29069SOL    HW290800   6.611   5.185   7.255  0.4457 -1.4333  2.3423
29070SOL     OW90801   1.202   3.336   8.619 -0.2877  0.1715  0.5519
29070SOL    HW190802   1.127   3.396   8.623 -1.3527 -1.1827  2.4456
29070SOL    HW290803   1.213   3.306   8.709  1.7450 -0.6540  0.0691
29071SOL     OW90804   9.529   5.392   4.187  0.2702  0.2205 -0.0867
29071SOL    HW190805   9.492   5.478   4.168  2.0509  1.0220 -0.1632
29071SOL    HW290806   9.594   5.378   4.118  1.4203 -0.2637  1.0393
29072SOL     OW90807   2.541   4.020   1.396  0.0516  0.3453  0.0142
29072SOL    HW190808   2.570   3.935   1.429  2.3901  0.9359 -0.3151
29072SOL    HW290809   2.544   4.078   1.472 -1.6166  0.1419  0.2552
29073SOL     OW90810   1.570   9.991   9.954  0.5006 -0.2462 -0.4852
29073SOL    HW190811   1.547  10.038   9.874  0.1935 -0.2085 -0.3790
29073SOL    HW290812   1.498   9.929   9.967 -0.9200  1.6174  1.2173
29074SOL     OW90813   8.261   8.291   9.880 -0.2590 -0.4886 -0.3122
29074SOL    HW190814   8.179   8.317   9.923  0.6460  1.6813  0.2383
29074SOL    HW290815   8.243   8.301   9.787 -0.8939 -0.9445 -0.2467
29075SOL     OW90816   1.978   6.964   3.381 -0.0210 -0.0774  0.7324
29075SOL    HW190817   1.936   7.027   3.440  0.1715 -1.2910  2.2410
29075SOL    HW290818   2.065   7.000   3.365 -0.8486  1.4086 -0.7208
29076SOL     OW90819   0.490   7.119   2.626 -0.4232  0.8822  0.0246
29076SOL    HW190820   0.400   7.122   2.659 -1.0162 -0.6598 -1.3400
29076SOL    HW290821   0.486   7.164   2.542 -0.0280  0.3372 -0.2885
29077SOL     OW90822   2.176   1.246  10.848 -0.4563  0.1624 -0.3209
29077SOL    HW190823   2.114   1.210  10.911  0.4746  0.8188  1.0185
29077SOL    HW290824   2.246   1.284  10.902  1.5510 -1.3001 -1.7731
29078SOL     OW90825   3.994   6.264   6.907 -0.5039 -0.1753 -0.7136
29078SOL    HW190826   4.069   6.282   6.851 -1.2799  1.3013 -1.3349
29078SOL    HW290827   4.023   6.191   6.962  0.7847 -0.7289 -2.0384
29079SOL     OW90828   1.915   6.376  10.180 -0.0236  0.7275 -0.1841
29079SOL    HW190829   1.856   6.314  10.223  0.4120  1.1663  1.1127
29079SOL    HW290830   2.003   6.345  10.202  0.2478  0.3529 -1.6931
29080SOL     OW90831  11.068   6.971   5.203 -0.5468 -0.1725 -0.3690
29080SOL    HW190832  11.013   6.895   5.187  1.1005 -1.5126  0.0746
29080SOL    HW290833  11.158   6.938   5.197  0.2415  1.1850  2.2580
29081SOL     OW90834   9.462   8.313   4.305 -0.6505 -0.5281 -0.3993
29081SOL    HW190835   9.390   8.250   4.298 -0.7525 -0.6851  1.4378
29081SOL    HW290836   9.536   8.270   4.262 -1.1205 -1.2572 -0.5065
29082SOL     OW90837   5.196   8.682   5.190  0.1252  0.3583 -0.0084
29082SOL    HW190838   5.113   8.728   5.178 -0.6696 -0.6402  1.4302
29082SOL    HW290839   5.217   8.647   5.104 -0.0386  2.0612 -0.7835
29083SOL     OW90840   5.182   1.974   3.064  0.8340  0.3841 -0.2197
29083SOL    HW190841   5.246   2.045   3.063 -0.2957  1.5661  2.1138
29083SOL    HW290842   5.229   1.900   3.101  1.2302  0.8418  0.2106
29084SOL     OW90843   6.885  10.817   3.518 -0.4471  0.9183 -0.1131
29084SOL    HW190844   6.886  10.741   3.460  2.2103  0.5568  0.2399
29084SOL    HW290845   6.869  10.892   3.460 -0.1405  0.3455 -0.9523
29085SOL     OW90846   4.373  11.049   7.673 -0.2870  0.1403  0.5336
29085SOL    HW190847   4.437  11.060   7.602 -0.5381  1.0782  0.4309
29085SOL    HW290848   4.421  11.072   7.752  0.1842 -1.5567  0.7773
29086SOL     OW90849   8.811   8.101   8.741 -0.4076 -0.0471 -0.0045
29086SOL    HW190850   8.769   8.039   8.680 -1.5254  0.1576  0.5314
29086SOL    HW290851   8.764   8.183   8.727 -1.2848 -0.2038  1.7070
29087SOL     OW90852   4.550   4.465   2.821 -0.8474  0.1894  0.0256
29087SOL    HW190853   4.457   4.488   2.820 -1.0741 -0.7001 -0.0072
29087SOL    HW290854   4.562   4.421   2.906 -0.3126  0.8452  0.3033
29088SOL     OW90855   0.515   8.858   2.507  0.1233  0.0648 -0.2475
29088SOL    HW190856   0.528   8.941   2.554 -0.7026  0.3677 -0.5439
29088SOL    HW290857   0.479   8.798   2.573  0.8198 -0.1044 -0.0055
29089SOL     OW90858  10.503   1.741   7.530  0.0745 -0.0473 -0.5757
29089SOL    HW190859  10.512   1.812   7.466  1.7200 -0.7209 -1.1491
29089SOL    HW290860  10.574   1.756   7.593  1.0561 -1.6460 -1.2220
29090SOL     OW90861   7.034   7.460   5.594 -0.6193  0.2672  0.1349
29090SOL    HW190862   7.064   7.502   5.513 -0.8685  2.0947  0.9468
29090SOL    HW290863   6.941   7.479   5.598 -0.7893 -0.5779  0.4302
29091SOL     OW90864   4.643  10.829   2.677 -0.3066  0.1274  0.1143
29091SOL    HW190865   4.591  10.785   2.610 -0.3334  0.6911 -0.2386
29091SOL    HW290866   4.693  10.895   2.630 -1.3756  1.4873  0.7982
29092SOL     OW90867   1.413   4.418   0.748 -0.1683 -0.0998 -0.3590
29092SOL    HW190868   1.376   4.377   0.826  0.7261 -0.5368 -0.1565
29092SOL    HW290869   1.351   4.397   0.678  0.0359 -1.4335 -0.1635
29093SOL     OW90870   5.213   0.638   9.190 -0.3911  0.2757 -0.4066
29093SOL    HW190871   5.184   0.609   9.276  0.1230 -2.1753 -0.9811
29093SOL    HW290872   5.154   0.593   9.129 -1.0008  2.2713 -1.3756
29094SOL     OW90873   2.763   0.956   8.073 -0.0908 -0.1782  0.1600
29094SOL    HW190874   2.814   1.037   8.074  1.3633 -1.0412 -0.7554
29094SOL    HW290875   2.805   0.901   8.140  1.5236 -1.6266 -1.9139
29095SOL     OW90876   2.539   0.922   4.440  0.0383 -0.0643  0.1300
29095SOL    HW190877   2.610   0.938   4.502  0.4087 -2.1077  0.3028
29095SOL    HW290878   2.480   0.996   4.452  1.1269  0.6368  1.4453
29096SOL     OW90879   5.333   6.137   4.635  0.0820 -0.0566  0.0203
29096SOL    HW190880   5.280   6.096   4.703  0.2708 -1.4525 -0.6385
29096SOL    HW290881   5.345   6.227   4.665 -1.2190 -0.1828  1.0103
29097SOL     OW90882   7.481   1.748   7.345 -0.3999  0.1921  0.3297
29097SOL    HW190883   7.549   1.750   7.278 -0.2528  0.7906  0.4987
29097SOL    HW290884   7.455   1.655   7.349  0.3820 -0.0385  0.2486
29098SOL     OW90885   0.069   7.674   9.245 -0.3054 -0.2004 -0.0840
29098SOL    HW190886   0.152   7.709   9.212  0.1120 -1.2285 -0.1593
29098SOL    HW290887   0.061   7.588   9.203 -0.6462 -0.7713  1.1176
29099SOL     OW90888   1.354  10.000   6.260  0.1999  0.5743  0.1361
29099SOL    HW190889   1.373  10.083   6.218  0.6782  0.5938  0.3903
29099SOL    HW290890   1.415   9.938   6.221  0.1209  0.4268  0.2429
29100SOL     OW90891   1.678   7.362   1.142 -0.2436  0.4435  0.3615
29100SOL    HW190892   1.711   7.452   1.150 -4.0437  1.9778  1.0982
29100SOL    HW290893   1.708   7.333   1.056  1.5700  2.1872  0.3416
29101SOL     OW90894   8.107   1.415   4.993  0.1360 -0.1241 -0.2178
29101SOL    HW190895   8.191   1.374   5.012 -0.7316 -1.6893  0.4838
29101SOL    HW290896   8.096   1.482   5.060 -0.1430 -1.4375  1.0979
29102SOL     OW90897   6.193   7.262   5.553  0.4105 -0.0669  0.3004
29102SOL    HW190898   6.171   7.355   5.545  0.9872  0.0654  0.2170
29102SOL    HW290899   6.156   7.236   5.637 -1.2690 -0.1958 -0.4455
29103SOL     OW90900   1.285   1.769   0.310  0.2274 -0.0740 -0.7808
29103SOL    HW190901   1.241   1.816   0.239  0.5655  0.6024 -0.5557
29103SOL    HW290902   1.222   1.771   0.382 -0.2417 -1.0352 -1.1491
29104SOL     OW90903   8.746   6.708  10.166  0.3828  0.4098  0.2968
29104SOL    HW190904   8.810   6.684  10.233 -0.8427  2.5925  2.4000
29104SOL    HW290905   8.661   6.698  10.209 -0.7772 -1.8889 -2.2469
29105SOL     OW90906   6.197  10.143   1.786 -0.1615  0.1177  0.1811
29105SOL    HW190907   6.201  10.238   1.777 -0.1877  0.2228  1.1269
29105SOL    HW290908   6.182  10.111   1.697 -0.1764  0.9949 -0.1460
29106SOL     OW90909   0.817   7.366   2.976 -0.0022 -0.0028 -0.0625
29106SOL    HW190910   0.763   7.309   3.030 -0.7971  1.2090  0.4589
29106SOL    HW290911   0.775   7.363   2.890  1.8738 -2.7853 -1.0476
29107SOL     OW90912   2.225   8.190   4.029 -0.7919 -0.1305  0.4809
29107SOL    HW190913   2.156   8.126   4.015  0.2200 -1.8970  2.9022
29107SOL    HW290914   2.210   8.257   3.962 -2.5657 -2.3086 -1.4632
29108SOL     OW90915   8.262   3.096   9.187 -0.0798 -0.2088 -0.4820
29108SOL    HW190916   8.347   3.095   9.231 -0.4426  1.0483  0.3096
29108SOL    HW290917   8.230   3.186   9.199 -2.2198 -1.0320  0.6649
29109SOL     OW90918   3.053   2.311   0.534 -0.6822  0.3686  0.4884
29109SOL    HW190919   3.064   2.363   0.613 -0.8910  1.1682  0.0083
29109SOL    HW290920   3.073   2.372   0.463 -2.1270  0.1377 -0.1394
29110SOL     OW90921   0.409   8.155   7.428  0.2380  0.2046 -0.4786
29110SOL    HW190922   0.456   8.238   7.434 -0.6123  0.6968 -0.4861
29110SOL    HW290923   0.349   8.167   7.355  1.3085 -1.0490 -1.6302
29111SOL     OW90924   8.784   1.990   7.189 -0.2106 -0.0160 -0.1040
29111SOL    HW190925   8.727   2.027   7.255 -0.9436 -0.3137 -0.5569
29111SOL    HW290926   8.749   1.902   7.173  0.8495 -0.5066  0.1820
29112SOL     OW90927   3.159   9.467   1.062  0.0755 -0.3896  0.3730
29112SOL    HW190928   3.146   9.412   1.139 -1.6540  0.8627  1.0203
29112SOL    HW290929   3.216   9.414   1.005 -1.1576 -2.6905  1.1301
29113SOL     OW90930   3.196   2.039   6.649  0.5451 -0.3091  0.3749
29113SOL    HW190931   3.241   2.045   6.733 -1.1674  0.0372  1.3098
29113SOL    HW290932   3.224   2.117   6.602 -0.0772  0.5982  1.4607
29114SOL     OW90933   6.378   5.560   3.912  0.4365 -0.2414 -0.3796
29114SOL    HW190934   6.351   5.649   3.890  0.7624 -0.0531 -0.0432
29114SOL    HW290935   6.366   5.554   4.007  0.9518 -0.3660 -0.3170
29115SOL     OW90936   1.359   8.258   9.971 -0.9132 -0.1980 -0.1998
29115SOL    HW190937   1.271   8.284   9.945 -0.5579  1.7499  0.3770
29115SOL    HW290938   1.401   8.230   9.890 -1.7637 -0.2263 -0.6398
29116SOL     OW90939   4.751  10.424   3.489 -0.1950 -0.1735 -0.2009
29116SOL    HW190940   4.836  10.467   3.476 -0.2269 -0.1075 -0.1891
29116SOL    HW290941   4.686  10.489   3.464 -0.2323 -0.3927 -0.6821
29117SOL     OW90942   9.317   8.507   4.948 -0.3852 -0.4025  0.1132
29117SOL    HW190943   9.303   8.569   4.876 -0.1652 -1.0686 -0.5163
29117SOL    HW290944   9.237   8.455   4.950 -0.2055 -0.6821  0.0540
29118SOL     OW90945   9.029   7.198   6.434  0.1698 -0.3031 -0.2478
29118SOL    HW190946   9.113   7.171   6.471 -0.0003 -0.4854  0.0145
29118SOL    HW290947   9.049   7.277   6.384  0.5831 -0.6174 -0.5871
29119SOL     OW90948   1.627   2.969   9.418 -0.2309 -0.3385 -0.0219
29119SOL    HW190949   1.534   2.945   9.420 -0.0389 -1.1240  1.7361
29119SOL    HW290950   1.652   2.974   9.510  1.2636  0.7771 -0.4530
29120SOL     OW90951   3.810   5.146   7.238  0.1193 -0.3168 -0.2769
29120SOL    HW190952   3.737   5.120   7.294  0.7081  1.1993  1.2483
29120SOL    HW290953   3.798   5.094   7.158 -0.6762 -2.6210  1.2537
29121SOL     OW90954   5.436   0.790   9.197  0.6551 -0.2150  0.1120
29121SOL    HW190955   5.503   0.737   9.241 -0.2102 -1.1221  0.3727
29121SOL    HW290956   5.355   0.740   9.208  0.0736  0.4864 -0.8746
29122SOL     OW90957   8.010   3.845   6.421  0.1545  0.1550 -0.0287
29122SOL    HW190958   8.073   3.896   6.371  0.3763 -0.5589 -0.4868
29122SOL    HW290959   8.030   3.864   6.512  1.7324 -0.8907 -0.1327
29123SOL     OW90960   6.116   3.142   7.757  0.4776  0.2733 -1.0574
29123SOL    HW190961   6.210   3.157   7.766  0.4498  0.0885 -0.4141
29123SOL    HW290962   6.097   3.071   7.818  0.1275 -0.5087 -2.0418
29124SOL     OW90963  10.178   6.187   8.544  0.2728 -0.4967 -0.6472
29124SOL    HW190964  10.235   6.239   8.487 -0.8949  1.3273 -0.2736
29124SOL    HW290965  10.223   6.186   8.628 -0.1642  0.9345 -0.3540
29125SOL     OW90966   9.520   6.655   1.596 -0.3814  0.4303 -0.1281
29125SOL    HW190967   9.445   6.655   1.655 -0.8414  2.0374 -0.6669
29125SOL    HW290968   9.484   6.631   1.511  0.2488 -1.6990  0.1382
29126SOL     OW90969   0.751   3.638   0.244 -0.1530  0.1967  0.2006
29126SOL    HW190970   0.747   3.733   0.238 -1.0851  0.1959  0.6583
29126SOL    HW290971   0.691   3.606   0.177  0.7522 -0.0977 -0.4918
29127SOL     OW90972   2.989   6.123  10.265 -0.0529  0.2114  0.4722
29127SOL    HW190973   2.915   6.174  10.231  0.1355  1.7853  2.3041
29127SOL    HW290974   3.042   6.186  10.313  3.1272 -0.6211 -1.6421
29128SOL     OW90975   4.818   9.745   3.319  0.0395  0.0728 -0.7766
29128SOL    HW190976   4.756   9.718   3.250 -0.7404 -0.4291  0.0941
29128SOL    HW290977   4.763   9.790   3.384  0.5128 -0.7046  0.1882
29129SOL     OW90978   6.787   5.800   2.380  0.1581  0.2315  0.2598
29129SOL    HW190979   6.759   5.744   2.452 -1.1968 -0.1168 -0.5038
29129SOL    HW290980   6.744   5.884   2.396  2.0136  1.0362  1.2869
29130SOL     OW90981   0.540   8.215   0.101  0.5297  0.2820  0.1129
29130SOL    HW190982   0.479   8.288   0.091  1.8002  1.1593 -1.9055
29130SOL    HW290983   0.484   8.138   0.115 -0.8358  1.5710  2.3972
29131SOL     OW90984   7.525  10.406   0.288  0.0710  0.1028 -0.3732
29131SOL    HW190985   7.542  10.391   0.381  0.3794 -0.6978 -0.5488
29131SOL    HW290986   7.462  10.338   0.264  0.8288 -0.3996 -0.9965
29132SOL     OW90987   4.330   9.731   0.488 -1.0161 -0.2919  0.6784
29132SOL    HW190988   4.409   9.726   0.434 -1.2502  0.6097  0.2341
29132SOL    HW290989   4.354   9.787   0.561 -2.1384  2.7755 -1.1446
29133SOL     OW90990   8.873   2.561   7.890 -0.4888  0.1875  0.4013
29133SOL    HW190991   8.917   2.478   7.908 -0.4834  0.0488 -0.2425
29133SOL    HW290992   8.918   2.625   7.946  0.8446  0.1362 -0.5874
29134SOL     OW90993   4.481   1.493   7.474 -0.0983  0.1095 -0.3451
29134SOL    HW190994   4.567   1.455   7.457  0.1085 -0.2552  1.3224
29134SOL    HW290995   4.474   1.566   7.413  1.9974  1.0270  0.4552
29135SOL     OW90996   2.914  10.015   0.123 -0.1130  0.5380  0.0066
29135SOL    HW190997   2.831   9.971   0.109  0.4307 -0.8531  0.9525
29135SOL    HW290998   2.980   9.956   0.086  0.5826  0.8008  0.7679
29136SOL     OW90999   2.014   2.710   9.421  0.0506 -0.0418 -1.0218
29136SOL    HW191000   1.931   2.723   9.376 -1.7737  1.7935  2.4868
29136SOL    HW291001   2.007   2.621   9.458  0.3675 -0.4828 -1.9906
29137SOL     OW91002   0.149  10.924   5.548  0.5340  0.1347 -0.1228
29137SOL    HW191003   0.204  10.907   5.625 -0.7726  0.5589  0.9425
29137SOL    HW291004   0.154  10.843   5.497 -1.2535 -1.5188  2.1258
29138SOL     OW91005   3.482   0.249   9.735  0.2499  0.3941 -0.0473
29138SOL    HW191006   3.398   0.260   9.691  0.1049 -1.1663 -0.2335
29138SOL    HW291007   3.532   0.328   9.713 -0.7168  0.7688 -0.9635
29139SOL     OW91008   4.289  11.005   9.159  0.0377  0.3357 -0.1128
29139SOL    HW191009   4.214  10.951   9.134 -1.1130  1.8369 -0.0558
29139SOL    HW291010   4.254  11.065   9.226  1.2380  1.1911 -0.2196
29140SOL     OW91011   0.097   8.125   3.788 -0.4929  0.2370 -0.3158
29140SOL    HW191012   0.070   8.034   3.774 -0.4191  0.2381 -0.4689
29140SOL    HW291013   0.179   8.118   3.837 -1.3162  0.2480  1.1335
29141SOL     OW91014   8.146   8.844   1.875 -0.2910  0.1551 -0.3402
29141SOL    HW191015   8.155   8.788   1.797 -1.2768 -0.9485  0.3135
29141SOL    HW291016   8.083   8.799   1.930  0.7641  0.6479  1.3592
29142SOL     OW91017   2.814   4.504  10.531 -0.0749  0.0562  0.2353
29142SOL    HW191018   2.768   4.511  10.614 -0.6404  1.8332 -0.1942
29142SOL    HW291019   2.903   4.533  10.551  0.3259 -1.3291  0.5944
29143SOL     OW91020  10.152   4.796   0.488 -0.0756  0.2479  0.3262
29143SOL    HW191021  10.058   4.803   0.473 -0.0194  0.5849  0.1297
29143SOL    HW291022  10.191   4.806   0.401  0.1726  0.6908  0.4895
29144SOL     OW91023   5.696   7.288  10.808 -0.1168 -0.0872  0.4329
29144SOL    HW191024   5.611   7.262  10.772 -0.4888  0.7653  0.6891
29144SOL    HW291025   5.759   7.259  10.742 -0.6029 -0.6774  0.2147
29145SOL     OW91026   7.801   5.113   5.981 -0.1831  0.8992  0.0248
29145SOL    HW191027   7.709   5.092   5.965  0.3419 -0.9903 -0.6725
29145SOL    HW291028   7.797   5.186   6.043 -2.1490  0.1185  0.9300
29146SOL     OW91029   1.413   6.427   2.032 -0.1466 -0.0121  0.1234
29146SOL    HW191030   1.344   6.467   1.980 -0.1848  0.1272  0.2811
29146SOL    HW291031   1.369   6.396   2.111 -0.0376  0.0387  0.2043
29147SOL     OW91032   0.357   6.447   9.025  0.0382  0.0367  0.9513
29147SOL    HW191033   0.303   6.368   9.028 -0.2056  0.0281 -1.6706
29147SOL    HW291034   0.304   6.511   8.978  2.1050  0.1463 -1.4226
29148SOL     OW91035   1.511   2.836   2.357  0.2947  0.3105 -0.5997
29148SOL    HW191036   1.553   2.870   2.435 -0.2901  0.0621 -0.1659
29148SOL    HW291037   1.509   2.910   2.296  0.7493  0.5062 -0.3775
29149SOL     OW91038   5.557   2.014   3.052  0.2576 -0.3479 -0.2129
29149SOL    HW191039   5.618   2.085   3.031  0.4118 -0.3875  0.0944
29149SOL    HW291040   5.498   2.050   3.118  0.5778 -0.6217  0.2298
29150SOL     OW91041   9.744   9.826  10.557 -0.1918 -0.1007  0.3995
29150SOL    HW191042   9.725   9.911  10.597 -0.7171  0.6150 -1.3120
29150SOL    HW291043   9.664   9.802  10.511  0.6745 -0.4528 -0.9702
29151SOL     OW91044   6.857   4.817   9.054 -0.4345  0.2195  0.3763
29151SOL    HW191045   6.884   4.811   8.963  1.3493  1.7374  0.7546
29151SOL    HW291046   6.845   4.726   9.081 -0.9072 -0.2620 -1.3127
29152SOL     OW91047  10.267  10.971   3.062  0.0114  0.0945  0.3861
29152SOL    HW191048  10.181  10.967   3.104  0.5673 -0.4375  1.5211
29152SOL    HW291049  10.323  11.016   3.125  0.3478  1.3503 -0.7692
29153SOL     OW91050   5.851   1.963   9.726  0.5260  0.3808 -0.3006
29153SOL    HW191051   5.815   2.051   9.736  1.0970  0.6300 -0.4080
29153SOL    HW291052   5.787   1.917   9.671 -0.1987  0.4620  0.4537
29154SOL     OW91053   1.375   8.326   0.016 -0.0759 -0.2031 -0.0036
29154SOL    HW191054   1.290   8.304   0.053 -0.3222  0.8890  0.0989
29154SOL    HW291055   1.436   8.321   0.089 -0.2052 -0.0859  0.1107
29155SOL     OW91056   1.346   0.686   4.963  0.5333  0.7337  0.0633
29155SOL    HW191057   1.319   0.722   5.047  0.5790  1.2914 -0.1562
29155SOL    HW291058   1.430   0.728   4.945 -0.4272  2.2296 -1.2273
29156SOL     OW91059   1.016   7.991   9.196  0.0187  0.2844  0.3720
29156SOL    HW191060   0.988   8.043   9.121 -0.8821  0.3527  0.7430
29156SOL    HW291061   1.092   7.942   9.165  2.0757  3.1455  0.4978
29157SOL     OW91062   5.999   0.173   4.223  0.6880  0.5813 -0.4568
29157SOL    HW191063   5.962   0.260   4.232 -0.3111  0.2213 -0.8561
29157SOL    HW291064   5.941   0.129   4.160  0.5378 -0.7102  0.5360
29158SOL     OW91065   0.888   1.924   3.575  0.0324  0.4855 -0.9485
29158SOL    HW191066   0.981   1.903   3.568  0.2397  1.1574 -0.3133
29158SOL    HW291067   0.870   1.920   3.669 -1.3083 -2.6301 -1.1986
29159SOL     OW91068   2.210   6.359   9.277  0.4519  0.1377  0.2989
29159SOL    HW191069   2.304   6.341   9.282  0.1055 -1.5640  1.2705
29159SOL    HW291070   2.178   6.345   9.366 -0.7105  0.8906  0.0269
29160SOL     OW91071   2.490   7.018   8.352  0.7364 -1.2449  0.6838
29160SOL    HW191072   2.470   7.013   8.446  1.4112  0.0652  0.9186
29160SOL    HW291073   2.583   6.997   8.347  0.7308 -1.1836  0.3187
29161SOL     OW91074   5.872  10.608   2.609  0.5922 -0.2678 -0.1443
29161SOL    HW191075   5.900  10.631   2.697  1.4722 -0.4255 -0.3708
29161SOL    HW291076   5.881  10.513   2.604 -1.8773 -0.6043  0.3937
29162SOL     OW91077  10.639   2.774   0.918  0.4235  0.2031 -0.0856
29162SOL    HW191078  10.591   2.783   1.000  0.7606  1.9210 -0.0443
29162SOL    HW291079  10.622   2.684   0.890  1.0005 -0.7025  2.2877
29163SOL     OW91080   7.172   3.017   3.755  0.0631 -0.0226  0.0707
29163SOL    HW191081   7.082   3.011   3.723  0.6491 -1.2469 -1.4633
29163SOL    HW291082   7.163   3.022   3.851 -1.6448  0.9268 -0.1039
29164SOL     OW91083   8.778   8.734   7.529  0.1844  0.5533  0.1304
29164SOL    HW191084   8.766   8.802   7.596 -1.0728  1.5535 -1.0540
29164SOL    HW291085   8.712   8.668   7.552 -0.7273  1.2251 -0.4897
29165SOL     OW91086   0.956   5.248   2.488  0.2684  0.3607  0.7846
29165SOL    HW191087   0.888   5.297   2.441  1.1369  0.4071 -0.4893
29165SOL    HW291088   1.018   5.223   2.419  0.4910 -1.4498  1.6111
29166SOL     OW91089  10.129   3.902   9.729  0.1327  0.2245 -0.0321
29166SOL    HW191090  10.119   3.982   9.781  2.0738  0.0578  0.6733
29166SOL    HW291091  10.124   3.831   9.793 -1.2427 -0.2383 -0.6123
29167SOL     OW91092   6.739   0.853   8.620  0.1436 -0.1331  0.0024
29167SOL    HW191093   6.732   0.758   8.612 -1.5379  0.0884 -2.8138
29167SOL    HW291094   6.671   0.877   8.683 -0.9185 -0.7029 -0.8857
29168SOL     OW91095   6.170   6.906  10.497  0.1559  0.0284 -0.1276
29168SOL    HW191096   6.171   6.814  10.523  0.0709 -0.3622 -1.4369
29168SOL    HW291097   6.229   6.949  10.559 -1.3700 -0.5212  1.7717
29169SOL     OW91098   4.762   3.252   8.191  0.0572  0.1109 -0.2009
29169SOL    HW191099   4.670   3.227   8.184  0.0336  0.6369 -2.6021
29169SOL    HW291100   4.795   3.250   8.101  2.3539  0.1709  0.5535
29170SOL     OW91101   8.014   0.075   7.713 -0.1245  0.6759 -0.3277
29170SOL    HW191102   7.936   0.125   7.688 -0.3119  1.3217  1.4450
29170SOL    HW291103   8.085   0.140   7.712  0.6050 -0.0356 -2.6037
29171SOL     OW91104  10.683   0.964  10.758  0.1052 -0.0533 -0.2797
29171SOL    HW191105  10.603   0.992  10.713  1.0494  2.6088 -0.4525
29171SOL    HW291106  10.660   0.965  10.851  0.0767  1.3056 -0.2855
29172SOL     OW91107   5.453   8.503   3.358  0.1041  0.2265  0.2660
29172SOL    HW191108   5.474   8.592   3.386 -0.5423  1.1466 -1.9871
29172SOL    HW291109   5.365   8.487   3.392 -0.0940  0.7670  0.0152
29173SOL     OW91110   7.854   3.082   9.553 -0.1207 -0.0508  0.1392
29173SOL    HW191111   7.903   3.133   9.488 -0.1467 -1.1503 -0.7763
29173SOL    HW291112   7.881   3.118   9.637  0.5488  0.8588 -0.4398
29174SOL     OW91113   3.360   6.123   2.674  0.3767 -0.2109  0.2922
29174SOL    HW191114   3.448   6.099   2.647  0.4522 -0.9426  1.1362
29174SOL    HW291115   3.352   6.215   2.650  1.7950  0.1983  1.2578
29175SOL     OW91116   8.914   3.517   6.457 -0.0373  0.3751  0.3121
29175SOL    HW191117   8.964   3.590   6.420  0.7356  0.1260  0.8178
29175SOL    HW291118   8.838   3.558   6.497  0.5370  0.9545  0.8406
29176SOL     OW91119   1.851   9.491   9.742 -0.1658  0.7053  0.6067
29176SOL    HW191120   1.762   9.520   9.722 -0.8944 -0.7128  1.6037
29176SOL    HW291121   1.843   9.442   9.824  1.4046 -0.0520  0.3558
29177SOL     OW91122  11.002   2.651   5.057 -0.1700  0.1175  0.0101
29177SOL    HW191123  11.041   2.659   5.144  2.8327  1.0398 -1.2968
29177SOL    HW291124  11.019   2.561   5.031 -0.7758 -0.0624  0.2129
29178SOL     OW91125   7.591   7.832   8.079 -0.4346  0.1029 -0.1878
29178SOL    HW191126   7.600   7.913   8.029  0.3661 -0.0125 -0.2385
29178SOL    HW291127   7.616   7.763   8.017  0.3934 -0.0541  0.3159
29179SOL     OW91128  11.076   4.212   0.360 -0.1384  0.6704  0.0903
29179SOL    HW191129  10.991   4.178   0.334 -0.6708  2.3451 -0.4907
29179SOL    HW291130  11.084   4.190   0.453 -1.4855  1.0301  0.3086
29180SOL     OW91131   7.367   9.693   3.790 -0.2040  0.2940 -0.1193
29180SOL    HW191132   7.461   9.687   3.807 -0.2447  0.7209  0.2693
29180SOL    HW291133   7.350   9.787   3.781 -0.2628  0.1353 -2.1416
29181SOL     OW91134   3.593   6.446  10.897  0.3286 -0.4421 -0.2138
29181SOL    HW191135   3.597   6.523  10.840 -3.2346  0.6153  0.6883
29181SOL    HW291136   3.683   6.433  10.927  1.6395  1.2883 -3.0130
29182SOL     OW91137   7.736   1.615  10.740 -0.1731  0.1418  0.2655
29182SOL    HW191138   7.767   1.614  10.650 -2.2671 -0.2505 -0.5258
29182SOL    HW291139   7.765   1.531  10.777  3.6680  1.6706  1.1779
29183SOL     OW91140   7.624  10.559   1.390  0.6288 -0.2909  0.1761
29183SOL    HW191141   7.710  10.572   1.351  1.1280 -0.9277  1.0063
29183SOL    HW291142   7.625  10.613   1.469  0.5861 -0.9162  0.6173
29184SOL     OW91143   8.683   9.478   5.008 -0.0892 -0.1104 -0.5221
29184SOL    HW191144   8.763   9.531   5.004  1.0052 -1.7311 -1.0413
29184SOL    HW291145   8.649   9.477   4.919 -0.1088 -0.2780 -0.5142
29185SOL     OW91146   8.702  10.228   3.342 -0.1107 -0.1633  0.1332
29185SOL    HW191147   8.751  10.252   3.263 -0.1440 -0.2614  0.0829
29185SOL    HW291148   8.658  10.310   3.368  1.6031  0.4327  1.2917
29186SOL     OW91149   1.204   6.246   0.589  0.1284 -0.1349 -0.3462
29186SOL    HW191150   1.137   6.201   0.641  0.4209 -1.0124 -0.7273
29186SOL    HW291151   1.207   6.199   0.506  1.1230 -0.0117 -0.3929
29187SOL     OW91152   2.810   9.385   7.790  0.5372  0.7922 -0.4422
29187SOL    HW191153   2.769   9.394   7.705  1.3094  1.4224 -0.7596
29187SOL    HW291154   2.821   9.475   7.822  0.9957  0.6051 -0.0456
29188SOL     OW91155   6.441  10.281   1.585  0.1668  0.4424 -0.0463
29188SOL    HW191156   6.478  10.255   1.500 -0.7942 -0.5661 -0.1834
29188SOL    HW291157   6.435  10.200   1.634  0.2736  0.9531  0.8237
29189SOL     OW91158  10.309   3.066   7.459 -0.7340 -0.2982  0.0217
29189SOL    HW191159  10.311   3.130   7.530 -0.7947 -0.2897  0.0159
29189SOL    HW291160  10.385   3.088   7.405 -0.7477 -0.2386  0.0262
29190SOL     OW91161   9.048   0.656   1.277  0.1628  0.0847  0.0571
29190SOL    HW191162   9.059   0.596   1.204  0.6609  0.7477 -0.4319
29190SOL    HW291163   9.024   0.739   1.235  2.2582  0.9604  0.4733
29191SOL     OW91164   7.621   6.905   9.251  0.8146 -0.8828 -0.0132
29191SOL    HW191165   7.573   6.870   9.177  0.2516 -0.5994  0.2059
29191SOL    HW291166   7.595   6.997   9.255  2.6527 -0.2704 -0.9017
29192SOL     OW91167   2.013   6.087   9.900 -0.4079 -0.0872 -0.0135
29192SOL    HW191168   2.023   6.152   9.830 -0.2525 -1.0054 -0.8781
29192SOL    HW291169   1.919   6.085   9.917 -0.3894  0.5312  0.2042
29193SOL     OW91170   4.427   5.663  10.445 -0.0784  0.5321  0.5087
29193SOL    HW191171   4.426   5.714  10.526  0.4912  0.6620  0.4391
29193SOL    HW291172   4.416   5.729  10.376 -2.3247  0.2610  0.5322
29194SOL     OW91173   8.006   1.754   4.431 -0.8530 -0.1005  0.1999
29194SOL    HW191174   8.095   1.728   4.454 -0.6052  1.9864  1.9586
29194SOL    HW291175   7.956   1.673   4.433  1.0232 -1.3650 -1.1108
29195SOL     OW91176   7.706   1.039   6.494 -0.1366 -0.0091  0.0948
29195SOL    HW191177   7.624   1.050   6.447  0.2993 -1.3625 -1.0537
29195SOL    HW291178   7.769   1.092   6.446 -0.0763  0.0470  0.2350
29196SOL     OW91179   7.625   8.179   1.110 -0.2482 -0.6600 -0.0764
29196SOL    HW191180   7.571   8.110   1.072 -3.3063  0.6067  1.6195
29196SOL    HW291181   7.667   8.137   1.186 -0.9886 -1.0094  0.1480
29197SOL     OW91182   5.389   2.831   5.797  0.2018  0.2311  0.2010
29197SOL    HW191183   5.391   2.830   5.701  1.2566  0.7974  0.1977
29197SOL    HW291184   5.299   2.808   5.820  0.3805 -1.7693 -0.8861
29198SOL     OW91185   2.720   0.935   1.687  0.2360 -0.0234 -0.0925
29198SOL    HW191186   2.760   1.021   1.672  3.1383 -1.4322 -1.0089
29198SOL    HW291187   2.728   0.890   1.603 -0.7133 -1.4257  0.5390
29199SOL     OW91188   6.134   9.362   0.330 -0.9452 -0.3293 -0.2077
29199SOL    HW191189   6.120   9.269   0.345  1.0730 -0.5338  0.7278
29199SOL    HW291190   6.197   9.366   0.258  1.4335  0.1201  1.7639
29200SOL     OW91191   0.300   9.651  10.741 -0.2187  0.1493 -0.0149
29200SOL    HW191192   0.243   9.727  10.726 -1.0989 -0.1630  1.5381
29200SOL    HW291193   0.302   9.641  10.836  0.7644 -1.1212 -0.1437
29201SOL     OW91194   5.205   0.861   8.112 -0.0727  0.8063 -0.0711
29201SOL    HW191195   5.211   0.766   8.111 -0.1389  0.7751  1.3514
29201SOL    HW291196   5.262   0.889   8.040 -0.3954 -0.3099 -0.7745
29202SOL     OW91197   3.275   6.623  10.950  0.0351 -0.6096 -0.4323
29202SOL    HW191198   3.250   6.549  11.006 -2.7154 -0.2696 -1.0531
29202SOL    HW291199   3.238   6.601  10.864 -1.8879  1.9091 -0.3667
29203SOL     OW91200   5.900   8.523   9.753  0.1369 -0.3980 -0.1472
29203SOL    HW191201   5.931   8.610   9.730  1.4261 -0.8389 -0.1854
29203SOL    HW291202   5.949   8.464   9.695 -2.4387 -1.0372 -1.8375
29204SOL     OW91203   8.295   5.898  10.896  0.2372  0.1175 -0.0498
29204SOL    HW191204   8.254   5.982  10.919  0.5747  0.6448 -1.2485
29204SOL    HW291205   8.225   5.849  10.853 -0.0189 -0.3066  0.8462
29205SOL     OW91206   0.920   5.120   8.029 -0.2606 -0.3217 -0.3252
29205SOL    HW191207   0.873   5.194   7.990 -0.4051 -0.4146 -0.3263
29205SOL    HW291208   0.938   5.062   7.955  0.2277 -0.0880 -0.3954
29206SOL     OW91209  10.812   3.047   7.034 -0.2772  0.0082  0.0167
29206SOL    HW191210  10.834   2.990   6.960 -0.8247 -0.6933  0.3819
29206SOL    HW291211  10.824   2.991   7.111 -3.4037 -0.4955  0.2495
29207SOL     OW91212   4.049   8.542   7.409  0.6879 -0.0950  0.7441
29207SOL    HW191213   4.044   8.471   7.473 -0.2199  1.9185  3.0524
29207SOL    HW291214   4.143   8.561   7.401  0.8443 -0.7010  1.0990
29208SOL     OW91215   2.255   5.457   0.531  0.0264  0.1758 -0.0203
29208SOL    HW191216   2.174   5.409   0.515  0.7363 -1.1815  0.2110
29208SOL    HW291217   2.315   5.424   0.464  0.4681  0.9761 -0.0299
29209SOL     OW91218   2.909   3.385   0.802  0.4585  0.6200 -0.0078
29209SOL    HW191219   2.866   3.452   0.857 -0.5650 -0.8217  1.0175
29209SOL    HW291220   3.000   3.385   0.833 -0.1076 -0.2006  1.7976
29210SOL     OW91221   6.711   7.808   5.924  0.3310 -0.0756 -0.4074
29210SOL    HW191222   6.631   7.856   5.947 -0.3542 -1.5999  0.5690
29210SOL    HW291223   6.775   7.876   5.903 -1.4167  1.1950 -2.0103
29211SOL     OW91224   0.878   1.424   1.543 -0.2476  0.2494  0.0431
29211SOL    HW191225   0.904   1.339   1.509  2.0026  0.3250  1.4073
29211SOL    HW291226   0.793   1.409   1.584 -0.5881 -0.9626 -1.0393
29212SOL     OW91227   2.964   0.719   2.877 -0.2790 -0.0482 -0.3649
29212SOL    HW191228   2.868   0.723   2.874 -0.2255  1.6423 -1.9464
29212SOL    HW291229   2.988   0.784   2.943 -0.2319  1.3670 -1.6923
29213SOL     OW91230   8.075   8.826   9.823  0.0331  0.5648 -0.5887
29213SOL    HW191231   8.057   8.833   9.917  1.4486  0.6078 -0.2956
29213SOL    HW291232   8.169   8.843   9.815  0.2952 -1.1143 -1.8132
29214SOL     OW91233   5.444   9.338   0.578  0.0336  0.4594  0.3203
29214SOL    HW191234   5.396   9.258   0.558 -1.0875  1.0460  0.5649
29214SOL    HW291235   5.530   9.308   0.607  0.3984 -0.5627 -1.6561
29215SOL     OW91236   2.034   9.188   8.213  0.0577 -0.2291 -0.0052
29215SOL    HW191237   2.045   9.236   8.131  2.5777  1.2419  1.0870
29215SOL    HW291238   2.099   9.117   8.208  0.7687  0.3347  0.9999
29216SOL     OW91239   0.765   9.060   6.884 -0.1457  0.3612  0.1737
29216SOL    HW191240   0.723   9.141   6.912 -0.9784  0.0286 -0.0636
29216SOL    HW291241   0.811   9.083   6.803 -0.2936  0.6155  0.1619
29217SOL     OW91242  11.013   0.911   7.336 -0.1238 -0.3497 -0.0085
29217SOL    HW191243  11.062   0.991   7.320 -0.2960 -0.0239  0.9850
29217SOL    HW291244  11.070   0.859   7.392 -1.8075  1.1546  3.4467
29218SOL     OW91245   8.117  10.795   9.859 -0.4147 -0.2361 -0.2592
29218SOL    HW191246   8.041  10.817   9.913 -0.5119  1.8408 -1.1315
29218SOL    HW291247   8.083  10.736   9.792 -0.6287 -1.5443  0.9592
29219SOL     OW91248   8.292   0.239   3.386 -0.2250 -0.5504 -0.4021
29219SOL    HW191249   8.356   0.309   3.382  0.1401 -0.8614 -0.0537
29219SOL    HW291250   8.213   0.281   3.421  0.0903 -0.3792  0.1157
29220SOL     OW91251   4.230   4.989  10.713 -0.2489 -0.0105 -0.6220
29220SOL    HW191252   4.308   5.010  10.763  0.4594 -0.6797 -1.4110
29220SOL    HW291253   4.244   5.032  10.628 -0.7356 -0.1245 -0.7632
29221SOL     OW91254   8.030   5.873   9.052  0.4100  0.1581  0.1425
29221SOL    HW191255   7.977   5.837   8.980  0.2052 -0.3789  0.5557
29221SOL    HW291256   7.983   5.847   9.131 -0.6240  2.6491  0.4557
29222SOL     OW91257   0.130   3.099  10.112  0.1579 -0.0823 -1.0003
29222SOL    HW191258   0.067   3.132  10.177 -0.4168  0.9137 -2.0244
29222SOL    HW291259   0.091   3.017  10.080 -0.7297  0.6245 -1.7605
29223SOL     OW91260   9.964   1.114   5.554 -0.6425 -0.6817  0.5910
29223SOL    HW191261  10.042   1.111   5.609  0.2997 -0.2897 -0.6916
29223SOL    HW291262   9.891   1.118   5.616  0.4788  3.5099  1.9056
29224SOL     OW91263   7.478   1.322   9.967 -0.3558 -0.2880 -0.2248
29224SOL    HW191264   7.535   1.360  10.035  0.2831  2.1063 -1.9578
29224SOL    HW291265   7.392   1.317  10.009  0.4652 -1.1485  1.4936
29225SOL     OW91266   4.484   4.040   2.097 -0.4822 -0.3304 -0.0012
29225SOL    HW191267   4.397   4.001   2.090 -1.1702  1.1393 -0.1020
29225SOL    HW291268   4.472   4.113   2.157  0.2557  0.9928 -1.4008
29226SOL     OW91269  11.019   4.548   2.196 -0.2014 -0.1019 -0.3550
29226SOL    HW191270  10.968   4.540   2.276 -0.3613 -1.4457 -0.5609
29226SOL    HW291271  11.105   4.580   2.225 -1.4458  3.4860 -0.1568
29227SOL     OW91272   2.079  10.653   8.204  0.3390 -0.0993  0.0051
29227SOL    HW191273   2.147  10.613   8.149  0.6301  1.3800 -0.7548
29227SOL    HW291274   2.127  10.687   8.279 -0.0902 -2.3291  1.3675
29228SOL     OW91275   7.178   5.385   6.605  0.5576  0.6189 -0.3995
29228SOL    HW191276   7.122   5.455   6.640  1.1400  0.1921  1.4941
29228SOL    HW291277   7.224   5.350   6.681  0.8846 -1.3126 -1.4090
29229SOL     OW91278   2.607  10.962   7.175  0.3260  0.3535  0.3725
29229SOL    HW191279   2.566  10.940   7.258  0.1478  1.3496  0.5587
29229SOL    HW291280   2.539  11.008   7.125 -0.0184 -1.4073 -0.8918
29230SOL     OW91281   8.445  10.685   6.931  0.1061  0.3105  0.1991
29230SOL    HW191282   8.380  10.751   6.910  0.0012  0.3671  0.6922
29230SOL    HW291283   8.529  10.730   6.923  0.2786 -0.2990 -2.6048
29231SOL     OW91284   4.590   0.314   5.334 -0.4894  0.3061  0.0612
29231SOL    HW191285   4.596   0.230   5.288 -0.5234  0.5268 -0.3539
29231SOL    HW291286   4.502   0.346   5.312 -0.7881  0.0743  0.8786
29232SOL     OW91287   7.725   9.800   1.010 -0.1160 -0.0861 -0.0758
29232SOL    HW191288   7.776   9.721   1.029  0.6674  0.4044 -0.0609
29232SOL    HW291289   7.707   9.839   1.095  2.1908  1.3697 -0.1409
29233SOL     OW91290   7.558   6.159   7.592  0.7311  0.4067 -0.2947
29233SOL    HW191291   7.507   6.094   7.545  1.1399  0.2907 -0.5817
29233SOL    HW291292   7.645   6.156   7.552  0.8711  0.8382 -0.0396
29234SOL     OW91293   7.632   9.685   2.914  0.8707  0.9374 -0.3818
29234SOL    HW191294   7.683   9.615   2.872 -1.5876  0.7001 -3.3645
29234SOL    HW291295   7.581   9.640   2.981  2.2067  0.6331  0.4593
29235SOL     OW91296   0.924   3.007   0.335 -0.5253 -0.0878  0.2643
29235SOL    HW191297   0.932   2.942   0.266  1.2858 -0.5196  0.8338
29235SOL    HW291298   0.908   2.956   0.415 -0.2324  0.2282  0.5294
29236SOL     OW91299   1.433   6.510   5.668  0.2820  0.2004  0.1245
29236SOL    HW191300   1.444   6.439   5.605 -0.8622  0.8975 -0.9043
29236SOL    HW291301   1.348   6.549   5.647  0.7522  1.7029  0.8236
29237SOL     OW91302  10.026   4.241   8.313 -0.1665  0.3565 -0.1602
29237SOL    HW191303  10.086   4.193   8.256 -1.7424 -0.1390 -1.4575
29237SOL    HW291304  10.082   4.274   8.384  1.3439 -1.4263 -0.4604
29238SOL     OW91305   5.629   5.690  10.866  0.1953 -0.4157 -0.0792
29238SOL    HW191306   5.696   5.640  10.913  1.4946  2.0751  0.8897
29238SOL    HW291307   5.549   5.676  10.917  0.8324 -0.4673  0.9481
29239SOL     OW91308   5.790  11.111   7.250  0.3207  0.1389 -0.4224
29239SOL    HW191309   5.844  11.156   7.314 -0.2066 -0.8624  0.7660
29239SOL    HW291310   5.847  11.044   7.212  0.6197  0.7034 -0.9845
29240SOL     OW91311   6.473   3.994  10.382  0.2226  0.3999 -0.2415
29240SOL    HW191312   6.508   3.950  10.305 -0.7877 -0.0463 -0.4664
29240SOL    HW291313   6.383   4.017  10.358  0.1269  0.9110  0.5484
29241SOL     OW91314   5.551   8.197  10.458  0.1264  0.3674  0.0454
29241SOL    HW191315   5.519   8.257  10.390 -1.1142 -1.1503 -0.7972
29241SOL    HW291316   5.640   8.226  10.477 -0.2037  2.0376 -0.8103
29242SOL     OW91317   8.354   9.061   5.155 -0.3425 -0.7933 -0.4873
29242SOL    HW191318   8.363   8.990   5.219  0.7815 -1.9811 -1.8878
29242SOL    HW291319   8.392   9.137   5.197  0.4824 -1.5783  0.2292
29243SOL     OW91320   3.722   6.412   0.548 -0.6388  0.6219  0.7955
29243SOL    HW191321   3.750   6.493   0.505 -0.7684 -0.7737 -2.1642
29243SOL    HW291322   3.646   6.438   0.600 -2.5364  2.0312 -2.3571
29244SOL     OW91323   3.711  10.031   6.739  0.0991 -0.4464  0.0819
29244SOL    HW191324   3.633  10.084   6.755 -2.2773 -3.0643 -1.7538
29244SOL    HW291325   3.746  10.066   6.656  0.6276  0.4168  0.6555
29245SOL     OW91326   9.000   6.018   5.836  0.2888  0.1063 -0.4402
29245SOL    HW191327   8.984   6.009   5.930 -0.7992 -0.1173 -0.6436
29245SOL    HW291328   9.026   5.930   5.808 -1.3349 -0.3105 -0.7064
29246SOL     OW91329   2.716   1.033   5.841  0.0824 -0.2344 -0.0811
29246SOL    HW191330   2.642   0.979   5.812  0.0099 -0.1690 -0.0207
29246SOL    HW291331   2.695   1.055   5.932 -0.3996  0.7429 -0.4142
29247SOL     OW91332   9.791   2.025   4.818 -0.4052  0.3704 -0.3647
29247SOL    HW191333   9.842   1.981   4.886  0.7625  2.1320 -0.0384
29247SOL    HW291334   9.727   1.960   4.791  1.2518 -1.5301  0.0404
29248SOL     OW91335   0.254   1.250   9.131  0.4447 -0.2760  0.0161
29248SOL    HW191336   0.264   1.338   9.094 -1.0176  0.2509  0.7882
29248SOL    HW291337   0.344   1.219   9.144  1.0287  1.6863  1.0688
29249SOL     OW91338   0.974   1.932   0.620 -0.4047 -0.1549 -0.4258
29249SOL    HW191339   1.022   2.014   0.611  1.4804 -1.1229  0.2392
29249SOL    HW291340   0.912   1.948   0.691 -2.0565  1.5006 -2.0952
29250SOL     OW91341   7.679   5.486   8.898  0.5714  0.1829  0.2132
29250SOL    HW191342   7.602   5.531   8.933  0.3548  2.1126 -2.4499
29250SOL    HW291343   7.643   5.413   8.848  0.6370 -0.2568  0.7996
29251SOL     OW91344   9.518   1.969   9.217 -0.2365  0.0508 -0.2012
29251SOL    HW191345   9.518   1.988   9.311  0.5354 -0.6865 -0.0429
29251SOL    HW291346   9.458   1.895   9.208  0.0660 -0.1927 -0.2195
29252SOL     OW91347   5.430  11.079   5.051 -0.2792  0.0985  0.1795
29252SOL    HW191348   5.420  10.999   5.102 -0.2570 -0.0133  0.0077
29252SOL    HW291349   5.511  11.119   5.084 -1.5157  1.2905  1.9548
29253SOL     OW91350   7.590   7.182   6.909 -0.4939  0.2509  0.2871
29253SOL    HW191351   7.502   7.152   6.929 -0.6263  0.4646  0.0262
29253SOL    HW291352   7.628   7.112   6.856 -0.7291  0.4457 -0.1413
29254SOL     OW91353   2.073   1.745   1.460 -0.0043 -0.6008  0.0349
29254SOL    HW191354   2.124   1.664   1.469 -0.0392 -0.8298 -1.4885
29254SOL    HW291355   2.132   1.814   1.488  1.8208 -0.6788 -3.1098
29255SOL     OW91356   5.619   6.419  10.857  0.0365  0.8470  0.4601
29255SOL    HW191357   5.657   6.337  10.825  0.3537  0.6046  1.4082
29255SOL    HW291358   5.529   6.418  10.824  0.0153  0.0785  0.5208
29256SOL     OW91359   6.921   0.037   3.473  0.0929 -0.0613 -0.0405
29256SOL    HW191360   6.962   0.093   3.538  1.7364 -1.6780  0.3841
29256SOL    HW291361   6.830   0.028   3.503  0.1896  1.1405  0.6755
29257SOL     OW91362   1.209  10.005   7.680  0.2794 -0.2667 -0.6314
29257SOL    HW191363   1.230   9.972   7.767 -0.7604 -1.0328 -0.6445
29257SOL    HW291364   1.224   9.931   7.622  1.4944  0.3982 -1.2079
29258SOL     OW91365   0.236  10.504   0.254  0.0947  0.2252 -0.6491
29258SOL    HW191366   0.284  10.471   0.330  1.2957  1.2500 -0.9314
29258SOL    HW291367   0.145  10.481   0.272 -0.0023  2.2022  2.1436
29259SOL     OW91368   2.891   5.676  11.000  0.4638  0.2544  0.1619
29259SOL    HW191369   2.887   5.732  10.922 -0.7708  0.4988  0.3695
29259SOL    HW291370   2.954   5.608  10.978  0.4880  0.5881 -0.8692
29260SOL     OW91371   6.988   4.288   7.479 -0.1731 -0.4302 -0.2213
29260SOL    HW191372   7.007   4.334   7.561  1.1437  0.6526 -1.0979
29260SOL    HW291373   6.973   4.197   7.505 -2.5116  0.3456  1.5326
29261SOL     OW91374   6.439  10.837   6.937 -0.5315 -0.3885 -0.0023
29261SOL    HW191375   6.351  10.856   6.968 -0.3684  1.0396 -0.3389
29261SOL    HW291376   6.496  10.864   7.008 -0.2593  0.9695 -0.7116
29262SOL     OW91377   2.394   9.029   6.590  0.2521 -0.7414  0.0333
29262SOL    HW191378   2.375   8.937   6.607 -3.7476 -0.1143 -0.0760
29262SOL    HW291379   2.351   9.077   6.661 -0.7802  1.1091 -1.7101
29263SOL     OW91380  10.806   4.372   0.631  0.3028  0.5045 -0.5729
29263SOL    HW191381  10.774   4.356   0.543 -3.6916  1.2061  0.5368
29263SOL    HW291382  10.897   4.341   0.630 -0.0179 -0.8511 -4.4509
29264SOL     OW91383  10.600   6.795   5.094 -0.2186 -0.2313 -0.4565
29264SOL    HW191384  10.596   6.738   5.171  1.1849 -0.9179 -0.8584
29264SOL    HW291385  10.540   6.753   5.032  0.5596 -1.1382 -0.6330
29265SOL     OW91386   2.841   8.692   9.573 -0.2839  0.3107  0.1938
29265SOL    HW191387   2.749   8.704   9.597 -0.4322  0.2850 -0.3451
29265SOL    HW291388   2.873   8.625   9.632 -0.5780  0.4154  0.4756
29266SOL     OW91389   3.413   6.468   7.720 -0.0894 -0.0129 -0.3224
29266SOL    HW191390   3.444   6.506   7.638  1.9901 -1.3072 -0.1975
29266SOL    HW291391   3.352   6.533   7.755 -0.8917  0.6648 -2.7546
29267SOL     OW91392   8.040  10.252   2.238  0.0440  0.4299 -0.3574
29267SOL    HW191393   8.120  10.268   2.288 -1.0725 -1.1656  2.1313
29267SOL    HW291394   7.992  10.188   2.290 -2.1944  0.2167 -2.5225
29268SOL     OW91395   6.275   0.576   0.893  0.1726 -0.0258  0.1615
29268SOL    HW191396   6.190   0.557   0.932  0.3413 -0.4879  0.3091
29268SOL    HW291397   6.305   0.655   0.937  0.2149 -0.3599  0.7423
29269SOL     OW91398   2.046   2.671  10.999  0.1727 -0.1387  0.5131
29269SOL    HW191399   2.139   2.648  10.991  0.5086  0.7304  1.6658
29269SOL    HW291400   2.039   2.756  10.955 -0.0155 -0.0544  0.7078
29270SOL     OW91401   5.106   8.499   0.866 -0.2699 -0.2622 -0.2446
29270SOL    HW191402   5.068   8.483   0.780 -1.1558  1.0433 -0.1269
29270SOL    HW291403   5.170   8.569   0.851  0.8941 -1.2751 -0.1401
29271SOL     OW91404   6.204   7.967   1.291 -0.0212  0.3685  0.1083
29271SOL    HW191405   6.230   7.938   1.204  3.9326  1.3643  0.7789
29271SOL    HW291406   6.223   7.893   1.349  0.5336  0.8068  0.5075
29272SOL     OW91407  10.674   4.520   6.511  0.2807  0.0295 -0.1815
29272SOL    HW191408  10.713   4.484   6.431 -2.6377 -4.4360  0.0468
29272SOL    HW291409  10.738   4.501   6.579  0.9826 -0.0849 -0.8524
29273SOL     OW91410   0.814   2.101  10.755  0.6372  0.6735 -0.3099
29273SOL    HW191411   0.778   2.142  10.834 -1.7695 -0.3744 -0.7624
29273SOL    HW291412   0.842   2.014  10.785 -1.6770 -0.3154 -0.7968
29274SOL     OW91413   5.123   4.662   3.917 -0.7115 -0.4395 -0.0421
29274SOL    HW191414   5.132   4.742   3.970  0.9346 -0.3271 -0.4416
29274SOL    HW291415   5.073   4.602   3.973 -0.7468  0.3692  0.8282
29275SOL     OW91416   3.313   1.014   5.777 -0.2183  0.3494  0.0875
29275SOL    HW191417   3.346   1.068   5.705  1.1387  0.8518  1.0577
29275SOL    HW291418   3.241   1.065   5.814 -0.7500  0.2078 -0.7197
29276SOL     OW91419   6.633   2.083   1.945  0.7390 -0.6648 -0.0458
29276SOL    HW191420   6.584   2.067   2.025  0.4493 -0.3653 -0.1592
29276SOL    HW291421   6.644   1.997   1.905 -0.1417 -0.6801 -0.2760
29277SOL     OW91422   1.370   4.219  10.675 -0.0609 -0.3017 -0.4261
29277SOL    HW191423   1.370   4.217  10.579 -0.8511  0.2023 -0.4465
29277SOL    HW291424   1.281   4.244  10.699  0.1351 -0.3829  0.4439
29278SOL     OW91425   6.158   3.791   4.696 -0.2176  0.4945 -0.6241
29278SOL    HW191426   6.247   3.795   4.731  0.0247  2.3382 -1.3508
29278SOL    HW291427   6.150   3.702   4.662  1.1218  0.0998  0.0294
29279SOL     OW91428   7.847   5.569   8.038 -0.3680  0.2528 -0.6129
29279SOL    HW191429   7.813   5.650   8.075 -1.8187 -0.2012 -0.8812
29279SOL    HW291430   7.772   5.510   8.037  0.5249 -0.9198 -0.9339
29280SOL     OW91431   9.307   6.002   5.092  0.1699  0.0367 -0.4532
29280SOL    HW191432   9.315   6.075   5.030  0.2036  1.1711  0.8286
29280SOL    HW291433   9.344   6.036   5.173 -0.7714 -1.0578  0.4653
29281SOL     OW91434   4.326   4.215   4.288  0.2194  0.6865 -0.0161
29281SOL    HW191435   4.240   4.173   4.283  1.1217 -1.4932  1.4863
29281SOL    HW291436   4.386   4.150   4.251  1.5504  1.0124  1.4962
29282SOL     OW91437   3.103   8.174   8.761 -1.0396 -0.0200  0.6899
29282SOL    HW191438   3.148   8.179   8.677  0.1276  0.6107  1.3294
29282SOL    HW291439   3.041   8.102   8.751  0.5195 -1.3239 -0.0379
29283SOL     OW91440  10.724   6.969   2.802 -0.1182  0.1533  0.4096
29283SOL    HW191441  10.649   7.028   2.792  0.0236  1.1501  3.7520
29283SOL    HW291442  10.702   6.892   2.751 -2.4355  1.2737 -0.4117
29284SOL     OW91443   3.744   0.650   4.028 -0.1355  0.4296  0.1261
29284SOL    HW191444   3.663   0.643   4.079 -0.7974  0.6243 -0.8535
29284SOL    HW291445   3.720   0.618   3.941  1.0766 -0.2978  0.0379
29285SOL     OW91446   5.346   5.516   7.030  0.0228  0.4239  0.2470
29285SOL    HW191447   5.342   5.570   6.951  0.8264  0.9014  0.5203
29285SOL    HW291448   5.269   5.542   7.080 -0.9606 -0.4862 -0.7442
29286SOL     OW91449   2.634   3.504   7.323 -0.2178  0.2701  0.1246
29286SOL    HW191450   2.631   3.584   7.375 -1.4842 -0.4745  1.2480
29286SOL    HW291451   2.636   3.434   7.388  0.7938 -0.6278 -0.8431
29287SOL     OW91452   8.594   2.801   9.243  0.2885 -0.3906 -0.9157
29287SOL    HW191453   8.671   2.851   9.271  0.3141  0.3862 -2.3234
29287SOL    HW291454   8.526   2.867   9.231 -0.6330 -1.0669  0.2889
29288SOL     OW91455   1.269   8.668   9.915  0.2541 -0.2446 -0.0223
29288SOL    HW191456   1.278   8.644  10.007 -0.3139 -1.4470 -0.2655
29288SOL    HW291457   1.176   8.689   9.906  0.4661  0.6977 -0.1484
29289SOL     OW91458   0.141  11.105   0.669  0.4997 -0.4182  0.0436
29289SOL    HW191459   0.102  11.190   0.688  3.2574  0.9997 -0.1062
29289SOL    HW291460   0.137  11.057   0.752  0.1627  0.4035  0.5035
29290SOL     OW91461   7.872   9.207   5.430 -0.1289  0.0658  0.5736
29290SOL    HW191462   7.961   9.228   5.402 -0.1541  0.2534  0.6357
29290SOL    HW291463   7.881   9.124   5.477 -0.3360 -1.2087 -1.4802
29291SOL     OW91464   9.696   1.279   3.668  0.7630 -0.0842 -0.2477
29291SOL    HW191465   9.650   1.214   3.615  1.3079  0.2367 -1.1386
29291SOL    HW291466   9.746   1.229   3.731 -0.4805 -0.4559  0.4689
29292SOL     OW91467   5.204   1.108   3.980 -0.3982  0.5040  0.8179
29292SOL    HW191468   5.150   1.087   3.903  0.4933 -3.1746  0.9702
29292SOL    HW291469   5.289   1.131   3.943  0.4731 -2.6656  0.4852
29293SOL     OW91470   5.269   8.099   4.124  0.2990 -0.1370  0.0246
29293SOL    HW191471   5.192   8.055   4.088 -0.4511  1.0882  0.0704
29293SOL    HW291472   5.274   8.068   4.215 -1.2727  1.1308  0.6089
29294SOL     OW91473   6.735   7.930   2.744  0.1629 -0.4890  0.6509
29294SOL    HW191474   6.641   7.916   2.738 -0.0887  0.9101  0.9793
29294SOL    HW291475   6.758   7.979   2.666  0.7276 -1.2522  0.3180
29295SOL     OW91476   0.363   3.519   2.179  0.3795 -0.5769  0.9213
29295SOL    HW191477   0.328   3.433   2.201  0.3632 -0.3426  1.8714
29295SOL    HW291478   0.437   3.531   2.238  0.6997 -0.1442  0.4445
29296SOL     OW91479   5.930   0.617   8.275  0.3496 -0.0473 -0.0100
29296SOL    HW191480   5.987   0.661   8.212 -2.0030  0.0486 -2.2781
29296SOL    HW291481   5.954   0.524   8.268  0.7871  0.0854 -0.3170
29297SOL     OW91482   0.708   0.889   3.578 -0.5244  0.4526 -0.5894
29297SOL    HW191483   0.675   0.813   3.626 -4.2235  2.1654 -0.0460
29297SOL    HW291484   0.760   0.937   3.642 -0.5029 -0.2066 -0.1041
29298SOL     OW91485  10.324   2.858   2.811  0.0559  0.1974  0.0740
29298SOL    HW191486  10.255   2.872   2.746  1.0914  1.3476 -0.8222
29298SOL    HW291487  10.402   2.895   2.771  1.0556 -0.4435  1.3654
29299SOL     OW91488   9.011   1.317   8.260 -0.1280  0.1563  0.0184
29299SOL    HW191489   9.004   1.413   8.257 -0.2203  0.1231 -2.7552
29299SOL    HW291490   8.921   1.288   8.273 -0.3518  0.4228 -0.8871
29300SOL     OW91491   8.768   7.894   8.205 -0.4946 -0.7522  0.0920
29300SOL    HW191492   8.849   7.877   8.252  0.3853 -2.4439 -1.8818
29300SOL    HW291493   8.702   7.901   8.273  1.2920  0.7930  1.7595
29301SOL     OW91494   2.719   3.510  10.830 -0.3469 -0.2698  0.7588
29301SOL    HW191495   2.739   3.457  10.907 -0.4736 -0.1743  0.8573
29301SOL    HW291496   2.738   3.453  10.755 -1.0404 -0.6541  0.8709
29302SOL     OW91497   7.122   2.252   8.999 -0.2323  0.3658 -0.2742
29302SOL    HW191498   7.122   2.282   8.908 -0.2755 -0.1028 -0.4290
29302SOL    HW291499   7.211   2.219   9.013  0.1595  1.5847  0.2385
29303SOL     OW91500   7.164   8.134   1.653  0.2403 -0.0215 -0.1258
29303SOL    HW191501   7.200   8.183   1.579  2.0572 -0.1917  0.5847
29303SOL    HW291502   7.098   8.076   1.615  0.1623  0.8731 -1.3933
29304SOL     OW91503   6.551   5.718   3.669 -0.4988 -0.2243  0.1106
29304SOL    HW191504   6.484   5.776   3.632 -0.0949 -0.4328 -1.0026
29304SOL    HW291505   6.608   5.776   3.719 -1.7363 -0.1049  1.4291
29305SOL     OW91506   5.815   3.952   4.123 -0.4291  0.0109  0.1305
29305SOL    HW191507   5.839   3.963   4.215 -0.9861  3.1344  0.0290
29305SOL    HW291508   5.728   3.993   4.116 -0.9659 -1.3120 -1.5565
29306SOL     OW91509   4.921   7.155  11.045  0.3516 -0.3252 -0.3622
29306SOL    HW191510   4.909   7.060  11.036 -0.2329 -0.1538 -1.6350
29306SOL    HW291511   4.938   7.185  10.955  1.6474  0.6364  0.1772
29307SOL     OW91512   3.159   0.226   1.461 -0.0340  0.5537 -0.0030
29307SOL    HW191513   3.064   0.233   1.456 -0.2969 -1.6697  0.7265
29307SOL    HW291514   3.183   0.274   1.540 -0.4341  1.8125 -0.6279
29308SOL     OW91515   1.810   6.463   1.362  0.1592  0.1843 -0.1352
29308SOL    HW191516   1.836   6.554   1.352 -1.7154  0.6853 -0.7976
29308SOL    HW291517   1.870   6.415   1.305  1.2302  0.9600  0.2981
29309SOL     OW91518   9.040  10.440   9.705 -0.2061 -0.2112  0.7063
29309SOL    HW191519   9.001  10.392   9.778  1.7928  0.9063  2.6306
29309SOL    HW291520   8.975  10.507   9.682 -0.6750 -0.2719  1.7958
29310SOL     OW91521   1.251   8.774   5.910 -0.4927 -0.0134  0.8903
29310SOL    HW191522   1.265   8.844   5.846  0.9302 -0.4601  0.6616
29310SOL    HW291523   1.340   8.747   5.934 -0.9683 -2.7319 -0.1381
29311SOL     OW91524   7.956   9.832   2.190 -0.1536 -0.5388 -0.1115
29311SOL    HW191525   8.016   9.803   2.122 -0.1623 -2.0363  0.4977
29311SOL    HW291526   7.926   9.752   2.233 -1.0319  0.2986  0.9183
29312SOL     OW91527  11.000   5.381   1.233 -0.4989  0.1083 -0.5128
29312SOL    HW191528  10.947   5.419   1.303  1.0219  3.9429 -1.1844
29312SOL    HW291529  10.941   5.381   1.157 -1.0052 -0.4771 -0.1353
29313SOL     OW91530   5.123   4.794   5.291 -0.3920  0.3752 -0.1196
29313SOL    HW191531   5.191   4.797   5.358 -1.3445  0.8263  0.8734
29313SOL    HW291532   5.131   4.878   5.245 -2.3061  1.9764  2.1698
29314SOL     OW91533   2.029   0.367   6.046  0.2165 -0.8027 -0.1691
29314SOL    HW191534   2.107   0.417   6.072  0.1718 -1.1158  0.5948
29314SOL    HW291535   1.970   0.374   6.121 -0.2825 -1.0066 -0.5370
29315SOL     OW91536   1.355   4.416   7.555  0.2434 -0.4287 -0.0921
29315SOL    HW191537   1.384   4.487   7.497  2.5872 -0.9759  0.3071
29315SOL    HW291538   1.393   4.437   7.640  1.3540 -2.3269 -0.0623
29316SOL     OW91539   8.613   6.820   9.318 -0.1129 -0.2959  0.1760
29316SOL    HW191540   8.680   6.889   9.321  0.6792 -0.4000 -5.3820
29316SOL    HW291541   8.542   6.858   9.266 -1.0090 -2.6580 -0.4288
29317SOL     OW91542   7.386  10.133   4.024  0.1777 -0.0884  0.0558
29317SOL    HW191543   7.480  10.148   4.016 -0.1752  3.5089  1.0544
29317SOL    HW291544   7.353  10.211   4.069 -2.9302 -2.4590  2.3293
29318SOL     OW91545   6.382   0.987   5.739 -0.3672 -0.3866  0.0139
29318SOL    HW191546   6.312   1.046   5.766 -0.3645 -0.7492  0.8237
29318SOL    HW291547   6.444   0.987   5.812 -1.3074 -2.8993  0.9263
29319SOL     OW91548  11.067   1.295   8.918  0.1514  0.8563  0.4229
29319SOL    HW191549  10.984   1.326   8.883 -0.5581 -1.0239  0.3092
29319SOL    HW291550  11.133   1.324   8.855 -0.9065 -1.0476 -1.6650
29320SOL     OW91551   7.388   2.902   3.382 -0.1545  0.2326  0.0794
29320SOL    HW191552   7.476   2.890   3.419  0.0542  3.0012  0.7633
29320SOL    HW291553   7.401   2.897   3.288  0.3232 -1.4172  0.1982
29321SOL     OW91554   3.498   7.521   0.326  0.4540 -0.1701 -0.0080
29321SOL    HW191555   3.523   7.568   0.406  0.8912 -0.8967  0.2916
29321SOL    HW291556   3.489   7.590   0.260  0.8907  0.3601  0.4712
29322SOL     OW91557   0.877   2.227   0.342  0.1978  0.9019  0.2751
29322SOL    HW191558   0.861   2.311   0.385 -1.3446  0.9963 -0.4049
29322SOL    HW291559   0.801   2.173   0.366  0.4294  0.2102 -0.4959
29323SOL     OW91560  10.249   1.318   9.562  0.2074 -0.6898  0.2489
29323SOL    HW191561  10.167   1.269   9.568  0.2233 -0.7947 -0.3528
29323SOL    HW291562  10.249   1.375   9.640  0.6041 -2.2586  1.4462
29324SOL     OW91563   9.115   0.356   7.700 -0.1943  0.4564 -0.7289
29324SOL    HW191564   9.184   0.414   7.732  1.3673 -1.2465 -0.8805
29324SOL    HW291565   9.086   0.396   7.619  1.1290  0.8540 -1.0307
29325SOL     OW91566   0.012   4.890   7.905  0.3349  0.4396 -0.3317
29325SOL    HW191567   0.091   4.869   7.955  1.4560  1.7189 -1.4634
29325SOL    HW291568   0.033   4.973   7.862 -3.5310  3.7446  3.3418
29326SOL     OW91569   2.735   9.260   6.769 -0.3249  0.2357 -0.2662
29326SOL    HW191570   2.773   9.174   6.753  0.1992  0.7234 -1.8277
29326SOL    HW291571   2.736   9.303   6.683 -0.9143  1.6645  0.4115
29327SOL     OW91572   5.936   5.748   9.619 -0.1596  0.5732  0.6789
29327SOL    HW191573   5.959   5.749   9.711  0.1264 -1.5154  0.6665
29327SOL    HW291574   5.917   5.657   9.599  0.1534  0.9080 -1.4220
29328SOL     OW91575   8.897   0.720   7.695  0.2207 -0.2611 -0.3317
29328SOL    HW191576   8.949   0.722   7.775  2.4877  1.6442 -1.7349
29328SOL    HW291577   8.868   0.810   7.682 -1.4701 -0.8303 -0.8885
29329SOL     OW91578   8.433  10.290   5.870 -0.7435  0.0792  0.1324
29329SOL    HW191579   8.406  10.206   5.833 -0.3484  0.1586 -0.3555
29329SOL    HW291580   8.365  10.312   5.933 -1.0113 -0.4573  0.0338
29330SOL     OW91581   8.824   9.840   8.803 -0.2736 -0.0070  0.0517
29330SOL    HW191582   8.813   9.782   8.727 -1.1958 -0.1494  0.2835
29330SOL    HW291583   8.806   9.928   8.769  0.5254  0.0810 -0.1625
29331SOL     OW91584   0.621  10.717   8.427 -0.0955  0.2763 -0.0656
29331SOL    HW191585   0.601  10.634   8.471  0.9785 -0.3373 -0.6945
29331SOL    HW291586   0.571  10.782   8.476 -0.0959 -0.5912  1.1367
29332SOL     OW91587   8.322   7.565   4.141  0.3230 -0.0492 -0.4548
29332SOL    HW191588   8.252   7.590   4.201 -0.2297  1.8145 -1.8045
29332SOL    HW291589   8.326   7.470   4.148 -0.3993  0.0234  1.7466
29333SOL     OW91590   8.162   0.084   3.208 -0.0271 -0.1509 -0.3367
29333SOL    HW191591   8.208   0.135   3.275 -0.7175  0.1773 -0.0913
29333SOL    HW291592   8.231   0.043   3.157  0.5239 -0.5567  0.6868
29334SOL     OW91593   8.048   5.964   0.905  0.2737 -0.2811 -0.8732
29334SOL    HW191594   8.071   5.981   0.996  2.3685  1.1202 -1.5932
29334SOL    HW291595   7.984   6.032   0.883 -0.4249 -0.7737 -0.4085
29335SOL     OW91596   9.569  11.000   1.549  0.0978 -0.3698  0.1439
29335SOL    HW191597   9.657  10.967   1.531  0.1214  0.3127 -1.0565
29335SOL    HW291598   9.520  10.982   1.469 -0.4833  0.4930  0.2975
29336SOL     OW91599   6.736   4.580   6.250  0.4096 -0.7931  0.3184
29336SOL    HW191600   6.671   4.546   6.188  0.0982  0.6173 -0.1645
29336SOL    HW291601   6.789   4.504   6.274 -1.0900 -1.8697  0.3234
29337SOL     OW91602   9.460   7.104   1.010 -0.2013  0.3469 -0.3261
29337SOL    HW191603   9.431   7.152   0.933 -2.5713  0.9251  0.8473
29337SOL    HW291604   9.528   7.045   0.977 -0.0407  1.6644 -2.5329
29338SOL     OW91605   3.672   2.639   5.993 -0.0518 -0.2035  0.2396
29338SOL    HW191606   3.706   2.657   6.081  0.5117  2.0283 -0.3805
29338SOL    HW291607   3.581   2.668   5.996 -0.1204 -0.4098  0.1653
29339SOL     OW91608   2.458   8.138   2.490  0.5957  0.7716 -0.3347
29339SOL    HW191609   2.521   8.135   2.562 -0.7912 -0.5008  0.8951
29339SOL    HW291610   2.415   8.223   2.497 -0.8929 -0.0759  1.6248
29340SOL     OW91611  10.038   1.139   7.570 -0.7270 -0.3244  0.1859
29340SOL    HW191612  10.016   1.232   7.572  0.3598 -0.0640  0.4230
29340SOL    HW291613  10.019   1.112   7.480  0.3017  0.4785 -0.2880
29341SOL     OW91614   8.600   5.189   6.560 -0.4929  0.3160  0.2667
29341SOL    HW191615   8.672   5.208   6.621  0.1123  1.0188 -0.6305
29341SOL    HW291616   8.571   5.275   6.530  0.7852  0.0137 -2.1819
29342SOL     OW91617   1.213   3.223   3.631  0.6184  0.2734  0.0046
29342SOL    HW191618   1.144   3.243   3.568  0.9014  0.6292 -0.1958
29342SOL    HW291619   1.227   3.305   3.679  0.4700  0.0323  0.4752
29343SOL     OW91620  10.493   4.135   1.043 -0.2732  0.0257  0.6952
29343SOL    HW191621  10.559   4.097   1.102  1.0102 -0.0397 -0.7199
29343SOL    HW291622  10.543   4.188   0.982 -1.1976 -1.8100 -1.8566
29344SOL     OW91623   1.627   3.094   8.752  0.1853  0.0709 -0.3765
29344SOL    HW191624   1.582   3.143   8.821  0.1784  1.0368 -1.0420
29344SOL    HW291625   1.556   3.057   8.699  0.1111 -2.9239  1.5628
29345SOL     OW91626   3.423   4.353   5.334 -0.3899  0.6358 -0.1115
29345SOL    HW191627   3.442   4.439   5.297 -1.2092  1.2209  0.7776
29345SOL    HW291628   3.330   4.340   5.319 -0.5318  0.4519  0.8270
29346SOL     OW91629   6.097   2.625   0.809  0.6555  0.2421  0.6429
29346SOL    HW191630   6.186   2.595   0.828  1.3035  2.1333  0.8165
29346SOL    HW291631   6.098   2.643   0.714 -0.3480 -2.1370  0.1198
29347SOL     OW91632   0.477  10.364   4.612  0.8865  0.1665  0.1792
29347SOL    HW191633   0.427  10.432   4.567 -1.1819 -1.2680  0.1605
29347SOL    HW291634   0.487  10.397   4.701  0.4994  0.7756  0.0083
29348SOL     OW91635   0.958   6.259   1.732  0.1676  0.3074  0.5886
29348SOL    HW191636   1.027   6.206   1.691  0.1101  1.5031 -1.1827
29348SOL    HW291637   1.004   6.334   1.769 -0.0524  0.4575  0.5590
29349SOL     OW91638   8.010   6.569   3.575 -0.7765  0.3842  0.5066
29349SOL    HW191639   8.089   6.567   3.521 -0.7352  0.1202  0.5717
29349SOL    HW291640   8.021   6.646   3.631 -1.1438  1.0605 -0.3337
29350SOL     OW91641   7.590   3.531   0.986  0.8602 -0.1493  0.1062
29350SOL    HW191642   7.626   3.558   1.070 -1.1698 -0.4199  1.1183
29350SOL    HW291643   7.642   3.455   0.961 -0.1597 -1.7271  2.4668
29351SOL     OW91644   1.985  11.013   1.695  0.4430  0.6018 -0.0565
29351SOL    HW191645   1.974  11.034   1.788  0.3810 -1.8688  0.5546
29351SOL    HW291646   1.976  10.918   1.690  1.8181  0.5151 -2.4229
29352SOL     OW91647   6.956   5.819   2.807 -0.4558 -0.2806 -0.3777
29352SOL    HW191648   6.938   5.896   2.861  1.8350  0.0678 -0.0314
29352SOL    HW291649   6.975   5.855   2.721  1.3899 -0.3553 -0.0268
29353SOL     OW91650  10.223   9.562   6.964 -0.1574  0.8954  0.3571
29353SOL    HW191651  10.154   9.499   6.943 -1.0054  1.6040  0.9235
29353SOL    HW291652  10.268   9.524   7.039 -1.1888  1.3103  1.2188
29354SOL     OW91653   0.973   6.216   9.964  0.3007  0.4725  0.4134
29354SOL    HW191654   0.877   6.223   9.965 -0.1531 -3.5367 -0.8614
29354SOL    HW291655   0.996   6.211   9.871  2.1631  3.6253  0.5333
29355SOL     OW91656   2.844   3.258   3.044  0.7624 -0.3115  0.0428
29355SOL    HW191657   2.817   3.209   2.967  1.4646 -1.6808  0.6318
29355SOL    HW291658   2.836   3.196   3.116 -0.1849  1.0304  1.1483
29356SOL     OW91659   8.974   2.932   3.526  0.3721  0.6177 -0.0611
29356SOL    HW191660   8.938   2.927   3.437 -0.1703  1.0801  0.1304
29356SOL    HW291661   9.043   2.865   3.527 -1.4675 -1.3843  0.0258
29357SOL     OW91662   0.735   9.681   1.468 -0.7969  0.2328  0.5784
29357SOL    HW191663   0.758   9.744   1.400 -1.1905  0.1029  0.3217
29357SOL    HW291664   0.820   9.654   1.505 -0.5821  0.3210  0.1567
29358SOL     OW91665   1.202   0.009   2.569  0.0764 -0.5738  0.2395
29358SOL    HW191666   1.243   0.082   2.617 -0.2403 -0.3498  0.1729
29358SOL    HW291667   1.204  -0.064   2.631  0.6324 -0.5820  0.2166
29359SOL     OW91668  10.878   3.880  10.889  0.4748 -0.3739 -0.0262
29359SOL    HW191669  10.966   3.859  10.858  0.1147 -0.4518 -1.0042
29359SOL    HW291670  10.835   3.921  10.815  0.2327  1.2657  0.9728
29360SOL     OW91671   3.413  10.764   4.199 -0.3724  0.7915  0.3473
29360SOL    HW191672   3.416  10.705   4.124  1.0960  0.0015  0.9780
29360SOL    HW291673   3.354  10.835   4.172 -0.6067  0.0571 -1.1799
29361SOL     OW91674   8.941   5.247   7.993 -0.8450 -0.6402  0.0383
29361SOL    HW191675   9.008   5.306   8.025 -0.3795  0.0111 -2.0421
29361SOL    HW291676   8.984   5.162   7.987 -0.8491 -0.7023  0.7534
29362SOL     OW91677   9.084   3.840   5.752  0.2305 -0.2116 -0.4009
29362SOL    HW191678   9.011   3.811   5.698  0.0233 -0.2778 -0.0878
29362SOL    HW291679   9.070   3.935   5.762 -0.5307 -0.4173  0.7147
29363SOL     OW91680  10.095   9.489   3.224 -0.3515 -0.4151  0.0645
29363SOL    HW191681  10.164   9.542   3.263 -0.9003 -0.1556  0.7025
29363SOL    HW291682  10.135   9.403   3.212  0.7172  0.2534 -1.4820
29364SOL     OW91683   3.886   7.532   5.486 -0.1879 -0.3515  0.2436
29364SOL    HW191684   3.872   7.626   5.495  0.1136 -0.2859  0.0589
29364SOL    HW291685   3.964   7.514   5.538 -0.3286 -0.5232  0.3943
29365SOL     OW91686   6.543   1.816  10.489  0.4080 -0.8435 -0.5504
29365SOL    HW191687   6.502   1.884  10.543  0.4650 -0.3024 -1.1710
29365SOL    HW291688   6.514   1.734  10.528 -1.4688 -0.4939 -1.0952
29366SOL     OW91689   1.720   5.393  10.745 -0.0864  0.5020 -0.1256
29366SOL    HW191690   1.799   5.373  10.796  0.0593  1.1565 -0.0841
29366SOL    HW291691   1.650   5.350  10.794  0.2507 -0.1703 -0.2157
29367SOL     OW91692   5.375   4.272  10.027  0.4925 -0.4971 -0.0798
29367SOL    HW191693   5.282   4.250  10.032  0.1548  0.5036 -1.3432
29367SOL    HW291694   5.383   4.324   9.947  1.9831  0.1966  0.4822
29368SOL     OW91695   8.538   4.741   3.549 -0.4305  0.2135  0.1421
29368SOL    HW191696   8.488   4.661   3.560  0.0280  0.0083  0.7509
29368SOL    HW291697   8.620   4.713   3.509 -0.3532  0.4065  0.1642
29369SOL     OW91698   4.186   2.815   6.229 -0.1928 -0.0989  0.2854
29369SOL    HW191699   4.156   2.839   6.141  1.1334 -1.3212 -0.5651
29369SOL    HW291700   4.222   2.896   6.265  0.0649  0.2300 -0.6690
29370SOL     OW91701   4.174   8.498   5.417  0.4053 -0.1319 -0.5143
29370SOL    HW191702   4.170   8.580   5.369 -0.7801  0.2453  0.1732
29370SOL    HW291703   4.257   8.501   5.464 -0.4147  1.5563  0.9445
29371SOL     OW91704   8.980   1.779   1.594 -0.3286 -0.4013  0.1845
29371SOL    HW191705   9.062   1.758   1.639  0.8802  1.5414 -0.9692
29371SOL    HW291706   8.938   1.843   1.650  0.8016  1.4271 -0.9665
29372SOL     OW91707   7.479   8.520   8.607 -0.4646 -0.2470 -0.0004
29372SOL    HW191708   7.506   8.584   8.672 -2.5596  2.5792 -1.7051
29372SOL    HW291709   7.386   8.506   8.624 -0.3218 -2.0236 -0.4143
29373SOL     OW91710   9.894   6.298   9.119 -0.0211  0.2853  0.8003
29373SOL    HW191711   9.949   6.349   9.179  0.0639  2.0024 -0.6622
29373SOL    HW291712   9.863   6.362   9.055 -0.3727 -1.4235 -0.8102
29374SOL     OW91713   6.944   3.580   5.486  0.8620  0.2278 -0.8586
29374SOL    HW191714   6.976   3.667   5.508 -0.2920  0.6967 -0.9250
29374SOL    HW291715   7.022   3.527   5.476  1.5766  1.1927 -0.5423
29375SOL     OW91716   2.143   2.865   6.161  0.3142 -0.1378 -0.0360
29375SOL    HW191717   2.216   2.805   6.142  0.7118  0.1558  0.5193
29375SOL    HW291718   2.115   2.896   6.075 -0.0395 -1.2791 -0.3477
29376SOL     OW91719   9.934   6.548   7.944 -0.1127 -0.1037  0.6263
29376SOL    HW191720   9.893   6.481   7.999  0.8653 -0.4288  0.9844
29376SOL    HW291721   9.884   6.546   7.863  0.2157 -1.6426  0.4293
29377SOL     OW91722   3.951   9.357   3.732  0.0766 -0.0927  0.2292
29377SOL    HW191723   3.949   9.442   3.687 -1.0158 -0.6583 -0.8502
29377SOL    HW291724   3.875   9.361   3.791  0.1739 -0.2251  0.3620
29378SOL     OW91725   3.383   0.850  10.770  0.2673  0.3008  0.0115
29378SOL    HW191726   3.406   0.874  10.681  0.0920 -0.2851 -0.1942
29378SOL    HW291727   3.311   0.909  10.793 -0.2896 -0.1533 -0.5573
29379SOL     OW91728   0.797   4.758   6.683  0.2457 -0.0235 -0.5747
29379SOL    HW191729   0.727   4.793   6.627  2.7094  1.4043 -3.0203
29379SOL    HW291730   0.864   4.729   6.622  2.5159  0.2159  1.6575
29380SOL     OW91731   8.184   9.551   7.725 -0.1942  0.0550  0.0954
29380SOL    HW191732   8.215   9.482   7.666 -0.7748 -1.4332  1.4497
29380SOL    HW291733   8.258   9.568   7.783 -0.3218 -0.0386  0.2869
29381SOL     OW91734   5.107   6.230   5.311 -0.3955 -0.1613 -0.2700
29381SOL    HW191735   5.193   6.256   5.342 -0.5092 -0.7612  0.5932
29381SOL    HW291736   5.121   6.205   5.219  0.4763 -0.8344  0.0316
29382SOL     OW91737   4.005   3.222   2.768  0.3815  0.0423  0.6021
29382SOL    HW191738   4.094   3.186   2.764  0.1335 -0.5960  0.6955
29382SOL    HW291739   3.948   3.147   2.749 -0.1106  0.6048 -0.1989
29383SOL     OW91740   4.999   9.796   6.008 -0.5909 -0.5655 -0.3360
29383SOL    HW191741   4.984   9.889   5.994 -1.4485 -0.6424 -0.0070
29383SOL    HW291742   5.056   9.769   5.936  1.3753  0.6226  0.6880
29384SOL     OW91743   7.757   8.681   7.145 -0.5604 -0.3572  0.1191
29384SOL    HW191744   7.682   8.667   7.202  0.4202 -0.9764  1.3030
29384SOL    HW291745   7.829   8.702   7.204  0.6713 -1.7989 -0.7989
29385SOL     OW91746   8.094   0.271   0.767 -0.2011  1.0506 -0.0269
29385SOL    HW191747   8.025   0.256   0.702  1.0444 -0.4005 -1.0910
29385SOL    HW291748   8.168   0.304   0.716  0.0758  2.0962  1.0179
29386SOL     OW91749   7.785   2.513  10.592 -0.2333  0.5063  0.3463
29386SOL    HW191750   7.829   2.429  10.600  3.0753  2.0766  0.4486
29386SOL    HW291751   7.729   2.504  10.515 -0.3165 -1.8712  0.6215
29387SOL     OW91752   4.513  10.950   5.477 -0.2673  0.5205 -0.2807
29387SOL    HW191753   4.568  10.935   5.554 -1.0185 -2.3398 -0.2081
29387SOL    HW291754   4.451  11.018   5.504 -0.0545  0.0771  1.4004
29388SOL     OW91755   3.773   0.241   7.990 -0.4508  0.3363  0.5091
29388SOL    HW191756   3.719   0.187   7.932  1.1688 -0.8592  0.0214
29388SOL    HW291757   3.788   0.322   7.940 -0.5908  0.0705  0.0253
29389SOL     OW91758   4.093   0.626   9.129  0.4062  0.6710  0.2387
29389SOL    HW191759   4.168   0.652   9.075 -0.2458 -1.0926 -1.6359
29389SOL    HW291760   4.127   0.555   9.184 -0.0593 -0.7819 -1.2856
29390SOL     OW91761   4.687   9.003   9.444 -0.3435 -0.2489  0.4531
29390SOL    HW191762   4.673   9.095   9.467 -0.4190  0.3962 -1.9526
29390SOL    HW291763   4.721   9.005   9.355  0.7404 -2.5305  0.7272
29391SOL     OW91764   1.119   9.183   7.647 -0.2784 -0.3514  0.3234
29391SOL    HW191765   1.104   9.127   7.722  1.7317 -1.5886 -0.1046
29391SOL    HW291766   1.215   9.191   7.642 -0.3953  0.5352 -1.4796
29392SOL     OW91767   3.635   8.377   1.466 -0.0184 -0.2103  0.1096
29392SOL    HW191768   3.587   8.293   1.470 -0.7837  0.0706 -1.9305
29392SOL    HW291769   3.567   8.443   1.479  0.2202  0.1367 -0.4003
29393SOL     OW91770   0.767   8.905   5.351 -0.4508 -0.0463 -0.2555
29393SOL    HW191771   0.718   8.984   5.375 -0.5300 -0.0962 -0.2537
29393SOL    HW291772   0.820   8.885   5.428 -1.4441 -0.7867  0.2645
29394SOL     OW91773   9.768   6.217   7.227 -0.4193 -0.1617 -0.7799
29394SOL    HW191774   9.803   6.135   7.193 -0.7666  0.0671 -1.7075
29394SOL    HW291775   9.673   6.211   7.214 -0.5285  0.0663 -0.1375
29395SOL     OW91776   2.232   0.870   9.921 -0.0421  0.0824  0.3441
29395SOL    HW191777   2.306   0.910   9.966 -1.1601  1.0126  1.4123
29395SOL    HW291778   2.259   0.779   9.906  2.0317  0.8489 -0.9753
29396SOL     OW91779   9.628  10.011   4.554  0.2883  0.4898  0.0502
29396SOL    HW191780   9.688  10.053   4.616  0.0227  3.4637 -1.4907
29396SOL    HW291781   9.546  10.002   4.602  0.6793  0.7803  0.7821
29397SOL     OW91782   6.527   9.543   3.992  0.0391 -0.3312 -0.1234
29397SOL    HW191783   6.564   9.495   3.918  0.8977  0.4775 -0.2345
29397SOL    HW291784   6.517   9.633   3.959 -0.3504 -0.1442  0.4843
29398SOL     OW91785   0.852   5.861   6.437  0.1843 -0.4160 -0.3923
29398SOL    HW191786   0.765   5.841   6.474  0.6086 -0.4549  0.6172
29398SOL    HW291787   0.893   5.775   6.425 -0.0096 -0.4136 -1.1333
29399SOL     OW91788   6.048   5.072  10.893  0.3139 -0.3490 -0.3184
29399SOL    HW191789   6.117   5.032  10.945  1.5397  0.4302 -1.2614
29399SOL    HW291790   6.065   5.042  10.803  0.2106  0.8300 -0.7573
29400SOL     OW91791   4.867   6.086   6.891 -0.5019  0.0909  0.4136
29400SOL    HW191792   4.870   5.992   6.877  0.5157  0.3969 -2.0669
29400SOL    HW291793   4.860   6.123   6.803  4.1137  2.4294  0.7236
29401SOL     OW91794   6.059   2.946   2.766  0.4906 -0.5001 -0.4151
29401SOL    HW191795   6.051   2.953   2.671 -1.8231  0.7918 -0.1962
29401SOL    HW291796   6.088   3.032   2.795 -1.0006 -0.1621  0.1792
29402SOL     OW91797   6.647   3.666   3.705 -0.0298  0.2522  0.5061
29402SOL    HW191798   6.740   3.687   3.697  0.5082 -1.5311  1.6078
29402SOL    HW291799   6.617   3.719   3.779  0.3445  0.1162  0.7586
29403SOL     OW91800   5.712   0.769   1.625  0.0117 -0.0711  0.9635
29403SOL    HW191801   5.628   0.747   1.584 -0.1442  1.2920  0.5120
29403SOL    HW291802   5.742   0.686   1.663 -0.7333 -0.9555 -0.2875
29404SOL     OW91803   3.206   0.601   1.213  0.3333 -0.1385 -0.4796
29404SOL    HW191804   3.161   0.545   1.276  2.0011  0.2512  1.1194
29404SOL    HW291805   3.207   0.688   1.254 -1.9659  1.1362 -2.7744
29405SOL     OW91806   9.136   2.373   3.942  0.3483  0.5016 -0.0649
29405SOL    HW191807   9.214   2.355   3.889  1.3750  0.4583  1.3861
29405SOL    HW291808   9.136   2.304   4.009 -0.3486  1.0969  0.5672
29406SOL     OW91809   4.750   3.148   0.455  0.5869  0.3028 -0.6109
29406SOL    HW191810   4.682   3.132   0.520  0.1632 -1.3734 -1.4203
29406SOL    HW291811   4.826   3.177   0.505 -0.0149 -0.0468  0.5209
29407SOL     OW91812   0.525   1.835  10.149 -0.0596  0.0113  0.7189
29407SOL    HW191813   0.500   1.903  10.213 -3.5943  0.4402 -0.8586
29407SOL    HW291814   0.585   1.879  10.089 -2.0628  1.8349 -0.1076
29408SOL     OW91815   6.425   3.645   8.466  0.1963 -0.0209 -0.0532
29408SOL    HW191816   6.430   3.707   8.538  0.7791  1.3082 -1.1754
29408SOL    HW291817   6.347   3.592   8.484  0.1997  0.4397  1.3939
29409SOL     OW91818   7.122   1.587   4.867  0.0917 -0.0873 -0.2764
29409SOL    HW191819   7.082   1.520   4.922 -0.9604 -3.4775 -4.5315
29409SOL    HW291820   7.205   1.608   4.909 -0.5356 -2.4789  2.4214
29410SOL     OW91821   9.678   1.666  10.531  0.1871 -0.3356 -0.0159
29410SOL    HW191822   9.601   1.706  10.571  0.3612  1.2768 -1.2111
29410SOL    HW291823   9.734   1.643  10.605  0.0154  1.5308  0.7380
29411SOL     OW91824   6.603   1.217   1.998 -0.2055  0.3034 -0.4665
29411SOL    HW191825   6.660   1.149   2.033 -1.2380 -0.3450 -0.0113
29411SOL    HW291826   6.610   1.289   2.061 -1.5843 -0.6248  0.8042
29412SOL     OW91827   1.790   3.531   3.510  0.1014 -0.3776  0.1003
29412SOL    HW191828   1.863   3.520   3.570 -1.3888 -0.8828  1.9273
29412SOL    HW291829   1.807   3.470   3.439  0.3024 -2.2456  1.6811
29413SOL     OW91830  10.321   6.081   2.762  0.5163  0.1929 -0.0120
29413SOL    HW191831  10.317   6.034   2.846  1.2328  1.0959  0.5407
29413SOL    HW291832  10.310   6.173   2.785 -0.4604  0.3541 -1.0463
29414SOL     OW91833   8.069  10.834   8.765 -0.2436 -0.6808  0.0983
29414SOL    HW191834   8.018  10.877   8.697  0.4885 -1.3901 -0.9333
29414SOL    HW291835   8.064  10.893   8.840  1.0658  1.4667 -1.3882
29415SOL     OW91836   8.047   3.613   8.912 -0.7223  0.3921  0.0135
29415SOL    HW191837   8.011   3.701   8.906 -2.1593 -0.1646  0.0696
29415SOL    HW291838   8.082   3.608   9.001 -0.4336  0.9732 -0.0636
29416SOL     OW91839   3.765   0.152   8.872 -0.1230  0.2349 -0.5580
29416SOL    HW191840   3.746   0.184   8.960 -0.2055  0.8829 -0.8057
29416SOL    HW291841   3.861   0.149   8.868 -0.1246 -0.6818 -0.1413
29417SOL     OW91842   0.039   5.502   4.505  0.5615 -0.3587 -0.1935
29417SOL    HW191843   0.050   5.543   4.591  2.4793  0.3405 -0.7422
29417SOL    HW291844  -0.032   5.439   4.519  1.0568 -0.5304  1.9893
29418SOL     OW91845   0.303   6.167   5.507  0.6216 -0.2433  0.0136
29418SOL    HW191846   0.226   6.201   5.462  0.4710 -2.7224 -1.8268
29418SOL    HW291847   0.372   6.171   5.441  1.5504  0.0235  0.9732
29419SOL     OW91848  10.843   0.662   5.011  0.2073 -0.5839  0.0502
29419SOL    HW191849  10.910   0.729   5.000 -0.8150  0.1493 -2.2904
29419SOL    HW291850  10.828   0.628   4.923 -0.7833 -2.4615  0.8802
29420SOL     OW91851   0.471   9.536   1.028  0.4243  0.0092 -0.1496
29420SOL    HW191852   0.487   9.460   1.083 -0.9248  0.4141  0.8814
29420SOL    HW291853   0.386   9.569   1.058  0.3116  1.0795 -1.5406
29421SOL     OW91854   0.181   8.031   1.041 -0.4136  0.2209  0.0090
29421SOL    HW191855   0.265   8.000   1.006 -0.1128  0.2365  0.7045
29421SOL    HW291856   0.116   7.980   0.993  0.1055 -3.0998  2.5087
29422SOL     OW91857   0.308   5.120   0.580  0.3701  0.8614 -0.5316
29422SOL    HW191858   0.232   5.144   0.633 -0.9833  0.3484 -2.1130
29422SOL    HW291859   0.363   5.198   0.579  0.5263  0.8485  1.6564
29423SOL     OW91860   2.224   4.728   0.985  0.2105  0.0481  0.2817
29423SOL    HW191861   2.202   4.818   1.008  1.0040 -0.1315  1.9238
29423SOL    HW291862   2.143   4.693   0.947 -0.2780  1.2716  0.1368
29424SOL     OW91863   1.509   4.610   3.411  0.6063  0.4253  0.2680
29424SOL    HW191864   1.603   4.629   3.402  0.8645 -1.4022 -1.7433
29424SOL    HW291865   1.501   4.518   3.384 -1.9245  0.8985 -0.8610
29425SOL     OW91866   1.166  10.721   5.724 -0.5075 -0.4395 -0.2518
29425SOL    HW191867   1.153  10.653   5.790 -1.0603  0.0482  0.1559
29425SOL    HW291868   1.200  10.795   5.774  0.9735 -0.6915 -0.8257
29426SOL     OW91869  10.191   5.247   2.650  0.2386  0.6370 -0.2896
29426SOL    HW191870  10.231   5.177   2.599 -1.6011 -2.0754  1.6974
29426SOL    HW291871  10.102   5.254   2.615 -0.3556  0.2410  1.0941
29427SOL     OW91872   8.326   8.898   3.991 -0.3833 -0.6159 -0.0192
29427SOL    HW191873   8.418   8.872   3.995 -0.6552 -1.4679  1.0532
29427SOL    HW291874   8.290   8.846   3.919 -0.5033 -1.9181  0.9462
29428SOL     OW91875   2.971   5.675   9.761  0.0786  0.2392 -0.2888
29428SOL    HW191876   2.995   5.667   9.853  1.1018  0.4349 -0.5307
29428SOL    HW291877   2.887   5.629   9.754 -1.0679  1.9998  1.1545
29429SOL     OW91878   7.118   2.824   0.284  0.2314  0.0064  0.3438
29429SOL    HW191879   7.113   2.891   0.353  0.7246  0.1973  0.1975
29429SOL    HW291880   7.028   2.813   0.255  0.0638  0.1669  0.7896
29430SOL     OW91881   9.740  10.394   5.983  0.5246 -0.3732  0.3025
29430SOL    HW191882   9.780  10.310   6.002  1.7683  0.5806  2.2110
29430SOL    HW291883   9.725  10.434   6.069 -0.6056  1.1083 -0.5207
29431SOL     OW91884   1.068   0.207   3.167  0.4600  0.5242  0.0013
29431SOL    HW191885   1.071   0.119   3.205 -0.1511 -0.0352 -1.1886
29431SOL    HW291886   1.010   0.198   3.091  2.7760  1.2246 -1.9829
29432SOL     OW91887   1.003   7.260   8.628  0.0765  0.2244 -0.3802
29432SOL    HW191888   0.916   7.253   8.588  0.2122 -1.5411 -0.4526
29432SOL    HW291889   1.064   7.260   8.554  0.2397 -1.2662 -0.2785
29433SOL     OW91890   0.172   8.894   9.665 -0.2633  0.0095  0.3292
29433SOL    HW191891   0.182   8.926   9.755 -0.3282  1.0624 -0.0250
29433SOL    HW291892   0.084   8.922   9.639  0.0222  0.3547 -0.3016
29434SOL     OW91893   2.880   8.168   0.821 -0.1682 -0.4157 -0.5216
29434SOL    HW191894   2.810   8.116   0.862  0.3645  0.8720  2.2737
29434SOL    HW291895   2.959   8.117   0.837  0.0624  0.1659  0.2789
29435SOL     OW91896   0.816   6.983   7.009  0.3003 -0.8035 -0.4754
29435SOL    HW191897   0.730   7.005   7.046  1.2086  1.1138  0.6437
29435SOL    HW291898   0.872   6.969   7.085  1.2066 -1.1307 -1.1836
29436SOL     OW91899   9.771  10.377  10.820  0.4635 -0.8202 -0.4382
29436SOL    HW191900   9.712  10.340  10.755 -2.8042  0.8881  1.3048
29436SOL    HW291901   9.770  10.314  10.892 -0.9508  0.1249  0.4126
29437SOL     OW91902   1.515   1.551   9.954  0.1076 -0.5306 -0.2509
29437SOL    HW191903   1.521   1.581   9.863 -0.1489 -0.5492 -0.2746
29437SOL    HW291904   1.532   1.457   9.949  0.2347 -0.5077 -0.2610
29438SOL     OW91905   7.776   9.835   8.892  0.4469  0.0119 -0.0385
29438SOL    HW191906   7.722   9.898   8.844  0.3314  0.2585  0.4150
29438SOL    HW291907   7.839   9.888   8.940  0.8651 -0.2579 -0.2721
29439SOL     OW91908   6.125   5.852   7.282  0.0527  0.1287 -0.2054
29439SOL    HW191909   6.205   5.805   7.258 -0.3452  0.8456 -3.2460
29439SOL    HW291910   6.127   5.853   7.378  3.0107 -0.9907 -0.1348
29440SOL     OW91911   4.677   9.125   3.537 -0.7965  0.6315 -0.5066
29440SOL    HW191912   4.618   9.050   3.526 -0.2119  0.2255 -0.9591
29440SOL    HW291913   4.622   9.193   3.575 -0.7191 -0.8837  2.6653
29441SOL     OW91914   1.050   3.761   2.361  0.0442  0.7002 -0.2071
29441SOL    HW191915   1.104   3.768   2.439  1.0455  1.3896 -0.9305
29441SOL    HW291916   1.113   3.761   2.288 -0.8548  0.0137 -1.0112
29442SOL     OW91917  10.789   7.903   8.459 -0.2695 -0.2194 -0.2560
29442SOL    HW191918  10.708   7.896   8.408 -1.0917  0.3690  0.9150
29442SOL    HW291919  10.811   7.996   8.455 -1.2184  0.1376  1.6973
29443SOL     OW91920   0.915   3.570   1.405 -0.5517  0.3177  0.6577
29443SOL    HW191921   0.846   3.506   1.389  1.6987 -2.0033 -0.6766
29443SOL    HW291922   0.945   3.595   1.317  1.2839  0.0206  1.1448
29444SOL     OW91923   0.959   2.366   6.521  0.8279  0.1382  0.1493
29444SOL    HW191924   0.914   2.287   6.553 -0.1075 -0.3584 -2.1875
29444SOL    HW291925   1.050   2.339   6.511  0.4420 -0.8407 -1.0277
29445SOL     OW91926   4.330   8.076   7.589  0.3360 -0.0983 -0.3931
29445SOL    HW191927   4.260   8.018   7.618  0.5898 -1.0922 -1.6407
29445SOL    HW291928   4.353   8.043   7.502 -0.9725  3.1587 -2.1685
29446SOL     OW91929   1.576   8.426   5.744 -0.0952  0.5802 -0.1304
29446SOL    HW191930   1.656   8.373   5.738 -1.3267 -1.2325 -1.3395
29446SOL    HW291931   1.583   8.470   5.829  1.5490 -0.5872  0.3854
29447SOL     OW91932   2.976  10.941   5.822  0.0033 -0.0557 -0.2350
29447SOL    HW191933   2.918  10.971   5.892  0.7720  0.1385  0.3315
29447SOL    HW291934   2.987  10.848   5.838  0.2081 -0.0045 -0.0639
29448SOL     OW91935   2.819   6.797   2.477 -0.0374  0.1840 -0.1533
29448SOL    HW191936   2.769   6.751   2.410 -1.9451  0.4686  0.9894
29448SOL    HW291937   2.864   6.867   2.430 -0.5605 -0.1964 -1.2637
29449SOL     OW91938   6.884  10.876   6.380  0.2998  0.0160 -0.2978
29449SOL    HW191939   6.906  10.876   6.473  0.6695  0.9673 -0.3749
29449SOL    HW291940   6.799  10.833   6.376 -0.6132  1.6249  0.7145
29450SOL     OW91941   8.599   8.452   3.189 -0.1672 -0.0795  0.2528
29450SOL    HW191942   8.540   8.507   3.138  0.3796 -0.9130 -1.3544
29450SOL    HW291943   8.599   8.367   3.143  2.3596 -0.0627  0.0826
29451SOL     OW91944   0.870   6.339   0.125 -0.1568 -0.4116  0.0873
29451SOL    HW191945   0.879   6.369   0.215 -0.3445 -2.0360  0.6879
29451SOL    HW291946   0.786   6.375   0.096  1.8761  4.0396 -1.1417
29452SOL     OW91947   1.792   6.659   7.767 -0.4326 -0.1008  0.2518
29452SOL    HW191948   1.720   6.666   7.830 -0.1999  0.0655  0.5024
29452SOL    HW291949   1.750   6.634   7.685 -1.1145  2.5164 -0.2845
29453SOL     OW91950   1.985   5.315  10.874  0.1103 -0.1006  0.0489
29453SOL    HW191951   2.047   5.382  10.903 -0.8396  1.0307 -0.4587
29453SOL    HW291952   1.987   5.248  10.943  3.6009 -1.2903 -0.9878
29454SOL     OW91953   5.739   1.583   4.659  0.5469  0.0440  0.4313
29454SOL    HW191954   5.668   1.647   4.655  0.0456 -0.5546 -0.4125
29454SOL    HW291955   5.799   1.619   4.725  0.9985  2.1045 -1.0077
29455SOL     OW91956   7.244   3.791   3.312  0.0664  0.4374 -0.7770
29455SOL    HW191957   7.241   3.722   3.247  2.1589 -0.7886  0.3431
29455SOL    HW291958   7.178   3.766   3.377  0.8446 -0.5705 -0.3565
29456SOL     OW91959   6.153   5.073   1.091 -0.0125 -0.2398 -0.1172
29456SOL    HW191960   6.090   5.134   1.131 -0.9805 -0.9651 -0.4986
29456SOL    HW291961   6.188   5.024   1.165 -0.5719 -0.4440  0.0188
29457SOL     OW91962   5.128   7.506   7.929 -0.3557  0.0496 -0.2735
29457SOL    HW191963   5.158   7.480   8.016 -3.1040 -1.9554  0.1780
29457SOL    HW291964   5.202   7.484   7.871  1.0673  0.3352  1.3465
29458SOL     OW91965   9.806   4.899   0.903  0.3975 -0.2111 -0.1658
29458SOL    HW191966   9.811   4.869   0.993 -1.5861  2.4273  0.9729
29458SOL    HW291967   9.867   4.973   0.898 -0.8139  0.8132 -0.3940
29459SOL     OW91968   5.193   2.020   7.959 -0.3157  0.4966 -0.2594
29459SOL    HW191969   5.160   1.961   7.891 -0.1961 -0.4763  0.5064
29459SOL    HW291970   5.136   2.003   8.034  0.3848  0.5913  0.2987
29460SOL     OW91971   3.795   0.007   1.527 -0.4878  0.0733  0.0183
29460SOL    HW191972   3.876   0.026   1.480 -0.8440  1.0546 -0.2395
29460SOL    HW291973   3.823  -0.009   1.617  0.0819 -0.5766 -0.2675
29461SOL     OW91974   8.232   0.686   3.904  0.0578  0.2336 -0.4197
29461SOL    HW191975   8.214   0.774   3.873  2.6777  1.0895  0.2760
29461SOL    HW291976   8.240   0.633   3.825 -0.4606  0.8423 -0.8844
29462SOL     OW91977   8.788   9.747   7.912 -0.1706  0.1663  0.6157
29462SOL    HW191978   8.771   9.776   7.823  0.6328  0.2913  0.4959
29462SOL    HW291979   8.880   9.720   7.911  0.6253  2.5372  2.0149
29463SOL     OW91980   0.305   5.845   5.464 -0.4359 -0.3937 -0.1381
29463SOL    HW191981   0.354   5.908   5.518  0.8772 -2.4574  1.1995
29463SOL    HW291982   0.216   5.880   5.461  0.1260  1.2473  0.9631
29464SOL     OW91983  10.101   6.422   2.395 -0.3272  0.0082 -0.2715
29464SOL    HW191984  10.043   6.374   2.454  0.1246  0.6817  0.7549
29464SOL    HW291985  10.134   6.356   2.335  2.9731 -1.8642  3.1518
29465SOL     OW91986   3.907   7.031   9.617  0.5121 -0.1260  0.2924
29465SOL    HW191987   3.988   6.987   9.645 -0.0300 -0.4708  1.3451
29465SOL    HW291988   3.838   6.967   9.633 -0.1418  0.6567  0.6608
29466SOL     OW91989   3.819   7.819  10.991  0.3286 -0.1117 -0.9273
29466SOL    HW191990   3.884   7.887  11.005  0.6572 -0.3305 -1.3772
29466SOL    HW291991   3.845   7.748  11.049 -0.5126  0.4611  0.2102
29467SOL     OW91992   9.572   0.093   8.527  0.4186  0.2854 -0.2712
29467SOL    HW191993   9.563   0.180   8.488  2.1742  0.1406 -1.1242
29467SOL    HW291994   9.651   0.057   8.486 -0.0318 -1.5470  0.3766
29468SOL     OW91995   6.569   0.360   8.426  0.2565  0.3470 -0.6285
29468SOL    HW191996   6.565   0.265   8.422 -0.1689  0.2636  1.0014
29468SOL    HW291997   6.490   0.386   8.473  1.3171  1.3332  0.7141
29469SOL     OW91998  10.708   6.055   1.360  0.3771 -0.3595 -0.6166
29469SOL    HW191999  10.739   5.965   1.351  1.3852 -0.0054 -0.8525
29469SOL    HW292000  10.617   6.052   1.332 -0.1923 -1.6560  1.2002
29470SOL     OW92001  10.987  10.622   8.024 -0.7859  0.7798 -0.4680
29470SOL    HW192002  11.013  10.714   8.026 -0.2597  0.6279  1.0428
29470SOL    HW292003  10.929  10.615   7.949 -0.1806  2.1640 -1.1046
29471SOL     OW92004   8.112   3.456   4.311 -0.3673 -0.1083  0.2086
29471SOL    HW192005   8.053   3.403   4.256 -1.7264  0.8397  0.6818
29471SOL    HW292006   8.163   3.392   4.360 -1.4023 -0.9878  0.1847
29472SOL     OW92007   4.086   7.051   5.826 -0.3351 -0.2907  0.0897
29472SOL    HW192008   4.134   7.132   5.805  0.7462 -1.1038 -0.7185
29472SOL    HW292009   4.139   7.010   5.895  1.8245 -2.5300 -2.6307
29473SOL     OW92010   3.471   2.186   5.443 -0.0498 -0.1716  0.7723
29473SOL    HW192011   3.483   2.122   5.513  0.0524 -0.6236  0.3464
29473SOL    HW292012   3.376   2.191   5.431 -0.0320 -1.7169 -0.5041
29474SOL     OW92013  10.714  10.847   4.016  0.2291 -0.1695 -0.3916
29474SOL    HW192014  10.750  10.817   4.099  0.7155 -1.0203 -0.8918
29474SOL    HW292015  10.775  10.815   3.950 -0.1144  0.5480 -1.0813
29475SOL     OW92016   3.952   1.341   1.297 -0.2176 -0.3820 -0.3865
29475SOL    HW192017   3.963   1.271   1.361 -0.9736 -0.9714 -0.8817
29475SOL    HW292018   3.977   1.301   1.214  0.0371  0.1558 -0.5713
29476SOL     OW92019   5.924   4.662   3.796 -0.4728  0.0231 -0.2434
29476SOL    HW192020   5.851   4.610   3.829 -0.4010  0.2679  0.3235
29476SOL    HW292021   5.995   4.647   3.859 -0.1358  0.0319 -0.6158
29477SOL     OW92022   8.690   9.000   8.536 -0.3384  0.5566 -0.1174
29477SOL    HW192023   8.736   8.917   8.540  0.8003  1.0379 -1.9402
29477SOL    HW292024   8.607   8.980   8.492 -0.4846  0.2298  0.3070
29478SOL     OW92025   1.337   7.947   2.894  0.1760 -0.2783 -0.4544
29478SOL    HW192026   1.285   7.894   2.954  0.7360 -0.8583 -0.4717
29478SOL    HW292027   1.388   7.884   2.843  0.8178  0.2629 -0.5074
29479SOL     OW92028   7.929   3.753  10.212 -0.3487  0.6193 -0.2273
29479SOL    HW192029   7.943   3.830  10.268 -2.3133  0.6144  0.3492
29479SOL    HW292030   7.870   3.697  10.263  0.4159 -0.9279 -0.9715
29480SOL     OW92031   3.129   1.190   0.280  0.0722  0.2502  0.1840
29480SOL    HW192032   3.105   1.198   0.372 -1.0720 -0.0515 -0.0673
29480SOL    HW292033   3.224   1.192   0.279  0.0856  0.6493  1.3347
29481SOL     OW92034   6.650   0.549   6.507  0.2369  0.1749  0.1903
29481SOL    HW192035   6.731   0.498   6.503  1.0030  1.2873  0.9270
29481SOL    HW292036   6.610   0.522   6.590  0.6166  0.7132  0.5551
29482SOL     OW92037   2.493   5.991   4.450 -0.3661 -0.1832 -0.0070
29482SOL    HW192038   2.541   5.918   4.410  0.2343 -0.2061  0.7347
29482SOL    HW292039   2.445   6.030   4.377  0.2504 -0.5755 -0.6437
29483SOL     OW92040   8.260   3.200   6.524  0.1064 -0.2197 -0.1856
29483SOL    HW192041   8.205   3.273   6.494 -1.0546 -0.9002  0.2337
29483SOL    HW292042   8.295   3.230   6.608  0.3091  0.1828 -0.4108
29484SOL     OW92043   6.101   9.832   5.633 -0.3399 -0.3494  0.1743
29484SOL    HW192044   6.042   9.860   5.563  0.9450 -0.6682 -1.0872
29484SOL    HW292045   6.183   9.877   5.614  0.4112 -1.4307  0.7473
29485SOL     OW92046   6.097   8.661   3.082  0.5298 -0.4757  0.2013
29485SOL    HW192047   6.049   8.578   3.077  0.2856 -0.4583  1.6691
29485SOL    HW292048   6.177   8.646   3.032 -0.6072 -0.7823 -1.5973
29486SOL     OW92049   4.810   0.701   1.835  0.1295  0.3961 -0.6691
29486SOL    HW192050   4.901   0.720   1.815  1.0396 -1.1069  1.6635
29486SOL    HW292051   4.778   0.652   1.758  2.4143 -2.2471 -0.1085
29487SOL     OW92052   2.483   3.480   8.812 -0.2283  0.2512  0.6585
29487SOL    HW192053   2.457   3.481   8.904 -1.5574 -0.9289  0.3309
29487SOL    HW292054   2.487   3.387   8.789  0.9590  0.5101 -0.2573
29488SOL     OW92055   0.519   8.018   0.398  0.2568  0.4029 -0.2025
29488SOL    HW192056   0.449   7.974   0.446  1.3939  0.2151  1.3378
29488SOL    HW292057   0.548   8.088   0.456  3.2885 -1.3147  0.5368
29489SOL     OW92058  10.131   9.957   8.204 -0.2218 -0.0865  0.1312
29489SOL    HW192059  10.147   9.862   8.197 -0.3046 -0.1132  0.2904
29489SOL    HW292060  10.211   9.991   8.244  0.1571  0.0342 -0.7165
29490SOL     OW92061   2.909   6.268   4.880  0.3212  0.2275 -0.4257
29490SOL    HW192062   2.886   6.220   4.800 -0.5813  0.8338 -0.5405
29490SOL    HW292063   2.837   6.248   4.941  2.0214 -1.9558  1.0233
29491SOL     OW92064   4.359   3.297  10.675 -0.5128  0.2689 -0.1013
29491SOL    HW192065   4.292   3.362  10.653 -0.8844 -0.3670 -0.9224
29491SOL    HW292066   4.442   3.344  10.664 -0.7984  1.0350  0.8276
29492SOL     OW92067   5.518   5.556   5.890  0.0851 -0.1473  0.0044
29492SOL    HW192068   5.526   5.635   5.837 -0.6016  0.3399  0.6068
29492SOL    HW292069   5.435   5.567   5.937 -0.0340 -1.2375  0.0765
29493SOL     OW92070   2.528   5.934   7.104  0.2231  0.2259  0.3509
29493SOL    HW192071   2.445   5.909   7.144  0.9705 -1.5784  0.8501
29493SOL    HW292072   2.579   5.972   7.176  0.7256 -0.9446  0.6350
29494SOL     OW92073   7.295   5.093   2.453  0.6094  0.3907 -0.3633
29494SOL    HW192074   7.342   5.161   2.501 -0.4589  0.1531  1.1128
29494SOL    HW292075   7.254   5.139   2.380 -0.7516  1.5390  1.0592
29495SOL     OW92076   4.055   1.211   4.653  0.8273 -0.3040 -0.1235
29495SOL    HW192077   4.095   1.259   4.580 -1.0964  1.7906  0.0723
29495SOL    HW292078   4.114   1.227   4.727  2.0261 -1.2087 -0.8600
29496SOL     OW92079   5.440   7.314   0.300 -0.1152  0.5300  0.1646
29496SOL    HW192080   5.506   7.265   0.251 -0.5554  1.0417 -0.9843
29496SOL    HW292081   5.380   7.247   0.333  1.1741  0.0167  1.5913
29497SOL     OW92082   4.817   7.722   9.211  0.0490  0.0231 -0.0884
29497SOL    HW192083   4.816   7.682   9.124  0.9737  1.9606 -1.0630
29497SOL    HW292084   4.882   7.672   9.260  0.1356 -0.5641 -0.7935
29498SOL     OW92085   3.495   3.926   9.617  0.4141  0.0162 -0.2814
29498SOL    HW192086   3.493   4.010   9.662  2.4911  0.4489 -0.8784
29498SOL    HW292087   3.515   3.947   9.526 -1.1056 -1.0143 -0.9000
29499SOL     OW92088   8.229   9.596  10.612 -0.1730 -0.3062  0.3577
29499SOL    HW192089   8.282   9.545  10.674  0.4953 -0.8934 -0.6769
29499SOL    HW292090   8.147   9.612  10.659 -0.1538 -1.7817  0.9493
29500SOL     OW92091   4.802   5.327   7.477 -0.3970 -0.3036  0.7379
29500SOL    HW192092   4.721   5.345   7.430 -1.1108 -1.5334  1.4364
29500SOL    HW292093   4.858   5.285   7.413 -0.6684 -0.3124  0.5037
29501SOL     OW92094   1.928   9.022   2.171 -0.5383  0.0937  0.2479
29501SOL    HW192095   2.018   9.052   2.182 -0.7082  0.3057  1.1353
29501SOL    HW292096   1.881   9.098   2.135 -0.1770 -0.3104 -1.1333
29502SOL     OW92097   3.153  10.859   1.743 -0.0847  0.4172 -0.2000
29502SOL    HW192098   3.186  10.851   1.832  0.4477 -1.9984 -0.5437
29502SOL    HW292099   3.225  10.902   1.695  0.6613 -0.5236  0.0423
29503SOL     OW92100   0.501   5.898   5.794 -0.3948  0.4714  0.5119
29503SOL    HW192101   0.497   5.842   5.872  1.1169 -0.3963  0.0137
29503SOL    HW292102   0.411   5.904   5.764 -0.8710  0.0136  1.7669
29504SOL     OW92103   8.003  10.589   3.621 -0.1582  0.1857  0.0667
29504SOL    HW192104   8.018  10.513   3.676 -0.7205 -0.4465 -0.6385
29504SOL    HW292105   8.087  10.635   3.621  1.0291 -1.8185 -1.5995
29505SOL     OW92106  10.891   7.554   8.240 -0.1188  0.0622  0.1143
29505SOL    HW192107  10.807   7.582   8.203 -1.8866 -0.8680  3.0669
29505SOL    HW292108  10.905   7.467   8.203  0.1210  0.6402 -1.2004
29506SOL     OW92109   9.768   4.423  10.543 -0.4259  0.0351 -0.1862
29506SOL    HW192110   9.820   4.500  10.567  0.3907 -0.1128 -1.3732
29506SOL    HW292111   9.811   4.390  10.463 -1.6457 -0.7915 -0.5167
29507SOL     OW92112   6.798   5.592   0.842 -0.3327 -0.0278  0.5165
29507SOL    HW192113   6.877   5.570   0.892 -0.3329  1.0774  1.0093
29507SOL    HW292114   6.733   5.527   0.870  0.2634 -0.6912  0.4115
29508SOL     OW92115   3.334  10.554   4.361 -0.5130  0.3601  0.3637
29508SOL    HW192116   3.405  10.491   4.353 -0.5707  0.2231  0.8869
29508SOL    HW292117   3.363  10.629   4.309  1.4080  1.5337  2.9117
29509SOL     OW92118   7.268   6.094   2.251 -0.3136 -0.3803 -0.0120
29509SOL    HW192119   7.174   6.092   2.272 -0.4420 -2.9416 -0.4312
29509SOL    HW292120   7.274   6.054   2.164  1.1956 -0.6310  0.1762
29510SOL     OW92121   9.941   8.181   2.160 -0.4156  0.0479 -0.1139
29510SOL    HW192122  10.024   8.135   2.172  0.1799  1.2830  0.7191
29510SOL    HW292123   9.915   8.208   2.248 -0.0593  2.3900 -0.6422
29511SOL     OW92124   5.179   8.428  10.247 -0.0623 -0.0857 -0.3886
29511SOL    HW192125   5.128   8.359  10.205 -1.1223  0.7816 -0.5724
29511SOL    HW292126   5.148   8.429  10.338 -2.2374  2.0241 -1.0291
29512SOL     OW92127   4.817   3.178   2.734  0.1123 -0.1371 -0.3656
29512SOL    HW192128   4.740   3.123   2.718 -1.2929  1.5596  0.2328
29512SOL    HW292129   4.808   3.250   2.673  2.1263 -0.6942 -1.3847
29513SOL     OW92130   8.871   1.216   7.931  0.5249 -0.0382 -0.0952
29513SOL    HW192131   8.878   1.275   8.005 -1.0628 -1.9761  1.7274
29513SOL    HW292132   8.962   1.195   7.909  1.0330  0.5265  1.3561
29514SOL     OW92133   5.126   7.504   5.983  0.4998  0.5405  0.1710
29514SOL    HW192134   5.059   7.444   6.015  1.5679 -0.9613 -0.2794
29514SOL    HW292135   5.158   7.548   6.062 -0.6704  0.9497  0.4372
29515SOL     OW92136   6.044   3.525   1.948  0.1541  0.4072 -0.2454
29515SOL    HW192137   6.108   3.510   1.878 -0.8929 -0.0617 -1.1367
29515SOL    HW292138   6.034   3.621   1.951 -0.8743  0.3964 -1.8075
29516SOL     OW92139   8.742   4.920   4.583 -0.2357  0.1183 -0.0059
29516SOL    HW192140   8.823   4.959   4.551  1.8381 -1.3922  3.0224
29516SOL    HW292141   8.690   4.994   4.614  0.4501  0.9971 -0.8935
29517SOL     OW92142   1.417   1.762   6.990 -0.2605  0.1649 -0.5271
29517SOL    HW192143   1.333   1.806   6.978 -0.4668  0.2218  0.8800
29517SOL    HW292144   1.396   1.669   6.986 -0.5812  0.1626  0.7651
29518SOL     OW92145   2.712   4.871   1.575  0.3205 -0.0346  0.4536
29518SOL    HW192146   2.655   4.848   1.501  0.9625  1.2639 -0.4885
29518SOL    HW292147   2.655   4.921   1.634  0.0031 -0.3800  0.4440
29519SOL     OW92148   6.311   9.804   0.367 -0.2345 -0.2043 -0.5597
29519SOL    HW192149   6.227   9.763   0.387  0.0469  0.3236  2.1776
29519SOL    HW292150   6.366   9.733   0.336 -1.0071 -1.0258 -0.0968
29520SOL     OW92151   5.931   0.074   2.331  0.1500 -0.3159 -0.5022
29520SOL    HW192152   5.989   0.024   2.273  0.8250  0.9924 -1.0035
29520SOL    HW292153   5.985   0.146   2.363 -0.9440  0.4372 -0.2757
29521SOL     OW92154   1.865   0.993   3.352 -0.2557  0.4556 -0.0337
29521SOL    HW192155   1.944   1.011   3.301 -1.3001  1.3939 -1.3812
29521SOL    HW292156   1.831   0.912   3.315 -1.0441  1.1649 -0.8901
29522SOL     OW92157   6.075   9.361   9.930 -0.0894  0.4721 -0.3849
29522SOL    HW192158   5.983   9.363   9.904 -0.0081  0.6338 -0.6652
29522SOL    HW292159   6.074   9.377  10.024 -0.3117  1.0219 -0.4775
29523SOL     OW92160   0.846   6.862   4.333  0.4749 -0.1622 -0.2328
29523SOL    HW192161   0.810   6.947   4.307 -0.1121 -0.5523 -0.7156
29523SOL    HW292162   0.904   6.838   4.261  0.1253 -0.4770 -0.4119
29524SOL     OW92163   7.335   2.392   4.407 -0.4423  0.2558 -0.0827
29524SOL    HW192164   7.278   2.402   4.330  1.1600 -0.6621 -1.4504
29524SOL    HW292165   7.391   2.470   4.405  1.9540 -1.3689 -1.9867
29525SOL     OW92166   6.415   3.522   1.362 -0.1441  0.7716  0.4534
29525SOL    HW192167   6.335   3.553   1.403  0.2971  0.9180  1.2173
29525SOL    HW292168   6.386   3.479   1.281 -1.0567  0.2146  1.0596
29526SOL     OW92169   9.445  11.084   5.436 -0.5626 -0.2183  0.1909
29526SOL    HW192170   9.417  11.029   5.362  1.2812  1.7450 -2.1505
29526SOL    HW292171   9.364  11.127   5.465 -1.0450  0.7606 -2.3455
29527SOL     OW92172   4.822   1.538   5.857 -0.4637 -0.2198  0.8962
29527SOL    HW192173   4.845   1.497   5.941 -0.5983  0.6208  1.3600
29527SOL    HW292174   4.864   1.624   5.860  0.6034 -0.6589 -0.4590
29528SOL     OW92175   5.805   0.495  10.096  0.1073  0.1321  0.4607
29528SOL    HW192176   5.892   0.475  10.062  0.2417  0.2535  0.7276
29528SOL    HW292177   5.757   0.529  10.020 -0.3277 -1.7344 -0.1644
29529SOL     OW92178   7.028   6.217   6.255  0.0964  0.1193 -0.7082
29529SOL    HW192179   7.118   6.240   6.234  0.3438  0.1546  0.3672
29529SOL    HW292180   7.024   6.122   6.246  0.3216  0.0853 -0.4477
29530SOL     OW92181   3.425   4.792   0.155  0.0498  0.2208 -0.1037
29530SOL    HW192182   3.511   4.826   0.180 -0.6863  2.4421 -0.3015
29530SOL    HW292183   3.430   4.698   0.170  3.1209 -0.0348 -1.9876
29531SOL     OW92184   0.263   5.318   7.190  0.3504 -0.0143 -0.4030
29531SOL    HW192185   0.250   5.399   7.140 -3.9242  0.3478  0.8574
29531SOL    HW292186   0.327   5.341   7.257 -2.1366  3.1673  1.1637
29532SOL     OW92187   5.852   7.827   3.015 -0.4808 -0.3331 -0.0347
29532SOL    HW192188   5.888   7.762   2.954 -1.2303  0.2074 -1.0867
29532SOL    HW292189   5.770   7.789   3.045 -0.9557  0.1363 -0.7067
29533SOL     OW92190   5.252  10.036   6.790 -0.4463  0.1980  0.0421
29533SOL    HW192191   5.238  10.019   6.883 -2.3791 -0.0324 -0.2374
29533SOL    HW292192   5.296   9.957   6.757 -2.6024 -1.1550  0.1983
29534SOL     OW92193   4.988   9.138   6.182  0.2507  0.4198  0.1984
29534SOL    HW192194   5.042   9.122   6.105 -0.6429 -0.2585 -0.3126
29534SOL    HW292195   4.903   9.097   6.160 -0.6458  1.9222  0.7474
29535SOL     OW92196   5.795   1.814   7.849 -0.2048  0.2744 -0.1212
29535SOL    HW192197   5.861   1.809   7.918 -0.7863 -2.8939  0.3609
29535SOL    HW292198   5.712   1.828   7.896 -0.6059 -1.9112 -0.0809
29536SOL     OW92199  10.064   5.867   3.249 -0.3218 -0.2208  0.2060
29536SOL    HW192200  10.034   5.921   3.176 -0.6764  0.1882  0.6449
29536SOL    HW292201  10.098   5.930   3.313 -1.1813 -0.4651  0.9226
29537SOL     OW92202   3.374   7.331   7.209 -0.2621 -0.1316 -0.1025
29537SOL    HW192203   3.351   7.325   7.302  2.7361  0.7193  0.7902
29537SOL    HW292204   3.394   7.241   7.183  1.0279 -0.0944  0.7154
29538SOL     OW92205  10.290   1.969  10.210  0.1555 -0.1508  0.0783
29538SOL    HW192206  10.236   1.900  10.172  0.5162 -2.0626  2.7716
29538SOL    HW292207  10.229   2.040  10.229 -0.4707 -0.2331 -1.4979
29539SOL     OW92208   6.652   5.170   0.194 -0.5875  0.7889  0.2174
29539SOL    HW192209   6.679   5.261   0.191 -3.3424  1.6948 -0.7084
29539SOL    HW292210   6.607   5.161   0.279 -0.2441  0.2638  0.3481
29540SOL     OW92211   2.063   1.437   6.577 -0.3922  0.2079  0.0470
29540SOL    HW192212   2.030   1.393   6.499  0.0922 -1.3225  0.6795
29540SOL    HW292213   1.995   1.501   6.599 -1.5523 -0.8546 -0.3679
29541SOL     OW92214  10.275   1.456   0.435  0.0529  0.0328 -0.7396
29541SOL    HW192215  10.202   1.463   0.374 -0.1712 -0.7153 -0.5754
29541SOL    HW292216  10.302   1.364   0.429 -2.3393 -1.1498  2.8928
29542SOL     OW92217   9.061   9.595   5.311 -0.0374  0.3906  0.5754
29542SOL    HW192218   9.025   9.588   5.400 -0.0926  1.2477  0.6311
29542SOL    HW292219   9.119   9.519   5.302  1.3758  1.2293  2.0034
29543SOL     OW92220   6.786   7.808   4.671  0.6860  0.6966 -0.4695
29543SOL    HW192221   6.776   7.877   4.606 -0.6144  1.6293  0.6379
29543SOL    HW292222   6.758   7.728   4.626  3.1741  0.6440 -2.0784
29544SOL     OW92223   7.332   3.095   9.473  0.3911  0.0411  0.0551
29544SOL    HW192224   7.357   3.159   9.540  0.0497  0.6664 -0.4023
29544SOL    HW292225   7.238   3.080   9.488  0.4142 -0.1566  0.0008
29545SOL     OW92226   2.102   9.003   4.479 -0.1220  0.0884  0.1170
29545SOL    HW192227   2.160   9.070   4.515  1.6863 -1.6607  0.6940
29545SOL    HW292228   2.064   8.961   4.556  1.0989 -1.4326 -0.0473
29546SOL     OW92229   9.565   6.268   6.874 -0.4199 -0.3959 -0.5027
29546SOL    HW192230   9.499   6.319   6.827 -0.4978 -0.1157 -0.0906
29546SOL    HW292231   9.525   6.181   6.883 -0.7082 -0.2426 -0.3030
29547SOL     OW92232   1.284   4.062   8.495 -0.2246 -0.0489 -0.2648
29547SOL    HW192233   1.342   4.051   8.571 -0.6939 -2.8290 -0.1989
29547SOL    HW292234   1.340   4.099   8.427  0.4320  1.6553  1.1385
29548SOL     OW92235   7.969   9.156   9.631  0.5124 -0.6537 -0.4221
29548SOL    HW192236   7.931   9.105   9.703  0.9681  1.3517  1.3206
29548SOL    HW292237   7.963   9.098   9.555 -0.6700 -2.5750  1.0517
29549SOL     OW92238   7.574   8.352   4.860 -0.5185 -0.4208  0.3293
29549SOL    HW192239   7.594   8.412   4.788  0.1687 -0.7591  0.2246
29549SOL    HW292240   7.600   8.399   4.939  0.5921 -0.7811  0.2077
29550SOL     OW92241   2.548   7.978   9.183  0.1277  0.2850 -0.2855
29550SOL    HW192242   2.493   8.057   9.176 -2.2862 -1.3632 -1.3847
29550SOL    HW292243   2.495   7.917   9.235  1.7678 -0.7671  0.2112
29551SOL     OW92244   6.819   1.179   1.291 -1.1141 -0.1693  0.4219
29551SOL    HW192245   6.866   1.210   1.368 -1.9806 -0.4747  1.0989
29551SOL    HW292246   6.785   1.258   1.249 -1.4896 -0.0533  0.9297
29552SOL     OW92247   5.406   5.962   2.381 -0.2932 -0.0052 -0.0110
29552SOL    HW192248   5.466   6.036   2.370  0.9515 -0.8161  0.9615
29552SOL    HW292249   5.464   5.886   2.384 -1.1470 -0.6722  2.7937
29553SOL     OW92250   9.468   2.904   2.437  0.2908  0.0031 -0.2774
29553SOL    HW192251   9.384   2.885   2.395 -0.6814  0.6273  1.2948
29553SOL    HW292252   9.531   2.905   2.365 -1.0894 -0.1644 -1.5399
29554SOL     OW92253   7.626   7.182   6.082  0.0064  0.2494  0.1676
29554SOL    HW192254   7.694   7.244   6.108  1.1593 -1.3693  1.1787
29554SOL    HW292255   7.648   7.158   5.992  0.6264 -0.0639  0.3987
29555SOL     OW92256   1.062   8.399   9.802 -0.0066 -0.3555  0.0025
29555SOL    HW192257   0.992   8.422   9.741  0.3170 -0.3245 -0.3604
29555SOL    HW292258   1.140   8.440   9.765  0.2157 -0.4436  0.3712
29556SOL     OW92259   1.300   1.337   9.189  0.5114 -0.3201 -0.5890
29556SOL    HW192260   1.299   1.250   9.231 -1.5436 -0.7866 -1.4720
29556SOL    HW292261   1.382   1.376   9.218 -0.0597 -1.2083  2.6570
29557SOL     OW92262   4.563   5.232   4.879 -0.1816 -0.5451 -0.0633
29557SOL    HW192263   4.577   5.139   4.896 -0.1075 -0.6228 -0.5501
29557SOL    HW292264   4.639   5.258   4.826 -0.0997 -0.1621  0.2395
29558SOL     OW92265   9.670  10.501   3.276 -0.0722 -0.2656  0.1725
29558SOL    HW192266   9.709  10.543   3.199  0.4027  1.8116  1.4505
29558SOL    HW292267   9.619  10.571   3.318 -0.0144 -1.2125  1.9236
29559SOL     OW92268   2.095   6.397   8.590 -0.0634  0.2421  0.4591
29559SOL    HW192269   2.030   6.333   8.561  0.3407 -0.1915  0.4929
29559SOL    HW292270   2.112   6.373   8.682  0.0848  0.4006  0.4733
29560SOL     OW92271   7.881   6.994   9.210  0.6419 -0.1268 -0.1970
29560SOL    HW192272   7.787   6.991   9.230  0.2212 -0.6928 -2.1049
29560SOL    HW292273   7.920   6.930   9.270 -0.3216 -0.5505 -0.0062
29561SOL     OW92274   1.332   2.668   1.064  0.1342 -0.9232 -0.0158
29561SOL    HW192275   1.329   2.615   0.984 -1.1342 -0.6406 -0.1870
29561SOL    HW292276   1.420   2.706   1.064 -0.7807  1.7684 -3.1484
29562SOL     OW92277   3.356   6.221   1.292  0.0075 -0.4636 -0.0598
29562SOL    HW192278   3.318   6.242   1.377 -0.5067  0.9071 -0.5939
29562SOL    HW292279   3.434   6.277   1.286 -0.9051  0.7452 -1.1682
29563SOL     OW92280   3.792   1.681   1.744  0.0192  0.5322  0.2598
29563SOL    HW192281   3.744   1.610   1.786 -0.4329  1.1530  0.8231
29563SOL    HW292282   3.862   1.702   1.805  2.1384 -1.5174 -1.3263
29564SOL     OW92283   0.437   1.692  10.454 -0.0866 -0.4685 -0.8643
29564SOL    HW192284   0.425   1.611  10.404  0.3988 -0.8337 -0.3987
29564SOL    HW292285   0.531   1.694  10.474 -0.4520 -0.9440  1.0572
29565SOL     OW92286   3.877   8.854   9.071 -0.2784 -0.5017  0.2413
29565SOL    HW192287   3.894   8.842   8.978  0.2009  1.2497  0.0773
29565SOL    HW292288   3.846   8.944   9.079  1.5439  0.0490  2.0004
29566SOL     OW92289   6.363   4.201   9.974  0.2260 -0.8296  0.0596
29566SOL    HW192290   6.385   4.293   9.959 -1.1928 -0.2399  1.3620
29566SOL    HW292291   6.447   4.155   9.965  1.4403  0.8922  1.6160
29567SOL     OW92292   1.609   7.694   0.447 -0.0673 -0.1798 -0.5370
29567SOL    HW192293   1.679   7.656   0.395 -0.2004 -0.7147 -0.3348
29567SOL    HW292294   1.654   7.737   0.520  0.1311  0.7404 -1.1774
29568SOL     OW92295   8.354   8.424   1.457 -0.1790 -0.1592 -0.4400
29568SOL    HW192296   8.270   8.380   1.440  0.2459 -1.3843  0.4697
29568SOL    HW292297   8.355   8.498   1.396 -2.4178  0.5601  0.2766
29569SOL     OW92298   1.466   1.739   4.282 -0.3638 -0.0475  0.2932
29569SOL    HW192299   1.469   1.666   4.220  0.9279 -0.8932  1.2953
29569SOL    HW292300   1.379   1.777   4.271 -0.0315  0.1233 -2.3448
29570SOL     OW92301   4.868   0.014   0.623  0.4108 -0.2811  0.3447
29570SOL    HW192302   4.891  -0.078   0.637  0.7801 -0.5656 -1.7415
29570SOL    HW292303   4.824   0.015   0.538  2.0740  1.6717 -0.5909
29571SOL     OW92304   5.289   0.397   2.184  0.0680 -0.4917  0.2653
29571SOL    HW192305   5.233   0.336   2.136 -0.6359 -1.3411  2.0595
29571SOL    HW292306   5.325   0.345   2.256 -0.7457  1.2224  2.0079
29572SOL     OW92307   8.344  10.734   3.323  0.1597  0.7195 -0.3469
29572SOL    HW192308   8.280  10.790   3.279 -0.1338  2.2467  1.8768
29572SOL    HW292309   8.375  10.786   3.398  1.1855 -1.4351  0.8253
29573SOL     OW92310   5.989   6.240   8.214 -0.0220 -0.0826  0.1869
29573SOL    HW192311   5.943   6.275   8.138 -0.2819  2.5933  1.4258
29573SOL    HW292312   5.920   6.220   8.277  0.2525 -0.9904  0.2050
29574SOL     OW92313   0.999   0.174   9.353  0.2839 -0.2211 -0.2561
29574SOL    HW192314   0.975   0.253   9.402  0.7102 -0.0734 -0.2815
29574SOL    HW292315   0.987   0.103   9.416 -1.5574 -0.3308 -0.6670
29575SOL     OW92316   5.608   2.312   0.034  0.7496 -0.7945 -0.8432
29575SOL    HW192317   5.632   2.403   0.017  1.4132 -0.5422  1.1630
29575SOL    HW292318   5.527   2.298  -0.017  0.7258  0.8505 -1.2986
29576SOL     OW92319   0.865   9.395   1.667  0.2248 -0.0027 -0.3843
29576SOL    HW192320   0.771   9.415   1.668  0.1063 -0.5699  0.5239
29576SOL    HW292321   0.905   9.473   1.628 -0.3880  1.3290  1.5113
29577SOL     OW92322   1.544   9.026   7.443 -0.0307  0.0943  0.2731
29577SOL    HW192323   1.471   8.984   7.397  1.4752  1.0739 -3.3301
29577SOL    HW292324   1.615   8.962   7.438  0.7489  0.9999 -0.6387
29578SOL     OW92325   9.748   1.461   8.691 -0.1009  0.2359 -0.4068
29578SOL    HW192326   9.668   1.452   8.743 -0.4228  1.6623 -0.6352
29578SOL    HW292327   9.770   1.554   8.695  2.2507 -0.2924  0.6540
29579SOL     OW92328   6.387   9.817   8.519  0.4233 -0.0531 -0.0134
29579SOL    HW192329   6.399   9.793   8.611 -3.2820  0.0787  0.6686
29579SOL    HW292330   6.351   9.906   8.522 -0.8560 -0.4828 -1.4861
29580SOL     OW92331   3.708   3.034  10.518 -0.2866 -0.0923 -0.2768
29580SOL    HW192332   3.726   2.963  10.457 -1.8275 -0.2158 -0.6264
29580SOL    HW292333   3.692   2.991  10.602  2.5237  0.1182  0.4547
29581SOL     OW92334   9.171   7.376  10.893  0.4956  0.2760  0.3568
29581SOL    HW192335   9.107   7.402  10.827 -0.4108  1.6361  1.7045
29581SOL    HW292336   9.128   7.306  10.942  0.1116  1.0132  1.0980
29582SOL     OW92337   1.384   0.929   6.044 -0.1264  0.3980 -0.4060
29582SOL    HW192338   1.318   0.960   5.981 -0.3015  1.9239  0.4959
29582SOL    HW292339   1.467   0.963   6.010  0.2923 -1.6565 -1.6293
29583SOL     OW92340   6.811   1.442   2.132  0.4381  0.4765 -0.0859
29583SOL    HW192341   6.830   1.372   2.194  0.7234  1.3349  0.8315
29583SOL    HW292342   6.844   1.411   2.048 -0.1659 -0.8056  0.1379
29584SOL     OW92343   8.222   0.193   6.948 -0.1439  0.3925  0.5827
29584SOL    HW192344   8.289   0.172   7.014 -1.4127 -0.6083  1.6261
29584SOL    HW292345   8.246   0.280   6.917  0.7901  0.7035  2.0289
29585SOL     OW92346   0.483   5.970   3.173  0.5314  0.0740 -0.6478
29585SOL    HW192347   0.419   5.900   3.183 -0.6207  1.1768  0.0298
29585SOL    HW292348   0.558   5.943   3.226  0.1637 -0.6916 -0.5161
29586SOL     OW92349   8.114   6.884   7.971  0.8204 -0.2285  0.8397
29586SOL    HW192350   8.100   6.968   8.015  1.5145 -0.8210  2.2551
29586SOL    HW292351   8.110   6.820   8.042 -0.5729 -1.4987 -0.3317
29587SOL     OW92352   9.439   4.627   1.306  0.3716  0.0885  0.2750
29587SOL    HW192353   9.511   4.601   1.249 -0.8394 -1.3927 -0.6541
29587SOL    HW292354   9.383   4.682   1.251  0.1261  0.1680  0.5984
29588SOL     OW92355   8.962   8.831   3.203  0.0883  0.0737  0.2282
29588SOL    HW192356   9.048   8.790   3.211  0.0067  0.0843  1.3533
29588SOL    HW292357   8.900   8.759   3.218 -0.0715  0.3378  0.8659
29589SOL     OW92358   8.989   5.295  10.140  0.3634  0.1907  0.0591
29589SOL    HW192359   8.933   5.362  10.099 -0.1409 -0.9221 -1.1368
29589SOL    HW292360   9.020   5.337  10.220 -2.8498  0.5879  1.2696
29590SOL     OW92361   3.644   1.433   9.180  0.3008  0.1450  0.4831
29590SOL    HW192362   3.558   1.442   9.219 -0.3061 -0.4716 -0.6502
29590SOL    HW292363   3.665   1.522   9.149 -0.8967 -0.0858 -1.1256
29591SOL     OW92364   7.736   4.817  10.501 -0.7272 -0.1934  0.0332
29591SOL    HW192365   7.745   4.911  10.519 -2.2708  0.2408 -1.1726
29591SOL    HW292366   7.823   4.781  10.514  0.4534  1.8218 -1.6545
29592SOL     OW92367   6.363   1.401   9.482  0.5017  0.5495  0.3656
29592SOL    HW192368   6.338   1.460   9.410 -0.5063  0.5378  0.6932
29592SOL    HW292369   6.407   1.458   9.545 -0.6735  1.0208  0.7857
29593SOL     OW92370   8.125   5.795   6.516 -0.5639  0.1796  0.1862
29593SOL    HW192371   8.157   5.811   6.427  0.1332  2.1309  0.7407
29593SOL    HW292372   8.034   5.825   6.515 -0.2987  1.0144  0.3292
29594SOL     OW92373   1.730   7.923   8.848  0.2465  0.8829  0.1431
29594SOL    HW192374   1.653   7.973   8.820 -0.7926  0.4567  2.0231
29594SOL    HW292375   1.756   7.964   8.931  1.8824  0.8181 -0.3042
29595SOL     OW92376  10.549   0.599   0.081 -0.2269 -0.7148 -0.2566
29595SOL    HW192377  10.492   0.644   0.144  0.7007  0.8021 -0.4405
29595SOL    HW292378  10.501   0.604  -0.001  0.3678  1.0635 -0.5325
29596SOL     OW92379   3.345   7.882   4.966  0.3240 -0.2364 -0.6303
29596SOL    HW192380   3.412   7.916   4.906 -0.5366  0.5267 -1.2037
29596SOL    HW292381   3.380   7.798   4.996  1.9933  0.5952 -0.1046
29597SOL     OW92382   0.056   6.531   3.414  0.0237  0.1997  0.0890
29597SOL    HW192383   0.103   6.613   3.399 -0.3756  0.4963  0.4384
29597SOL    HW292384   0.108   6.485   3.479 -0.4024  0.7336  0.8250
29598SOL     OW92385   2.955   9.417  10.576 -0.0114 -0.6164 -0.2986
29598SOL    HW192386   2.871   9.437  10.618 -0.4096 -1.2714 -0.7567
29598SOL    HW292387   3.021   9.455  10.634 -0.5495 -1.4238  0.8813
29599SOL     OW92388   8.540   7.575  11.005  0.0724 -0.1915  0.0926
29599SOL    HW192389   8.623   7.544  10.968  1.3144  1.5962  1.2054
29599SOL    HW292390   8.500   7.626  10.934  0.3338 -0.3525 -0.1730
29600SOL     OW92391   5.087  10.735   8.086 -0.0491  0.0001  0.3944
29600SOL    HW192392   5.178  10.712   8.103 -0.0961 -0.2480  0.3139
29600SOL    HW292393   5.040  10.706   8.164 -0.0175  0.3880  0.5575
29601SOL     OW92394   3.541   0.983   6.199 -0.2107 -0.5285  0.1667
29601SOL    HW192395   3.587   0.968   6.117 -0.4476 -1.1001  0.1336
29601SOL    HW292396   3.535   1.078   6.206 -1.1738 -0.4803 -1.0289
29602SOL     OW92397   5.637   6.485   4.224  0.0995  0.3909 -0.0172
29602SOL    HW192398   5.662   6.436   4.146  0.6447  0.8940 -0.1602
29602SOL    HW292399   5.687   6.445   4.295  0.0055  0.2790 -0.0139
29603SOL     OW92400   3.400   8.346   2.915  0.1054  0.4636 -0.3949
29603SOL    HW192401   3.481   8.295   2.914  0.3021  0.7201  0.9284
29603SOL    HW292402   3.427   8.433   2.886  0.7330  1.0873  1.8526
29604SOL     OW92403   9.063   1.257   7.157  0.1477  0.2856  0.1952
29604SOL    HW192404   9.012   1.337   7.149  0.4284  0.3775 -0.8127
29604SOL    HW292405   9.154   1.285   7.148  0.4285  0.1448  2.1305
29605SOL     OW92406   0.798   9.986   3.208 -0.4332 -0.1832 -0.0690
29605SOL    HW192407   0.747   9.919   3.254  1.0299 -0.3295  1.4514
29605SOL    HW292408   0.860   9.936   3.155 -0.9290 -0.0070 -0.8311
29606SOL     OW92409   5.539   3.242   1.915 -0.2205  0.5238  0.4730
29606SOL    HW192410   5.588   3.217   1.993 -1.9278 -3.7878  0.4398
29606SOL    HW292411   5.476   3.308   1.946  0.5220  0.4537  2.2358
29607SOL     OW92412   4.521   9.622   0.265  0.5836 -0.0023 -0.2693
29607SOL    HW192413   4.550   9.532   0.249 -1.0950 -0.3947 -1.3157
29607SOL    HW292414   4.584   9.656   0.329 -0.0974 -2.6867  2.0301
29608SOL     OW92415   9.775   0.634   9.111 -0.5253  0.1577 -0.4371
29608SOL    HW192416   9.790   0.550   9.154  1.2995 -0.2963 -1.8478
29608SOL    HW292417   9.825   0.697   9.164 -2.3330  0.5160  0.9400
29609SOL     OW92418   1.198   3.560  10.124 -0.1183 -0.4364  0.3789
29609SOL    HW192419   1.106   3.554  10.100 -0.1291  1.3790 -0.1755
29609SOL    HW292420   1.224   3.469  10.143 -2.1202 -0.9192  1.0331
29610SOL     OW92421   2.085   2.807   6.417  0.3461  0.3767  0.1004
29610SOL    HW192422   2.007   2.752   6.428  1.8035 -2.0529 -0.8895
29610SOL    HW292423   2.101   2.807   6.322  2.9072 -1.3225  0.4394
29611SOL     OW92424   3.043   8.151   4.197 -0.2124  0.3854 -0.1057
29611SOL    HW192425   3.055   8.190   4.110 -0.8038 -1.1850 -0.9402
29611SOL    HW292426   2.950   8.163   4.216 -0.6418 -1.4228 -0.8428
29612SOL     OW92427   0.488   0.343   8.986 -0.2604 -0.8001  0.2903
29612SOL    HW192428   0.491   0.252   9.016  2.1017 -0.5130  1.1850
29612SOL    HW292429   0.536   0.342   8.903 -0.0710 -0.3417  0.3927
29613SOL     OW92430   8.850   8.567   3.275 -0.0543 -0.4867 -0.0142
29613SOL    HW192431   8.759   8.539   3.268 -0.3296  0.6707 -1.4298
29613SOL    HW292432   8.890   8.539   3.192  1.2034 -1.9849  1.0253
29614SOL     OW92433   5.496   1.346   9.338  0.1809 -0.8481  0.2564
29614SOL    HW192434   5.407   1.342   9.302  0.0348 -0.3395  0.5511
29614SOL    HW292435   5.552   1.316   9.267  0.0710  1.7551 -1.0560
29615SOL     OW92436   0.721   2.730   8.954 -0.0811 -0.3831 -0.6663
29615SOL    HW192437   0.679   2.654   8.913 -1.2823  0.0169 -0.2175
29615SOL    HW292438   0.672   2.805   8.919 -1.1758 -0.0285  1.4768
29616SOL     OW92439   1.925   4.003   2.422 -0.0196  0.6204 -0.3721
29616SOL    HW192440   2.017   4.018   2.442 -0.2981  0.5913  1.0332
29616SOL    HW292441   1.925   3.922   2.370  0.5866 -0.8693  1.7923
29617SOL     OW92442   7.469   2.973   7.630  0.7271  0.7917 -0.2812
29617SOL    HW192443   7.411   3.048   7.623 -0.7984 -0.2552  0.5802
29617SOL    HW292444   7.421   2.902   7.588  1.0040 -0.2925  1.1687
29618SOL     OW92445   9.940   6.698   0.799  0.5461  0.1998 -0.3234
29618SOL    HW192446   9.917   6.710   0.707  0.3982  0.6350 -0.2335
29618SOL    HW292447   9.944   6.787   0.835 -1.8673 -0.0247  0.6827
29619SOL     OW92448   4.016   6.739  11.008  0.7712  0.1791 -0.1709
29619SOL    HW192449   4.015   6.712  10.917 -2.8006  0.1414 -0.2925
29619SOL    HW292450   4.007   6.657  11.058 -2.5265  0.3792 -0.1837
29620SOL     OW92451   1.142   9.337   6.003 -0.2379  0.7745 -0.1984
29620SOL    HW192452   1.157   9.427   6.031 -0.7011  0.9751 -0.5708
29620SOL    HW292453   1.078   9.303   6.066 -2.2796  1.6328 -1.6657
29621SOL     OW92454   9.501   4.999   7.994  0.5928  0.4061  0.3426
29621SOL    HW192455   9.453   4.916   7.987 -1.0572  1.3611 -0.1253
29621SOL    HW292456   9.444   5.055   8.047  1.6468  1.2806  0.5903
29622SOL     OW92457   0.493   8.664   5.591 -0.2433 -0.4505  0.7822
29622SOL    HW192458   0.523   8.744   5.635  1.7480  0.6480 -2.1720
29622SOL    HW292459   0.504   8.595   5.656  0.4092  1.3202  2.6659
29623SOL     OW92460   4.746  10.569   2.455 -0.4672 -0.4186 -0.5731
29623SOL    HW192461   4.740  10.514   2.533 -0.8713 -0.7689 -0.8473
29623SOL    HW292462   4.826  10.620   2.468 -0.8142 -0.0795  0.3251
29624SOL     OW92463  10.957   6.365   9.915 -0.3906 -0.1641  0.6522
29624SOL    HW192464  10.993   6.435   9.860 -1.3651 -0.2210 -0.0878
29624SOL    HW292465  11.024   6.297   9.914 -0.3001 -0.0798 -0.3099
29625SOL     OW92466   5.131   9.726   0.049 -0.0463 -0.3186  0.1689
29625SOL    HW192467   5.042   9.760   0.051 -0.6826 -1.9144  0.5017
29625SOL    HW292468   5.152   9.718  -0.044 -0.3371 -0.1509  0.0892
29626SOL     OW92469   1.172   7.228   0.427 -0.2017 -0.2943 -0.6095
29626SOL    HW192470   1.197   7.143   0.392  1.4233  0.1036 -0.4720
29626SOL    HW292471   1.239   7.288   0.393 -0.5570  0.6930  0.3938
29627SOL     OW92472   2.869   3.912   2.414  0.1761 -0.0589 -0.5299
29627SOL    HW192473   2.883   3.922   2.320  1.3460 -0.3918 -0.4010
29627SOL    HW292474   2.951   3.877   2.447  0.1392  1.0353  0.7903
29628SOL     OW92475   5.034   7.849   0.124  0.8700  0.3240 -0.5368
29628SOL    HW192476   5.007   7.900   0.200 -0.6060  0.2163 -0.9551
29628SOL    HW292477   5.114   7.804   0.152  1.7583  2.2055  0.0949
29629SOL     OW92478   5.018   7.208  10.735 -0.1809  0.3124 -0.7583
29629SOL    HW192479   5.045   7.237  10.648  0.5361 -0.6020 -0.8448
29629SOL    HW292480   4.923   7.224  10.736 -0.2734 -0.0440 -1.8541
29630SOL     OW92481   3.482   2.539   2.667  0.2020  0.0031 -0.6890
29630SOL    HW192482   3.554   2.529   2.728 -0.5938  0.4187  0.3459
29630SOL    HW292483   3.403   2.532   2.721 -0.5100  2.3439 -1.2986
29631SOL     OW92484   5.575   7.000   0.611 -0.1281 -0.4406 -0.0852
29631SOL    HW192485   5.527   7.077   0.581  1.4545  0.3012 -0.8170
29631SOL    HW292486   5.630   7.032   0.683  0.6208 -0.8552 -0.4631
29632SOL     OW92487   0.250   9.677   4.922 -0.3289  0.1658 -0.2523
29632SOL    HW192488   0.157   9.657   4.933 -0.0529 -1.5983 -0.7959
29632SOL    HW292489   0.295   9.612   4.976  0.6034  0.6302 -0.4560
29633SOL     OW92490   9.580   1.073   3.523 -0.1806  0.3660  0.5263
29633SOL    HW192491   9.525   1.036   3.454  0.1557  1.3991 -0.3314
29633SOL    HW292492   9.527   1.064   3.602 -0.9632 -0.0183 -0.0178
29634SOL     OW92493   7.987   8.845   4.691 -0.1508 -0.0025 -0.3096
29634SOL    HW192494   7.980   8.862   4.597 -1.7165  2.0558  0.1180
29634SOL    HW292495   8.062   8.897   4.719  1.3707 -1.9060 -0.6186
29635SOL     OW92496  10.784   4.071   7.883  0.0722  0.4202  0.2454
29635SOL    HW192497  10.768   4.077   7.789  2.0041 -0.1647 -0.1726
29635SOL    HW292498  10.850   4.138   7.901  2.7534 -2.0237  0.3311
29636SOL     OW92499   1.608  10.475   7.221  0.6589  0.0263 -0.1328
29636SOL    HW192500   1.539  10.498   7.158  0.8058 -0.9884 -0.6889
29636SOL    HW292501   1.682  10.529   7.196  0.5050  0.1112 -0.4191
29637SOL     OW92502  10.172   5.000   1.226  0.3052  0.0595  0.3247
29637SOL    HW192503  10.162   4.954   1.310  0.9018  1.3087  1.1132
29637SOL    HW292504  10.156   4.933   1.160 -0.2382 -0.9464  1.4389
29638SOL     OW92505   0.748   8.580   7.817 -0.2517  1.0036  0.3372
29638SOL    HW192506   0.792   8.612   7.896 -1.1966 -1.4595  1.9773
29638SOL    HW292507   0.710   8.496   7.842  0.3096 -0.4473 -3.0729
29639SOL     OW92508   4.359   0.171  11.015 -0.1955  0.0453 -0.4334
29639SOL    HW192509   4.419   0.242  11.037  1.0934 -1.2406  0.4053
29639SOL    HW292510   4.415   0.106  10.971 -1.4912 -0.1434 -1.9094
29640SOL     OW92511   4.219   9.946   2.859  0.2132  0.1890  0.0123
29640SOL    HW192512   4.301   9.899   2.845  0.8262  0.4641  2.2367
29640SOL    HW292513   4.194   9.925   2.949  0.5019  3.9338  1.1648
29641SOL     OW92514   0.068   5.241   9.049  0.0639 -0.0970  0.3866
29641SOL    HW192515   0.047   5.317   8.995  0.1399 -1.6232 -1.9203
29641SOL    HW292516  -0.015   5.216   9.089 -0.2440  0.3655  0.0451
29642SOL     OW92517  10.867   1.141   5.716  0.2572  0.4856  0.5340
29642SOL    HW192518  10.877   1.046   5.711  0.4103  0.5056  0.4373
29642SOL    HW292519  10.924   1.168   5.788 -0.1443  0.4536  0.8657
29643SOL     OW92520   5.458   8.810   3.345  0.4767  0.3930 -0.6291
29643SOL    HW192521   5.395   8.878   3.321  1.3453  1.9155  1.1638
29643SOL    HW292522   5.543   8.846   3.320  1.0067  0.2634  0.8774
29644SOL     OW92523   3.664   3.532   3.114  0.1302  0.5059  0.4295
29644SOL    HW192524   3.676   3.619   3.154 -0.5156  0.7792  0.0508
29644SOL    HW292525   3.746   3.515   3.068 -0.2812  1.6317 -0.8058
29645SOL     OW92526   7.936   3.411   2.425  0.0589  0.3923  0.6676
29645SOL    HW192527   7.844   3.386   2.434 -0.4611  1.7253 -0.6460
29645SOL    HW292528   7.962   3.441   2.512 -0.8254  0.3074  0.9654
29646SOL     OW92529   3.187   1.064   8.746 -0.3013 -0.0017 -0.1528
29646SOL    HW192530   3.163   1.001   8.678  0.3091 -0.9969  0.5246
29646SOL    HW292531   3.281   1.075   8.735 -0.3524  0.5490 -0.0498
29647SOL     OW92532   9.067  10.957  10.714  0.1713  0.3871 -0.3659
29647SOL    HW192533   9.079  11.044  10.751 -0.4806 -0.8676  3.1906
29647SOL    HW292534   8.973  10.946  10.705  0.2492  0.0794 -0.8718
29648SOL     OW92535   4.201   0.370  10.108 -0.4091 -0.1292  0.5970
29648SOL    HW192536   4.225   0.433  10.040  0.3638 -1.5018 -0.4566
29648SOL    HW292537   4.147   0.305  10.063  1.5657 -2.0401  0.7778
29649SOL     OW92538   5.323   3.641   0.688  0.2775  0.5374 -0.3700
29649SOL    HW192539   5.376   3.564   0.666 -0.8544 -0.5161  0.3993
29649SOL    HW292540   5.372   3.685   0.758  0.7336  0.2780 -0.5246
29650SOL     OW92541  10.289   4.088   3.765 -0.4203 -0.6917  0.1993
29650SOL    HW192542  10.380   4.070   3.786 -1.1862 -1.2967  3.7976
29650SOL    HW292543  10.250   4.003   3.748 -0.7415 -0.7323  1.0512
29651SOL     OW92544   2.511   1.964   4.955 -0.2938 -0.7879  0.6233
29651SOL    HW192545   2.432   2.016   4.966 -0.5744 -1.0552 -0.0970
29651SOL    HW292546   2.582   2.021   4.985 -0.7268 -0.4592  1.0404
29652SOL     OW92547   4.037   9.237   8.203  0.8215 -0.3020  0.3802
29652SOL    HW192548   4.058   9.171   8.137 -0.1366 -0.1243 -0.1262
29652SOL    HW292549   3.950   9.268   8.179  1.3406  1.3209  0.4747
29653SOL     OW92550   5.053  10.073   3.466  0.6157 -0.0016  1.1816
29653SOL    HW192551   4.994  10.063   3.391  0.3254 -2.3109  1.6416
29653SOL    HW292552   5.076  10.165   3.466  1.5881 -0.0714 -2.4721
29654SOL     OW92553   2.071   7.951   4.024  0.0140 -0.2591 -0.0076
29654SOL    HW192554   2.022   7.910   3.954 -0.6702  0.1807  0.1966
29654SOL    HW292555   2.161   7.922   4.012  0.1577  0.8156 -1.8380
29655SOL     OW92556   5.884   6.300   7.558 -0.1715  0.5211 -0.0217
29655SOL    HW192557   5.935   6.220   7.569 -1.5055 -0.3220  0.2699
29655SOL    HW292558   5.800   6.282   7.601 -1.1077  1.4787 -1.3384
29656SOL     OW92559   2.183   3.377   1.965 -0.0377  0.0862 -0.2962
29656SOL    HW192560   2.234   3.458   1.958  1.0559 -0.6225 -0.7393
29656SOL    HW292561   2.093   3.404   1.949  0.5297  0.9268 -2.4045
29657SOL     OW92562   5.445   6.534   5.567 -0.5704  0.3637  0.1199
29657SOL    HW192563   5.524   6.493   5.604  0.1697  1.7265  0.1211
29657SOL    HW292564   5.455   6.627   5.588 -0.7070  1.0392 -2.4287
29658SOL     OW92565   6.722   1.774   7.308  0.0672 -0.1270 -0.4426
29658SOL    HW192566   6.750   1.851   7.358 -0.0857 -0.2620 -0.1464
29658SOL    HW292567   6.627   1.770   7.322  0.1834 -0.8406  0.2162
29659SOL     OW92568   5.011   0.328   9.367  0.1738 -0.2951 -0.2526
29659SOL    HW192569   5.063   0.251   9.343 -0.3529 -1.2062  1.3614
29659SOL    HW292570   4.923   0.294   9.382 -0.4930  0.9339 -1.2314
29660SOL     OW92571   1.206   8.506   2.579 -0.3609 -0.4885  0.6412
29660SOL    HW192572   1.144   8.577   2.594 -1.1835 -1.1759  0.5877
29660SOL    HW292573   1.192   8.447   2.653 -0.0279 -0.8354  0.4279
29661SOL     OW92574   4.460   8.506  10.000  1.0573 -0.4100 -0.5450
29661SOL    HW192575   4.495   8.435   9.947  1.2872 -0.3647 -0.4528
29661SOL    HW292576   4.493   8.586   9.959  0.3317 -0.3321 -0.9877
29662SOL     OW92577   9.232   2.396   5.695 -0.8097  0.1032  0.5869
29662SOL    HW192578   9.166   2.351   5.748  2.3007 -1.6862  3.3051
29662SOL    HW292579   9.252   2.476   5.743  0.1577 -0.1891  0.6820
29663SOL     OW92580   2.126   9.790   2.968 -0.1056  0.1813  0.0283
29663SOL    HW192581   2.129   9.867   3.026  0.5954  0.3593 -0.2377
29663SOL    HW292582   2.212   9.750   2.977 -0.8735 -1.3021  1.1176
29664SOL     OW92583   9.163   6.832   9.911  0.5565 -0.1464  0.1816
29664SOL    HW192584   9.244   6.883   9.915  0.7439 -0.4872  0.7370
29664SOL    HW292585   9.189   6.748   9.873  0.5334 -0.3945  0.7171
29665SOL     OW92586   4.293   2.791   4.630  0.3744  0.2930  0.1667
29665SOL    HW192587   4.345   2.710   4.630  1.0472  0.7155 -0.1569
29665SOL    HW292588   4.204   2.762   4.613  0.6106 -0.3815  0.0349
29666SOL     OW92589   9.032   8.700   8.867  0.1946  0.4885 -0.2286
29666SOL    HW192590   8.994   8.681   8.782  2.1185 -2.3880 -0.6102
29666SOL    HW292591   9.121   8.732   8.847 -0.4951  3.2880  0.6993
29667SOL     OW92592   4.225   7.810   2.448  0.1089 -0.3284  0.1586
29667SOL    HW192593   4.217   7.867   2.525  0.2737 -0.4290  0.2509
29667SOL    HW292594   4.185   7.860   2.377 -0.0217 -0.2246  0.3048
29668SOL     OW92595  10.064   1.365   7.908 -0.1753 -0.2522 -0.0236
29668SOL    HW192596   9.975   1.395   7.885 -0.0091 -1.4681 -2.5519
29668SOL    HW292597  10.053   1.272   7.929  0.4350 -0.3067  0.0642
29669SOL     OW92598   8.628   4.093   7.949 -0.0651  0.2134 -0.2097
29669SOL    HW192599   8.715   4.101   7.988  0.3499  0.6203 -1.1688
29669SOL    HW292600   8.642   4.044   7.868 -0.7764  0.0002 -0.2116
29670SOL     OW92601   0.015   0.231   1.863  0.4095 -0.2072  0.2996
29670SOL    HW192602  -0.076   0.248   1.839  0.4741  1.4762  1.0344
29670SOL    HW292603   0.012   0.152   1.917 -0.4160 -0.9415 -0.7987
29671SOL     OW92604   3.203   5.601  10.881  0.0471  0.4156  0.3099
29671SOL    HW192605   3.264   5.568  10.815 -0.2726 -0.3361  0.3767
29671SOL    HW292606   3.256   5.609  10.960  0.6800  2.3010 -0.2551
29672SOL     OW92607   5.133   6.957   7.236 -0.3651  0.3035  0.1028
29672SOL    HW192608   5.121   6.922   7.324 -0.5778 -0.8470 -0.3594
29672SOL    HW292609   5.191   6.894   7.193  1.3922  1.8860  0.0031
29673SOL     OW92610   0.530   7.887   2.966 -0.2983  0.1712 -0.0794
29673SOL    HW192611   0.591   7.910   3.036  0.0177  2.1877 -0.9583
29673SOL    HW292612   0.576   7.819   2.916  0.7077  0.7691  0.0061
29674SOL     OW92613   6.666   3.093   3.772  0.0277 -0.1980  0.2976
29674SOL    HW192614   6.730   3.143   3.823  1.1413  0.5420 -1.6993
29674SOL    HW292615   6.696   3.003   3.777  1.4563  0.1725 -0.8126
29675SOL     OW92616   2.678   2.237   9.356 -0.2672  0.0800 -0.2836
29675SOL    HW192617   2.693   2.142   9.356  0.3883  0.1747 -0.6726
29675SOL    HW292618   2.753   2.273   9.309 -0.4335  0.8078 -0.0083
29676SOL     OW92619   3.492   8.876   0.221 -0.3092 -0.5533  0.4084
29676SOL    HW192620   3.482   8.784   0.243  1.8217 -0.5695  1.5114
29676SOL    HW292621   3.403   8.911   0.223 -1.1017 -2.4673  0.4052
29677SOL     OW92622   8.062  10.426   1.443 -0.2164 -0.5643  0.1794
29677SOL    HW192623   8.023  10.340   1.428  1.5712 -1.1902 -1.4415
29677SOL    HW292624   8.152  10.417   1.410 -0.3792  2.2959 -1.4109
29678SOL     OW92625   3.469   5.256   6.309 -0.1884  0.2664  0.3117
29678SOL    HW192626   3.449   5.341   6.348 -2.0724  0.4268 -0.9003
29678SOL    HW292627   3.386   5.225   6.275  0.3325 -2.3411  1.1668
29679SOL     OW92628   6.492   9.119   4.399  0.2172  0.0321 -0.2139
29679SOL    HW192629   6.565   9.139   4.340 -0.9740  2.1480 -1.0903
29679SOL    HW292630   6.487   9.196   4.457  0.4540 -1.3689  1.7851
29680SOL     OW92631   8.621   1.775   4.276  0.8265 -0.4042 -0.2408
29680SOL    HW192632   8.707   1.762   4.236  1.8611  3.3136  0.3613
29680SOL    HW292633   8.583   1.849   4.228 -0.9525 -0.3397  1.1572
29681SOL     OW92634   1.708   7.282   5.997 -0.4708 -0.0287  0.6170
29681SOL    HW192635   1.740   7.194   6.020 -1.7369 -0.7900 -0.3957
29681SOL    HW292636   1.664   7.313   6.077  1.7010  0.5689  1.6517
29682SOL     OW92637   9.774   6.461  10.246  0.0878 -0.1204 -0.4943
29682SOL    HW192638   9.865   6.489  10.258 -0.0740 -0.0418  0.5937
29682SOL    HW292639   9.723   6.516  10.304 -0.4990 -1.1121 -0.0358
29683SOL     OW92640   8.788   6.683   9.523  0.7462 -0.2685  0.1472
29683SOL    HW192641   8.813   6.680   9.615 -1.7222  1.1863  0.9585
29683SOL    HW292642   8.695   6.660   9.522  0.0249  2.2611 -1.5917
29684SOL     OW92643   7.877   8.361   4.930 -0.3731  0.3212  0.2859
29684SOL    HW192644   7.922   8.438   4.964 -0.0123 -0.2418  1.0957
29684SOL    HW292645   7.944   8.293   4.927 -0.7191 -0.0070 -0.3121
29685SOL     OW92646  10.036   6.598   7.470  0.4131 -0.3488 -0.1748
29685SOL    HW192647  10.103   6.569   7.408 -1.0602 -1.4259 -1.3149
29685SOL    HW292648  10.065   6.561   7.554  0.9242 -1.3365 -0.7628
29686SOL     OW92649   5.368   8.615   9.092 -0.6794  0.2091  0.2768
29686SOL    HW192650   5.342   8.564   9.015  1.0813  0.1905 -0.3316
29686SOL    HW292651   5.286   8.629   9.140 -1.6329 -0.7200 -1.0264
29687SOL     OW92652   8.329   0.650   8.894  0.1427 -0.4570  0.1212
29687SOL    HW192653   8.340   0.728   8.840 -0.2082 -0.7722 -0.4269
29687SOL    HW292654   8.304   0.683   8.980 -2.1944 -0.0004 -0.6618
29688SOL     OW92655   0.056   2.528   7.869 -0.2051  0.6844  0.1830
29688SOL    HW192656   0.053   2.508   7.962  0.4571 -0.4350 -0.0224
29688SOL    HW292657   0.074   2.445   7.826  1.4670  1.4889 -0.7895
29689SOL     OW92658   6.346   4.911   9.551  0.2138  0.0758  0.2978
29689SOL    HW192659   6.289   4.974   9.506 -3.6228 -2.3298  1.3578
29689SOL    HW292660   6.363   4.843   9.485 -0.3422 -0.4780  0.7157
29690SOL     OW92661   7.795   5.686   5.690  0.4536  0.5078 -0.3521
29690SOL    HW192662   7.717   5.683   5.635  0.1699  1.2027  0.0067
29690SOL    HW292663   7.790   5.608   5.744 -2.6529  2.8688  3.2635
29691SOL     OW92664   7.778   2.851   1.591 -0.5222 -0.6160  0.4869
29691SOL    HW192665   7.779   2.758   1.615 -0.4197 -0.4893  0.9824
29691SOL    HW292666   7.706   2.888   1.642 -0.0185 -0.2539  0.9489
29692SOL     OW92667   7.147   8.624   8.751  0.7511  0.3339 -0.2155
29692SOL    HW192668   7.128   8.644   8.843  0.8346  1.0221 -0.3392
29692SOL    HW292669   7.065   8.589   8.716  0.5344  0.6550 -0.0359
29693SOL     OW92670   7.599   8.020   4.509  0.2763 -0.1266  0.3496
29693SOL    HW192671   7.657   7.943   4.507 -2.0500 -2.0001  0.3029
29693SOL    HW292672   7.589   8.040   4.602  0.3873 -0.2927  0.3978
29694SOL     OW92673  10.995   6.797   5.912  0.0897 -0.4926  0.4346
29694SOL    HW192674  11.006   6.747   5.993 -0.6059 -0.1520  0.7481
29694SOL    HW292675  10.940   6.741   5.857  0.5348 -0.7091  0.2006
29695SOL     OW92676   6.074   1.921   0.064 -0.6275 -0.0277  0.4738
29695SOL    HW192677   5.984   1.954   0.064 -1.0032 -1.0034  0.2101
29695SOL    HW292678   6.107   1.938   0.152 -0.3978  2.0647  0.0355
29696SOL     OW92679   3.624   3.711   1.147 -0.0800  0.0994 -0.4461
29696SOL    HW192680   3.582   3.635   1.187 -1.0763  0.5807 -0.5498
29696SOL    HW292681   3.707   3.677   1.114 -0.2357 -0.8059  0.0426
29697SOL     OW92682   9.221   3.373   2.663  0.3962  0.0737  0.2657
29697SOL    HW192683   9.129   3.396   2.673  0.2272 -0.5331  0.1471
29697SOL    HW292684   9.265   3.456   2.646 -0.2410  0.2730 -0.4871
29698SOL     OW92685   2.387  10.698   8.111 -0.0189  0.1792  0.1133
29698SOL    HW192686   2.327  10.769   8.091  0.2926 -0.0978 -2.0102
29698SOL    HW292687   2.360  10.627   8.052  1.1120 -0.6485  0.5662
29699SOL     OW92688   1.514   3.825   7.597 -0.4575 -0.1339  0.2210
29699SOL    HW192689   1.561   3.780   7.527  1.9297  0.0907  1.5564
29699SOL    HW292690   1.444   3.764   7.622 -1.7024  0.0003 -2.5800
29700SOL     OW92691   0.161   4.329   6.799  0.0623  0.4820  0.4444
29700SOL    HW192692   0.073   4.343   6.834 -1.1786 -3.4341 -0.6128
29700SOL    HW292693   0.160   4.372   6.714 -0.0435  2.1958  1.2611
29701SOL     OW92694   6.830   9.022   6.989  0.6435  0.0317  0.0018
29701SOL    HW192695   6.740   9.032   6.959  0.8799 -0.6294 -0.9901
29701SOL    HW292696   6.822   8.983   7.076 -0.0331  0.6140  0.2101
29702SOL     OW92697   2.881   6.055   7.137  0.4063 -0.3120  0.0412
29702SOL    HW192698   2.845   6.070   7.225  0.1416  0.1648 -0.1482
29702SOL    HW292699   2.946   6.124   7.126  0.2863 -0.2430 -0.2255
29703SOL     OW92700   2.153   7.891   1.854  0.3125  0.3476 -1.0305
29703SOL    HW192701   2.087   7.958   1.837  1.1083  1.4190 -0.0512
29703SOL    HW292702   2.123   7.848   1.934  0.8376  0.9115 -0.5206
29704SOL     OW92703  10.839   3.970   0.603  0.6778  0.6083 -0.2369
29704SOL    HW192704  10.894   4.032   0.555  2.4547 -0.7060  0.0004
29704SOL    HW292705  10.901   3.920   0.657 -0.7270 -1.0686 -0.0864
29705SOL     OW92706   3.154  10.265   7.842 -0.2048  0.4959  0.3850
29705SOL    HW192707   3.239  10.225   7.822 -1.2661 -0.4852 -2.7302
29705SOL    HW292708   3.122  10.297   7.758 -2.8846  1.0046  1.4856
29706SOL     OW92709   3.552  10.589   7.078  0.0224  0.3156  0.1893
29706SOL    HW192710   3.491  10.655   7.044  0.5774  0.0967 -1.3198
29706SOL    HW292711   3.496  10.525   7.121 -0.7586  0.5129 -0.4998
29707SOL     OW92712   8.856   4.142   8.067  0.0818 -0.2424 -0.5886
29707SOL    HW192713   8.930   4.203   8.057  0.2739 -0.5094 -0.8125
29707SOL    HW292714   8.866   4.107   8.156 -0.3975  0.5286 -0.2166
29708SOL     OW92715   3.587   8.911   8.081 -0.1070  0.0086  0.0654
29708SOL    HW192716   3.639   8.836   8.111  1.2474  0.1798 -1.6889
29708SOL    HW292717   3.502   8.900   8.125  1.3704 -0.2323  3.1191
29709SOL     OW92718   3.374   9.190  10.518 -0.2891 -0.1023  0.0472
29709SOL    HW192719   3.372   9.110  10.465 -1.0755  0.5367 -0.9404
29709SOL    HW292720   3.442   9.244  10.478  0.2322 -0.2658  0.7025
29710SOL     OW92721   8.555   0.837   6.940  0.0227  0.5152 -0.3179
29710SOL    HW192722   8.491   0.907   6.926 -0.3078 -0.0803 -2.0556
29710SOL    HW292723   8.527   0.767   6.881  1.1504 -0.5474  0.3547
29711SOL     OW92724   8.243   2.954   6.437 -0.1387  0.2141  0.2647
29711SOL    HW192725   8.241   3.036   6.486  2.1905 -0.9021  2.4534
29711SOL    HW292726   8.290   2.893   6.494 -2.8204 -3.0510 -0.6977
29712SOL     OW92727   2.252  10.089   7.914 -0.1420  0.0765 -0.4713
29712SOL    HW192728   2.209  10.043   7.986 -0.5003 -1.1534 -1.4204
29712SOL    HW292729   2.188  10.088   7.844  0.0440  1.6261 -0.6881
29713SOL     OW92730   0.980   3.492   8.640 -0.3820  0.8755  1.0814
29713SOL    HW192731   0.945   3.452   8.719 -0.4832  0.7319  0.9659
29713SOL    HW292732   0.936   3.445   8.568 -0.3279  1.0369  0.9429
29714SOL     OW92733   5.963   1.973   2.728 -0.6641 -0.0515  0.1989
29714SOL    HW192734   6.049   1.938   2.752  0.2778  1.8927 -0.0968
29714SOL    HW292735   5.983   2.047   2.670 -2.7051 -1.9223 -3.2089
29715SOL     OW92736   4.735   4.275   8.889  0.0548 -0.0155 -0.0580
29715SOL    HW192737   4.792   4.307   8.820 -0.6075 -0.3925 -0.7918
29715SOL    HW292738   4.687   4.202   8.850 -1.6014  0.8634  0.2149
29716SOL     OW92739   5.247   9.370  10.275  0.1201  0.1423  0.3811
29716SOL    HW192740   5.249   9.313  10.198 -0.4690  1.6063 -0.7619
29716SOL    HW292741   5.191   9.324  10.337 -1.9946  0.3188 -1.2688
29717SOL     OW92742  10.686   7.089   7.037  0.1108  0.0890 -0.4745
29717SOL    HW192743  10.711   7.140   7.113 -0.3132  1.4387 -1.2037
29717SOL    HW292744  10.657   7.005   7.072  2.0540 -0.1696  0.6603
29718SOL     OW92745   3.667   1.153   3.012  0.7971 -0.2134 -0.3794
29718SOL    HW192746   3.615   1.081   2.978  0.9495 -0.1937 -0.6549
29718SOL    HW292747   3.694   1.124   3.099 -2.2281  1.0172  1.1024
29719SOL     OW92748   7.945   1.423   3.295 -0.4367 -0.2480  0.1834
29719SOL    HW192749   7.918   1.515   3.294 -0.3378 -0.1283 -3.0771
29719SOL    HW292750   8.039   1.426   3.314 -0.1157  0.5241 -1.3512
29720SOL     OW92751  10.093  10.709  10.077  0.2922 -0.3847 -0.2097
29720SOL    HW192752  10.000  10.684  10.069  0.3489 -1.2349  1.2816
29720SOL    HW292753  10.117  10.679  10.164  1.2195  2.3624  0.5797
29721SOL     OW92754   2.544   3.842  10.759 -0.1365 -0.1749  0.1009
29721SOL    HW192755   2.637   3.849  10.780  0.1433  1.9386 -1.4262
29721SOL    HW292756   2.524   3.749  10.766  1.7795 -0.5348  1.6165
29722SOL     OW92757  10.529   4.808   3.753  0.3856 -0.7138  0.2000
29722SOL    HW192758  10.575   4.866   3.813 -0.1373 -0.4969  0.3986
29722SOL    HW292759  10.448   4.785   3.799 -0.6134  0.4483 -0.8977
29723SOL     OW92760   8.952   3.231   5.085  0.5203 -0.2197 -0.0353
29723SOL    HW192761   8.942   3.290   5.010 -0.4512  0.4665  0.6076
29723SOL    HW292762   9.045   3.237   5.107  0.8484 -0.5201 -1.2328
29724SOL     OW92763   5.679   3.348   8.811  0.5710  0.0616  0.0962
29724SOL    HW192764   5.620   3.315   8.744  0.2747 -0.3760  0.5717
29724SOL    HW292765   5.669   3.288   8.885  0.2449  1.0380  0.8596
29725SOL     OW92766  10.998   9.491   3.316  0.4318  0.1142  0.1513
29725SOL    HW192767  10.938   9.550   3.362 -0.4498  0.6408 -1.5493
29725SOL    HW292768  10.942   9.418   3.287  0.5806  0.5625 -1.3744
29726SOL     OW92769   5.310   5.867   3.355 -0.5469  0.1310 -0.3077
29726SOL    HW192770   5.245   5.822   3.302 -0.4026 -1.7898  1.0260
29726SOL    HW292771   5.394   5.845   3.314 -0.3799 -1.9199  0.9935
29727SOL     OW92772   6.739   6.351   8.044 -0.2385 -0.5045  0.4156
29727SOL    HW192773   6.655   6.349   7.998 -0.1125  3.0356 -0.2842
29727SOL    HW292774   6.803   6.371   7.976  0.3365  2.0980  1.5852
29728SOL     OW92775   5.168   1.428   7.065  0.2876  0.1908  0.1345
29728SOL    HW192776   5.118   1.379   7.130  0.8465  0.5021  0.8042
29728SOL    HW292777   5.246   1.376   7.050 -0.1125 -0.1746 -0.7356
29729SOL     OW92778   6.555   6.568   2.559 -0.1186  0.3154 -0.2172
29729SOL    HW192779   6.629   6.524   2.517  0.4512  0.9708  0.0659
29729SOL    HW292780   6.488   6.575   2.491 -0.1356 -0.7800 -0.3232
29730SOL     OW92781   1.697   0.763   7.069  0.2462 -0.6959 -0.4282
29730SOL    HW192782   1.773   0.810   7.035  0.7517 -2.2994 -1.6525
29730SOL    HW292783   1.664   0.818   7.140 -0.0420  2.1925 -2.6146
29731SOL     OW92784   3.704   4.949   4.537  0.7979 -0.0611 -0.0610
29731SOL    HW192785   3.635   5.012   4.556 -0.6294 -1.7388  0.5544
29731SOL    HW292786   3.747   4.984   4.459  0.2204  1.7648  0.3751
29732SOL     OW92787   9.385   3.310   1.153  0.3490  0.3366  0.3017
29732SOL    HW192788   9.377   3.245   1.223 -0.0663 -0.7504 -0.7033
29732SOL    HW292789   9.478   3.334   1.153  0.2187  0.8797  1.6613
29733SOL     OW92790   8.019   4.789   2.610  0.4988  0.0960  0.5092
29733SOL    HW192791   8.108   4.821   2.595  0.1600  0.2980 -1.2687
29733SOL    HW292792   7.987   4.765   2.523 -1.3146  0.3755  1.0596
29734SOL     OW92793   1.424   8.573   8.845 -0.0873 -0.6443  0.6569
29734SOL    HW192794   1.448   8.665   8.853  1.5145 -1.1305  1.9108
29734SOL    HW292795   1.339   8.567   8.889 -1.1307  0.5292 -1.0740
29735SOL     OW92796   1.097  10.531   4.626  0.7827  0.4746  0.2119
29735SOL    HW192797   1.104  10.599   4.559  0.1569  1.0924  0.7545
29735SOL    HW292798   1.188  10.508   4.646  0.9732 -0.0731 -1.1730
29736SOL     OW92799   0.278   3.508   8.399  0.3780  0.5065  0.3713
29736SOL    HW192800   0.249   3.417   8.395  0.9720  0.2707  1.1761
29736SOL    HW292801   0.260   3.543   8.311  0.3287 -0.4389 -0.0052
29737SOL     OW92802   2.532   4.545   9.645  0.3692  0.4016 -0.3504
29737SOL    HW192803   2.509   4.591   9.726  0.9335 -0.5461  0.3676
29737SOL    HW292804   2.516   4.453   9.664  0.1385  0.1940 -1.4578
29738SOL     OW92805   7.113   6.328   7.583  0.1985  0.1534 -0.2082
29738SOL    HW192806   7.079   6.376   7.508  0.8347  1.1627  0.1310
29738SOL    HW292807   7.065   6.362   7.658  1.2772  0.9360  0.1549
29739SOL     OW92808   8.363  10.037  10.281  0.0427 -0.2558 -0.2692
29739SOL    HW192809   8.331  10.070  10.197  0.3451  0.9243  0.0610
29739SOL    HW292810   8.285  10.032  10.335 -0.1050 -0.7221 -0.5199
29740SOL     OW92811   5.589   2.221   1.221 -0.1351 -0.0481  0.0972
29740SOL    HW192812   5.666   2.222   1.278 -0.2680  0.7771  0.2790
29740SOL    HW292813   5.551   2.134   1.233 -1.2562  0.7200  2.7699
29741SOL     OW92814  10.492   9.813   4.447  0.1034 -0.6896  0.1703
29741SOL    HW192815  10.411   9.772   4.418  0.0638 -0.3457 -0.2266
29741SOL    HW292816  10.468   9.863   4.525 -0.3415  0.3953 -0.6313
29742SOL     OW92817   0.759   9.720   0.019  0.2159 -0.4028 -0.6032
29742SOL    HW192818   0.708   9.639   0.018 -0.6868  0.1404  0.2389
29742SOL    HW292819   0.775   9.739  -0.074  0.5572 -1.6092 -0.8072
29743SOL     OW92820   9.172   1.465   5.207  0.4006 -0.0139 -0.2212
29743SOL    HW192821   9.087   1.422   5.209  0.7695 -0.7713 -0.0058
29743SOL    HW292822   9.202   1.463   5.298  0.3802  0.8115 -0.1895
29744SOL     OW92823   4.115   9.891   5.270  0.4344 -0.3517  0.1117
29744SOL    HW192824   4.152   9.905   5.183 -0.6973 -0.0347 -0.3485
29744SOL    HW292825   4.172   9.941   5.329 -0.0300  1.2861 -0.7526
29745SOL     OW92826   0.131   8.509   8.748 -0.0226 -0.0537 -0.0161
29745SOL    HW192827   0.096   8.544   8.830  1.2283 -0.1350  0.5816
29745SOL    HW292828   0.124   8.414   8.758 -0.5190 -0.0514 -0.3104
29746SOL     OW92829   7.471   0.014   1.977  0.3946  0.3113 -0.1073
29746SOL    HW192830   7.389  -0.000   2.024  0.4650 -0.8954 -0.3123
29746SOL    HW292831   7.466  -0.046   1.902 -0.0315  2.6980 -2.0895
29747SOL     OW92832   4.455   5.762   2.982 -1.0078 -0.1352 -0.0608
29747SOL    HW192833   4.489   5.749   2.893 -0.0728  1.5590  0.0093
29747SOL    HW292834   4.376   5.815   2.970 -0.6833  0.3973  0.1368
29748SOL     OW92835  11.059   5.119   2.895  0.5461 -0.0694 -0.9202
29748SOL    HW192836  11.067   5.214   2.900 -0.2993  0.0211 -1.1792
29748SOL    HW292837  11.054   5.100   2.801 -2.4538 -0.0521 -0.8628
29749SOL     OW92838   7.056  11.092   9.245 -0.3698  0.2761 -0.7380
29749SOL    HW192839   7.061  11.174   9.294  2.0038  0.1395 -0.6253
29749SOL    HW292840   6.962  11.075   9.235 -0.9198  1.5240  1.6678
29750SOL     OW92841   3.221   7.759   1.471 -0.2966  0.3218 -0.6288
29750SOL    HW192842   3.282   7.831   1.484  2.3738 -1.9511  0.1700
29750SOL    HW292843   3.228   7.739   1.377  0.2527  0.0280 -0.5280
29751SOL     OW92844   5.131  10.229   0.661 -0.5668  0.3941  0.1366
29751SOL    HW192845   5.089  10.253   0.579 -2.6735 -1.0434  0.6847
29751SOL    HW292846   5.195  10.163   0.637 -0.2809  0.8914 -0.4824
29752SOL     OW92847   9.096   9.927   7.560  0.4102  0.2641 -0.1717
29752SOL    HW192848   9.049   9.932   7.477  0.8796 -0.8115 -0.5208
29752SOL    HW292849   9.171   9.986   7.548 -0.1193  0.9608 -0.0969
29753SOL     OW92850   0.332   0.565   1.293 -0.3491  0.0564  0.6771
29753SOL    HW192851   0.340   0.555   1.198  0.8628  0.5392  0.7136
29753SOL    HW292852   0.412   0.610   1.319  0.4060 -2.0058  2.2078
29754SOL     OW92853   8.987   5.488   5.692  0.9501  0.3433 -0.3860
29754SOL    HW192854   8.939   5.441   5.623 -0.4834  0.8206  0.2458
29754SOL    HW292855   9.046   5.546   5.644 -0.0543  0.7028 -1.2283
29755SOL     OW92856   2.711   5.602   9.397 -0.5049 -0.3536 -0.2566
29755SOL    HW192857   2.686   5.585   9.306  0.5639 -0.6468 -0.5093
29755SOL    HW292858   2.803   5.577   9.402 -0.1644  0.9358  0.5562
29756SOL     OW92859   5.198   7.262  10.077 -0.1100 -0.4841 -0.2592
29756SOL    HW192860   5.205   7.347  10.123 -1.4489 -0.1356 -0.6617
29756SOL    HW292861   5.250   7.274   9.997 -0.1565 -0.1005 -0.2353
29757SOL     OW92862   7.480   0.288   8.388 -0.3909 -0.1170  0.0513
29757SOL    HW192863   7.549   0.279   8.321 -0.6230  1.1862 -0.4045
29757SOL    HW292864   7.398   0.279   8.339 -0.5751  1.3997  0.0227
29758SOL     OW92865   6.570   0.986   5.955 -0.6643 -0.2791 -0.5989
29758SOL    HW192866   6.478   0.970   5.975 -0.6349  0.4947  0.2350
29758SOL    HW292867   6.617   0.958   6.034 -0.4057  1.4777 -0.0946
29759SOL     OW92868   3.448  10.491   4.068  0.0425 -0.4661 -0.2928
29759SOL    HW192869   3.534  10.512   4.031 -0.9835 -1.1139 -3.3774
29759SOL    HW292870   3.449  10.396   4.078  0.6002 -0.2404  2.4140
29760SOL     OW92871   7.455   1.907   1.065 -0.2736  0.4325  0.0313
29760SOL    HW192872   7.385   1.914   1.130 -1.4243  1.0092 -1.2121
29760SOL    HW292873   7.445   1.986   1.011  0.2446 -0.3286 -1.2126
29761SOL     OW92874   4.524   4.712   3.337 -0.1110  0.0869  0.1567
29761SOL    HW192875   4.506   4.802   3.312  0.3910  0.5258  1.2858
29761SOL    HW292876   4.615   4.698   3.311  0.0075  0.1194  0.5480
29762SOL     OW92877   6.922   1.586   9.208  0.2641  0.1979  0.2028
29762SOL    HW192878   6.938   1.507   9.157  0.8676  1.1025 -1.0566
29762SOL    HW292879   6.999   1.596   9.264  0.0175 -0.2892  0.6391
29763SOL     OW92880   7.238  11.086  10.068  0.3354  1.3274 -0.5781
29763SOL    HW192881   7.255  11.146   9.995 -1.8383  0.7963 -1.6058
29763SOL    HW292882   7.289  11.008  10.047  0.3888  1.4977 -1.0949
29764SOL     OW92883   4.092   7.492   6.802 -0.2398  0.4273  0.0337
29764SOL    HW192884   4.135   7.522   6.721  0.0204 -1.4830 -0.5708
29764SOL    HW292885   4.083   7.572   6.854 -0.0910  1.6532 -1.7239
29765SOL     OW92886   2.230   5.062   8.790  0.3968  0.6059 -0.2991
29765SOL    HW192887   2.139   5.083   8.812  0.4698 -0.6049  1.3554
29765SOL    HW292888   2.223   5.006   8.712 -0.5772 -1.8675  1.4065
29766SOL     OW92889   9.958   9.384   3.692 -0.5405 -0.3420 -0.4272
29766SOL    HW192890   9.983   9.298   3.660  0.6539  0.7993 -2.8609
29766SOL    HW292891   9.957   9.440   3.613 -1.8441  1.7509  0.9525
29767SOL     OW92892   4.398   8.432   1.287 -0.2803 -0.2653  0.5704
29767SOL    HW192893   4.364   8.464   1.204  0.0255 -0.5406  0.3362
29767SOL    HW292894   4.446   8.507   1.324  0.7214 -0.5405 -0.1352
29768SOL     OW92895   4.539   6.770   7.671 -0.3484  0.1546  1.4782
29768SOL    HW192896   4.524   6.859   7.638 -0.7020  0.0663  1.3998
29768SOL    HW292897   4.534   6.779   7.767  0.0029  0.2889  1.4834
29769SOL     OW92898   7.845   4.049   2.199  0.2533 -0.4016  0.0271
29769SOL    HW192899   7.791   4.045   2.279  0.8244 -0.9510  0.4022
29769SOL    HW292900   7.881   4.137   2.198  1.3874 -0.8136  1.1748
29770SOL     OW92901   0.549   4.054   4.888 -0.1054 -0.1833 -0.1598
29770SOL    HW192902   0.624   3.995   4.887 -0.7785 -1.0678  0.4363
29770SOL    HW292903   0.486   4.013   4.947 -0.5176  1.2278  0.4359
29771SOL     OW92904  10.312   4.920  10.789 -0.1683  0.0858  0.2794
29771SOL    HW192905  10.387   4.976  10.808 -0.2579 -0.1741  1.4483
29771SOL    HW292906  10.346   4.855  10.728 -0.1734  1.6337 -1.4769
29772SOL     OW92907   7.752   1.259   1.767  0.3656  0.2450  0.0195
29772SOL    HW192908   7.688   1.205   1.813  0.4249  1.1373  1.1859
29772SOL    HW292909   7.775   1.207   1.690 -1.3877 -0.2992 -0.1800
29773SOL     OW92910   4.439  10.099   7.165  0.1168 -0.5298  0.5706
29773SOL    HW192911   4.504  10.069   7.229 -1.8408 -0.7551  2.6105
29773SOL    HW292912   4.367  10.037   7.174 -0.9735  0.5336 -0.5249
29774SOL     OW92913   9.574   7.748   4.916  0.0554 -0.1728 -0.1990
29774SOL    HW192914   9.616   7.831   4.895  0.3677 -0.1687  0.4179
29774SOL    HW292915   9.508   7.736   4.847  0.0616  0.5432 -0.3370
29775SOL     OW92916   4.258   2.777   7.853  0.6267 -0.3400 -0.6418
29775SOL    HW192917   4.306   2.698   7.829 -2.4391 -2.1174 -1.3575
29775SOL    HW292918   4.242   2.822   7.771 -1.7778 -1.5702 -0.9276
29776SOL     OW92919   3.268   7.063   0.269  0.6257 -0.2348  0.0589
29776SOL    HW192920   3.229   7.055   0.356  0.5296  0.0344  0.0412
29776SOL    HW292921   3.360   7.083   0.286  0.8248 -1.1583  0.1026
29777SOL     OW92922   5.676   0.721   8.340  0.3264 -0.1898  0.1714
29777SOL    HW192923   5.627   0.694   8.262  1.0558  2.1589 -1.1963
29777SOL    HW292924   5.768   0.701   8.319  0.5084  0.2882  0.4834
29778SOL     OW92925  11.095   8.891   4.314 -0.0890 -0.2480 -0.2882
29778SOL    HW192926  11.097   8.893   4.219  1.9817  2.2624 -0.3095
29778SOL    HW292927  11.099   8.983   4.340  2.2635 -0.9050  2.1627
29779SOL     OW92928   2.281   5.854   7.177 -0.3197  0.3721 -0.4869
29779SOL    HW192929   2.241   5.773   7.209  1.6981 -1.0632 -1.3698
29779SOL    HW292930   2.225   5.880   7.103 -1.4882  0.3104  0.3468
29780SOL     OW92931   5.212   3.385   8.714 -0.5290  0.0986 -0.2107
29780SOL    HW192932   5.277   3.417   8.778 -0.6626 -1.9582  1.0585
29780SOL    HW292933   5.176   3.307   8.755 -1.5013 -0.6248 -2.3414
29781SOL     OW92934   4.549  10.835   7.197  0.8904 -0.4297  0.1617
29781SOL    HW192935   4.494  10.768   7.158 -0.6266 -0.3999  2.0808
29781SOL    HW292936   4.599  10.789   7.264  1.2756  0.0192  0.1904
29782SOL     OW92937   4.808   1.631   2.588 -0.0224  0.6081  0.1859
29782SOL    HW192938   4.900   1.656   2.581 -0.1697  1.0725 -0.1917
29782SOL    HW292939   4.761   1.704   2.547 -0.5059  0.0154 -0.3357
29783SOL     OW92940   3.058   6.255   7.075 -0.1286 -0.1586  0.1299
29783SOL    HW192941   3.041   6.332   7.020 -1.2435 -1.0105 -0.7883
29783SOL    HW292942   3.077   6.290   7.162  1.5634  1.2353 -0.7417
29784SOL     OW92943   1.884   7.153   0.071  0.3338 -0.0434  0.4048
29784SOL    HW192944   1.796   7.129   0.044 -0.1866 -0.5002  2.3506
29784SOL    HW292945   1.882   7.150   0.167  2.7229 -1.0492  0.5086
29785SOL     OW92946   4.321   4.891   3.790 -0.5697 -0.1799  0.2231
29785SOL    HW192947   4.323   4.796   3.805 -0.6180 -0.3317 -0.6738
29785SOL    HW292948   4.389   4.925   3.847 -0.8335 -0.7073  0.8695
29786SOL     OW92949   6.299   6.090   1.953 -0.6227 -0.1199 -0.6233
29786SOL    HW192950   6.315   6.028   2.024  2.1102  1.5354  0.3736
29786SOL    HW292951   6.386   6.111   1.918 -1.5387  2.0379 -1.8399
29787SOL     OW92952   8.735   1.836   3.685  0.0326 -0.5657  0.4193
29787SOL    HW192953   8.761   1.925   3.707 -0.0875 -0.1380 -1.0804
29787SOL    HW292954   8.681   1.807   3.759 -0.8116  0.9887  0.4386
29788SOL     OW92955  10.367   6.992   6.190  0.0189  0.1340  0.2081
29788SOL    HW192956  10.280   6.965   6.220  0.2406  1.1969  1.8941
29788SOL    HW292957  10.426   6.924   6.221 -0.0600 -0.0537 -0.0431
29789SOL     OW92958  10.156   7.224   6.252  0.1166  0.5345 -0.2951
29789SOL    HW192959  10.096   7.270   6.193 -0.1496  1.2301  0.5153
29789SOL    HW292960  10.132   7.131   6.241 -0.2093  0.6878 -0.9683
29790SOL     OW92961   9.755   9.035   0.240 -0.2110 -0.5928 -0.4876
29790SOL    HW192962   9.724   9.117   0.201  1.1741 -0.5102 -1.4959
29790SOL    HW292963   9.782   8.982   0.165 -0.5159 -1.7401  0.1936
29791SOL     OW92964   8.606   0.290   0.341  0.6548  0.1809 -0.2633
29791SOL    HW192965   8.511   0.301   0.349  0.8410  0.5544  1.8457
29791SOL    HW292966   8.618   0.197   0.322 -0.1559  0.3239 -1.6218
29792SOL     OW92967  11.101   4.761   3.889 -0.2967 -0.0289  0.1242
29792SOL    HW192968  11.171   4.732   3.947 -0.2887 -1.0038 -0.3603
29792SOL    HW292969  11.120   4.718   3.805 -0.1714  1.5208 -0.6984
29793SOL     OW92970   6.660   2.946   5.644 -0.0497  0.0682 -0.3007
29793SOL    HW192971   6.754   2.930   5.637 -0.3167 -1.5891 -0.6664
29793SOL    HW292972   6.622   2.894   5.573 -1.2969  0.0092  0.3853
29794SOL     OW92973   3.069   0.740   6.448 -0.6594 -0.0943  0.4470
29794SOL    HW192974   3.105   0.679   6.384 -0.5479 -0.8478  1.1992
29794SOL    HW292975   3.090   0.700   6.533 -1.7967  0.2973  0.9332
29795SOL     OW92976   7.308   8.480   9.768  0.4817  0.1534  0.1373
29795SOL    HW192977   7.383   8.450   9.716 -0.6433 -1.1199 -0.8070
29795SOL    HW292978   7.312   8.428   9.848  0.5187 -0.0267  0.0194
29796SOL     OW92979   5.186   5.669  10.113  0.2714  0.5357 -0.2010
29796SOL    HW192980   5.204   5.740  10.052  0.5390 -0.1325 -0.9062
29796SOL    HW292981   5.113   5.702  10.167  0.0348  1.1287 -0.8717
29797SOL     OW92982   9.168   8.937   6.914 -0.5450 -0.2055  0.5976
29797SOL    HW192983   9.163   9.004   6.845 -2.1940 -0.5068  0.3873
29797SOL    HW292984   9.091   8.954   6.969 -0.4251 -1.3024  1.1223
29798SOL     OW92985   2.005   6.930   5.606 -0.0502 -0.1921  0.3772
29798SOL    HW192986   1.981   6.927   5.514 -1.6149  2.6695  0.5961
29798SOL    HW292987   2.005   7.023   5.628  2.5407 -0.6237  2.7329
29799SOL     OW92988  10.658   7.232   4.733  0.4262  0.2472 -0.2782
29799SOL    HW192989  10.636   7.266   4.820  0.7539 -0.6393  0.1602
29799SOL    HW292990  10.580   7.250   4.680  0.0264  0.3344  0.3287
29800SOL     OW92991  10.136   6.462   8.589  0.4414 -0.3889  0.4668
29800SOL    HW192992  10.097   6.519   8.523  0.1751 -1.8802 -0.7074
29800SOL    HW292993  10.123   6.373   8.556  1.3067 -1.1328  1.9846
29801SOL     OW92994  10.613  10.776   8.528 -0.8177  0.6053 -0.2225
29801SOL    HW192995  10.563  10.695   8.511 -0.0268  0.2204 -0.7557
29801SOL    HW292996  10.547  10.845   8.528 -1.7363 -0.1790  1.6599
29802SOL     OW92997   0.032   6.674   4.167  0.4211  0.1241  0.0001
29802SOL    HW192998   0.074   6.620   4.234  1.0238  0.1966 -0.3084
29802SOL    HW292999  -0.033   6.617   4.126 -0.1303  0.1563  0.8114
29803SOL     OW93000   2.305   9.646   4.293 -0.1867 -0.1002 -0.4405
29803SOL    HW193001   2.234   9.675   4.351  1.8588  1.3957  1.4814
29803SOL    HW293002   2.344   9.727   4.260 -0.0456 -0.9130 -2.3691
29804SOL     OW93003   2.139   3.883   1.483  0.0629 -0.2103 -0.3680
29804SOL    HW193004   2.173   3.972   1.489 -1.1399  0.1740  2.5762
29804SOL    HW293005   2.056   3.893   1.437 -0.1590  0.2536  0.1137
29805SOL     OW93006   5.878   2.024   3.456  0.4559  0.0989  0.0298
29805SOL    HW193007   5.974   2.025   3.450  0.5235 -1.0587  0.6482
29805SOL    HW293008   5.859   2.050   3.546  0.1890  0.3031 -0.0844
29806SOL     OW93009   5.474   2.182   6.044 -0.1331 -0.6922 -0.5766
29806SOL    HW193010   5.489   2.273   6.070  1.2772 -1.2258  0.5868
29806SOL    HW293011   5.379   2.172   6.046 -0.2265  0.0154  1.9790
29807SOL     OW93012   3.196   6.275   7.955  0.0184 -0.2338  0.2278
29807SOL    HW193013   3.115   6.314   7.989  0.3983  0.5612  0.2319
29807SOL    HW293014   3.263   6.341   7.972  1.0378 -1.6259  1.8917
29808SOL     OW93015   5.191   0.922   2.741 -0.3247  0.7722  0.1747
29808SOL    HW193016   5.240   0.905   2.660  0.3264 -1.5574  0.9899
29808SOL    HW293017   5.207   0.845   2.795 -3.1426  0.9413  1.3860
29809SOL     OW93018   6.050   2.611   1.659  0.3966  0.2721  0.2086
29809SOL    HW193019   6.022   2.550   1.726  0.5766 -2.1934 -1.8156
29809SOL    HW293020   5.985   2.682   1.662 -1.6163 -1.4882  0.6888
29810SOL     OW93021   4.012   3.826   3.288 -0.9501  0.0551 -0.0074
29810SOL    HW193022   4.015   3.869   3.203 -0.0480  2.4316  1.1416
29810SOL    HW293023   3.920   3.805   3.301 -0.9542 -1.6004 -2.0802
29811SOL     OW93024   1.900   2.047   0.455 -0.1531  0.0846 -0.1194
29811SOL    HW193025   1.943   1.966   0.427 -0.2078 -0.0422  0.1577
29811SOL    HW293026   1.958   2.084   0.521  1.1862  1.6222 -2.0386
29812SOL     OW93027   3.505  11.068   2.743 -0.2967  0.5478  0.4866
29812SOL    HW193028   3.465  11.048   2.658 -1.7633  1.4115  0.9294
29812SOL    HW293029   3.443  11.032   2.807  0.5043  0.4083  1.2001
29813SOL     OW93030   5.919   7.210  10.655 -0.3350  0.2657  0.6597
29813SOL    HW193031   5.950   7.298  10.634 -1.7489  0.5752 -0.2562
29813SOL    HW293032   5.925   7.162  10.572  1.4983 -0.8828  1.3829
29814SOL     OW93033   6.042   6.499  11.045 -0.0733 -0.0070  0.1300
29814SOL    HW193034   5.975   6.477  11.110 -1.3406  0.2944 -1.0446
29814SOL    HW293035   6.097   6.421  11.040  0.0469 -0.0338  1.5487
29815SOL     OW93036   3.381   1.135   0.238  0.3316  0.6250  0.4388
29815SOL    HW193037   3.441   1.144   0.164  1.9125 -0.6701  1.4866
29815SOL    HW293038   3.437   1.111   0.311 -1.5168 -1.0200  1.4031
29816SOL     OW93039   9.342   5.879   7.363  0.1736  0.1636 -0.7105
29816SOL    HW193040   9.289   5.807   7.395 -0.1950  1.3361  1.5394
29816SOL    HW293041   9.312   5.893   7.274  0.0774 -2.2496 -1.1221
29817SOL     OW93042   5.150  10.222  10.624 -0.3957 -0.0516 -0.3737
29817SOL    HW193043   5.150  10.140  10.672 -0.1342  0.2217  0.0980
29817SOL    HW293044   5.062  10.259  10.638 -0.4845 -0.2054 -0.5179
29818SOL     OW93045  10.596   4.227   2.630 -0.2708  0.3843  0.4126
29818SOL    HW193046  10.664   4.220   2.697  1.0012  0.2123 -0.8394
29818SOL    HW293047  10.599   4.144   2.583  0.2869  1.2292 -1.1284
29819SOL     OW93048   8.964   5.098   9.152  0.4373 -0.0915  0.1865
29819SOL    HW193049   9.050   5.056   9.149 -0.4740 -2.0008 -0.8424
29819SOL    HW293050   8.982   5.192   9.143  2.3728 -0.4902 -0.4679
29820SOL     OW93051   0.068   1.194   6.573 -0.1002  0.0188 -0.4133
29820SOL    HW193052  -0.021   1.173   6.599 -0.1845  1.2573  0.3825
29820SOL    HW293053   0.069   1.182   6.478 -0.7282 -1.2876 -0.2738
29821SOL     OW93054  10.872   9.358   4.532  0.0971  0.1104 -0.6854
29821SOL    HW193055  10.938   9.346   4.600  0.4790 -2.9239 -1.4272
29821SOL    HW293056  10.814   9.427   4.565  2.1266  1.0221  1.1486
29822SOL     OW93057   2.567   8.983   3.733 -0.0948  0.4422  0.3862
29822SOL    HW193058   2.552   9.051   3.668 -2.4858  1.2619  1.6585
29822SOL    HW293059   2.643   9.014   3.783 -0.5561  1.7371  0.3373
29823SOL     OW93060  10.253   4.402   4.357 -0.4203 -0.0763  0.1842
29823SOL    HW193061  10.168   4.361   4.373  0.4647 -2.3986 -0.5763
29823SOL    HW293062  10.285   4.426   4.444 -1.7882  0.7341  0.4832
29824SOL     OW93063   5.757   8.222   0.812 -0.2903 -0.3096  0.4796
29824SOL    HW193064   5.835   8.245   0.863  1.2757  0.9062 -2.2823
29824SOL    HW293065   5.789   8.162   0.745 -2.2924 -1.8980  0.8686
29825SOL     OW93066   8.825   7.614   8.435  0.2255 -0.2323  0.1545
29825SOL    HW193067   8.836   7.709   8.443 -1.2531 -0.0388  0.1417
29825SOL    HW293068   8.731   7.601   8.430  0.2498 -1.8800  2.3714
29826SOL     OW93069   2.258   9.542   7.570 -0.0429 -0.4816 -0.4016
29826SOL    HW193070   2.327   9.539   7.636 -0.0256  0.9713 -0.3273
29826SOL    HW293071   2.305   9.542   7.486 -0.0187 -0.9883 -0.3919
29827SOL     OW93072   1.927   5.348   9.428 -0.1809  0.1744  0.7057
29827SOL    HW193073   1.855   5.291   9.402 -1.6423  1.3607  1.9962
29827SOL    HW293074   1.964   5.305   9.506 -1.6075  1.1508  1.9888
29828SOL     OW93075  10.520   8.392   6.171  0.2294 -0.2817  0.2545
29828SOL    HW193076  10.575   8.444   6.230 -0.4015  2.8685 -1.6795
29828SOL    HW293077  10.446   8.450   6.151 -0.5182 -1.9451 -2.1285
29829SOL     OW93078   9.946  10.599   3.573  0.4995 -0.1597 -0.1465
29829SOL    HW193079  10.004  10.665   3.534  0.4000  0.4225  0.6699
29829SOL    HW293080   9.983  10.515   3.546  1.4453  0.2124 -0.0380
29830SOL     OW93081   2.939   7.501   2.960  0.3264 -0.1128  0.0438
29830SOL    HW193082   2.987   7.583   2.955  2.7572 -1.4730 -0.9952
29830SOL    HW293083   2.939   7.479   3.053  1.7560 -0.0452  0.0772
29831SOL     OW93084   0.173  10.176   4.913  0.5581  0.0012  0.2855
29831SOL    HW193085   0.188  10.177   4.819  3.2141 -0.7660  0.6203
29831SOL    HW293086   0.187  10.085   4.939 -0.8205  0.0594  1.3635
29832SOL     OW93087   9.275   6.780   2.194 -0.2952 -0.0748  0.2658
29832SOL    HW193088   9.182   6.803   2.191 -0.3142 -0.1659  0.1172
29832SOL    HW293089   9.280   6.708   2.257 -0.2143  0.4259  0.8371
29833SOL     OW93090   8.069  10.274  10.403  0.7139 -0.3884 -0.7384
29833SOL    HW193091   8.046  10.295  10.313 -0.5945 -0.4239 -0.4345
29833SOL    HW293092   8.151  10.320  10.418  0.1259  0.9510 -1.4459
29834SOL     OW93093   9.941   3.875   4.392  0.0545 -0.0373  0.0110
29834SOL    HW193094  10.034   3.892   4.380  0.3180 -1.5193 -0.1698
29834SOL    HW293095   9.928   3.880   4.487 -0.2950  2.9438 -0.0748
29835SOL     OW93096   5.725   5.623   6.189 -0.3119  1.3629 -0.2610
29835SOL    HW193097   5.758   5.692   6.131 -1.3260 -0.4943 -3.2807
29835SOL    HW293098   5.636   5.651   6.212 -0.8514  0.9624 -1.7589
29836SOL     OW93099   4.212   8.308   7.253  0.1120  0.3241  0.6880
29836SOL    HW193100   4.167   8.223   7.255 -2.5994  1.5246 -1.8727
29836SOL    HW293101   4.197   8.345   7.340 -1.6799 -0.4474  0.7601
29837SOL     OW93102   6.935   0.564   0.527 -0.2647  0.1026  0.2139
29837SOL    HW193103   6.910   0.552   0.619  0.2260  0.9601  0.4607
29837SOL    HW293104   6.882   0.499   0.480  0.2109 -1.0249  1.2006
29838SOL     OW93105   5.506   7.507   2.600 -0.0044  0.6478  0.5193
29838SOL    HW193106   5.560   7.475   2.528 -0.5904  1.0984 -0.1462
29838SOL    HW293107   5.544   7.591   2.623  2.7199 -1.1961  3.5588
29839SOL     OW93108   8.983   5.624   2.751 -0.2022  0.5373  1.2219
29839SOL    HW193109   8.981   5.720   2.755 -3.3093  0.6740 -0.6254
29839SOL    HW293110   9.067   5.604   2.710 -0.9610  2.7759 -1.7557
29840SOL     OW93111   4.183   3.437   3.538  0.3876  0.0618  0.6368
29840SOL    HW193112   4.197   3.531   3.541  0.3730  0.0725  0.3810
29840SOL    HW293113   4.127   3.423   3.462 -0.2395 -0.0784  1.1173
29841SOL     OW93114  10.008   7.884   2.741 -0.1335 -0.0141 -0.4161
29841SOL    HW193115   9.929   7.936   2.729 -0.5303 -0.7034 -0.8841
29841SOL    HW293116  10.031   7.896   2.833 -1.9034 -1.3380  0.2686
29842SOL     OW93117   1.525   9.670   8.607  0.2921  0.3273 -0.0671
29842SOL    HW193118   1.444   9.623   8.624  0.2633  0.8863  1.5640
29842SOL    HW293119   1.497   9.756   8.577  0.3395 -0.4014 -2.3407
29843SOL     OW93120   3.394   4.582   6.706 -0.2426 -0.2941  0.0328
29843SOL    HW193121   3.401   4.572   6.611  0.5019 -1.1407  0.1624
29843SOL    HW293122   3.349   4.666   6.718  0.8864  0.5133 -1.0637
29844SOL     OW93123  10.837   1.831   7.244 -0.5562  0.4939 -0.2819
29844SOL    HW193124  10.864   1.891   7.314 -0.0617  0.8019 -0.7266
29844SOL    HW293125  10.746   1.854   7.227 -1.0285 -0.3095  0.9889
29845SOL     OW93126   0.142   1.572   8.545 -0.0884 -0.3686 -0.5195
29845SOL    HW193127   0.215   1.614   8.591  0.1977 -1.2440 -0.1493
29845SOL    HW293128   0.066   1.627   8.565  0.0457 -0.6589  0.9470
29846SOL     OW93129   5.030   6.539   1.705  0.2446 -0.2794 -0.7045
29846SOL    HW193130   5.052   6.515   1.795 -0.3683  0.5996 -0.3070
29846SOL    HW293131   5.115   6.546   1.661  0.8046  2.3710  0.6173
29847SOL     OW93132   4.978   8.650   1.077  0.3425  0.3184  0.5555
29847SOL    HW193133   5.007   8.622   1.163 -0.1298  2.1341  1.3584
29847SOL    HW293134   5.035   8.604   1.016 -0.3761 -2.2880  1.7057
29848SOL     OW93135   2.679   0.029   8.693  0.0783 -0.6005 -0.6860
29848SOL    HW193136   2.712  -0.040   8.751  1.2090  0.9477  0.5848
29848SOL    HW293137   2.584   0.031   8.710  0.2953 -0.6087  0.6485
29849SOL     OW93138   7.005   2.011   0.479 -0.0196 -0.3027  0.4882
29849SOL    HW193139   6.940   2.050   0.538  1.5931  0.3729  1.8929
29849SOL    HW293140   7.086   2.057   0.498  0.3961  0.7531 -3.0933
29850SOL     OW93141   6.498   6.563   4.270 -0.5931  0.3317 -0.1401
29850SOL    HW193142   6.470   6.589   4.182  0.1353  0.6584 -0.2758
29850SOL    HW293143   6.560   6.492   4.255  1.5541  2.0970 -0.0455
29851SOL     OW93144   0.446   4.971  10.375 -0.6009  0.0053  0.0420
29851SOL    HW193145   0.432   4.967  10.281 -2.4395  0.9171  0.2258
29851SOL    HW293146   0.482   5.059  10.390 -1.3696  0.2887  0.2793
29852SOL     OW93147  10.905  10.684   5.708  0.3397 -0.1086 -0.0024
29852SOL    HW193148  10.829  10.673   5.650 -0.4889 -0.8314  1.1957
29852SOL    HW293149  10.962  10.610   5.687  1.1151  0.8162 -1.4133
29853SOL     OW93150   9.973   2.170   8.789  0.1382  0.2910  0.1296
29853SOL    HW193151  10.038   2.240   8.788 -0.6544  1.1684  2.5847
29853SOL    HW293152   9.987   2.126   8.873 -1.7900 -0.0868  0.3030
29854SOL     OW93153   3.605   5.929   2.312 -0.6540  0.0857  0.1847
29854SOL    HW193154   3.634   5.911   2.223 -0.7057 -1.9845  0.5252
29854SOL    HW293155   3.639   6.016   2.332  0.0350  0.2508 -1.5683
29855SOL     OW93156  11.074   6.951   4.171 -1.0502 -0.3289 -0.7817
29855SOL    HW193157  11.134   6.879   4.154  2.1797  2.2577 -1.1658
29855SOL    HW293158  11.116   7.002   4.239 -2.0193  2.4494 -2.1297
29856SOL     OW93159   5.984   8.745   7.014  0.1679 -0.0182  0.3433
29856SOL    HW193160   5.891   8.741   7.038 -0.2901 -1.8821 -1.4337
29856SOL    HW293161   6.022   8.667   7.055  0.5238 -0.2569 -0.4282
29857SOL     OW93162   3.350   6.329   0.276  0.0977  0.4752  0.0529
29857SOL    HW193163   3.362   6.278   0.196  0.5553 -0.1576  0.5174
29857SOL    HW293164   3.417   6.296   0.336  0.8747  2.1005  0.1369
29858SOL     OW93165   0.383  10.030   9.782  0.0008 -0.2700  0.3065
29858SOL    HW193166   0.374   9.972   9.858 -0.5034 -0.1633  0.3282
29858SOL    HW293167   0.303  10.082   9.782  0.3779  0.3084  0.1851
29859SOL     OW93168  10.528   9.311   3.377  0.5144 -0.0668  0.2475
29859SOL    HW193169  10.517   9.268   3.462 -0.5752 -1.4223 -0.5439
29859SOL    HW293170  10.440   9.323   3.343  0.9106 -3.1099 -2.3653
29860SOL     OW93171   2.594   9.946   5.470  0.2276  0.1018  0.3914
29860SOL    HW193172   2.597   9.863   5.423 -0.2073 -1.2121  2.5180
29860SOL    HW293173   2.686   9.969   5.485  0.3555 -0.4420  0.4740
29861SOL     OW93174   2.757  10.350   4.798 -0.8339 -0.6024 -0.0200
29861SOL    HW193175   2.725  10.379   4.713  1.0006 -1.8138 -1.1856
29861SOL    HW293176   2.839  10.305   4.779  0.7161  0.8474  2.6036
29862SOL     OW93177   0.013   9.131   2.677 -0.1742 -0.8876  0.2162
29862SOL    HW193178  -0.022   9.184   2.605 -0.0570 -1.3517 -0.1828
29862SOL    HW293179  -0.062   9.119   2.736  0.2983  1.6338  1.4973
29863SOL     OW93180   0.698   7.655   6.229  0.2121  0.3113 -0.1921
29863SOL    HW193181   0.713   7.620   6.142  0.1749  0.4325 -0.2484
29863SOL    HW293182   0.621   7.711   6.219 -0.3478 -0.3905  0.1135
29864SOL     OW93183  10.619   5.954   3.753  0.1526  0.0681  0.2711
29864SOL    HW193184  10.687   5.911   3.702  0.1277  0.3127  0.0250
29864SOL    HW293185  10.593   6.029   3.699  0.4346  0.5867  0.8389
29865SOL     OW93186   2.668   1.420   2.277  0.2698 -0.5489  0.2112
29865SOL    HW193187   2.637   1.444   2.364  0.8725  0.0592  0.2657
29865SOL    HW293188   2.665   1.501   2.226  0.4554 -0.7782 -0.1770
29866SOL     OW93189   9.446  10.209   5.791 -0.3808  0.1323  0.2247
29866SOL    HW193190   9.485  10.277   5.736 -1.4247  0.7385  0.2212
29866SOL    HW293191   9.516  10.144   5.801  0.4623  0.9495 -0.1976
29867SOL     OW93192  10.385   4.460   2.127 -0.4509  0.5955  0.4355
29867SOL    HW193193  10.419   4.426   2.210  0.3230  0.3729  0.0372
29867SOL    HW293194  10.393   4.387   2.066 -1.1768  0.7032  0.1951
29868SOL     OW93195   8.008   5.918  10.138 -0.1229 -0.1962 -0.3997
29868SOL    HW193196   8.060   5.888  10.213  1.5269 -0.5069 -1.5919
29868SOL    HW293197   7.940   5.852  10.128 -0.0213 -0.4461  0.4755
29869SOL     OW93198   2.096   9.184   7.705  0.2334 -0.8708  0.2856
29869SOL    HW193199   2.122   9.168   7.614 -0.5219  0.1019 -0.1136
29869SOL    HW293200   2.001   9.175   7.705  0.2724 -1.3744  1.0947
29870SOL     OW93201   8.681  10.928   5.201 -0.3572 -0.4642  0.1162
29870SOL    HW193202   8.693  11.016   5.165  3.0214 -0.9690 -0.2812
29870SOL    HW293203   8.631  10.881   5.134 -0.0471  0.4731 -0.7921
29871SOL     OW93204   0.701   6.265  10.003  0.5351 -0.7506 -0.3486
29871SOL    HW193205   0.611   6.252   9.973  0.6385 -1.4568 -0.3677
29871SOL    HW293206   0.696   6.258  10.098  0.4263  0.1554 -0.2736
29872SOL     OW93207   7.604   2.821   6.551 -0.7927 -0.0507  0.1836
29872SOL    HW193208   7.566   2.763   6.618 -1.3136 -1.5767 -1.3633
29872SOL    HW293209   7.673   2.768   6.511  0.7189  1.4713  0.6316
29873SOL     OW93210   2.109   6.012   7.945  0.2767  0.2865 -0.4503
29873SOL    HW193211   2.175   5.951   7.913  1.2003  0.2291  1.4158
29873SOL    HW293212   2.128   6.094   7.898 -0.5609 -0.6327 -2.4748
29874SOL     OW93213   9.440   5.270   8.883 -0.5238  0.2862 -0.1038
29874SOL    HW193214   9.429   5.175   8.871  0.7934  0.2587 -1.3114
29874SOL    HW293215   9.534   5.285   8.871 -0.6612  1.7008  0.4446
29875SOL     OW93216  10.376   2.145   3.734  0.5751 -0.3768  0.2834
29875SOL    HW193217  10.429   2.068   3.716 -0.4784 -1.2304  0.7217
29875SOL    HW293218  10.325   2.122   3.811  0.0766  0.6743  0.2888
29876SOL     OW93219   1.876   3.718   1.619  0.4534 -0.1784 -0.5024
29876SOL    HW193220   1.873   3.764   1.702 -2.3695 -2.2264  0.6819
29876SOL    HW293221   1.861   3.786   1.553 -0.9456  0.9811  0.9595
29877SOL     OW93222   1.073   2.187   8.193 -0.2008 -0.1601  0.0954
29877SOL    HW193223   1.123   2.266   8.172 -1.5420  0.6512 -0.1547
29877SOL    HW293224   1.091   2.128   8.120  1.2992 -0.3654  0.5850
29878SOL     OW93225  10.625   3.178  10.596 -0.5501 -0.5813 -0.5334
29878SOL    HW193226  10.699   3.181  10.657 -0.8732  0.3548 -0.1616
29878SOL    HW293227  10.642   3.103  10.540  1.8851  0.8810 -1.9472
29879SOL     OW93228  11.090  10.412   2.099 -0.0616 -0.4683 -0.3819
29879SOL    HW193229  11.099  10.454   2.013  1.5990  0.0832  0.0152
29879SOL    HW293230  11.179  10.416   2.136 -0.7054 -0.8838  1.2652
29880SOL     OW93231   7.099   6.866   1.894  0.3176  0.0736  0.0632
29880SOL    HW193232   7.059   6.894   1.977  0.8978  0.7726  0.1204
29880SOL    HW293233   7.186   6.835   1.918  0.2713 -0.2760 -0.2131
29881SOL     OW93234   0.236   8.051   2.081  1.0557  0.4316  0.3958
29881SOL    HW193235   0.171   8.095   2.026  0.8535 -2.0759 -1.5414
29881SOL    HW293236   0.192   8.039   2.165 -0.5682 -0.1583 -0.4974
29882SOL     OW93237   9.307   4.236   2.870 -0.2588 -0.0721  0.3888
29882SOL    HW193238   9.302   4.183   2.790  0.4739  1.2442 -0.5640
29882SOL    HW293239   9.232   4.294   2.865 -0.7414 -0.6047  1.1519
29883SOL     OW93240   1.410   1.789   1.111 -0.0709  0.0744  0.0921
29883SOL    HW193241   1.434   1.817   1.023  0.6205 -1.0259 -0.0915
29883SOL    HW293242   1.481   1.820   1.167 -0.1655  0.1781  0.1559
29884SOL     OW93243   8.225   4.804   9.776 -0.1546  1.0403  0.2216
29884SOL    HW193244   8.261   4.784   9.862  0.0855  0.7207  0.0545
29884SOL    HW293245   8.300   4.834   9.725 -0.0478  0.0398 -0.2314
29885SOL     OW93246   4.321   6.656  10.417 -0.2265  0.1276 -0.0932
29885SOL    HW193247   4.301   6.743  10.383  0.6082  1.2466  2.0767
29885SOL    HW293248   4.256   6.641  10.486  0.0718 -0.6639  0.0346
29886SOL     OW93249  10.733   2.402   6.549  0.6279  0.2053 -0.0840
29886SOL    HW193250  10.828   2.409   6.545  0.5879  0.4606 -0.7924
29886SOL    HW293251  10.703   2.439   6.465 -0.1680  1.7534  0.8296
29887SOL     OW93252   7.258   1.891   5.654  0.2081  0.3464 -0.7296
29887SOL    HW193253   7.218   1.918   5.736 -1.2554 -1.3216 -0.8177
29887SOL    HW293254   7.198   1.923   5.586 -0.2590 -0.9302 -0.9493
29888SOL     OW93255   9.835  10.344   2.052  0.2077  0.4583 -0.3499
29888SOL    HW193256   9.907  10.290   2.085  1.6575  1.6114 -1.4662
29888SOL    HW293257   9.821  10.312   1.963 -0.2381  0.6552 -0.3508
29889SOL     OW93258  10.295   0.162   3.297  0.1596  0.5392  0.0821
29889SOL    HW193259  10.309   0.068   3.283  1.5456  0.5889  0.9312
29889SOL    HW293260  10.241   0.190   3.223  0.5102 -0.7391 -0.6865
29890SOL     OW93261   3.205   0.319   0.953  0.4956  0.1533 -0.1131
29890SOL    HW193262   3.288   0.365   0.965  0.2878  0.9785 -1.5927
29890SOL    HW293263   3.139   0.386   0.971  0.1205 -0.5540  1.2565
29891SOL     OW93264   2.871   4.298   4.415 -0.2340  0.6348 -0.2187
29891SOL    HW193265   2.922   4.373   4.383 -0.8060  1.1326  0.0266
29891SOL    HW293266   2.783   4.332   4.426 -0.4685 -0.0437  0.0367
29892SOL     OW93267   4.841   4.362  10.910 -0.8021 -0.3678 -0.0527
29892SOL    HW193268   4.836   4.457  10.926 -2.8026 -0.5948  1.0824
29892SOL    HW293269   4.884   4.327  10.988  0.6811 -0.3656 -0.8301
29893SOL     OW93270   1.652   6.622   8.015 -0.4437  0.5764 -0.3983
29893SOL    HW193271   1.727   6.654   8.065 -1.7991  2.4222  0.5769
29893SOL    HW293272   1.642   6.531   8.044  0.4692  0.7804  0.6373
29894SOL     OW93273  10.352   6.191   9.290 -0.1701  0.0297  0.2671
29894SOL    HW193274  10.308   6.216   9.371 -0.5821  0.1299  0.0149
29894SOL    HW293275  10.378   6.273   9.249  1.8763 -0.0531  1.2800
29895SOL     OW93276   7.172   5.437   1.850  0.2979 -0.1923  0.4310
29895SOL    HW193277   7.207   5.348   1.858  0.8544  0.1111  1.5519
29895SOL    HW293278   7.187   5.459   1.758  1.8168 -0.5988  0.5516
29896SOL     OW93279   4.982   4.241   8.120 -0.1225 -0.3590 -0.0793
29896SOL    HW193280   4.983   4.293   8.040  0.9589 -0.3966 -0.1152
29896SOL    HW293281   4.934   4.161   8.097 -2.0940  0.7239  0.0730
29897SOL     OW93282   5.027   6.816   8.123 -0.3922 -0.8411 -0.8004
29897SOL    HW193283   4.933   6.821   8.103 -0.4172 -0.3004 -0.5848
29897SOL    HW293284   5.054   6.730   8.091 -1.3296 -1.7505  0.7334
29898SOL     OW93285   2.951   4.763   6.557  0.3832  0.0482  0.5760
29898SOL    HW193286   2.897   4.806   6.624  0.2445  2.0842 -0.7560
29898SOL    HW293287   2.891   4.703   6.513 -0.4424  1.1486  0.1425
29899SOL     OW93288   3.379   9.127   0.147  0.0977 -0.1962 -0.2075
29899SOL    HW193289   3.430   9.187   0.200  0.8307 -0.3521 -0.7291
29899SOL    HW293290   3.295   9.171   0.135  0.9663  1.2133 -1.4658
29900SOL     OW93291   4.817   4.395   3.472  0.3475  0.7259  0.3608
29900SOL    HW193292   4.882   4.414   3.540  0.2704  1.1426  0.3244
29900SOL    HW293293   4.739   4.442   3.501  0.1338  0.4201  0.2829
29901SOL     OW93294   5.424   5.485   0.893 -0.2569 -0.0837  0.4544
29901SOL    HW193295   5.399   5.578   0.891 -1.4280 -0.3817  0.5650
29901SOL    HW293296   5.342   5.439   0.912  0.3733 -1.1211  0.6976
29902SOL     OW93297   5.013   4.306   4.462 -0.0879 -0.6597  0.5404
29902SOL    HW193298   5.085   4.248   4.437  0.8655  1.2106 -1.3757
29902SOL    HW293299   5.056   4.378   4.509 -0.7820  0.0564  0.1125
29903SOL     OW93300   7.877   5.038   7.555 -0.0437 -0.1761  0.1568
29903SOL    HW193301   7.910   5.094   7.485  2.4015 -1.2636  0.3244
29903SOL    HW293302   7.952   4.984   7.579 -2.0757 -3.0439  0.4863
29904SOL     OW93303   3.308   5.146   7.525  0.4499  0.4633  0.2154
29904SOL    HW193304   3.367   5.205   7.479 -1.5125  0.8553 -2.0208
29904SOL    HW293305   3.220   5.174   7.497 -0.8408 -0.2399  3.1511
29905SOL     OW93306   6.949   6.752  10.378 -0.7037 -0.2950  0.0098
29905SOL    HW193307   6.970   6.677  10.323 -0.1530 -0.6739  0.7124
29905SOL    HW293308   7.032   6.799  10.389 -0.7945 -0.2430  0.5300
29906SOL     OW93309   5.209   9.610   1.672  0.8468  0.1787 -0.7726
29906SOL    HW193310   5.254   9.587   1.591  2.5830  1.6316 -0.3018
29906SOL    HW293311   5.125   9.646   1.643  0.5886 -1.1358 -1.7780
29907SOL     OW93312   3.632   1.503   9.485  0.0469 -0.3946 -0.2647
29907SOL    HW193313   3.558   1.484   9.427  0.5162 -1.5335 -0.5183
29907SOL    HW293314   3.624   1.596   9.505  0.0873  0.1457 -2.4730
29908SOL     OW93315  10.379   7.855   7.201 -0.1574  0.2460 -0.1901
29908SOL    HW193316  10.468   7.820   7.198 -0.4894 -0.5918 -0.5511
29908SOL    HW293317  10.382   7.921   7.270  0.4730 -0.5419  0.5734
29909SOL     OW93318   4.459   0.012   3.147  0.0725 -0.3204 -0.8905
29909SOL    HW193319   4.499   0.050   3.069  0.0166  0.7017 -0.4430
29909SOL    HW293320   4.455   0.085   3.210  0.6040 -1.2347  0.2583
29910SOL     OW93321   2.821   2.897   1.140 -0.1532  0.1876 -0.9415
29910SOL    HW193322   2.760   2.835   1.181 -0.7375  1.9422  1.0398
29910SOL    HW293323   2.908   2.863   1.160 -0.4712 -0.1643 -0.1351
29911SOL     OW93324   4.280   7.752   8.020 -0.1261 -0.7244 -0.9650
29911SOL    HW193325   4.265   7.696   7.944 -0.3620 -1.2434 -0.5493
29911SOL    HW293326   4.234   7.833   8.001  2.9216  0.6925 -3.0563
29912SOL     OW93327   3.963   3.700   9.808 -0.4398  0.7645 -0.7471
29912SOL    HW193328   3.878   3.733   9.779 -0.3359  0.6446 -1.1835
29912SOL    HW293329   4.018   3.701   9.730 -0.3566 -0.2016 -0.7143
29913SOL     OW93330   1.740   7.430   0.391  0.0370 -0.3714  0.2048
29913SOL    HW193331   1.775   7.451   0.477 -1.0442 -2.8582  1.3572
29913SOL    HW293332   1.764   7.339   0.376 -2.1161 -0.8425 -0.8771
29914SOL     OW93333   4.627  10.938   2.334 -0.2879 -0.2757 -0.5508
29914SOL    HW193334   4.690  10.990   2.385  0.3478 -0.3426 -1.2576
29914SOL    HW293335   4.570  10.899   2.400  2.4004 -2.9404  0.4244
29915SOL     OW93336  10.392  10.549   0.478  0.1055 -0.3046 -0.1610
29915SOL    HW193337  10.465  10.539   0.417 -0.0268 -2.3034 -0.0526
29915SOL    HW293338  10.433  10.556   0.565  0.2957  2.5937 -0.3665
29916SOL     OW93339  10.760   7.708   1.245  0.6324 -0.1743 -0.1643
29916SOL    HW193340  10.707   7.779   1.282 -1.1768 -1.6718  0.2643
29916SOL    HW293341  10.699   7.659   1.189  1.4938 -2.0407  0.4400
29917SOL     OW93342  11.073   6.343   8.679  0.0806  0.1068 -0.2691
29917SOL    HW193343  11.167   6.328   8.684  0.1530  0.6547  0.0885
29917SOL    HW293344  11.036   6.294   8.752  0.1338  0.2567 -0.1418
29918SOL     OW93345   1.216   4.752   0.819  0.1992  0.2273  1.1116
29918SOL    HW193346   1.270   4.707   0.754 -1.5678 -2.1337  1.1556
29918SOL    HW293347   1.127   4.722   0.801 -0.9803  3.0280  1.8124
29919SOL     OW93348   1.395   5.860   1.604  0.2222 -0.3948  0.7437
29919SOL    HW193349   1.411   5.840   1.511 -1.3568  1.6428 -0.0477
29919SOL    HW293350   1.324   5.924   1.603 -1.3300 -1.8843  3.5081
29920SOL     OW93351   9.115   7.280   1.309 -0.5138  0.2557  0.2379
29920SOL    HW193352   9.169   7.220   1.258 -0.0558  0.5046  0.4199
29920SOL    HW293353   9.175   7.349   1.336 -0.4693 -0.4737  2.1164
29921SOL     OW93354   1.428   0.482   2.816  0.1800  0.3593  0.2478
29921SOL    HW193355   1.479   0.436   2.749 -2.0331 -1.4347 -0.3069
29921SOL    HW293356   1.357   0.523   2.767 -2.0295 -1.7636  1.4860
29922SOL     OW93357   1.501   0.069   8.785  0.0299 -0.3440  0.1163
29922SOL    HW193358   1.536   0.148   8.826 -0.0735 -0.0430 -0.3552
29922SOL    HW293359   1.409   0.067   8.813  0.4423 -1.2515  1.5284
29923SOL     OW93360   8.298   0.256   9.887  0.1933  0.0955 -0.3743
29923SOL    HW193361   8.389   0.241   9.859  0.5102  0.7152  0.2882
29923SOL    HW293362   8.299   0.344   9.924 -0.4479 -0.2847  0.5741
29924SOL     OW93363   2.894   3.203   2.231 -0.7627  0.3836  0.1435
29924SOL    HW193364   2.947   3.195   2.310 -0.9263  1.6783  0.4061
29924SOL    HW293365   2.856   3.117   2.219  2.0645 -0.8790 -0.5446
29925SOL     OW93366   4.854   4.319   5.720 -0.2967 -0.0916 -0.1416
29925SOL    HW193367   4.869   4.225   5.731 -0.2883 -0.1658 -0.7645
29925SOL    HW293368   4.929   4.360   5.764 -0.7899 -0.3392  0.9748
29926SOL     OW93369   2.343   7.928   7.263  0.3305 -0.0416  0.1067
29926SOL    HW193370   2.279   7.886   7.320 -0.2603 -0.4359 -0.8362
29926SOL    HW293371   2.428   7.899   7.297  0.0451  0.7300  1.5501
29927SOL     OW93372   8.405   3.408   8.325 -0.2571 -0.1904  0.0821
29927SOL    HW193373   8.407   3.388   8.231 -0.4545 -0.3834  0.1169
29927SOL    HW293374   8.461   3.341   8.365  1.7287  1.2694 -0.1278
29928SOL     OW93375   8.418   1.160  10.771 -0.3227  0.2100  0.0614
29928SOL    HW193376   8.375   1.125  10.848  0.8326 -1.3885  0.0275
29928SOL    HW293377   8.449   1.247  10.798  1.5013 -0.9491  1.9881
29929SOL     OW93378   0.327   1.780   4.487 -0.1672  1.0491  0.6520
29929SOL    HW193379   0.252   1.819   4.441 -1.1179 -1.4897 -0.1116
29929SOL    HW293380   0.290   1.706   4.535  1.5687  0.8947  1.8458
29930SOL     OW93381   3.091   9.866   5.423  0.3698  0.0042 -0.0195
29930SOL    HW193382   3.117   9.885   5.333  0.2203 -0.4771 -0.1708
29930SOL    HW293383   3.059   9.776   5.419  0.8553 -0.2015  0.6170
29931SOL     OW93384   8.129   3.443   5.006  0.5921 -0.0311 -0.2700
29931SOL    HW193385   8.110   3.350   4.997  0.3127  0.0054 -0.0822
29931SOL    HW293386   8.225   3.448   5.008  0.6030 -0.4137  0.7131
29932SOL     OW93387   1.983   2.573   0.661 -1.6414 -0.1924 -0.0570
29932SOL    HW193388   1.902   2.521   0.662 -1.6629 -0.1538  0.4366
29932SOL    HW293389   2.010   2.572   0.570 -1.2940 -1.6325  0.0237
29933SOL     OW93390   7.444  10.162   6.673  0.6719 -0.3282  0.0135
29933SOL    HW193391   7.524  10.173   6.621  0.1488 -0.7014 -0.9015
29933SOL    HW293392   7.388  10.235   6.647  2.0108  2.0653  3.2774
29934SOL     OW93393   5.715   6.125   0.925  0.0527  0.1428 -0.1072
29934SOL    HW193394   5.726   6.185   0.999  2.3333  1.1948 -1.1589
29934SOL    HW293395   5.635   6.155   0.881 -0.4320  0.5344  1.0159
29935SOL     OW93396   0.239  10.445   1.218 -0.2365 -0.3333 -0.3142
29935SOL    HW193397   0.325  10.412   1.193  0.1879 -0.3103  1.0245
29935SOL    HW293398   0.189  10.366   1.241  0.9875 -0.1765  3.5329
29936SOL     OW93399   2.795   9.399   9.674  0.2431 -0.3663  0.6690
29936SOL    HW193400   2.882   9.427   9.647  0.3337 -0.1647  1.1533
29936SOL    HW293401   2.746   9.481   9.686 -0.0524 -0.4834  0.2645
29937SOL     OW93402   9.773   5.841   7.338  0.0245  0.2281  0.4427
29937SOL    HW193403   9.711   5.862   7.268 -0.3503  1.4185  1.0969
29937SOL    HW293404   9.781   5.923   7.388  0.4567 -0.5290  1.6458
29938SOL     OW93405   1.018  10.724   8.926 -0.4390 -0.1171 -0.2120
29938SOL    HW193406   0.976  10.795   8.974 -0.1823 -0.8775  1.1982
29938SOL    HW293407   0.966  10.714   8.847 -3.4138 -1.4472  1.7431
29939SOL     OW93408   9.175   5.976   8.577 -0.1223  0.0799  0.0037
29939SOL    HW193409   9.246   6.017   8.625  0.7862 -0.9874 -0.3981
29939SOL    HW293410   9.107   5.959   8.643  0.2611  0.5015  0.5073
29940SOL     OW93411   0.038   2.093   9.007  1.3067  0.3662  0.2311
29940SOL    HW193412   0.122   2.066   9.044  1.3215  0.3165  0.1609
29940SOL    HW293413   0.037   2.056   8.919  1.1881  0.3211  0.2518
29941SOL     OW93414   3.416  10.812   5.850  0.1403 -0.2229  0.8296
29941SOL    HW193415   3.405  10.722   5.820  0.3398 -0.1463  0.5265
29941SOL    HW293416   3.365  10.816   5.931 -0.1887 -0.5009  0.6417
29942SOL     OW93417   5.667   1.655  10.382 -0.1221  0.2418 -0.0449
29942SOL    HW193418   5.739   1.683  10.439 -1.0566  1.8989  0.4033
29942SOL    HW293419   5.708   1.599  10.317  0.9890 -1.7919  2.2380
29943SOL     OW93420   2.676   2.935   8.703 -0.2893  0.2800  0.0717
29943SOL    HW193421   2.593   2.889   8.715 -0.9454  1.3228 -0.3226
29943SOL    HW293422   2.723   2.884   8.638 -0.5022 -0.4588  0.4793
29944SOL     OW93423   5.595   7.433   1.078 -0.0195  0.3401 -0.2250
29944SOL    HW193424   5.524   7.371   1.096 -0.1869  0.1023 -1.5880
29944SOL    HW293425   5.672   7.378   1.066  0.1611  0.5200  0.0836
29945SOL     OW93426  10.256   6.337   6.067  1.1174  0.1907  0.0621
29945SOL    HW193427  10.177   6.385   6.039  1.3045  0.4436 -0.0356
29945SOL    HW293428  10.229   6.246   6.065 -0.1149  0.3979  2.9822
29946SOL     OW93429   0.064   9.379  10.613  0.2139  0.2177 -0.0655
29946SOL    HW193430   0.046   9.287  10.597 -0.8245  0.5226 -0.7928
29946SOL    HW293431  -0.007   9.425  10.568 -0.2217  1.3083  1.6511
29947SOL     OW93432   7.661   4.265   6.139  0.5033  0.2136 -0.2037
29947SOL    HW193433   7.727   4.322   6.099  0.4091  0.3256 -0.1973
29947SOL    HW293434   7.583   4.319   6.147  0.6570  0.3451  0.5643
29948SOL     OW93435   8.663   8.302   8.892  0.2081  0.3172  0.2595
29948SOL    HW193436   8.673   8.361   8.966  1.2767 -0.5394  0.8226
29948SOL    HW293437   8.659   8.359   8.816  0.7459  1.1438  0.8394
29949SOL     OW93438   0.680   7.746   3.780  0.0277  0.1894 -0.1191
29949SOL    HW193439   0.697   7.840   3.787 -0.5114  0.2372  0.6474
29949SOL    HW293440   0.718   7.709   3.859  0.1789 -0.2346 -0.3862
29950SOL     OW93441   4.436   8.639   6.390  0.1862 -0.1375  0.1121
29950SOL    HW193442   4.458   8.619   6.481 -1.2311  0.7933  0.6956
29950SOL    HW293443   4.367   8.577   6.368  0.1296  0.0112 -0.1326
29951SOL     OW93444   2.185   3.680   5.897  0.1098 -0.6542 -0.0643
29951SOL    HW193445   2.101   3.662   5.941 -0.3936 -0.2337 -0.8232
29951SOL    HW293446   2.244   3.612   5.930 -0.6310 -1.1904  0.1967
29952SOL     OW93447   4.228   8.015   6.221 -0.4000  0.0001 -0.2980
29952SOL    HW193448   4.154   8.070   6.195 -0.0761 -0.3535 -2.0376
29952SOL    HW293449   4.288   8.074   6.266 -0.7320  0.7480 -0.8363
29953SOL     OW93450   3.169   2.715   8.306  0.2430  0.2274  0.6440
29953SOL    HW193451   3.238   2.760   8.258  0.6605 -0.7047  0.3489
29953SOL    HW293452   3.140   2.778   8.372 -0.0488  1.3638 -0.5499
29954SOL     OW93453  10.137   5.678   5.002 -0.0918 -0.3091 -0.3617
29954SOL    HW193454  10.221   5.719   4.980 -0.7241  1.2416 -0.0825
29954SOL    HW293455  10.112   5.720   5.085 -1.0263 -0.9096 -0.3295
29955SOL     OW93456   5.003   8.188   1.629 -0.5154  0.4792  0.2664
29955SOL    HW193457   4.947   8.239   1.688  1.1190  2.1933  0.4210
29955SOL    HW293458   5.076   8.247   1.609 -0.0978 -0.7091 -2.0267
29956SOL     OW93459   5.092   5.552   8.454  0.0565 -0.3274  0.2528
29956SOL    HW193460   5.150   5.476   8.456  1.8749  0.9758  0.0882
29956SOL    HW293461   5.035   5.538   8.379  1.5270 -0.7484 -0.8282
29957SOL     OW93462   4.199   6.511   7.863  0.2993 -0.1522 -0.3079
29957SOL    HW193463   4.259   6.488   7.933 -0.0056 -1.5154 -0.4819
29957SOL    HW293464   4.119   6.538   7.907  1.5282  3.5730  0.0287
29958SOL     OW93465   0.596   0.773   7.900 -0.1305  0.4049  0.3156
29958SOL    HW193466   0.557   0.854   7.933  0.4986  1.4337 -1.3501
29958SOL    HW293467   0.647   0.800   7.823  0.7332 -1.4618  0.1777
29959SOL     OW93468   0.228   6.413   9.509 -0.6815 -0.1478 -0.3249
29959SOL    HW193469   0.179   6.335   9.537 -2.3085  0.7393 -0.5688
29959SOL    HW293470   0.289   6.429   9.581 -1.5909 -0.5994  0.5838
29960SOL     OW93471   7.920   8.945   5.536 -0.2273 -0.2293  0.2128
29960SOL    HW193472   8.003   8.935   5.490 -1.0423  2.1025 -2.0168
29960SOL    HW293473   7.903   8.859   5.574  2.4091 -1.2049 -0.6033
29961SOL     OW93474   0.790   9.246   2.795 -0.4740 -0.0401 -0.2805
29961SOL    HW193475   0.833   9.212   2.873  0.4844  0.1983 -0.6974
29961SOL    HW293476   0.769   9.337   2.816 -0.4327 -0.0467 -0.2115
29962SOL     OW93477   6.469   8.631  10.948 -0.3725  0.1479 -0.1504
29962SOL    HW193478   6.379   8.612  10.923 -0.1402  0.5829 -1.4235
29962SOL    HW293479   6.507   8.672  10.870  0.9790 -0.1947  0.2991
29963SOL     OW93480   8.745   9.556  10.126  0.4159  0.5843 -0.2055
29963SOL    HW193481   8.659   9.586  10.096  1.2388  2.6577 -0.6163
29963SOL    HW293482   8.792   9.534  10.045  1.3073  2.4826 -0.2563
29964SOL     OW93483   2.244   7.558   5.893 -0.2072 -0.4247 -0.3121
29964SOL    HW193484   2.287   7.594   5.815 -0.4752 -0.1851 -0.3539
29964SOL    HW293485   2.192   7.631   5.927 -0.8006 -0.7819 -0.4253
29965SOL     OW93486   5.616   1.078   9.367  0.5606 -0.0886 -1.0239
29965SOL    HW193487   5.522   1.067   9.358  0.0877  0.6561  1.9111
29965SOL    HW293488   5.648   1.086   9.277 -1.8546 -2.3133 -2.2258
29966SOL     OW93489   1.064   0.326   9.982  0.2577 -0.4001 -0.6556
29966SOL    HW193490   1.054   0.345   9.889  1.7912  2.0268 -0.4139
29966SOL    HW293491   1.117   0.247   9.985 -0.5747 -1.0354 -1.8030
29967SOL     OW93492   6.786   7.775   5.248 -0.1533 -0.1529  0.0947
29967SOL    HW193493   6.796   7.692   5.296 -1.0075 -0.7367 -0.7145
29967SOL    HW293494   6.779   7.749   5.157 -2.5676  0.6424  0.0014
29968SOL     OW93495   5.742   8.602   7.971  0.1171  0.1635  0.3747
29968SOL    HW193496   5.761   8.666   8.039 -0.7415  0.1444  0.6485
29968SOL    HW293497   5.669   8.550   8.007  0.2475 -0.4184 -0.1883
29969SOL     OW93498  10.047   5.110   0.056 -0.0608 -0.3824 -0.4969
29969SOL    HW193499  10.049   5.206   0.047  0.8087 -0.5349 -2.4152
29969SOL    HW293500  10.049   5.078  -0.034  1.3140 -2.2192  0.1272
29970SOL     OW93501  10.001   5.416   7.209  0.4676  0.1012  0.0422
29970SOL    HW193502  10.002   5.375   7.295  0.5044 -1.9696 -0.8980
29970SOL    HW293503  10.063   5.489   7.217  0.4129  0.0068  1.7587
29971SOL     OW93504   3.578   9.077   4.081  0.6489  0.1656 -0.5150
29971SOL    HW193505   3.484   9.080   4.099  0.7992  1.0112  0.1990
29971SOL    HW293506   3.610   9.007   4.138  0.3016 -0.8565 -1.5503
29972SOL     OW93507   2.418   9.578   7.783 -0.0185 -0.2633  0.1690
29972SOL    HW193508   2.413   9.667   7.818  2.8251  0.0016  0.1613
29972SOL    HW293509   2.394   9.522   7.856 -2.2731  0.4666  0.0554
29973SOL     OW93510   5.081   5.734  11.003  0.1842 -0.0941 -0.0852
29973SOL    HW193511   5.066   5.828  11.011  1.2698  0.0067  0.9622
29973SOL    HW293512   5.038   5.695  11.080 -0.3898 -0.4895 -0.5898
29974SOL     OW93513   7.146   6.446   6.971 -0.6990  0.1837  0.4180
29974SOL    HW193514   7.212   6.423   6.905 -0.4129  1.0692  0.3703
29974SOL    HW293515   7.108   6.528   6.939  0.3013  1.3104  1.9222
29975SOL     OW93516   4.570   6.431   0.023  0.3951 -0.1173 -0.2240
29975SOL    HW193517   4.524   6.461  -0.055  1.1063  0.8372 -0.2883
29975SOL    HW293518   4.612   6.349  -0.004 -0.8263 -0.7485 -0.3041
29976SOL     OW93519   3.957   2.941   1.835  0.3117 -0.1655 -0.9259
29976SOL    HW193520   4.044   2.975   1.857 -0.0910 -0.0061  0.5467
29976SOL    HW293521   3.950   2.954   1.740  1.7978  0.0170 -1.0428
29977SOL     OW93522   7.045   5.615   9.619  0.6161 -0.0193 -0.3681
29977SOL    HW193523   6.990   5.551   9.573  0.3163  0.0085 -0.0552
29977SOL    HW293524   7.111   5.640   9.555 -0.2761  0.6231 -1.0651
29978SOL     OW93525   2.549   7.426   2.137  0.3125  0.4388 -0.9157
29978SOL    HW193526   2.495   7.487   2.188  0.5972 -0.5242  0.6047
29978SOL    HW293527   2.635   7.430   2.178  0.1878 -1.3884 -0.3959
29979SOL     OW93528   8.237   4.384   0.844 -0.4348 -0.3190 -0.3451
29979SOL    HW193529   8.192   4.424   0.769 -0.8654 -0.3238 -0.0887
29979SOL    HW293530   8.189   4.303   0.861  0.5596 -1.0683 -0.9936
29980SOL     OW93531   0.629  10.093  10.091  0.6571 -0.0927 -0.1189
29980SOL    HW193532   0.667  10.028  10.032  0.7902  0.3208 -0.4901
29980SOL    HW293533   0.591  10.159  10.033  1.6309  0.8124  0.2583
29981SOL     OW93534   0.170   6.129   1.303 -0.0609 -0.6912 -0.0059
29981SOL    HW193535   0.158   6.192   1.374 -0.4344 -0.1843 -0.5129
29981SOL    HW293536   0.101   6.064   1.316 -0.4573 -0.3138 -0.2027
29982SOL     OW93537   9.560   5.406   9.831  0.2341  0.1127  0.6198
29982SOL    HW193538   9.514   5.329   9.863  1.7284 -1.6191 -1.1288
29982SOL    HW293539   9.501   5.444   9.766 -0.4421  0.3888  1.3784
29983SOL     OW93540   7.187   7.835   2.446  0.3306 -0.1062 -0.5707
29983SOL    HW193541   7.136   7.840   2.365  1.3756  0.3699 -1.2226
29983SOL    HW293542   7.129   7.873   2.513 -0.1569  0.4584 -1.2928
29984SOL     OW93543   7.476   4.352   6.546 -0.4039 -0.5435 -0.4859
29984SOL    HW193544   7.530   4.384   6.474  1.0127 -0.1491  0.6961
29984SOL    HW293545   7.527   4.372   6.625 -1.8521 -1.0431  0.6280
29985SOL     OW93546   6.384   7.953   8.496 -0.4519 -0.4084  0.2117
29985SOL    HW193547   6.456   7.894   8.476 -1.0764 -1.5762  1.2335
29985SOL    HW293548   6.370   8.003   8.416 -0.5893 -2.4012 -1.0804
29986SOL     OW93549  10.221   6.430   2.757 -0.2287 -0.1431 -0.5533
29986SOL    HW193550  10.131   6.462   2.752  0.2556  1.1567 -1.2967
29986SOL    HW293551  10.254   6.435   2.667  0.3033 -1.5311 -0.4696
29987SOL     OW93552   6.307   5.768   1.595 -0.1843 -0.1195 -0.4188
29987SOL    HW193553   6.218   5.795   1.572  0.4145  0.9183 -1.6624
29987SOL    HW293554   6.355   5.851   1.601  0.9478 -0.7232 -0.8915
29988SOL     OW93555   8.602  10.361   5.677 -0.4755  0.1687 -0.4035
29988SOL    HW193556   8.565  10.340   5.591 -0.0506  1.2808 -0.8810
29988SOL    HW293557   8.530  10.347   5.738 -1.7059  2.1517 -1.2943
29989SOL     OW93558   1.168   9.532   3.285  0.2650  0.1133 -0.0113
29989SOL    HW193559   1.111   9.510   3.358  1.3872 -0.6712  0.6600
29989SOL    HW293560   1.224   9.456   3.274  0.9438  0.7121 -0.8872
29990SOL     OW93561   6.073   4.710   7.509 -0.1727  0.5293 -0.3628
29990SOL    HW193562   6.065   4.795   7.553  0.2134  0.9278 -1.0382
29990SOL    HW293563   6.146   4.667   7.554 -0.9257  0.1748  0.5632
29991SOL     OW93564   3.300   4.566   9.677  0.2629  0.4169 -0.4325
29991SOL    HW193565   3.282   4.488   9.729  2.4336 -1.6245 -2.5134
29991SOL    HW293566   3.214   4.605   9.662 -0.8657 -1.3641  0.9938
29992SOL     OW93567   3.194   0.228   4.783  0.2402  0.0443  0.0189
29992SOL    HW193568   3.128   0.271   4.727 -0.2946  1.3776  1.5916
29992SOL    HW293569   3.200   0.139   4.748 -2.5834 -0.2109 -0.0645
29993SOL     OW93570   6.383   1.484  10.930 -0.2851 -0.1566  0.1796
29993SOL    HW193571   6.467   1.521  10.904  0.4797 -0.6710  1.8023
29993SOL    HW293572   6.351   1.544  10.997 -1.7461  0.6132 -1.1397
29994SOL     OW93573   6.614  10.883   4.837 -0.2881 -0.4094 -0.0958
29994SOL    HW193574   6.667  10.805   4.821 -1.4386 -1.3098  0.4027
29994SOL    HW293575   6.601  10.885   4.932  0.0015  0.5899 -0.0564
29995SOL     OW93576   9.221   5.828   0.824  0.2450 -0.4655  0.3505
29995SOL    HW193577   9.256   5.861   0.907  0.1883  1.0847 -0.2038
29995SOL    HW293578   9.296   5.786   0.782  0.6414 -0.0010  0.5766
29996SOL     OW93579   1.299   3.591   6.827  0.1702 -0.4084 -0.6121
29996SOL    HW193580   1.388   3.595   6.863  0.5099 -1.1030 -1.3495
29996SOL    HW293581   1.273   3.500   6.838 -1.7840  0.3676  2.6474
29997SOL     OW93582  10.296   8.755   5.468 -0.2691 -0.1343 -0.1182
29997SOL    HW193583  10.389   8.735   5.479 -0.4245 -0.6781  0.2399
29997SOL    HW293584  10.290   8.791   5.379  0.2647 -0.2043 -0.1856
29998SOL     OW93585   3.629   7.319   4.812 -0.5246  0.4385 -0.7283
29998SOL    HW193586   3.702   7.371   4.779 -0.7790  0.7637 -0.7787
29998SOL    HW293587   3.634   7.328   4.907 -0.5537  0.5288 -0.7362
29999SOL     OW93588   4.684  10.613   7.307 -0.2403  0.2743  0.2838
29999SOL    HW193589   4.772  10.596   7.339 -0.4976 -0.4321  0.6489
29999SOL    HW293590   4.670  10.547   7.239 -0.7302 -0.0539  0.6982
30000SOL     OW93591  10.961   3.968   9.372 -0.1231 -0.1367 -0.2696
30000SOL    HW193592  10.991   3.914   9.445  1.1891  1.1196  0.1618
30000SOL    HW293593  10.878   3.927   9.345  0.2688 -1.6916  0.7296
30001SOL     OW93594  10.049   9.513   5.016 -0.0443 -0.5804  0.1645
30001SOL    HW193595  10.073   9.483   4.928 -0.6635 -0.9228  0.1124
30001SOL    HW293596   9.996   9.443   5.052 -0.9826  0.1716  0.2802
30002SOL     OW93597   2.793   6.575   3.908  1.1596 -0.2641 -0.5598
30002SOL    HW193598   2.736   6.649   3.886  1.0096 -0.6627 -1.5740
30002SOL    HW293599   2.877   6.615   3.927  0.5207  0.3468  1.1362
30003SOL     OW93600  10.791   4.663   9.273 -0.5572 -0.1161 -0.4545
30003SOL    HW193601  10.764   4.658   9.364  2.3157  0.5228  0.5216
30003SOL    HW293602  10.778   4.755   9.249 -0.1603 -0.0161 -0.2893
30004SOL     OW93603   4.549   7.187   5.181  0.0503 -0.5127  0.0205
30004SOL    HW193604   4.476   7.230   5.225  0.8043  0.5808  0.2470
30004SOL    HW293605   4.575   7.117   5.241 -0.2505 -0.3422  0.3536
30005SOL     OW93606   7.588   2.179   7.904  0.3696 -0.2537  0.7007
30005SOL    HW193607   7.633   2.189   7.988  0.6470 -1.1928  0.6829
30005SOL    HW293608   7.514   2.122   7.923 -2.2256  2.9999  1.1842
30006SOL     OW93609   1.750   4.418   0.045  0.1055 -0.1703 -0.1591
30006SOL    HW193610   1.754   4.335  -0.002  0.6206 -1.8237  2.5476
30006SOL    HW293611   1.657   4.428   0.069  0.2156 -0.6372  0.5153
30007SOL     OW93612   6.455   1.883   4.776 -0.0841 -0.2437  0.1207
30007SOL    HW193613   6.448   1.968   4.819 -0.8767 -0.5320  0.5713
30007SOL    HW293614   6.476   1.822   4.847 -0.0308 -0.5085 -0.1218
30008SOL     OW93615   5.409   3.914   0.572  0.1203 -0.7109 -0.8171
30008SOL    HW193616   5.344   3.854   0.609  0.0355 -1.0740 -1.5464
30008SOL    HW293617   5.477   3.856   0.537  0.8107 -0.3391 -0.1335
30009SOL     OW93618   3.233   2.691   8.901 -0.1235 -0.0275  0.7667
30009SOL    HW193619   3.140   2.705   8.914  0.1923  2.3781  0.8867
30009SOL    HW293620   3.239   2.610   8.851 -2.2583 -0.1777  0.6952
30010SOL     OW93621   0.328   4.364   3.836 -0.4435  0.2426  0.9949
30010SOL    HW193622   0.235   4.344   3.827 -0.0246 -1.1360 -0.8878
30010SOL    HW293623   0.337   4.452   3.798 -0.7985 -0.1863 -0.1320
30011SOL     OW93624   7.873   1.051   2.082 -0.0139 -0.2436 -0.0820
30011SOL    HW193625   7.809   0.981   2.094  0.6222 -0.4220  3.3160
30011SOL    HW293626   7.821   1.131   2.075 -0.6864 -0.8215 -2.0385
30012SOL     OW93627   6.960   6.637   2.774  0.1525 -1.1870 -0.5398
30012SOL    HW193628   7.004   6.700   2.832  0.0107 -0.0132 -1.6607
30012SOL    HW293629   7.002   6.650   2.689  0.9459 -3.4739 -0.5718
30013SOL     OW93630   9.306   9.418   8.045  0.4222 -0.5766  0.3500
30013SOL    HW193631   9.236   9.361   8.014  0.4448 -0.2686 -0.2666
30013SOL    HW293632   9.301   9.412   8.141  1.4681 -2.9425  0.3485
30014SOL     OW93633   2.255   0.603  10.826  0.0535 -0.5790 -0.1266
30014SOL    HW193634   2.336   0.583  10.872 -0.0687 -0.2992  0.2104
30014SOL    HW293635   2.200   0.525  10.839  0.1003 -0.5870  0.0163
30015SOL     OW93636   9.217   5.413  11.017 -0.3093  0.0394  0.2901
30015SOL    HW193637   9.247   5.388  11.104 -0.4899  0.4094  0.4578
30015SOL    HW293638   9.296   5.409  10.963 -0.3641 -1.0842  0.2616
30016SOL     OW93639   5.074   6.342   7.635  0.3141 -0.5245 -0.0257
30016SOL    HW193640   5.116   6.257   7.645 -0.0465 -0.8257 -1.0051
30016SOL    HW293641   5.138   6.405   7.668  1.3960 -0.9994 -1.1790
30017SOL     OW93642   5.479   8.224   0.953 -0.5724  0.7824  0.3927
30017SOL    HW193643   5.564   8.204   0.992 -1.0364 -0.7915  0.6461
30017SOL    HW293644   5.498   8.240   0.861 -0.0236  0.3069  0.4179
30018SOL     OW93645   5.338   8.659   4.689 -0.5183 -0.3124 -0.6188
30018SOL    HW193646   5.324   8.573   4.650 -0.0746 -1.1385  0.9639
30018SOL    HW293647   5.426   8.685   4.661 -0.5031 -0.5380 -0.7803
30019SOL     OW93648   5.750   2.963   1.833  0.3919 -0.3923  0.0386
30019SOL    HW193649   5.792   2.882   1.863 -1.1535 -1.6616 -1.0021
30019SOL    HW293650   5.657   2.950   1.854  0.2302  1.4944  0.5994
30020SOL     OW93651   4.869   4.262   1.976  0.3283 -0.1213 -0.1689
30020SOL    HW193652   4.880   4.335   1.915  1.3248  2.2936  2.6684
30020SOL    HW293653   4.777   4.237   1.966  0.0866  1.1629 -1.5732
30021SOL     OW93654   1.239   2.714   1.373 -0.3657  0.6382 -0.0638
30021SOL    HW193655   1.151   2.729   1.338  0.2047  0.4334 -1.6361
30021SOL    HW293656   1.294   2.703   1.296  0.6938 -1.3134  0.9137
30022SOL     OW93657   6.401   0.139   1.613  0.1218  0.4546 -0.5217
30022SOL    HW193658   6.434   0.142   1.702  1.6764 -0.2178 -1.0374
30022SOL    HW293659   6.453   0.205   1.566  1.5391 -1.2794 -1.5576
30023SOL     OW93660   7.322   0.953   7.390 -0.3036 -0.1514  0.2734
30023SOL    HW193661   7.416   0.966   7.401 -0.3542  0.1391  0.3662
30023SOL    HW293662   7.282   1.033   7.424 -0.5026  0.4689 -1.3326
30024SOL     OW93663   0.203  10.691   2.106  0.3599 -0.0385  0.5622
30024SOL    HW193664   0.268  10.621   2.107  0.6901  0.2487  0.0241
30024SOL    HW293665   0.244  10.762   2.156 -0.7977 -0.9115  2.8810
30025SOL     OW93666   6.876   6.095   3.846 -0.1151  0.6232 -0.1498
30025SOL    HW193667   6.948   6.052   3.891  1.0538  0.5601 -1.9607
30025SOL    HW293668   6.848   6.031   3.780  0.0567  1.6933 -1.3017
30026SOL     OW93669   6.023   7.503   8.628  0.5326 -0.1828 -0.5072
30026SOL    HW193670   6.029   7.409   8.612 -0.0464 -1.3408  4.3333
30026SOL    HW293671   6.108   7.526   8.666  0.3752  1.0485 -0.8787
30027SOL     OW93672   3.902  10.335   4.621  0.6370 -0.3045 -0.2655
30027SOL    HW193673   3.943  10.271   4.563 -0.2428  0.0382 -1.3092
30027SOL    HW293674   3.833  10.287   4.666  1.0446 -0.4696  0.1889
30028SOL     OW93675   4.983   5.606   0.105  0.2496 -0.4526 -0.5800
30028SOL    HW193676   5.073   5.574   0.098  0.2529 -0.5082 -0.2864
30028SOL    HW293677   4.940   5.544   0.164  0.3684  0.3169  0.3562
30029SOL     OW93678   6.242   1.182   1.653 -0.2531  0.7931 -0.5988
30029SOL    HW193679   6.241   1.193   1.748 -0.0353 -0.0002 -0.4973
30029SOL    HW293680   6.184   1.250   1.620 -1.6046  0.0601  0.2065
30030SOL     OW93681   6.865   8.398   3.946  0.0473  0.4810  0.4324
30030SOL    HW193682   6.931   8.387   4.014  1.1543  0.4830 -0.5957
30030SOL    HW293683   6.887   8.481   3.903 -0.0828  0.0640 -0.4843
30031SOL     OW93684   8.713  10.781   7.241 -0.1113 -0.5068  0.2379
30031SOL    HW193685   8.689  10.790   7.148  1.7814  0.4121 -0.2081
30031SOL    HW293686   8.710  10.870   7.275 -0.5928 -0.8171  1.0185
30032SOL     OW93687   9.476  10.917   2.172 -0.2009 -0.3969  0.3203
30032SOL    HW193688   9.504  10.831   2.140  1.7397  0.0715  0.6272
30032SOL    HW293689   9.455  10.902   2.264  0.5078 -0.4694  0.4716
30033SOL     OW93690   7.095   7.474  10.072 -1.1313 -0.0892  0.0796
30033SOL    HW193691   7.069   7.558  10.034 -2.8801 -1.1164 -1.1164
30033SOL    HW293692   7.180   7.455  10.031 -0.9102  0.8663  0.0479
30034SOL     OW93693   4.228   8.215   2.963  0.0092  0.1140 -0.5158
30034SOL    HW193694   4.249   8.293   3.015 -0.1064 -1.1592  1.5783
30034SOL    HW293695   4.133   8.213   2.959  0.0071 -0.0053 -0.4189
30035SOL     OW93696   8.694   8.051   2.880 -0.0739  0.7143  0.7014
30035SOL    HW193697   8.663   8.021   2.795 -1.3809  2.6664  0.4102
30035SOL    HW293698   8.787   8.028   2.882  0.2412  1.5266 -1.7233
30036SOL     OW93699   9.337   9.030  10.396  0.1280 -0.4256 -0.0053
30036SOL    HW193700   9.394   9.057  10.468 -0.2250 -3.4801  1.5871
30036SOL    HW293701   9.397   9.012  10.323  0.7043  0.7018  0.1677
30037SOL     OW93702   9.031   8.228   0.549 -0.4710 -0.4142 -0.1465
30037SOL    HW193703   9.083   8.200   0.474 -1.2178 -1.2882 -0.3484
30037SOL    HW293704   8.996   8.313   0.524  0.1403 -0.2220 -0.3566
30038SOL     OW93705   5.546   1.341  11.032 -0.1088  0.0819 -0.0845
30038SOL    HW193706   5.638   1.358  11.011 -0.1270  0.0118 -0.2287
30038SOL    HW293707   5.506   1.323  10.946 -0.0542 -0.8560  0.0693
30039SOL     OW93708   6.108   3.526   6.700  0.3268  0.0170  0.0898
30039SOL    HW193709   6.042   3.595   6.695  0.6750  0.3363 -0.2319
30039SOL    HW293710   6.167   3.545   6.626 -0.0752 -1.1451 -0.5476
30040SOL     OW93711   0.712  10.453   7.576  0.0146 -0.0404  0.0004
30040SOL    HW193712   0.647  10.449   7.647 -0.2046 -0.3407 -0.2161
30040SOL    HW293713   0.782  10.396   7.605  0.3230  0.5159  0.3715
30041SOL     OW93714   3.588   2.042   7.075 -0.1852  0.2718 -0.2157
30041SOL    HW193715   3.682   2.037   7.064 -0.0974  0.2514  0.4760
30041SOL    HW293716   3.570   1.990   7.154 -0.7849  0.1826 -0.4016
30042SOL     OW93717   4.948   6.132   9.832 -0.5360 -0.1531 -0.0055
30042SOL    HW193718   4.990   6.078   9.898  1.3352  1.7165  0.4326
30042SOL    HW293719   4.995   6.111   9.751 -1.0152 -0.4850 -0.1992
30043SOL     OW93720   0.882   6.542   0.678  0.2661 -0.4159  0.2699
30043SOL    HW193721   0.827   6.595   0.620  0.1124 -1.2595 -0.3751
30043SOL    HW293722   0.846   6.556   0.765 -1.6334 -1.7351 -0.2583
30044SOL     OW93723   2.661  10.609   8.045 -1.1387  0.0614 -0.2312
30044SOL    HW193724   2.694  10.691   8.083 -0.0816  0.6675 -2.2783
30044SOL    HW293725   2.688  10.541   8.107  1.6108  0.8432 -0.4205
30045SOL     OW93726   2.922   3.786   2.887  0.1017  0.0506  0.2136
30045SOL    HW193727   2.872   3.705   2.879  0.2250  0.0645 -0.9394
30045SOL    HW293728   2.855   3.855   2.885 -0.0808 -0.0318  2.1714
30046SOL     OW93729   1.905   8.553   8.075 -0.6798  0.1783  0.0407
30046SOL    HW193730   1.874   8.591   7.993 -1.4047 -0.0865  0.1872
30046SOL    HW293731   1.896   8.623   8.140  2.0449  1.1586 -0.5213
30047SOL     OW93732   1.469   0.722   5.404  0.1421  1.0728  0.4340
30047SOL    HW193733   1.375   0.709   5.387  0.3483  0.2200 -0.1055
30047SOL    HW293734   1.513   0.689   5.326  0.9151  1.0380  0.8708
30048SOL     OW93735   3.772   3.751   9.387  0.8453 -0.4733 -0.6222
30048SOL    HW193736   3.741   3.729   9.299  0.3419 -1.1322 -0.2888
30048SOL    HW293737   3.862   3.719   9.390 -0.1986 -3.7620  0.2420
30049SOL     OW93738   8.527  10.886   8.576 -0.3399  0.0852  0.0072
30049SOL    HW193739   8.443  10.878   8.531  0.3790  0.1981 -1.3858
30049SOL    HW293740   8.542  10.980   8.583 -0.2245  0.0639  0.0553
30050SOL     OW93741   2.250   3.118   4.767 -0.0415  0.7487 -0.2138
30050SOL    HW193742   2.340   3.149   4.769  0.0504  0.4628  0.1515
30050SOL    HW293743   2.230   3.107   4.673  0.1309  1.2954 -0.3164
30051SOL     OW93744   2.686   7.908   1.801 -0.5648 -0.3913 -0.1863
30051SOL    HW193745   2.699   7.998   1.769  1.5293 -0.9563 -1.0589
30051SOL    HW293746   2.593   7.904   1.823 -0.8995  1.7141 -0.9997
30052SOL     OW93747   4.870   9.586   1.691  0.0513 -0.2105 -0.0389
30052SOL    HW193748   4.899   9.649   1.756  0.1120  0.2484 -0.5055
30052SOL    HW293749   4.812   9.527   1.739 -0.5542  0.6078  0.2541
30053SOL     OW93750   0.797   4.334   0.602  0.2903 -0.1468  0.1245
30053SOL    HW193751   0.801   4.258   0.660  0.4385  0.4369  0.8981
30053SOL    HW293752   0.888   4.362   0.592  0.1750  0.3541  0.4282
30054SOL     OW93753   3.546   6.222   7.830 -0.0609  0.1107 -0.0397
30054SOL    HW193754   3.547   6.304   7.781  3.0316 -0.6423 -1.4449
30054SOL    HW293755   3.622   6.227   7.889 -0.3116 -1.3957  0.4691
30055SOL     OW93756   0.391   7.659   6.300  0.3826 -0.4463  0.0558
30055SOL    HW193757   0.311   7.671   6.248  2.2094 -0.0077 -2.8949
30055SOL    HW293758   0.420   7.748   6.318  1.3820 -0.5537 -0.9303
30056SOL     OW93759   0.570   6.516   8.375  0.2620  0.1702 -0.1253
30056SOL    HW193760   0.638   6.582   8.363 -0.6516  1.0308 -0.7668
30056SOL    HW293761   0.565   6.503   8.470  2.6276 -1.3690 -0.1221
30057SOL     OW93762   1.619  10.170   0.444 -0.3505  0.4361  0.1154
30057SOL    HW193763   1.616  10.127   0.358  2.0780  1.0819 -0.3934
30057SOL    HW293764   1.536  10.215   0.452 -1.3585 -1.0962 -1.0904
30058SOL     OW93765  10.733   8.625   4.985  0.0682 -0.0472 -0.3174
30058SOL    HW193766  10.691   8.685   5.047 -0.0215  0.1568 -0.5769
30058SOL    HW293767  10.827   8.642   4.995  0.2461 -1.6565  1.4692
30059SOL     OW93768   1.697   7.775   0.719 -0.7152  0.2374 -0.2055
30059SOL    HW193769   1.636   7.794   0.790 -1.2490  2.0350 -1.0731
30059SOL    HW293770   1.777   7.823   0.741 -0.6230  0.2053 -0.4568
30060SOL     OW93771   5.268   4.983   3.811 -0.3777 -0.2671 -0.2970
30060SOL    HW193772   5.174   4.968   3.798 -0.6768  0.6948  0.6322
30060SOL    HW293773   5.308   4.955   3.729 -1.4436 -0.9505 -0.6068
30061SOL     OW93774   4.826   0.655   2.728  0.4649 -0.9306 -0.2103
30061SOL    HW193775   4.906   0.628   2.773  0.2168 -1.1423  0.1083
30061SOL    HW293776   4.839   0.628   2.637  0.8542 -0.7460 -0.2116
30062SOL     OW93777   8.686  10.002   1.261 -0.7203  0.5552 -0.5907
30062SOL    HW193778   8.671   9.936   1.194  1.0807 -0.4125 -0.1018
30062SOL    HW293779   8.750  10.061   1.222  2.1272 -1.2870  0.9635
30063SOL     OW93780   6.408   9.592  10.260  0.4118 -0.4128 -0.1015
30063SOL    HW193781   6.363   9.530  10.202  0.5584  0.3703 -1.0949
30063SOL    HW293782   6.345   9.663  10.273 -0.2491 -1.3331  2.0936
30064SOL     OW93783   9.045   8.443   4.503  0.3293 -0.0765  0.4574
30064SOL    HW193784   9.066   8.379   4.435 -1.3732  0.0278 -0.2107
30064SOL    HW293785   9.130   8.475   4.532  1.1310  0.2973 -2.0335
30065SOL     OW93786   8.875   6.606   4.477 -0.2230  0.2430  0.1525
30065SOL    HW193787   8.789   6.627   4.511  0.5171  1.3614  1.4402
30065SOL    HW293788   8.878   6.510   4.476 -0.9760  0.1851  1.4372
30066SOL     OW93789   2.206  10.522   0.930  0.6147  0.5203  0.4743
30066SOL    HW193790   2.205  10.427   0.921  1.3301  0.6181 -1.0008
30066SOL    HW293791   2.226  10.554   0.842  0.5361  2.0312  0.9768
30067SOL     OW93792   7.430   8.249   2.550 -0.0168  0.2042 -0.8602
30067SOL    HW193793   7.418   8.156   2.570  0.5775  0.2077 -0.4478
30067SOL    HW293794   7.358   8.293   2.595  1.0792  0.1685  0.9939
30068SOL     OW93795   9.846   7.442   4.369  0.4171  0.3698 -0.2068
30068SOL    HW193796   9.828   7.524   4.322 -1.8938 -0.9027 -1.7477
30068SOL    HW293797   9.826   7.373   4.306 -0.9549 -1.4300  2.0434
30069SOL     OW93798   9.432   9.330   2.128 -0.3848 -0.2213  0.5118
30069SOL    HW193799   9.351   9.353   2.173 -0.8462  0.4840 -0.6474
30069SOL    HW293800   9.406   9.317   2.037  0.9723  1.2341 -0.1376
30070SOL     OW93801   9.585  10.332   1.491 -0.0417 -0.2475 -0.2328
30070SOL    HW193802   9.541  10.251   1.515 -0.7811 -0.5395 -2.3812
30070SOL    HW293803   9.518  10.386   1.450  0.7943  0.8183 -0.2610
30071SOL     OW93804   0.176   1.832  10.456 -0.3936  0.0063  0.6300
30071SOL    HW193805   0.107   1.767  10.466 -1.1946  0.7139 -0.1085
30071SOL    HW293806   0.258   1.782  10.462 -0.9890 -1.1533 -0.4828
30072SOL     OW93807   4.085   3.331   1.105  0.4314  0.0195  0.6410
30072SOL    HW193808   4.120   3.242   1.105 -0.2886 -0.2635  0.3249
30072SOL    HW293809   4.151   3.382   1.059  1.4891 -0.0857  1.9637
30073SOL     OW93810   4.868   0.633   7.757 -0.2316  0.0583  0.6193
30073SOL    HW193811   4.842   0.547   7.724  0.1449  0.8598 -1.9211
30073SOL    HW293812   4.825   0.640   7.842  1.1694 -3.3659  1.7875
30074SOL     OW93813   8.269   9.190   6.191 -0.2772  0.4727 -0.5697
30074SOL    HW193814   8.312   9.185   6.276  0.3913  0.9645 -0.8772
30074SOL    HW293815   8.223   9.106   6.183  1.5789 -0.5884 -0.7418
30075SOL     OW93816   4.532   3.418   9.314 -0.0358  0.2060  0.2495
30075SOL    HW193817   4.460   3.466   9.355 -0.4137 -0.7377  0.7326
30075SOL    HW293818   4.605   3.427   9.375  0.0433  0.5790  0.1000
30076SOL     OW93819  10.954  10.624   5.384  0.0779  0.1473 -0.2105
30076SOL    HW193820  11.039  10.592   5.354  0.3882 -0.0084  0.7741
30076SOL    HW293821  10.930  10.564   5.455 -0.8049  0.2513 -0.4133
30077SOL     OW93822   1.265   3.778   9.969 -0.4553 -0.0689 -0.2376
30077SOL    HW193823   1.352   3.748   9.942 -0.4061 -0.9681  0.8556
30077SOL    HW293824   1.234   3.711  10.029 -1.9947  0.1606 -0.7367
30078SOL     OW93825   7.601   4.745   9.018  0.1051 -0.0278  0.4443
30078SOL    HW193826   7.659   4.811   9.055  0.6321 -0.0732 -0.2717
30078SOL    HW293827   7.637   4.661   9.048 -0.0374 -0.0245  0.6232
30079SOL     OW93828   5.401   5.578   8.696 -0.3237  0.0905  0.5758
30079SOL    HW193829   5.461   5.526   8.644 -0.1454  0.6017  0.2579
30079SOL    HW293830   5.445   5.589   8.781 -1.1095 -1.6966  1.2567
30080SOL     OW93831   2.535   7.821   1.524  0.4230 -0.3130 -0.1498
30080SOL    HW193832   2.597   7.781   1.464 -0.6492 -2.7220  0.2198
30080SOL    HW293833   2.452   7.820   1.476  0.2360  0.9383  0.1253
30081SOL     OW93834   3.569  10.181   1.221  0.6883 -0.3112 -0.2784
30081SOL    HW193835   3.560  10.088   1.200  1.2419 -0.6654  0.9725
30081SOL    HW293836   3.595  10.221   1.138 -0.3342 -1.1303 -1.0346
30082SOL     OW93837   5.306   7.662   3.995  0.1376  0.1794  0.0388
30082SOL    HW193838   5.390   7.678   3.951  0.8265  0.0939  1.2523
30082SOL    HW293839   5.240   7.686   3.931  1.1085  1.7075 -0.4582
30083SOL     OW93840   8.104   7.497   8.150  0.0079 -0.7548  0.3193
30083SOL    HW193841   8.170   7.532   8.091 -0.0758 -0.7542  0.2242
30083SOL    HW293842   8.043   7.450   8.092  0.8717 -2.2653  0.5723
30084SOL     OW93843   1.583   8.868   0.292 -0.8238  0.3362  0.2614
30084SOL    HW193844   1.498   8.855   0.251 -0.5046 -3.1940  0.3779
30084SOL    HW293845   1.576   8.825   0.377  0.5786  1.5242  1.0301
30085SOL     OW93846   4.759   4.701   3.200 -0.3439  0.4681  0.1309
30085SOL    HW193847   4.727   4.788   3.178 -0.7823  0.1649 -0.4738
30085SOL    HW293848   4.788   4.664   3.117 -2.2897 -0.8087 -0.0480
30086SOL     OW93849   6.066   0.782   9.811 -0.6923 -0.0806 -0.7665
30086SOL    HW193850   5.972   0.774   9.830 -0.0575  0.6675  4.1106
30086SOL    HW293851   6.108   0.723   9.874  2.1658  1.7763 -0.7530
30087SOL     OW93852   1.687  10.722   2.987 -0.4743  0.1309  0.1466
30087SOL    HW193853   1.720  10.736   2.898 -1.9431 -0.7364 -0.5630
30087SOL    HW293854   1.638  10.802   3.007 -2.5523 -0.8022 -0.9763
30088SOL     OW93855   9.598   0.693   6.889 -0.3328  0.1912  0.4194
30088SOL    HW193856   9.630   0.779   6.915 -1.3924  0.9597 -0.7257
30088SOL    HW293857   9.633   0.633   6.956  1.7299  1.2608  0.3632
30089SOL     OW93858   3.154   3.001   4.094  0.4589 -0.1045  0.4874
30089SOL    HW193859   3.244   3.029   4.108  0.1713  1.1729 -0.1008
30089SOL    HW293860   3.133   3.030   4.005 -0.6517 -0.0211  0.7616
30090SOL     OW93861  10.186   2.836   2.586 -0.2298 -0.5255  0.0061
30090SOL    HW193862  10.125   2.834   2.513  0.7704 -0.0674 -0.8641
30090SOL    HW293863  10.251   2.768   2.566 -0.0539 -0.5315  0.5634
30091SOL     OW93864   6.770   7.452   7.661  0.2092  0.5122 -0.1632
30091SOL    HW193865   6.678   7.460   7.635 -0.2025  0.8826  1.3185
30091SOL    HW293866   6.767   7.399   7.741  1.1925  1.3000  0.4111
30092SOL     OW93867   1.851   6.011   9.351 -0.4033  0.0955  0.1380
30092SOL    HW193868   1.771   6.037   9.305 -1.8566 -2.0570  1.2598
30092SOL    HW293869   1.835   5.920   9.377  1.7744  0.1163  1.8129
30093SOL     OW93870   5.989   3.064  10.167  0.2504  0.0384  0.2685
30093SOL    HW193871   6.039   2.991  10.130 -3.0376 -2.7506  0.7792
30093SOL    HW293872   6.017   3.140  10.116  3.6519 -1.5556 -0.5306
30094SOL     OW93873   4.419   4.611   3.078 -0.1797 -0.2604  0.2331
30094SOL    HW193874   4.443   4.523   3.108 -0.4755 -0.8908 -1.2545
30094SOL    HW293875   4.451   4.670   3.146 -0.1313 -1.5330  1.3443
30095SOL     OW93876   3.166   5.127  10.938 -0.5027 -0.0105 -0.4610
30095SOL    HW193877   3.168   5.203  10.879 -0.2535  0.2567 -0.1155
30095SOL    HW293878   3.114   5.062  10.891  0.7884 -0.2933 -1.5707
30096SOL     OW93879   4.758   5.001   0.259 -0.2594  0.0677  0.2157
30096SOL    HW193880   4.782   4.919   0.303  0.5572  0.4239  0.4524
30096SOL    HW293881   4.664   4.992   0.242 -0.2229 -0.8345  0.4115
30097SOL     OW93882   9.300   5.988   6.126 -0.8130 -0.0499 -0.3932
30097SOL    HW193883   9.295   5.933   6.204 -0.7204  0.4593 -0.0240
30097SOL    HW293884   9.262   5.934   6.056 -0.4918 -0.6713 -0.0946
30098SOL     OW93885   2.454   1.542   9.311 -0.1405 -0.3536  0.0812
30098SOL    HW193886   2.524   1.485   9.279  1.0436  1.1756 -0.1979
30098SOL    HW293887   2.400   1.486   9.367  0.6062 -1.8681 -0.6705
30099SOL     OW93888   3.666   3.415   0.503  0.2582 -0.1994  0.6273
30099SOL    HW193889   3.653   3.494   0.449  2.1209 -0.2398  0.0728
30099SOL    HW293890   3.609   3.350   0.463 -2.6735  1.2400  2.1110
30100SOL     OW93891   6.531   9.354   1.702  0.4943 -0.3058  0.1921
30100SOL    HW193892   6.619   9.378   1.730  0.7479 -0.8350 -0.1416
30100SOL    HW293893   6.540   9.331   1.610 -0.1060  0.2228 -0.0074
30101SOL     OW93894   8.381   9.925   4.251  0.2162  0.0162 -0.5413
30101SOL    HW193895   8.355   9.839   4.218 -0.1749 -0.0566 -0.0467
30101SOL    HW293896   8.351   9.987   4.184  1.8928 -0.3297 -1.6980
30102SOL     OW93897   5.275   3.477   1.120  0.6686  0.2467  0.4885
30102SOL    HW193898   5.240   3.558   1.158 -0.2155 -0.5121  1.3681
30102SOL    HW293899   5.368   3.494   1.108  0.2468  1.9308 -0.8137
30103SOL     OW93900  10.252   7.922  10.279  0.9091  0.3380  0.1716
30103SOL    HW193901  10.246   7.936  10.373  0.3814 -1.8859  0.5322
30103SOL    HW293902  10.197   7.845  10.262  2.9823 -0.9146 -1.5232
30104SOL     OW93903   0.845   6.499   9.036 -0.5550  0.1819  0.7911
30104SOL    HW193904   0.833   6.407   9.011 -1.3114  0.5862 -0.4014
30104SOL    HW293905   0.930   6.523   8.999 -1.1509  0.4489 -0.4470
30105SOL     OW93906   3.487   9.050   9.513  0.2699 -0.2011 -0.1169
30105SOL    HW193907   3.577   9.020   9.499  0.8703  2.1872 -1.9566
30105SOL    HW293908   3.442   9.030   9.431 -1.2144 -2.1761  1.0828
30106SOL     OW93909   6.125   1.991   3.290 -0.2408  0.6521  0.0574
30106SOL    HW193910   6.094   1.987   3.200  1.1105  1.3182 -0.4680
30106SOL    HW293911   6.110   1.903   3.325 -1.5882  0.6324 -0.5156
30107SOL     OW93912   6.273   6.821   3.077 -0.2389 -0.7887 -1.2119
30107SOL    HW193913   6.337   6.774   3.025 -1.9864 -3.5183 -1.0905
30107SOL    HW293914   6.218   6.866   3.013  2.0064  2.2030 -1.3039
30108SOL     OW93915   8.554   6.628   4.461  0.1283  0.4149 -0.7633
30108SOL    HW193916   8.465   6.595   4.469  0.7324 -0.9711  0.8637
30108SOL    HW293917   8.595   6.571   4.396  0.5009 -0.5810  0.3136
30109SOL     OW93918   5.838   7.064   1.877 -0.3609 -0.1911  0.2543
30109SOL    HW193919   5.852   7.135   1.940  0.9377 -0.2616  0.0614
30109SOL    HW293920   5.744   7.069   1.857 -0.3284  1.3612  0.3633
30110SOL     OW93921   4.819   2.175   9.657  0.4004  0.0822  0.2331
30110SOL    HW193922   4.911   2.194   9.643 -0.0061  2.1805  0.0280
30110SOL    HW293923   4.809   2.173   9.753  0.6519 -0.0458  0.2560
30111SOL     OW93924   8.738   6.384   1.727  0.0209  0.5503 -0.7523
30111SOL    HW193925   8.797   6.457   1.744  0.3935 -0.0007  0.4810
30111SOL    HW293926   8.698   6.365   1.812  1.4925 -1.9920 -0.5221
30112SOL     OW93927  10.124   4.407   2.768  0.0023 -0.1518  0.1122
30112SOL    HW193928  10.177   4.368   2.837 -0.4083 -0.6863  0.1298
30112SOL    HW293929  10.188   4.436   2.702  0.4083  0.5274  0.7834
30113SOL     OW93930   9.867   1.758   4.384  0.9819 -1.0069  0.5522
30113SOL    HW193931   9.776   1.740   4.404  0.6021 -1.1375 -1.1448
30113SOL    HW293932   9.890   1.833   4.440 -0.9119  0.6340 -0.7076
30114SOL     OW93933   8.329   4.204   0.231  0.5657 -0.0399  0.4076
30114SOL    HW193934   8.365   4.227   0.145 -0.3409  0.3865  0.1231
30114SOL    HW293935   8.262   4.270   0.247  0.4155 -0.3833  1.2461
30115SOL     OW93936   9.949   9.259  10.166  0.0956 -0.1683 -0.0764
30115SOL    HW193937   9.898   9.270  10.247  2.1999 -0.2573  1.3394
30115SOL    HW293938   9.932   9.169  10.139 -0.4781 -0.1980  0.3451
30116SOL     OW93939   1.638   6.075   3.812 -0.5793  0.1633 -0.4316
30116SOL    HW193940   1.702   6.102   3.878 -1.0598  0.5631 -0.1252
30116SOL    HW293941   1.626   6.153   3.757 -0.1760 -0.1681 -1.0078
30117SOL     OW93942   7.943   8.791   0.729  0.2626 -0.6264  0.1667
30117SOL    HW193943   7.967   8.719   0.787  3.2436 -1.1133 -1.4694
30117SOL    HW293944   7.928   8.865   0.788 -0.3661 -1.9510  1.7318
30118SOL     OW93945   5.652   1.238   7.280  0.2701  0.5858 -0.0856
30118SOL    HW193946   5.592   1.289   7.226 -0.0362  0.2126 -0.0966
30118SOL    HW293947   5.607   1.156   7.296  0.3874  0.6723  0.6976
30119SOL     OW93948   5.211   3.455   8.271 -0.6767  1.3765  0.6300
30119SOL    HW193949   5.122   3.425   8.289 -0.6308  0.5848 -0.3028
30119SOL    HW293950   5.200   3.527   8.209 -0.6354 -0.7317 -2.0162
30120SOL     OW93951   0.134   6.727   4.538 -0.5768  0.0966 -0.0593
30120SOL    HW193952   0.148   6.698   4.447 -0.0308 -0.5111  0.2066
30120SOL    HW293953   0.039   6.722   4.551 -0.5483 -1.0016 -0.2185
30121SOL     OW93954   6.965   7.405  10.533  0.4859  0.6493  0.6880
30121SOL    HW193955   7.043   7.352  10.515 -1.0005 -1.2656 -0.5535
30121SOL    HW293956   6.966   7.473  10.465  0.2209 -0.3940 -0.3874
30122SOL     OW93957   8.260   8.463   1.904  0.6254  0.0170 -0.3582
30122SOL    HW193958   8.195   8.529   1.883 -0.4332 -1.4856 -2.0493
30122SOL    HW293959   8.264   8.463   2.000 -2.6743 -0.5845 -0.1241
30123SOL     OW93960   4.807   9.725   0.049  0.0367 -0.4253  0.3643
30123SOL    HW193961   4.811   9.632   0.024 -0.2047 -0.6612  1.1577
30123SOL    HW293962   4.713   9.745   0.051 -0.1322  1.5904 -5.8411
30124SOL     OW93963   8.264   9.678   6.155  0.2290 -0.0847 -0.5938
30124SOL    HW193964   8.174   9.647   6.170  0.5501 -0.0706  1.5833
30124SOL    HW293965   8.320   9.613   6.197  1.2793 -0.0313 -1.8331
30125SOL     OW93966   1.487   3.235   3.879 -0.1036 -0.1495 -0.0098
30125SOL    HW193967   1.555   3.171   3.856  1.0992  0.4643  1.6504
30125SOL    HW293968   1.427   3.187   3.936  0.4635  0.0088  0.7390
30126SOL     OW93969   3.495   0.904  10.522 -0.8877 -0.2101  0.0578
30126SOL    HW193970   3.460   0.952  10.447 -0.0513 -1.5721 -1.2753
30126SOL    HW293971   3.590   0.912  10.513 -0.7744  0.3880  1.5365
30127SOL     OW93972  11.031   9.030   1.859 -0.0090  0.4372  0.6151
30127SOL    HW193973  11.032   9.085   1.937 -0.2611  2.9903 -1.0831
30127SOL    HW293974  11.121   8.998   1.851  0.0650  0.2870  1.7880
30128SOL     OW93975   6.357   6.615   7.345 -0.0966  0.3295 -0.5805
30128SOL    HW193976   6.375   6.696   7.392  1.7925 -0.8867  0.9802
30128SOL    HW293977   6.291   6.571   7.399  0.7563 -0.2694  0.0006
30129SOL     OW93978   9.034   8.212  10.029 -0.4226 -0.2299 -0.1274
30129SOL    HW193979   9.015   8.153   9.956  1.1456 -0.4854 -0.3678
30129SOL    HW293980   8.958   8.205  10.086 -1.3103 -0.6549 -1.3254
30130SOL     OW93981   3.494   9.145   6.957 -0.0025 -0.0568 -0.7953
30130SOL    HW193982   3.544   9.085   6.902 -1.0129  0.2020 -2.0582
30130SOL    HW293983   3.501   9.229   6.911 -4.1926 -0.6241 -2.9047
30131SOL     OW93984   0.278   0.506   9.839  0.0883  0.1271 -0.1524
30131SOL    HW193985   0.312   0.554   9.765 -1.1624 -0.0331 -0.8613
30131SOL    HW293986   0.240   0.572   9.897 -0.3770  0.1160 -0.4440
30132SOL     OW93987   9.227   2.301   2.671 -0.1719  0.7021 -0.0312
30132SOL    HW193988   9.276   2.220   2.667  0.3717  1.0471 -0.5272
30132SOL    HW293989   9.156   2.284   2.733  0.0123 -0.1018 -0.0411
30133SOL     OW93990  10.597   2.959   7.700 -0.2156  0.6948  0.3431
30133SOL    HW193991  10.675   2.951   7.755 -0.7267  0.9919  1.1147
30133SOL    HW293992  10.590   2.874   7.657  0.3978  0.5852  0.4455
30134SOL     OW93993   1.925   4.384  10.392 -0.4769  0.3277 -1.1130
30134SOL    HW193994   1.993   4.418  10.335 -0.1240  0.6346 -0.5106
30134SOL    HW293995   1.856   4.451  10.391  1.9151  3.3989  3.4054
30135SOL     OW93996  10.931   3.089   1.479  0.3423 -0.4122  0.0565
30135SOL    HW193997  11.012   3.050   1.446  0.0866 -0.7119 -0.2191
30135SOL    HW293998  10.883   3.113   1.400 -0.1893 -0.9678  0.2061
30136SOL     OW93999   5.195   8.934   2.585 -0.3109  0.4747 -0.3257
30136SOL    HW194000   5.265   8.966   2.642 -0.8227  0.6088  0.2374
30136SOL    HW294001   5.240   8.909   2.504  0.4350  0.2616  0.1395
30137SOL     OW94002   1.188   2.025   1.201  0.8023  0.2078  0.5617
30137SOL    HW194003   1.140   1.947   1.174  0.7734  0.0970  0.9311
30137SOL    HW294004   1.227   2.001   1.285 -0.0678  0.9471  1.1894
30138SOL     OW94005   5.179   0.219  10.866  0.6287 -0.1886  0.3577
30138SOL    HW194006   5.163   0.310  10.840  0.7812 -0.4583 -0.7303
30138SOL    HW294007   5.101   0.172  10.836  0.9186 -0.5516  0.1760
30139SOL     OW94008   4.637   6.551   0.568 -0.2534 -0.3151 -0.2433
30139SOL    HW194009   4.655   6.603   0.490  0.0723  0.2532  0.1998
30139SOL    HW294010   4.639   6.460   0.537  0.0174 -0.1064 -0.8650
30140SOL     OW94011   1.661  10.720   0.118 -0.2668  0.4240 -0.1953
30140SOL    HW194012   1.624  10.733   0.031  0.0500 -1.1771 -0.5878
30140SOL    HW294013   1.742  10.672   0.103  0.3270  1.0226  0.9203
30141SOL     OW94014   0.353   2.472  10.785 -0.6658  0.1344  0.6488
30141SOL    HW194015   0.397   2.389  10.768 -3.2870 -1.3980  0.7761
30141SOL    HW294016   0.352   2.517  10.700  1.5319  0.5217  0.7603
30142SOL     OW94017   9.063   9.445  10.658  0.2272 -0.0424 -0.0940
30142SOL    HW194018   9.074   9.352  10.636  0.8914 -0.3097  1.2764
30142SOL    HW294019   9.117   9.458  10.736 -0.4428  1.3302  0.1703
30143SOL     OW94020  10.174   2.556  10.321 -0.2298  0.1642  0.3894
30143SOL    HW194021  10.190   2.560  10.415 -0.5645  0.0396  0.4538
30143SOL    HW294022  10.130   2.639  10.300 -0.3109  0.1187  0.3758
30144SOL     OW94023   0.352   5.580   5.631  0.8049  0.3025  0.1338
30144SOL    HW194024   0.379   5.647   5.569 -0.5094 -0.8119 -1.7694
30144SOL    HW294025   0.275   5.616   5.674  1.1985  0.7300  0.4921
30145SOL     OW94026   1.164   0.764   3.760  0.2741  0.1384 -0.6550
30145SOL    HW194027   1.235   0.828   3.766  1.0166 -0.6861 -0.4574
30145SOL    HW294028   1.184   0.712   3.682  0.5245 -0.8394  0.0447
30146SOL     OW94029   9.648   3.750   9.371 -0.5272  0.7712  0.1615
30146SOL    HW194030   9.557   3.768   9.348 -0.7567 -0.3414  0.1377
30146SOL    HW294031   9.695   3.748   9.288 -0.9458 -1.0495 -0.0649
30147SOL     OW94032   2.664   0.702   7.471 -0.3355  0.1487 -0.2032
30147SOL    HW194033   2.674   0.698   7.566 -0.0192 -0.8517 -0.2681
30147SOL    HW294034   2.731   0.764   7.443 -1.0105  1.1354  0.2932
30148SOL     OW94035   6.794   7.084   9.831 -0.1022  0.6165 -0.6387
30148SOL    HW194036   6.815   7.006   9.882  0.0596  1.0256 -0.0678
30148SOL    HW294037   6.830   7.156   9.882  1.1374  0.9462 -1.9022
30149SOL     OW94038   3.855   6.855   9.204  0.0207  0.3488  0.2019
30149SOL    HW194039   3.905   6.839   9.124  0.6131  1.2440  0.3768
30149SOL    HW294040   3.920   6.847   9.274 -0.8198 -2.1758  0.7867
30150SOL     OW94041   8.156   8.059   5.138  0.7397 -0.6163 -0.1327
30150SOL    HW194042   8.181   7.995   5.071 -0.2655 -0.1937 -0.9421
30150SOL    HW294043   8.104   8.008   5.201 -0.2048 -0.5915 -0.8634
30151SOL     OW94044   6.757   9.903   1.508  1.1070  0.3382  0.1002
30151SOL    HW194045   6.818   9.884   1.580  0.4418 -1.2248  0.2765
30151SOL    HW294046   6.769   9.831   1.447  0.2789  0.6572 -0.4466
30152SOL     OW94047   4.293   0.792   9.842  0.0154 -0.6580 -0.1953
30152SOL    HW194048   4.227   0.857   9.817 -0.5595 -1.9141 -2.1272
30152SOL    HW294049   4.359   0.797   9.772  0.2809 -1.7013 -0.0350
30153SOL     OW94050   6.804   8.408   6.076  0.1255 -0.2379  0.0655
30153SOL    HW194051   6.830   8.414   5.984  1.2218 -1.4819  0.2682
30153SOL    HW294052   6.840   8.324   6.106 -1.4347 -0.5296  1.2488
30154SOL     OW94053   2.491   6.836   9.817 -0.0002 -0.1613 -0.4439
30154SOL    HW194054   2.453   6.826   9.904 -0.0654 -1.1659 -0.5806
30154SOL    HW294055   2.585   6.828   9.829  0.1879  1.7979 -0.1843
30155SOL     OW94056   4.166   5.370  10.514 -0.1843 -0.1153 -0.5085
30155SOL    HW194057   4.117   5.442  10.475 -0.8533  0.1052  0.6739
30155SOL    HW294058   4.119   5.352  10.596  0.7451 -1.0233 -0.1619
30156SOL     OW94059   1.240   2.889  10.073  0.2833 -0.7506 -0.1464
30156SOL    HW194060   1.177   2.817  10.060  0.1798 -0.8218  0.7069
30156SOL    HW294061   1.217   2.926  10.158  0.6881 -0.0507 -0.3339
30157SOL     OW94062   9.196   4.502   7.630  0.6880 -0.0472 -0.4326
30157SOL    HW194063   9.133   4.575   7.627  0.4131 -0.2760 -2.8630
30157SOL    HW294064   9.282   4.545   7.629  0.5525  0.2463  0.0851
30158SOL     OW94065   6.341   1.197  10.384 -0.1931  0.4830 -0.0941
30158SOL    HW194066   6.324   1.103  10.393  0.6623  0.2423 -0.8637
30158SOL    HW294067   6.403   1.216  10.454  2.1354 -0.2325 -1.8315
30159SOL     OW94068   9.495   0.629   7.153 -0.2592  0.3111  0.4616
30159SOL    HW194069   9.427   0.693   7.171 -1.8236 -1.2157  0.3372
30159SOL    HW294070   9.496   0.573   7.230  0.7305  0.1978  0.3743
30160SOL     OW94071   2.145   8.983   5.661 -0.0023 -0.3214  0.1584
30160SOL    HW194072   2.162   8.897   5.624  0.1495 -0.3608  0.3194
30160SOL    HW294073   2.081   9.023   5.601  0.4848 -0.2561 -0.3175
30161SOL     OW94074   9.123   3.843   1.381 -0.0616 -0.2113 -0.1925
30161SOL    HW194075   9.125   3.797   1.465 -2.6551  1.8528  1.1609
30161SOL    HW294076   9.101   3.776   1.317  0.6511 -1.5982  0.9579
30162SOL     OW94077   4.162   7.974   9.320  0.8928 -0.0219  0.4112
30162SOL    HW194078   4.213   8.051   9.346  0.9746 -0.3262  1.1854
30162SOL    HW294079   4.073   7.994   9.348  1.2587 -1.0309  2.5572
30163SOL     OW94080   5.091   2.170   3.830 -0.6718 -0.0514  0.0423
30163SOL    HW194081   5.013   2.152   3.776 -0.8109 -1.1860  0.6108
30163SOL    HW294082   5.124   2.253   3.795 -2.8074  1.1042  0.5592
30164SOL     OW94083   7.803   9.185  10.110 -0.3828 -0.0072  0.1621
30164SOL    HW194084   7.778   9.260  10.163 -0.3749 -0.2153  0.4600
30164SOL    HW294085   7.728   9.171  10.051  1.1568  2.6965 -2.6785
30165SOL     OW94086   7.204  10.220   1.907 -0.1626 -0.2095 -0.2139
30165SOL    HW194087   7.192  10.186   1.996  0.3890  1.2932  0.4681
30165SOL    HW294088   7.133  10.182   1.856 -2.0402  0.9140  1.4581
30166SOL     OW94089  10.501   5.166   7.685  0.2768  0.2664 -0.0294
30166SOL    HW194090  10.543   5.099   7.632 -0.5239 -0.3787  0.1320
30166SOL    HW294091  10.541   5.248   7.657  1.2903 -0.2796 -0.2004
30167SOL     OW94092   3.081   4.865  10.759  0.1502  0.4909 -0.1787
30167SOL    HW194093   3.176   4.876  10.754  0.3488 -0.9089  0.0359
30167SOL    HW294094   3.049   4.885  10.671  1.0439 -2.1497 -1.2079
30168SOL     OW94095   8.196   9.931   3.922  0.1624 -0.7151  0.3053
30168SOL    HW194096   8.171   9.938   3.830  1.8751 -1.5480 -0.2652
30168SOL    HW294097   8.173   9.841   3.947  0.9833 -0.9390  0.2696
30169SOL     OW94098   0.066  10.756   8.476  0.4832 -0.5739 -0.0501
30169SOL    HW194099   0.032  10.766   8.388  2.3991 -0.1295 -0.8011
30169SOL    HW294100   0.030  10.830   8.525 -0.0887 -0.4667 -0.6190
30170SOL     OW94101   6.926   0.315   7.941 -0.3230 -0.1614 -0.4183
30170SOL    HW194102   6.855   0.274   7.989  0.6638 -3.1670 -1.2721
30170SOL    HW294103   6.892   0.325   7.852 -0.9032  1.9594  0.0014
30171SOL     OW94104   6.928   9.018   0.036  0.6046 -0.3236  0.4844
30171SOL    HW194105   6.841   9.035   0.072  0.7256  3.3435 -0.4820
30171SOL    HW294106   6.912   8.970  -0.045 -0.3140 -1.2495  1.1893
30172SOL     OW94107   6.971   1.127   8.135  0.2729 -0.0523 -0.6889
30172SOL    HW194108   6.997   1.129   8.043 -0.9957 -0.3156 -1.0839
30172SOL    HW294109   7.008   1.047   8.170 -0.1990 -0.5470 -1.2955
30173SOL     OW94110  10.949   6.982   8.581  0.2198 -0.4097 -0.2292
30173SOL    HW194111  10.853   6.981   8.585  0.1685 -0.3261 -1.1850
30173SOL    HW294112  10.972   6.904   8.530  0.8908 -2.6692  3.1717
30174SOL     OW94113   7.916   0.437   5.212 -0.1609 -0.1611 -0.1194
30174SOL    HW194114   7.922   0.435   5.116 -0.6440  1.3020 -0.2018
30174SOL    HW294115   7.937   0.528   5.235  0.0674 -0.5289  1.1779
30175SOL     OW94116   3.313   0.583   2.116  0.3749 -0.0097  0.6887
30175SOL    HW194117   3.220   0.563   2.104  0.5808 -1.5637  1.5140
30175SOL    HW294118   3.320   0.677   2.097 -0.9158 -0.3340 -1.9057
30176SOL     OW94119   9.586   3.714   1.717 -0.3429 -0.2158 -0.6946
30176SOL    HW194120   9.600   3.680   1.629 -1.1705 -2.5844  0.0244
30176SOL    HW294121   9.520   3.657   1.755 -0.1997  0.9065  1.4037
30177SOL     OW94122   0.183   4.330   1.077  0.0994  0.1424  0.0540
30177SOL    HW194123   0.136   4.402   1.034 -0.2271  0.0724  0.2932
30177SOL    HW294124   0.140   4.251   1.045 -0.5700  0.1134  1.0058
30178SOL     OW94125   8.320   4.207   9.831  0.1866 -0.0950  0.2567
30178SOL    HW194126   8.244   4.178   9.883  0.0652  1.5704  1.0935
30178SOL    HW294127   8.388   4.222   9.896  0.8992 -0.5194 -0.3833
30179SOL     OW94128   7.221   6.102   4.153  0.1646 -0.6606  0.0418
30179SOL    HW194129   7.224   6.006   4.147 -1.0693 -0.6473 -1.9824
30179SOL    HW294130   7.224   6.121   4.246 -1.3006 -2.7904  0.5927
30180SOL     OW94131   9.676   4.786  10.612  0.3463 -0.3999  0.0492
30180SOL    HW194132   9.604   4.840  10.578  1.1465  0.6179 -0.0594
30180SOL    HW294133   9.636   4.736  10.684 -1.5150 -2.8728 -2.4495
30181SOL     OW94134   0.590   9.382   2.319  0.4546  0.1952 -0.2166
30181SOL    HW194135   0.625   9.394   2.231  0.8028  0.2082 -0.0766
30181SOL    HW294136   0.565   9.290   2.323  0.7573  0.1128 -0.2127
30182SOL     OW94137  10.338   5.660   7.274  0.1181  0.1279 -0.7237
30182SOL    HW194138  10.297   5.655   7.188 -1.1254 -0.7873 -0.1052
30182SOL    HW294139  10.269   5.634   7.335  1.1866  0.0451  0.4883
30183SOL     OW94140   3.430   1.438   8.192  0.2972 -0.1656  0.3354
30183SOL    HW194141   3.483   1.472   8.121 -0.3331 -1.4353 -0.7840
30183SOL    HW294142   3.488   1.437   8.268  1.4796 -0.3581 -0.5586
30184SOL     OW94143   5.053   2.239  10.107 -0.4048 -0.2461 -0.0317
30184SOL    HW194144   5.119   2.236  10.176 -0.1040  2.0725 -0.1557
30184SOL    HW294145   4.995   2.310  10.131 -1.0829 -0.2619 -1.4867
30185SOL     OW94146   6.164   0.109   6.136  0.2392  0.1271  0.0915
30185SOL    HW194147   6.084   0.071   6.171  0.8688  0.1129  1.5882
30185SOL    HW294148   6.208   0.036   6.092 -0.2482 -0.0078 -0.1895
30186SOL     OW94149   0.688   2.944  10.858 -0.4994 -0.1955  0.5026
30186SOL    HW194150   0.613   2.992  10.824 -0.1236  0.9485  1.2269
30186SOL    HW294151   0.654   2.901  10.937 -1.0790 -1.9424 -0.6369
30187SOL     OW94152   3.919   1.260   8.808 -0.7857  0.2818 -0.0112
30187SOL    HW194153   3.856   1.273   8.878 -0.0131  0.7273  0.6120
30187SOL    HW294154   3.986   1.203   8.846 -0.2637  0.6822 -0.3152
30188SOL     OW94155   0.727   4.771   6.390 -0.2521 -0.0301 -0.1901
30188SOL    HW194156   0.663   4.720   6.341  1.0118 -0.8531 -1.0351
30188SOL    HW294157   0.791   4.707   6.420  0.0527  0.7421  0.8790
30189SOL     OW94158   9.880   0.739   9.629  0.0417  0.1113 -0.5615
30189SOL    HW194159   9.968   0.714   9.601  0.2020  1.1434 -1.0180
30189SOL    HW294160   9.852   0.668   9.686  1.2262 -0.1623 -0.2968
30190SOL     OW94161   1.078   9.633   8.861 -0.2124 -0.6110  0.4352
30190SOL    HW194162   1.008   9.618   8.926 -0.2777 -0.4227  0.4088
30190SOL    HW294163   1.058   9.719   8.824 -1.8736 -1.9078 -1.9569
30191SOL     OW94164   3.195   5.698   9.308  0.2776 -0.4400  0.1457
30191SOL    HW194165   3.212   5.611   9.345 -0.8800 -0.2582  1.2078
30191SOL    HW294166   3.128   5.735   9.366 -0.2151  0.6384 -1.0737
30192SOL     OW94167   4.495   8.419   2.219 -0.1522 -0.1318  0.0243
30192SOL    HW194168   4.534   8.350   2.273  0.7264  0.5295  0.2574
30192SOL    HW294169   4.457   8.372   2.144 -0.4904 -0.9536  0.6990
30193SOL     OW94170   9.790   7.905   2.436 -0.9737 -0.0821  0.1806
30193SOL    HW194171   9.859   7.842   2.415  0.4278  0.8624  1.6696
30193SOL    HW294172   9.776   7.953   2.354  1.6426  1.0500  0.3099
30194SOL     OW94173   9.915   7.017  10.271 -0.1091  0.5140 -0.0343
30194SOL    HW194174   9.908   7.107  10.240 -1.8071  0.1109 -0.9349
30194SOL    HW294175   9.982   7.021  10.340  0.0778  2.3892 -0.2636
30195SOL     OW94176   4.789   5.817  10.747 -0.6670 -0.1545 -0.0540
30195SOL    HW194177   4.839   5.874  10.806  1.1280 -2.1009  0.4483
30195SOL    HW294178   4.802   5.855  10.660 -0.0433  0.5686  0.3423
30196SOL     OW94179   0.210   5.521  10.061  0.5273  0.0946 -0.2715
30196SOL    HW194180   0.239   5.506   9.971  0.0023  1.0416 -0.6155
30196SOL    HW294181   0.114   5.524  10.055  0.5355  2.0942 -0.0348
30197SOL     OW94182   0.381   1.411  10.345  0.6642 -0.4117  0.3736
30197SOL    HW194183   0.313   1.347  10.325 -1.0410  1.7232 -1.2277
30197SOL    HW294184   0.457   1.383  10.293  0.1302 -1.3997  0.1097
30198SOL     OW94185   4.388   9.891   7.485  0.2480 -0.1216 -0.1681
30198SOL    HW194186   4.329   9.816   7.494 -0.8558  0.8929  1.6174
30198SOL    HW294187   4.377   9.918   7.393 -2.2029  0.0816  0.1112
30199SOL     OW94188   9.788   6.190   3.205 -0.1821  0.3103 -0.0754
30199SOL    HW194189   9.838   6.124   3.157  1.4052 -0.5566  2.5430
30199SOL    HW294190   9.852   6.257   3.229 -0.4870 -0.1098  2.1454
30200SOL     OW94191   1.764   6.960   9.408 -0.3064 -0.2314 -0.2601
30200SOL    HW194192   1.716   6.912   9.341 -1.4792 -0.4039  0.6558
30200SOL    HW294193   1.768   6.899   9.482 -0.6481  0.5815  0.4468
30201SOL     OW94194   6.780   1.853   4.822 -0.3084 -0.5735 -0.7606
30201SOL    HW194195   6.876   1.854   4.824 -0.2988  1.0716 -0.4522
30201SOL    HW294196   6.758   1.887   4.736 -0.5815  0.7269 -0.2071
30202SOL     OW94197   8.976   5.046   6.490 -0.8749 -0.3465  0.2364
30202SOL    HW194198   9.022   5.050   6.574 -1.0432 -1.6869  0.4169
30202SOL    HW294199   9.044   5.020   6.428 -0.8181  0.3407  0.0065
30203SOL     OW94200   2.057   6.036   2.323  0.0717  0.0265 -0.3345
30203SOL    HW194201   2.064   6.047   2.418 -0.5396 -1.5261 -0.0811
30203SOL    HW294202   2.139   5.993   2.298 -0.4596 -1.0777 -0.2341
30204SOL     OW94203   4.813   0.801   0.165  0.3820  0.0189  0.2246
30204SOL    HW194204   4.782   0.723   0.211  1.7214 -0.8271 -0.2473
30204SOL    HW294205   4.741   0.864   0.172 -1.0483 -1.5285 -0.0522
30205SOL     OW94206   8.378   3.685   9.884 -0.0209  0.8777  0.5173
30205SOL    HW194207   8.335   3.644   9.808 -2.0374  2.1608  0.8937
30205SOL    HW294208   8.306   3.709   9.942  1.4814 -0.6475  3.2276
30206SOL     OW94209   5.832   6.568   6.360  0.0657  0.5808 -0.3395
30206SOL    HW194210   5.877   6.619   6.427 -0.2972  1.4917 -0.7695
30206SOL    HW294211   5.889   6.494   6.344  0.0312  0.1924  1.1719
30207SOL     OW94212   3.991   3.553   7.610 -0.1223 -0.0395  0.8556
30207SOL    HW194213   3.931   3.489   7.649 -0.0350 -0.0934  0.9013
30207SOL    HW294214   3.967   3.636   7.649  1.0454 -0.3250  2.2872
30208SOL     OW94215  10.995  11.007   5.612 -0.3808 -0.9247  0.4197
30208SOL    HW194216  11.079  10.978   5.577 -0.0850 -1.7063  1.7258
30208SOL    HW294217  10.932  10.942   5.579 -0.7667  0.4133 -1.7086
30209SOL     OW94218   4.995  10.302   2.507  0.3203  0.6630 -0.6439
30209SOL    HW194219   5.039  10.282   2.590  1.7564  1.6966 -1.1147
30209SOL    HW294220   4.908  10.334   2.532 -0.3720 -1.7310  0.2984
30210SOL     OW94221  10.160   3.066   6.179 -0.1508 -0.1919 -0.1923
30210SOL    HW194222  10.130   3.137   6.236  1.1887  0.0713  0.2224
30210SOL    HW294223  10.134   2.986   6.225  1.4725  0.0018  1.1653
30211SOL     OW94224   9.209   2.704   2.043 -0.2416 -0.4196  0.0716
30211SOL    HW194225   9.236   2.618   2.075 -0.0007 -0.9203 -1.3923
30211SOL    HW294226   9.153   2.685   1.968 -0.5340  0.7057 -0.0122
30212SOL     OW94227   5.977   1.280   4.211  0.3949 -0.0026  0.1476
30212SOL    HW194228   6.025   1.231   4.278 -0.4079  0.0743  0.7997
30212SOL    HW294229   5.902   1.316   4.258  0.7904  1.5903 -0.3827
30213SOL     OW94230   3.832   0.440   9.966 -0.2064 -0.2036  0.7055
30213SOL    HW194231   3.891   0.493   9.912 -1.9334  1.4989  0.3813
30213SOL    HW294232   3.861   0.350   9.952 -0.2804  0.1822 -2.7453
30214SOL     OW94233   6.479   1.956   8.768 -0.3472 -0.1782  0.2373
30214SOL    HW194234   6.524   1.943   8.685  0.2613  0.6998  0.4153
30214SOL    HW294235   6.428   2.036   8.756 -0.1543  0.0275  0.7401
30215SOL     OW94236   2.161   1.135   0.519  0.2740  0.3935  0.1770
30215SOL    HW194237   2.071   1.141   0.488 -0.1250  0.9950  1.3938
30215SOL    HW294238   2.168   1.047   0.557  0.5144 -0.0242 -0.7922
30216SOL     OW94239   7.993   1.004   0.210 -0.3905 -0.0572  0.3728
30216SOL    HW194240   8.052   0.998   0.285  0.3673 -0.5989 -0.2443
30216SOL    HW294241   7.922   1.060   0.240 -0.0945 -0.2473  1.4870
30217SOL     OW94242   1.111   3.872   8.359  0.1930  0.4934  0.2760
30217SOL    HW194243   1.179   3.919   8.407  1.7433 -1.4732  0.1615
30217SOL    HW294244   1.034   3.879   8.414  1.2475  0.4483  1.8340
30218SOL     OW94245   2.834   0.290   6.628  0.2610 -0.2306 -0.5014
30218SOL    HW194246   2.764   0.344   6.592 -1.1498 -1.5508  0.1722
30218SOL    HW294247   2.837   0.314   6.721  0.6195 -0.2762 -0.5001
30219SOL     OW94248   4.151   8.521   0.353  0.3915 -0.0351 -0.7106
30219SOL    HW194249   4.062   8.486   0.351 -0.0602  1.0896 -0.6862
30219SOL    HW294250   4.142   8.613   0.330  1.2513  0.7020  1.6165
30220SOL     OW94251   0.947   4.719   0.681 -0.9233 -0.4955  0.0337
30220SOL    HW194252   0.942   4.732   0.776 -0.2036  0.2340 -0.0218
30220SOL    HW294253   0.885   4.782   0.644  1.2428  1.6392 -0.1374
30221SOL     OW94254   7.267   2.891  10.116 -0.1608  0.2346  0.0813
30221SOL    HW194255   7.346   2.919  10.162 -0.9383  1.3356  0.7938
30221SOL    HW294256   7.199   2.953  10.144 -1.4786 -1.1668  0.1160
30222SOL     OW94257   5.073   9.215   9.049 -0.4272 -0.0531 -0.9506
30222SOL    HW194258   4.994   9.261   9.077  0.1490  1.7160 -2.0685
30222SOL    HW294259   5.130   9.216   9.126 -1.4179 -1.2607 -0.1654
30223SOL     OW94260   3.503   7.525   1.682  0.2988 -0.5376 -0.2861
30223SOL    HW194261   3.596   7.530   1.701 -0.2463  0.9546  2.4729
30223SOL    HW294262   3.475   7.615   1.670 -0.9065 -0.9148 -0.5194
30224SOL     OW94263  11.063   2.436   4.585 -0.3357 -0.4878  0.3226
30224SOL    HW194264  11.138   2.406   4.533 -0.1593 -1.3687  1.0530
30224SOL    HW294265  11.102   2.473   4.664 -0.5897  1.0881 -0.2528
30225SOL     OW94266   5.509   2.930   0.757 -0.3907  0.9727 -0.4537
30225SOL    HW194267   5.487   2.887   0.839 -0.9808  0.2728 -0.9609
30225SOL    HW294268   5.594   2.894   0.733  0.7087  2.6132  0.7934
30226SOL     OW94269   0.339   2.377   2.440 -0.1738  0.8199 -0.0887
30226SOL    HW194270   0.305   2.367   2.529 -0.3102 -0.4310 -0.2695
30226SOL    HW294271   0.392   2.457   2.444 -0.6143  1.0805  0.9697
30227SOL     OW94272   4.594   5.302   6.862 -0.0412  0.0008 -0.9613
30227SOL    HW194273   4.644   5.288   6.942  1.1651  0.6496 -1.5699
30227SOL    HW294274   4.584   5.397   6.856  1.3954  0.1074 -2.4283
30228SOL     OW94275   3.408   1.398   5.155  0.0475  0.1772  0.2055
30228SOL    HW194276   3.319   1.431   5.153 -0.2641 -0.6692 -0.4329
30228SOL    HW294277   3.441   1.411   5.066 -0.2483 -1.6258 -0.2021
30229SOL     OW94278  10.765   9.176   9.195 -0.0886 -0.1814 -0.2234
30229SOL    HW194279  10.777   9.082   9.206  0.2851 -0.1838 -0.6181
30229SOL    HW294280  10.830   9.216   9.254 -0.3890 -0.1667  0.1013
30230SOL     OW94281   4.756   7.380   5.228 -0.1134 -0.5342  0.6289
30230SOL    HW194282   4.669   7.342   5.239 -1.0989  1.3597 -0.1428
30230SOL    HW294283   4.748   7.435   5.150  1.5662  0.2978  1.0022
30231SOL     OW94284   5.895   4.528   3.548 -0.0763 -0.3729 -0.1149
30231SOL    HW194285   5.925   4.447   3.588  1.8975  0.4818  0.2287
30231SOL    HW294286   5.899   4.593   3.618  0.5903  0.5081 -0.9521
30232SOL     OW94287   5.272   6.558   5.230  0.0697 -0.5311 -0.0118
30232SOL    HW194288   5.345   6.619   5.220 -0.1127  0.0745  2.0213
30232SOL    HW294289   5.205   6.589   5.169  0.4101  0.6528  0.2060
30233SOL     OW94290  10.646   6.623   9.934 -0.7812  0.4766  0.0514
30233SOL    HW194291  10.675   6.666  10.015  0.8517  0.5788 -0.5438
30233SOL    HW294292  10.710   6.554   9.919 -1.9754 -0.5715 -0.3281
30234SOL     OW94293   2.839   1.513   1.660 -0.3451  0.4776  0.3683
30234SOL    HW194294   2.876   1.487   1.744 -1.1438  2.1478  1.2725
30234SOL    HW294295   2.770   1.449   1.643  0.3867 -0.3737  0.5497
30235SOL     OW94296   5.638   9.848   8.920  0.1074  0.4942 -0.0872
30235SOL    HW194297   5.652   9.818   9.009  0.7314  2.1893  0.4275
30235SOL    HW294298   5.655   9.942   8.923  1.5981  0.3857 -2.2729
30236SOL     OW94299   8.743   7.126   4.164  0.4686  0.1983  0.3956
30236SOL    HW194300   8.801   7.106   4.238  1.9159  0.3252 -0.6503
30236SOL    HW294301   8.717   7.217   4.178 -1.0061 -0.4095  1.8456
30237SOL     OW94302   9.552   0.175   6.891  0.4961 -0.3740 -0.6667
30237SOL    HW194303   9.546   0.198   6.984  1.2287 -0.0923 -0.6800
30237SOL    HW294304   9.472   0.210   6.852  1.5084  2.1883 -0.6726
30238SOL     OW94305   6.751   6.140   2.389  0.1076 -0.1970 -0.6072
30238SOL    HW194306   6.755   6.215   2.448  0.0986  0.1263 -1.0169
30238SOL    HW294307   6.664   6.145   2.349 -0.2994 -1.0122  0.1269
30239SOL     OW94308   5.046   8.885   0.351 -0.3194  0.4896 -0.1946
30239SOL    HW194309   5.097   8.926   0.281  1.4677 -1.9724 -0.4914
30239SOL    HW294310   5.108   8.825   0.392 -2.3081 -0.6856  1.2115
30240SOL     OW94311   9.650   9.935  10.097 -0.3992 -0.5114 -0.2922
30240SOL    HW194312   9.640   9.961  10.005 -0.9120 -0.4901 -0.2327
30240SOL    HW294313   9.655  10.017  10.145 -0.8101 -0.5185 -0.2325
30241SOL     OW94314   3.107  10.406   1.340 -0.0459  0.4168 -0.8772
30241SOL    HW194315   3.051  10.477   1.369  0.8473  0.5236  0.6723
30241SOL    HW294316   3.148  10.439   1.260  0.9955  2.0123  0.2673
30242SOL     OW94317   0.530   0.968   0.599 -0.0827 -0.2643  0.1147
30242SOL    HW194318   0.462   1.015   0.648  1.6587  0.9546  1.5282
30242SOL    HW294319   0.579   0.921   0.666  1.0916 -0.2709 -0.7164
30243SOL     OW94320   7.199   2.162   0.576 -0.1857  0.4369  0.3204
30243SOL    HW194321   7.229   2.116   0.655  0.1704  0.2266  0.0653
30243SOL    HW294322   7.196   2.254   0.601  1.0122  0.5051  0.2526
30244SOL     OW94323   1.592   2.706   1.060  0.1379 -0.4896 -0.0855
30244SOL    HW194324   1.671   2.727   1.111 -0.7850 -1.2052  1.7363
30244SOL    HW294325   1.613   2.624   1.015 -0.9383 -3.3304  4.0027
30245SOL     OW94326   9.014   4.119   5.708  0.2270  0.2844 -0.3397
30245SOL    HW194327   9.100   4.146   5.740  1.1037 -0.7133 -1.7074
30245SOL    HW294328   8.960   4.112   5.786  0.6925  3.1589  0.3421
30246SOL     OW94329   6.043   1.691   6.031 -0.0733  0.0049  0.0647
30246SOL    HW194330   6.042   1.625   6.100 -0.0976 -1.4326 -1.2489
30246SOL    HW294331   6.002   1.768   6.070 -0.4577 -0.8948  1.5051
30247SOL     OW94332   1.242   8.155  10.398  0.2396  0.6764 -0.4258
30247SOL    HW194333   1.169   8.153  10.336 -0.7064 -4.5854  0.4067
30247SOL    HW294334   1.203   8.183  10.480 -0.2866  0.2477 -0.5252
30248SOL     OW94335   1.676   2.101   6.130  0.1936 -0.0426  0.4711
30248SOL    HW194336   1.581   2.104   6.123  0.0287 -0.1984  2.2420
30248SOL    HW294337   1.705   2.189   6.108 -0.3511  0.0294  0.0116
30249SOL     OW94338   3.849   4.765   8.427  0.5615  0.3872  0.0176
30249SOL    HW194339   3.869   4.741   8.337  1.4556  0.1561  0.2677
30249SOL    HW294340   3.880   4.855   8.436  1.0420  0.2029  0.2611
30250SOL     OW94341   4.237   2.965   6.657 -0.2330  0.2048  0.0957
30250SOL    HW194342   4.224   2.920   6.741  1.1889 -0.4359 -0.0060
30250SOL    HW294343   4.268   2.897   6.598 -1.4842  0.5928 -1.0652
30251SOL     OW94344   4.707   0.952   9.531 -0.2432 -0.2634  0.0334
30251SOL    HW194345   4.784   0.895   9.540  0.3311  0.4775 -0.0893
30251SOL    HW294346   4.738   1.025   9.477 -0.8618  0.3716  0.5275
30252SOL     OW94347   1.008   7.754   4.133  0.3821  0.1395  0.6578
30252SOL    HW194348   1.013   7.735   4.227  0.2839 -0.5813  0.5206
30252SOL    HW294349   1.023   7.670   4.091 -0.4446  0.2898  0.0436
30253SOL     OW94350   9.135   0.877   0.202 -0.8319 -0.1833  0.2297
30253SOL    HW194351   9.186   0.861   0.281 -1.7766  0.8489  1.0883
30253SOL    HW294352   9.088   0.959   0.220 -0.5815  0.4197 -1.6522
30254SOL     OW94353   7.376   9.190  10.263  0.3783  0.3156  0.6372
30254SOL    HW194354   7.421   9.274  10.274  0.2224  0.6216 -0.8270
30254SOL    HW294355   7.351   9.164  10.352  4.8146 -0.6897  1.8094
30255SOL     OW94356   1.680   8.746   3.780 -0.7058 -0.3103 -0.4537
30255SOL    HW194357   1.633   8.757   3.698 -1.8788  0.5814  0.2971
30255SOL    HW294358   1.668   8.654   3.803 -1.1176 -0.3554 -0.8379
30256SOL     OW94359   7.538   9.573   4.536 -0.3398  0.8413 -0.4004
30256SOL    HW194360   7.492   9.489   4.542 -0.6465  1.0624  0.6547
30256SOL    HW294361   7.614   9.556   4.481 -0.1092 -0.2638  0.2433
30257SOL     OW94362   8.109   0.960   0.449  0.1420 -0.6550 -0.4509
30257SOL    HW194363   8.121   1.019   0.523 -2.8391 -0.5161  0.0462
30257SOL    HW294364   8.079   0.878   0.488 -1.1763 -0.6766 -1.4612
30258SOL     OW94365   0.220   2.151   8.629 -0.0266 -0.0718  0.0320
30258SOL    HW194366   0.221   2.242   8.599 -0.9096  0.2096  0.8494
30258SOL    HW294367   0.270   2.152   8.711  2.4482 -0.8577 -1.3489
30259SOL     OW94368  10.477   2.051   2.884  0.6699  0.0737 -0.3741
30259SOL    HW194369  10.486   2.115   2.955 -0.0067  1.2224 -1.2844
30259SOL    HW294370  10.416   2.092   2.823  3.0063  0.2239 -2.8084
30260SOL     OW94371  10.335   0.319   0.089  0.0259 -0.0981 -0.3072
30260SOL    HW194372  10.389   0.392   0.119  1.4861 -1.2711  0.0459
30260SOL    HW294373  10.303   0.347   0.003  0.1817  1.1390  0.0162
30261SOL     OW94374  10.807   3.895   6.936 -0.0773 -0.0716  0.1192
30261SOL    HW194375  10.770   3.983   6.940 -1.2491 -0.4944 -1.0075
30261SOL    HW294376  10.844   3.881   7.023 -2.1005  0.5737  1.1373
30262SOL     OW94377   8.223   8.841   0.900  0.1602  0.2623 -0.0711
30262SOL    HW194378   8.158   8.771   0.907  0.1916  0.0447 -1.6299
30262SOL    HW294379   8.172   8.922   0.907 -0.1527  0.0889 -0.3392
30263SOL     OW94380   1.220   7.981  10.813 -0.5991  0.6945 -0.4885
30263SOL    HW194381   1.253   7.893  10.827 -1.4183  0.2644 -1.1467
30263SOL    HW294382   1.298   8.037  10.816 -0.2471  0.1650  1.4517
30264SOL     OW94383   1.443   5.903   2.895  0.0740 -0.1763  0.2521
30264SOL    HW194384   1.410   5.913   2.805  0.5161 -1.0670 -0.0243
30264SOL    HW294385   1.364   5.883   2.946 -0.2744  0.9738  0.1881
30265SOL     OW94386   1.600   4.248   5.323 -0.1972 -0.1535  0.5244
30265SOL    HW194387   1.570   4.323   5.271  1.3452  0.4463  0.4460
30265SOL    HW294388   1.548   4.252   5.403  0.8112  1.8812  1.1493
30266SOL     OW94389   8.834   4.231   5.224 -0.3444 -0.1753 -0.0754
30266SOL    HW194390   8.786   4.312   5.206 -2.7158 -1.4823 -0.0660
30266SOL    HW294391   8.843   4.229   5.319  0.8126  0.6444 -0.1593
30267SOL     OW94392   8.630   2.465   5.352  0.0047 -0.0868  0.0422
30267SOL    HW194393   8.673   2.484   5.268  2.3803  0.6550  1.3497
30267SOL    HW294394   8.680   2.392   5.388  0.9467  1.4837  2.0961
30268SOL     OW94395   8.216   6.165   5.461 -0.0893 -0.2870  0.2600
30268SOL    HW194396   8.204   6.077   5.496 -1.6218  0.2697  1.2275
30268SOL    HW294397   8.306   6.165   5.427 -0.5985 -2.7317 -1.3595
30269SOL     OW94398   7.752  10.420   0.141 -0.1599  0.5294  0.3225
30269SOL    HW194399   7.815  10.466   0.195 -1.2222  0.9544  1.2431
30269SOL    HW294400   7.669  10.429   0.188 -0.9406  0.1293 -0.9199
30270SOL     OW94401   7.637   2.379   7.470  0.0124 -0.1125  0.0840
30270SOL    HW194402   7.575   2.416   7.533  0.4718  1.0558 -0.1249
30270SOL    HW294403   7.681   2.455   7.432  1.1145 -0.8924 -0.2465
30271SOL     OW94404   5.112   7.400   0.291 -0.3998  0.1858 -0.0580
30271SOL    HW194405   5.039   7.453   0.323 -0.7829 -0.8468  0.8150
30271SOL    HW294406   5.178   7.406   0.361  0.1381  0.6597 -0.5928
30272SOL     OW94407   8.919   8.908   1.370 -0.2927  0.3814 -0.1345
30272SOL    HW194408   8.985   8.945   1.428 -0.0148  0.0363 -0.2269
30272SOL    HW294409   8.961   8.830   1.333 -1.6170 -1.2818  1.6902
30273SOL     OW94410   2.703   1.653   1.224 -0.0419 -0.1321 -0.4749
30273SOL    HW194411   2.628   1.618   1.271 -0.3139  0.2880 -0.5901
30273SOL    HW294412   2.750   1.576   1.191  0.0989 -0.4328  0.3996
30274SOL     OW94413   0.977  10.279   1.043  0.3120  0.5732  0.5122
30274SOL    HW194414   0.972  10.374   1.052 -2.4906  0.6033 -0.3710
30274SOL    HW294415   0.968  10.246   1.133  4.5116  1.0505  1.2806
30275SOL     OW94416  10.468   0.467   7.662  0.0088 -0.2870 -0.2673
30275SOL    HW194417  10.526   0.428   7.596  1.6357  1.8591 -0.2247
30275SOL    HW294418  10.405   0.518   7.612 -0.7589 -1.1975 -0.2466
30276SOL     OW94419   7.318   8.443   0.384 -0.0905  0.1320  0.1287
30276SOL    HW194420   7.351   8.467   0.470 -1.7913 -1.3649  1.2994
30276SOL    HW294421   7.304   8.526   0.339  0.1907  0.9892  1.5607
30277SOL     OW94422   2.207   8.762  10.194  0.6802  0.6011 -0.3483
30277SOL    HW194423   2.184   8.669  10.197  0.0336  0.7667  1.0176
30277SOL    HW294424   2.301   8.765  10.210  0.3651  0.2513  1.8825
30278SOL     OW94425   4.892  10.773   3.234  0.4768  0.2826 -0.1260
30278SOL    HW194426   4.924  10.846   3.286 -0.9429 -1.0592  2.8874
30278SOL    HW294427   4.816  10.807   3.188  0.4312  0.9580  0.4462
30279SOL     OW94428  10.978   1.179   6.746 -0.8293  0.1446  0.1090
30279SOL    HW194429  10.961   1.256   6.800  0.4542  0.2613  0.3793
30279SOL    HW294430  11.043   1.129   6.795  1.6089  1.0383 -2.0079
30280SOL     OW94431   0.799   9.971   7.449 -0.0832 -0.7001 -0.5350
30280SOL    HW194432   0.821  10.063   7.436  0.9080 -0.7824  0.3646
30280SOL    HW294433   0.872   9.923   7.411 -0.1771 -1.0849 -0.2412
30281SOL     OW94434   0.416   9.508   3.900 -0.1993 -0.8362  0.3378
30281SOL    HW194435   0.357   9.583   3.905  2.3612  1.5963 -2.1299
30281SOL    HW294436   0.373   9.446   3.841 -1.5387 -0.5003  0.9339
30282SOL     OW94437   2.594   6.226   5.458 -0.2933 -0.0479 -0.1594
30282SOL    HW194438   2.625   6.230   5.549 -1.6279 -0.6283  0.3401
30282SOL    HW294439   2.517   6.282   5.456 -0.9938 -0.9951 -0.6220
30283SOL     OW94440   6.261   3.721  10.443 -0.6489  0.3100  0.3958
30283SOL    HW194441   6.344   3.690  10.477 -0.9611 -0.4161  0.5154
30283SOL    HW294442   6.207   3.642  10.434 -0.9322  0.6127 -0.7749
30284SOL     OW94443   2.506  10.084   5.720  0.2151  0.1386  0.2630
30284SOL    HW194444   2.506  10.028   5.643  0.7385 -1.0639  1.0967
30284SOL    HW294445   2.464  10.031   5.788 -0.4589  1.2649  0.7536
30285SOL     OW94446   7.589   5.299   5.778 -0.0410 -0.2617 -0.1036
30285SOL    HW194447   7.509   5.246   5.779  0.0004 -0.3401 -0.5506
30285SOL    HW294448   7.626   5.282   5.691 -0.5005  1.2107 -0.6133
30286SOL     OW94449   8.431   9.805   5.172 -0.5180  0.1686  0.4519
30286SOL    HW194450   8.376   9.782   5.097  0.4105  1.1919 -0.5729
30286SOL    HW294451   8.416   9.735   5.235 -1.6254 -0.5044 -0.5225
30287SOL     OW94452   0.302   0.659   7.264  0.1548 -0.7129 -0.4376
30287SOL    HW194453   0.274   0.708   7.186  0.2297  1.8814  1.0522
30287SOL    HW294454   0.223   0.655   7.318  1.2753  2.3213  1.6400
30288SOL     OW94455   1.947   9.252   1.481 -0.2466 -0.6510 -0.9332
30288SOL    HW194456   1.912   9.181   1.428 -1.3696 -0.2219 -0.8001
30288SOL    HW294457   1.967   9.212   1.566 -2.0602 -0.5820 -0.4416
30289SOL     OW94458  10.795   4.734   4.824 -0.1575 -0.0898 -0.2542
30289SOL    HW194459  10.724   4.783   4.866  0.0179  1.5240 -1.7141
30289SOL    HW294460  10.843   4.800   4.774  2.8740 -0.9560  1.2544
30290SOL     OW94461   5.120   9.202   2.361  0.0992  0.1946 -0.5003
30290SOL    HW194462   5.131   9.169   2.450 -0.3041  1.1377 -0.0862
30290SOL    HW294463   5.031   9.239   2.360 -0.9008 -2.0142 -2.0295
30291SOL     OW94464   9.338   8.681   6.358  0.3396 -0.2964 -0.5634
30291SOL    HW194465   9.317   8.759   6.409  0.4722 -0.1078 -0.7971
30291SOL    HW294466   9.324   8.706   6.267  0.4908 -0.5089 -0.6481
30292SOL     OW94467   1.843   5.845   7.530  0.3803 -0.6785 -0.3901
30292SOL    HW194468   1.895   5.921   7.558  0.4763 -0.0073 -2.2712
30292SOL    HW294469   1.860   5.779   7.597  1.9652  0.2520  0.1869
30293SOL     OW94470   7.489   1.814   5.513  0.5259 -0.4366 -0.0231
30293SOL    HW194471   7.432   1.833   5.587  0.2325 -0.1131 -0.3264
30293SOL    HW294472   7.560   1.878   5.520  1.3675 -1.4174  0.8754
30294SOL     OW94473   4.231   8.376   4.474 -0.4731 -0.0591  0.5745
30294SOL    HW194474   4.220   8.339   4.562  0.0919 -2.2433 -0.2216
30294SOL    HW294475   4.142   8.400   4.448 -1.0764 -1.9876  0.7023
30295SOL     OW94476   4.823   6.503   3.975  0.1179  0.0668  0.4223
30295SOL    HW194477   4.873   6.556   3.912 -1.2021  0.0670 -0.6712
30295SOL    HW294478   4.851   6.413   3.959  0.0989  0.1128  0.1271
30296SOL     OW94479   3.791   5.138   9.606 -0.0376 -0.2260 -0.0547
30296SOL    HW194480   3.876   5.123   9.565  0.3966 -0.3320  0.8645
30296SOL    HW294481   3.810   5.194   9.681 -0.9063  0.4668 -0.3261
30297SOL     OW94482   8.330   8.177   1.057 -0.2988 -0.0168  0.4127
30297SOL    HW194483   8.299   8.087   1.055 -0.4678  0.0293  0.8564
30297SOL    HW294484   8.415   8.174   1.013 -0.0034 -0.5152  0.9891
30298SOL     OW94485   0.304   7.839   0.504  0.1543 -0.0346  0.6640
30298SOL    HW194486   0.234   7.827   0.440  0.0741  0.6969  0.6031
30298SOL    HW294487   0.334   7.750   0.524  1.8803 -0.2783 -2.2809
30299SOL     OW94488   7.407   7.919   3.668 -0.5112 -0.0519  0.3373
30299SOL    HW194489   7.341   7.973   3.624  0.0070  0.1020 -0.2700
30299SOL    HW294490   7.363   7.836   3.685 -0.3505 -0.6299 -1.7173
30300SOL     OW94491   5.529   3.155   8.682 -0.0297 -0.2456 -0.4866
30300SOL    HW194492   5.435   3.145   8.665 -0.3362  0.0595  0.9127
30300SOL    HW294493   5.568   3.074   8.649 -0.9786 -1.0029  0.1896
30301SOL     OW94494   3.563   7.783   6.732 -0.3567 -0.4121  0.7922
30301SOL    HW194495   3.506   7.709   6.752  0.2988 -0.5338  2.2846
30301SOL    HW294496   3.619   7.793   6.809  0.4931  0.7801  0.0612
30302SOL     OW94497   2.611   6.851   0.092  0.1823  0.4278 -0.0539
30302SOL    HW194498   2.691   6.808   0.060  0.2200  0.5568 -0.1351
30302SOL    HW294499   2.540   6.795   0.062  0.2246  0.4810 -0.2566
30303SOL     OW94500   6.987   7.993   7.983  0.0689 -1.0179 -0.4223
30303SOL    HW194501   7.063   7.937   7.966 -0.6824 -1.6735 -1.7767
30303SOL    HW294502   6.915   7.951   7.936 -1.0702 -0.2202  0.5426
30304SOL     OW94503   1.843   2.303   7.975 -0.4124 -0.3155  0.5034
30304SOL    HW194504   1.791   2.242   8.027 -1.5992  0.2769  0.0596
30304SOL    HW294505   1.833   2.387   8.020 -2.8687  0.5909 -1.4975
30305SOL     OW94506   2.075   4.802   7.346 -0.0703  0.0732  0.4464
30305SOL    HW194507   2.104   4.848   7.267 -0.2803 -2.8118 -1.4997
30305SOL    HW294508   1.995   4.757   7.319  1.2988 -3.1910  1.3431
30306SOL     OW94509  10.488   3.511   9.289 -0.1751  0.5877  0.1365
30306SOL    HW194510  10.468   3.564   9.211 -1.0748 -2.5076 -1.9316
30306SOL    HW294511  10.402   3.479   9.319  0.4693 -2.2551 -0.7577
30307SOL     OW94512   3.574   5.154   9.115  0.2892 -0.4713  1.0236
30307SOL    HW194513   3.522   5.107   9.180  1.3225 -0.9073  1.5640
30307SOL    HW294514   3.620   5.221   9.164 -0.9438  0.9628  0.2941
30308SOL     OW94515   5.980  10.564   7.784 -0.2742  0.2410  0.2007
30308SOL    HW194516   5.939  10.636   7.736  0.8467  1.4932  1.0771
30308SOL    HW294517   5.911  10.498   7.791 -1.1397  0.9613 -1.1463
30309SOL     OW94518   5.259  10.978   9.014  0.3122  0.2119 -0.2789
30309SOL    HW194519   5.326  10.966   9.081 -1.4916 -3.0335  1.2037
30309SOL    HW294520   5.240  11.072   9.014  2.6138  0.7485  1.4430
30310SOL     OW94521   1.060   6.587   8.867  0.0129 -0.5212 -0.3404
30310SOL    HW194522   1.082   6.560   8.778  0.0475  0.1687 -0.5435
30310SOL    HW294523   1.139   6.570   8.918 -0.4658 -2.3087 -0.1171
30311SOL     OW94524   2.124   5.632   6.675  0.5573 -0.0850 -0.5270
30311SOL    HW194525   2.038   5.609   6.709 -0.1697  1.8190 -0.9698
30311SOL    HW294526   2.163   5.548   6.651 -1.4835 -0.9455 -1.0610
30312SOL     OW94527   2.378   0.057   9.556  0.4014 -0.4248  0.2222
30312SOL    HW194528   2.323   0.072   9.633 -0.7420 -3.1256  0.0220
30312SOL    HW294529   2.317   0.034   9.487  1.6652 -2.8080 -0.2045
30313SOL     OW94530   7.062   4.056   2.177 -0.1881  0.5419 -0.1998
30313SOL    HW194531   7.118   4.018   2.109 -0.5299  0.7423 -0.5959
30313SOL    HW294532   7.029   3.980   2.226  1.0526  0.4468  0.5575
30314SOL     OW94533  10.447   4.953   0.563  0.0362  0.6522  0.3422
30314SOL    HW194534  10.497   4.941   0.644  0.5869 -1.2780 -0.2401
30314SOL    HW294535  10.510   4.934   0.493 -0.9867  0.1691 -0.4697
30315SOL     OW94536   0.548   3.435   4.730  0.3672  0.4551 -0.4266
30315SOL    HW194537   0.575   3.520   4.696  1.6786  0.2444  0.0587
30315SOL    HW294538   0.629   3.391   4.753 -0.2317 -1.2394 -1.3696
30316SOL     OW94539   7.661   8.597   4.155  0.2987  0.4831 -0.2386
30316SOL    HW194540   7.731   8.547   4.112  0.8456 -0.1389  1.3283
30316SOL    HW294541   7.590   8.599   4.090  0.2155 -2.3896 -0.3425
30317SOL     OW94542   0.063   4.010   4.805  0.2751  0.0588 -0.0829
30317SOL    HW194543   0.078   4.097   4.841 -1.0456  0.2463  0.0894
30317SOL    HW294544   0.071   4.021   4.710  1.0521  0.1544 -0.0112
30318SOL     OW94545   7.727   3.515   0.229  0.0631 -0.8287 -0.0920
30318SOL    HW194546   7.742   3.424   0.205  0.0076 -0.7591 -0.4002
30318SOL    HW294547   7.691   3.511   0.318 -1.0688 -1.1814 -0.5494
30319SOL     OW94548   5.159   7.462   5.449 -0.3112 -0.3806  0.5543
30319SOL    HW194549   5.185   7.553   5.462  1.1223 -0.5911 -0.5997
30319SOL    HW294550   5.065   7.466   5.434 -0.3288  0.8656  0.8707
30320SOL     OW94551   0.357   6.280   2.557  0.3051  0.1314 -0.1922
30320SOL    HW194552   0.415   6.203   2.558  0.5718  0.3127 -0.9164
30320SOL    HW294553   0.415   6.353   2.538 -0.2808  0.1828 -1.9935
30321SOL     OW94554   7.074   1.726  10.597 -0.0010  0.2181  0.4805
30321SOL    HW194555   6.995   1.773  10.569 -0.2565  0.3836  1.4150
30321SOL    HW294556   7.047   1.683  10.679  0.5873 -0.5628  0.2697
30322SOL     OW94557   4.885   1.191   2.724  0.7657  0.0347  0.1164
30322SOL    HW194558   4.952   1.210   2.658 -0.4797  0.6254 -1.0202
30322SOL    HW294559   4.871   1.275   2.768  1.7477 -0.4046  1.3279
30323SOL     OW94560   7.692   5.214   4.015 -0.8022  0.6326 -0.5582
30323SOL    HW194561   7.673   5.208   4.108 -1.2619  3.5101 -0.3516
30323SOL    HW294562   7.620   5.168   3.972 -0.2613 -1.2606  0.4664
30324SOL     OW94563   6.680   4.396   3.271 -0.0434 -0.1872  0.3534
30324SOL    HW194564   6.587   4.391   3.248 -0.1846 -0.2141  0.9294
30324SOL    HW294565   6.725   4.394   3.186 -0.4998 -1.4739  0.1233
30325SOL     OW94566   6.669   9.242   0.558  0.1170  0.0136 -0.1328
30325SOL    HW194567   6.607   9.169   0.558 -0.6346  0.6133 -1.3306
30325SOL    HW294568   6.755   9.201   0.556 -0.2779 -0.9505 -3.8266
30326SOL     OW94569   0.830  10.924   1.932 -0.3507 -0.3174  0.1408
30326SOL    HW194570   0.756  10.899   1.877 -0.1529  0.9930 -0.7732
30326SOL    HW294571   0.790  10.952   2.014 -0.6905 -1.7016  0.4665
30327SOL     OW94572   8.129   1.962   6.260 -0.2344 -0.8788  0.3356
30327SOL    HW194573   8.047   1.913   6.269 -0.6461 -0.2731  0.0063
30327SOL    HW294574   8.103   2.054   6.272  0.4307 -0.7005  0.4302
30328SOL     OW94575   4.602   3.781   1.239  0.6826  0.1457 -0.5168
30328SOL    HW194576   4.537   3.826   1.185 -1.0318  0.1122  1.4216
30328SOL    HW294577   4.640   3.715   1.180 -1.1990 -0.0036 -1.6519
30329SOL     OW94578   7.629   0.494   5.256 -0.4423 -0.3465 -0.4247
30329SOL    HW194579   7.722   0.501   5.233 -0.4517  1.0131 -0.1471
30329SOL    HW294580   7.613   0.400   5.262  0.9103 -0.6080 -0.5039
30330SOL     OW94581   3.322  10.058   4.695  0.3116  0.1928  0.3292
30330SOL    HW194582   3.342  10.098   4.780  0.1479 -1.0776  0.9850
30330SOL    HW294583   3.324  10.132   4.634  1.2788  1.0066  1.2872
30331SOL     OW94584   3.195   3.264   3.260  0.2921 -0.4974 -0.0689
30331SOL    HW194585   3.285   3.295   3.270  0.9138 -2.0933 -0.4029
30331SOL    HW294586   3.166   3.300   3.177 -0.2320  1.8966  1.0473
30332SOL     OW94587   3.553   6.339   8.491  0.0509  0.2749 -0.8143
30332SOL    HW194588   3.607   6.417   8.500  0.6329  0.0063 -1.8060
30332SOL    HW294589   3.610   6.267   8.518  0.1588  0.0029 -1.7296
30333SOL     OW94590   4.802   0.078   5.478 -0.1350 -0.2313  0.2743
30333SOL    HW194591   4.892   0.095   5.448 -0.1956 -0.2373  0.0834
30333SOL    HW294592   4.803   0.100   5.571 -0.7782  3.0380 -0.3699
30334SOL     OW94593   1.243   8.307   2.760 -0.0173  0.6678 -0.1289
30334SOL    HW194594   1.320   8.250   2.760  0.2133  0.9259  1.4494
30334SOL    HW294595   1.245   8.350   2.846 -2.5225 -0.1267  0.4140
30335SOL     OW94596   3.521   2.060   0.958  0.0875 -0.7702  0.1243
30335SOL    HW194597   3.560   2.103   1.035 -0.9243  1.1873 -0.3689
30335SOL    HW294598   3.576   2.087   0.885  0.6188 -2.0261  0.0464
30336SOL     OW94599   7.955   5.947   2.565 -0.6855 -0.2241  0.2056
30336SOL    HW194600   7.913   5.864   2.589 -2.0964 -0.2973 -2.2249
30336SOL    HW294601   8.045   5.922   2.544 -0.4540 -0.7256  1.6597
30337SOL     OW94602   7.362   7.099   1.357  0.5523  0.6039  0.7146
30337SOL    HW194603   7.282   7.144   1.329  0.6259  0.0297 -0.4645
30337SOL    HW294604   7.346   7.007   1.340  1.8170  0.5684 -0.4465
30338SOL     OW94605   8.697   9.023   1.556 -0.5713 -0.7378 -0.3162
30338SOL    HW194606   8.686   9.035   1.650  0.0787 -0.4568 -0.2703
30338SOL    HW294607   8.682   9.109   1.518 -2.2139 -1.1257 -0.6236
30339SOL     OW94608  10.519   3.308   5.364  0.3249  0.1428  0.7153
30339SOL    HW194609  10.532   3.294   5.270 -0.7190  0.4410  0.5164
30339SOL    HW294610  10.437   3.356   5.370 -0.5785 -1.4437  1.8716
30340SOL     OW94611   2.630   4.726   5.180  0.2224  0.0984 -0.3889
30340SOL    HW194612   2.561   4.791   5.168  0.7446  0.5105 -1.2344
30340SOL    HW294613   2.668   4.747   5.266 -0.5529 -0.0038 -0.0152
30341SOL     OW94614   3.255   9.221   7.172 -0.1987 -0.3186  0.1438
30341SOL    HW194615   3.246   9.127   7.157 -2.9042  0.0513 -1.0152
30341SOL    HW294616   3.330   9.247   7.118 -0.4210 -1.5334 -0.7642
30342SOL     OW94617   8.810   0.528   2.777  0.1341  0.5056 -0.0500
30342SOL    HW194618   8.903   0.518   2.755 -0.0316  1.4456 -1.3265
30342SOL    HW294619   8.787   0.615   2.743 -1.2941  0.1435 -0.0734
30343SOL     OW94620   5.455   9.054   9.809  0.4341 -0.2377 -0.0011
30343SOL    HW194621   5.469   9.062   9.903 -0.1346 -0.4287  0.1033
30343SOL    HW294622   5.462   9.143   9.775 -0.1992 -0.0494  0.3445
30344SOL     OW94623  10.070   5.596   3.750 -0.1660 -0.5098  0.2593
30344SOL    HW194624  10.143   5.643   3.789  0.0065  0.9733 -1.7237
30344SOL    HW294625  10.099   5.573   3.662 -2.0676  0.1755 -0.6059
30345SOL     OW94626   6.552   9.683   0.794  0.1587  0.2719  0.1318
30345SOL    HW194627   6.595   9.599   0.812  0.5496  0.3757 -0.3036
30345SOL    HW294628   6.518   9.674   0.705  1.7318  1.1974 -0.5974
30346SOL     OW94629   1.977   8.569   0.745  0.0330 -0.3545 -0.2836
30346SOL    HW194630   2.056   8.517   0.731  1.0539  1.2422 -0.6604
30346SOL    HW294631   1.932   8.525   0.817  1.5854 -0.9358  0.3718
30347SOL     OW94632   6.882  10.188   1.372 -0.2877  0.1405  0.0257
30347SOL    HW194633   6.949  10.170   1.438 -1.1486  1.6392  1.3770
30347SOL    HW294634   6.855  10.102   1.341  2.2880 -0.5119 -0.6437
30348SOL     OW94635   5.428   4.740   4.077 -0.1403  0.2034  0.6174
30348SOL    HW194636   5.428   4.698   4.164  0.4364  2.1009  1.5772
30348SOL    HW294637   5.379   4.821   4.090  0.7633  0.9696 -0.6152
30349SOL     OW94638   1.169   3.570  10.820 -0.4388  0.2956 -0.0556
30349SOL    HW194639   1.180   3.550  10.727 -0.4702  1.8102 -0.4013
30349SOL    HW294640   1.142   3.661  10.822  1.4662  0.8881  1.5285
30350SOL     OW94641   8.242   5.540   4.525  0.6062 -0.9527 -0.3216
30350SOL    HW194642   8.228   5.628   4.490 -0.6242 -1.1655 -0.4201
30350SOL    HW294643   8.239   5.483   4.449  2.8766 -0.9783 -0.4500
30351SOL     OW94644   1.267  10.971   5.033 -0.1450 -0.0088  0.0452
30351SOL    HW194645   1.305  10.892   5.071 -0.2691  0.4600  1.1890
30351SOL    HW294646   1.186  10.985   5.083  0.9911  2.0911  1.4776
30352SOL     OW94647   6.064   1.383   8.981  0.1786  0.2550 -0.1410
30352SOL    HW194648   6.136   1.365   9.041 -0.3126 -0.3245  0.2824
30352SOL    HW294649   6.088   1.465   8.939  1.4388 -0.2950 -0.5337
30353SOL     OW94650   0.600   4.107   2.879 -0.3696  0.2182  0.3737
30353SOL    HW194651   0.554   4.190   2.881 -1.0144 -0.1097 -0.5388
30353SOL    HW294652   0.556   4.053   2.945  0.2430  0.6747  1.1852
30354SOL     OW94653  10.717   2.198   6.706 -0.1409 -0.5451 -0.3215
30354SOL    HW194654  10.718   2.258   6.633 -0.5686  0.1531  0.2382
30354SOL    HW294655  10.681   2.117   6.671 -0.9959 -0.0025 -0.7226
30355SOL     OW94656   5.705   8.005   4.858  0.1338  0.1315 -0.7659
30355SOL    HW194657   5.690   8.092   4.820  0.1659  0.8770  0.8558
30355SOL    HW294658   5.696   8.018   4.952 -2.6926 -2.1761 -0.5708
30356SOL     OW94659   8.541   8.934   9.647  0.2503 -0.3154 -0.1587
30356SOL    HW194660   8.482   8.993   9.694 -1.9831 -0.3435 -2.6281
30356SOL    HW294661   8.602   8.992   9.602  0.5399 -0.1329  0.4656
30357SOL     OW94662   4.071   9.619  10.282  0.1369 -0.5327 -0.4998
30357SOL    HW194663   4.050   9.680  10.352 -0.5199 -1.1222 -0.1701
30357SOL    HW294664   4.159   9.588  10.302  0.5623  0.4700 -0.7959
30358SOL     OW94665   9.902   9.207   2.545 -0.6226 -0.0085  0.1011
30358SOL    HW194666   9.929   9.275   2.482  0.2883  0.0438  0.5328
30358SOL    HW294667   9.969   9.139   2.537 -0.7502 -0.2053  0.6951
30359SOL     OW94668   2.594   1.663   8.221  0.2183  0.5271  0.0820
30359SOL    HW194669   2.639   1.662   8.136 -1.7856 -0.1401 -1.0267
30359SOL    HW294670   2.571   1.755   8.234  0.7143  0.6647  0.0205
30360SOL     OW94671   5.759   7.152   1.025 -0.5912  1.0329 -0.1926
30360SOL    HW194672   5.674   7.151   1.068 -0.2579  0.5350  0.4557
30360SOL    HW294673   5.822   7.127   1.093 -0.0157  0.6013 -0.8708
30361SOL     OW94674   7.728   8.704   6.840  0.2302  0.1599 -0.4593
30361SOL    HW194675   7.823   8.690   6.834  0.1602 -0.1038 -1.0217
30361SOL    HW294676   7.705   8.672   6.927  0.6702  0.2890 -0.2910
30362SOL     OW94677   6.994   3.003   5.850  0.4292 -0.2574 -0.0822
30362SOL    HW194678   7.081   3.026   5.882 -0.3958  0.6853  1.6128
30362SOL    HW294679   6.957   2.949   5.920 -1.2551  1.4332  0.4023
30363SOL     OW94680   2.230   1.237   2.950 -0.5023 -0.5306  0.1203
30363SOL    HW194681   2.168   1.218   2.879  1.9216  0.0445 -2.3486
30363SOL    HW294682   2.246   1.152   2.991  0.0328 -1.4439 -1.8497
30364SOL     OW94683   8.924   1.645   6.590  0.4115 -0.2037 -0.4068
30364SOL    HW194684   8.951   1.637   6.682 -0.1585  0.8627 -0.1320
30364SOL    HW294685   9.005   1.660   6.542  0.7760 -1.2605 -0.1639
30365SOL     OW94686  10.877  10.404   8.716  0.1177  0.0893 -0.4065
30365SOL    HW194687  10.947  10.444   8.665  1.3807 -1.0539  0.3530
30365SOL    HW294688  10.922  10.340   8.773 -1.5120 -0.5275  0.2591
30366SOL     OW94689   6.633   7.677  10.899  0.0787  0.7610  0.0089
30366SOL    HW194690   6.615   7.738  10.826 -2.1168 -1.0675 -1.0824
30366SOL    HW294691   6.712   7.631  10.871 -0.8944 -0.1195 -1.4221
30367SOL     OW94692   1.042   3.165   0.694  0.5293 -0.6191 -0.4644
30367SOL    HW194693   1.033   3.165   0.789 -1.8715 -1.4397 -0.6100
30367SOL    HW294694   1.011   3.252   0.667 -3.0787 -1.8142 -0.6638
30368SOL     OW94695   6.301   2.833   2.195  0.5482  0.5156  0.3223
30368SOL    HW194696   6.278   2.741   2.180  1.5115  0.4630 -1.0226
30368SOL    HW294697   6.220   2.881   2.175 -0.4383 -0.0968  2.5477
30369SOL     OW94698   6.241   4.011   6.361  0.2240  0.3698  0.0362
30369SOL    HW194699   6.170   4.049   6.310 -0.2588 -1.6176 -0.8898
30369SOL    HW294700   6.235   4.054   6.446 -0.9972  1.4821 -0.5785
30370SOL     OW94701   4.385   4.620   1.874  0.5608  0.1867 -0.5169
30370SOL    HW194702   4.367   4.713   1.882 -1.1083 -0.1726  0.2721
30370SOL    HW294703   4.299   4.578   1.873  1.2802 -1.3705 -0.5056
30371SOL     OW94704   1.412   5.078   7.493 -0.0294  0.2202  0.4902
30371SOL    HW194705   1.360   5.148   7.454 -1.5628 -1.1223  0.0195
30371SOL    HW294706   1.469   5.047   7.423  1.0794  1.3482  0.8622
30372SOL     OW94707   6.072   0.767   0.066  0.2564  0.4642  0.5858
30372SOL    HW194708   6.034   0.853   0.046 -0.0558  0.1809 -0.0530
30372SOL    HW294709   6.022   0.737   0.141 -0.2600  0.4386  0.2357
30373SOL     OW94710   1.193   3.641   7.588 -0.3693 -0.1379  0.0191
30373SOL    HW194711   1.099   3.632   7.605 -0.6975 -1.7343 -2.2139
30373SOL    HW294712   1.234   3.616   7.671 -1.8755  0.5629  1.0320
30374SOL     OW94713   4.538   6.652   1.402 -0.2497  0.0235  0.1259
30374SOL    HW194714   4.612   6.647   1.463 -1.3464  0.4600  1.5676
30374SOL    HW294715   4.477   6.585   1.433 -0.9048  0.3638 -0.3927
30375SOL     OW94716   3.461   7.307  10.149 -0.3236  0.6228 -0.0729
30375SOL    HW194717   3.421   7.389  10.122 -3.4993 -0.3887  1.0577
30375SOL    HW294718   3.500   7.271  10.070 -0.6918  2.2481 -1.0325
30376SOL     OW94719   1.776   9.404   3.121 -0.0724  0.0979 -0.6617
30376SOL    HW194720   1.861   9.365   3.142 -0.3523 -0.4851 -0.6000
30376SOL    HW294721   1.797   9.480   3.067  0.5570  0.5865  0.2407
30377SOL     OW94722   5.631   4.055  10.417  0.1206  0.5436  0.2797
30377SOL    HW194723   5.717   4.014  10.423 -0.6592 -1.1022  0.8210
30377SOL    HW294724   5.594   4.047  10.505 -1.2913 -0.4375 -0.3635
30378SOL     OW94725   9.682   0.921   6.988  0.4577 -0.1387  0.2743
30378SOL    HW194726   9.774   0.937   7.009  0.5632  1.3396 -1.0609
30378SOL    HW294727   9.633   0.968   7.055  0.6649 -0.9692  1.0162
30379SOL     OW94728   4.188   7.367   4.814 -0.4428  0.3112  0.3472
30379SOL    HW194729   4.255   7.312   4.774  0.4984  0.9381  1.0237
30379SOL    HW294730   4.156   7.422   4.743  0.6828  0.8977  0.2740
30380SOL     OW94731   1.295   7.908   5.354 -0.4782 -0.0017  0.1188
30380SOL    HW194732   1.230   7.977   5.368 -0.6117 -0.3831  1.5190
30380SOL    HW294733   1.315   7.913   5.261  0.7585  3.0753  0.4221
30381SOL     OW94734   5.271   9.121   4.733 -0.3672  0.4098 -0.0290
30381SOL    HW194735   5.259   9.030   4.705 -1.1464  1.0487 -2.0375
30381SOL    HW294736   5.356   9.146   4.698 -0.1153  0.4402  0.5952
30382SOL     OW94737   1.625   1.513   9.645  0.1781  0.5176 -0.4625
30382SOL    HW194738   1.557   1.453   9.674  0.6221  0.3600  0.2809
30382SOL    HW294739   1.617   1.589   9.703  2.0380 -0.4265  1.1568
30383SOL     OW94740   2.980   5.560  10.043  0.2968 -0.3338 -0.0474
30383SOL    HW194741   2.922   5.501   9.995 -0.2023  0.2022 -0.1144
30383SOL    HW294742   3.064   5.514  10.045  0.1472 -0.6694 -0.8424
30384SOL     OW94743   9.474   8.565   2.301  1.1818 -0.1558 -0.4826
30384SOL    HW194744   9.527   8.583   2.378  1.3306 -1.2465 -0.3109
30384SOL    HW294745   9.507   8.481   2.268 -0.4741 -0.9103 -0.3254
30385SOL     OW94746   5.617  10.126   1.641  0.1279  0.5520 -0.3663
30385SOL    HW194747   5.692  10.146   1.698 -0.8543  1.4035  0.6677
30385SOL    HW294748   5.630  10.035   1.615  1.4179  0.6243 -0.0523
30386SOL     OW94749   9.681   6.513  10.681  0.8324 -0.3219  0.1291
30386SOL    HW194750   9.672   6.575  10.609  0.6652 -1.2444 -0.6697
30386SOL    HW294751   9.663   6.564  10.760 -2.4214 -0.0250 -0.6972
30387SOL     OW94752   7.194   7.078   0.300 -0.0006 -0.1504  0.6728
30387SOL    HW194753   7.243   7.143   0.349  0.4028 -0.0337  0.1197
30387SOL    HW294754   7.107   7.118   0.288  0.5374  0.7423 -0.5249
30388SOL     OW94755   4.451   1.179   0.674  0.4568  0.2591 -0.1148
30388SOL    HW194756   4.402   1.116   0.621  0.7871 -0.0524 -0.0519
30388SOL    HW294757   4.536   1.185   0.632  0.0965  1.4409 -0.7213
30389SOL     OW94758   7.471   4.865   5.517 -0.5698 -0.2266  0.0145
30389SOL    HW194759   7.381   4.833   5.518 -0.3220 -1.0627 -1.2892
30389SOL    HW294760   7.499   4.861   5.609 -1.3103 -1.6390  0.2113
30390SOL     OW94761   0.295   8.601   7.944  0.1844  0.4181 -0.2197
30390SOL    HW194762   0.274   8.681   7.895 -1.0362 -0.0247 -0.4490
30390SOL    HW294763   0.216   8.583   7.995  0.2298 -0.9459 -0.5936
30391SOL     OW94764  10.691   6.327   9.901  0.0865  0.3536  0.0562
30391SOL    HW194765  10.784   6.316   9.919  0.2150  1.1506 -0.0689
30391SOL    HW294766  10.674   6.274   9.823 -0.4017 -2.9108  2.1867
30392SOL     OW94767   5.473   9.419  10.711 -0.0281 -0.2633  0.0125
30392SOL    HW194768   5.565   9.394  10.722  0.3860  1.3667  0.4939
30392SOL    HW294769   5.425   9.337  10.718  1.2803 -0.9638  1.1668
30393SOL     OW94770   9.676   6.070   5.052 -0.4071 -0.0530  0.1106
30393SOL    HW194771   9.754   6.124   5.061 -0.0972 -0.6842  1.4053
30393SOL    HW294772   9.682   6.033   4.964  0.6115  0.1246  0.0960
30394SOL     OW94773   0.069   8.561  10.584  0.1124 -0.1974  0.1478
30394SOL    HW194774  -0.026   8.550  10.592  0.0143 -0.9102 -1.5183
30394SOL    HW294775   0.103   8.472  10.571  1.0084  0.0531  0.6837
30395SOL     OW94776  10.690   8.528   6.334  0.0061 -0.0250  0.5818
30395SOL    HW194777  10.728   8.501   6.417 -0.7248  0.8631  1.2336
30395SOL    HW294778  10.685   8.624   6.339 -1.6612 -0.0556  0.2731
30396SOL     OW94779   5.655   2.498   7.717  0.4086 -0.1108 -0.4626
30396SOL    HW194780   5.594   2.494   7.644  0.0741  0.0061 -0.1945
30396SOL    HW294781   5.604   2.467   7.792  0.6619  0.0514 -0.2226
30397SOL     OW94782   7.962  10.613   1.701  0.3795 -0.2315 -0.2432
30397SOL    HW194783   7.966  10.531   1.751 -1.2062  0.2884  0.8222
30397SOL    HW294784   7.987  10.588   1.613  1.8651 -1.4732  0.4782
30398SOL     OW94785   3.817   4.858   4.772 -0.1847 -0.4400 -0.4817
30398SOL    HW194786   3.789   4.882   4.684 -1.3200  0.6235  0.1476
30398SOL    HW294787   3.802   4.936   4.825  1.4209 -0.7227  0.4769
30399SOL     OW94788   6.242   9.875   2.592 -0.1446 -0.0703  0.2227
30399SOL    HW194789   6.234   9.937   2.665  0.9556  1.0141 -0.5333
30399SOL    HW294790   6.321   9.825   2.611  1.3118  1.5711 -1.1305
30400SOL     OW94791   1.483   7.842   0.101 -0.4072  0.0646  0.2306
30400SOL    HW194792   1.436   7.767   0.065 -1.8861  1.3237 -0.5814
30400SOL    HW294793   1.575   7.815   0.099 -0.7467 -1.1549 -1.4706
30401SOL     OW94794  10.816   2.910   9.272 -0.2250 -0.3525 -0.0055
30401SOL    HW194795  10.844   2.890   9.361  0.9460  0.0481 -0.2528
30401SOL    HW294796  10.742   2.853   9.256 -1.5158  0.7062  1.7960
30402SOL     OW94797   7.241   4.257   4.201 -0.3589 -0.6387  0.6672
30402SOL    HW194798   7.224   4.303   4.119 -1.4113  0.6849  1.5954
30402SOL    HW294799   7.194   4.174   4.192  2.4138 -2.1570 -1.4510
30403SOL     OW94800   7.469   8.897   9.768 -0.4161 -0.4362  0.1057
30403SOL    HW194801   7.385   8.937   9.789 -0.0923  0.1803  0.2853
30403SOL    HW294802   7.505   8.951   9.698  0.8223  0.7346  1.5540
30404SOL     OW94803   3.525   5.157   0.486 -0.6294  0.3457 -0.5855
30404SOL    HW194804   3.602   5.196   0.446 -0.8227  1.9681  0.5503
30404SOL    HW294805   3.451   5.204   0.448 -0.9147  0.5711  0.2251
30405SOL     OW94806   9.356   2.156   0.855  0.2116  0.2055  0.2724
30405SOL    HW194807   9.408   2.218   0.804  0.9924 -1.0639 -0.5139
30405SOL    HW294808   9.333   2.204   0.935  4.1340  0.3316  1.5577
30406SOL     OW94809   9.561   2.100   7.904 -0.1519  0.5940 -0.0498
30406SOL    HW194810   9.575   2.026   7.844 -0.2147  0.5630 -0.0264
30406SOL    HW294811   9.508   2.063   7.975  0.1983  0.5465  0.1914
30407SOL     OW94812   6.216   7.014  10.234  0.1968  0.0159 -0.1443
30407SOL    HW194813   6.192   6.999  10.325 -2.0495 -3.6481 -1.1322
30407SOL    HW294814   6.191   7.105  10.217  0.2197  0.6260  2.7086
30408SOL     OW94815   6.015   5.299   9.572  0.2076  0.2050  0.1175
30408SOL    HW194816   6.103   5.304   9.535 -0.7491  1.4777 -2.2405
30408SOL    HW294817   6.023   5.337   9.659  1.6067  2.6186 -0.9592
30409SOL     OW94818   3.563  10.781   1.724  0.3093  0.5245 -0.4128
30409SOL    HW194819   3.658  10.785   1.710  0.4475 -1.3024 -0.2058
30409SOL    HW294820   3.549  10.828   1.807  1.2141 -0.2723  0.2179
30410SOL     OW94821   3.423   5.003   9.269  0.2975 -0.3290 -0.6624
30410SOL    HW194822   3.399   4.933   9.207  0.5579 -1.4640  0.4775
30410SOL    HW294823   3.479   4.960   9.333 -0.7443  0.5786  0.9205
30411SOL     OW94824  10.033  10.649   4.818  0.0528 -0.0263  0.3950
30411SOL    HW194825  10.076  10.569   4.847 -0.7218 -0.8436 -0.6492
30411SOL    HW294826  10.085  10.677   4.742 -0.1293  0.0365  0.2943
30412SOL     OW94827   7.181   2.268   9.458 -0.5165  0.4358  0.3236
30412SOL    HW194828   7.151   2.217   9.383 -1.4276 -0.5688  1.3364
30412SOL    HW294829   7.268   2.300   9.432 -0.3467 -0.7916 -0.7281
30413SOL     OW94830   7.043   6.910  10.160  0.8898 -0.3957  0.0755
30413SOL    HW194831   6.955   6.948  10.171  1.3993  0.2180  3.0626
30413SOL    HW294832   7.032   6.818  10.185  0.9378 -0.5402 -0.4327
30414SOL     OW94833   1.312   2.874   9.789  0.5966  0.2698  0.2207
30414SOL    HW194834   1.227   2.882   9.747  0.2242 -2.6444  0.2384
30414SOL    HW294835   1.292   2.876   9.883  0.3673 -1.3654  0.2355
30415SOL     OW94836   8.351   7.267   4.611  0.5426  0.0549 -0.0230
30415SOL    HW194837   8.378   7.326   4.681  1.2165 -0.9376  0.5697
30415SOL    HW294838   8.318   7.189   4.655 -1.4191  0.3880 -0.7720
30416SOL     OW94839   1.951   8.046   2.334  0.0254 -0.6945  0.1513
30416SOL    HW194840   2.042   8.052   2.304  0.4059 -2.6329  0.8081
30416SOL    HW294841   1.936   8.129   2.379  1.1800  0.0144 -0.6969
30417SOL     OW94842   3.015   1.068   8.976 -0.1772 -0.1058 -0.3210
30417SOL    HW194843   3.075   1.027   9.038  1.6641  3.1336  0.2926
30417SOL    HW294844   3.067   1.079   8.896 -0.4193  1.3298 -0.3067
30418SOL     OW94845   4.758   0.669   7.512  0.1364 -0.4391 -0.2602
30418SOL    HW194846   4.715   0.586   7.491 -0.0327 -0.7370  1.1382
30418SOL    HW294847   4.805   0.651   7.593 -0.6024  1.0587  0.5262
30419SOL     OW94848   3.350   4.813   9.067 -0.4515 -0.0941 -0.3251
30419SOL    HW194849   3.425   4.841   9.015  1.0412  0.0243  1.7724
30419SOL    HW294850   3.279   4.804   9.003  0.9622  1.1129 -2.1851
30420SOL     OW94851   5.170   8.965   4.987  0.1834 -0.2348 -0.0409
30420SOL    HW194852   5.190   8.953   4.895  0.9194 -0.5155  0.1540
30420SOL    HW294853   5.089   9.017   4.987  1.0394  1.1711 -0.8415
30421SOL     OW94854   6.400   5.523   6.208 -0.1967 -0.5508  0.2133
30421SOL    HW194855   6.327   5.566   6.253 -1.9901  0.7408 -3.5172
30421SOL    HW294856   6.370   5.433   6.194  0.3896 -0.9711  1.5556
30422SOL     OW94857   0.298   1.157  10.726 -0.0256 -0.4309 -0.2019
30422SOL    HW194858   0.360   1.126  10.791  0.1655 -1.7570 -0.9728
30422SOL    HW294859   0.328   1.245  10.703  0.8896 -0.6121  0.2682
30423SOL     OW94860   5.633   0.995   2.900  0.4007 -0.2669 -0.6178
30423SOL    HW194861   5.626   1.064   2.834  2.0639  1.6482  1.0666
30423SOL    HW294862   5.563   1.013   2.962 -1.0141 -1.9298 -1.6202
30424SOL     OW94863   4.199   7.711   0.765 -0.3538 -0.5796  0.4038
30424SOL    HW194864   4.201   7.805   0.779 -0.7269 -0.2695 -1.3169
30424SOL    HW294865   4.270   7.676   0.819 -0.0409  0.7072  0.8546
30425SOL     OW94866   7.351   3.352  10.049  0.2064 -0.5001 -0.1899
30425SOL    HW194867   7.287   3.313   9.989  1.9388 -0.7943 -1.9263
30425SOL    HW294868   7.417   3.283  10.061  0.7906  0.1907  0.6534
30426SOL     OW94869   9.804   3.968   8.643 -0.4877  0.0481  0.1279
30426SOL    HW194870   9.814   3.892   8.585  2.4063 -0.1948  0.8222
30426SOL    HW294871   9.833   4.042   8.591 -3.4087  0.8451 -0.5830
30427SOL     OW94872   0.272   1.952  10.871 -0.2224  0.3088 -0.2915
30427SOL    HW194873   0.305   2.040  10.890  1.1493 -0.0836 -0.7281
30427SOL    HW294874   0.276   1.906  10.954  2.4434 -0.3633 -0.7144
30428SOL     OW94875   1.823   6.963   3.807 -0.0515 -0.1102 -0.0406
30428SOL    HW194876   1.875   6.931   3.881  0.4188  0.2237 -0.2275
30428SOL    HW294877   1.753   7.013   3.849 -0.0899 -0.3582  0.2006
30429SOL     OW94878   5.032   5.321   0.749  1.0216 -0.2821  0.0132
30429SOL    HW194879   4.949   5.274   0.739  0.6066  0.0825  1.5050
30429SOL    HW294880   5.073   5.316   0.663 -0.2376 -1.0575 -0.5664
30430SOL     OW94881   6.068   1.782   7.540 -0.1969  0.5311 -0.1887
30430SOL    HW194882   6.092   1.697   7.576 -0.7980 -0.3815 -1.8279
30430SOL    HW294883   5.972   1.779   7.535 -0.2281  1.3483 -0.1706
30431SOL     OW94884   0.792   7.405   2.530  0.3748 -0.1407  0.0816
30431SOL    HW194885   0.830   7.493   2.527  1.2190 -0.5315 -1.8164
30431SOL    HW294886   0.714   7.411   2.476 -0.1543 -0.3156  0.8109
30432SOL     OW94887  10.289   0.859   7.394 -0.6939  0.0548 -0.5339
30432SOL    HW194888  10.319   0.946   7.420 -0.3213 -0.0533 -0.5880
30432SOL    HW294889  10.229   0.875   7.321 -3.4160  0.5155  1.6526
30433SOL     OW94890   3.450   8.336   7.132 -0.0928  0.0747  0.4934
30433SOL    HW194891   3.425   8.424   7.162 -3.1435 -0.7768  0.7985
30433SOL    HW294892   3.425   8.334   7.040 -0.4430 -0.5829  0.5957
30434SOL     OW94893   6.574   7.188  10.047  0.4348  0.1561  0.1731
30434SOL    HW194894   6.665   7.212  10.065  0.3951  0.2233  0.2896
30434SOL    HW294895   6.544   7.254   9.984 -0.2054  1.5107  1.8081
30435SOL     OW94896   8.317   2.766   5.942  0.2123  0.3722  0.0497
30435SOL    HW194897   8.370   2.824   5.997  0.6560  0.1888 -0.1753
30435SOL    HW294898   8.257   2.723   6.002  1.6176 -0.8814  0.6265
30436SOL     OW94899   6.322   8.697   3.392  0.2737 -0.5900  0.5959
30436SOL    HW194900   6.285   8.643   3.461 -1.5427 -2.4075 -1.6335
30436SOL    HW294901   6.262   8.770   3.383  0.5863 -0.2788  1.0072
30437SOL     OW94902   1.636  10.832   5.282 -0.4133  0.2715  0.7206
30437SOL    HW194903   1.600  10.919   5.294 -0.7039  0.5849 -1.8049
30437SOL    HW294904   1.570  10.786   5.229  1.2918 -0.2609 -1.0518
30438SOL     OW94905   2.080   1.845   5.604 -0.4163 -0.0977 -0.2726
30438SOL    HW194906   2.120   1.791   5.671 -1.4692  1.8517  2.0984
30438SOL    HW294907   1.996   1.872   5.642 -0.9350  1.3138 -2.2512
30439SOL     OW94908   5.516   7.507  10.876  0.0752 -1.0132  0.6430
30439SOL    HW194909   5.527   7.431  10.818  1.5445 -0.1045 -0.3245
30439SOL    HW294910   5.605   7.533  10.898 -0.1661  2.3589 -1.6107
30440SOL     OW94911   6.657   5.364   0.928  0.0705  0.3957  0.0852
30440SOL    HW194912   6.595   5.370   1.001 -1.0500 -0.2221 -0.7787
30440SOL    HW294913   6.643   5.276   0.892 -1.9410  1.8042 -2.9969
30441SOL     OW94914   5.743   8.990   1.879  0.4775 -0.4502 -0.5730
30441SOL    HW194915   5.675   8.973   1.814  0.0293  0.2216 -0.2950
30441SOL    HW294916   5.751   9.085   1.880 -0.8554 -0.2803  1.6562
30442SOL     OW94917   6.921   7.220   2.544 -0.0624  0.7312 -0.0590
30442SOL    HW194918   6.956   7.232   2.633 -1.9271  0.6674  0.7360
30442SOL    HW294919   6.940   7.129   2.523  0.8312  0.8779  0.0523
30443SOL     OW94920   5.912   1.879   5.397  0.0401 -0.4836  0.2662
30443SOL    HW194921   5.888   1.820   5.325  0.6381 -0.0719 -0.2865
30443SOL    HW294922   5.851   1.858   5.467 -2.0173  0.6222 -1.1074
30444SOL     OW94923   5.023   3.838  11.035  0.7484 -0.2554  0.1225
30444SOL    HW194924   5.064   3.756  11.008 -1.5547 -0.7892 -2.2133
30444SOL    HW294925   5.055   3.903  10.973 -0.4795 -0.3172 -0.6202
30445SOL     OW94926   0.989   3.686   3.029  0.0474  0.0918 -0.1450
30445SOL    HW194927   0.923   3.705   3.096  0.1745 -1.8677  0.5955
30445SOL    HW294928   1.030   3.771   3.011  0.2485  0.6479  2.5253
30446SOL     OW94929   1.373   1.509   8.214 -0.2433 -0.2480  0.1180
30446SOL    HW194930   1.279   1.497   8.200  0.2934 -2.0481 -3.0018
30446SOL    HW294931   1.411   1.423   8.193  2.2855  1.0812 -1.1862
30447SOL     OW94932   8.982   2.259   1.389 -0.3551  0.0241  0.2160
30447SOL    HW194933   8.931   2.289   1.314 -0.4143 -0.0946  0.2096
30447SOL    HW294934   8.961   2.166   1.398  0.1423 -0.1124 -0.0142
30448SOL     OW94935   4.957   9.045   2.750  0.0516 -0.2269  0.5949
30448SOL    HW194936   5.045   9.081   2.755 -0.2732  0.4038  2.5756
30448SOL    HW294937   4.907   9.110   2.700  0.1427  0.7320  1.6889
30449SOL     OW94938   9.364   8.879   3.095 -0.6043  0.2900 -0.1993
30449SOL    HW194939   9.423   8.924   3.035 -0.3037  0.7996  0.4674
30449SOL    HW294940   9.329   8.948   3.151 -0.4702 -0.2378  0.5563
30450SOL     OW94941   7.875   2.106   2.679  0.1234 -0.2496 -0.6899
30450SOL    HW194942   7.830   2.176   2.632 -0.1573 -0.2903 -0.4841
30450SOL    HW294943   7.945   2.078   2.619 -1.2887 -1.4928 -1.8517
30451SOL     OW94944   6.221   7.735   0.288 -0.0775 -0.0141  0.0647
30451SOL    HW194945   6.139   7.701   0.252 -0.7330  2.4571 -1.0294
30451SOL    HW294946   6.290   7.688   0.242 -0.8375 -1.7285  0.5978
30452SOL     OW94947   9.181   0.280   0.343  0.0414 -0.1838  0.5780
30452SOL    HW194948   9.257   0.231   0.312 -0.5889 -1.8886  1.5466
30452SOL    HW294949   9.132   0.301   0.263  0.1636 -1.4747  0.1406
30453SOL     OW94950  10.087   3.532   0.408  0.4602 -0.1771  0.1567
30453SOL    HW194951  10.097   3.546   0.502 -1.1004 -0.1278  0.3363
30453SOL    HW294952  10.122   3.444   0.393 -1.5403 -1.2297  1.2450
30454SOL     OW94953   3.389   8.867   5.728 -0.3591 -0.3737  0.2098
30454SOL    HW194954   3.440   8.931   5.778 -1.9088  0.3275  0.9716
30454SOL    HW294955   3.434   8.860   5.644 -1.3222  3.4459 -0.8161
30455SOL     OW94956   4.240   1.868   8.020 -0.0705 -0.4733  0.7336
30455SOL    HW194957   4.328   1.895   8.047  0.0618  0.5226 -0.5703
30455SOL    HW294958   4.239   1.773   8.033  1.3540 -0.5573  0.3854
30456SOL     OW94959   2.126   1.150   8.810 -0.3424 -0.1954 -0.2829
30456SOL    HW194960   2.204   1.197   8.841  0.4439 -1.1811 -0.6874
30456SOL    HW294961   2.144   1.059   8.831 -2.1426 -0.2667  1.0960
30457SOL     OW94962   6.756   5.079   0.529  0.2305  0.4258 -0.3066
30457SOL    HW194963   6.820   5.052   0.463  0.1646 -0.3336 -0.0667
30457SOL    HW294964   6.807   5.128   0.593  0.8836 -1.4671  0.6861
30458SOL     OW94965   3.352   7.875   0.349 -0.1596 -0.0289 -0.1667
30458SOL    HW194966   3.378   7.783   0.346  2.1631  0.4976  1.0403
30458SOL    HW294967   3.328   7.890   0.441 -1.9567  0.2600 -0.6547
30459SOL     OW94968   2.485   3.598   4.230  0.7950  0.4920 -0.1876
30459SOL    HW194969   2.478   3.650   4.310  0.6927 -0.2065  0.2621
30459SOL    HW294970   2.397   3.599   4.192  0.0727 -1.6302  1.2725
30460SOL     OW94971   0.886   0.448   3.286 -0.4371  0.6996 -0.6282
30460SOL    HW194972   0.870   0.383   3.217  1.5610 -1.4434  0.7849
30460SOL    HW294973   0.978   0.437   3.308 -0.6523  2.3727  1.3755
30461SOL     OW94974   5.436   9.440   4.440 -0.1919 -0.0004 -0.1680
30461SOL    HW194975   5.369   9.491   4.394  0.7765  0.0309 -1.5987
30461SOL    HW294976   5.408   9.349   4.429 -0.1028  0.0231 -0.6047
30462SOL     OW94977   8.717   5.059   6.894  0.0618 -0.3253  0.0509
30462SOL    HW194978   8.634   5.042   6.938  0.2743 -0.3014  0.4652
30462SOL    HW294979   8.752   5.137   6.937 -0.4520  0.6345 -1.1933
30463SOL     OW94980   5.400   4.568   8.861 -0.1645  0.2614  0.2633
30463SOL    HW194981   5.480   4.535   8.901 -0.7914 -0.7438  0.7275
30463SOL    HW294982   5.367   4.633   8.923 -0.0062  0.2695  0.3398
30464SOL     OW94983   7.489  11.099   4.610  0.1373  0.2892 -0.4511
30464SOL    HW194984   7.545  11.175   4.595 -0.7487  1.1317  0.3997
30464SOL    HW294985   7.500  11.079   4.703 -1.1518  0.6189 -0.2212
30465SOL     OW94986   9.025  10.075   3.617  0.0724  0.0768 -0.3624
30465SOL    HW194987   9.079  10.104   3.691 -0.8510 -0.6533  0.6137
30465SOL    HW294988   8.997   9.987   3.641 -1.6685  0.4894 -0.7879
30466SOL     OW94989   1.452   8.954   2.884  0.1642  0.0220 -0.0215
30466SOL    HW194990   1.542   8.968   2.853  0.5724  1.2490  1.5979
30466SOL    HW294991   1.461   8.895   2.959 -0.3863  0.1197  0.1254
30467SOL     OW94992   6.908   8.428   1.033 -0.2124  0.2291  0.0638
30467SOL    HW194993   6.880   8.487   1.103 -0.2374  0.4149 -0.1006
30467SOL    HW294994   6.947   8.353   1.078 -0.5432  0.1875  0.2846
30468SOL     OW94995   7.665   0.197   7.198 -0.8624 -0.0224 -0.7331
30468SOL    HW194996   7.597   0.194   7.266 -0.5834  0.7314 -0.4042
30468SOL    HW294997   7.619   0.228   7.120 -1.1699 -0.8178 -0.8755
30469SOL     OW94998   5.428  10.394   5.867 -0.1255  0.3352  0.0869
30469SOL    HW194999   5.477  10.422   5.945  0.8125 -1.2322  0.1164
30469SOL    HW295000   5.494  10.349   5.814 -1.1391 -0.1056 -0.8088
30470SOL     OW95001   7.212   5.499   8.159  1.0369  0.2990  0.0693
30470SOL    HW195002   7.245   5.546   8.082  3.3325 -2.1565 -0.5779
30470SOL    HW295003   7.291   5.478   8.210 -0.2073 -0.2200  1.8779
30471SOL     OW95004  10.580   2.661   5.498 -0.2286 -0.3046 -0.1333
30471SOL    HW195005  10.645   2.711   5.448 -0.8941  0.2800 -0.4382
30471SOL    HW295006  10.630   2.592   5.541  0.3207 -1.0792 -1.9241
30472SOL     OW95007  10.502   7.243   6.066 -0.1629  1.1306  0.0976
30472SOL    HW195008  10.475   7.221   5.977 -0.3605  0.1830  0.3796
30472SOL    HW295009  10.460   7.177   6.121  0.5174  1.2866  0.8259
30473SOL     OW95010   8.947   1.996   5.309 -0.0394 -0.0156  0.3837
30473SOL    HW195011   8.919   2.071   5.257 -1.3040  0.2443  1.3930
30473SOL    HW295012   9.025   1.963   5.264 -0.8820  0.4089 -1.4431
30474SOL     OW95013   8.792   0.222   9.213  0.2027  0.3683 -0.6333
30474SOL    HW195014   8.882   0.236   9.243  0.9104 -0.7577 -2.0735
30474SOL    HW295015   8.802   0.193   9.122 -1.6942  1.3607 -1.2052
30475SOL     OW95016   1.907   1.236   4.883  0.4999  0.0326  0.0872
30475SOL    HW195017   1.997   1.249   4.855  0.3706  1.1028  0.1358
30475SOL    HW295018   1.857   1.229   4.802  0.4713  0.6365  0.0460
30476SOL     OW95019   8.968   4.924   6.827  0.1343 -0.4199  0.1770
30476SOL    HW195020   8.896   4.982   6.850  1.3838  0.8705  0.9606
30476SOL    HW295021   9.010   4.966   6.752  0.5844 -0.7029  0.2627
30477SOL     OW95022   1.258   0.359   3.044  0.0530  0.2113 -0.4796
30477SOL    HW195023   1.340   0.315   3.023  0.0177 -0.2887  0.3964
30477SOL    HW295024   1.219   0.307   3.114 -0.3326  1.2279  0.0931
30478SOL     OW95025   3.637  10.960   0.183  0.2321  0.3210 -0.1653
30478SOL    HW195026   3.569  11.009   0.138 -0.6504 -1.2691 -0.6376
30478SOL    HW295027   3.664  11.016   0.255 -1.8764  0.8259  0.2765
30479SOL     OW95028   0.620   8.346   0.790  0.2682 -0.2196 -0.3801
30479SOL    HW195029   0.579   8.421   0.747  0.0169 -0.6186 -0.8467
30479SOL    HW295030   0.550   8.281   0.797 -0.1393  0.3549  1.9905
30480SOL     OW95031   3.311   4.434   3.392  0.3721  0.5080 -0.5850
30480SOL    HW195032   3.380   4.377   3.358  0.3540 -0.9389  1.5817
30480SOL    HW295033   3.352   4.479   3.466 -0.1083  2.1216 -1.2561
30481SOL     OW95034   0.084   0.215   8.227  0.0492  0.1136  0.2183
30481SOL    HW195035   0.027   0.199   8.302 -1.9549  0.6831 -1.1246
30481SOL    HW295036   0.078   0.310   8.213  2.2291  0.3723  0.7066
30482SOL     OW95037   6.290   5.052   5.656 -0.2410  0.3295 -0.0554
30482SOL    HW195038   6.357   5.119   5.666 -1.0969  1.0580  1.0000
30482SOL    HW295039   6.338   4.969   5.657  0.5462  0.7741  1.7402
30483SOL     OW95040  10.718   1.871   4.493  0.7860  0.3012 -0.6236
30483SOL    HW195041  10.709   1.785   4.452 -0.3107 -0.1976  0.5987
30483SOL    HW295042  10.648   1.924   4.454  2.1970  1.0511 -2.2644
30484SOL     OW95043   9.461   0.523   2.224 -0.2783  0.5840  0.4058
30484SOL    HW195044   9.447   0.429   2.233 -1.7060  0.7420 -0.0172
30484SOL    HW295045   9.468   0.555   2.314 -0.8294  0.2281  0.5740
30485SOL     OW95046   3.224   8.370   1.520 -0.1971 -0.4318  0.2305
30485SOL    HW195047   3.186   8.440   1.573 -0.1152 -0.6887  0.6333
30485SOL    HW295048   3.286   8.415   1.462 -0.0015 -0.1919  0.6210
30486SOL     OW95049   7.755   0.638   5.696 -0.2465  0.8130 -0.3336
30486SOL    HW195050   7.815   0.564   5.696 -0.9684  0.2066  0.1990
30486SOL    HW295051   7.788   0.697   5.628 -0.6260 -0.8063 -2.0040
30487SOL     OW95052   2.689   7.460   3.957  0.2733  0.3914  0.7661
30487SOL    HW195053   2.775   7.494   3.933  0.3231 -1.2786 -1.7540
30487SOL    HW295054   2.706   7.377   4.001  0.0464 -1.3487 -2.1487
30488SOL     OW95055  10.516   7.234   3.992  0.6943  0.1229  0.2582
30488SOL    HW195056  10.514   7.274   3.905 -0.0494  1.6441  0.9342
30488SOL    HW295057  10.464   7.154   3.983 -0.4428  0.9062 -0.4198
30489SOL     OW95058   0.795   1.777   4.108  0.2104 -0.1849  0.0661
30489SOL    HW195059   0.800   1.697   4.055 -0.0745  1.4456 -2.5753
30489SOL    HW295060   0.718   1.763   4.164  0.6095 -2.0421  0.2354
30490SOL     OW95061   7.313   9.299   5.192  0.2539  0.0139  0.3704
30490SOL    HW195062   7.384   9.245   5.157  0.7780  0.7715  0.2456
30490SOL    HW295063   7.237   9.241   5.191  0.3771 -0.1911 -1.4597
30491SOL     OW95064   0.482  10.660   3.937  0.5330 -0.4426  0.3220
30491SOL    HW195065   0.494  10.583   3.881 -1.3430  0.5089 -1.5340
30491SOL    HW295066   0.399  10.644   3.982  1.8116 -0.9915  2.6283
30492SOL     OW95067   4.079   2.821   8.988 -0.4499 -0.1592  0.5259
30492SOL    HW195068   3.998   2.872   8.983  0.2180  1.0002  1.0616
30492SOL    HW295069   4.083   2.792   9.079  0.6622  1.4300  1.0310
30493SOL     OW95070   5.161   2.039   2.021 -0.0188 -0.1349  0.1576
30493SOL    HW195071   5.252   2.051   2.049  0.9863 -1.3300 -2.2801
30493SOL    HW295072   5.142   1.947   2.039 -0.1922 -0.2857 -0.7465
30494SOL     OW95073   7.055   0.924   6.740  0.4407  0.4043 -0.8463
30494SOL    HW195074   7.047   0.945   6.833  2.3387  0.1440 -0.5880
30494SOL    HW295075   7.045   0.829   6.736 -2.7914  0.6571 -1.3586
30495SOL     OW95076   8.614   7.053   1.056 -0.5024  0.3320 -0.2483
30495SOL    HW195077   8.627   7.106   1.134  1.2632  0.0243 -0.2883
30495SOL    HW295078   8.588   7.115   0.988 -2.3202  0.5597  0.6227
30496SOL     OW95079   6.022   9.813   4.121 -0.4942 -0.1065 -0.1152
30496SOL    HW195080   5.999   9.745   4.185  0.8220  0.5613  1.1256
30496SOL    HW295081   5.965   9.795   4.046 -1.0724 -1.8012  0.6658
30497SOL     OW95082   1.311   3.978   0.793 -0.3742  0.4287 -0.3009
30497SOL    HW195083   1.261   3.909   0.836 -0.9030  0.5093 -0.7661
30497SOL    HW295084   1.245   4.042   0.767  0.2075  1.6893  1.1397
30498SOL     OW95085   5.242   8.300   1.045  0.1042 -0.5776  0.5752
30498SOL    HW195086   5.207   8.364   0.983 -0.6403  1.4632  2.9199
30498SOL    HW295087   5.327   8.276   1.009 -0.7284 -0.3375 -1.7392
30499SOL     OW95088   9.480   8.912   5.515 -1.1014 -0.1325 -0.7066
30499SOL    HW195089   9.431   8.991   5.537 -0.5219  0.0677 -0.1181
30499SOL    HW295090   9.441   8.844   5.569 -0.7472  0.0250 -0.2452
30500SOL     OW95091   7.685   1.727   7.562 -0.0528  0.3178  0.0465
30500SOL    HW195092   7.767   1.772   7.580  1.1541 -1.8923  0.3432
30500SOL    HW295093   7.688   1.707   7.469 -0.2931  0.2867  0.0439
30501SOL     OW95094   4.736   6.541   4.477 -0.0540  0.1756  0.5986
30501SOL    HW195095   4.662   6.562   4.533 -0.6070 -0.8050  0.2678
30501SOL    HW295096   4.773   6.461   4.514 -0.2408 -0.3152 -0.2347
30502SOL     OW95097   2.346   8.530   6.128  0.0274  0.3648  0.3129
30502SOL    HW195098   2.305   8.521   6.043 -1.6345 -0.2219  1.1310
30502SOL    HW295099   2.386   8.444   6.145 -0.3093  0.2340  0.4478
30503SOL     OW95100   4.643   3.301   1.645  0.1783  0.0801 -0.4230
30503SOL    HW195101   4.554   3.324   1.618  0.3131  0.8345 -0.2434
30503SOL    HW295102   4.639   3.295   1.740  0.3431  0.2227 -0.4067
30504SOL     OW95103  10.376   5.125   4.923  0.4526 -0.0145 -0.6149
30504SOL    HW195104  10.408   5.159   4.839  0.2883 -0.1902 -0.7503
30504SOL    HW295105  10.319   5.052   4.899 -0.0483  0.2981 -0.3664
30505SOL     OW95106   5.627   9.896   3.960 -0.0384  0.8662  0.3054
30505SOL    HW195107   5.601   9.859   3.876 -0.1794  2.8544 -0.5880
30505SOL    HW295108   5.692   9.963   3.938  1.0587  0.3856  1.9385
30506SOL     OW95109   8.088   2.378   7.118  0.7022 -0.1180  0.1094
30506SOL    HW195110   8.122   2.455   7.163  0.8413 -0.1088 -0.0119
30506SOL    HW295111   8.067   2.409   7.030  0.2430 -0.0881  0.2249
30507SOL     OW95112   2.737  10.633   8.941  0.0196 -0.4130 -0.4536
30507SOL    HW195113   2.784  10.702   8.988 -2.4674  2.0621 -1.3255
30507SOL    HW295114   2.784  10.624   8.859  0.3054  0.4230 -0.3963
30508SOL     OW95115   0.805   5.390   1.520 -0.0141 -0.3661  0.4936
30508SOL    HW195116   0.839   5.444   1.448 -0.9667 -0.0333  0.2753
30508SOL    HW295117   0.875   5.389   1.585 -0.3688  2.0633  0.9928
30509SOL     OW95118   0.861   7.435   6.831 -0.0063  0.4205 -0.2880
30509SOL    HW195119   0.838   7.342   6.831  0.7692  0.1742  1.7654
30509SOL    HW295120   0.928   7.443   6.900 -0.2803  2.5421 -0.2096
30510SOL     OW95121   6.821   1.204   5.379  0.4103  0.0218  0.3599
30510SOL    HW195122   6.887   1.137   5.366  1.3925  0.2960  3.1266
30510SOL    HW295123   6.825   1.224   5.473 -2.8794  0.8351  0.4622
30511SOL     OW95124   4.908  10.357   6.737 -0.1314 -0.0926  0.0046
30511SOL    HW195125   4.906  10.379   6.830  1.4241 -1.0837  0.3088
30511SOL    HW295126   4.852  10.279   6.730  0.7457 -0.7745  0.3614
30512SOL     OW95127   4.418   7.702   2.747  0.3415 -0.2068 -0.7380
30512SOL    HW195128   4.337   7.665   2.713  0.6771 -2.2673  0.5238
30512SOL    HW295129   4.479   7.628   2.748  1.0358  0.2786  2.0196
30513SOL     OW95130   1.966   1.599   4.409 -0.0289 -0.0224  0.2952
30513SOL    HW195131   2.029   1.654   4.455  0.0398 -0.3553  0.6014
30513SOL    HW295132   1.959   1.639   4.322  0.6361 -0.0095  0.2437
30514SOL     OW95133   0.779   9.842   8.866  0.4322  0.1192  0.2591
30514SOL    HW195134   0.703   9.899   8.855  1.0228  0.9638  0.5067
30514SOL    HW295135   0.845   9.878   8.808  0.1022 -1.6444 -1.3006
30515SOL     OW95136   5.053   2.761   0.038 -1.0432  0.0625 -0.0842
30515SOL    HW195137   5.133   2.766   0.090 -0.8123 -0.1979 -0.4100
30515SOL    HW295138   5.008   2.843   0.056 -0.9539 -0.0102  0.5029
30516SOL     OW95139   9.874   4.540   8.985 -0.2625  0.3316  0.3174
30516SOL    HW195140   9.903   4.561   9.074  1.2018 -2.9701  0.7767
30516SOL    HW295141   9.944   4.485   8.950 -2.3397 -1.2595 -1.6192
30517SOL     OW95142   3.201   5.551  10.488 -0.2593  0.2177  0.1528
30517SOL    HW195143   3.245   5.468  10.470 -1.1162 -0.0588 -0.7388
30517SOL    HW295144   3.241   5.613  10.426  0.0784  0.3818  0.5267
30518SOL     OW95145   2.644   8.990   7.065 -0.6666 -0.5471 -0.0708
30518SOL    HW195146   2.643   8.927   6.994  2.6926 -0.6540 -0.1691
30518SOL    HW295147   2.661   8.938   7.143 -0.8402 -0.0649  0.2923
30519SOL     OW95148  10.294   0.601   7.464  0.1970 -0.4958 -0.3224
30519SOL    HW195149  10.301   0.696   7.452  0.1396 -0.4175  0.2202
30519SOL    HW295150  10.294   0.566   7.375 -0.6376  0.0692 -0.5587
30520SOL     OW95151  10.397   2.177   8.229 -0.1719  0.1877 -0.0282
30520SOL    HW195152  10.359   2.142   8.148  0.5265 -0.2119 -0.1883
30520SOL    HW295153  10.365   2.118   8.298  1.8828 -1.4931 -0.4272
30521SOL     OW95154   3.315   8.093   0.188  0.1072 -0.0417 -0.0011
30521SOL    HW195155   3.354   8.032   0.251  1.3462  0.5107 -0.2012
30521SOL    HW295156   3.250   8.040   0.141  0.3807 -0.9106  0.5683
30522SOL     OW95157   6.590   8.622   5.929 -0.7676 -0.3020  0.1536
30522SOL    HW195158   6.545   8.695   5.887  0.7821  0.2820 -0.5806
30522SOL    HW295159   6.586   8.642   6.022 -1.5746 -0.0191  0.0667
30523SOL     OW95160   3.252   1.147   2.191 -0.8710 -0.1946 -0.0905
30523SOL    HW195161   3.216   1.092   2.121  1.0465 -1.3947 -0.2008
30523SOL    HW295162   3.270   1.231   2.148  1.0616 -1.1695 -1.3278
30524SOL     OW95163   3.845   1.003   9.084  0.2503  0.3962 -0.0662
30524SOL    HW195164   3.761   0.967   9.112 -0.2239 -0.1117 -2.0238
30524SOL    HW295165   3.824   1.091   9.050  0.6437  0.5949  0.1928
30525SOL     OW95166   9.309   4.354   3.133  0.3385 -0.2541 -0.1045
30525SOL    HW195167   9.213   4.352   3.142  0.4491 -0.3664  1.3038
30525SOL    HW295168   9.326   4.306   3.052 -0.7481 -1.2618  0.2219
30526SOL     OW95169   9.165  11.093   9.033 -0.4242 -0.4996 -0.0332
30526SOL    HW195170   9.235  11.035   9.063 -0.2914 -0.0086  0.6102
30526SOL    HW295171   9.151  11.154   9.105  0.4221  1.1863 -1.2419
30527SOL     OW95172   4.578  10.621   3.408  0.2548  0.0388  0.3211
30527SOL    HW195173   4.551  10.597   3.319  1.0950 -1.3475  0.4105
30527SOL    HW295174   4.498  10.613   3.460  0.2380 -1.4357  0.1022
30528SOL     OW95175   9.296   7.243  10.658  0.3723  0.5991  0.6204
30528SOL    HW195176   9.238   7.303  10.612  0.9520  0.9647  0.3472
30528SOL    HW295177   9.349   7.300  10.715  0.5604  0.2898  0.7577
30529SOL     OW95178   7.046   8.961  10.126  0.1275 -0.4800 -0.0613
30529SOL    HW195179   7.042   8.957  10.031 -1.2308  1.7402 -0.1597
30529SOL    HW295180   6.959   8.932  10.155 -0.6454  1.9531  0.2749
30530SOL     OW95181   0.341  10.394   9.325  0.3417 -0.2723  0.5194
30530SOL    HW195182   0.435  10.408   9.317  0.0987  1.1725 -0.1862
30530SOL    HW295183   0.302  10.466   9.275 -1.1466 -0.4521  1.3718
30531SOL     OW95184   4.823   2.552   8.741  0.3350 -0.2762 -0.4169
30531SOL    HW195185   4.793   2.620   8.680  1.8254  0.2891 -0.5488
30531SOL    HW295186   4.825   2.595   8.826 -0.1315 -0.5903 -0.2424
30532SOL     OW95187   8.306   1.322   1.626  0.4083  0.3771 -0.6539
30532SOL    HW195188   8.267   1.348   1.709 -3.1212 -0.5363 -1.8462
30532SOL    HW295189   8.341   1.235   1.641  1.7375  1.0478  0.3455
30533SOL     OW95190   0.010   9.281   5.398  0.0202 -0.5032 -0.0530
30533SOL    HW195191   0.066   9.230   5.340  0.2632 -1.1872  0.7516
30533SOL    HW295192  -0.026   9.350   5.343  2.0765  0.2952 -0.4885
30534SOL     OW95193   6.664   8.881   7.657 -0.2677  0.2999 -0.3984
30534SOL    HW195194   6.600   8.850   7.592  0.2416  0.8142 -1.1579
30534SOL    HW295195   6.632   8.967   7.683  0.5474  0.9217 -1.4031
30535SOL     OW95196   5.037   5.229   5.628  0.1597 -0.4213  0.0805
30535SOL    HW195197   4.952   5.272   5.627 -0.0582 -0.6999 -3.5044
30535SOL    HW295198   5.019   5.138   5.606  1.3155 -0.6641  0.0728
30536SOL     OW95199   9.974   5.279  10.085  0.3529 -0.0196  0.6163
30536SOL    HW195200   9.971   5.328  10.003 -1.6498 -1.7030 -0.3975
30536SOL    HW295201  10.048   5.318  10.133  1.4155  1.2118 -1.8256
30537SOL     OW95202   2.112   2.651   7.800  0.0244  0.1053  0.2288
30537SOL    HW195203   2.136   2.592   7.872 -1.8067 -0.8331  0.1327
30537SOL    HW295204   2.069   2.594   7.736  0.3223  1.1789 -0.9629
30538SOL     OW95205   9.178   0.167  11.062  0.0082 -0.0166 -0.4024
30538SOL    HW195206   9.128   0.238  11.102 -1.0740 -0.0508 -1.6302
30538SOL    HW295207   9.150   0.089  11.109  0.5734  0.2437  0.3864
30539SOL     OW95208   2.438  10.399   2.552 -0.2504 -0.6667  0.4925
30539SOL    HW195209   2.414  10.483   2.591  0.1971 -0.5902  0.6069
30539SOL    HW295210   2.434  10.414   2.458  0.9146 -0.1881  0.4986
30540SOL     OW95211   5.393   4.465   3.966 -0.1206  0.1938 -0.5239
30540SOL    HW195212   5.365   4.553   3.994 -0.1706 -0.2698  0.9827
30540SOL    HW295213   5.381   4.465   3.871 -0.1604  1.8035 -0.5531
30541SOL     OW95214   5.372  10.385  10.204 -0.1997 -0.3149 -0.0212
30541SOL    HW195215   5.437  10.319  10.181 -0.3286 -0.8132  0.9546
30541SOL    HW295216   5.421  10.451  10.254  0.0033  0.5433 -1.3169
30542SOL     OW95217  10.738   4.447   4.557 -0.7451 -0.0434  0.4538
30542SOL    HW195218  10.643   4.445   4.548 -0.8304 -1.9389  1.3185
30542SOL    HW295219  10.754   4.436   4.650  0.3410  1.2022  0.4551
30543SOL     OW95220   4.917   5.350   2.472 -0.7310  0.1811 -0.0968
30543SOL    HW195221   4.831   5.312   2.487 -0.6561  0.5839  1.5282
30543SOL    HW295222   4.907   5.443   2.490 -0.2187  0.4276 -1.0393
30544SOL     OW95223   5.427   1.954   1.347  0.1956  0.2916 -0.3936
30544SOL    HW195224   5.355   1.929   1.405 -0.0545  0.2313 -0.7307
30544SOL    HW295225   5.504   1.911   1.385  0.2180  1.0851  0.4805
30545SOL     OW95226   5.769   6.102   9.042  0.1497  0.2760  0.4790
30545SOL    HW195227   5.707   6.055   8.987 -0.9357  1.7067  0.4072
30545SOL    HW295228   5.849   6.050   9.039 -0.4210 -0.5647 -1.0631
30546SOL     OW95229   2.592   2.588   5.498 -0.6399 -0.5463  0.2985
30546SOL    HW195230   2.614   2.508   5.546  3.6651  0.0202 -0.2637
30546SOL    HW295231   2.565   2.556   5.412  0.1667 -1.4743  0.3608
30547SOL     OW95232   7.980   5.140  10.026 -0.2746  0.1466  0.0638
30547SOL    HW195233   8.067   5.111  10.052 -0.3632  0.2250  0.4402
30547SOL    HW295234   7.971   5.228  10.062 -0.3571  0.2990 -0.3141
30548SOL     OW95235   7.169   3.860   6.649 -0.2053 -0.0449 -0.0803
30548SOL    HW195236   7.169   3.877   6.743 -1.1713 -1.0818  0.1290
30548SOL    HW295237   7.190   3.944   6.609 -0.4660  0.5621  1.0315
30549SOL     OW95238   9.039   3.299   3.079 -0.4183  0.5770  0.1655
30549SOL    HW195239   9.076   3.251   3.153 -0.2813 -1.0051 -0.8798
30549SOL    HW295240   9.036   3.235   3.008 -1.9454  1.6281 -0.7791
30550SOL     OW95241   8.055   0.621   4.118  0.3552  0.1048  0.3116
30550SOL    HW195242   8.102   0.621   4.201  0.6039  0.3265  0.1717
30550SOL    HW295243   8.124   0.624   4.051  0.1650  3.9560  0.0837
30551SOL     OW95244   6.113   1.422   8.135 -0.4404  0.1523  0.0220
30551SOL    HW195245   6.207   1.431   8.118 -0.4190 -0.7224 -0.3978
30551SOL    HW295246   6.104   1.438   8.229 -0.0274  1.3040 -0.1190
30552SOL     OW95247   8.342   2.042   0.245  0.0810  0.2367  0.1178
30552SOL    HW195248   8.379   2.117   0.292  0.1220  0.3535 -0.1014
30552SOL    HW295249   8.408   1.974   0.254  0.3623  0.4541 -0.2961
30553SOL     OW95250   4.809   7.727   5.597 -0.2434  0.3820  0.8873
30553SOL    HW195251   4.834   7.658   5.536 -1.6819  0.4230  0.2144
30553SOL    HW295252   4.877   7.726   5.664  1.0153 -0.1039 -0.3652
30554SOL     OW95253   6.465   2.338   0.970 -0.3377 -0.4238  0.0598
30554SOL    HW195254   6.558   2.359   0.974 -0.0002 -1.6170 -0.8116
30554SOL    HW295255   6.425   2.414   0.926  0.3395 -0.2102 -0.1944
30555SOL     OW95256  10.188   3.444   9.316  0.0870  0.2472  0.1051
30555SOL    HW195257  10.118   3.470   9.376 -0.3448 -0.5846 -0.0282
30555SOL    HW295258  10.144   3.433   9.231  0.5351  0.5552 -0.1729
30556SOL     OW95259   5.835   9.597   3.232 -0.1916 -0.8847  0.3181
30556SOL    HW195260   5.840   9.615   3.138  0.5590  0.2493  0.5562
30556SOL    HW295261   5.793   9.511   3.238 -0.9662 -0.6137 -1.0129
30557SOL     OW95262   2.649   0.305   5.017  0.3255  0.1396 -0.6251
30557SOL    HW195263   2.679   0.358   5.091 -0.1611 -0.2778 -0.1248
30557SOL    HW295264   2.636   0.218   5.054  1.3265 -0.3967 -1.4846
30558SOL     OW95265   9.615   9.450  10.211 -0.3059  0.9326  0.3216
30558SOL    HW195266   9.614   9.528  10.156 -1.8128 -0.3067 -1.5337
30558SOL    HW295267   9.525   9.440  10.241 -0.0256  0.1861  0.9539
30559SOL     OW95268   7.398   6.365  10.619 -0.0463  0.3419 -0.5019
30559SOL    HW195269   7.437   6.315  10.547 -1.3818 -1.3305 -0.1468
30559SOL    HW295270   7.471   6.410  10.660  0.9434  0.1952 -2.0351
30560SOL     OW95271   1.074   0.310   2.365  0.1308 -0.3244 -0.2212
30560SOL    HW195272   1.048   0.342   2.451 -1.4706  1.9687 -1.4369
30560SOL    HW295273   1.054   0.217   2.366  1.0647 -0.5581  2.1523
30561SOL     OW95274   1.232   3.115   6.359  0.2289  0.6173 -0.3116
30561SOL    HW195275   1.161   3.098   6.297  0.3681 -0.4653 -0.1803
30561SOL    HW295276   1.189   3.156   6.434 -0.3674 -0.6394  0.0464
30562SOL     OW95277  10.926   5.848  10.873  0.0769  0.3941  0.4590
30562SOL    HW195278  10.856   5.791  10.904  1.8676 -2.2891 -0.1383
30562SOL    HW295279  10.925   5.838  10.778 -0.7107  2.9071  0.1032
30563SOL     OW95280   7.207  10.108   0.215 -0.2781 -0.2469  0.1636
30563SOL    HW195281   7.157  10.188   0.199  1.6348  1.2762  1.3432
30563SOL    HW295282   7.280  10.113   0.153 -0.0463 -0.9997  0.3746
30564SOL     OW95283   0.588   2.831   9.620  0.1563  0.1193 -0.3551
30564SOL    HW195284   0.521   2.872   9.675  1.9164  2.2315  0.3119
30564SOL    HW295285   0.552   2.835   9.531 -1.4995 -0.7746  0.2329
30565SOL     OW95286   4.241   9.296   1.982 -0.0472 -0.0764 -0.4544
30565SOL    HW195287   4.236   9.375   1.928  1.7395 -0.8028 -1.7770
30565SOL    HW295288   4.150   9.266   1.989 -0.6018  1.3648 -1.0012
30566SOL     OW95289   3.547   0.626   7.871 -0.2839  0.0962 -0.3005
30566SOL    HW195290   3.519   0.565   7.939  0.2248 -0.6207 -0.7256
30566SOL    HW295291   3.465   0.658   7.833 -0.5512 -0.7837 -0.4792
30567SOL     OW95292   6.437   6.667   1.976 -0.1917  0.2057  0.6268
30567SOL    HW195293   6.440   6.576   2.006 -0.4791  0.6563  2.0896
30567SOL    HW295294   6.344   6.686   1.965 -0.1070  0.1542 -0.2919
30568SOL     OW95295  10.042   1.663   1.006  0.3560  0.7901  0.0640
30568SOL    HW195296  10.100   1.597   0.967  1.0575  1.4971 -0.1221
30568SOL    HW295297  10.097   1.709   1.068  0.0013  1.4933 -0.1316
30569SOL     OW95298   4.630   3.585   2.188 -0.5129 -0.8650 -0.1340
30569SOL    HW195299   4.557   3.549   2.138 -0.4417 -0.8683 -0.2362
30569SOL    HW295300   4.700   3.521   2.178 -0.9009 -1.4952  1.0199
30570SOL     OW95301   6.404   4.265   1.295  0.1009  0.3396  0.7043
30570SOL    HW195302   6.309   4.254   1.303  0.0218  1.4891  1.6427
30570SOL    HW295303   6.438   4.176   1.290 -1.0075 -0.0941  0.5845
30571SOL     OW95304   9.841   9.963   8.696  0.0114 -0.4509 -0.4623
30571SOL    HW195305   9.819   9.887   8.750 -4.2937  1.0873  0.3328
30571SOL    HW295306   9.792   9.951   8.615 -0.7793  1.3909 -0.3145
30572SOL     OW95307   4.754   6.089   3.707  0.1517 -0.0972 -0.1198
30572SOL    HW195308   4.696   6.013   3.701  0.4754 -0.3928  0.4856
30572SOL    HW295309   4.817   6.076   3.636 -1.1263  0.7645 -1.4781
30573SOL     OW95310   3.997   4.838   1.961  0.0878 -0.1165  0.4150
30573SOL    HW195311   3.971   4.880   1.879  1.2589  0.1028  0.1298
30573SOL    HW295312   4.056   4.767   1.934  0.5299 -0.0027  1.0582
30574SOL     OW95313   0.505   3.503   1.878 -0.1001  0.2421  0.6313
30574SOL    HW195314   0.527   3.517   1.786 -2.8727 -1.8421 -0.4794
30574SOL    HW295315   0.482   3.590   1.910 -0.0077  0.8777 -0.9085
30575SOL     OW95316   7.434   5.053   7.461 -0.3374  0.4665  0.2281
30575SOL    HW195317   7.374   5.128   7.457 -1.0311 -0.1077 -1.5151
30575SOL    HW295318   7.496   5.069   7.390 -0.0901 -0.2896  0.2689
30576SOL     OW95319   7.667   7.521   6.178 -0.2303  0.1578 -0.2000
30576SOL    HW195320   7.588   7.473   6.203 -1.1302  1.1663 -1.0037
30576SOL    HW295321   7.635   7.594   6.125  1.2223  0.7791 -0.2738
30577SOL     OW95322   0.802   3.785   0.627 -0.0113 -0.2801 -0.1234
30577SOL    HW195323   0.744   3.854   0.595 -0.0135 -0.8619 -1.4139
30577SOL    HW295324   0.762   3.703   0.598  1.4952 -0.6889 -1.1996
30578SOL     OW95325   4.689   3.586   1.056 -0.3920  0.2065  0.2989
30578SOL    HW195326   4.680   3.491   1.052 -0.8334  0.2316  0.7004
30578SOL    HW295327   4.725   3.610   0.970 -0.6276 -0.2777  0.0624
30579SOL     OW95328   0.122   4.907  10.347 -0.3270 -0.7273  0.3421
30579SOL    HW195329   0.162   4.828  10.311 -0.2058 -0.0773 -1.0182
30579SOL    HW295330   0.180   4.978  10.319 -1.3487  0.0171  0.0550
30580SOL     OW95331   5.652   6.973   9.183  0.7477 -0.3495 -0.4427
30580SOL    HW195332   5.698   7.050   9.217 -0.3364  0.7093 -1.2839
30580SOL    HW295333   5.719   6.924   9.136  1.3858  0.2755 -0.2051
30581SOL     OW95334   6.414   6.427   8.002 -0.2118 -0.1891  0.0652
30581SOL    HW195335   6.454   6.391   7.923 -0.2429  0.0777 -0.0736
30581SOL    HW295336   6.350   6.361   8.029 -0.2047 -0.2767 -0.1331
30582SOL     OW95337   8.293   9.958   1.106  0.1349 -0.3460 -0.3160
30582SOL    HW195338   8.354   9.996   1.043  0.0420 -0.3827 -0.4280
30582SOL    HW295339   8.214   9.940   1.055 -0.3655  0.7087  0.0454
30583SOL     OW95340   8.224   1.226   8.343 -0.5669  0.1410 -0.3230
30583SOL    HW195341   8.307   1.180   8.358 -1.5351 -1.6081 -0.0898
30583SOL    HW295342   8.233   1.307   8.393  1.4145  0.5048 -1.1864
30584SOL     OW95343   8.447   5.710   0.366  0.1473  0.5086 -0.0776
30584SOL    HW195344   8.375   5.741   0.421  0.7291  1.1618  0.3372
30584SOL    HW295345   8.464   5.782   0.306 -0.5327 -0.2338 -1.1931
30585SOL     OW95346   4.670   3.477   0.295 -0.1323 -0.0598 -0.3180
30585SOL    HW195347   4.747   3.497   0.243  1.3171  1.4616  2.2262
30585SOL    HW295348   4.611   3.551   0.282 -1.3948 -1.3166 -2.4271
30586SOL     OW95349   5.135   5.036   8.378 -0.0910 -0.3799  0.3156
30586SOL    HW195350   5.147   5.113   8.321  1.2772 -1.1301 -0.4674
30586SOL    HW295351   5.064   5.061   8.437 -0.3299  1.1222 -0.5460
30587SOL     OW95352   3.792   4.113   0.843  0.0324  0.3909 -0.3098
30587SOL    HW195353   3.797   4.182   0.776 -1.1533  0.5789 -0.2350
30587SOL    HW295354   3.795   4.031   0.794  0.7926  0.5028 -0.4541
30588SOL     OW95355   5.391   9.286   1.501  0.1070 -0.2445  0.4135
30588SOL    HW195356   5.356   9.198   1.512  0.0628 -0.5250 -1.5965
30588SOL    HW295357   5.315   9.339   1.478  0.1500  0.3259  1.5049
30589SOL     OW95358   5.102   6.030   1.637 -0.5314 -0.2265  0.3174
30589SOL    HW195359   5.159   5.966   1.595  0.9035  2.2216 -1.7331
30589SOL    HW295360   5.016   5.989   1.636  0.0913 -1.6744 -1.9675
30590SOL     OW95361   8.087   2.332   8.871  0.2708  0.2487  0.5092
30590SOL    HW195362   8.072   2.273   8.945  2.1101  0.2882  0.9667
30590SOL    HW295363   8.176   2.367   8.886  0.4189  0.7636 -1.3686
30591SOL     OW95364   3.932  10.143   7.948 -0.0019  0.5526  0.0058
30591SOL    HW195365   3.966  10.139   8.038  1.3628  0.1634 -0.4990
30591SOL    HW295366   3.921  10.236   7.930  1.9636  0.7901 -0.1911
30592SOL     OW95367   6.399  10.052   3.151  0.3184  0.3426  0.3062
30592SOL    HW195368   6.346  10.125   3.119  1.1617  0.1374 -1.7613
30592SOL    HW295369   6.345   9.974   3.137  0.0477  0.3948  1.0018
30593SOL     OW95370   3.423  10.203   4.106 -0.1971 -0.3237 -0.2551
30593SOL    HW195371   3.518  10.188   4.098 -0.1114  1.0294 -4.1077
30593SOL    HW295372   3.384  10.128   4.061 -0.8502 -0.0540 -0.1482
30594SOL     OW95373  10.132  10.059   5.070 -0.1512 -0.2624 -0.3838
30594SOL    HW195374  10.109  10.021   4.986 -1.3790  0.3210 -0.3338
30594SOL    HW295375  10.227  10.048   5.077 -0.0971 -0.6679 -1.6596
30595SOL     OW95376   6.068   7.572   6.839  0.5077 -0.5123  0.6815
30595SOL    HW195377   6.122   7.525   6.776 -1.0164  1.0924 -2.0623
30595SOL    HW295378   6.072   7.664   6.810 -1.0487  0.1492  2.3316
30596SOL     OW95379   5.921   0.238   7.104  0.5521  0.4952  0.3657
30596SOL    HW195380   5.885   0.150   7.106  2.2330 -0.2135  0.7103
30596SOL    HW295381   5.924   0.266   7.195  3.6436 -0.6878  0.7345
30597SOL     OW95382   8.916   1.758   9.483  0.1502  0.3674  0.2587
30597SOL    HW195383   8.878   1.750   9.571 -1.6855 -1.4140 -0.6173
30597SOL    HW295384   8.841   1.757   9.424  1.4200 -1.8159 -1.4914
30598SOL     OW95385   9.539   5.746   2.214  0.5114 -0.1654 -0.8955
30598SOL    HW195386   9.495   5.807   2.155 -1.2112 -0.4010  0.0841
30598SOL    HW295387   9.551   5.796   2.295 -0.9090 -1.0812 -0.0885
30599SOL     OW95388   2.257   0.030   9.166  0.3665 -0.3319  0.1666
30599SOL    HW195389   2.215   0.075   9.239 -0.5945 -2.2339  0.8596
30599SOL    HW295390   2.232   0.081   9.089 -1.1636  0.0207  0.8500
30600SOL     OW95391   6.608   3.181   1.909 -0.2951 -0.0638  0.3484
30600SOL    HW195392   6.549   3.114   1.944  0.8442 -1.5772 -0.5162
30600SOL    HW295393   6.674   3.132   1.860  0.5770  1.7064 -0.3403
30601SOL     OW95394   4.474   6.498   1.174  0.7412 -0.5164 -0.5900
30601SOL    HW195395   4.484   6.417   1.224 -1.5200  0.3298  1.4730
30601SOL    HW295396   4.515   6.565   1.228 -1.8746  0.4432  0.3751
30602SOL     OW95397   8.663   5.370   1.016  0.3617  0.1036 -0.1041
30602SOL    HW195398   8.599   5.358   1.086 -0.3557  1.5681 -0.4630
30602SOL    HW295399   8.678   5.283   0.981 -0.1170 -0.4919  1.1376
30603SOL     OW95400   4.458   4.447   9.311 -0.1237  0.3584  0.2902
30603SOL    HW195401   4.487   4.509   9.244 -3.5687  0.1327 -1.6668
30603SOL    HW295402   4.465   4.362   9.268 -0.4358 -0.0070  0.9598
30604SOL     OW95403   1.842   1.225   7.566 -0.8448  0.0391 -0.4718
30604SOL    HW195404   1.895   1.254   7.492 -0.7884  1.3401  0.0544
30604SOL    HW295405   1.835   1.130   7.555  2.2397 -0.3082 -0.1222
30605SOL     OW95406   5.659   5.504   0.079  0.2390 -0.3473  0.1444
30605SOL    HW195407   5.719   5.514   0.005  0.0317  2.0601  0.2364
30605SOL    HW295408   5.717   5.492   0.155  0.5254 -0.5319 -0.1007
30606SOL     OW95409   4.323   6.651   2.465  1.1949  0.0872 -0.7092
30606SOL    HW195410   4.271   6.589   2.414  2.1808 -0.3814 -1.1761
30606SOL    HW295411   4.334   6.727   2.408  1.1350  0.1329 -0.6607
30607SOL     OW95412   6.896   3.727   0.132 -0.2441  1.1688  0.5413
30607SOL    HW195413   6.815   3.739   0.082 -0.3461  0.1600  0.4511
30607SOL    HW295414   6.897   3.800   0.194 -0.3433  2.1943 -0.6167
30608SOL     OW95415  10.818   9.292   5.225  0.4607 -0.6742  0.4878
30608SOL    HW195416  10.897   9.345   5.219  0.8553 -1.4400 -1.9085
30608SOL    HW295417  10.815   9.243   5.143 -2.3279 -0.9123  0.6262
30609SOL     OW95418   9.243   7.723  10.361  0.1484 -0.3023 -0.1620
30609SOL    HW195419   9.183   7.688  10.294  0.7918 -1.8761  0.0490
30609SOL    HW295420   9.188   7.736  10.438 -0.0252 -1.2304 -0.1282
30610SOL     OW95421   7.739   1.617   3.057  0.2487 -0.1703  0.2571
30610SOL    HW195422   7.756   1.523   3.070  0.1897 -0.3586 -0.9274
30610SOL    HW295423   7.752   1.631   2.963  2.2676  1.4357  0.7071
30611SOL     OW95424   7.596   9.910   6.105 -0.1979 -0.1160  0.3598
30611SOL    HW195425   7.519   9.881   6.154 -0.4297 -0.6493 -0.3026
30611SOL    HW295426   7.575   9.998   6.076 -2.2617 -1.5262 -3.1037
30612SOL     OW95427   4.900   3.464   8.270  0.1978  0.7445  0.4419
30612SOL    HW195428   4.845   3.419   8.206  1.4240  0.1479 -0.2370
30612SOL    HW295429   4.844   3.533   8.306 -1.3754 -0.5883  0.6877
30613SOL     OW95430   6.637   5.251   8.085 -0.0178 -0.0209  0.3173
30613SOL    HW195431   6.687   5.262   8.005  0.1055  0.5513  0.4684
30613SOL    HW295432   6.595   5.336   8.099 -1.1760 -0.5302  0.0980
30614SOL     OW95433  10.188   6.109   7.419 -0.1620  0.4834 -0.0101
30614SOL    HW195434  10.277   6.127   7.449  0.3937 -0.7812 -0.8255
30614SOL    HW295435  10.140   6.086   7.499  0.2268  1.1616  0.4330
30615SOL     OW95436   4.597   3.011   1.210  0.2545 -0.2054  0.6803
30615SOL    HW195437   4.640   2.963   1.139 -0.7511 -0.2331  0.0695
30615SOL    HW295438   4.620   3.103   1.194  1.7687 -0.3873  1.5646
30616SOL     OW95439   6.504   6.032  10.547  0.2186 -0.3721 -0.2467
30616SOL    HW195440   6.455   5.967  10.496 -0.4301  0.0990 -0.2350
30616SOL    HW295441   6.443   6.060  10.615  0.8207 -0.4359  0.3270
30617SOL     OW95442   7.790  11.050   3.369  0.3158  0.1776 -0.2118
30617SOL    HW195443   7.708  11.091   3.398  0.5791  1.3876 -1.1009
30617SOL    HW295444   7.767  10.957   3.358 -0.9468  0.4978 -0.4837
30618SOL     OW95445   2.195   9.457   3.684  0.1356 -0.6242 -0.2657
30618SOL    HW195446   2.268   9.493   3.633  0.9142 -1.3682  0.2995
30618SOL    HW295447   2.223   9.368   3.707  0.2100 -0.0404  2.1968
30619SOL     OW95448   5.573   9.318   9.367  0.2504 -0.4431  1.1856
30619SOL    HW195449   5.558   9.267   9.288 -0.7592 -1.4260  1.9637
30619SOL    HW295450   5.667   9.312   9.383  0.9170  1.8724 -1.2646
30620SOL     OW95451   1.272   9.657   4.397  0.4026  0.3182  0.0265
30620SOL    HW195452   1.190   9.640   4.351  0.1184  1.8685 -0.0878
30620SOL    HW295453   1.277   9.753   4.404  0.3164  0.1859  3.4346
30621SOL     OW95454   5.839   8.747   6.576  0.0854 -0.3125 -0.3798
30621SOL    HW195455   5.849   8.797   6.495 -1.0360  0.7921  0.1485
30621SOL    HW295456   5.767   8.686   6.559  0.9466 -1.2594 -0.7595
30622SOL     OW95457   0.400  10.480   5.994  0.4417 -0.6979  0.2806
30622SOL    HW195458   0.353  10.404   6.028 -1.0748  0.6409  1.3252
30622SOL    HW295459   0.480  10.484   6.045  0.8862 -1.9846 -0.2822
30623SOL     OW95460   6.550  10.568   5.825 -0.2431 -0.0431 -0.3563
30623SOL    HW195461   6.612  10.523   5.883  0.4596 -0.1909 -1.1910
30623SOL    HW295462   6.584  10.658   5.820 -1.2089  0.4003  0.7049
30624SOL     OW95463   7.095   2.169  10.854  0.1931 -0.2580  0.5768
30624SOL    HW195464   7.011   2.177  10.899  0.3021  0.3838  0.6731
30624SOL    HW295465   7.090   2.084  10.808 -1.4034  0.7435 -1.2691
30625SOL     OW95466   5.635   1.067   5.286  0.1979  0.0507 -0.0377
30625SOL    HW195467   5.578   0.990   5.281 -0.6244  0.6862 -0.7673
30625SOL    HW295468   5.712   1.043   5.234 -0.5767  0.1404 -1.2527
30626SOL     OW95469   5.562  10.668   7.404 -0.3157 -0.0610  0.2238
30626SOL    HW195470   5.506  10.605   7.449 -0.6156  2.3343  3.6231
30626SOL    HW295471   5.639  10.676   7.459 -1.2461  3.9635  1.2873
30627SOL     OW95472   7.512   5.121   2.147  0.2806 -0.9038  0.2045
30627SOL    HW195473   7.418   5.122   2.160 -0.1203 -0.5216 -2.2252
30627SOL    HW295474   7.546   5.185   2.210 -1.3675  0.8428 -0.5921
30628SOL     OW95475   5.178   1.724   7.452 -0.1280  0.0056 -0.3013
30628SOL    HW195476   5.092   1.702   7.415 -0.5558 -0.7547  1.0482
30628SOL    HW295477   5.161   1.734   7.546  1.1653  0.3946 -0.0942
30629SOL     OW95478   8.479   2.219   0.422  0.4672 -0.2048  0.1935
30629SOL    HW195479   8.525   2.165   0.486  1.3241  0.0387 -0.1932
30629SOL    HW295480   8.404   2.255   0.470  0.8411 -0.3866  0.9288
30630SOL     OW95481   2.271   0.426   9.493  0.1803 -0.1023  0.0866
30630SOL    HW195482   2.305   0.434   9.582 -0.1666  1.8196  0.0772
30630SOL    HW295483   2.185   0.468   9.496  0.9925  1.8457 -1.5874
30631SOL     OW95484   1.805   1.820   0.862 -0.2063  0.4430  0.3710
30631SOL    HW195485   1.865   1.803   0.789 -0.1161 -0.5524  0.6597
30631SOL    HW295486   1.818   1.746   0.921 -0.9461  0.7684  0.9563
30632SOL     OW95487   9.851   7.495   3.780  0.3993  0.0456  0.2209
30632SOL    HW195488   9.818   7.584   3.790  1.7916  0.4162  2.1269
30632SOL    HW295489   9.858   7.462   3.870 -1.3923 -2.5251 -0.4899
30633SOL     OW95490   1.094   1.645   1.985 -0.2671  0.4741 -0.2525
30633SOL    HW195491   1.046   1.598   1.917 -1.3452 -0.5119  1.1542
30633SOL    HW295492   1.079   1.596   2.065  1.9086  0.9696  0.5406
30634SOL     OW95493   5.736   8.243   2.507  0.3671  0.2715 -0.1930
30634SOL    HW195494   5.712   8.190   2.583 -0.8874 -1.1756 -1.5374
30634SOL    HW295495   5.683   8.323   2.517 -0.6364 -0.3863 -0.1079
30635SOL     OW95496   1.485   8.473   7.887 -0.1291 -0.3386  0.0465
30635SOL    HW195497   1.400   8.516   7.898 -0.5256 -0.8659 -0.7670
30635SOL    HW295498   1.482   8.440   7.797  1.6170  1.0955 -0.5759
30636SOL     OW95499   4.202   2.440   1.356 -0.1217  0.1176 -0.1384
30636SOL    HW195500   4.110   2.467   1.355 -0.0781  0.6254  2.5373
30636SOL    HW295501   4.244   2.494   1.290 -1.6057  0.3280 -0.9610
30637SOL     OW95502   3.087   2.486   7.834  0.1062 -0.4241  0.1254
30637SOL    HW195503   3.023   2.421   7.862 -0.3168 -0.2010 -0.3180
30637SOL    HW295504   3.171   2.449   7.860 -0.1456 -1.0470  0.0737
30638SOL     OW95505   2.134   3.277   0.874 -0.0229 -0.0346 -0.3350
30638SOL    HW195506   2.074   3.236   0.937 -0.0828 -0.6242 -0.7674
30638SOL    HW295507   2.134   3.217   0.799 -0.7421  1.1601 -1.3333
30639SOL     OW95508   8.153   9.234   5.362  0.2470  0.2205  0.3226
30639SOL    HW195509   8.185   9.266   5.278  2.0788 -0.6703  0.6112
30639SOL    HW295510   8.216   9.267   5.426 -1.4566  1.4030  1.4695
30640SOL     OW95511   8.903   9.331   1.116  0.1711 -0.3028 -0.4163
30640SOL    HW195512   8.972   9.265   1.107  1.6756  1.3647 -1.6576
30640SOL    HW295513   8.948   9.412   1.135 -1.2769  1.1051 -2.4971
30641SOL     OW95514  11.057   3.698   5.351  0.9155  0.2912 -0.3683
30641SOL    HW195515  11.044   3.612   5.390 -0.7253 -1.0030 -3.3985
30641SOL    HW295516  11.135   3.733   5.394  1.8468 -2.8409  0.7190
30642SOL     OW95517   1.423  10.283   4.389  0.2675 -0.0783  0.3841
30642SOL    HW195518   1.386  10.220   4.327  0.5403  0.5686 -0.4605
30642SOL    HW295519   1.354  10.349   4.400  0.5197  0.2333  0.1287
30643SOL     OW95520   7.496   5.929   7.945  0.0482  0.1120  0.1802
30643SOL    HW195521   7.511   6.020   7.922  1.3679 -0.3060 -0.7422
30643SOL    HW295522   7.425   5.901   7.888  0.6145  0.1863 -0.5796
30644SOL     OW95523   5.913   9.555   3.506 -0.0309  0.2142  0.3468
30644SOL    HW195524   5.844   9.496   3.473 -0.8081  0.5155  1.3695
30644SOL    HW295525   5.991   9.531   3.456 -1.1825  0.8072 -1.8522
30645SOL     OW95526   7.690   7.763   5.381 -0.4111  0.1439  0.0704
30645SOL    HW195527   7.625   7.758   5.451  0.8896  1.1626  1.4082
30645SOL    HW295528   7.727   7.851   5.388 -1.1067  0.7599 -2.7461
30646SOL     OW95529   3.907   6.960   0.276 -0.7204  0.0736 -0.5210
30646SOL    HW195530   3.925   7.048   0.308 -1.2438  0.1193 -0.3421
30646SOL    HW295531   3.962   6.903   0.330  0.5636  0.3836 -1.4683
30647SOL     OW95532   1.174   6.766   4.393  0.0149 -0.3073 -0.3462
30647SOL    HW195533   1.134   6.792   4.310 -2.5181 -0.8178  0.6096
30647SOL    HW295534   1.122   6.691   4.422  0.6086  0.0544  1.8727
30648SOL     OW95535   5.439   5.372   7.735  0.3595  0.5087  0.2333
30648SOL    HW195536   5.427   5.376   7.640  1.6669  2.1120  0.0763
30648SOL    HW295537   5.442   5.464   7.762  3.3130  0.1997  1.3367
30649SOL     OW95538   5.004  10.010   9.882  0.3098  0.4084 -0.4038
30649SOL    HW195539   5.059  10.045   9.953  1.2651 -1.1431 -0.3051
30649SOL    HW295540   4.922   9.985   9.925  0.9246 -0.6250  0.2324
30650SOL     OW95541   2.797   8.455   6.901  0.1611  0.9981  0.4122
30650SOL    HW195542   2.848   8.398   6.844 -1.7281  0.8073 -1.1804
30650SOL    HW295543   2.852   8.532   6.913  2.3309 -0.6642  1.7868
30651SOL     OW95544   4.906  11.005   4.039  0.2728 -0.1054 -0.2424
30651SOL    HW195545   4.980  11.042   3.991  0.1366  0.4999  0.0073
30651SOL    HW295546   4.913  11.042   4.127 -0.9517  0.8537 -0.5192
30652SOL     OW95547   4.439   0.371   8.288 -0.2675  0.4239 -0.2428
30652SOL    HW195548   4.432   0.328   8.374 -0.0514  1.4040  0.2770
30652SOL    HW295549   4.466   0.301   8.228 -2.8183 -0.8645 -0.0247
30653SOL     OW95550   9.245   5.691   6.014 -0.0766  0.6110  0.9024
30653SOL    HW195551   9.260   5.597   6.005 -1.5895  0.4026  0.2195
30653SOL    HW295552   9.225   5.703   6.107 -0.4042  0.1648  0.8945
30654SOL     OW95553   6.270   9.804   0.938 -0.3438  0.3065 -0.0629
30654SOL    HW195554   6.187   9.761   0.960 -1.0584  1.2928 -0.7425
30654SOL    HW295555   6.303   9.754   0.863  0.1521 -0.6496  0.7715
30655SOL     OW95556   9.129   5.679   7.448  0.4124 -0.0001  0.1407
30655SOL    HW195557   9.185   5.707   7.520  0.2818 -1.0699  0.6760
30655SOL    HW295558   9.041   5.703   7.475  0.5887  1.8470 -0.7813
30656SOL     OW95559  10.747   1.272   6.027 -0.3797 -0.4788 -0.1170
30656SOL    HW195560  10.700   1.347   6.064  1.2636  0.9750 -0.8068
30656SOL    HW295561  10.686   1.235   5.964 -2.0871 -1.1819  1.8627
30657SOL     OW95562   0.682   4.411   6.608 -0.6635  0.5659  0.1068
30657SOL    HW195563   0.613   4.471   6.634 -0.3958  0.2849  1.5203
30657SOL    HW295564   0.752   4.467   6.575 -0.3923  1.0478  1.4622
30658SOL     OW95565   2.389  10.256   2.034  0.2129  0.4543 -0.1883
30658SOL    HW195566   2.314  10.251   1.974 -0.5955 -0.0710  0.8185
30658SOL    HW295567   2.458  10.298   1.984 -1.6365  3.7026 -0.2709
30659SOL     OW95568   6.349   0.679   6.539  0.4287 -0.1502  0.5370
30659SOL    HW195569   6.342   0.703   6.447  0.8234  1.9755  1.0010
30659SOL    HW295570   6.270   0.629   6.558 -0.1877  0.3564 -0.6754
30660SOL     OW95571   6.924   6.697   3.656 -0.0956 -0.1025  0.0105
30660SOL    HW195572   6.987   6.636   3.694 -1.8731 -1.8270  0.3239
30660SOL    HW295573   6.922   6.770   3.718 -0.9648 -1.6396  1.9093
30661SOL     OW95574   0.063   8.685   8.521  0.0186 -0.0620  0.0207
30661SOL    HW195575  -0.023   8.704   8.559  0.8365  0.4421  1.7340
30661SOL    HW295576   0.105   8.627   8.585  1.3999  0.6730 -0.1777
30662SOL     OW95577   7.892   6.571   9.980 -0.6515  0.1814 -0.0579
30662SOL    HW195578   7.835   6.567   9.903  0.1311 -0.2157 -0.6315
30662SOL    HW295579   7.873   6.491  10.028 -0.1585 -0.2487 -0.5630
30663SOL     OW95580   6.137   4.165   2.630 -0.4266 -0.3385  0.4172
30663SOL    HW195581   6.168   4.086   2.675 -0.4469  0.2258  1.4600
30663SOL    HW295582   6.065   4.196   2.684 -0.8268  0.0585 -0.3316
30664SOL     OW95583   8.249   3.841   1.950 -0.6139 -0.0309  0.0092
30664SOL    HW195584   8.179   3.823   2.012 -0.0536 -1.6745  0.2366
30664SOL    HW295585   8.324   3.792   1.985  0.4271  1.0683 -0.6269
30665SOL     OW95586   6.062   0.336   4.802  0.1095 -0.4672  0.2868
30665SOL    HW195587   5.972   0.360   4.780  0.4035 -0.7725 -1.3960
30665SOL    HW295588   6.054   0.274   4.874 -0.9018  0.9333  1.4531
30666SOL     OW95589   1.675   3.503  11.077 -0.6201 -0.2634 -0.1981
30666SOL    HW195590   1.636   3.582  11.116  0.5165  1.0585 -1.6075
30666SOL    HW295591   1.600   3.454  11.042 -1.2201  1.1299 -0.9480
30667SOL     OW95592   5.584   4.726   2.403  0.0056 -0.6620 -0.0746
30667SOL    HW195593   5.591   4.713   2.309 -0.6222  0.6116 -0.3115
30667SOL    HW295594   5.500   4.770   2.416  1.1975  1.5223  0.8061
30668SOL     OW95595   3.786   1.453   0.461  0.4201 -0.2483 -0.4121
30668SOL    HW195596   3.836   1.534   0.473 -0.3712  0.1633  0.2131
30668SOL    HW295597   3.731   1.447   0.539  0.5823 -1.4827 -0.3727
30669SOL     OW95598   7.427   0.010   4.284 -0.3720  0.1556 -0.4461
30669SOL    HW195599   7.451   0.085   4.229 -0.5820 -0.5500 -1.5266
30669SOL    HW295600   7.492   0.009   4.353 -0.4216  1.3934 -0.3608
30670SOL     OW95601   1.312   4.414   8.969  0.0715 -0.1827  0.1098
30670SOL    HW195602   1.298   4.319   8.965 -0.9288 -0.0198 -3.1521
30670SOL    HW295603   1.354   4.428   9.054  1.2256 -3.6533  0.2772
30671SOL     OW95604   0.375   1.516   1.725  0.2349 -0.0391  0.1827
30671SOL    HW195605   0.296   1.566   1.745 -0.7005 -0.9786 -1.0303
30671SOL    HW295606   0.357   1.429   1.760 -0.4334 -1.0227 -2.3906
30672SOL     OW95607   6.898   0.747   8.333  0.1573 -0.1305  0.2470
30672SOL    HW195608   6.966   0.804   8.297  0.0236  0.2437  0.5883
30672SOL    HW295609   6.934   0.718   8.418 -0.3576  0.5419  0.7032
30673SOL     OW95610   0.412   8.893   5.411 -0.0558 -0.3065  0.7337
30673SOL    HW195611   0.327   8.937   5.418  0.0285 -0.1888  1.0468
30673SOL    HW295612   0.437   8.875   5.502  0.3877 -0.0908  0.6550
30674SOL     OW95613   3.851   5.586   2.688 -0.4973  0.0859  0.1246
30674SOL    HW195614   3.784   5.530   2.727 -0.9313  0.5570  0.0730
30674SOL    HW295615   3.934   5.545   2.711 -0.8216 -0.8464 -0.3357
30675SOL     OW95616   7.056   5.802   7.247 -0.0767 -0.5650  0.4940
30675SOL    HW195617   6.972   5.800   7.293  0.3112 -0.5067  1.2016
30675SOL    HW295618   7.037   5.761   7.162 -0.3903 -2.2882  1.3517
30676SOL     OW95619   7.352   7.327   8.425  0.3078 -0.7485 -0.1887
30676SOL    HW195620   7.430   7.298   8.473 -0.9482 -1.8384  1.2760
30676SOL    HW295621   7.325   7.407   8.469  2.1611  1.2950 -2.4907
30677SOL     OW95622   6.362   0.715   2.771 -0.3445  0.6313 -0.1836
30677SOL    HW195623   6.361   0.784   2.837  1.7609  0.5705 -0.0141
30677SOL    HW295624   6.315   0.752   2.696 -3.1321  0.5542  1.4111
30678SOL     OW95625   2.849  10.785   2.517  0.2744  0.1587 -0.4032
30678SOL    HW195626   2.769  10.773   2.467  0.0095 -1.1553  0.2943
30678SOL    HW295627   2.848  10.877   2.543 -1.6391 -0.1099  0.6298
30679SOL     OW95628   1.113   4.377   5.257  0.2717 -0.2307  0.7973
30679SOL    HW195629   1.080   4.425   5.181 -0.3043 -1.1251  0.4667
30679SOL    HW295630   1.171   4.310   5.221  0.6351 -0.1446  1.2099
30680SOL     OW95631   9.213   5.052   1.245 -0.6878 -0.5312 -0.1455
30680SOL    HW195632   9.291   5.106   1.235 -0.2744 -1.1152 -0.1325
30680SOL    HW295633   9.152   5.085   1.179  0.1553 -1.0909 -1.2289
30681SOL     OW95634   4.785   2.664   9.021  0.3033 -0.3798  0.5699
30681SOL    HW195635   4.810   2.757   9.030  0.7618 -0.3009 -1.1400
30681SOL    HW295636   4.816   2.623   9.102  0.5477  0.8634  1.1335
30682SOL     OW95637   2.486   4.010   6.515 -0.6158  0.0131  0.7790
30682SOL    HW195638   2.447   3.956   6.446  0.8930  0.7467 -0.7063
30682SOL    HW295639   2.553   3.954   6.554 -1.3670 -0.3481  1.5811
30683SOL     OW95640   2.441   8.647   0.154 -0.1237 -0.2268  0.2245
30683SOL    HW195641   2.490   8.569   0.129 -1.6522 -1.1360 -0.0344
30683SOL    HW295642   2.428   8.638   0.248  0.2199  0.0437  0.3028
30684SOL     OW95643   9.718   2.079   9.046 -0.0407  0.2309 -0.2000
30684SOL    HW195644   9.671   2.098   8.965 -0.6220 -1.0514 -0.1907
30684SOL    HW295645   9.654   2.031   9.099  1.1408 -1.2242 -0.0334
30685SOL     OW95646   0.714   0.334   4.558 -0.0961  0.5644 -0.1520
30685SOL    HW195647   0.798   0.292   4.539  0.2841  1.1371  0.2383
30685SOL    HW295648   0.659   0.264   4.594 -0.0784 -0.0094 -1.2059
30686SOL     OW95649   3.265   5.996   9.496 -0.0108 -0.6595 -0.0866
30686SOL    HW195650   3.184   5.978   9.448 -0.1079 -0.5193  0.0242
30686SOL    HW295651   3.239   6.058   9.564  0.6187  1.1789 -1.4474
30687SOL     OW95652   8.043   9.180   4.564  0.7913 -0.0440 -0.2324
30687SOL    HW195653   8.113   9.175   4.630 -0.9014 -0.2991  1.6574
30687SOL    HW295654   8.036   9.092   4.528  0.6862 -0.3154  0.4375
30688SOL     OW95655   2.810   7.676  10.902  0.1906 -0.1928 -0.1678
30688SOL    HW195656   2.745   7.705  10.967 -0.8789  0.1775 -1.3719
30688SOL    HW295657   2.809   7.580  10.909  0.9187 -0.1243  1.1341
30689SOL     OW95658   6.652   9.684   3.225  0.2115 -0.1354 -0.2831
30689SOL    HW195659   6.608   9.663   3.308  1.3135 -0.3518  0.2647
30689SOL    HW295660   6.745   9.672   3.244  0.5051  0.2278 -1.4427
30690SOL     OW95661   5.518   4.886   9.750  0.0138  0.1382 -0.5650
30690SOL    HW195662   5.427   4.904   9.773 -0.1106 -0.3297 -0.6663
30690SOL    HW295663   5.518   4.882   9.654  0.4404  1.6333 -0.6446
30691SOL     OW95664   5.046   2.587   4.200  0.8075 -0.2257  0.4388
30691SOL    HW195665   5.026   2.605   4.109  1.2058 -2.1561 -0.0626
30691SOL    HW295666   5.142   2.589   4.205  0.8731 -1.7743  0.4042
30692SOL     OW95667   7.184   6.050   1.020  0.1916  0.8560  0.8805
30692SOL    HW195668   7.190   5.964   0.979  0.6976  1.1788  0.2559
30692SOL    HW295669   7.095   6.055   1.054  0.1024  0.1630  0.7468
30693SOL     OW95670   8.223  10.317   6.081 -0.2779 -0.1203  1.1019
30693SOL    HW195671   8.160  10.378   6.043 -0.2333 -0.5647  0.3038
30693SOL    HW295672   8.171  10.261   6.138 -0.5701 -0.3254  0.6364
30694SOL     OW95673   7.935   1.545   0.785  0.8338  0.4554  0.0555
30694SOL    HW195674   7.860   1.563   0.729  0.1011 -3.5164 -0.4883
30694SOL    HW295675   8.004   1.516   0.725  1.5643  0.4753  0.8589
30695SOL     OW95676   6.041   7.728   1.882 -0.7891  0.6161 -0.2605
30695SOL    HW195677   6.054   7.798   1.818 -3.0373  0.4862 -0.9499
30695SOL    HW295678   5.976   7.764   1.943 -0.7426 -0.2782  0.3326
30696SOL     OW95679   3.848   4.771   9.417 -0.0351 -0.6951 -0.0380
30696SOL    HW195680   3.843   4.782   9.512  0.0280 -1.8559  0.1212
30696SOL    HW295681   3.878   4.681   9.406  0.0965 -0.5205 -1.1637
30697SOL     OW95682   3.564   7.490   3.836 -0.0196  0.1914 -0.3278
30697SOL    HW195683   3.608   7.567   3.803  0.2569  0.4255  0.5562
30697SOL    HW295684   3.521   7.519   3.917 -1.9169  0.0130 -1.2113
30698SOL     OW95685   7.218   6.892   9.227  0.0919 -0.4481 -0.2285
30698SOL    HW195686   7.216   6.820   9.290 -1.6277 -0.7668 -0.5919
30698SOL    HW295687   7.181   6.855   9.147  0.2372  0.5422 -0.7721
30699SOL     OW95688  10.122   4.760   8.205  0.2661  0.3180 -0.0966
30699SOL    HW195689  10.207   4.717   8.210 -0.3832 -1.3694 -2.1849
30699SOL    HW295690  10.135   4.833   8.145  0.1868 -0.1650 -0.7142
30700SOL     OW95691   1.879   4.378   7.831  0.1848 -0.4986  0.3587
30700SOL    HW195692   1.915   4.428   7.904  0.2629  0.9269 -0.6045
30700SOL    HW295693   1.886   4.286   7.858  1.8674 -0.1085  1.4026
30701SOL     OW95694  11.058   0.025   9.278  0.1876 -0.4608 -0.5234
30701SOL    HW195695  10.985  -0.025   9.315 -0.2419  0.4255 -0.1199
30701SOL    HW295696  11.136  -0.023   9.304 -0.2707 -2.0165 -1.8713
30702SOL     OW95697   4.989   5.674   6.355  0.4662  0.4287 -0.0311
30702SOL    HW195698   5.011   5.758   6.316  0.6854  0.3220 -0.1314
30702SOL    HW295699   4.896   5.662   6.335  0.0713  1.2966  1.1555
30703SOL     OW95700   2.539  10.158   7.505  0.3481 -0.4031  0.1324
30703SOL    HW195701   2.567  10.079   7.552 -1.7078 -1.4748 -0.3170
30703SOL    HW295702   2.444  10.159   7.514  0.1430  0.9378 -1.5600
30704SOL     OW95703   3.266   4.887   8.204  0.3922  0.1943  0.0559
30704SOL    HW195704   3.268   4.827   8.278 -0.0210  1.2420  0.9478
30704SOL    HW295705   3.264   4.831   8.127  0.9345 -0.9191  0.8276
30705SOL     OW95706   7.355   4.145   1.651  0.0231 -0.4135  0.2997
30705SOL    HW195707   7.354   4.058   1.611 -0.2683 -0.5905  0.6931
30705SOL    HW295708   7.378   4.130   1.742  1.7910  0.0927 -0.0178
30706SOL     OW95709   8.421   4.712   0.640 -0.4393  0.5752 -0.3086
30706SOL    HW195710   8.417   4.627   0.596  1.1861  0.2023  0.1640
30706SOL    HW295711   8.422   4.690   0.733 -0.8967  1.1674 -0.1643
30707SOL     OW95712   7.979   7.507   0.735 -0.4112 -0.0882  0.7008
30707SOL    HW195713   8.009   7.588   0.694 -1.3919 -0.1714 -0.2191
30707SOL    HW295714   8.043   7.441   0.708 -0.0478  0.2144  0.8102
30708SOL     OW95715   2.966   3.130   6.180 -0.4962  0.6459 -0.1849
30708SOL    HW195716   2.969   3.192   6.253 -1.6382  1.2048 -0.5798
30708SOL    HW295717   2.972   3.044   6.221  0.3178  0.9766  0.4365
30709SOL     OW95718   6.466   7.451   6.291  0.1856  0.0386  0.3327
30709SOL    HW195719   6.390   7.508   6.292  1.4443  1.8298 -0.6804
30709SOL    HW295720   6.500   7.458   6.201  0.9402 -1.5662  0.4498
30710SOL     OW95721   2.551   2.553   0.612 -0.1903  0.2460 -0.2555
30710SOL    HW195722   2.519   2.626   0.665 -2.0821 -0.4782 -0.3578
30710SOL    HW295723   2.483   2.486   0.618  0.3883 -0.5802 -2.1241
30711SOL     OW95724   8.380   8.389  10.686 -0.2448 -0.3004  0.1617
30711SOL    HW195725   8.367   8.368  10.778 -2.5405  1.6595  0.3719
30711SOL    HW295726   8.316   8.335  10.640 -0.0798 -0.2150 -0.1727
30712SOL     OW95727  10.079   0.057   7.666  0.3221 -0.0348  0.0747
30712SOL    HW195728   9.991   0.095   7.662  0.2301 -0.3154 -0.8563
30712SOL    HW295729  10.123   0.106   7.735 -0.6529 -0.0803  0.7589
30713SOL     OW95730  10.517   7.685   0.740  0.2057 -0.2053  0.2199
30713SOL    HW195731  10.425   7.710   0.745 -0.3592 -2.1686  1.0015
30713SOL    HW295732  10.556   7.721   0.820  0.5511  2.0224 -0.8957
30714SOL     OW95733  10.579   1.432   8.686 -0.4501 -0.6623  0.0274
30714SOL    HW195734  10.503   1.426   8.745 -1.9570 -3.3990 -1.9438
30714SOL    HW295735  10.633   1.357   8.710  2.0527  1.5398  1.7445
30715SOL     OW95736   2.171   2.629   3.991  0.0758  0.6297  0.0405
30715SOL    HW195737   2.251   2.668   4.027 -0.2354 -0.2801  1.8461
30715SOL    HW295738   2.104   2.695   4.002  0.1686  0.6768  0.3137
30716SOL     OW95739   4.928   8.533   5.267 -0.3492  0.6000  0.1885
30716SOL    HW195740   4.843   8.505   5.233  0.1480  1.1583 -1.6294
30716SOL    HW295741   4.984   8.456   5.259 -0.3151  0.6415  0.0197
30717SOL     OW95742   3.279   0.088  10.537 -0.2815 -0.0804  0.5193
30717SOL    HW195743   3.282   0.049  10.450 -0.6762 -1.6326  1.1535
30717SOL    HW295744   3.295   0.181  10.523  0.6413 -0.4472 -1.0958
30718SOL     OW95745   4.232   3.583   4.185 -0.2301 -0.1867  0.0426
30718SOL    HW195746   4.246   3.575   4.090 -0.7001 -1.4246  0.0686
30718SOL    HW295747   4.274   3.506   4.222  0.3167  0.5122  0.8973
30719SOL     OW95748   1.226   5.841   1.886  0.3796 -0.9495 -0.2576
30719SOL    HW195749   1.201   5.872   1.973  2.5560 -0.0088  0.1023
30719SOL    HW295750   1.145   5.841   1.836 -0.9996 -1.7557  1.8066
30720SOL     OW95751   2.145   9.079  10.260  0.1397 -0.1200  0.0997
30720SOL    HW195752   2.103   9.147  10.313 -1.0534 -0.6518 -0.1202
30720SOL    HW295753   2.117   8.997  10.299 -0.2898 -0.5141 -0.9864
30721SOL     OW95754   5.436   4.390   1.378 -0.1487 -0.1113 -0.3580
30721SOL    HW195755   5.365   4.420   1.322 -1.2139  0.0770  1.0312
30721SOL    HW295756   5.482   4.324   1.326 -0.2008  1.0541 -1.9605
30722SOL     OW95757   3.900   0.264   0.463 -0.3540  0.6230  0.1489
30722SOL    HW195758   3.911   0.273   0.368 -2.1402 -0.7939 -0.2436
30722SOL    HW295759   3.984   0.229   0.493  0.2387  1.0813 -0.9107
30723SOL     OW95760   1.638   8.601  10.239  0.2489 -0.7001 -0.4674
30723SOL    HW195761   1.554   8.577  10.199  0.0771  1.4982 -1.6162
30723SOL    HW295762   1.627   8.580  10.332 -2.0018  0.3977 -0.4037
30724SOL     OW95763   8.353   4.863  10.839 -0.5011 -0.6043 -0.0441
30724SOL    HW195764   8.319   4.924  10.774 -1.7482 -0.9516  0.2539
30724SOL    HW295765   8.433   4.905  10.872 -0.6830  0.2864 -0.6996
30725SOL     OW95766   2.175   5.478   3.447 -0.5940  0.2786  0.2770
30725SOL    HW195767   2.181   5.459   3.354 -0.2276 -1.4607  0.6254
30725SOL    HW295768   2.258   5.523   3.468 -0.0977 -0.5068  0.0171
30726SOL     OW95769   6.427   7.185   2.611  0.0894 -0.3501 -0.2948
30726SOL    HW195770   6.369   7.247   2.654 -1.8354 -2.7326  0.7958
30726SOL    HW295771   6.401   7.188   2.519  0.2799  0.7139 -0.3165
30727SOL     OW95772   9.201   7.766   7.125  0.2592  0.2799  0.2051
30727SOL    HW195773   9.220   7.686   7.077  1.0990  0.2556  0.5561
30727SOL    HW295774   9.282   7.786   7.172  0.7116  2.3917 -1.3551
30728SOL     OW95775   6.923  10.906   6.731 -0.2724  0.5166  0.8744
30728SOL    HW195776   6.835  10.944   6.726 -1.5309 -2.2989 -0.5318
30728SOL    HW295777   6.946  10.912   6.824 -1.3688  2.4237  1.0812
30729SOL     OW95778   6.650  10.816   5.794 -0.1661  0.2206 -0.2919
30729SOL    HW195779   6.696  10.836   5.875  0.9707  1.1314 -1.1193
30729SOL    HW295780   6.598  10.894   5.776 -0.8461 -0.1943 -0.1725
30730SOL     OW95781   7.312   8.633  10.557 -0.1954  0.2284  0.4750
30730SOL    HW195782   7.267   8.549  10.554 -0.1807  0.2471 -0.4954
30730SOL    HW295783   7.334   8.653  10.466  1.3990  0.4278  0.8687
30731SOL     OW95784   7.612   1.119   3.395 -0.4738 -0.2541 -0.0508
30731SOL    HW195785   7.601   1.043   3.338 -0.0025 -1.3949  1.3340
30731SOL    HW295786   7.567   1.190   3.349 -3.4294 -1.9838 -0.0563
30732SOL     OW95787   7.644   7.144   5.828 -0.0800 -0.0967 -0.2599
30732SOL    HW195788   7.662   7.081   5.758  0.8541  0.2000 -0.3045
30732SOL    HW295789   7.577   7.202   5.791 -1.0854 -1.1397 -0.1526
30733SOL     OW95790   0.471   3.612   6.263 -0.8615 -0.2997 -0.6964
30733SOL    HW195791   0.454   3.518   6.272 -0.3488 -0.3586 -0.3271
30733SOL    HW295792   0.564   3.622   6.282 -0.5839  0.0992 -2.1287
30734SOL     OW95793   6.576   9.032   5.444 -0.5719  0.1191 -0.3184
30734SOL    HW195794   6.568   9.114   5.395 -1.8921 -0.4078 -1.0389
30734SOL    HW295795   6.543   8.965   5.384 -2.0199 -0.5876  1.1925
30735SOL     OW95796   9.465   5.043   2.287  0.3123 -0.0816 -0.2294
30735SOL    HW195797   9.420   5.120   2.321 -1.0585 -0.8778 -0.1892
30735SOL    HW295798   9.521   5.014   2.359  1.1775  1.1008 -0.3922
30736SOL     OW95799   7.291   5.438   3.491 -0.5556  0.5345 -0.3843
30736SOL    HW195800   7.281   5.374   3.420 -0.0552  0.5409 -0.4645
30736SOL    HW295801   7.363   5.405   3.544 -0.5172  0.8571 -0.2316
30737SOL     OW95802  10.230   6.976   6.779  0.5626 -0.0760  0.7347
30737SOL    HW195803  10.170   7.042   6.814 -1.0250 -0.6197 -0.8131
30737SOL    HW295804  10.261   6.929   6.857  1.6443  2.3527  1.8678
30738SOL     OW95805   1.827   4.676   4.828  0.6190 -0.4988 -0.1599
30738SOL    HW195806   1.867   4.646   4.746 -0.1297  0.0530 -0.7455
30738SOL    HW295807   1.741   4.709   4.802  1.8718  3.5548  0.1214
30739SOL     OW95808   2.278   9.715   0.929  0.1619 -0.3869  0.2447
30739SOL    HW195809   2.205   9.673   0.883 -1.5542 -0.7776  3.1127
30739SOL    HW295810   2.335   9.642   0.955  0.9677 -0.1929 -0.8878
30740SOL     OW95811   3.253   8.643   6.229 -0.0301 -0.2274  0.2781
30740SOL    HW195812   3.187   8.587   6.189  1.5876 -0.0495 -3.0477
30740SOL    HW295813   3.242   8.728   6.185  2.3437 -0.2251 -0.4907
30741SOL     OW95814   7.065  10.769   5.868 -0.3106  0.0441  0.2519
30741SOL    HW195815   7.020  10.685   5.868 -0.5717  0.1477 -1.4773
30741SOL    HW295816   7.157  10.747   5.859 -0.3155 -0.0646  0.4564
30742SOL     OW95817   3.315   8.675  10.552  0.4608 -0.3051  0.0284
30742SOL    HW195818   3.244   8.738  10.543  2.2203  1.5537 -1.7709
30742SOL    HW295819   3.395   8.726  10.539  2.0662 -2.6234  0.1528
30743SOL     OW95820   0.848   4.065   5.570  0.3888  0.4259  0.4424
30743SOL    HW195821   0.869   4.147   5.615  0.2385  0.5981  0.1940
30743SOL    HW295822   0.921   4.007   5.594  0.4323  0.5892  0.7189
30744SOL     OW95823   7.174   7.135   7.655  0.2974  0.4437 -0.0559
30744SOL    HW195824   7.238   7.065   7.639 -0.8307 -0.5731 -0.2835
30744SOL    HW295825   7.139   7.155   7.569  0.9741  1.6857 -0.0637
30745SOL     OW95826   8.196   0.624   6.520  0.2637  0.2119 -0.5836
30745SOL    HW195827   8.285   0.608   6.550 -0.0643 -1.7069 -0.5311
30745SOL    HW295828   8.195   0.592   6.430 -0.6022 -0.6458 -0.2814
30746SOL     OW95829   5.023   7.944   1.799 -0.2871  0.0077  0.0186
30746SOL    HW195830   4.966   7.960   1.874  0.0035 -0.9205  0.4486
30746SOL    HW295831   5.010   8.020   1.742 -1.6203  0.0182  0.3179
30747SOL     OW95832   2.101   1.131   1.121 -0.3645  0.3162 -0.3619
30747SOL    HW195833   2.007   1.145   1.107 -0.4281 -0.2556 -0.5422
30747SOL    HW295834   2.109   1.037   1.137  0.0593  0.5201  0.6967
30748SOL     OW95835   4.855   5.095   9.111  0.8033 -0.2338 -0.7379
30748SOL    HW195836   4.888   5.183   9.093 -0.4292  0.9864  2.1968
30748SOL    HW295837   4.919   5.057   9.170  0.7072 -0.8324 -1.0133
30749SOL     OW95838   7.535   1.900   1.902 -0.0485  0.3441 -0.0546
30749SOL    HW195839   7.539   1.963   1.830 -0.9192  0.8522  0.3213
30749SOL    HW295840   7.534   1.815   1.860 -2.9341  0.6677 -0.7935
30750SOL     OW95841   1.813   2.091   1.693 -0.2724  0.3296  0.2842
30750SOL    HW195842   1.786   2.101   1.785 -0.7816 -1.7626  0.3942
30750SOL    HW295843   1.862   2.009   1.691 -1.3196 -0.3067 -1.5282
30751SOL     OW95844   6.182   9.200   0.684 -0.1577  0.4104 -0.6035
30751SOL    HW195845   6.215   9.162   0.765 -1.1061  0.6831 -0.0804
30751SOL    HW295846   6.159   9.124   0.630  1.3118  0.2080 -1.0083
30752SOL     OW95847   0.361   9.504   6.377  0.2932  0.1041 -0.1146
30752SOL    HW195848   0.327   9.532   6.292 -0.5127  0.3962  0.2984
30752SOL    HW295849   0.284   9.503   6.434  0.6591 -1.0231  0.3732
30753SOL     OW95850  10.203   1.721   4.068 -0.4473 -0.1026  0.0348
30753SOL    HW195851  10.216   1.656   4.137  0.1978  0.7243  0.7173
30753SOL    HW295852  10.252   1.798   4.098 -1.3156  0.7546 -0.6783
30754SOL     OW95853   0.298   9.142  10.338 -0.0340  0.2393 -0.3241
30754SOL    HW195854   0.230   9.138  10.271 -1.4406 -1.8769  1.0936
30754SOL    HW295855   0.379   9.120  10.293 -0.9239 -1.0076 -1.3684
30755SOL     OW95856   5.555   5.755   8.092  0.3121  0.4302 -0.0385
30755SOL    HW195857   5.613   5.680   8.102  0.6521  0.4262 -1.7516
30755SOL    HW295858   5.611   5.823   8.053 -0.4618  0.9315 -0.2918
30756SOL     OW95859   4.258   4.461   8.465 -0.0437  0.6379  0.0477
30756SOL    HW195860   4.274   4.447   8.372  0.0321  0.1462  0.1347
30756SOL    HW295861   4.238   4.555   8.472  0.9016  0.8706 -0.3196
30757SOL     OW95862   1.466   6.154   6.295 -0.4886 -0.0603 -0.0947
30757SOL    HW195863   1.381   6.155   6.250 -0.3721 -1.4538 -0.3829
30757SOL    HW295864   1.509   6.075   6.263  0.7037  0.3442  0.4661
30758SOL     OW95865   8.217   5.224   2.576 -0.7279  0.3150  0.0977
30758SOL    HW195866   8.175   5.295   2.527  1.3319  1.2543 -0.4346
30758SOL    HW295867   8.267   5.176   2.509  0.7537  0.5706  0.9738
30759SOL     OW95868   4.597   1.651   8.058  0.0480 -0.0500 -0.0313
30759SOL    HW195869   4.564   1.566   8.084  2.5378 -0.8180  0.8672
30759SOL    HW295870   4.681   1.633   8.016 -0.0418  1.8584 -1.1851
30760SOL     OW95871   2.520   5.311   9.485 -0.7618 -0.0730 -0.3594
30760SOL    HW195872   2.519   5.402   9.514 -0.2433  0.2036 -1.1728
30760SOL    HW295873   2.485   5.262   9.559 -0.8610  0.7625  0.1629
30761SOL     OW95874   9.807   5.479   1.531  0.2857  0.3741 -0.1362
30761SOL    HW195875   9.879   5.415   1.528 -1.8545 -2.1918 -0.1748
30761SOL    HW295876   9.746   5.451   1.463 -1.9503  0.8911  1.5302
30762SOL     OW95877   0.531   6.738   2.619  0.1452 -0.2570  0.4198
30762SOL    HW195878   0.452   6.727   2.672 -0.0034 -1.1747  0.0111
30762SOL    HW295879   0.499   6.770   2.534  0.0019 -2.4667 -0.4042
30763SOL     OW95880   3.868   8.011   7.186 -0.1052 -0.4299 -0.1833
30763SOL    HW195881   3.815   8.081   7.148 -0.8280 -0.8589  0.0292
30763SOL    HW295882   3.807   7.959   7.238  0.7618 -0.2115  1.0839
30764SOL     OW95883   4.859   6.649   9.656 -0.2671 -0.3259 -0.3020
30764SOL    HW195884   4.826   6.579   9.599 -0.7573 -0.4013  0.0601
30764SOL    HW295885   4.805   6.641   9.735 -0.9414  1.0298 -0.5990
30765SOL     OW95886   2.231   7.428   9.364 -0.1912  0.0750 -0.1938
30765SOL    HW195887   2.231   7.413   9.269  1.8662  2.1535 -0.5978
30765SOL    HW295888   2.216   7.341   9.402  0.5346 -1.0774 -2.3898
30766SOL     OW95889   1.890   5.784  10.109 -0.0954 -0.0580  0.5574
30766SOL    HW195890   1.876   5.846  10.180 -1.3521 -0.6912  0.8815
30766SOL    HW295891   1.803   5.770  10.072  0.7290  1.7130 -2.3938
30767SOL     OW95892   8.832   2.175   8.300  0.3773 -0.2097  0.0407
30767SOL    HW195893   8.784   2.093   8.292 -0.8269  0.5052 -0.3358
30767SOL    HW295894   8.802   2.212   8.383  1.0584 -0.2299  0.3019
30768SOL     OW95895   6.066   6.085   7.569  0.3622 -0.0783  0.1556
30768SOL    HW195896   6.066   5.990   7.561 -3.6218 -0.4082  1.8528
30768SOL    HW295897   6.107   6.116   7.488 -1.0423 -3.2384 -1.9584
30769SOL     OW95898   5.099   3.731   4.074  0.0956 -0.3508 -0.1762
30769SOL    HW195899   5.187   3.723   4.036 -0.0830  0.0311 -0.6837
30769SOL    HW295900   5.048   3.664   4.029 -0.4908  1.0691 -1.7575
30770SOL     OW95901   5.734   6.068   4.946 -0.6045 -0.2681  0.0503
30770SOL    HW195902   5.737   6.146   5.002 -0.6897 -0.7706  0.7764
30770SOL    HW295903   5.815   6.071   4.896 -1.1043  0.8630 -0.7431
30771SOL     OW95904   9.853   0.393   4.784 -0.1925  0.1387 -0.2781
30771SOL    HW195905   9.837   0.487   4.792 -0.4624  0.2747 -2.1122
30771SOL    HW295906   9.885   0.380   4.695  1.8613 -1.2728  0.5906
30772SOL     OW95907   7.206   4.869  10.532 -0.0534  0.0383  0.1117
30772SOL    HW195908   7.213   4.961  10.509  0.0210 -0.6136 -2.8010
30772SOL    HW295909   7.287   4.829  10.501 -1.5496 -1.5702 -2.0457
30773SOL     OW95910   2.587   8.805   8.765  0.0269 -0.5895  0.1280
30773SOL    HW195911   2.682   8.815   8.758 -0.2191  2.0201 -0.4994
30773SOL    HW295912   2.559   8.785   8.676  0.0854 -3.6431  0.6677
30774SOL     OW95913   0.953  10.798   7.401 -0.1740  0.5573  0.2266
30774SOL    HW195914   0.955  10.799   7.497 -0.9941  0.1463  0.2591
30774SOL    HW295915   0.991  10.714   7.376 -1.7812 -0.2363  0.2856
30775SOL     OW95916   0.378   5.788   2.405  0.2237  0.3600 -0.4336
30775SOL    HW195917   0.342   5.776   2.317  1.2693 -1.2177 -0.6823
30775SOL    HW295918   0.432   5.710   2.420 -1.4946 -0.4091  2.4281
30776SOL     OW95919   9.756   8.258   4.278  1.1060  0.2169 -0.3455
30776SOL    HW195920   9.734   8.170   4.309  2.0623  0.1207  0.0944
30776SOL    HW295921   9.849   8.268   4.298  0.9664  1.4041 -0.2136
30777SOL     OW95922   4.641   7.509   0.122 -0.3093  0.2045  0.1323
30777SOL    HW195923   4.643   7.531   0.029  1.0556  4.2905  0.9271
30777SOL    HW295924   4.726   7.470   0.140 -0.6663 -0.8126 -0.3310
30778SOL     OW95925   8.376   8.662   5.107  0.7047 -0.2775  0.6012
30778SOL    HW195926   8.469   8.664   5.086  0.4199  0.2459 -0.7069
30778SOL    HW295927   8.355   8.569   5.113  1.1129 -0.4157 -0.0376
30779SOL     OW95928  10.411   7.920   3.207  0.4888 -0.3842 -0.0162
30779SOL    HW195929  10.471   7.993   3.191  0.9171 -0.8869 -0.7897
30779SOL    HW295930  10.459   7.863   3.267  0.4792 -0.4243 -0.0467
30780SOL     OW95931   1.841   4.804   5.587  0.5518 -0.0541  0.1867
30780SOL    HW195932   1.843   4.736   5.521  0.6522  0.6956 -0.5972
30780SOL    HW295933   1.933   4.817   5.611  0.6051  0.3388 -0.2251
30781SOL     OW95934   2.150   6.252   7.834 -0.2691 -0.1448 -0.4229
30781SOL    HW195935   2.231   6.282   7.792  0.8474 -2.0470  0.2908
30781SOL    HW295936   2.084   6.315   7.804  1.6381  2.1533 -0.1189
30782SOL     OW95937   3.060   9.032   7.500 -0.2899  0.2794  0.0386
30782SOL    HW195938   3.104   9.107   7.459  0.2779  0.6483  1.2832
30782SOL    HW295939   2.978   9.068   7.534 -0.8547 -0.0710 -0.9043
30783SOL     OW95940   4.891   8.903   1.155  0.2519  0.2732  0.4044
30783SOL    HW195941   4.918   8.815   1.131  2.1718  0.9283 -0.0362
30783SOL    HW295942   4.838   8.933   1.081 -1.5078 -0.9170  1.1236
30784SOL     OW95943  10.199   2.331   3.411  0.0298  0.3848  0.9776
30784SOL    HW195944  10.107   2.351   3.391  1.1604  3.0275 -2.5910
30784SOL    HW295945  10.222   2.393   3.480 -0.4541  0.8816  0.7055
30785SOL     OW95946   0.483   2.272   5.857  0.1170  0.0783 -0.5856
30785SOL    HW195947   0.469   2.177   5.856 -0.0103  0.0523  1.0372
30785SOL    HW295948   0.460   2.299   5.946 -2.2374  2.0286 -1.6896
30786SOL     OW95949   4.962   9.781   9.024  0.0242  0.7683  0.3159
30786SOL    HW195950   5.028   9.712   9.030  0.1796  1.0056  1.5699
30786SOL    HW295951   4.980   9.824   8.940  0.3859 -0.2331 -0.1404
30787SOL     OW95952   0.277   7.579   4.714  0.1861 -0.0885 -0.3950
30787SOL    HW195953   0.313   7.652   4.764 -1.6523  0.0777  0.7769
30787SOL    HW295954   0.261   7.615   4.626  1.5131  0.2096 -0.5305
30788SOL     OW95955   9.894   0.183  10.170  0.2832  0.3163 -0.2897
30788SOL    HW195956   9.947   0.107  10.194  0.3857  0.1242 -1.0888
30788SOL    HW295957   9.904   0.244  10.243  2.3002  0.6477 -0.7849
30789SOL     OW95958   8.766   1.242   0.251 -0.1108 -0.2064 -0.4219
30789SOL    HW195959   8.745   1.306   0.183 -1.1592  0.5838  0.6083
30789SOL    HW295960   8.800   1.294   0.323 -1.2690 -0.7594  0.5531
30790SOL     OW95961   8.043   8.822  10.089 -0.2292 -0.5557 -0.2127
30790SOL    HW195962   8.121   8.773  10.115 -0.3268 -0.6497 -0.0959
30790SOL    HW295963   7.970   8.774  10.129 -0.2625  0.1724  0.6071
30791SOL     OW95964   7.226   1.764   3.903 -0.6416  0.1292 -0.0404
30791SOL    HW195965   7.292   1.767   3.972  1.1127 -0.3505 -1.6017
30791SOL    HW295966   7.170   1.690   3.926  0.9447 -1.0998  0.0188
30792SOL     OW95967   6.989   7.664   4.075 -0.5258  0.2672 -0.0642
30792SOL    HW195968   7.014   7.572   4.087  2.0519  0.9219 -0.0004
30792SOL    HW295969   6.951   7.666   3.987 -1.6216 -1.0197  0.3393
30793SOL     OW95970   5.446   9.652   5.142 -0.2387 -0.5337  0.5921
30793SOL    HW195971   5.461   9.746   5.131 -0.8327 -0.3282  1.3841
30793SOL    HW295972   5.525   9.621   5.187 -0.1980 -0.3420  0.6556
30794SOL     OW95973   6.675   7.200   1.888  0.2931  0.1238  0.1436
30794SOL    HW195974   6.676   7.211   1.983  1.2999 -0.0646  0.1597
30794SOL    HW295975   6.591   7.238   1.861  0.7072  1.6917  0.9180
30795SOL     OW95976   0.373   5.211   2.568 -0.2462  0.3608 -0.6163
30795SOL    HW195977   0.413   5.232   2.653  0.1651  0.5268 -0.8505
30795SOL    HW295978   0.381   5.115   2.561 -1.3136  0.2070  0.0432
30796SOL     OW95979   5.427   0.634   7.655 -0.3502  0.3894 -0.3541
30796SOL    HW195980   5.360   0.586   7.606  1.1763 -2.1955 -0.0666
30796SOL    HW295981   5.442   0.713   7.603 -1.3001 -0.5563 -2.1687
30797SOL     OW95982   6.454   2.567   6.546  0.2509  0.7112  0.2814
30797SOL    HW195983   6.441   2.500   6.478 -0.9213 -0.1364  1.2987
30797SOL    HW295984   6.398   2.639   6.520  0.3635  0.6907 -0.0255
30798SOL     OW95985   3.351   3.192   1.550 -0.2612 -0.4430  0.1419
30798SOL    HW195986   3.347   3.283   1.580 -1.0167  0.2407 -1.8361
30798SOL    HW295987   3.265   3.156   1.573 -0.8521  0.0889 -1.1345
30799SOL     OW95988   5.903   4.771   2.231 -0.3882  0.1462 -0.3800
30799SOL    HW195989   5.952   4.781   2.150 -1.9178 -0.1668 -1.3851
30799SOL    HW295990   5.836   4.706   2.211 -2.6969  2.2119  0.1880
30800SOL     OW95991   6.404   2.214   6.697 -0.0759 -0.5994  0.2397
30800SOL    HW195992   6.352   2.219   6.617  0.6973  1.6352 -0.1800
30800SOL    HW295993   6.361   2.274   6.757  1.6458  0.8974  0.0654
30801SOL     OW95994   1.848  10.374   6.684 -0.3504  0.5260 -0.2298
30801SOL    HW195995   1.927  10.323   6.666  0.5189  1.1281  1.6712
30801SOL    HW295996   1.777  10.320   6.649  0.7645 -0.6833 -0.7298
30802SOL     OW95997   4.135   0.036   7.663  0.8076  0.0763  0.0416
30802SOL    HW195998   4.210  -0.014   7.698  0.4780 -0.3557  0.1426
30802SOL    HW295999   4.067  -0.030   7.649 -0.3346  0.7413  2.0439
30803SOL     OW96000   4.186   5.513   7.360  0.1441 -0.6714  0.3244
30803SOL    HW196001   4.179   5.529   7.454  1.2820 -0.5476  0.4071
30803SOL    HW296002   4.191   5.600   7.321  1.4349 -0.7154  0.3315
30804SOL     OW96003   9.476   8.891   8.878  0.0494 -0.1699  0.3760
30804SOL    HW196004   9.385   8.922   8.879  0.5828  1.6782 -1.6587
30804SOL    HW296005   9.515   8.932   8.801  2.7511 -0.5822  1.4143
30805SOL     OW96006   2.276   9.850   2.285  0.1235  0.3052  0.1913
30805SOL    HW196007   2.322   9.914   2.339  1.1536  0.6938 -1.1156
30805SOL    HW296008   2.260   9.776   2.344  2.1621  0.2692  0.7587
30806SOL     OW96009   1.712   2.230   6.766  0.2261  0.3056  0.2541
30806SOL    HW196010   1.700   2.322   6.788 -1.3873  0.8845 -2.5662
30806SOL    HW296011   1.713   2.228   6.670 -1.2921 -2.7674  0.1796
30807SOL     OW96012  10.455   9.658   0.642  0.0608 -0.1528 -0.1474
30807SOL    HW196013  10.423   9.571   0.667  0.6723 -0.1627  0.6554
30807SOL    HW296014  10.410   9.678   0.559 -1.1187 -0.6479  0.3466
30808SOL     OW96015   5.554   1.163   9.010 -0.3805  0.1829 -0.0347
30808SOL    HW196016   5.624   1.099   8.999 -1.7830 -1.6773  1.0651
30808SOL    HW296017   5.483   1.130   8.956 -1.2827  0.5549  0.8813
30809SOL     OW96018   4.631   6.685   6.398 -0.2249 -0.4228  0.4067
30809SOL    HW196019   4.644   6.622   6.469 -1.7696 -2.0162 -0.6332
30809SOL    HW296020   4.719   6.717   6.378  0.1994  0.6266  3.4537
30810SOL     OW96021   1.186   7.096   4.316 -0.2274 -0.2130 -0.4630
30810SOL    HW196022   1.264   7.054   4.280 -0.4622  0.2115 -1.5003
30810SOL    HW296023   1.117   7.078   4.253 -0.5197  1.0447 -0.5389
30811SOL     OW96024   2.032   8.193   5.469  0.6693 -0.1891  0.0737
30811SOL    HW196025   2.013   8.100   5.483  0.8411 -0.3440 -0.6684
30811SOL    HW296026   1.948   8.237   5.478  0.8525 -0.1438  2.3528
30812SOL     OW96027   3.898   9.049   3.715  0.4510 -0.1509 -0.0024
30812SOL    HW196028   3.967   8.986   3.737  1.4367  0.4803 -1.1228
30812SOL    HW296029   3.890   9.104   3.793  1.1486 -0.3065  0.1926
30813SOL     OW96030   7.896   9.392   1.562 -0.1461  0.1319 -0.0386
30813SOL    HW196031   7.839   9.372   1.487 -1.3426 -0.5793  1.0209
30813SOL    HW296032   7.957   9.319   1.566 -1.0853 -0.6447  0.5934
30814SOL     OW96033   3.675   3.661   2.451 -0.8956 -0.1174 -0.2131
30814SOL    HW196034   3.627   3.647   2.370  0.5963  0.0968 -1.1647
30814SOL    HW296035   3.717   3.577   2.469  0.8026  0.4998 -1.0674
30815SOL     OW96036   5.704   6.167   6.831 -0.1712 -0.4358 -0.2286
30815SOL    HW196037   5.609   6.162   6.830 -0.1583 -1.0585 -1.8237
30815SOL    HW296038   5.734   6.076   6.834  0.2786 -0.5497 -3.6129
30816SOL     OW96039   8.388   3.297   5.736  0.1626  0.5002 -0.4597
30816SOL    HW196040   8.393   3.322   5.644 -1.4977  0.3167 -0.6399
30816SOL    HW296041   8.411   3.204   5.737  0.7473  0.6413 -0.5995
30817SOL     OW96042   2.531   1.089   1.793  0.1093  0.3676 -0.0045
30817SOL    HW196043   2.584   1.022   1.749 -0.5664  1.0493 -1.9634
30817SOL    HW296044   2.463   1.111   1.729 -0.5311  1.9090  1.1581
30818SOL     OW96045   7.329   0.949  10.659  0.5737 -0.0429  0.4003
30818SOL    HW196046   7.308   0.861  10.628 -0.0760 -0.1115  1.0020
30818SOL    HW296047   7.390   0.984  10.594 -0.3355 -0.3798 -0.6575
30819SOL     OW96048   1.465   9.625   0.044 -0.0200  0.9277 -0.1924
30819SOL    HW196049   1.379   9.592   0.020  0.0094 -0.4088  1.4032
30819SOL    HW296050   1.485   9.691  -0.023 -2.4172  1.5414 -0.3720
30820SOL     OW96051   3.140   5.172   8.690 -0.1645  0.1062 -0.0455
30820SOL    HW196052   3.062   5.212   8.729 -0.3789  0.4682 -0.8253
30820SOL    HW296053   3.186   5.132   8.764 -0.7610  0.4369  0.5155
30821SOL     OW96054   1.360   4.622   2.626  0.1289  0.0431 -0.5033
30821SOL    HW196055   1.373   4.703   2.577  0.6856  0.1814 -0.1408
30821SOL    HW296056   1.304   4.569   2.570  0.6013  0.2713 -1.2078
30822SOL     OW96057   2.236   9.290   1.355  0.7094 -0.5874 -0.2447
30822SOL    HW196058   2.184   9.329   1.426  1.0721  1.5063 -1.0752
30822SOL    HW296059   2.193   9.206   1.338 -0.7916 -0.0942  0.8960
30823SOL     OW96060   9.758   1.259   0.789  0.1642  0.0924 -0.0163
30823SOL    HW196061   9.851   1.238   0.793  0.0454 -1.2094 -2.1573
30823SOL    HW296062   9.733   1.276   0.880  2.2092 -0.7775  0.7696
30824SOL     OW96063   2.569   2.640   5.187  0.0556 -0.4025 -0.1982
30824SOL    HW196064   2.474   2.642   5.200  0.0052 -0.4676 -0.5652
30824SOL    HW296065   2.581   2.609   5.098  0.4137 -0.0832 -0.2646
30825SOL     OW96066  10.049   1.237   0.801  0.5857  0.2970 -0.1978
30825SOL    HW196067  10.051   1.252   0.706  0.2321  0.8049 -0.1308
30825SOL    HW296068  10.092   1.315   0.837  1.0032 -0.0428  0.0491
30826SOL     OW96069   3.302   6.276   6.492  0.5211  0.5262 -0.3579
30826SOL    HW196070   3.324   6.205   6.432 -1.8373  0.0019 -0.6990
30826SOL    HW296071   3.239   6.238   6.552  0.7998  1.7925  0.7923
30827SOL     OW96072  10.339   4.653   1.785 -0.4947 -0.0856 -0.5630
30827SOL    HW196073  10.315   4.719   1.849 -1.2519 -0.1760 -0.7424
30827SOL    HW296074  10.433   4.666   1.770 -0.2385 -0.2709  0.7904
30828SOL     OW96075   6.928   5.281   0.740  0.0015 -0.5835  0.2573
30828SOL    HW196076   6.846   5.319   0.772  0.6122  1.8665 -0.8752
30828SOL    HW296077   6.945   5.208   0.800 -1.5531  0.5856  2.2632
30829SOL     OW96078   3.574   2.050   1.678 -0.1388 -0.0380 -0.0757
30829SOL    HW196079   3.589   2.079   1.768 -2.8997 -0.1457  0.5297
30829SOL    HW296080   3.511   2.113   1.643  2.1674  1.0683 -2.6457
30830SOL     OW96081   9.346   7.890  10.767  0.0449 -0.6535  0.5668
30830SOL    HW196082   9.372   7.966  10.820  0.7063 -0.3455 -0.1819
30830SOL    HW296083   9.271   7.853  10.814  2.8205 -2.7022  3.9693
30831SOL     OW96084   5.483   2.857   6.706 -0.4263  0.7327  0.4948
30831SOL    HW196085   5.532   2.893   6.780 -0.1323 -1.4774  1.4499
30831SOL    HW296086   5.525   2.773   6.688 -0.7799  0.9919 -1.9291
30832SOL     OW96087   7.113   3.968   0.750 -0.5499 -0.0365  0.5071
30832SOL    HW196088   7.180   3.939   0.812  0.6452 -0.4917 -0.9394
30832SOL    HW296089   7.066   3.888   0.726  0.4393 -0.2635 -0.8029
30833SOL     OW96090   0.033   5.041   5.432 -0.3138 -0.3494  0.1595
30833SOL    HW196091   0.003   5.129   5.408  0.7687 -0.1727 -0.6017
30833SOL    HW296092   0.113   5.028   5.381 -0.7243 -1.9777 -0.1183
30834SOL     OW96093   9.544   5.508   7.852  0.1747 -0.3725  0.3589
30834SOL    HW196094   9.599   5.454   7.909 -3.0414 -3.6134  0.7586
30834SOL    HW296095   9.523   5.452   7.778 -2.3334  0.7167  0.1343
30835SOL     OW96096   5.938   5.292   5.839 -0.1559 -0.3426 -0.5267
30835SOL    HW196097   5.977   5.344   5.769  0.6517 -0.3944 -0.1318
30835SOL    HW296098   5.874   5.350   5.880  1.5687  0.7960  0.6792
30836SOL     OW96099  10.967   6.794   7.507 -0.0429  0.1967  0.3414
30836SOL    HW196100  11.053   6.829   7.531  0.4726 -1.3798  0.9531
30836SOL    HW296101  10.937   6.748   7.586 -1.8244  1.3631  0.4097
30837SOL     OW96102   7.722   9.051   4.698  0.5698  1.2676 -0.0705
30837SOL    HW196103   7.769   9.055   4.782 -0.4795 -2.8973  0.9509
30837SOL    HW296104   7.786   9.080   4.633  2.2039  2.3293  1.8908
30838SOL     OW96105   3.028   5.500   0.145 -0.2038  0.0595  0.0261
30838SOL    HW196106   3.042   5.412   0.109  0.3859  0.1929 -0.0901
30838SOL    HW296107   2.939   5.498   0.180 -0.2423 -0.5431 -0.0921
30839SOL     OW96108   5.145   4.738   4.578 -0.1710  0.3501 -0.3916
30839SOL    HW196109   5.187   4.811   4.532  4.1126 -1.7283 -0.2967
30839SOL    HW296110   5.165   4.753   4.670 -1.4049  0.2742 -0.1042
30840SOL     OW96111   7.019   5.032   4.804  0.3280 -0.0703 -0.4808
30840SOL    HW196112   7.028   5.127   4.807  2.0884 -0.2174 -0.0826
30840SOL    HW296113   6.943   5.017   4.747  0.1481  1.5529 -0.7151
30841SOL     OW96114   0.736   8.792   2.798  0.0797  0.7935  0.6973
30841SOL    HW196115   0.648   8.771   2.765  0.0827  0.1530  1.0652
30841SOL    HW296116   0.722   8.809   2.892  0.3822  0.4493  0.8065
30842SOL     OW96117   7.179   4.582   3.802 -0.3840  0.0162  0.0933
30842SOL    HW196118   7.121   4.625   3.866 -0.3866  0.8864 -0.4781
30842SOL    HW296119   7.148   4.614   3.717  0.1670 -0.4636 -0.2921
30843SOL     OW96120   4.611   3.261   7.337 -0.2429  0.1932 -0.4588
30843SOL    HW196121   4.537   3.317   7.358 -0.0731 -0.1047  1.0806
30843SOL    HW296122   4.585   3.174   7.366  0.7967  0.1334  0.3765
30844SOL     OW96123   9.299   2.874   0.386  0.4961  0.0599  0.4208
30844SOL    HW196124   9.258   2.813   0.324 -0.9828 -0.9031  2.2619
30844SOL    HW296125   9.374   2.910   0.338 -0.3974 -0.8651 -1.7998
30845SOL     OW96126   4.811   5.819   0.768 -0.1603 -0.6235  0.1469
30845SOL    HW196127   4.839   5.736   0.806  0.5068 -0.1579  0.7063
30845SOL    HW296128   4.867   5.885   0.811 -0.3884  0.0652 -0.5898
30846SOL     OW96129  10.670   1.411   1.719  0.0042  0.1861 -0.2032
30846SOL    HW196130  10.662   1.352   1.794 -0.7179 -0.3184 -0.6658
30846SOL    HW296131  10.749   1.382   1.673  1.9148  2.0533  1.6744
30847SOL     OW96132  10.835   4.245   2.382  0.3062  0.2681  0.0713
30847SOL    HW196133  10.890   4.240   2.461  0.2151 -1.0544  0.0752
30847SOL    HW296134  10.826   4.339   2.365 -1.4708  0.7345  2.8800
30848SOL     OW96135   9.191   6.252   7.705  0.2284  0.1421  0.6279
30848SOL    HW196136   9.198   6.294   7.791 -0.0175 -1.8220  1.6652
30848SOL    HW296137   9.100   6.221   7.701  0.1082  0.5852 -0.5533
30849SOL     OW96138   7.857   6.609   6.617 -0.1937  0.4331  0.0029
30849SOL    HW196139   7.892   6.694   6.643 -0.4314 -0.2234  2.8640
30849SOL    HW296140   7.871   6.605   6.523  2.6929  2.3098  0.2136
30850SOL     OW96141   1.892   5.918   4.692  0.5357  0.3027  0.1894
30850SOL    HW196142   1.830   5.854   4.727  1.4956 -0.6710  0.1615
30850SOL    HW296143   1.975   5.896   4.735  1.1322  0.8069 -0.6775
30851SOL     OW96144   7.470   6.743  11.093  0.6606 -0.4186 -0.4471
30851SOL    HW196145   7.470   6.819  11.035  0.2799 -0.1159 -0.0660
30851SOL    HW296146   7.408   6.766  11.162  0.1718 -1.2746 -0.5828
30852SOL     OW96147   1.716   4.136   1.783  0.3221 -1.4894  0.6449
30852SOL    HW196148   1.691   4.127   1.692  2.7217 -0.7192 -0.1666
30852SOL    HW296149   1.689   4.225   1.807  3.8015  0.1620 -0.8779
30853SOL     OW96150   6.593   1.155   0.754 -0.2653 -0.3873  0.2920
30853SOL    HW196151   6.632   1.121   0.835 -0.7387 -1.2019  0.1873
30853SOL    HW296152   6.645   1.116   0.684 -0.1829 -0.0897  0.1821
30854SOL     OW96153   4.462   2.060   4.063 -0.0489 -0.0798  0.5652
30854SOL    HW196154   4.395   2.118   4.098 -0.4452  0.0262 -0.3223
30854SOL    HW296155   4.467   1.988   4.125 -0.8571  0.0058  0.7419
30855SOL     OW96156   2.914   9.828   6.420 -0.2799 -0.2742 -0.4903
30855SOL    HW196157   2.932   9.887   6.493  1.1774 -0.8010 -0.3864
30855SOL    HW296158   2.922   9.883   6.342 -0.0214 -0.1058 -0.3446
30856SOL     OW96159   9.099   3.111  11.075  0.0999  0.0987 -0.0537
30856SOL    HW196160   9.118   3.038  11.015 -0.2284  0.1979 -0.2823
30856SOL    HW296161   9.184   3.133  11.114  0.5351  0.7608 -1.3148
30857SOL     OW96162   7.903   5.716  10.547  0.3353 -0.4360  0.3931
30857SOL    HW196163   7.917   5.809  10.529 -1.3096 -0.2192  0.1056
30857SOL    HW296164   7.952   5.672  10.477 -0.3187  0.2678 -0.5444
30858SOL     OW96165   7.007   1.912   2.919 -0.0184  0.3494 -0.1893
30858SOL    HW196166   6.953   1.843   2.958  2.3594 -1.8248 -0.4699
30858SOL    HW296167   6.962   1.934   2.838 -0.0167 -2.1900 -0.9799
30859SOL     OW96168   2.575   9.704   5.302 -0.4892 -0.4746 -0.1939
30859SOL    HW196169   2.613   9.679   5.217  0.8379 -0.7259  0.4515
30859SOL    HW296170   2.483   9.679   5.295 -0.1912 -1.3764 -1.2174
30860SOL     OW96171  10.071  10.718   9.585 -0.1363  0.1115 -0.5290
30860SOL    HW196172  10.126  10.648   9.621 -1.0194  0.7469  2.2123
30860SOL    HW296173  10.008  10.739   9.654 -0.8441  2.6305 -1.7991
30861SOL     OW96174   9.156   8.528   0.814  0.1790 -0.7125  0.0726
30861SOL    HW196175   9.166   8.449   0.867  0.2248 -1.6297 -1.2377
30861SOL    HW296176   9.227   8.586   0.843  0.2960 -1.2499  0.8842
30862SOL     OW96177   2.357   3.517   0.698  0.0663 -0.3504 -0.0296
30862SOL    HW196178   2.422   3.565   0.647  1.7681 -0.8045  1.5833
30862SOL    HW296179   2.315   3.583   0.753 -0.1510 -0.2027 -0.3696
30863SOL     OW96180  10.164   4.996   7.011 -0.3804  0.0852 -0.5598
30863SOL    HW196181  10.106   4.940   7.061 -0.8868  1.2679  0.2159
30863SOL    HW296182  10.206   4.937   6.948 -0.9728 -1.1236  0.1447
30864SOL     OW96183   3.395   4.728   9.430  0.0999  0.3343  0.0572
30864SOL    HW196184   3.467   4.688   9.382 -0.7596 -1.9086  0.5403
30864SOL    HW296185   3.385   4.675   9.508 -2.2063  0.4379 -0.0974
30865SOL     OW96186   6.413   8.283   1.065  0.3179 -0.2464  0.2917
30865SOL    HW196187   6.429   8.341   1.140 -2.0725  0.5040  0.3278
30865SOL    HW296188   6.462   8.322   0.993  1.1659  0.0769  1.0270
30866SOL     OW96189   9.822   3.637   3.983  0.2470  0.2154  0.3530
30866SOL    HW196190   9.736   3.640   3.941 -0.3086  1.8155  1.4825
30866SOL    HW296191   9.842   3.544   3.990 -0.5219 -0.1523 -1.6011
30867SOL     OW96192   1.416   7.151   3.815 -0.2505  0.2519  0.3210
30867SOL    HW196193   1.380   7.220   3.870 -1.1085 -0.1560  0.2960
30867SOL    HW296194   1.359   7.150   3.738  0.5519  0.3972 -0.2930
30868SOL     OW96195   6.459   2.834   3.485 -0.0464 -0.3629 -0.1889
30868SOL    HW196196   6.494   2.922   3.467  2.3835 -1.2076  0.0311
30868SOL    HW296197   6.445   2.796   3.399 -3.4049  0.9625 -0.3760
30869SOL     OW96198   1.696   5.252   3.453  0.2102  0.0587  0.3018
30869SOL    HW196199   1.679   5.298   3.371 -1.0648 -0.8492  0.0332
30869SOL    HW296200   1.704   5.322   3.518 -0.4326  0.7250 -0.3141
30870SOL     OW96201   7.380   0.129   5.275  0.2303 -0.2757 -0.3382
30870SOL    HW196202   7.462   0.179   5.276 -0.0656  0.2692  1.8174
30870SOL    HW296203   7.408   0.038   5.260  1.0184  0.1264 -1.5014
30871SOL     OW96204   3.204  11.091   9.672 -0.3533  0.4798 -0.2054
30871SOL    HW196205   3.296  11.091   9.695 -0.3729  0.7487 -0.1224
30871SOL    HW296206   3.160  11.050   9.746 -0.1527 -1.0263 -0.8814
30872SOL     OW96207   0.620   6.693   3.988  0.2569 -0.1996  0.2249
30872SOL    HW196208   0.640   6.777   4.029 -1.1495 -0.2877  1.2042
30872SOL    HW296209   0.530   6.703   3.955  1.1231 -0.3349 -2.4176
30873SOL     OW96210   1.033   5.543   1.908  1.0580  0.6826 -0.6956
30873SOL    HW196211   0.937   5.547   1.914  1.1290  0.6300  0.8520
30873SOL    HW296212   1.056   5.611   1.844  0.0854  1.9629  0.2536
30874SOL     OW96213   5.572   2.854  10.907  0.0589 -0.3365  0.0786
30874SOL    HW196214   5.478   2.834  10.914  0.0206 -0.3289 -0.3775
30874SOL    HW296215   5.577   2.949  10.914  0.1753 -0.4224  1.5439
30875SOL     OW96216   6.893   8.339   9.406  0.3385 -0.7517 -0.2282
30875SOL    HW196217   6.799   8.340   9.390  0.3643 -0.0674 -0.3709
30875SOL    HW296218   6.902   8.312   9.498 -0.1153  1.2974  0.4629
30876SOL     OW96219   6.586   4.571   9.275  0.3500  0.4913 -0.5551
30876SOL    HW196220   6.538   4.603   9.199 -0.7201  1.2696  0.3934
30876SOL    HW296221   6.582   4.476   9.269  0.7677  0.5399 -1.7462
30877SOL     OW96222   3.767   3.784   6.605 -0.1467 -0.4677 -0.0659
30877SOL    HW196223   3.787   3.806   6.696 -0.4132  1.2190 -0.3751
30877SOL    HW296224   3.827   3.838   6.553  1.2641 -2.7180 -0.9296
30878SOL     OW96225   9.210   6.254   4.064 -0.4605  0.6391  0.0024
30878SOL    HW196226   9.263   6.218   4.136 -0.8777  0.5847  0.2877
30878SOL    HW296227   9.268   6.315   4.020 -0.2308  0.7575  0.4606
30879SOL     OW96228   2.723   9.308   3.412 -0.1721  0.0150 -0.3694
30879SOL    HW196229   2.803   9.360   3.416 -0.2103  0.0301  0.3054
30879SOL    HW296230   2.752   9.222   3.379 -0.0717  0.3691 -1.2320
30880SOL     OW96231   4.249   1.469   5.972 -0.6610  0.8637 -0.1958
30880SOL    HW196232   4.228   1.477   6.065 -0.1151  0.8462 -0.0662
30880SOL    HW296233   4.312   1.540   5.955 -0.4398  0.6132 -0.4529
30881SOL     OW96234   1.481   4.373   2.093 -0.1131 -0.2473 -0.1084
30881SOL    HW196235   1.430   4.444   2.133 -0.6365 -0.3339 -0.6043
30881SOL    HW296236   1.436   4.356   2.010  1.3391  0.3675 -1.0483
30882SOL     OW96237   4.925   1.793  10.805  0.0506  0.1950  0.2601
30882SOL    HW196238   4.890   1.750  10.727  1.0189 -2.1216  1.0136
30882SOL    HW296239   4.856   1.852  10.833 -1.0398 -0.2682 -1.3291
30883SOL     OW96240   9.832  10.247   0.079 -0.0909 -0.4569 -0.6207
30883SOL    HW196241   9.760  10.261   0.141 -0.4187  0.0211 -1.1090
30883SOL    HW296242   9.911  10.261   0.131 -0.3682  0.2911 -0.3944
30884SOL     OW96243   4.116   6.553   5.814 -0.5524  0.0704  0.1554
30884SOL    HW196244   4.033   6.543   5.861 -0.1961 -0.4311  0.7050
30884SOL    HW296245   4.177   6.499   5.864  0.0934  0.4013 -0.2717
30885SOL     OW96246   9.720   8.220   4.891 -0.8041 -0.6197  0.4982
30885SOL    HW196247   9.805   8.196   4.927  0.2619  1.1662 -0.6935
30885SOL    HW296248   9.666   8.238   4.968  0.7087  0.8336  1.2775
30886SOL     OW96249   2.325   4.445   8.178  0.0505  0.3631 -0.0024
30886SOL    HW196250   2.303   4.356   8.152 -1.0066  0.2409  1.2150
30886SOL    HW296251   2.264   4.500   8.130  0.0260  0.3607  0.0265
30887SOL     OW96252   2.869   8.734   5.108  0.4945  0.6558 -0.1095
30887SOL    HW196253   2.783   8.744   5.149  0.9277 -2.6678  2.0016
30887SOL    HW296254   2.930   8.725   5.181  2.1971  0.0126 -1.5322
30888SOL     OW96255   4.061   5.987   3.335 -0.4852 -0.4449  0.4992
30888SOL    HW196256   4.052   5.955   3.245 -1.5881  0.1020  0.3977
30888SOL    HW296257   4.154   6.007   3.345 -0.3100 -0.7790 -0.4251
30889SOL     OW96258   4.639   6.933   9.851 -0.2112  0.4171 -0.2026
30889SOL    HW196259   4.641   6.996   9.779 -0.9908 -0.0176 -0.6234
30889SOL    HW296260   4.730   6.925   9.879 -0.1588  2.1724  0.2608
30890SOL     OW96261   9.218   1.131   6.677  0.2469  0.1134 -0.1101
30890SOL    HW196262   9.214   1.197   6.607 -0.5382  1.6444  1.3037
30890SOL    HW296263   9.154   1.161   6.742  0.3254 -1.7339  0.8766
30891SOL     OW96264   6.489  11.068   2.095  0.0610  0.0814 -0.0905
30891SOL    HW196265   6.505  11.143   2.037  0.1921 -0.0048 -0.1639
30891SOL    HW296266   6.410  11.027   2.059 -0.5265  0.6932  0.4628
30892SOL     OW96267   3.794   2.949   0.908  0.0763 -0.0771  0.0068
30892SOL    HW196268   3.760   2.869   0.947 -0.8840  1.3526  2.2536
30892SOL    HW296269   3.725   3.013   0.920  1.4101  1.4915 -0.3484
30893SOL     OW96270   0.743   6.016   3.896 -0.1896 -0.2507 -0.1474
30893SOL    HW196271   0.742   5.948   3.828 -1.4514 -1.2993  0.8547
30893SOL    HW296272   0.690   6.087   3.859  1.0612  0.1791 -1.1696
30894SOL     OW96273   1.921   7.528   9.431 -0.1653  0.0155  0.5547
30894SOL    HW196274   1.888   7.616   9.445 -2.3484 -0.7145  0.2547
30894SOL    HW296275   2.010   7.542   9.398 -0.8853  2.1358 -0.6989
30895SOL     OW96276   4.459   6.702   4.850 -0.2218 -0.2016 -0.9085
30895SOL    HW196277   4.494   6.791   4.846 -0.3176 -0.1837 -1.4303
30895SOL    HW296278   4.444   6.686   4.944  0.3768  0.0989 -0.7588
30896SOL     OW96279   6.463   3.360   4.981 -0.2642 -0.7033 -0.3222
30896SOL    HW196280   6.511   3.336   5.060  0.7715 -1.0066 -1.0280
30896SOL    HW296281   6.469   3.283   4.925  1.2147  0.3544 -1.7269
30897SOL     OW96282   4.793   3.049   3.612 -0.2417  0.0938  0.0612
30897SOL    HW196283   4.836   3.120   3.565 -0.2637  0.2908  0.3363
30897SOL    HW296284   4.808   3.069   3.704 -0.0946 -0.3573  0.1336
30898SOL     OW96285   1.827   1.806   4.891  0.3433  0.2076 -0.9763
30898SOL    HW196286   1.846   1.811   4.797  3.4473 -2.5526 -0.6707
30898SOL    HW296287   1.820   1.713   4.909  2.1633  0.5074  1.8719
30899SOL     OW96288   0.488   6.556   1.359 -0.1680  0.1869  0.5444
30899SOL    HW196289   0.475   6.492   1.429  1.2142 -0.2747  0.4153
30899SOL    HW296290   0.457   6.513   1.280  0.9731 -0.4362  0.4203
30900SOL     OW96291   3.412   7.656   3.002 -0.2182  0.0688 -0.1222
30900SOL    HW196292   3.463   7.715   3.057 -0.5510 -0.1226  0.4072
30900SOL    HW296293   3.385   7.710   2.927  0.7088  0.1789 -0.3832
30901SOL     OW96294   3.469   5.034   6.838  0.0104 -0.4812  0.5755
30901SOL    HW196295   3.382   5.073   6.851  0.6639  0.5154  2.2574
30901SOL    HW296296   3.451   4.943   6.813 -1.5415  0.4686 -2.2549
30902SOL     OW96297  10.809   3.553   8.143 -0.3426  0.0853 -0.0280
30902SOL    HW196298  10.810   3.646   8.120  0.8795 -0.1860 -1.1978
30902SOL    HW296299  10.772   3.510   8.066 -0.6934 -0.4178  0.4194
30903SOL     OW96300   2.695   8.696   2.641  0.6071  0.5773 -0.3028
30903SOL    HW196301   2.650   8.759   2.697 -3.1080 -1.1170 -1.0690
30903SOL    HW296302   2.709   8.743   2.559 -0.3557  0.9998 -0.2413
30904SOL     OW96303   9.687   0.920   9.584 -0.0117 -0.5169  0.1656
30904SOL    HW196304   9.749   0.852   9.609 -1.1642 -1.1514  1.4367
30904SOL    HW296305   9.733   1.002   9.601  0.8188 -0.9694  0.1506
30905SOL     OW96306   5.222   8.745   0.806 -0.0815 -0.3273  0.0469
30905SOL    HW196307   5.215   8.765   0.899  1.1802  0.1657  0.0541
30905SOL    HW296308   5.273   8.817   0.769  0.8403 -1.3154 -0.7135
30906SOL     OW96309   7.182   0.049   9.782 -0.1427 -0.5717  0.0609
30906SOL    HW196310   7.175  -0.030   9.728  0.8213  0.4134 -1.5892
30906SOL    HW296311   7.102   0.049   9.834 -0.7865 -1.9527 -0.8592
30907SOL     OW96312   0.146   3.750   7.029  0.2129  0.3690 -0.0172
30907SOL    HW196313   0.172   3.720   7.116  1.2863 -0.7544 -0.6948
30907SOL    HW296314   0.157   3.845   7.032 -0.6600  0.4561  1.3397
30908SOL     OW96315   6.759   8.194   9.806 -0.9010  0.2751 -0.6831
30908SOL    HW196316   6.808   8.261   9.758 -0.4121  0.6678  0.3320
30908SOL    HW296317   6.671   8.196   9.768 -0.4171  0.2565 -1.8529
30909SOL     OW96318   3.672   3.473  10.995 -0.4088 -0.2156 -0.3493
30909SOL    HW196319   3.623   3.535  10.942  0.6167 -0.5587 -1.7466
30909SOL    HW296320   3.726   3.528  11.052 -1.5773  0.1497  0.4568
30910SOL     OW96321   7.247   3.128   4.031  0.0926  0.1750  0.8013
30910SOL    HW196322   7.185   3.137   4.104 -0.9239  1.5842 -0.1870
30910SOL    HW296323   7.274   3.218   4.011  0.8560 -0.2501 -0.1439
30911SOL     OW96324   0.644   5.754   1.397 -0.0154 -0.2088  0.0006
30911SOL    HW196325   0.693   5.831   1.369  0.5740  0.1443  1.8721
30911SOL    HW296326   0.581   5.738   1.326  0.0589  1.7871 -0.5656
30912SOL     OW96327   5.799   7.243   6.622 -0.3445 -0.0748  0.2924
30912SOL    HW196328   5.815   7.262   6.529 -0.4039 -0.4152  0.2132
30912SOL    HW296329   5.715   7.284   6.641  0.0086  0.6297  0.3853
30913SOL     OW96330   7.170   6.016   3.005  0.0335  0.0670 -0.0295
30913SOL    HW196331   7.112   5.952   3.047 -1.0388  0.4532 -0.8735
30913SOL    HW296332   7.258   5.981   3.017 -0.4563 -1.0479  0.3988
30914SOL     OW96333  10.601   7.612   4.974 -0.3720  0.4273  0.3595
30914SOL    HW196334  10.594   7.629   4.880  1.0668 -1.6258 -0.2003
30914SOL    HW296335  10.511   7.602   5.003 -0.8043 -0.6761 -1.2110
30915SOL     OW96336   6.984   1.786   5.946 -0.5283  0.8800 -0.2173
30915SOL    HW196337   7.054   1.784   6.012 -1.7667 -0.9665  1.1256
30915SOL    HW296338   6.906   1.812   5.996 -0.8869  2.8427 -1.6766
30916SOL     OW96339   5.208  10.603  11.063 -0.4692 -0.3904 -0.3469
30916SOL    HW196340   5.118  10.578  11.086 -0.4695 -0.6637 -0.6256
30916SOL    HW296341   5.233  10.539  10.996  1.2178 -2.5668  2.1807
30917SOL     OW96342  10.325   3.374   6.203  0.0273  0.2396 -0.2506
30917SOL    HW196343  10.366   3.299   6.161  0.2674  0.0933  0.2380
30917SOL    HW296344  10.324   3.352   6.296  0.5448  1.0360 -0.0413
30918SOL     OW96345   7.328   0.479   4.076  0.0614 -0.0947  0.2071
30918SOL    HW196346   7.277   0.551   4.039 -1.5885 -1.4811 -0.3512
30918SOL    HW296347   7.419   0.501   4.056 -0.4768  1.3908 -0.7443
30919SOL     OW96348   2.325   9.456   6.889  0.0829  0.2360  0.2381
30919SOL    HW196349   2.402   9.400   6.890 -0.4851 -0.5675  1.4331
30919SOL    HW296350   2.359   9.544   6.873  0.9815 -0.4288 -1.7480
30920SOL     OW96351   2.862   7.990   1.234  0.3033 -0.6427  0.5187
30920SOL    HW196352   2.943   8.039   1.245 -0.7051  1.5438 -0.9318
30920SOL    HW296353   2.817   8.000   1.318  0.4919  0.2535  0.5266
30921SOL     OW96354   8.123   7.619   4.356 -0.0344  0.0771  0.3310
30921SOL    HW196355   8.030   7.643   4.352 -0.0412  0.3983  1.8627
30921SOL    HW296356   8.128   7.556   4.429  0.6738 -1.3867 -0.9194
30922SOL     OW96357   6.186   5.916   5.763 -0.2227 -0.1440 -0.2403
30922SOL    HW196358   6.243   5.841   5.745  0.0937  0.2060 -0.7430
30922SOL    HW296359   6.239   5.992   5.739 -0.4857  0.2494  0.4113
30923SOL     OW96360   6.078  10.452   7.579  0.1012  0.3085  0.3837
30923SOL    HW196361   6.169  10.481   7.586  0.4978 -0.8649  0.2215
30923SOL    HW296362   6.037  10.483   7.660  0.5337  1.1818  0.2838
30924SOL     OW96363   1.241   6.933   1.125  0.0568  0.2921 -0.0676
30924SOL    HW196364   1.197   6.988   1.060  0.9195  0.6761 -0.3483
30924SOL    HW296365   1.273   6.858   1.076  0.5813  0.5102 -0.0727
30925SOL     OW96366   0.909   4.827   3.233 -0.4895 -0.3998  0.0221
30925SOL    HW196367   0.827   4.804   3.190 -0.6731  1.3440 -0.6732
30925SOL    HW296368   0.943   4.900   3.180 -0.0150  0.9140  2.0325
30926SOL     OW96369   3.780   7.385   8.265 -0.1550 -0.1121 -0.1011
30926SOL    HW196370   3.859   7.436   8.248  0.7199 -0.8354  1.6203
30926SOL    HW296371   3.733   7.385   8.181  1.4211  0.7314 -1.0221
30927SOL     OW96372   9.743  10.147  10.965  0.2184  0.7102  0.5472
30927SOL    HW196373   9.791  10.075  10.923  0.7853 -0.0332  2.3725
30927SOL    HW296374   9.793  10.165  11.044 -1.8804  0.6970  1.9484
30928SOL     OW96375   8.974   6.441   4.691  0.0069  0.0839 -0.6511
30928SOL    HW196376   9.031   6.392   4.632  1.2996 -0.7090  1.1670
30928SOL    HW296377   8.887   6.401   4.680  0.4399 -0.7117 -1.2559
30929SOL     OW96378   0.174   8.719   4.382  0.3300 -0.0267 -0.7287
30929SOL    HW196379   0.098   8.774   4.365 -0.4462 -0.7288  0.3865
30929SOL    HW296380   0.180   8.714   4.478  1.6838 -0.1197 -0.7910
30930SOL     OW96381   5.011   2.126   5.405  0.0342 -0.0622 -0.2357
30930SOL    HW196382   5.035   2.184   5.334  1.0917  0.7523  0.7510
30930SOL    HW296383   5.038   2.039   5.376  2.7436  0.5786  0.1188
30931SOL     OW96384   7.698   0.418   2.002 -0.2306  0.2155  0.0460
30931SOL    HW196385   7.760   0.349   2.024 -0.4618 -0.1108 -0.3130
30931SOL    HW296386   7.619   0.396   2.052 -0.2609  0.2900  0.0306
30932SOL     OW96387   7.424   0.364   6.342 -0.3140  0.0267  0.1910
30932SOL    HW196388   7.478   0.382   6.418  2.0576  1.9784 -1.8095
30932SOL    HW296389   7.448   0.275   6.315  1.3908  0.5774 -0.2033
30933SOL     OW96390   7.678   4.940   8.691 -0.6632 -0.0025  0.1773
30933SOL    HW196391   7.726   5.021   8.671 -1.3237  0.5187  0.6407
30933SOL    HW296392   7.746   4.877   8.713  0.0145 -0.2367 -2.3318
30934SOL     OW96393   4.237   4.908   0.473  0.0133 -0.2212 -0.1382
30934SOL    HW196394   4.265   4.824   0.435  0.4414 -0.7784  1.3338
30934SOL    HW296395   4.313   4.938   0.522 -0.7732  0.0303  0.9706
30935SOL     OW96396  11.072   3.444   8.553  0.0860 -0.4022  0.0948
30935SOL    HW196397  10.979   3.464   8.563  0.1766  0.1196 -0.0825
30935SOL    HW296398  11.083   3.427   8.459  0.7196  2.5142 -0.4465
30936SOL     OW96399   6.900   4.119   1.106  0.5494  0.4248 -0.3681
30936SOL    HW196400   6.991   4.128   1.077  0.3002  0.1131 -1.2976
30936SOL    HW296401   6.849   4.165   1.039 -0.0066  0.2622 -0.0616
30937SOL     OW96402   7.766   2.862  10.315  0.6010  0.5665 -0.1129
30937SOL    HW196403   7.853   2.876  10.277  0.9028 -0.1055  0.3137
30937SOL    HW296404   7.764   2.769  10.337  0.0054  0.7021  0.4537
30938SOL     OW96405   3.489   8.137  10.004 -0.2682 -0.2481 -0.0888
30938SOL    HW196406   3.574   8.127  10.047  0.2846 -1.0552 -1.2967
30938SOL    HW296407   3.500   8.093   9.919 -1.9763 -0.5954 -0.1608
30939SOL     OW96408   0.967   1.614   7.152  0.3698 -0.2132 -0.0190
30939SOL    HW196409   0.970   1.606   7.056 -1.1915  0.6800 -0.1738
30939SOL    HW296410   1.057   1.635   7.177  0.8352 -0.6332 -1.2722
30940SOL     OW96411   5.031   5.790   5.904 -0.2070  0.3878  0.0705
30940SOL    HW196412   4.937   5.809   5.897 -0.4907 -0.9307  0.0417
30940SOL    HW296413   5.060   5.841   5.979 -0.7106  1.6358 -0.5441
30941SOL     OW96414  10.693   6.372   5.405 -0.2179  0.2087  0.2376
30941SOL    HW196415  10.781   6.377   5.443 -1.2069  2.6160  2.5767
30941SOL    HW296416  10.652   6.299   5.452 -0.0171  0.2437  0.4770
30942SOL     OW96417  10.006   4.015   7.420  0.5399 -0.0529  0.6144
30942SOL    HW196418   9.965   4.033   7.504  0.8719  1.2677  0.5199
30942SOL    HW296419   9.945   3.955   7.376  0.8390 -1.5634  2.1506
30943SOL     OW96420   1.630   1.310   7.771  0.3776  0.8988 -0.1792
30943SOL    HW196421   1.677   1.239   7.726  2.4137  1.6636  0.6524
30943SOL    HW296422   1.699   1.362   7.813 -1.0961  3.0368 -0.2544
30944SOL     OW96423   0.247   5.764  10.837  0.4097  0.1720 -0.5795
30944SOL    HW196424   0.264   5.686  10.890  0.8335  1.1727  0.8314
30944SOL    HW296425   0.240   5.835  10.901  0.9999  1.4504 -1.8760
30945SOL     OW96426   4.822   3.775   9.944  0.3138  0.2202  0.0218
30945SOL    HW196427   4.875   3.853   9.927 -0.5734  0.7796 -0.2360
30945SOL    HW296428   4.750   3.806   9.999 -1.9962  0.3821 -2.8452
30946SOL     OW96429   6.886   6.432   7.459 -0.0034 -0.1907 -0.0477
30946SOL    HW196430   6.827   6.503   7.432  0.5932  0.2683 -0.1664
30946SOL    HW296431   6.934   6.409   7.379  2.6205  1.9829  0.7590
30947SOL     OW96432   6.418   0.256   9.308 -0.1325  0.1217  0.4284
30947SOL    HW196433   6.423   0.348   9.282  0.0110  0.6210  2.0920
30947SOL    HW296434   6.325   0.236   9.304 -0.0359 -0.1913 -1.5099
30948SOL     OW96435   3.177   1.082   7.277 -0.0240  0.3470  0.4159
30948SOL    HW196436   3.112   1.092   7.347  0.0664 -0.8978  0.6981
30948SOL    HW296437   3.133   1.117   7.199 -0.8806 -0.0775  0.6949
30949SOL     OW96438  10.686   4.928   8.930  0.4422  0.3265  0.0119
30949SOL    HW196439  10.762   4.923   8.872  0.2611  1.2513 -0.3206
30949SOL    HW296440  10.631   4.854   8.903  0.3920  0.6957 -0.9642
30950SOL     OW96441  10.814   7.105   9.322 -0.2208 -0.1847 -0.0419
30950SOL    HW196442  10.803   7.077   9.413 -0.9412  0.8263  0.1993
30950SOL    HW296443  10.727   7.135   9.295 -0.1360 -0.9100 -1.2315
30951SOL     OW96444   8.269   8.565   6.890  0.1765  0.3231 -0.4985
30951SOL    HW196445   8.198   8.567   6.953 -0.5994  0.4994 -1.3469
30951SOL    HW296446   8.313   8.650   6.900 -0.3323  0.6029 -0.6263
30952SOL     OW96447   6.825   4.567   3.889  0.8285  0.4392 -0.1292
30952SOL    HW196448   6.815   4.650   3.935  0.5700 -0.5755  1.7779
30952SOL    HW296449   6.762   4.509   3.932  0.8363 -0.6791 -1.5780
30953SOL     OW96450   9.561   4.157   1.638 -0.4666  0.6123  0.1078
30953SOL    HW196451   9.481   4.106   1.654 -0.1935 -0.2276 -1.0459
30953SOL    HW296452   9.540   4.211   1.562 -0.0633  0.6869  0.0468
30954SOL     OW96453   0.758   6.906   4.645 -0.4976 -0.2025  0.5224
30954SOL    HW196454   0.668   6.873   4.646 -0.4152 -0.5808 -0.9562
30954SOL    HW296455   0.754   6.988   4.596  0.0359 -0.5394 -0.1140
30955SOL     OW96456   0.376  10.411   0.469  0.1154 -0.3772 -0.5482
30955SOL    HW196457   0.467  10.435   0.489 -0.3975  1.6525 -0.4715
30955SOL    HW296458   0.333  10.406   0.554 -1.0045  3.8657 -0.6427
30956SOL     OW96459   9.912   3.550   4.589  0.0170 -0.1641  0.3369
30956SOL    HW196460   9.822   3.528   4.613  0.2314 -0.1289  1.2040
30956SOL    HW296461   9.917   3.645   4.597 -0.1586 -0.0442 -0.7767
30957SOL     OW96462   2.267   5.281   5.930 -0.3513  0.1891 -0.3558
30957SOL    HW196463   2.282   5.209   5.869  0.4513  0.7659 -0.8470
30957SOL    HW296464   2.355   5.306   5.959 -0.6907  0.2640  0.6462
30958SOL     OW96465   0.534   3.927   9.145 -0.1738 -0.1720 -0.2075
30958SOL    HW196466   0.525   3.846   9.095 -1.9896 -1.2263  1.6736
30958SOL    HW296467   0.577   3.900   9.226  0.7286  1.0894 -0.2326
30959SOL     OW96468  10.561  10.787   9.026 -0.6596  0.0002 -0.4382
30959SOL    HW196469  10.487  10.847   9.036 -0.2888  0.5252 -0.8405
30959SOL    HW296470  10.595  10.804   8.938  2.1018  2.2612  0.8865
30960SOL     OW96471   3.167   0.826   2.276  0.3250 -0.4699 -0.8616
30960SOL    HW196472   3.111   0.749   2.286 -1.2208  0.6344 -0.6133
30960SOL    HW296473   3.115   0.898   2.311  2.2276  0.5108  0.1038
30961SOL     OW96474  10.623   8.432   0.658  0.1365 -0.3858 -0.1117
30961SOL    HW196475  10.559   8.375   0.617 -0.0001 -1.8692  2.0092
30961SOL    HW296476  10.685   8.373   0.701  0.4124  1.0076  1.5595
30962SOL     OW96477   7.056  10.604   2.098 -0.2735  0.6454  0.1121
30962SOL    HW196478   7.003  10.676   2.133  1.1179  1.7348  0.0509
30962SOL    HW296479   7.031  10.599   2.006 -2.0765 -0.5351  0.6165
30963SOL     OW96480   8.393   2.665   4.588  0.8099  0.0493 -0.0349
30963SOL    HW196481   8.357   2.686   4.674  0.7090 -0.7286  0.1146
30963SOL    HW296482   8.336   2.711   4.526  1.1121  0.9380  0.3169
30964SOL     OW96483   5.949   3.558  11.093  0.0345  0.0050  0.2295
30964SOL    HW196484   6.035   3.561  11.050  0.1034  1.2059  0.4125
30964SOL    HW296485   5.899   3.496  11.041  0.9848 -0.6672  0.0738
30965SOL     OW96486   7.257   3.135  10.543 -0.1462 -0.0209 -0.0377
30965SOL    HW196487   7.257   3.061  10.604 -0.1809 -0.8675 -1.0416
30965SOL    HW296488   7.348   3.160  10.535 -0.0859 -0.2324 -0.0177
30966SOL     OW96489   6.377   2.704   6.973  0.5530 -0.5219  0.2124
30966SOL    HW196490   6.328   2.725   6.893  0.1642  1.1484  0.8499
30966SOL    HW296491   6.382   2.608   6.973 -1.6911 -0.7198 -0.5056
30967SOL     OW96492   6.820   4.469   8.488 -0.2736  0.2867 -0.3053
30967SOL    HW196493   6.768   4.398   8.526  0.8411  0.0471  0.8331
30967SOL    HW296494   6.862   4.512   8.563  0.7306  0.8093 -1.1351
30968SOL     OW96495  10.926   7.755   1.977 -0.0449 -0.1137  0.6461
30968SOL    HW196496  10.920   7.694   2.051 -1.2073 -0.9137 -0.0677
30968SOL    HW296497  10.850   7.812   1.987 -0.5449 -0.6048 -0.2323
30969SOL     OW96498   8.461   3.466   1.084  0.0971  0.0934  0.3760
30969SOL    HW196499   8.427   3.393   1.032  0.4577 -0.3544  0.7523
30969SOL    HW296500   8.556   3.459   1.076  0.1849 -0.3463  1.5600
30970SOL     OW96501  10.927   7.088   3.654  0.2613  0.1051  0.9808
30970SOL    HW196502  10.997   7.153   3.655 -0.9728  1.7602 -2.7280
30970SOL    HW296503  10.854   7.130   3.699  0.6014 -0.3447  1.9942
30971SOL     OW96504  10.240   9.189   4.396 -0.1567 -0.2111 -0.6208
30971SOL    HW196505  10.235   9.093   4.397 -3.1802 -0.1652 -0.2772
30971SOL    HW296506  10.223   9.213   4.305 -0.4698  0.0059 -0.5070
30972SOL     OW96507   9.553   3.271   8.127 -0.1061 -0.2735  0.3072
30972SOL    HW196508   9.576   3.356   8.164  1.2769 -0.0221 -1.0355
30972SOL    HW296509   9.629   3.216   8.144 -0.9616 -1.2325  1.1012
30973SOL     OW96510   4.246   0.293   4.459 -0.2275  0.0481  0.3115
30973SOL    HW196511   4.196   0.232   4.405 -2.2075  0.2698  1.7753
30973SOL    HW296512   4.312   0.330   4.400 -1.3370 -0.8011 -1.5319
30974SOL     OW96513   6.709   8.409   8.078  0.0304 -0.2652  1.1002
30974SOL    HW196514   6.692   8.436   8.168  0.1273  0.0464  1.0279
30974SOL    HW296515   6.779   8.344   8.085 -1.8044 -2.3011  1.4924
30975SOL     OW96516   3.439  10.375   0.269 -0.0240 -0.2713  0.8483
30975SOL    HW196517   3.470  10.288   0.296  2.7874  0.6387  0.8876
30975SOL    HW296518   3.468  10.384   0.179  1.2394  1.2177  1.3541
30976SOL     OW96519   1.763   2.336   3.793 -0.2435  0.1645 -0.1563
30976SOL    HW196520   1.701   2.371   3.857 -0.0946 -0.0370  0.1014
30976SOL    HW296521   1.823   2.282   3.845 -0.4837 -0.4928 -0.5523
30977SOL     OW96522   0.409   0.636  10.601 -0.1518  0.4947 -0.3214
30977SOL    HW196523   0.410   0.700  10.672 -1.2575  0.4140 -0.2098
30977SOL    HW296524   0.317   0.610  10.594  0.2072 -0.7837 -0.6337
30978SOL     OW96525   9.943  10.344   3.633 -0.1455 -0.0161  0.5720
30978SOL    HW196526   9.854  10.351   3.600  0.1080  0.2228 -0.0693
30978SOL    HW296527   9.976  10.262   3.596  0.0579  0.1320  0.4271
30979SOL     OW96528   6.000   8.655   0.367 -0.0552 -0.2767 -0.0955
30979SOL    HW196529   6.095   8.660   0.361 -0.0478 -0.8951 -0.5389
30979SOL    HW296530   5.983   8.626   0.456  0.1681 -0.1372 -0.0068
30980SOL     OW96531  10.502   8.269   4.806  0.0435 -0.2911  0.6294
30980SOL    HW196532  10.472   8.298   4.892  1.0722  1.5349  0.4063
30980SOL    HW296533  10.422   8.245   4.760 -0.6507  0.0730  1.6074
30981SOL     OW96534   9.844   5.573   2.047 -0.1311  0.1782  0.3850
30981SOL    HW196535   9.758   5.573   2.088  0.2890  1.7203  1.3887
30981SOL    HW296536   9.894   5.638   2.097  0.4833  2.0851 -2.4480
30982SOL     OW96537   6.751   0.728  10.379  0.6279  0.0483 -0.0795
30982SOL    HW196538   6.760   0.633  10.394  1.5196  0.2608  0.8488
30982SOL    HW296539   6.805   0.768  10.448 -0.0115  1.2404 -0.2505
30983SOL     OW96540   9.262   1.104   0.548 -0.9239 -0.0913  0.2388
30983SOL    HW196541   9.295   1.109   0.637 -0.2358 -1.2146  0.0734
30983SOL    HW296542   9.252   1.195   0.521  0.0965  0.2797  1.0226
30984SOL     OW96543   4.781   0.019   3.567  0.5626  0.4864 -0.8187
30984SOL    HW196544   4.834  -0.039   3.512  1.6609 -1.0632  1.6719
30984SOL    HW296545   4.729  -0.041   3.620 -0.7960  1.9274 -0.4757
30985SOL     OW96546   3.724   0.971   2.725 -0.5724  0.2928 -0.3211
30985SOL    HW196547   3.769   1.052   2.702 -0.8121  0.2723 -0.8714
30985SOL    HW296548   3.790   0.903   2.717 -0.3625  0.4341  0.1714
30986SOL     OW96549   1.020   9.860   2.591 -0.1646 -0.4827 -0.0216
30986SOL    HW196550   0.938   9.902   2.563  0.6792  1.1358 -0.1596
30986SOL    HW296551   1.086   9.895   2.531  0.8741 -0.6571  0.9935
30987SOL     OW96552  10.934   6.301   6.832  0.3501  0.1019 -0.1966
30987SOL    HW196553  11.029   6.292   6.845  0.2564  1.5937  2.2989
30987SOL    HW296554  10.895   6.251   6.904 -0.7762 -0.5337 -1.2246
30988SOL     OW96555   4.699   8.457   7.937  0.3724 -0.1215  0.2074
30988SOL    HW196556   4.732   8.448   7.847 -1.2035 -0.0803 -0.4165
30988SOL    HW296557   4.768   8.503   7.984  0.2623  2.0656 -1.6180
30989SOL     OW96558   9.912   6.556   5.379 -0.4624 -0.2637  0.1061
30989SOL    HW196559   9.855   6.479   5.376  0.7652 -1.1977  0.0359
30989SOL    HW296560   9.949   6.556   5.467  1.0368 -0.8936 -0.4912
30990SOL     OW96561   2.753   5.738   6.090  0.0364 -0.5360 -0.2963
30990SOL    HW196562   2.742   5.783   6.174 -0.4658 -0.3009 -0.4886
30990SOL    HW296563   2.714   5.652   6.104 -1.9367  0.2045 -0.8977
30991SOL     OW96564   2.436   0.367  10.624  0.0293 -0.1876 -0.3922
30991SOL    HW196565   2.406   0.325  10.705  0.2116 -0.2158 -0.3396
30991SOL    HW296566   2.505   0.427  10.653  0.1555 -0.2629 -0.5386
30992SOL     OW96567   9.967  10.084  10.214 -0.0402  0.3125 -0.2326
30992SOL    HW196568  10.044  10.141  10.208 -0.2993  0.6368 -0.4600
30992SOL    HW296569   9.912  10.110  10.140 -2.5203  3.2294  2.3611
30993SOL     OW96570   0.859   2.616   2.014  0.5501  0.2047  0.0347
30993SOL    HW196571   0.827   2.643   1.928 -2.3086 -0.5557  0.7458
30993SOL    HW296572   0.924   2.548   1.995 -0.1534 -0.0710 -1.5444
30994SOL     OW96573   3.373   1.408   8.974  0.4908  0.3930 -0.1625
30994SOL    HW196574   3.310   1.444   9.036 -0.3977 -0.0166 -0.8162
30994SOL    HW296575   3.389   1.479   8.912  2.0150  1.0947  0.9619
30995SOL     OW96576   7.811   2.493   2.780  0.4583  0.5741 -0.0872
30995SOL    HW196577   7.842   2.577   2.747 -0.1589  0.6657 -0.4586
30995SOL    HW296578   7.719   2.509   2.800  0.2889 -0.0636 -0.3403
30996SOL     OW96579   3.528   9.506   1.007 -0.5659  0.1931 -0.0785
30996SOL    HW196580   3.506   9.572   0.941 -0.6844  1.5797  1.2985
30996SOL    HW296581   3.621   9.487   0.992 -0.3291  1.2421 -0.0317
30997SOL     OW96582   1.727   6.642   3.109  0.4676  0.2439 -0.5653
30997SOL    HW196583   1.657   6.610   3.165 -0.8329 -0.0471 -2.2793
30997SOL    HW296584   1.797   6.577   3.118  0.6061  0.5995  1.2498
30998SOL     OW96585   2.756   1.122   6.101  0.1562  0.0686  0.3272
30998SOL    HW196586   2.816   1.073   6.157 -1.1679 -0.3115  1.4711
30998SOL    HW296587   2.671   1.114   6.145 -1.1562 -1.0596 -2.2077
30999SOL     OW96588   7.957   6.108   8.562  0.1128 -0.8602  0.3463
30999SOL    HW196589   8.039   6.145   8.596  1.4342 -2.4797 -0.8637
30999SOL    HW296590   7.903   6.093   8.639  0.3037  1.6372  1.0501
31000SOL     OW96591   5.391   6.025   0.948 -0.1727 -0.3395  0.0653
31000SOL    HW196592   5.408   6.106   0.900  0.1334 -0.2674  0.2936
31000SOL    HW296593   5.349   6.053   1.029 -0.6861 -0.4620 -0.1572
31001SOL     OW96594   3.717   4.291   8.732  0.2887  0.6042 -0.4846
31001SOL    HW196595   3.762   4.374   8.718 -0.5657  1.3005  0.6314
31001SOL    HW296596   3.712   4.283   8.828 -1.0086  0.0611 -0.5738
31002SOL     OW96597  10.113  10.325   2.405 -0.0640 -0.2123 -0.4021
31002SOL    HW196598  10.205  10.311   2.386 -0.1493 -0.5732 -0.5659
31002SOL    HW296599  10.112  10.384   2.481  0.2898  0.1104 -0.6509
31003SOL     OW96600   8.935  10.029   3.098  0.2113 -0.0982  0.4126
31003SOL    HW196601   8.938  10.060   3.188 -0.4563  0.8194  0.1308
31003SOL    HW296602   8.849   9.988   3.089  0.4644 -0.6102  0.3303
31004SOL     OW96603   0.899   5.523   2.329  0.2215  0.0751  0.6378
31004SOL    HW196604   0.884   5.617   2.339  0.8033  0.3274 -0.6575
31004SOL    HW296605   0.941   5.515   2.243  0.0527 -1.3836  0.6776
31005SOL     OW96606   0.569   9.493   5.324  0.2724 -0.2163 -0.1884
31005SOL    HW196607   0.521   9.447   5.393 -0.5234  0.5130 -0.2311
31005SOL    HW296608   0.658   9.503   5.359 -0.0336 -0.1549  0.5917
31006SOL     OW96609   1.084   3.758   0.082  0.4432 -0.4570 -0.3229
31006SOL    HW196610   1.178   3.751   0.096  0.4090 -3.2936 -0.9267
31006SOL    HW296611   1.047   3.687   0.134 -1.2725 -0.0146 -0.8785
31007SOL     OW96612   1.454   2.372   5.919 -0.3684 -0.2681  0.2367
31007SOL    HW196613   1.385   2.425   5.959 -1.0889 -1.2447  0.3153
31007SOL    HW296614   1.528   2.379   5.979 -0.0753  1.4720 -0.2656
31008SOL     OW96615  10.954   5.074   2.200 -0.0686  0.3624  0.1926
31008SOL    HW196616  10.911   5.079   2.286 -0.6576 -0.5310 -0.0362
31008SOL    HW296617  10.903   5.132   2.144  0.4670  1.1435  0.4871
31009SOL     OW96618   7.775   8.004   5.509 -0.5401  0.6850 -0.1582
31009SOL    HW196619   7.866   7.978   5.515 -0.7365  0.0802  0.3025
31009SOL    HW296620   7.737   7.977   5.592 -1.5886 -0.8314 -1.0948
31010SOL     OW96621   9.873   3.079   9.626 -0.7078 -0.4688  0.0907
31010SOL    HW196622   9.803   3.122   9.578 -0.7512  1.5251  1.8013
31010SOL    HW296623   9.832   3.051   9.708  0.5446  1.2921  1.3934
31011SOL     OW96624   2.047   1.687   6.136 -0.0436 -0.2525  0.1108
31011SOL    HW196625   1.990   1.659   6.065  1.2229 -0.2777 -0.9278
31011SOL    HW296626   2.082   1.771   6.107 -0.8297  0.5982  1.4977
31012SOL     OW96627   8.909  10.433  10.905 -0.5423  0.4551 -0.1132
31012SOL    HW196628   8.971  10.442  10.833  1.0092 -1.1135  0.9335
31012SOL    HW296629   8.846  10.368  10.875  0.8141 -1.1255  0.3366
31013SOL     OW96630   7.281   3.607   3.133  0.0032  0.6560  0.1262
31013SOL    HW196631   7.223   3.547   3.086  0.1555 -1.6547  2.6537
31013SOL    HW296632   7.366   3.595   3.091 -0.2485  0.0596 -0.2328
31014SOL     OW96633   9.445   9.090   9.711 -0.1520 -0.2994 -0.1918
31014SOL    HW196634   9.428   8.997   9.698 -1.0889 -0.2392  0.5067
31014SOL    HW296635   9.507   9.094   9.784  1.6676 -0.4453 -1.6534
31015SOL     OW96636   7.222   2.948   9.803  0.0908  0.3668  0.2612
31015SOL    HW196637   7.315   2.969   9.809  0.1657 -0.0239  0.4389
31015SOL    HW296638   7.201   2.906   9.886 -0.0768 -0.2189 -0.0744
31016SOL     OW96639   2.346   7.302   7.208  0.3473 -0.1407 -0.1123
31016SOL    HW196640   2.398   7.290   7.128  1.5121  2.2684  0.1979
31016SOL    HW296641   2.353   7.396   7.227 -1.7303 -0.2703  1.6084
31017SOL     OW96642   0.452   5.728   6.302 -0.1172 -0.2729  0.1371
31017SOL    HW196643   0.365   5.694   6.283  1.1462 -3.2352 -1.0416
31017SOL    HW296644   0.465   5.711   6.396 -1.0321  0.8330  0.4754
31018SOL     OW96645   7.890   7.754   4.025  0.4289  0.5579  0.3669
31018SOL    HW196646   7.984   7.733   4.025  1.1399  3.3060  1.0809
31018SOL    HW296647   7.886   7.842   4.063 -2.4351  0.6302  0.0495
31019SOL     OW96648   6.639   2.604   9.304 -0.4376  0.1063  0.2603
31019SOL    HW196649   6.632   2.530   9.365  2.5829  0.1270  0.7996
31019SOL    HW296650   6.635   2.563   9.217 -0.7659 -0.4240  0.5170
31020SOL     OW96651   8.733   0.301   3.676 -0.5066 -0.2304  0.7479
31020SOL    HW196652   8.765   0.236   3.738 -0.6403 -0.9384  0.0852
31020SOL    HW296653   8.811   0.351   3.651  0.0804 -1.7705 -0.6567
31021SOL     OW96654  10.278   8.607   1.312  0.0939  0.3934  0.4786
31021SOL    HW196655  10.208   8.609   1.377  0.3402 -0.8718  0.8214
31021SOL    HW296656  10.354   8.570   1.359  0.6353  0.6203 -0.1956
31022SOL     OW96657   0.719   6.047   2.476  0.3269  0.2080 -0.1187
31022SOL    HW196658   0.746   6.041   2.384  1.2569 -0.1356  0.1728
31022SOL    HW296659   0.788   6.002   2.525 -0.2177  0.2850  0.7432
31023SOL     OW96660   1.247   9.816   7.517  0.4959  0.4009  0.4529
31023SOL    HW196661   1.277   9.733   7.554  0.1583 -0.0378 -0.2476
31023SOL    HW296662   1.298   9.827   7.438  0.3685  0.7466  0.4164
31024SOL     OW96663   3.902   6.865   1.842 -0.1066  0.1532 -0.5759
31024SOL    HW196664   3.901   6.777   1.803 -3.2523  1.0079 -2.7621
31024SOL    HW296665   3.994   6.882   1.860  0.8393 -2.7618 -2.0398
31025SOL     OW96666   4.149   9.332   9.207 -0.1483  0.4698 -0.1268
31025SOL    HW196667   4.072   9.377   9.241  0.1715  2.4761 -1.8521
31025SOL    HW296668   4.217   9.350   9.272 -0.9899 -1.1109  1.2822
31026SOL     OW96669   5.312   1.076   4.219  0.1685  0.1424  0.4072
31026SOL    HW196670   5.392   1.042   4.179 -0.0586  0.0292  0.0491
31026SOL    HW296671   5.252   1.089   4.146  0.4156  1.8030  0.4581
31027SOL     OW96672  10.415  10.507  10.481  0.2155 -0.2714  0.6641
31027SOL    HW196673  10.479  10.524  10.549 -0.3280  0.7672  0.9369
31027SOL    HW296674  10.352  10.448  10.522  0.5443 -0.6277  0.6618
31028SOL     OW96675   6.961   0.239   0.801  0.1764 -0.3944 -0.2298
31028SOL    HW196676   6.942   0.331   0.820  0.5017  0.0810 -1.9751
31028SOL    HW296677   6.895   0.190   0.849  0.4930  0.6845  1.3929
31029SOL     OW96678   3.381   6.794   2.840  0.1885  0.3827  0.6103
31029SOL    HW196679   3.405   6.733   2.770 -1.9743 -0.7862  0.7972
31029SOL    HW296680   3.381   6.740   2.919 -0.2292  0.9865  1.0244
31030SOL     OW96681   2.659   4.341   1.817  0.0535  0.2241  0.1111
31030SOL    HW196682   2.713   4.331   1.896  0.6588 -0.4296 -0.3756
31030SOL    HW296683   2.669   4.433   1.794  0.5336  0.2351  0.3361
31031SOL     OW96684   5.080  10.028   5.671  0.2641  0.1712  0.0737
31031SOL    HW196685   5.099  10.089   5.742  0.1683 -1.4182  1.5156
31031SOL    HW296686   4.999   9.985   5.697  1.0318 -1.5486 -0.2243
31032SOL     OW96687   4.318   9.439   3.490 -0.0600 -0.1858  0.2387
31032SOL    HW196688   4.386   9.386   3.531 -0.7188 -1.0992  0.1918
31032SOL    HW296689   4.297   9.393   3.409  1.1960  1.5787 -1.1730
31033SOL     OW96690  10.923   7.723   0.539 -0.0392  0.0861 -0.5218
31033SOL    HW196691  10.860   7.780   0.582  0.3372  0.2200 -0.1384
31033SOL    HW296692  10.960   7.777   0.469 -1.2470 -0.3954 -1.5649
31034SOL     OW96693   0.164   3.209   3.590 -0.7023  0.1844 -0.1534
31034SOL    HW196694   0.230   3.272   3.619 -4.0013  3.3626  1.1711
31034SOL    HW296695   0.172   3.136   3.651 -0.0838  1.6481  1.5831
31035SOL     OW96696  10.514   1.836   5.888 -0.6889  0.2997  0.6191
31035SOL    HW196697  10.581   1.903   5.875 -0.0194 -0.6177 -0.9507
31035SOL    HW296698  10.445   1.859   5.825 -0.9274  0.0878  0.7994
31036SOL     OW96699   4.472  10.084   7.998 -0.2639 -0.1987  0.2380
31036SOL    HW196700   4.426  10.015   7.950  0.4815  0.4578 -1.4609
31036SOL    HW296701   4.402  10.136   8.037 -0.8670 -2.5079  2.5741
31037SOL     OW96702   6.883   3.430   8.880 -0.3473  0.4084 -0.6468
31037SOL    HW196703   6.900   3.426   8.974  2.3685 -1.4353 -1.1013
31037SOL    HW296704   6.822   3.359   8.863 -0.6211  0.5637 -0.3257
31038SOL     OW96705   0.928   3.023   4.122 -0.3646  0.0769  0.4193
31038SOL    HW196706   0.874   3.066   4.189 -0.9926  0.7119 -0.4810
31038SOL    HW296707   1.017   3.051   4.142 -0.4790 -0.1289  1.2807
31039SOL     OW96708   1.742   7.231   6.986 -0.6188 -0.4732 -0.0789
31039SOL    HW196709   1.742   7.326   6.979  0.6346 -0.1615  2.7729
31039SOL    HW296710   1.650   7.206   6.987 -0.9688  0.5061 -2.0935
31040SOL     OW96711   1.239   3.416   9.146  0.0035  0.1199 -0.4054
31040SOL    HW196712   1.249   3.473   9.070  1.5636  1.2894  0.6130
31040SOL    HW296713   1.327   3.382   9.163 -0.4474 -0.6925  0.4644
31041SOL     OW96714  10.299   0.815   4.459  0.0067 -0.2628  0.2627
31041SOL    HW196715  10.280   0.907   4.439 -0.3214  0.5758  3.7866
31041SOL    HW296716  10.213   0.772   4.459  0.1038 -0.4824 -0.8516
31042SOL     OW96717   6.695   7.188  10.411  0.2886 -0.0880 -0.2861
31042SOL    HW196718   6.695   7.177  10.506  1.0249  1.0615 -0.1365
31042SOL    HW296719   6.623   7.249  10.394  0.2428 -0.1886 -0.4545
31043SOL     OW96720   4.784   8.099   0.345 -0.1922 -0.1148 -0.0641
31043SOL    HW196721   4.718   8.168   0.345 -0.8995 -0.7736 -0.2691
31043SOL    HW296722   4.868   8.145   0.342 -0.5888  0.7630  1.5907
31044SOL     OW96723   8.643   5.246   7.079 -0.3369 -0.4458  0.0459
31044SOL    HW196724   8.564   5.192   7.091 -1.0563  0.4065 -0.6949
31044SOL    HW296725   8.686   5.244   7.165 -1.5649 -0.3353  0.7026
31045SOL     OW96726   4.466   4.227   8.530  0.7638 -0.5236  0.0129
31045SOL    HW196727   4.483   4.321   8.540  2.0289 -0.8367  0.9473
31045SOL    HW296728   4.370   4.220   8.530  0.6503  0.6509  1.1120
31046SOL     OW96729   7.978   7.935  10.489  0.4864 -0.4897 -0.4121
31046SOL    HW196730   7.938   7.877  10.554  1.7529 -1.8432 -0.7895
31046SOL    HW296731   8.059   7.964  10.531 -0.3777  1.4908 -0.0161
31047SOL     OW96732   3.678   3.450   9.755  0.4218 -0.2896  0.5202
31047SOL    HW196733   3.768   3.476   9.737  0.4732  0.2987  1.5650
31047SOL    HW296734   3.630   3.472   9.675  0.4788  3.0376  1.2740
31048SOL     OW96735   9.994   2.596   6.432 -0.4545 -0.8482 -0.0185
31048SOL    HW196736  10.003   2.612   6.526 -0.7819 -1.8971  0.2008
31048SOL    HW296737   9.995   2.501   6.423  0.9780 -0.7609 -1.2342
31049SOL     OW96738   3.297  10.535   6.897 -0.4395 -0.2247 -0.1482
31049SOL    HW196739   3.235  10.538   6.824  1.7023 -1.1401 -2.1325
31049SOL    HW296740   3.248  10.495   6.969 -2.4283  0.0742 -1.2700
31050SOL     OW96741  10.801   2.600   3.815  0.3708  0.0563 -0.4186
31050SOL    HW196742  10.803   2.544   3.738 -1.5780 -1.0113  0.2356
31050SOL    HW296743  10.876   2.572   3.867  0.7282 -0.3579 -1.1390
31051SOL     OW96744   6.786   5.120   3.964  0.0069 -0.7060 -0.1800
31051SOL    HW196745   6.830   5.043   4.000  1.1809 -0.6186 -1.3435
31051SOL    HW296746   6.721   5.144   4.030 -0.2363 -2.5512  0.3142
31052SOL     OW96747   5.864   4.209   3.429 -0.1550  0.1533  0.4006
31052SOL    HW196748   5.836   4.133   3.480 -1.6356  1.0236  0.9446
31052SOL    HW296749   5.792   4.272   3.438  0.9144  1.5203 -0.2531
31053SOL     OW96750   1.839   6.781   9.638 -0.2725 -0.2962 -0.3099
31053SOL    HW196751   1.784   6.720   9.688 -1.7783  0.3801 -1.0621
31053SOL    HW296752   1.838   6.862   9.690 -0.3483 -0.1501 -0.5359
31054SOL     OW96753   2.923   5.780   2.547  0.0763  0.5328  0.0941
31054SOL    HW196754   2.870   5.702   2.528  1.8260 -1.3219  2.1674
31054SOL    HW296755   2.959   5.805   2.462 -0.5904 -0.9254 -0.6578
31055SOL     OW96756   4.456   9.553   0.976 -0.0693 -0.5610  0.4216
31055SOL    HW196757   4.426   9.641   1.002  0.1511  0.7018 -3.0793
31055SOL    HW296758   4.552   9.560   0.976 -0.0622 -0.4920 -0.6417
31056SOL     OW96759   1.855   8.796   6.184  0.1741 -0.6012  0.1462
31056SOL    HW196760   1.932   8.774   6.237  0.8280  0.8586 -0.1550
31056SOL    HW296761   1.889   8.849   6.112 -1.0390 -0.3753 -0.2918
31057SOL     OW96762   6.794   8.493   3.591  0.1657  0.2770  0.2922
31057SOL    HW196763   6.712   8.452   3.616  2.1987 -3.2712  1.9312
31057SOL    HW296764   6.821   8.447   3.512  1.4704 -0.0013  0.8719
31058SOL     OW96765   7.977   0.180   9.576  0.5542  0.0499  0.7594
31058SOL    HW196766   7.955   0.105   9.632  2.0192 -0.3332  0.8423
31058SOL    HW296767   7.900   0.237   9.582 -1.6612 -2.4824 -1.1764
31059SOL     OW96768   4.675   9.090  10.591  0.2801 -0.9873  0.2490
31059SOL    HW196769   4.657   9.072  10.499 -0.2171 -0.2393  0.1925
31059SOL    HW296770   4.623   9.168  10.612  1.2013 -0.5064  0.8713
31060SOL     OW96771   3.313   8.501   3.465 -0.1598 -0.2623  0.0121
31060SOL    HW196772   3.232   8.548   3.447 -0.4733 -0.2522  1.3355
31060SOL    HW296773   3.340   8.466   3.380 -0.7040  1.0545 -0.7318
31061SOL     OW96774   6.405   8.774   7.549  0.3109  0.0635 -0.4946
31061SOL    HW196775   6.371   8.691   7.582 -0.0530  0.2015 -0.5105
31061SOL    HW296776   6.356   8.789   7.468 -0.4350  0.8350  0.0779
31062SOL     OW96777   0.650   3.549   5.863 -0.7904  0.0466  0.8841
31062SOL    HW196778   0.600   3.475   5.829  0.9812  0.2015 -2.4235
31062SOL    HW296779   0.689   3.515   5.944 -1.2734 -2.1239  0.2824
31063SOL     OW96780   2.127   6.548   1.368  0.4053 -0.1322 -0.5106
31063SOL    HW196781   2.087   6.498   1.439 -1.2562 -0.3594 -1.5316
31063SOL    HW296782   2.203   6.496   1.342 -0.0875 -1.0472 -0.1767
31064SOL     OW96783   9.883   6.199   4.021 -0.4828 -0.6696 -0.4467
31064SOL    HW196784   9.804   6.248   3.998  0.2321  0.2036 -1.1285
31064SOL    HW296785   9.947   6.266   4.046  0.1118 -1.3452 -0.1098
31065SOL     OW96786   6.524   2.869   9.139 -0.0638  0.7610  0.3226
31065SOL    HW196787   6.433   2.846   9.155 -0.2153  2.2267  1.8533
31065SOL    HW296788   6.572   2.786   9.147 -1.1126  0.1890  0.7499
31066SOL     OW96789  10.294   9.383   0.175  0.1378  0.6463 -0.4891
31066SOL    HW196790  10.224   9.444   0.150  0.3714  0.5137 -1.5143
31066SOL    HW296791  10.374   9.423   0.143  0.1615 -0.8124 -2.4817
31067SOL     OW96792   3.915   8.656   4.251 -0.6216  0.5113 -0.2526
31067SOL    HW196793   3.869   8.740   4.259 -0.4768  0.5902 -0.2427
31067SOL    HW296794   3.960   8.663   4.167  0.0409  0.7636  0.1191
31068SOL     OW96795   3.300   5.462  10.093  0.1364  0.1081  0.1682
31068SOL    HW196796   3.376   5.491  10.144 -0.2785 -0.2006  0.9886
31068SOL    HW296797   3.304   5.513  10.012  1.8647 -0.7271 -0.3163
31069SOL     OW96798   2.240   9.388   9.501 -0.5523 -0.0871  0.1760
31069SOL    HW196799   2.168   9.357   9.556 -1.7893  0.4679 -1.0967
31069SOL    HW296800   2.291   9.445   9.560 -0.2389 -1.6617  1.5186
31070SOL     OW96801   4.989   2.304   6.129  0.1714 -0.3907 -0.2221
31070SOL    HW196802   5.063   2.252   6.098 -1.0810 -1.1346 -2.1678
31070SOL    HW296803   4.989   2.291   6.224  1.8771 -1.2242 -0.2973
31071SOL     OW96804   5.937   1.489   6.555  0.1604  0.2407  0.6154
31071SOL    HW196805   5.982   1.414   6.516  1.3040  1.1300  0.1714
31071SOL    HW296806   5.954   1.481   6.649 -0.3956 -0.4797  0.6599
31072SOL     OW96807   5.212   5.837   6.522  0.2478 -0.2919  0.8169
31072SOL    HW196808   5.284   5.897   6.500 -0.4063  0.5028  0.7723
31072SOL    HW296809   5.155   5.889   6.579 -1.1208 -0.3447 -0.4383
31073SOL     OW96810   8.474   1.419  10.851 -1.0086  0.3235  0.2504
31073SOL    HW196811   8.543   1.417  10.916 -1.6226 -1.0503  0.8936
31073SOL    HW296812   8.477   1.508  10.815  0.8302  0.3976  0.5122
31074SOL     OW96813   3.918   1.300   3.798 -0.1048 -0.1147 -0.1800
31074SOL    HW196814   3.871   1.218   3.781  0.0321  0.0033 -1.2032
31074SOL    HW296815   4.002   1.290   3.753  1.4884 -0.8509  2.6939
31075SOL     OW96816   0.014   2.110   6.982 -0.2174  0.5075 -0.5234
31075SOL    HW196817  -0.080   2.098   6.966 -0.3617 -2.5113  1.7125
31075SOL    HW296818   0.019   2.140   7.073  0.9664 -1.3713  0.0807
31076SOL     OW96819   2.554   5.985   2.929 -0.2289 -0.5071  0.3650
31076SOL    HW196820   2.498   6.045   2.979 -1.3789 -1.1806 -0.0721
31076SOL    HW296821   2.607   6.042   2.874 -0.4982  0.1499  0.7670
31077SOL     OW96822   1.896   8.603   4.917  0.5678  0.2305  0.6906
31077SOL    HW196823   1.817   8.582   4.866 -0.7581  2.1191  1.8493
31077SOL    HW296824   1.887   8.551   4.997  0.7259  0.1367  0.6487
31078SOL     OW96825   7.082  10.936   5.619 -0.1288 -0.5630  0.5106
31078SOL    HW196826   7.127  10.982   5.690 -0.3964  0.3926  0.0803
31078SOL    HW296827   7.043  10.859   5.661 -1.4056  0.6698  1.6856
31079SOL     OW96828   1.446   5.812   0.725 -0.1718  0.0183  0.5885
31079SOL    HW196829   1.502   5.798   0.649 -1.8470  1.5595 -1.0387
31079SOL    HW296830   1.492   5.878   0.777 -0.0837  0.7118 -0.3361
31080SOL     OW96831   3.523   2.440   3.473  0.4169  0.1804 -0.3496
31080SOL    HW196832   3.496   2.467   3.561 -0.1624 -0.1634 -0.4198
31080SOL    HW296833   3.618   2.427   3.481  0.8221  2.6803 -0.4319
31081SOL     OW96834   8.572   1.860   1.502 -0.2463  0.0417 -0.5548
31081SOL    HW196835   8.575   1.909   1.584  1.3115  0.4716 -0.8238
31081SOL    HW296836   8.574   1.768   1.527  0.9005  0.1721 -0.0898
31082SOL     OW96837  11.027   3.144   3.368  0.1058 -0.5283  0.2394
31082SOL    HW196838  11.065   3.217   3.417  1.3366 -0.1552 -1.1913
31082SOL    HW296839  11.064   3.152   3.280 -1.8997 -1.2446 -0.7527
31083SOL     OW96840   8.698   8.476  10.439 -0.7504 -0.3101 -0.1540
31083SOL    HW196841   8.782   8.499  10.479 -0.3790 -0.5392 -0.7819
31083SOL    HW296842   8.666   8.402  10.492 -0.1324 -0.7899 -0.4302
31084SOL     OW96843  10.142   2.275   5.759 -0.0508 -0.1964 -0.4957
31084SOL    HW196844  10.160   2.213   5.830 -0.7175 -0.8613 -0.8950
31084SOL    HW296845  10.052   2.255   5.732 -0.6171  1.5693 -0.0131
31085SOL     OW96846   9.012   1.566   6.826 -0.5055 -0.0850  0.2641
31085SOL    HW196847   9.008   1.495   6.890  2.1814 -1.1319 -0.5832
31085SOL    HW296848   9.088   1.618   6.853  0.7557 -0.5953 -1.9682
31086SOL     OW96849  10.656   0.159   9.906 -0.0405 -0.4450  0.2324
31086SOL    HW196850  10.628   0.120   9.823  0.8816  0.9327 -0.7867
31086SOL    HW296851  10.580   0.208   9.937  0.4127  1.3319 -1.2889
31087SOL     OW96852   4.812   7.875  10.273 -0.1519  0.2285  0.0477
31087SOL    HW196853   4.870   7.935  10.320 -0.1124  0.6699 -0.5497
31087SOL    HW296854   4.739   7.930  10.244  1.2809  0.6912 -3.0318
31088SOL     OW96855   2.125   9.227  10.531  0.0220  0.3149 -0.0716
31088SOL    HW196856   2.167   9.311  10.550 -0.4445  0.6990 -0.6952
31088SOL    HW296857   2.036   9.236  10.563 -0.3920  0.5111 -1.2356
31089SOL     OW96858   6.972   2.424   8.044  0.3470  0.0655  0.2963
31089SOL    HW196859   6.994   2.409   7.952 -1.1661 -0.4195 -0.0000
31089SOL    HW296860   6.941   2.514   8.047 -1.1105 -0.4033  0.0126
31090SOL     OW96861   4.899   2.762   7.331 -0.3585  0.2006 -0.5645
31090SOL    HW196862   4.971   2.715   7.373 -0.1234  0.4440 -0.6916
31090SOL    HW296863   4.821   2.712   7.354 -0.2246  0.2924  0.1011
31091SOL     OW96864  10.229   0.016   4.219  0.0696 -0.3028 -0.1989
31091SOL    HW196865  10.217   0.107   4.248 -1.8077 -0.8778  0.9989
31091SOL    HW296866  10.178   0.010   4.139 -1.8317 -0.8546  0.9870
31092SOL     OW96867   1.245   2.432   9.752 -0.2154 -0.2110 -0.1037
31092SOL    HW196868   1.198   2.371   9.809 -1.8624  2.7214  1.8881
31092SOL    HW296869   1.326   2.452   9.800 -0.7530  0.8712  0.3768
31093SOL     OW96870   7.918   4.938   1.255  0.3250 -0.4415  0.1574
31093SOL    HW196871   7.872   4.854   1.250  1.9150 -1.2937 -1.6687
31093SOL    HW296872   7.879   4.983   1.329 -1.1838 -2.4350  0.6468
31094SOL     OW96873  11.004   5.340   6.630  0.7598  0.4887  0.1458
31094SOL    HW196874  11.087   5.375   6.599  1.0162  0.5182  0.8373
31094SOL    HW296875  10.952   5.417   6.653  0.5689  0.4680 -0.2076
31095SOL     OW96876   5.743  10.274   2.198 -0.3563  0.2531  0.1220
31095SOL    HW196877   5.738  10.195   2.252  0.2715 -0.3759 -0.7236
31095SOL    HW296878   5.661  10.274   2.149  0.7460 -1.3847 -1.8875
31096SOL     OW96879   9.132   2.727   0.169 -0.2514  0.1391  0.0326
31096SOL    HW196880   9.057   2.772   0.209  0.3588  2.3082 -1.0955
31096SOL    HW296881   9.099   2.696   0.085 -0.4621 -0.8986  0.4861
31097SOL     OW96882   7.468   8.664   2.277 -0.0605  0.2715  0.0411
31097SOL    HW196883   7.443   8.604   2.348  0.0002  1.1213  0.7958
31097SOL    HW296884   7.497   8.606   2.206 -0.6558 -0.6116  0.4997
31098SOL     OW96885   9.618   8.547   5.340  0.2055 -0.1965 -0.1376
31098SOL    HW196886   9.635   8.617   5.402  0.2383  1.8581 -2.3134
31098SOL    HW296887   9.531   8.566   5.306 -0.6453 -2.4131  0.6144
31099SOL     OW96888   9.293   5.381   0.165  0.1660 -0.1932 -0.4945
31099SOL    HW196889   9.239   5.324   0.220  0.8715 -0.0464  0.3885
31099SOL    HW296890   9.289   5.466   0.208  2.8646 -0.6784  0.9427
31100SOL     OW96891   4.801   8.620   9.918 -0.6894  0.4297 -0.0724
31100SOL    HW196892   4.869   8.662   9.865  0.3351  0.7371  1.4108
31100SOL    HW296893   4.829   8.528   9.923  0.7220  0.9072  2.0743
31101SOL     OW96894   5.012  10.522   8.761  0.5962 -0.1488 -0.1795
31101SOL    HW196895   5.047  10.611   8.768  2.6784 -1.0068  1.5625
31101SOL    HW296896   5.017  10.487   8.850  0.0951 -2.1002 -0.8703
31102SOL     OW96897   9.810   3.886   9.526 -0.1408 -0.1518  0.0775
31102SOL    HW196898   9.732   3.858   9.480  0.7913 -1.9478 -0.4938
31102SOL    HW296899   9.784   3.892   9.618 -0.8368 -1.1664 -0.0481
31103SOL     OW96900   5.162   2.083   4.577 -0.0086  0.1526 -0.1729
31103SOL    HW196901   5.249   2.123   4.584  0.1947 -0.2023 -0.6061
31103SOL    HW296902   5.104   2.157   4.557  0.1431  0.4358  0.4211
31104SOL     OW96903   3.562   8.365   5.081  0.1635  0.5692 -0.2404
31104SOL    HW196904   3.656   8.374   5.064  0.9650 -1.7072  2.2202
31104SOL    HW296905   3.523   8.344   4.997  2.0924  0.1214 -1.0607
31105SOL     OW96906   4.355   2.107   6.638  0.0513  0.4428 -0.0778
31105SOL    HW196907   4.297   2.157   6.581 -2.1090 -0.5376  1.1498
31105SOL    HW296908   4.430   2.084   6.583 -1.4899  0.3181 -2.2289
31106SOL     OW96909   2.198   1.293   0.928  0.0362 -0.6023  0.5368
31106SOL    HW196910   2.190   1.244   1.009  1.2562  0.8879  1.6244
31106SOL    HW296911   2.261   1.244   0.875 -1.1936 -1.8850  0.2097
31107SOL     OW96912   1.914   5.171   3.642 -0.1943  0.2704 -0.5103
31107SOL    HW196913   1.932   5.077   3.646  0.3051  0.3788  0.0214
31107SOL    HW296914   1.854   5.181   3.569 -2.2081 -0.7820  0.9057
31108SOL     OW96915   0.320   2.131   0.434 -0.0664  0.2994  0.0952
31108SOL    HW196916   0.265   2.209   0.425  0.3995  0.8731  1.7733
31108SOL    HW296917   0.258   2.058   0.437 -0.7262  0.8698  1.2241
31109SOL     OW96918   9.206   1.909   3.208  1.0268  0.4795  0.1816
31109SOL    HW196919   9.184   1.985   3.154 -3.5699 -0.9361 -0.4312
31109SOL    HW296920   9.251   1.849   3.148  0.4868  0.9153 -0.6881
31110SOL     OW96921   0.367  10.921   2.578  0.1389 -0.1866 -0.2688
31110SOL    HW196922   0.341  10.838   2.620  1.7520 -0.0372  1.1310
31110SOL    HW296923   0.285  10.971   2.573 -0.7625 -1.6448 -0.6439
31111SOL     OW96924   2.654   1.512   6.678 -0.2380  0.0060  0.2690
31111SOL    HW196925   2.569   1.488   6.714 -0.2777 -0.2797 -0.0113
31111SOL    HW296926   2.664   1.457   6.601  0.7520 -0.8620  0.9861
31112SOL     OW96927   4.730   8.973   7.868 -0.0626 -0.1852 -0.4572
31112SOL    HW196928   4.816   8.942   7.840 -0.0788  0.7955 -1.6760
31112SOL    HW296929   4.701   8.908   7.933  1.2921 -0.8860 -0.5160
31113SOL     OW96930  10.472   9.388   0.724 -0.0400  0.0740 -0.3298
31113SOL    HW196931  10.554   9.425   0.692 -0.9553  0.6079 -2.1869
31113SOL    HW296932  10.487   9.293   0.724  0.7369  0.1914 -0.1294
31114SOL     OW96933   6.465  10.923   1.644 -0.0554 -0.0787 -0.3233
31114SOL    HW196934   6.453  10.950   1.553 -0.6248 -0.1942 -0.2819
31114SOL    HW296935   6.383  10.882   1.669  0.6618 -1.5660 -0.2741
31115SOL     OW96936   1.496   4.028   8.685  0.0594 -0.2294  0.4837
31115SOL    HW196937   1.517   3.937   8.662 -0.1862  0.2020 -1.6018
31115SOL    HW296938   1.576   4.062   8.726  1.0025 -0.6858 -0.9191
31116SOL     OW96939   2.995   8.806   3.176 -0.1091  0.4021 -0.2174
31116SOL    HW196940   3.031   8.894   3.169 -1.9188  1.3467  1.1645
31116SOL    HW296941   2.925   8.803   3.110  0.0036 -0.0362 -0.3225
31117SOL     OW96942   1.960   7.350   4.324  0.0259 -1.0417  0.3381
31117SOL    HW196943   1.937   7.441   4.306 -0.8167 -1.1308  0.8898
31117SOL    HW296944   1.960   7.345   4.420  0.8739 -1.4315  0.3248
31118SOL     OW96945   2.129   7.772  10.701  0.3039 -0.3271 -0.3001
31118SOL    HW196946   2.076   7.771  10.622 -1.6227  2.9046  0.8009
31118SOL    HW296947   2.185   7.849  10.692  0.8823 -0.5630  1.0065
31119SOL     OW96948   2.851   5.115   2.947  0.2284 -0.4514 -0.6940
31119SOL    HW196949   2.905   5.096   3.024  0.7018 -1.7318 -1.3158
31119SOL    HW296950   2.910   5.105   2.873 -0.7529 -1.4707 -1.3630
31120SOL     OW96951   4.154   7.584   1.632 -0.1910  0.0583 -0.2321
31120SOL    HW196952   4.105   7.547   1.559 -0.8372 -0.4606  0.4467
31120SOL    HW296953   4.178   7.672   1.603 -3.4677  1.2437  0.2293
31121SOL     OW96954   0.287   4.199  10.798  0.2983  0.7834  0.1965
31121SOL    HW196955   0.207   4.242  10.828  1.2356  2.3792  0.5424
31121SOL    HW296956   0.273   4.106  10.818 -1.3592  1.0489  0.4448
31122SOL     OW96957   6.992   4.522   1.661 -0.0395  0.0987 -0.0566
31122SOL    HW196958   7.058   4.453   1.661  0.5910  0.5539 -3.1577
31122SOL    HW296959   6.913   4.479   1.628  0.6458  0.9366 -3.0996
31123SOL     OW96960  10.864   9.721   3.668  0.4600  0.4845  0.3790
31123SOL    HW196961  10.864   9.715   3.573 -0.1800 -0.4328  0.4289
31123SOL    HW296962  10.776   9.752   3.690  0.5403  0.4984  0.6824
31124SOL     OW96963   6.005   6.182   0.206  0.1363 -0.5617 -0.1272
31124SOL    HW196964   5.947   6.128   0.259 -1.5129  0.6225 -0.6486
31124SOL    HW296965   6.089   6.136   0.208 -0.3803 -1.5305  1.9178
31125SOL     OW96966   0.382   3.276   1.967  0.2423 -0.0491 -0.0542
31125SOL    HW196967   0.409   3.368   1.972  0.8445 -0.2848  2.1956
31125SOL    HW296968   0.381   3.256   1.873  0.5715  2.1019 -0.5618
31126SOL     OW96969   2.858   6.707   1.258  0.0795  0.2409  0.9687
31126SOL    HW196970   2.813   6.766   1.318 -0.9764  0.5611 -0.1099
31126SOL    HW296971   2.860   6.755   1.175  0.7625 -0.5384  0.5285
31127SOL     OW96972   3.382   4.742   8.415  0.0868  0.0483 -0.3305
31127SOL    HW196973   3.307   4.684   8.427 -1.4145  1.7564 -1.0942
31127SOL    HW296974   3.432   4.701   8.344  0.1749 -1.3484  0.4947
31128SOL     OW96975   6.037   6.665   2.839  0.7469  0.1177 -0.7184
31128SOL    HW196976   5.984   6.587   2.857  1.5980 -0.5213 -0.8710
31128SOL    HW296977   6.008   6.729   2.903  1.0749 -0.8379  0.4280
31129SOL     OW96978   6.134   1.655   4.512  0.1286 -0.4347 -0.5021
31129SOL    HW196979   6.087   1.711   4.449 -1.9051  0.8858  1.9686
31129SOL    HW296980   6.069   1.591   4.539  1.1596 -1.3622 -0.1734
31130SOL     OW96981   2.317   2.574   5.303 -0.1975  0.1123  0.0988
31130SOL    HW196982   2.296   2.666   5.290  0.4371  0.0679 -1.3580
31130SOL    HW296983   2.296   2.558   5.395 -0.6829  1.6022  0.2731
31131SOL     OW96984  10.804   0.296   3.042  0.5611  0.2345  0.2180
31131SOL    HW196985  10.807   0.323   2.950  2.0358 -0.1601  0.1232
31131SOL    HW296986  10.873   0.347   3.084 -0.7630  1.1712  1.3537
31132SOL     OW96987   5.130   7.805   7.102  0.2935  0.4417 -0.1896
31132SOL    HW196988   5.085   7.811   7.186  1.0187  0.7357  0.1922
31132SOL    HW296989   5.223   7.796   7.125  0.3035 -2.1864 -0.9080
31133SOL     OW96990   5.838   7.247   6.213  0.3861  0.2709 -0.4723
31133SOL    HW196991   5.837   7.195   6.133  0.9220 -0.6380  0.0928
31133SOL    HW296992   5.855   7.184   6.283 -2.7723  0.5422  0.7380
31134SOL     OW96993   1.671  10.006   7.446 -0.3414 -0.9180  0.2189
31134SOL    HW196994   1.584  10.039   7.422 -1.0030 -1.4791  1.6867
31134SOL    HW296995   1.671   9.915   7.417 -1.1788 -1.6265  2.2437
31135SOL     OW96996   3.138   6.825   2.676  0.5800  0.4489  0.1181
31135SOL    HW196997   3.133   6.743   2.626  0.7723  1.2593 -1.2756
31135SOL    HW296998   3.225   6.823   2.716  1.0443  0.4623 -0.8463
31136SOL     OW96999   5.779   7.191   7.901 -0.0926  0.2338 -1.1909
31136SOL    HW197000   5.781   7.248   7.979  0.4374  1.0340 -1.7721
31136SOL    HW297001   5.835   7.117   7.925 -0.4241  0.1689 -0.5878
31137SOL     OW97002   3.848   4.272   5.399  0.1605  0.0899  0.2406
31137SOL    HW197003   3.883   4.326   5.328  1.2022  0.2557  0.8482
31137SOL    HW297004   3.919   4.210   5.418  1.3273  2.1119  3.2983
31138SOL     OW97005   5.987   4.253   5.794  0.0417 -0.7065 -0.1703
31138SOL    HW197006   6.010   4.168   5.832 -3.6126 -1.7336  0.1418
31138SOL    HW297007   5.998   4.240   5.700  0.2977 -1.2786 -0.0691
31139SOL     OW97008   3.036  10.321  10.937  0.7118 -0.3513  0.0578
31139SOL    HW197009   3.085  10.238  10.938 -0.6868 -1.2602 -1.5684
31139SOL    HW297010   2.995  10.324  10.851 -2.4851  0.1033  1.4468
31140SOL     OW97011   9.882   1.681   8.940  0.1506 -0.0767  0.4044
31140SOL    HW197012   9.871   1.717   8.852  0.3296 -0.1017  0.3721
31140SOL    HW297013   9.973   1.702   8.964 -0.4419  1.5985  1.3318
31141SOL     OW97014   4.716   5.551   3.894  0.0911  0.3621  0.0174
31141SOL    HW197015   4.623   5.530   3.884 -0.0983  0.7834  0.7796
31141SOL    HW297016   4.718   5.618   3.963  0.9346  0.5809 -0.2109
31142SOL     OW97017   4.669  10.090   9.181 -0.4300  0.4846  0.1639
31142SOL    HW197018   4.754  10.050   9.196 -1.6140 -1.3998  2.4423
31142SOL    HW297019   4.685  10.156   9.113  2.7604  0.0668  0.3761
31143SOL     OW97020   9.565   7.985  10.575 -0.3192  0.1129 -0.0081
31143SOL    HW197021   9.592   8.040  10.648 -0.7149 -0.2550  0.4270
31143SOL    HW297022   9.504   7.923  10.614  0.0632 -0.5864 -0.4997
31144SOL     OW97023   7.936   9.915   7.981 -0.3131  0.1898 -0.2231
31144SOL    HW197024   7.917   9.855   7.909 -0.1383 -0.1956  0.0532
31144SOL    HW297025   7.879   9.991   7.965 -0.9878 -0.3129 -0.2231
31145SOL     OW97026   3.101   8.571   3.070  0.0128 -0.7321  0.1473
31145SOL    HW197027   3.022   8.517   3.075 -0.3071 -0.2505  0.2594
31145SOL    HW297028   3.074   8.657   3.100  0.1759 -0.1077 -1.4156
31146SOL     OW97029   2.034   3.601   0.244  0.0480 -0.3563  0.0653
31146SOL    HW197030   1.968   3.541   0.210  1.5626 -2.7961  1.1319
31146SOL    HW297031   1.992   3.687   0.243 -2.6835 -1.6103 -0.3909
31147SOL     OW97032   6.487   2.638   9.614 -1.0252  0.5595  0.2881
31147SOL    HW197033   6.522   2.553   9.586 -1.0569  0.3660  0.8155
31147SOL    HW297034   6.537   2.659   9.693 -1.1705  0.9293  0.2820
31148SOL     OW97035   3.574   0.151   0.663  0.4729  0.4877  0.2993
31148SOL    HW197036   3.499   0.148   0.724 -0.0101 -0.3647 -0.3168
31148SOL    HW297037   3.535   0.173   0.579  1.0665  1.0673  0.1710
31149SOL     OW97038   4.818  10.237   2.271  0.0580 -0.3711 -0.0560
31149SOL    HW197039   4.883  10.262   2.337  1.2563  0.6906 -1.5820
31149SOL    HW297040   4.799  10.318   2.224  1.1868 -1.5222 -2.6644
31150SOL     OW97041   1.025   2.637   8.600 -0.2357 -0.2398  0.2932
31150SOL    HW197042   0.934   2.616   8.579 -0.1976 -0.2563  0.1441
31150SOL    HW297043   1.059   2.558   8.642 -0.3355 -0.1783  0.4875
31151SOL     OW97044   8.743   3.632   8.372  0.2398  0.4254  0.3241
31151SOL    HW197045   8.663   3.648   8.322  0.7847  0.4182 -0.5767
31151SOL    HW297046   8.765   3.717   8.409  0.8136  0.8699 -0.9671
31152SOL     OW97047   9.588   6.200   2.980 -0.2014  0.2966 -0.6116
31152SOL    HW197048   9.624   6.215   3.067 -2.7136  0.7304  0.4367
31152SOL    HW297049   9.665   6.182   2.925  1.5360  0.9524  1.4581
31153SOL     OW97050   8.970   8.334   5.959 -0.0246 -0.4171 -0.3860
31153SOL    HW197051   9.058   8.339   5.995 -0.5781  0.4476  0.9624
31153SOL    HW297052   8.934   8.253   5.995 -0.2755 -0.0056  0.3083
31154SOL     OW97053   2.426  10.807   6.307  0.8986 -0.0591  0.0542
31154SOL    HW197054   2.519  10.827   6.294  0.6968 -0.4518 -2.4513
31154SOL    HW297055   2.382  10.843   6.230 -0.6758 -2.0156 -0.0629
31155SOL     OW97056   7.738   2.364   2.055 -0.6107  0.1356 -0.6014
31155SOL    HW197057   7.830   2.338   2.046 -0.5503  0.3368 -0.5609
31155SOL    HW297058   7.689   2.282   2.042 -0.3207 -0.4772  1.7704
31156SOL     OW97059   7.321   6.982   0.778  0.0950 -0.5452 -0.9151
31156SOL    HW197060   7.348   6.934   0.856  0.7642  1.2457 -0.0087
31156SOL    HW297061   7.234   7.016   0.799  0.4189  0.2269 -0.8098
31157SOL     OW97062   0.663   1.721   8.294 -0.0344  0.3352 -0.8599
31157SOL    HW197063   0.637   1.647   8.239  0.1808 -0.1553 -0.3107
31157SOL    HW297064   0.670   1.795   8.234  0.2522 -0.2071 -1.4963
31158SOL     OW97065   3.443   7.199   2.162 -0.4878  0.4486 -0.2415
31158SOL    HW197066   3.432   7.105   2.146  1.5138  0.2597 -0.7976
31158SOL    HW297067   3.531   7.218   2.130  0.5519  1.7984  3.0632
31159SOL     OW97068   9.081   5.318   2.693  0.4114  0.6147  0.2888
31159SOL    HW197069   8.998   5.281   2.721 -0.4632  0.6276 -2.0914
31159SOL    HW297070   9.108   5.265   2.619  0.7098  2.7564 -1.2417
31160SOL     OW97071  10.020   9.312   9.049 -0.2132 -0.4308  0.0400
31160SOL    HW197072  10.107   9.274   9.045  1.3358  2.8068 -0.5667
31160SOL    HW297073   9.991   9.298   9.140  0.8702 -1.6387  0.2171
31161SOL     OW97074   4.944  10.216   9.399 -0.1593  0.1553  0.0904
31161SOL    HW197075   5.034  10.188   9.413 -1.2051 -2.9730  1.4995
31161SOL    HW297076   4.935  10.222   9.304  1.2958 -0.3333 -0.0987
31162SOL     OW97077   7.161   6.264   8.871  0.3013 -0.1219 -0.3215
31162SOL    HW197078   7.153   6.359   8.870  0.5176 -0.0898  0.6603
31162SOL    HW297079   7.118   6.236   8.952  0.9322 -0.7873 -0.1971
31163SOL     OW97080   1.054   6.298   1.155  0.0204  0.2900 -0.0919
31163SOL    HW197081   0.998   6.265   1.226 -0.1839  1.2374  0.2059
31163SOL    HW297082   1.104   6.222   1.126 -1.6649 -0.6676 -0.5891
31164SOL     OW97083   6.623   9.291   5.355 -0.6775 -0.0082 -0.0907
31164SOL    HW197084   6.554   9.358   5.356 -0.5056  0.1867 -0.6108
31164SOL    HW297085   6.686   9.321   5.420 -1.4251 -0.5651  0.9103
31165SOL     OW97086   5.212   2.758   1.190  0.6007  0.1187 -0.6544
31165SOL    HW197087   5.126   2.797   1.198 -0.1080 -1.1169 -1.9275
31165SOL    HW297088   5.210   2.684   1.252  0.6567 -0.0580 -0.8631
31166SOL     OW97089   9.467   2.439   9.090 -0.0064  0.0582 -0.0296
31166SOL    HW197090   9.427   2.512   9.043  0.5397 -0.3231 -1.1264
31166SOL    HW297091   9.556   2.433   9.055 -0.3301 -1.7191 -0.7053
31167SOL     OW97092   4.033   4.956   2.663 -0.4075 -0.4060 -0.5425
31167SOL    HW197093   4.020   4.898   2.588 -0.5574 -0.4906 -0.4529
31167SOL    HW297094   3.983   4.914   2.734  1.7394 -1.6831  0.3040
31168SOL     OW97095   8.436   6.218   6.009 -0.3621  0.5102 -0.3766
31168SOL    HW197096   8.431   6.124   6.025  0.7251  0.4125 -0.5666
31168SOL    HW297097   8.347   6.243   5.983 -0.8364 -0.3247  0.3915
31169SOL     OW97098   4.553   5.945   7.922  0.2902  0.3739 -0.1867
31169SOL    HW197099   4.634   5.995   7.932  0.5913 -0.1527  0.0833
31169SOL    HW297100   4.581   5.854   7.930 -0.5602  0.2382  1.6696
31170SOL     OW97101   2.454   6.287   0.399 -0.6466 -0.1139  0.5123
31170SOL    HW197102   2.540   6.308   0.364 -0.1660 -0.9772  1.1470
31170SOL    HW297103   2.409   6.372   0.403 -0.1836  0.2108 -0.7280
31171SOL     OW97104   6.419   9.382   8.694  0.2091 -0.2969 -0.0540
31171SOL    HW197105   6.348   9.438   8.664 -1.6154 -2.7632 -0.7184
31171SOL    HW297106   6.479   9.375   8.619  0.0842  0.2010 -0.2001
31172SOL     OW97107   2.301  10.333   1.396 -0.1526 -0.3946  0.0825
31172SOL    HW197108   2.224  10.373   1.437 -0.4684 -0.1900 -0.6847
31172SOL    HW297109   2.315  10.386   1.317  2.3267  1.2033  1.4845
31173SOL     OW97110   0.533   4.171   3.308  0.3495  0.1338  0.2442
31173SOL    HW197111   0.599   4.238   3.288 -0.8174  1.4833  0.7451
31173SOL    HW297112   0.500   4.194   3.395  0.0847 -1.2529  0.5406
31174SOL     OW97113   2.492  10.548  10.533  0.2787  0.5379 -0.2533
31174SOL    HW197114   2.431  10.592  10.473 -1.9057 -1.8856  0.0092
31174SOL    HW297115   2.554  10.504  10.475  0.1450  0.8082 -0.6084
31175SOL     OW97116   5.588   7.254   9.306 -0.1071 -0.4569  0.3278
31175SOL    HW197117   5.585   7.283   9.397 -0.9035  1.6491 -0.3102
31175SOL    HW297118   5.678   7.273   9.278 -0.4488  0.8929  0.0977
31176SOL     OW97119   6.186   3.399   4.152  0.0360  0.4201  0.3596
31176SOL    HW197120   6.122   3.444   4.096 -1.7293 -1.2873  0.8705
31176SOL    HW297121   6.212   3.465   4.216  0.5823  1.8293 -1.2434
31177SOL     OW97122  10.470   8.955   5.858  1.1240  0.3366 -0.6984
31177SOL    HW197123  10.434   8.983   5.774 -2.2658 -4.3960 -1.2164
31177SOL    HW297124  10.529   8.882   5.836 -0.4682 -1.5456  0.8900
31178SOL     OW97125   0.475  11.082  10.855  0.3681  0.1848 -0.4593
31178SOL    HW197126   0.459  11.086  10.761  0.9324 -1.4782 -0.6574
31178SOL    HW297127   0.427  11.004  10.884  0.2436  0.6480  0.6263
31179SOL     OW97128   3.761   9.482   3.974  0.2380 -0.3939 -0.5692
31179SOL    HW197129   3.730   9.523   4.055  1.4001 -1.4961  0.4647
31179SOL    HW297130   3.796   9.555   3.923 -0.7433  0.3516 -0.2202
31180SOL     OW97131   5.974   9.839   6.517  0.2344  0.5477 -0.1150
31180SOL    HW197132   5.982   9.749   6.486 -3.0516 -0.2170  0.8083
31180SOL    HW297133   6.044   9.849   6.582  0.0177 -1.7137  0.5326
31181SOL     OW97134   9.095   9.282   5.035 -0.4122  0.1929 -0.1439
31181SOL    HW197135   9.066   9.276   5.126  0.7637  1.5242  0.3441
31181SOL    HW297136   9.190   9.269   5.039 -0.0316  2.4037 -0.8773
31182SOL     OW97137   7.166   1.504   5.223 -0.4005 -0.3072  0.2687
31182SOL    HW197138   7.242   1.505   5.281  0.2263 -0.4844 -0.5266
31182SOL    HW297139   7.134   1.594   5.224 -1.2178 -0.5803  1.9064
31183SOL     OW97140   6.362   3.925   7.462 -1.0199  0.2540  0.0878
31183SOL    HW197141   6.444   3.974   7.464 -0.7722 -0.1428 -0.2657
31183SOL    HW297142   6.385   3.841   7.424 -1.0936 -0.7688  2.1607
31184SOL     OW97143   7.106   5.067   1.131  0.8907  0.6470  0.2982
31184SOL    HW197144   7.121   4.975   1.152  0.6873  0.4472 -0.3904
31184SOL    HW297145   7.066   5.065   1.044  0.2476  1.3504  0.5666
31185SOL     OW97146  10.195   4.118   5.992 -0.1378  0.5012  0.2890
31185SOL    HW197147  10.151   4.203   5.993 -0.9619  0.0940  1.4014
31185SOL    HW297148  10.126   4.056   5.967  0.4402  0.1481 -0.4679
31186SOL     OW97149   2.113  10.471   7.283 -0.0986  0.1177  0.3288
31186SOL    HW197150   2.026  10.455   7.320  0.3562  0.0761  1.4062
31186SOL    HW297151   2.096  10.524   7.205 -1.1244 -0.2956  0.2563
31187SOL     OW97152   3.492   9.001   8.468 -0.0094 -0.1885 -0.0434
31187SOL    HW197153   3.532   9.080   8.431 -0.8146 -0.4532 -1.5461
31187SOL    HW297154   3.407   9.030   8.502 -0.1933 -0.3611 -0.3570
31188SOL     OW97155   1.031   4.947  10.668 -0.5454 -0.1347  0.0751
31188SOL    HW197156   1.026   5.013  10.737  0.1140 -1.3197  1.2835
31188SOL    HW297157   0.958   4.888  10.685 -0.2980 -0.5151 -0.1708
31189SOL     OW97158   3.361   5.552   7.515  0.2198  0.1879 -0.3597
31189SOL    HW197159   3.396   5.550   7.604  0.6555  2.4881 -0.4135
31189SOL    HW297160   3.414   5.488   7.467 -0.3363 -1.4570  1.0797
31190SOL     OW97161   6.680   6.280   5.426 -0.4994 -0.4104  0.0951
31190SOL    HW197162   6.626   6.357   5.415  0.4686  0.1642 -0.7678
31190SOL    HW297163   6.727   6.270   5.343 -0.0770 -1.5052  0.4376
31191SOL     OW97164   9.746   1.754   8.696 -0.7036  0.4178 -0.2390
31191SOL    HW197165   9.708   1.841   8.707  0.7531  1.2863 -1.6937
31191SOL    HW297166   9.833   1.770   8.660  0.8744 -1.5085  2.3293
31192SOL     OW97167   7.329  10.906   8.533 -0.6176 -0.2788  0.1213
31192SOL    HW197168   7.246  10.950   8.519 -0.5676 -0.7464 -1.8482
31192SOL    HW297169   7.317  10.858   8.616 -1.7318  0.9008  0.6639
31193SOL     OW97170   5.821   6.797  10.330  0.1367 -0.0614 -0.1313
31193SOL    HW197171   5.854   6.790  10.241 -2.0379 -1.0699 -0.9084
31193SOL    HW297172   5.794   6.709  10.354 -0.3593  0.3969  1.1157
31194SOL     OW97173   0.448   7.492  10.719  0.0325  0.3886 -0.0128
31194SOL    HW197174   0.528   7.520  10.764 -0.2132  1.5879 -0.2744
31194SOL    HW297175   0.425   7.409  10.760  2.4349 -0.9653 -1.2111
31195SOL     OW97176   1.964   1.624   1.031  0.7074 -0.7523  0.1613
31195SOL    HW197177   2.047   1.671   1.030  0.5066 -0.3603  1.0973
31195SOL    HW297178   1.985   1.538   0.993  1.0902  0.0376 -1.4704
31196SOL     OW97179   4.101   3.246   0.055 -0.8031 -0.3906 -0.5820
31196SOL    HW197180   4.107   3.341   0.049  0.0314 -0.2989  1.1776
31196SOL    HW297181   4.137   3.215  -0.028  0.5370  0.7971 -0.4845
31197SOL     OW97182  10.864   9.577   8.338  0.4203  0.0291  0.0298
31197SOL    HW197183  10.919   9.655   8.346  0.7915 -0.2084 -0.1392
31197SOL    HW297184  10.910   9.511   8.389  0.1665 -0.1105  0.0787
31198SOL     OW97185   1.530   7.728   8.926  0.4870  0.0083  0.7114
31198SOL    HW197186   1.605   7.781   8.898  1.2403 -0.6253  1.4515
31198SOL    HW297187   1.558   7.638   8.911  0.1898 -0.2628  1.7133
31199SOL     OW97188   2.945  10.254   0.952 -0.3880 -0.6692 -0.6376
31199SOL    HW197189   3.015  10.192   0.932  0.4953  0.3090 -0.7181
31199SOL    HW297190   2.943  10.314   0.877 -0.5424 -0.0206 -0.1320
31200SOL     OW97191   1.180   4.109   2.694 -0.6955  0.1580 -0.3824
31200SOL    HW197192   1.192   4.193   2.649  0.1358  0.0109 -0.4441
31200SOL    HW297193   1.089   4.112   2.725 -0.7459  0.9894 -0.5688
31201SOL     OW97194   5.030   0.588   7.242  0.2864  0.4769 -0.1107
31201SOL    HW197195   4.937   0.605   7.225 -0.2299  0.7950  2.6515
31201SOL    HW297196   5.061   0.666   7.288  1.0140 -0.9941  2.0192
31202SOL     OW97197   6.326   0.215   2.311 -0.2751 -0.5370 -0.2160
31202SOL    HW197198   6.324   0.237   2.218  0.7599  0.8041  0.0369
31202SOL    HW297199   6.415   0.182   2.325 -0.5105 -0.9719  0.2451
31203SOL     OW97200   3.884   1.613   5.159 -0.1229  0.1687  0.4854
31203SOL    HW197201   3.797   1.613   5.200 -0.4914  1.0977 -0.2487
31203SOL    HW297202   3.902   1.705   5.141 -0.6200 -0.2245 -2.6762
31204SOL     OW97203   7.713   3.261   5.982  0.1367  0.0245 -0.2894
31204SOL    HW197204   7.800   3.222   5.983  0.8128  1.2617 -2.6138
31204SOL    HW297205   7.657   3.196   5.941 -0.1116 -0.8123  1.2977
31205SOL     OW97206   9.545  10.021   5.198  0.0437  0.0137  0.1363
31205SOL    HW197207   9.472   9.987   5.250  1.1284  0.0947  1.7993
31205SOL    HW297208   9.521  10.111   5.178 -1.2852 -0.6138 -1.2771
31206SOL     OW97209   5.484   2.592   8.187  0.1053  0.2336 -0.0637
31206SOL    HW197210   5.495   2.503   8.221 -0.7137 -0.4622 -1.5098
31206SOL    HW297211   5.529   2.590   8.102  1.0102  1.5431  0.3559
31207SOL     OW97212   7.194   6.706   7.662  0.0691  0.8789  0.2454
31207SOL    HW197213   7.271   6.761   7.654  0.4582  0.2581 -0.4186
31207SOL    HW297214   7.121   6.763   7.636  0.6253  0.7025 -1.8902
31208SOL     OW97215   4.720  10.259   4.782 -0.5407  0.2699 -0.5550
31208SOL    HW197216   4.726  10.349   4.750 -1.0204  0.1815 -0.9130
31208SOL    HW297217   4.626  10.238   4.776 -0.6327  0.2296  0.8694
31209SOL     OW97218   2.599   3.311  10.057 -0.3233  0.2536  0.2222
31209SOL    HW197219   2.631   3.389  10.012 -0.9604  0.2638 -0.2295
31209SOL    HW297220   2.665   3.293  10.124  0.1000  0.8626 -0.0216
31210SOL     OW97221   2.810   1.088   6.539 -0.2810 -0.1697 -0.3327
31210SOL    HW197222   2.853   1.003   6.528  2.2635  1.0463 -0.4013
31210SOL    HW297223   2.814   1.105   6.634 -2.4773 -0.8678 -0.0383
31211SOL     OW97224   4.451   7.953   7.349  0.5316  0.2125 -0.0375
31211SOL    HW197225   4.460   7.866   7.389  1.4470  0.4373  0.2755
31211SOL    HW297226   4.431   7.935   7.257 -0.1140 -0.3200  0.1995
31212SOL     OW97227   8.024   2.622   5.149  0.4875 -0.0578  0.0841
31212SOL    HW197228   8.046   2.653   5.061  0.2932  0.4115  0.1994
31212SOL    HW297229   7.998   2.701   5.197 -1.8138 -0.5951 -0.1485
31213SOL     OW97230   3.563   8.948   2.022  0.0488  0.3883  0.1061
31213SOL    HW197231   3.508   8.903   1.958 -0.1227  0.0229  0.5090
31213SOL    HW297232   3.512   9.025   2.048  0.9614  1.6545 -1.6831
31214SOL     OW97233   6.724   5.502   4.952  0.3734  0.3182  0.8771
31214SOL    HW197234   6.695   5.418   4.989 -2.4301  0.6477 -0.3029
31214SOL    HW297235   6.813   5.513   4.984  0.9045 -3.1618  0.9654
31215SOL     OW97236   4.699   5.697  10.280 -0.0487 -0.0998 -0.5734
31215SOL    HW197237   4.643   5.687  10.203 -0.6933  1.9572 -0.4243
31215SOL    HW297238   4.645   5.665  10.352 -1.0932  1.8283 -0.4362
31216SOL     OW97239   5.181   2.544   4.956  0.3422 -0.1346 -0.2561
31216SOL    HW197240   5.245   2.590   4.902 -0.8396  0.9130 -0.8177
31216SOL    HW297241   5.209   2.560   5.046 -1.1567  3.5954 -0.2955
31217SOL     OW97242   2.844   2.314   0.044  0.8585 -0.5186 -0.0151
31217SOL    HW197243   2.861   2.325  -0.050  1.4579 -0.9972  0.0271
31217SOL    HW297244   2.775   2.248   0.049  0.9491 -0.6212 -0.1174
31218SOL     OW97245   0.930   8.487   3.262  0.5004 -0.3770  0.0932
31218SOL    HW197246   0.962   8.577   3.269 -0.0947 -0.2672  2.5522
31218SOL    HW297247   0.835   8.495   3.269  0.5152 -1.2294  2.0111
31219SOL     OW97248   2.531   6.361   6.479 -0.5518 -0.3915  0.3669
31219SOL    HW197249   2.595   6.290   6.474 -0.0308 -0.0249  1.5385
31219SOL    HW297250   2.555   6.409   6.558 -0.8390  1.1398 -0.4423
31220SOL     OW97251   5.413   4.588  10.822 -0.3205 -0.1161 -0.3133
31220SOL    HW197252   5.452   4.532  10.889  3.9661 -1.4002 -3.4684
31220SOL    HW297253   5.349   4.531  10.779 -0.4126 -0.5029  0.3163
31221SOL     OW97254   8.944   0.191   9.542 -0.2775 -0.2928 -0.0905
31221SOL    HW197255   8.989   0.106   9.548  2.7281  1.2053  0.7432
31221SOL    HW297256   9.015   0.255   9.550 -2.6212  2.3171  1.0601
31222SOL     OW97257   5.527   7.208   7.979 -0.3125 -0.1589 -0.0244
31222SOL    HW197258   5.608   7.162   7.959  0.5381 -0.4043  3.3518
31222SOL    HW297259   5.555   7.298   7.997 -0.8874 -0.0689  0.4432
31223SOL     OW97260   8.700   7.215   4.811 -0.3781 -0.0158 -0.1468
31223SOL    HW197261   8.773   7.246   4.865 -0.0699 -0.4978 -0.2836
31223SOL    HW297262   8.691   7.282   4.743 -0.5536  0.4249  0.3036
31224SOL     OW97263   4.876   4.811   4.608 -0.4801 -0.5886 -0.2119
31224SOL    HW197264   4.890   4.859   4.690 -0.0963  0.3123 -0.7818
31224SOL    HW297265   4.956   4.760   4.596 -0.6303 -0.8955  0.0882
31225SOL     OW97266   3.063   1.819   9.919 -0.1532  0.0100 -0.4441
31225SOL    HW197267   3.085   1.912   9.921 -0.5381  0.1601 -2.1962
31225SOL    HW297268   3.047   1.799   9.827 -1.5703 -1.4481  0.0640
31226SOL     OW97269   5.974   6.418   1.464  0.0011  0.2468 -0.7763
31226SOL    HW197270   6.050   6.460   1.425  0.2747  1.2561  0.7571
31226SOL    HW297271   6.005   6.386   1.549 -0.9191 -0.6226 -0.7436
31227SOL     OW97272  10.677   1.560   6.574  0.6902  0.3570 -0.2899
31227SOL    HW197273  10.771   1.547   6.557  0.9063 -0.0345  1.0374
31227SOL    HW297274  10.671   1.651   6.605  0.0645  1.6436 -3.7275
31228SOL     OW97275   7.085   4.336   0.866  0.6225 -0.5069 -0.1637
31228SOL    HW197276   7.064   4.427   0.846  0.4902 -0.7622 -1.2772
31228SOL    HW297277   7.063   4.288   0.785 -0.0357 -1.6389  0.6489
31229SOL     OW97278  10.447   6.608   8.104  0.0037 -0.4877  0.2657
31229SOL    HW197279  10.442   6.678   8.039 -0.2331  0.7310  1.5502
31229SOL    HW297280  10.365   6.559   8.093  0.6496 -1.2808 -1.3693
31230SOL     OW97281   5.633   5.431  10.075 -0.5640 -0.3856  0.5474
31230SOL    HW197282   5.590   5.513  10.098  0.1370  0.2812 -0.4746
31230SOL    HW297283   5.563   5.366  10.080 -1.8495  0.7352 -1.4725
31231SOL     OW97284   1.768   8.363  10.037 -0.1530  0.0442  0.0253
31231SOL    HW197285   1.749   8.456  10.048 -0.2896 -0.0775  0.9517
31231SOL    HW297286   1.863   8.358  10.033  0.0047  0.0556  2.2199
31232SOL     OW97287   7.088   6.442   3.634  0.1466  0.4364  0.3168
31232SOL    HW197288   7.041   6.388   3.571 -0.7894  0.2925  1.1324
31232SOL    HW297289   7.134   6.506   3.579 -0.3781  0.1092 -0.5322
31233SOL     OW97290   5.271   0.771   5.429 -0.2537 -0.1509  0.4853
31233SOL    HW197291   5.180   0.771   5.398  0.2325  0.4702 -1.0184
31233SOL    HW297292   5.268   0.720   5.510 -1.9255 -0.2247  0.4216
31234SOL     OW97293   2.004   7.890  10.169  0.1736 -0.6020 -0.0505
31234SOL    HW197294   1.979   7.948  10.096  1.2502 -0.3976 -0.2806
31234SOL    HW297295   1.960   7.807  10.150  0.4654 -0.5575 -0.9573
31235SOL     OW97296  10.981   2.958  10.769  0.2963 -0.3261 -0.0956
31235SOL    HW197297  10.986   2.916  10.683  0.4452 -0.0088 -0.2401
31235SOL    HW297298  10.913   2.908  10.815  0.9528 -1.1834 -0.0166
31236SOL     OW97299  10.787  10.850   0.271  0.2750  0.1942  0.2666
31236SOL    HW197300  10.714  10.829   0.213  0.8331  0.4163 -0.5253
31236SOL    HW297301  10.749  10.846   0.359 -0.5268 -0.3700 -0.0882
31237SOL     OW97302   6.978   9.986   8.604  0.1721 -0.4808  1.0782
31237SOL    HW197303   6.900   9.971   8.551 -0.3262 -0.6941  1.8498
31237SOL    HW297304   7.014  10.068   8.572  0.3308 -1.0007 -0.1115
31238SOL     OW97305   1.298   0.777   8.466 -0.0449 -0.5238  0.4485
31238SOL    HW197306   1.272   0.745   8.379 -0.0331 -1.2523  0.7050
31238SOL    HW297307   1.305   0.872   8.455  1.3775 -0.7085 -0.7413
31239SOL     OW97308  10.998   8.943   9.566 -0.1764 -0.1110  0.0407
31239SOL    HW197309  11.011   8.995   9.487 -0.1681 -0.2258 -0.0339
31239SOL    HW297310  10.963   8.860   9.534 -3.7850  1.0924  0.3649
31240SOL     OW97311   7.404   7.460   6.184  0.1245  0.3263  0.3831
31240SOL    HW197312   7.323   7.410   6.191 -1.0634  2.0676 -0.3891
31240SOL    HW297313   7.378   7.551   6.196  2.0355  0.9074  0.5004
31241SOL     OW97314   0.298   2.300   6.998 -0.3224  0.5699  0.0282
31241SOL    HW197315   0.262   2.212   6.989  0.4230  0.4046 -1.9269
31241SOL    HW297316   0.242   2.343   7.062 -0.5337 -1.3977  1.2292
31242SOL     OW97317  10.731   6.834   8.833 -0.3778 -0.0641  0.0410
31242SOL    HW197318  10.710   6.899   8.766  0.1074  1.1371  1.0233
31242SOL    HW297319  10.720   6.880   8.916  0.8027 -0.9958  0.7480
31243SOL     OW97320   2.809   1.449   1.087  0.5859 -0.2226 -0.1460
31243SOL    HW197321   2.774   1.391   1.019  2.1104 -0.8235 -0.4684
31243SOL    HW297322   2.871   1.506   1.040 -1.1123  1.9680  0.0920
31244SOL     OW97323   5.866   2.342   4.030 -0.2933 -0.7062 -0.5810
31244SOL    HW197324   5.926   2.390   3.973 -1.0845  0.4394 -0.4864
31244SOL    HW297325   5.857   2.256   3.989  2.4968 -1.4425  0.1581
31245SOL     OW97326   8.831   7.151   1.731  0.3399 -0.2318 -0.1427
31245SOL    HW197327   8.847   7.155   1.637  0.0488  1.3213 -0.1501
31245SOL    HW297328   8.782   7.069   1.744  3.5354 -2.4393 -0.7902
31246SOL     OW97329   6.267   3.459   5.838  0.0776 -0.6214  0.3117
31246SOL    HW197330   6.336   3.432   5.777  1.2555  0.6869  1.0077
31246SOL    HW297331   6.275   3.554   5.843 -1.5431 -0.4803  0.7175
31247SOL     OW97332  10.003   8.561   0.640  0.1814  0.1492  0.2826
31247SOL    HW197333  10.025   8.644   0.682 -1.1907  0.9730 -0.5718
31247SOL    HW297334   9.930   8.581   0.582  0.8736 -1.3037 -1.2049
31248SOL     OW97335   0.593   1.611   6.079  0.3625 -0.0402 -0.0240
31248SOL    HW197336   0.549   1.586   6.161  2.0726 -1.2760  0.5899
31248SOL    HW297337   0.542   1.685   6.046 -0.2961  0.6342  2.2616
31249SOL     OW97338   8.035   5.360   3.291 -0.1833 -0.3346  0.1188
31249SOL    HW197339   8.060   5.273   3.263  0.5725 -0.6415  1.6477
31249SOL    HW297340   7.939   5.356   3.301 -0.3707 -0.4447 -1.4793
31250SOL     OW97341   7.077   1.151   0.250 -0.3292 -0.6873  0.0848
31250SOL    HW197342   7.066   1.240   0.284  1.9916  1.0061 -3.0434
31250SOL    HW297343   7.139   1.110   0.310 -1.5834 -0.3422  1.6847
31251SOL     OW97344  10.844   4.402   7.477  0.3826  0.0303  0.0172
31251SOL    HW197345  10.806   4.387   7.564 -2.7309 -1.1336 -1.3842
31251SOL    HW297346  10.841   4.497   7.466  0.4024  0.1596  0.9970
31252SOL     OW97347   4.804   5.293   8.357 -0.2982  0.3407 -0.0574
31252SOL    HW197348   4.733   5.315   8.296 -0.3573 -0.5361 -0.3196
31252SOL    HW297349   4.788   5.348   8.433  0.1561  1.9646 -1.0719
31253SOL     OW97350   8.367   2.958   3.551  0.1046  0.2481  0.1677
31253SOL    HW197351   8.339   2.868   3.569  0.0938  0.0029 -1.0090
31253SOL    HW297352   8.411   2.985   3.632  0.4228 -0.9385  0.4198
31254SOL     OW97353   9.565   3.222   7.208 -0.2369  0.3447 -0.8237
31254SOL    HW197354   9.519   3.144   7.176 -2.6647  0.7207  1.4150
31254SOL    HW297355   9.579   3.205   7.301  0.9391  1.8006 -0.7028
31255SOL     OW97356   2.140  10.687   0.044  0.1093 -0.1154 -1.0410
31255SOL    HW197357   2.087  10.767   0.039 -0.1559 -0.3360 -1.9319
31255SOL    HW297358   2.217  10.707  -0.010 -0.4419 -0.8143 -2.1081
31256SOL     OW97359   0.714   7.474   1.886 -0.0396 -0.3921  0.3738
31256SOL    HW197360   0.647   7.526   1.929  0.3839  0.6122 -0.1501
31256SOL    HW297361   0.784   7.466   1.951  0.1729  0.2711  0.2382
31257SOL     OW97362   1.229   1.560   1.734  0.4092 -0.6608  0.1974
31257SOL    HW197363   1.135   1.567   1.752  0.2400 -1.5940 -0.2940
31257SOL    HW297364   1.254   1.648   1.704 -0.8705 -1.0492 -2.2478
31258SOL     OW97365   8.477   2.056   8.807  0.1242  0.3628 -0.5549
31258SOL    HW197366   8.538   2.073   8.879  1.8529 -0.4504 -1.7621
31258SOL    HW297367   8.485   2.133   8.751  0.0918  0.2258 -0.7470
31259SOL     OW97368   0.737  10.096   6.676  0.0231  0.0533 -0.1894
31259SOL    HW197369   0.753  10.041   6.752 -1.2433 -0.5016 -0.2872
31259SOL    HW297370   0.817  10.090   6.624  0.8477  0.3250  1.0040
31260SOL     OW97371  10.882   8.501   7.684 -0.0650 -0.0874  0.0749
31260SOL    HW197372  10.921   8.416   7.706  0.3718  0.5115  1.7460
31260SOL    HW297373  10.934   8.532   7.609  1.3557 -0.2288  0.9614
31261SOL     OW97374   0.471   7.176   0.389 -0.5260 -0.0709 -0.3296
31261SOL    HW197375   0.463   7.271   0.374 -0.8226  0.2175  1.4049
31261SOL    HW297376   0.548   7.151   0.339  0.4491  1.3956  0.3515
31262SOL     OW97377   0.356   7.447   2.700 -0.3198 -0.2458  0.9705
31262SOL    HW197378   0.285   7.383   2.696 -2.9534  2.4984 -0.2731
31262SOL    HW297379   0.375   7.455   2.794 -2.1963 -0.5635  1.4227
31263SOL     OW97380   5.559   0.140   7.186 -0.5093 -0.9142  0.5884
31263SOL    HW197381   5.549   0.164   7.093  0.6163  0.0837  0.7153
31263SOL    HW297382   5.643   0.095   7.190  1.9350  3.2798  1.8576
31264SOL     OW97383   7.252   6.067  10.756 -0.0625  0.1862  0.0226
31264SOL    HW197384   7.300   5.996  10.798  0.6746 -0.7143 -2.2002
31264SOL    HW297385   7.296   6.147  10.785  2.2501 -0.5610 -1.2098
31265SOL     OW97386   2.946  10.667   8.602  0.2079 -0.8481  0.1656
31265SOL    HW197387   2.867  10.632   8.560 -0.4479  0.6558  0.0793
31265SOL    HW297388   3.006  10.686   8.530 -0.8607  1.5958 -0.1713
31266SOL     OW97389   5.919  10.946   4.204  0.3455  0.2697  0.1224
31266SOL    HW197390   5.914  10.863   4.251  0.6164  1.0995  1.7213
31266SOL    HW297391   5.985  10.932   4.136 -0.4030 -1.1192 -0.3487
31267SOL     OW97392   1.355  10.556  10.574  0.3242  0.2616  0.0678
31267SOL    HW197393   1.446  10.583  10.560  0.4615  0.3016  1.0213
31267SOL    HW297394   1.314  10.631  10.617 -0.6819  1.0130 -2.0218
31268SOL     OW97395   1.785   5.526   1.751 -0.0497 -0.0584 -0.2875
31268SOL    HW197396   1.831   5.558   1.673 -0.9525 -0.3038 -0.9349
31268SOL    HW297397   1.807   5.590   1.819 -0.5349  1.0616 -1.1526
31269SOL     OW97398   9.899   3.099   4.766  0.0138 -0.1807  1.1631
31269SOL    HW197399   9.814   3.142   4.754 -0.2049 -0.9734 -0.3584
31269SOL    HW297400   9.943   3.151   4.833 -1.6238  0.3184  1.8945
31270SOL     OW97401   2.252   6.364   4.969 -0.0935 -0.3150  0.4202
31270SOL    HW197402   2.344   6.375   4.944  0.1577 -0.4987  1.2496
31270SOL    HW297403   2.239   6.269   4.973 -0.6629 -0.3188 -0.8974
31271SOL     OW97404   3.087   0.349   2.968  0.2212 -0.5079 -0.1615
31271SOL    HW197405   3.003   0.356   3.013  0.0605 -0.9216 -0.3958
31271SOL    HW297406   3.135   0.281   3.016  0.3943 -0.3246 -0.0728
31272SOL     OW97407   8.351   8.458   2.164 -0.2498  0.2617 -0.1538
31272SOL    HW197408   8.309   8.421   2.241  1.5123 -1.2582  0.1658
31272SOL    HW297409   8.430   8.500   2.197  1.6106 -2.1400 -1.2082
31273SOL     OW97410   3.231   2.667   6.932 -0.4783  0.1580  0.1323
31273SOL    HW197411   3.288   2.593   6.912  0.3573 -0.4798  4.1935
31273SOL    HW297412   3.285   2.744   6.916  0.3121 -0.3093  0.5157
31274SOL     OW97413   6.845   0.429   7.344 -0.6416 -0.1431 -0.1625
31274SOL    HW197414   6.849   0.519   7.312  0.0275 -0.0365  0.2260
31274SOL    HW297415   6.899   0.379   7.283  2.7758  0.4645  2.1458
31275SOL     OW97416   7.764   3.639   2.315 -0.1249 -0.2938  0.1839
31275SOL    HW197417   7.802   3.599   2.237 -1.7639 -0.7206 -0.4334
31275SOL    HW297418   7.741   3.565   2.372 -1.6074 -0.1735 -0.2241
31276SOL     OW97419   9.683   6.556   4.842 -0.7660 -0.1715  0.5469
31276SOL    HW197420   9.759   6.608   4.868 -0.5940 -0.7128  1.1450
31276SOL    HW297421   9.646   6.525   4.924 -0.6404 -1.3131  0.1871
31277SOL     OW97422   8.101   8.741   5.678 -0.6630  0.3589  0.3130
31277SOL    HW197423   8.106   8.830   5.714  2.0966  0.4479 -0.0603
31277SOL    HW297424   8.113   8.684   5.754 -1.5617  0.3189  0.4306
31278SOL     OW97425   7.091  10.551   7.028 -0.3207 -0.7979 -0.0513
31278SOL    HW197426   7.039  10.569   6.950 -1.1824 -3.3208 -0.1299
31278SOL    HW297427   7.133  10.467   7.011  2.7207  0.4273  0.6316
31279SOL     OW97428   4.083   5.619   5.503 -0.8448 -0.0986  0.3482
31279SOL    HW197429   4.164   5.608   5.554  0.2720  0.8862 -1.1489
31279SOL    HW297430   4.034   5.538   5.520  0.1213 -0.4291  1.8285
31280SOL     OW97431   7.865   2.687   5.562  0.0907  0.5955 -0.6145
31280SOL    HW197432   7.921   2.764   5.576  1.3546 -0.5062  0.6650
31280SOL    HW297433   7.919   2.628   5.509 -0.0395 -0.2815  0.2126
31281SOL     OW97434   3.548   2.472   4.570  0.2990  0.3314  0.0448
31281SOL    HW197435   3.603   2.467   4.492  0.3765  0.5048  0.0871
31281SOL    HW297436   3.587   2.408   4.631  0.0965  0.0256 -0.1440
31282SOL     OW97437   5.521   4.949   3.051  0.4423 -0.3667 -0.6241
31282SOL    HW197438   5.506   4.942   2.957  1.4814 -1.7048 -0.7223
31282SOL    HW297439   5.515   4.858   3.083 -0.8092  0.1594  0.7670
31283SOL     OW97440   7.846   0.806   6.443 -0.2098 -0.6545  0.0166
31283SOL    HW197441   7.804   0.886   6.474 -1.9104 -1.6362  0.3415
31283SOL    HW297442   7.898   0.776   6.518  0.6392  0.2266 -0.1843
31284SOL     OW97443  10.604   1.151   2.046  0.0772 -0.5226  0.4298
31284SOL    HW197444  10.604   1.173   2.139  0.7920  0.3928  0.2131
31284SOL    HW297445  10.543   1.213   2.007  0.2918 -0.4754  0.1748
31285SOL     OW97446  10.640   4.379   8.775 -0.4211  0.6788 -0.2465
31285SOL    HW197447  10.702   4.448   8.750 -2.1459  1.8931 -1.3299
31285SOL    HW297448  10.658   4.307   8.714 -0.4947  1.2552 -0.9484
31286SOL     OW97449   3.325   3.143  10.930  0.2065 -0.0070 -0.6935
31286SOL    HW197450   3.289   3.066  10.888 -0.3033  0.7702 -1.7206
31286SOL    HW297451   3.249   3.190  10.965  0.4284  0.4373 -0.7896
31287SOL     OW97452   2.675   2.457  10.146  0.2267  0.4245  0.1947
31287SOL    HW197453   2.632   2.386  10.194 -1.0268  0.3108 -1.0338
31287SOL    HW297454   2.762   2.423  10.125  0.4233  0.0923  1.4520
31288SOL     OW97455   4.853   4.279   2.262  0.7204 -0.0214  0.7499
31288SOL    HW197456   4.862   4.300   2.170  1.2907 -3.1811 -0.0300
31288SOL    HW297457   4.928   4.321   2.304  1.0535  0.5695 -0.4087
31289SOL     OW97458  10.934   7.304   8.921 -0.4804  0.1435 -0.9510
31289SOL    HW197459  10.998   7.255   8.870 -0.8527  0.0025 -1.2889
31289SOL    HW297460  10.849   7.273   8.889 -0.7183  0.1208 -0.3170
31290SOL     OW97461   5.625   4.064   8.450 -0.3171 -0.6332 -0.7518
31290SOL    HW197462   5.701   4.058   8.508 -0.9127  0.8536  0.2432
31290SOL    HW297463   5.655   4.027   8.367  0.8996 -1.7937  0.1656
31291SOL     OW97464   6.691   7.386   2.974 -0.0065 -0.3852 -0.1827
31291SOL    HW197465   6.598   7.363   2.979  0.4846 -2.1953  2.3900
31291SOL    HW297466   6.734   7.304   2.950  1.1153 -0.1609  0.9942
31292SOL     OW97467   4.365   2.687   6.548 -0.3921 -0.1183  0.1812
31292SOL    HW197468   4.293   2.651   6.496 -0.6947  0.4117  0.2257
31292SOL    HW297469   4.363   2.636   6.630 -1.6448  0.8488  0.7802
31293SOL     OW97470   9.544   7.398   6.760 -0.1715 -0.0109  0.1418
31293SOL    HW197471   9.489   7.323   6.739  0.0989 -0.8122  2.0619
31293SOL    HW297472   9.570   7.434   6.675  0.1281 -2.4152 -0.8499
31294SOL     OW97473   7.340   6.274  10.966 -0.1637  0.0835 -0.1208
31294SOL    HW197474   7.376   6.363  10.969 -0.2272  0.1051  0.0340
31294SOL    HW297475   7.245   6.287  10.969 -0.1641 -0.0334  1.5595
31295SOL     OW97476   0.456   1.849   0.813 -0.0015  0.2576  0.9520
31295SOL    HW197477   0.489   1.817   0.897  0.7778 -2.0304 -0.1380
31295SOL    HW297478   0.384   1.789   0.791  1.9529 -1.4160 -1.4926
31296SOL     OW97479   3.023   2.283   2.231 -0.5879 -0.6814  0.5882
31296SOL    HW197480   2.989   2.209   2.181  0.5204 -1.4718  0.9567
31296SOL    HW297481   3.022   2.253   2.322 -2.2268  0.5988  1.0445
31297SOL     OW97482   7.258  11.021   7.929 -0.1244 -0.2636 -0.2610
31297SOL    HW197483   7.192  11.007   7.862 -0.0302  0.8693 -0.6144
31297SOL    HW297484   7.339  11.035   7.881 -0.2666  1.7491 -0.0232
31298SOL     OW97485  10.649   7.027  10.077 -0.0582  0.2115  0.4853
31298SOL    HW197486  10.583   7.096  10.074 -1.1008 -0.7869  0.1059
31298SOL    HW297487  10.606   6.949  10.042  2.1312  0.1893 -2.6744
31299SOL     OW97488   3.100   1.335   4.673 -0.0768  0.4369 -0.2904
31299SOL    HW197489   3.062   1.422   4.664 -1.0605  0.2263  1.3821
31299SOL    HW297490   3.036   1.276   4.632  0.8725  0.5033 -1.9765
31300SOL     OW97491   5.669   1.849   5.817  0.3128 -0.3089 -0.4834
31300SOL    HW197492   5.664   1.909   5.892 -0.8972 -2.8024  1.6034
31300SOL    HW297493   5.581   1.810   5.812  1.3945 -2.9130 -0.7558
31301SOL     OW97494   3.298  10.651   0.543  0.2830 -0.1806 -0.3417
31301SOL    HW197495   3.387  10.676   0.517  0.4123 -0.1608  0.0976
31301SOL    HW297496   3.250  10.643   0.461 -0.2112  3.0494 -0.5013
31302SOL     OW97497   4.099  11.041   4.929  0.0563 -0.3245  0.1649
31302SOL    HW197498   4.144  11.122   4.905  1.7418 -1.5010 -0.8571
31302SOL    HW297499   4.070  11.005   4.845  0.5045 -1.4255  0.4744
31303SOL     OW97500   8.868   4.634   3.360  0.0436 -0.5483 -0.2391
31303SOL    HW197501   8.814   4.563   3.323 -0.4985  0.1491 -0.8205
31303SOL    HW297502   8.907   4.676   3.283  0.1271 -0.0373  0.0835
31304SOL     OW97503   7.191   1.026   5.074  0.4471  0.4400 -0.5240
31304SOL    HW197504   7.252   0.977   5.129  1.2045  2.4439  0.4858
31304SOL    HW297505   7.198   0.985   4.988 -0.1716 -2.2554  0.6003
31305SOL     OW97506   4.130   9.044  10.126 -0.2697  0.6098  0.2910
31305SOL    HW197507   4.050   8.994  10.111  1.0345 -2.7937  3.2475
31305SOL    HW297508   4.167   9.057  10.038 -1.2614 -2.8819 -0.7913
31306SOL     OW97509   6.537   8.158   4.270 -0.1161  0.0480 -0.5328
31306SOL    HW197510   6.532   8.071   4.310  1.8621  0.5634  1.0423
31306SOL    HW297511   6.449   8.175   4.237 -0.4739 -2.6636 -1.1904
31307SOL     OW97512   4.405   6.619   3.182 -0.6197 -0.2731 -0.0093
31307SOL    HW197513   4.443   6.706   3.174  1.4308 -1.2566 -2.4987
31307SOL    HW297514   4.470   6.568   3.231 -1.8986 -0.3965  1.6227
31308SOL     OW97515   5.543   2.924   2.037  0.2820 -0.1368  0.7139
31308SOL    HW197516   5.588   2.982   2.098 -0.1906 -1.6645  2.5986
31308SOL    HW297517   5.603   2.851   2.024  0.0885 -0.1590 -0.1254
31309SOL     OW97518   2.636   1.726   6.867 -0.3370  0.1263  0.0109
31309SOL    HW197519   2.720   1.755   6.831 -0.7276 -1.2707 -2.2092
31309SOL    HW297520   2.619   1.642   6.824 -1.9286 -0.6148  1.9351
31310SOL     OW97521   3.301   0.098   9.179 -0.0340 -0.1151  0.5579
31310SOL    HW197522   3.209   0.074   9.192  0.0552 -0.3966  0.7038
31310SOL    HW297523   3.304   0.141   9.094 -0.0226 -1.6968 -0.2931
31311SOL     OW97524   1.240   4.245   6.033  0.9051  0.1302 -0.2519
31311SOL    HW197525   1.224   4.303   6.107  0.3841  1.4260 -1.3395
31311SOL    HW297526   1.153   4.215   6.007  1.0690 -0.1697 -0.4568
31312SOL     OW97527   8.249   5.502   6.044  0.3728  0.3788  0.2794
31312SOL    HW197528   8.315   5.433   6.038  0.0588 -0.0130  1.1197
31312SOL    HW297529   8.262   5.541   6.130 -1.3924 -0.6727  1.0840
31313SOL     OW97530   5.640   6.655   9.948  0.1902 -0.3112  0.4381
31313SOL    HW197531   5.625   6.671  10.041  1.0366  1.6636  0.2752
31313SOL    HW297532   5.722   6.605   9.946 -0.2940 -1.1538  0.7594
31314SOL     OW97533   6.501   3.012   9.897 -0.5095  0.5494  0.3371
31314SOL    HW197534   6.415   3.011   9.939 -0.5376  1.8114  0.3454
31314SOL    HW297535   6.484   3.040   9.808 -0.2930 -0.8776 -0.1741
31315SOL     OW97536   0.478   8.393  10.767  0.1653 -0.2236 -0.0071
31315SOL    HW197537   0.506   8.322  10.710  2.5075 -2.7732  3.8802
31315SOL    HW297538   0.541   8.463  10.751  0.3016 -0.5709 -1.0576
31316SOL     OW97539   6.986   8.360  10.100 -0.2320 -0.7774  0.3134
31316SOL    HW197540   7.047   8.309  10.048  0.8745 -1.5872  2.2920
31316SOL    HW297541   6.900   8.320  10.085 -0.0436 -0.6402 -1.2405
31317SOL     OW97542   1.713  10.580   3.874  0.5889  0.6696 -0.1023
31317SOL    HW197543   1.774  10.506   3.879  0.1113  0.3340  1.1147
31317SOL    HW297544   1.727  10.629   3.955  0.1304  1.3004 -0.3929
31318SOL     OW97545   5.804   5.765   0.671 -0.1909  0.5190 -0.0980
31318SOL    HW197546   5.857   5.844   0.683 -2.0819  1.8158  0.2505
31318SOL    HW297547   5.867   5.696   0.651  1.7236  1.6941  1.4593
31319SOL     OW97548   8.773   2.592   0.984 -0.9544 -0.1261 -0.6959
31319SOL    HW197549   8.687   2.634   0.981 -0.3770  1.0599 -3.3799
31319SOL    HW297550   8.761   2.508   0.941 -1.0017 -0.4360 -0.0786
31320SOL     OW97551   1.896   3.318   3.376 -0.2432 -0.1495  0.0205
31320SOL    HW197552   1.949   3.238   3.368  0.0549  0.1410 -1.0780
31320SOL    HW297553   1.885   3.348   3.285 -1.0559  0.5984  0.3610
31321SOL     OW97554   8.771   3.153   2.441  0.3789 -0.4525 -0.4677
31321SOL    HW197555   8.717   3.103   2.380 -0.4498  0.8341 -0.8367
31321SOL    HW297556   8.756   3.111   2.526 -0.8263 -0.4424 -0.6555
31322SOL     OW97557   0.236   1.180  10.327 -0.0120  0.1273 -0.5091
31322SOL    HW197558   0.292   1.122  10.377 -0.6327 -1.4974 -1.6115
31322SOL    HW297559   0.183   1.225  10.392  1.2020  0.2462  0.4243
31323SOL     OW97560   4.639  10.244   4.124 -0.0939  0.1067  0.1100
31323SOL    HW197561   4.731  10.268   4.134 -0.5596  1.8336  0.4994
31323SOL    HW297562   4.605  10.306   4.060 -0.7872 -1.1338 -0.7713
31324SOL     OW97563  10.167   2.078   1.591  0.0422  0.3600 -0.1071
31324SOL    HW197564  10.183   2.169   1.616  2.0758  0.1023 -0.3030
31324SOL    HW297565  10.210   2.026   1.658 -1.7927 -0.5192  0.4496
31325SOL     OW97566  10.636  10.362   5.644 -0.2104  0.0982 -0.6175
31325SOL    HW197567  10.554  10.343   5.690  0.1290 -3.8929 -1.3284
31325SOL    HW297568  10.702  10.363   5.714 -0.5499  1.1499 -0.2927
31326SOL     OW97569   9.669   3.436   2.983 -0.2136  0.0530  0.1005
31326SOL    HW197570   9.742   3.375   2.972  1.1401  1.2536  1.7471
31326SOL    HW297571   9.607   3.389   3.039 -0.2928 -0.6398 -0.5519
31327SOL     OW97572   1.762   4.115   4.316  1.0337  0.7262  0.2930
31327SOL    HW197573   1.810   4.159   4.387 -0.9409  1.2497  1.3814
31327SOL    HW297574   1.720   4.186   4.268  1.8951  0.3263 -1.0833
31328SOL     OW97575  10.078   8.617   1.502  0.2513  0.0696 -0.5095
31328SOL    HW197576   9.991   8.628   1.464 -0.1516 -0.5267  0.2174
31328SOL    HW297577  10.068   8.644   1.593  0.7258 -0.3962 -0.3121
31329SOL     OW97578   5.608   1.423   7.763 -0.0478  0.3595 -0.1224
31329SOL    HW197579   5.524   1.454   7.796 -0.3092 -0.7213  0.2873
31329SOL    HW297580   5.603   1.434   7.668 -0.5604  0.5303 -0.0770
31330SOL     OW97581  10.620  11.044   5.047 -0.3444  0.2225 -0.6988
31330SOL    HW197582  10.713  11.020   5.042 -0.0758  0.7525  1.1971
31330SOL    HW297583  10.614  11.126   4.999  0.2909  0.4890 -0.3362
31331SOL     OW97584   4.790   0.691   7.999  0.2911  0.5154 -0.0068
31331SOL    HW197585   4.740   0.644   8.066  0.2671  1.2621  0.5034
31331SOL    HW297586   4.728   0.755   7.964  0.0085 -0.4630 -1.4010
31332SOL     OW97587   3.753  11.027   1.113  0.4636  0.5237  0.8882
31332SOL    HW197588   3.754  10.969   1.037 -0.0807 -0.9192  1.9298
31332SOL    HW297589   3.718  10.973   1.184  1.3267  1.6880  2.2664
31333SOL     OW97590   5.926   9.346   2.718 -0.3101  0.0585  0.5359
31333SOL    HW197591   5.993   9.353   2.650  0.5367  0.1346  1.3612
31333SOL    HW297592   5.850   9.308   2.673  0.5346 -0.7587 -0.2378
31334SOL     OW97593   9.497   9.863   7.278  0.0969 -0.7286 -0.4518
31334SOL    HW197594   9.495   9.769   7.296  2.6813 -0.6085  0.8191
31334SOL    HW297595   9.551   9.872   7.200 -0.9509 -0.3176 -1.1612
31335SOL     OW97596   9.704   7.382   4.773 -0.0591  1.0226 -0.3241
31335SOL    HW197597   9.674   7.297   4.806  1.3090  0.3594 -0.7072
31335SOL    HW297598   9.645   7.402   4.701 -0.0023  0.0709 -0.6532
31336SOL     OW97599   9.856   9.619   4.638  0.0758 -0.0705 -0.2734
31336SOL    HW197600   9.768   9.607   4.601 -0.1068 -0.1932  0.2028
31336SOL    HW297601   9.876   9.536   4.681 -0.3001  0.5531  1.1476
31337SOL     OW97602   7.235   8.232   4.417 -0.0252  0.1026  0.1531
31337SOL    HW197603   7.278   8.263   4.497 -1.5154 -1.3504  1.6027
31337SOL    HW297604   7.173   8.301   4.395  0.9212  0.8571 -0.2281
31338SOL     OW97605   0.218   4.745   1.115  0.1084 -0.1029  0.3882
31338SOL    HW197606   0.126   4.771   1.110  0.1504 -0.0937 -0.4995
31338SOL    HW297607   0.230   4.686   1.040  1.0408  0.5988 -0.0349
31339SOL     OW97608   3.704   8.757   9.282 -0.0021 -0.6855 -0.2966
31339SOL    HW197609   3.756   8.767   9.202  0.7071 -2.2370 -0.0849
31339SOL    HW297610   3.619   8.724   9.252  0.1492 -0.9385 -0.4542
31340SOL     OW97611   6.412  10.848   2.693  0.1929 -0.3685  0.3764
31340SOL    HW197612   6.445  10.930   2.657 -1.0773 -0.3394 -0.8111
31340SOL    HW297613   6.476  10.823   2.760  0.9570  1.2165  0.2688
31341SOL     OW97614   7.985   0.854   1.918 -0.2211 -0.1536 -0.5417
31341SOL    HW197615   7.953   0.940   1.944  0.1656 -0.0513 -0.3918
31341SOL    HW297616   7.908   0.808   1.886 -0.5932 -0.0525  0.1776
31342SOL     OW97617   6.906   8.265   4.775  0.5071  0.0421 -0.1120
31342SOL    HW197618   6.968   8.338   4.774  1.5023 -0.7773 -0.0043
31342SOL    HW297619   6.838   8.290   4.712  0.4503  1.3702  0.4602
31343SOL     OW97620   1.164  11.026   1.512  0.5398 -0.6344 -0.1386
31343SOL    HW197621   1.126  11.019   1.599  0.1392 -0.3859 -0.2899
31343SOL    HW297622   1.099  11.075   1.461  1.8801  1.5063  0.0894
31344SOL     OW97623   1.603   2.046   2.309  0.0350  0.0507 -0.0615
31344SOL    HW197624   1.632   1.955   2.320 -0.3728  0.1180  2.0037
31344SOL    HW297625   1.524   2.040   2.255  0.2644 -0.7582 -0.3262
31345SOL     OW97626   8.284   6.444   9.980 -0.0805  0.1212 -0.1028
31345SOL    HW197627   8.227   6.499   9.927 -0.0527 -0.8312 -1.1523
31345SOL    HW297628   8.305   6.370   9.924  0.4830 -0.5960  1.0182
31346SOL     OW97629   5.599   5.028   7.992  0.4372 -0.3205  0.2998
31346SOL    HW197630   5.604   5.121   7.969 -2.3545 -0.2478 -0.3414
31346SOL    HW297631   5.591   5.028   8.088  4.2448 -0.2258  0.7910
31347SOL     OW97632   9.677   6.201  10.916  0.5519  0.1158 -0.6012
31347SOL    HW197633   9.644   6.118  10.951  0.5518 -0.2762 -1.4948
31347SOL    HW297634   9.598   6.248  10.889  0.1927  2.0298  3.1772
31348SOL     OW97635   3.466   6.238  10.454 -0.2345  0.1137  0.5622
31348SOL    HW197636   3.463   6.232  10.549 -2.3795  3.1454  0.8154
31348SOL    HW297637   3.498   6.327  10.437 -0.9689  0.0185 -1.5297
31349SOL     OW97638   2.297   9.061   1.003 -0.0762 -0.1848  0.7096
31349SOL    HW197639   2.386   9.084   1.032 -0.3397 -0.8262  2.1331
31349SOL    HW297640   2.311   8.992   0.938  0.5629  1.7497 -1.3219
31350SOL     OW97641   8.288   4.323   6.316 -0.6154  0.1865  0.1439
31350SOL    HW197642   8.357   4.387   6.336 -0.6744 -0.0905  1.2741
31350SOL    HW297643   8.245   4.358   6.237 -0.6007  1.5071  0.6973
31351SOL     OW97644   5.614   7.363   4.587 -0.6595  0.6510  0.0511
31351SOL    HW197645   5.706   7.371   4.615 -0.2126  0.8398 -1.3758
31351SOL    HW297646   5.616   7.385   4.494 -1.7574 -1.6323 -0.5867
31352SOL     OW97647   3.596   5.629  10.122 -0.0057  0.1136  0.6139
31352SOL    HW197648   3.689   5.641  10.102 -0.3218 -1.0828 -2.0192
31352SOL    HW297649   3.567   5.714  10.154  1.6360  1.0260 -0.1937
31353SOL     OW97650   2.052   6.961   8.171  0.2955 -0.7207  0.5073
31353SOL    HW197651   2.134   7.010   8.181 -0.8120  0.8710  2.4886
31353SOL    HW297652   2.040   6.916   8.254 -0.4368 -1.6523 -0.0720
31354SOL     OW97653   5.312   5.105   7.913 -0.0536  0.3615 -0.3133
31354SOL    HW197654   5.260   5.115   7.833 -0.2633 -0.4807 -0.2832
31354SOL    HW297655   5.402   5.092   7.881  0.2664  2.2948 -0.3591
31355SOL     OW97656   1.741   4.410   5.839  0.3594 -0.4053 -0.4874
31355SOL    HW197657   1.749   4.406   5.935 -0.8210  0.9811 -0.2967
31355SOL    HW297658   1.748   4.319   5.811 -1.4040 -1.1218  1.1432
31356SOL     OW97659   5.070   0.195   4.695 -0.0194 -0.3559  0.4757
31356SOL    HW197660   5.075   0.141   4.617  0.9941 -0.7507  0.7946
31356SOL    HW297661   5.065   0.133   4.768 -2.3924 -0.0027  0.6963
31357SOL     OW97662   6.871   1.398   5.179  0.2208  0.9032 -0.4931
31357SOL    HW197663   6.846   1.348   5.258  1.2403  1.5975  0.2938
31357SOL    HW297664   6.967   1.398   5.180  0.2514  0.5052 -2.0248
31358SOL     OW97665   4.274   2.994   2.594 -0.1431  0.3620 -0.8535
31358SOL    HW197666   4.264   2.994   2.499  3.7234 -0.8292 -1.4284
31358SOL    HW297667   4.268   2.902   2.619  3.3794  0.0315 -0.7462
31359SOL     OW97668   0.494   7.007   0.835  0.3967  0.5807 -0.0581
31359SOL    HW197669   0.433   6.934   0.840  1.6521 -0.5701 -1.1092
31359SOL    HW297670   0.463   7.059   0.760  0.4731  0.2267 -0.3348
31360SOL     OW97671   2.064   1.724   3.387 -0.4425 -0.2375 -0.5148
31360SOL    HW197672   2.084   1.812   3.355 -3.1805  0.4134 -0.6941
31360SOL    HW297673   2.026   1.680   3.312 -0.4013 -1.1168 -0.0297
31361SOL     OW97674   9.376   8.067   0.396  0.1609  0.1061  0.6790
31361SOL    HW197675   9.453   8.090   0.343  0.8834  1.6616  2.2876
31361SOL    HW297676   9.369   7.972   0.388 -0.3446  0.3137 -2.8717
31362SOL     OW97677   2.835   4.426   2.208  0.0391  0.4785 -0.1206
31362SOL    HW197678   2.780   4.474   2.269  2.2664 -0.6610  3.1048
31362SOL    HW297679   2.899   4.490   2.177  0.2997  0.6250  0.6763
31363SOL     OW97680   8.450   1.785  10.238 -0.0747  0.4054 -0.3007
31363SOL    HW197681   8.462   1.694  10.213  0.5532  0.5807 -0.6656
31363SOL    HW297682   8.478   1.788  10.330  2.6704  0.7498 -1.0608
31364SOL     OW97683   9.738   6.684   9.794 -0.4152  0.1778 -0.8637
31364SOL    HW197684   9.809   6.644   9.844  0.6198  1.1311 -1.5259
31364SOL    HW297685   9.678   6.612   9.774 -0.3046 -0.4213  0.7936
31365SOL     OW97686   3.971   3.002   9.836  0.0917  0.4487 -0.0566
31365SOL    HW197687   3.919   3.072   9.797  0.6938  1.9802  1.7438
31365SOL    HW297688   4.062   3.027   9.819  0.3160 -0.2325  0.0967
31366SOL     OW97689   1.734   0.430   3.959  0.6624 -0.0583  0.6204
31366SOL    HW197690   1.707   0.339   3.945  0.6707 -0.2655  1.8651
31366SOL    HW297691   1.824   0.433   3.926  0.7107 -0.5307  0.6934
31367SOL     OW97692   2.101   6.118   2.973  0.2428  0.1398 -0.3928
31367SOL    HW197693   2.084   6.026   2.956  0.9956  0.1394 -1.2214
31367SOL    HW297694   2.157   6.118   3.051 -0.7355 -0.0230  0.3315
31368SOL     OW97695   1.797   4.023   4.641  0.1450 -0.3414 -0.2956
31368SOL    HW197696   1.850   4.076   4.701  0.8994 -0.8356 -0.5125
31368SOL    HW297697   1.835   3.935   4.647 -0.1264 -0.5183 -1.0787
31369SOL     OW97698   3.555   7.647   5.978  0.1042  0.2415  0.5862
31369SOL    HW197699   3.613   7.577   6.007  3.7250  2.7554  0.1405
31369SOL    HW297700   3.516   7.681   6.059 -0.9549 -1.5246  0.8863
31370SOL     OW97701   6.727  11.059  10.889  0.1093 -0.0848 -0.2282
31370SOL    HW197702   6.710  11.145  10.852  0.8785  0.4816  0.6650
31370SOL    HW297703   6.672  10.999  10.839 -1.3502  1.0836 -0.0759
31371SOL     OW97704   9.006   1.444   8.620  0.1153  0.0121 -0.1039
31371SOL    HW197705   9.073   1.510   8.603 -0.8566  0.9786 -0.2848
31371SOL    HW297706   8.939   1.461   8.554 -0.3042 -0.9449  0.0686
31372SOL     OW97707   6.667   3.408   7.123  0.1159 -0.2406  0.2301
31372SOL    HW197708   6.589   3.362   7.092  0.8127 -1.5735  0.4029
31372SOL    HW297709   6.735   3.387   7.059  0.8624 -0.8040  1.1754
31373SOL     OW97710   8.729   1.045   1.115  0.3003  0.0018 -0.0537
31373SOL    HW197711   8.684   0.998   1.185 -0.4022 -0.1940 -0.6267
31373SOL    HW297712   8.815   1.003   1.110  0.1118 -0.4338  0.2381
31374SOL     OW97713   6.783   0.775  10.105  0.1432 -0.3463 -0.0721
31374SOL    HW197714   6.782   0.786  10.200  0.6725  0.2449 -0.1271
31374SOL    HW297715   6.775   0.681  10.091 -1.3219 -0.3364  0.5212
31375SOL     OW97716   6.152   0.029   8.846  0.0320 -0.1451  0.1366
31375SOL    HW197717   6.159  -0.061   8.815 -2.1402 -0.1599 -0.5387
31375SOL    HW297718   6.153   0.023   8.941 -0.7592 -0.9781  0.1019
31376SOL     OW97719   4.052   7.458   3.094 -0.0344 -0.0103  0.6778
31376SOL    HW197720   4.032   7.528   3.157 -1.4004  1.3902 -1.1740
31376SOL    HW297721   3.976   7.400   3.098 -1.0102  1.0628 -0.8376
31377SOL     OW97722   5.189   6.046   0.763  0.5068  0.1332  0.4379
31377SOL    HW197723   5.250   6.039   0.690  0.2494  0.1580  0.2187
31377SOL    HW297724   5.242   6.026   0.841  0.8565  0.4458  0.2799
31378SOL     OW97725   9.557   2.884   8.828  0.5747 -0.1688  0.2209
31378SOL    HW197726   9.532   2.963   8.876  0.1314 -0.2622  0.1387
31378SOL    HW297727   9.640   2.858   8.869 -0.6195 -1.1963  2.0955
31379SOL     OW97728   9.924   7.055   8.346 -0.7517  0.3752  0.1247
31379SOL    HW197729   9.951   7.130   8.293 -3.1123  1.0871 -0.2046
31379SOL    HW297730   9.851   7.017   8.297 -0.5876 -1.2280  1.0618
31380SOL     OW97731   8.496   0.809   4.215  0.1555  0.1577 -0.0089
31380SOL    HW197732   8.404   0.820   4.190  0.4618  1.0436 -0.8243
31380SOL    HW297733   8.498   0.834   4.307 -0.3363  0.6748 -0.1296
31381SOL     OW97734   4.414   6.867   8.332  0.4437  0.7245  0.8244
31381SOL    HW197735   4.365   6.853   8.413 -0.7755 -0.8549 -0.1302
31381SOL    HW297736   4.503   6.888   8.361  0.2479 -0.6094  2.5591
31382SOL     OW97737   8.529   1.589   3.702 -0.2694 -0.0710  0.1001
31382SOL    HW197738   8.555   1.632   3.783 -2.8939  3.1248 -0.5254
31382SOL    HW297739   8.586   1.628   3.635  0.2063 -0.8173  0.0629
31383SOL     OW97740   6.217   5.202   1.883 -0.6756  0.0821 -0.0302
31383SOL    HW197741   6.243   5.183   1.973  0.5552 -0.7622 -0.5395
31383SOL    HW297742   6.154   5.133   1.861 -1.0373  0.3349  0.1998
31384SOL     OW97743   4.672   0.250   1.022 -0.1406 -0.1059 -0.2279
31384SOL    HW197744   4.703   0.210   0.941  1.1194 -0.8444  0.5844
31384SOL    HW297745   4.750   0.289   1.061 -0.8256  0.6893  0.3813
31385SOL     OW97746   4.432   1.299   9.171  0.0874  0.1538 -0.2292
31385SOL    HW197747   4.438   1.246   9.092  0.2016 -1.7268  0.9696
31385SOL    HW297748   4.342   1.285   9.202  0.2746  0.2464  0.3714
31386SOL     OW97749  10.534   1.812   0.906 -0.5477 -0.1822 -0.1893
31386SOL    HW197750  10.559   1.876   0.973 -0.0402 -0.4039 -0.1561
31386SOL    HW297751  10.570   1.729   0.939 -0.4179 -0.3185 -0.6673
31387SOL     OW97752   4.798   2.401   5.246  0.0460 -0.5191  0.8465
31387SOL    HW197753   4.886   2.367   5.229  0.3909  0.6948  0.1163
31387SOL    HW297754   4.812   2.484   5.292 -0.7384 -0.5442  1.1523
31388SOL     OW97755   5.098   8.901  10.761  0.5709 -0.3892  0.4630
31388SOL    HW197756   5.134   8.990  10.770 -0.0051 -0.2311  1.3001
31388SOL    HW297757   5.003   8.913  10.765  0.4918 -1.0503  0.6565
31389SOL     OW97758   0.318  10.991   1.711 -0.3271 -0.7497  0.3990
31389SOL    HW197759   0.384  10.953   1.769 -0.2124  0.4175  1.0492
31389SOL    HW297760   0.248  11.019   1.769 -0.6865 -0.5223 -0.1313
31390SOL     OW97761   7.504   6.974   2.159 -0.1361  0.2219  0.1076
31390SOL    HW197762   7.542   7.023   2.232  0.7060 -0.2084 -0.0352
31390SOL    HW297763   7.561   6.898   2.148 -0.9094 -0.3153 -0.2662
31391SOL     OW97764   5.563   5.002   3.508  0.8269  0.5410 -0.5387
31391SOL    HW197765   5.575   4.908   3.526  0.5336  0.3210 -1.4594
31391SOL    HW297766   5.643   5.042   3.540  0.3452  0.1806  1.2474
31392SOL     OW97767   0.501   2.774  10.603  0.0663  0.0192  0.2680
31392SOL    HW197768   0.481   2.849  10.659 -0.1072  1.6493 -1.8514
31392SOL    HW297769   0.439   2.781  10.531  1.2212 -1.1443 -0.8889
31393SOL     OW97770   3.090   1.860   7.115  0.4815 -0.1214  0.2453
31393SOL    HW197771   3.047   1.837   7.198  0.9254 -1.6813  0.0741
31393SOL    HW297772   3.112   1.776   7.075  2.3756  0.5932 -0.3621
31394SOL     OW97773  10.484   7.164   5.065 -0.2099 -0.6066  0.3510
31394SOL    HW197774  10.442   7.231   5.119 -0.2956 -1.6527  1.6191
31394SOL    HW297775  10.564   7.205   5.033 -0.6652  0.3678  0.4197
31395SOL     OW97776  10.229   8.312   4.076 -0.3816  0.1562 -0.3782
31395SOL    HW197777  10.234   8.362   3.995 -2.8323 -0.4175 -0.9822
31395SOL    HW297778  10.300   8.248   4.069  0.5376  1.2338 -1.2435
31396SOL     OW97779   7.816   3.584   8.120  0.0725  0.1612  0.3372
31396SOL    HW197780   7.889   3.551   8.172  1.8086  0.4271 -1.7580
31396SOL    HW297781   7.753   3.512   8.117  1.7284 -1.3303 -0.4115
31397SOL     OW97782   6.351  10.738   4.116 -0.2810 -0.7650 -0.2492
31397SOL    HW197783   6.397  10.736   4.200 -0.5929 -0.3761 -0.0658
31397SOL    HW297784   6.284  10.670   4.124 -0.6340 -0.3947  0.0117
31398SOL     OW97785   3.325   4.728   1.198  0.5610 -0.0656  0.3166
31398SOL    HW197786   3.263   4.659   1.220 -0.1970 -0.0031 -1.4429
31398SOL    HW297787   3.335   4.722   1.103  0.2175  2.4448  0.0665
31399SOL     OW97788   5.791   7.903   7.176  0.5615  0.2217  0.4211
31399SOL    HW197789   5.791   7.830   7.115 -0.7090  1.0419 -0.6314
31399SOL    HW297790   5.776   7.863   7.262  0.8411 -0.8213 -0.0048
31400SOL     OW97791   0.077   5.190   3.169 -0.0616  0.0091 -0.2713
31400SOL    HW197792  -0.007   5.171   3.127 -1.1748  2.6075  0.5738
31400SOL    HW297793   0.117   5.104   3.182 -2.4003 -1.2959 -1.0431
31401SOL     OW97794   5.308   9.294   7.835 -0.2791 -0.3919 -0.0215
31401SOL    HW197795   5.359   9.251   7.903 -1.9151  1.7056  2.7292
31401SOL    HW297796   5.361   9.369   7.808  0.4730 -1.3520 -1.3379
31402SOL     OW97797   6.007   4.975   2.518  0.1808  0.2689  0.2849
31402SOL    HW197798   6.017   5.061   2.559  0.7491 -0.3461  1.4911
31402SOL    HW297799   6.075   4.921   2.559 -1.3702 -1.2645  0.9424
31403SOL     OW97800  11.013   5.412   0.554  0.0027 -0.0449 -0.1984
31403SOL    HW197801  10.964   5.494   0.552 -1.8277 -1.1025 -0.2918
31403SOL    HW297802  11.062   5.416   0.636 -4.4548 -1.1824  2.9239
31404SOL     OW97803   4.446   6.894   1.962  0.1768  0.1612 -0.2072
31404SOL    HW197804   4.446   6.799   1.962 -1.1284  0.1341 -0.9806
31404SOL    HW297805   4.494   6.918   1.882  0.6956  0.1682  0.1008
31405SOL     OW97806   1.242  10.596   9.588  0.3089  0.0075 -0.1097
31405SOL    HW197807   1.210  10.642   9.510 -1.2433  0.0186  0.4939
31405SOL    HW297808   1.304  10.657   9.628  1.2715 -0.0750 -1.4136
31406SOL     OW97809   7.192   2.868   7.977 -0.0567  0.0529 -0.0044
31406SOL    HW197810   7.286   2.883   7.963 -0.1588  0.9628  0.2276
31406SOL    HW297811   7.186   2.841   8.069  0.1300 -1.5434 -0.4284
31407SOL     OW97812   7.928   9.352  10.584  0.5845 -0.0273  0.2822
31407SOL    HW197813   7.973   9.391  10.508 -0.8827  0.1560 -0.5218
31407SOL    HW297814   7.858   9.413  10.604 -0.9397 -1.5574 -0.1580
31408SOL     OW97815  10.030   5.836   5.365 -0.4110  0.4994 -0.1566
31408SOL    HW197816  10.037   5.853   5.271 -0.6123 -0.5815 -0.3855
31408SOL    HW297817   9.988   5.914   5.400  1.0555  1.5941 -0.7127
31409SOL     OW97818   3.129   4.074   5.141  0.3793  0.0453  0.8842
31409SOL    HW197819   3.043   4.053   5.178 -0.5456  1.7778 -0.1721
31409SOL    HW297820   3.147   4.163   5.171  0.6794  0.5950 -0.8434
31410SOL     OW97821   2.646   4.191   9.839 -0.6531  0.2782  0.6991
31410SOL    HW197822   2.572   4.246   9.814  0.5988  1.6309 -0.1662
31410SOL    HW297823   2.673   4.224   9.925  0.6172  1.6384 -0.1812
31411SOL     OW97824  10.158  10.517   0.804 -0.5357 -0.0812  0.6308
31411SOL    HW197825  10.118  10.476   0.727  0.9190 -0.1539 -0.1128
31411SOL    HW297826  10.116  10.473   0.879 -0.5713 -1.4022 -0.1353
31412SOL     OW97827   7.617   3.235   6.350 -1.0810  0.0021  0.1034
31412SOL    HW197828   7.627   3.168   6.282 -0.0846 -0.8213  1.0138
31412SOL    HW297829   7.674   3.306   6.322  0.1545 -0.7680  0.5505
31413SOL     OW97830   8.107  11.055   4.175 -0.2306  0.0168  0.3066
31413SOL    HW197831   8.169  11.004   4.227  0.9513  0.0947 -0.9682
31413SOL    HW297832   8.147  11.142   4.168 -0.6583  0.1777 -0.2308
31414SOL     OW97833   3.597   3.648   0.836 -0.0036 -0.1112  0.5097
31414SOL    HW197834   3.508   3.636   0.869 -0.0085 -1.5543  0.0038
31414SOL    HW297835   3.631   3.721   0.888 -1.8098  1.1575  0.0288
31415SOL     OW97836   2.545   8.992   0.090  0.2352  0.3991 -0.1347
31415SOL    HW197837   2.522   8.935   0.017 -2.5435 -2.2240  2.4868
31415SOL    HW297838   2.639   8.981   0.101  0.2605 -1.2287 -1.6875
31416SOL     OW97839   1.156   0.530   5.852  0.4689 -0.1023 -0.6498
31416SOL    HW197840   1.153   0.611   5.800 -0.3089  0.2717 -0.0519
31416SOL    HW297841   1.157   0.560   5.943 -1.9316 -0.7313 -0.3326
31417SOL     OW97842   3.948   5.403   7.218  0.7815 -0.1502 -0.3394
31417SOL    HW197843   4.034   5.410   7.259  1.0742 -0.9619 -0.7808
31417SOL    HW297844   3.913   5.319   7.250 -0.2540  0.5939  0.5669
31418SOL     OW97845  10.907   7.323   9.857  0.6468  0.7633 -0.3572
31418SOL    HW197846  10.993   7.296   9.827 -0.1762 -1.6712 -0.8463
31418SOL    HW297847  10.906   7.300   9.951  0.0223 -0.9248 -0.7246
31419SOL     OW97848   4.959   4.002   3.760 -0.4300 -0.0305  0.1119
31419SOL    HW197849   5.051   3.976   3.768  0.1295  1.6873 -0.2592
31419SOL    HW297850   4.962   4.087   3.717 -2.3250 -0.7320 -1.5335
31420SOL     OW97851   9.465   0.537   8.121 -0.0875  0.0473 -1.0217
31420SOL    HW197852   9.478   0.442   8.112  1.7446  0.2134 -0.5174
31420SOL    HW297853   9.370   0.548   8.117 -0.3253 -1.7675 -1.4766
31421SOL     OW97854   5.599   1.047   6.311 -0.0319 -0.6721 -0.3818
31421SOL    HW197855   5.637   1.120   6.263 -2.5235  1.1552  0.2328
31421SOL    HW297856   5.596   1.076   6.402 -1.7871 -1.1763 -0.2454
31422SOL     OW97857  10.272   6.220   3.931 -0.1339  0.2826  0.2968
31422SOL    HW197858  10.245   6.303   3.971  0.7447 -0.2195  2.0385
31422SOL    HW297859  10.359   6.204   3.967  0.6490 -0.3268 -1.7288
31423SOL     OW97860   5.761   4.884   4.641 -0.0239  0.4603  0.1756
31423SOL    HW197861   5.716   4.804   4.614  0.5426 -0.1413  0.9555
31423SOL    HW297862   5.821   4.902   4.569 -0.8647  0.7700 -0.4642
31424SOL     OW97863   9.702   5.656   0.407  0.1553  0.1164 -0.5910
31424SOL    HW197864   9.794   5.652   0.382  0.2164  1.1285 -0.5556
31424SOL    HW297865   9.668   5.568   0.387  1.1923 -0.3685 -0.3020
31425SOL     OW97866   5.327   9.554   0.219 -0.1702 -0.0088  0.1727
31425SOL    HW197867   5.306   9.469   0.259  1.7818 -0.9010 -0.5384
31425SOL    HW297868   5.258   9.569   0.155  0.3256 -1.9739 -0.9212
31426SOL     OW97869   1.834   9.187   9.281  0.1865 -0.5639 -0.5136
31426SOL    HW197870   1.824   9.105   9.328  1.3375 -0.1285  0.5360
31426SOL    HW297871   1.928   9.195   9.265 -0.0156  0.0485 -1.5582
31427SOL     OW97872   3.865   1.781   6.099  0.3516 -0.2446  0.6969
31427SOL    HW197873   3.842   1.719   6.029 -1.1926 -0.2446  1.1650
31427SOL    HW297874   3.896   1.858   6.053  1.5352 -1.0554  0.0793
31428SOL     OW97875   5.073   7.910   6.695 -0.3857 -0.2088  0.3228
31428SOL    HW197876   5.009   7.916   6.766  0.6084  0.6644  1.1962
31428SOL    HW297877   5.079   7.999   6.660 -0.8247 -0.6161 -0.8458
31429SOL     OW97878   2.766   9.786   1.634  0.5456  0.1117  0.1622
31429SOL    HW197879   2.724   9.729   1.570  0.8933 -0.1780  0.1903
31429SOL    HW297880   2.852   9.805   1.597  0.6219  0.2090  0.3892
31430SOL     OW97881   2.291   6.444   8.363  0.3266 -0.1625 -0.5110
31430SOL    HW197882   2.379   6.476   8.383  1.0418 -2.2254 -0.2056
31430SOL    HW297883   2.278   6.370   8.422 -1.2438 -0.5095 -1.2445
31431SOL     OW97884   9.163   5.721   5.115 -0.2652  0.0416  0.8935
31431SOL    HW197885   9.166   5.817   5.112  1.3383 -0.0027 -0.1417
31431SOL    HW297886   9.242   5.696   5.163 -0.0116 -0.7823  0.0825
31432SOL     OW97887   3.875  10.154   1.186 -0.2634 -0.3233  0.0862
31432SOL    HW197888   3.954  10.139   1.237  0.0064 -1.4277 -0.6273
31432SOL    HW297889   3.818  10.081   1.209 -1.3994  0.8186  1.1267
31433SOL     OW97890   3.706   0.506   9.477  0.3490 -0.7189 -0.3293
31433SOL    HW197891   3.682   0.479   9.566  1.0062 -2.3414 -0.6161
31433SOL    HW297892   3.634   0.476   9.422  0.5124 -0.8150 -0.4934
31434SOL     OW97893   7.757  10.139   9.211 -0.9857 -0.5245 -0.6558
31434SOL    HW197894   7.781  10.062   9.261  1.4427  0.2517 -0.4894
31434SOL    HW297895   7.812  10.135   9.132 -0.0768  1.4522 -0.2022
31435SOL     OW97896   9.783   6.698   2.297 -0.6670 -0.4985  0.4379
31435SOL    HW197897   9.698   6.656   2.313 -0.1099 -1.3955  1.1083
31435SOL    HW297898   9.827   6.695   2.381 -0.7879  1.9122  0.6490
31436SOL     OW97899   6.588   6.246   9.878 -0.3922  0.3705  0.1285
31436SOL    HW197900   6.576   6.335   9.911 -0.7950 -0.0481  1.1656
31436SOL    HW297901   6.628   6.199   9.951 -1.5382 -0.6605  0.1254
31437SOL     OW97902   1.025   8.511   8.319  0.2381  0.0317  0.2738
31437SOL    HW197903   1.039   8.573   8.247 -1.4349  1.1404  0.8506
31437SOL    HW297904   1.113   8.478   8.339  0.8338  0.2467 -1.7687
31438SOL     OW97905   2.805   3.619   6.444 -0.1642 -0.0199  0.3638
31438SOL    HW197906   2.719   3.582   6.425 -0.1384  0.3040 -0.3965
31438SOL    HW297907   2.787   3.707   6.478 -0.1521 -0.1063  0.5942
31439SOL     OW97908   9.574   5.625   3.804 -0.2003 -0.1792  0.0622
31439SOL    HW197909   9.551   5.586   3.888 -1.6638  0.8740  0.1849
31439SOL    HW297910   9.670   5.635   3.808  0.0062 -2.0305  0.7252
31440SOL     OW97911   6.576   4.550   2.031 -0.5312 -0.7574 -0.0441
31440SOL    HW197912   6.559   4.554   1.937  1.0842 -0.9401 -0.3723
31440SOL    HW297913   6.671   4.544   2.038 -0.7171 -3.7634  1.4989
31441SOL     OW97914   1.870   8.748   9.814  0.8689 -0.3083 -0.3636
31441SOL    HW197915   1.816   8.826   9.807  2.8873  1.1443 -0.4709
31441SOL    HW297916   1.853   8.715   9.902 -2.3020 -1.6210 -1.3003
31442SOL     OW97917   3.082   8.492   4.836 -0.1086 -0.2377  0.3752
31442SOL    HW197918   3.089   8.456   4.924  3.0697 -0.9826 -0.0623
31442SOL    HW297919   3.132   8.574   4.840 -0.9006  0.3101 -0.4851
31443SOL     OW97920   3.963   1.771   3.338 -0.3701 -0.3646  1.1459
31443SOL    HW197921   4.003   1.685   3.352  0.6798 -0.1485 -0.3289
31443SOL    HW297922   3.869   1.753   3.332 -0.0762 -1.5905 -0.2491
31444SOL     OW97923  10.132   5.556   7.428 -0.1636 -0.3306 -0.0147
31444SOL    HW197924  10.141   5.467   7.462  0.3861  0.5711  2.3721
31444SOL    HW297925  10.051   5.589   7.468  0.6168  0.8446  0.6357
31445SOL     OW97926   5.443   8.420  10.281  0.3531  0.2831 -0.1693
31445SOL    HW197927   5.348   8.418  10.273  0.4139  1.0705 -1.3044
31445SOL    HW297928   5.461   8.496  10.336  0.2877 -0.5913  1.0956
31446SOL     OW97929   8.021   1.095   1.325  0.2123  0.0315  0.2441
31446SOL    HW197930   8.028   1.039   1.248 -1.8878  1.8782 -1.3859
31446SOL    HW297931   8.105   1.141   1.329  0.3723 -0.1461 -0.8931
31447SOL     OW97932   4.150  10.809  10.322 -0.3154 -0.4138 -0.7606
31447SOL    HW197933   4.157  10.724  10.278  1.5101  0.6756 -2.7202
31447SOL    HW297934   4.064  10.843  10.296  0.4026 -0.1459 -2.9059
31448SOL     OW97935   5.526   7.729   6.372  0.2055 -0.1480 -0.1087
31448SOL    HW197936   5.456   7.792   6.390 -1.5835 -2.0969  0.1716
31448SOL    HW297937   5.557   7.702   6.458  1.2310  0.6005 -0.2317
31449SOL     OW97938   4.993   6.634   4.474 -0.6821  0.8873 -0.3237
31449SOL    HW197939   4.907   6.592   4.474 -1.2491  1.9910 -0.9934
31449SOL    HW297940   5.032   6.610   4.557 -1.2571 -0.3967 -0.4064
31450SOL     OW97941   9.109  10.627   9.262 -0.3950  0.2553  0.2705
31450SOL    HW197942   9.176  10.559   9.247 -0.4486 -0.2861  2.1376
31450SOL    HW297943   9.032  10.578   9.291 -0.8967  1.0243  0.2597
31451SOL     OW97944   5.393   5.041   8.505 -0.0135 -0.1726 -0.1930
31451SOL    HW197945   5.400   5.021   8.599  1.2185 -0.1031 -0.2498
31451SOL    HW297946   5.300   5.030   8.485 -0.1080 -1.3984  0.7719
31452SOL     OW97947   2.695   0.480   6.820  0.0535 -0.1251 -0.8249
31452SOL    HW197948   2.625   0.451   6.878  0.0265  0.5735 -0.4933
31452SOL    HW297949   2.662   0.465   6.732 -0.3343 -0.2046 -0.6678
31453SOL     OW97950   4.309   2.976   4.849 -0.6034  0.0609  0.0095
31453SOL    HW197951   4.230   2.944   4.893  0.0975 -0.5049  0.8791
31453SOL    HW297952   4.313   2.927   4.767 -0.5195 -0.7807  0.5058
31454SOL     OW97953   3.915  10.410  10.345 -0.6540  0.1533 -0.2421
31454SOL    HW197954   3.959  10.416  10.430 -1.0575  0.6772 -0.0643
31454SOL    HW297955   3.862  10.489  10.340  0.0983  0.6100 -1.4031
31455SOL     OW97956   4.105   2.054   4.190  0.3566 -0.8178  0.0625
31455SOL    HW197957   4.160   2.118   4.237  0.0922 -0.7453  0.2772
31455SOL    HW297958   4.085   2.096   4.107  0.3276 -0.6921  0.1327
31456SOL     OW97959   8.448   0.920  10.651 -0.1553  0.2512 -0.5856
31456SOL    HW197960   8.355   0.898  10.649 -0.8352  2.7239  0.5955
31456SOL    HW297961   8.453   1.001  10.701  2.9206 -0.9566  1.3290
31457SOL     OW97962   3.008   1.997   9.082  0.1298 -0.2731  0.4285
31457SOL    HW197963   2.962   1.914   9.093  0.6338 -0.7351 -0.8529
31457SOL    HW297964   3.011   2.011   8.988  0.9088  0.7218  0.5857
31458SOL     OW97965   6.145   6.053   6.982  0.3472 -0.1303  0.3983
31458SOL    HW197966   6.222   6.106   6.961 -0.1574 -0.0124 -1.3820
31458SOL    HW297967   6.089   6.060   6.904 -0.5724 -1.8074  0.8458
31459SOL     OW97968   0.999   2.020   4.694 -0.1801 -0.1614 -0.0626
31459SOL    HW197969   0.983   2.114   4.700 -0.9625 -0.2651 -0.3768
31459SOL    HW297970   1.092   2.010   4.715 -0.1723  0.6405  0.3358
31460SOL     OW97971   5.910   7.713   5.274 -0.5251 -0.0427 -0.0795
31460SOL    HW197972   5.905   7.621   5.249  0.3006  0.0486 -0.5937
31460SOL    HW297973   6.002   7.736   5.261 -0.4217  0.4729  1.3914
31461SOL     OW97974   2.399   3.839   0.603  0.5773  0.1767  0.0972
31461SOL    HW197975   2.312   3.820   0.568  1.2295 -1.1537 -0.8808
31461SOL    HW297976   2.457   3.778   0.557  1.8959  0.4095  1.3951
31462SOL     OW97977   6.079   7.960   9.035 -0.4304 -0.0430 -0.4346
31462SOL    HW197978   6.019   7.900   8.991 -0.3875 -0.8897  0.6149
31462SOL    HW297979   6.147   7.976   8.970 -0.8815 -0.4697 -1.0308
31463SOL     OW97980   7.197   7.686   8.080  0.0798  0.4427  0.1015
31463SOL    HW197981   7.231   7.671   7.992  0.3793  1.2010  0.0805
31463SOL    HW297982   7.244   7.764   8.111  0.8066 -0.4603  1.3627
31464SOL     OW97983   8.637   0.896   2.042  0.2400  0.0757 -0.4927
31464SOL    HW197984   8.637   0.824   2.104 -1.8323  0.1600 -0.3240
31464SOL    HW297985   8.675   0.860   1.962 -0.2980 -1.0687 -0.2468
31465SOL     OW97986   7.409   8.132   6.013 -0.1940  0.0607  0.1128
31465SOL    HW197987   7.399   8.155   5.920 -2.1455  2.6211  0.8254
31465SOL    HW297988   7.498   8.161   6.035  0.2736 -0.5363 -0.9385
31466SOL     OW97989   7.521   2.188   3.554  0.6737  0.0397  0.2206
31466SOL    HW197990   7.530   2.093   3.546  1.9897  0.0205  1.4652
31466SOL    HW297991   7.599   2.224   3.513  0.1168  0.6168 -0.3668
31467SOL     OW97992   6.681   6.714   8.727 -0.3343 -0.1362 -0.1684
31467SOL    HW197993   6.598   6.728   8.683 -1.4191 -1.0888  1.4922
31467SOL    HW297994   6.747   6.740   8.662 -1.9145  2.0294 -1.0419
31468SOL     OW97995   6.853   5.659   8.570  0.0290 -0.0491 -0.4381
31468SOL    HW197996   6.823   5.741   8.531  1.1242  0.4861 -0.2107
31468SOL    HW297997   6.920   5.627   8.510 -0.0045 -0.5003 -0.2401
31469SOL     OW97998   5.398   3.529   9.702  0.0540 -0.1106  0.1987
31469SOL    HW197999   5.305   3.505   9.700  0.1085 -0.3168 -0.9181
31469SOL    HW298000   5.399   3.623   9.683  0.1259 -0.3972 -1.3835
31470SOL     OW98001   4.184   7.568   8.557 -0.1555  0.5120  0.1349
31470SOL    HW198002   4.153   7.515   8.631  1.0998 -0.1535  0.2250
31470SOL    HW298003   4.180   7.509   8.482 -0.4171  0.8519 -0.1216
31471SOL     OW98004   2.298   6.437   0.875  0.2931  0.4472 -0.2220
31471SOL    HW198005   2.350   6.507   0.914  0.4186  0.6502 -0.7443
31471SOL    HW298006   2.255   6.477   0.800  0.4208 -0.0490 -0.5694
31472SOL     OW98007   2.809   1.924   2.686 -0.5553 -0.3684 -0.2107
31472SOL    HW198008   2.820   1.832   2.711 -0.3623 -0.8130 -1.7810
31472SOL    HW298009   2.736   1.923   2.624 -0.9424  0.6384  0.2110
31473SOL     OW98010   9.508   1.315   9.242  0.3014  0.4618 -0.3445
31473SOL    HW198011   9.490   1.374   9.315 -0.7968 -1.6201  1.1443
31473SOL    HW298012   9.584   1.264   9.270 -2.0485 -2.6436  0.9490
31474SOL     OW98013   3.330   4.158  10.596  0.0788  0.6780  0.2156
31474SOL    HW198014   3.354   4.065  10.591  0.0408  0.6754  0.0736
31474SOL    HW298015   3.403   4.204  10.554 -0.7231  0.5817 -1.3485
31475SOL     OW98016   3.171   9.017   3.277 -0.3713  0.3731  0.3256
31475SOL    HW198017   3.193   8.958   3.350 -1.8349  1.9250  2.1212
31475SOL    HW298018   3.250   9.068   3.263  0.4529 -1.0219 -0.3074
31476SOL     OW98019   9.103   6.874   9.119 -0.8857 -0.7395 -0.0363
31476SOL    HW198020   9.087   6.831   9.203 -1.7173 -0.2582  0.0705
31476SOL    HW298021   9.049   6.825   9.057 -0.5267 -0.8919 -0.2288
31477SOL     OW98022   3.955   6.063   0.329 -0.0871  0.0971 -0.4649
31477SOL    HW198023   4.037   6.015   0.321 -0.2190 -0.2066 -0.0412
31477SOL    HW298024   3.916   6.059   0.242 -0.2361 -0.8337 -0.3702
31478SOL     OW98025   1.084   9.965   9.846 -0.4680  0.1856  0.4167
31478SOL    HW198026   1.114  10.021   9.917  2.7150 -0.0908 -0.5632
31478SOL    HW298027   1.074   9.878   9.886  1.3248  0.0259  0.5698
31479SOL     OW98028   3.322   6.355   9.873  0.2603 -0.0014  0.4417
31479SOL    HW198029   3.409   6.357   9.834  1.1559 -1.4920  2.2299
31479SOL    HW298030   3.274   6.426   9.828  2.8287  1.9139  0.5079
31480SOL     OW98031   3.488   6.708   2.432  0.1007 -0.2022  0.3404
31480SOL    HW198032   3.459   6.642   2.369 -3.0773  1.7361 -0.4645
31480SOL    HW298033   3.442   6.686   2.513 -1.0243  0.9613  0.0526
31481SOL     OW98034   8.469   6.232   7.012  0.2088 -0.5116  0.1226
31481SOL    HW198035   8.396   6.171   7.029  0.7373 -0.8551  1.2367
31481SOL    HW298036   8.463   6.297   7.082  1.5021 -1.0520  0.7623
31482SOL     OW98037   5.992   0.125   3.124 -0.0301 -0.4583 -0.3480
31482SOL    HW198038   5.973   0.202   3.178  0.0057 -0.7411  0.0756
31482SOL    HW298039   6.082   0.102   3.145  0.1170 -0.3311 -0.8344
31483SOL     OW98040   0.293   1.288   6.127 -0.1198 -0.0386  0.0675
31483SOL    HW198041   0.308   1.353   6.058 -1.2697 -0.4259 -0.5693
31483SOL    HW298042   0.269   1.341   6.204 -0.0757  0.3364 -0.1731
31484SOL     OW98043   8.829   1.430   3.112  0.7905  0.2457 -0.7169
31484SOL    HW198044   8.916   1.469   3.102  0.2051  1.7604 -0.2645
31484SOL    HW298045   8.772   1.487   3.061  0.0752 -0.8509 -1.1736
31485SOL     OW98046   9.430   3.085  10.456  0.1838 -0.3965 -0.5683
31485SOL    HW198047   9.506   3.041  10.494  0.5451  1.0363  0.4246
31485SOL    HW298048   9.380   3.116  10.531  0.1987  1.3174 -1.2259
31486SOL     OW98049   3.892   4.402   8.461 -0.1028  0.5053  0.1499
31486SOL    HW198050   3.868   4.491   8.437 -1.0129  0.1252 -0.4367
31486SOL    HW298051   3.816   4.349   8.434  0.4062 -0.4363  0.5160
31487SOL     OW98052   0.500   3.480   9.661  0.1681 -0.0722  0.0036
31487SOL    HW198053   0.412   3.489   9.623 -1.0081  0.9388  2.6857
31487SOL    HW298054   0.505   3.387   9.686  0.1871 -0.3048 -0.8269
31488SOL     OW98055   9.799   5.247   5.062 -0.2355 -0.0785 -0.3591
31488SOL    HW198056   9.862   5.317   5.074 -1.6848  1.3200 -0.5954
31488SOL    HW298057   9.805   5.194   5.141  0.6207  0.5146 -0.0215
31489SOL     OW98058   6.835   7.897   9.885 -0.0443  0.2805 -0.3877
31489SOL    HW198059   6.916   7.878   9.838  2.5551  1.0804  3.2960
31489SOL    HW298060   6.809   7.984   9.854 -0.6454 -0.6960 -2.8854
31490SOL     OW98061   0.751   8.741   0.734 -0.3668  0.1304  0.4485
31490SOL    HW198062   0.661   8.709   0.730 -0.3742  0.1253  0.6292
31490SOL    HW298063   0.805   8.662   0.729 -0.4125 -0.1644  3.0992
31491SOL     OW98064   3.207   5.578   3.440 -0.8798 -0.0853 -0.1166
31491SOL    HW198065   3.159   5.571   3.358 -0.0091  2.1631 -0.8755
31491SOL    HW298066   3.288   5.529   3.424 -1.7450 -1.7722  0.3287
31492SOL     OW98067  11.017   2.959   4.879 -0.4543  0.2603  0.2059
31492SOL    HW198068  10.955   2.889   4.859 -0.6446  0.1924  1.0270
31492SOL    HW298069  10.995   2.986   4.967 -0.1457  1.1195  0.0231
31493SOL     OW98070   8.826   7.074   8.422 -0.3080  0.1402  0.6454
31493SOL    HW198071   8.758   7.046   8.362 -0.3562  0.6018  0.4798
31493SOL    HW298072   8.810   7.024   8.502  0.1527 -0.9767  0.0709
31494SOL     OW98073   2.879   7.666   7.863  0.0751 -0.2817  0.1993
31494SOL    HW198074   2.789   7.672   7.896  0.0349  2.9978 -0.1499
31494SOL    HW298075   2.934   7.672   7.942  0.0019 -0.3428  0.2550
31495SOL     OW98076  10.165  11.089   0.698 -0.7251 -0.0236 -0.3701
31495SOL    HW198077  10.186  11.057   0.610 -0.5845  2.9266 -1.5113
31495SOL    HW298078  10.251  11.105   0.737 -0.7942  0.5973 -0.4722
31496SOL     OW98079  10.135  11.017   5.632 -0.1878  0.2327 -0.4324
31496SOL    HW198080  10.173  11.090   5.583 -0.2470  0.9218  0.5195
31496SOL    HW298081  10.206  10.954   5.640  0.4850  1.0705  0.4571
31497SOL     OW98082  10.144   4.054   1.014 -0.7605 -0.0715  0.0670
31497SOL    HW198083  10.190   4.129   1.051 -0.3976 -0.4650  0.4261
31497SOL    HW298084  10.058   4.056   1.057 -1.2725  0.9470 -0.9700
31498SOL     OW98085   7.634   1.196   1.138 -0.1167 -0.5204  0.3173
31498SOL    HW198086   7.596   1.267   1.189 -0.0052  0.3602 -0.7871
31498SOL    HW298087   7.689   1.240   1.072  0.1491 -1.6320 -0.2344
31499SOL     OW98088   4.111  10.794   1.927 -0.1950  0.4744 -0.1042
31499SOL    HW198089   4.016  10.794   1.936 -0.4007 -0.3569 -1.7279
31499SOL    HW298090   4.135  10.701   1.922  0.4441  0.6765 -1.5266
31500SOL     OW98091  10.507   1.592   7.195  0.0655  0.6171  0.1883
31500SOL    HW198092  10.534   1.679   7.223 -0.3531  0.7916  0.0592
31500SOL    HW298093  10.541   1.584   7.106 -1.9212  1.6035 -0.7237
31501SOL     OW98094   0.267   9.408   9.828 -0.7935 -0.1372  0.3697
31501SOL    HW198095   0.182   9.374   9.800 -0.6282 -0.7043  0.5421
31501SOL    HW298096   0.246   9.476   9.892 -1.1000 -0.7100  0.8810
31502SOL     OW98097   6.366   9.075   7.057 -0.4231  0.2873  0.2253
31502SOL    HW198098   6.280   9.044   7.086  0.0702  0.1960  1.6738
31502SOL    HW298099   6.412   9.096   7.138  1.0958 -0.1067 -0.5039
31503SOL     OW98100   6.782   4.978   4.668 -0.2594  0.4824  0.3056
31503SOL    HW198101   6.823   4.912   4.611 -1.7270  0.7776 -1.1697
31503SOL    HW298102   6.699   4.938   4.695 -1.7315  2.0900 -1.5548
31504SOL     OW98103   5.564   5.744   8.376 -0.2198  0.5313 -0.2393
31504SOL    HW198104   5.533   5.720   8.289  0.7868 -3.2909  0.2434
31504SOL    HW298105   5.659   5.755   8.365 -0.0834  0.0066  0.3263
31505SOL     OW98106   6.277   0.642   5.996 -0.5242 -0.3790 -0.2787
31505SOL    HW198107   6.344   0.585   6.034  0.4585  0.5857 -0.5110
31505SOL    HW298108   6.317   0.674   5.915 -1.9423 -1.1236 -1.3124
31506SOL     OW98109   9.743   2.224   5.974 -0.3013  0.2369  0.5787
31506SOL    HW198110   9.698   2.140   5.960  2.0757 -0.9764 -0.3033
31506SOL    HW298111   9.834   2.200   5.991  0.6222  2.6662 -0.4606
31507SOL     OW98112   5.137   0.026   4.894 -0.7209 -0.0568  0.1263
31507SOL    HW198113   5.071  -0.028   4.937 -0.9981 -0.6184 -0.9703
31507SOL    HW298114   5.218   0.010   4.943 -1.3219  0.4472  1.3300
31508SOL     OW98115   2.471   0.624   1.759  0.0367  0.8308  0.4244
31508SOL    HW198116   2.408   0.629   1.687 -0.8735 -0.8240  1.0623
31508SOL    HW298117   2.437   0.686   1.824 -1.3213 -0.4589  1.0079
31509SOL     OW98118   1.835   7.103   7.207 -0.0172  0.1455 -0.2562
31509SOL    HW198119   1.803   7.140   7.125 -0.7011 -1.6295 -0.8463
31509SOL    HW298120   1.928   7.087   7.191 -0.7243 -3.1312 -1.9683
31510SOL     OW98121   1.854   9.922   8.945  0.5755 -0.0914  0.1862
31510SOL    HW198122   1.837   9.866   9.021 -0.9848  1.4538  1.0280
31510SOL    HW298123   1.792   9.892   8.879  2.1931 -1.6978 -0.7136
31511SOL     OW98124   3.388   1.168  10.625 -0.0784  0.2011 -0.0500
31511SOL    HW198125   3.406   1.076  10.606  2.0656  0.6462 -0.4257
31511SOL    HW298126   3.310   1.189  10.573 -0.1411 -1.1921 -0.5455
31512SOL     OW98127   5.224   2.344   2.215 -0.1523  0.2978 -0.5466
31512SOL    HW198128   5.225   2.299   2.299 -0.2091  0.6364 -0.3660
31512SOL    HW298129   5.220   2.273   2.150  3.9670 -0.2500 -0.4732
31513SOL     OW98130   4.333   3.117   2.090 -0.0009 -0.3173  0.1442
31513SOL    HW198131   4.246   3.144   2.059  0.4993 -0.4878 -1.5131
31513SOL    HW298132   4.383   3.103   2.010  2.2485  1.9603  1.0329
31514SOL     OW98133   9.138   8.201   3.426 -0.3447 -0.2780 -0.5270
31514SOL    HW198134   9.178   8.288   3.424 -1.0554  0.1380  1.4582
31514SOL    HW298135   9.050   8.213   3.390 -0.0018 -0.4698 -1.4712
31515SOL     OW98136   4.177   2.554   0.203  0.0952  0.5808  0.8735
31515SOL    HW198137   4.172   2.624   0.138 -1.1349  0.3481  0.6839
31515SOL    HW298138   4.089   2.551   0.242 -0.1897 -1.4389  0.2284
31516SOL     OW98139   1.455   5.403  10.557  0.1430 -0.0354  0.7913
31516SOL    HW198140   1.440   5.491  10.591  0.9493  0.7461 -0.7635
31516SOL    HW298141   1.550   5.390  10.563  0.1981 -0.2350 -0.2108
31517SOL     OW98142   6.547   7.805   7.488  0.4899 -0.0998 -0.0209
31517SOL    HW198143   6.482   7.767   7.429  1.4896 -0.1076 -1.1732
31517SOL    HW298144   6.537   7.757   7.570 -1.3763  0.3518  0.0513
31518SOL     OW98145   9.742   6.562   4.574 -0.5512 -0.0025  0.4579
31518SOL    HW198146   9.723   6.553   4.667 -0.5166  0.3221  0.4997
31518SOL    HW298147   9.714   6.651   4.553 -0.1307  0.0842  0.2645
31519SOL     OW98148   3.665   9.916   2.423  0.3485 -0.0452  0.6252
31519SOL    HW198149   3.653   9.898   2.330  0.0986  1.0117  0.4466
31519SOL    HW298150   3.669   9.829   2.463 -2.8748 -0.5973  0.0513
31520SOL     OW98151   5.829   1.480   9.937  0.1848  0.4621  0.1365
31520SOL    HW198152   5.801   1.504   9.849  0.1039 -0.9102 -0.2264
31520SOL    HW298153   5.875   1.397   9.926  1.0306  0.7575  1.2615
31521SOL     OW98154   0.117   9.226   5.831  0.3266  0.3810 -0.2632
31521SOL    HW198155   0.092   9.173   5.908 -1.4564  0.4922 -0.7151
31521SOL    HW298156   0.035   9.268   5.804  0.7952 -0.0439 -2.5330
31522SOL     OW98157   8.821   9.435   7.925  0.0878 -0.0627  0.1014
31522SOL    HW198158   8.781   9.415   8.009  0.0303 -1.0246 -0.1491
31522SOL    HW298159   8.774   9.513   7.893  0.7783  0.9282  1.4018
31523SOL     OW98160   6.654   0.406   7.103  0.1307 -0.0707 -0.2163
31523SOL    HW198161   6.668   0.501   7.105 -1.9595  0.2918  0.6188
31523SOL    HW298162   6.580   0.392   7.162  1.3774 -2.4482  0.9313
31524SOL     OW98163  10.444   7.071   6.630  0.8843 -0.3870 -0.4247
31524SOL    HW198164  10.511   7.036   6.690 -1.3057 -1.3934  1.5913
31524SOL    HW298165  10.361   7.042   6.667 -0.7141  0.7161 -2.8913
31525SOL     OW98166   4.058   5.419   3.888  0.5937  0.3360 -0.2565
31525SOL    HW198167   4.151   5.399   3.895  0.1373 -1.3907  1.5742
31525SOL    HW298168   4.014   5.334   3.886 -1.0140  1.1127 -0.2131
31526SOL     OW98169   9.973   8.818   9.247  0.0384 -0.1215  0.6601
31526SOL    HW198170   9.919   8.740   9.233  0.2264  0.0824 -1.6577
31526SOL    HW298171   9.936   8.859   9.325 -2.3943 -0.6178 -0.1471
31527SOL     OW98172   4.740   2.112   2.584 -0.1644  0.0108 -0.1433
31527SOL    HW198173   4.718   2.149   2.498  0.3236  0.5746 -0.0351
31527SOL    HW298174   4.785   2.183   2.629 -1.6747  0.2136  1.1267
31528SOL     OW98175   4.426   9.516   2.749  0.2136 -0.3709  0.2699
31528SOL    HW198176   4.455   9.442   2.802 -0.2040  0.5158  1.8060
31528SOL    HW298177   4.385   9.477   2.673 -0.1665 -1.7253  1.1372
31529SOL     OW98178   9.463   2.366  10.439 -0.0378 -0.4570 -0.1543
31529SOL    HW198179   9.406   2.364  10.362  0.0948 -1.0586 -0.2415
31529SOL    HW298180   9.513   2.447  10.430 -1.2858  0.3976  0.2267
31530SOL     OW98181   9.943   1.839   3.245 -0.2470  0.4712  0.1407
31530SOL    HW198182   9.886   1.763   3.229 -0.6127  0.5552  0.9883
31530SOL    HW298183  10.024   1.801   3.279 -0.7240  0.5026  1.3334
31531SOL     OW98184   7.827   5.948   5.778 -0.2988 -0.2384  0.4658
31531SOL    HW198185   7.787   5.924   5.862 -1.0448  0.2010  0.2498
31531SOL    HW298186   7.837   5.865   5.731  0.2047 -0.4957  1.0222
31532SOL     OW98187   2.249   5.344   5.200 -0.0396 -0.1897 -0.1645
31532SOL    HW198188   2.276   5.295   5.122  2.2863 -1.1182  1.1113
31532SOL    HW298189   2.192   5.413   5.166 -0.3083 -1.4416 -2.4867
31533SOL     OW98190  10.468   4.233   7.464  0.1554 -0.4535 -0.6914
31533SOL    HW198191  10.430   4.266   7.545 -1.8190 -1.9102 -0.9581
31533SOL    HW298192  10.488   4.142   7.482  1.7877 -0.2231 -1.1899
31534SOL     OW98193   7.307  10.139   7.377 -0.5118  0.2090 -0.0739
31534SOL    HW198194   7.321  10.225   7.419  0.6626 -0.3992  0.8568
31534SOL    HW298195   7.286  10.081   7.450 -0.0348 -0.5494 -0.5342
31535SOL     OW98196   6.315   2.671   4.670 -0.2386  0.0519 -0.2357
31535SOL    HW198197   6.388   2.609   4.672  0.0389  0.3657 -0.4483
31535SOL    HW298198   6.279   2.663   4.582  2.5843  3.3238 -1.9493
31536SOL     OW98199   7.488   9.082   2.301  0.2052 -0.4540  0.0294
31536SOL    HW198200   7.562   9.090   2.240 -0.0191  0.2383 -0.1644
31536SOL    HW298201   7.447   9.168   2.299  0.7179 -0.1212  1.8553
31537SOL     OW98202   9.956   7.267  10.676  0.8099 -0.4023 -0.2010
31537SOL    HW198203   9.991   7.249  10.763 -0.0350  1.0850  0.4630
31537SOL    HW298204   9.983   7.357  10.657  0.2183 -0.4030 -1.1098
31538SOL     OW98205   0.183   6.589  10.558 -0.1189 -0.0832 -0.9410
31538SOL    HW198206   0.236   6.574  10.637  2.4906 -2.5926 -2.9584
31538SOL    HW298207   0.172   6.684  10.554  0.5163  0.1978  1.8736
31539SOL     OW98208   6.707   5.343   7.004  0.1768 -0.0397 -0.0474
31539SOL    HW198209   6.617   5.369   6.985  0.3850  0.8226  0.1015
31539SOL    HW298210   6.705   5.247   7.003 -0.4730 -0.0303 -1.2458
31540SOL     OW98211   4.991  10.442   6.053 -0.6587  0.4355 -0.0605
31540SOL    HW198212   4.913  10.497   6.051  0.2915  1.8640  0.4055
31540SOL    HW298213   5.056  10.490   6.002  0.2886 -0.0998  0.6090
31541SOL     OW98214   6.209   0.691   8.789  0.1347 -0.0393  0.9572
31541SOL    HW198215   6.139   0.691   8.854  1.5488  0.0310  2.5470
31541SOL    HW298216   6.180   0.753   8.722 -1.6817 -0.6576  1.1160
31542SOL     OW98217   9.722   9.375   8.981  0.2747 -0.5111  0.4381
31542SOL    HW198218   9.728   9.469   8.964 -0.0855 -0.6279 -0.3998
31542SOL    HW298219   9.812   9.348   8.996  0.3956 -0.0478  0.5580
31543SOL     OW98220   1.560   4.776  10.288  0.3539 -0.0000 -0.2301
31543SOL    HW198221   1.640   4.828  10.286  1.3567 -1.4689 -2.2637
31543SOL    HW298222   1.526   4.787  10.377  2.4121  1.2480  0.4733
31544SOL     OW98223   4.297  10.885   0.119 -0.0148  0.1500  0.4638
31544SOL    HW198224   4.298  10.807   0.174 -0.1918 -0.1642  0.0286
31544SOL    HW298225   4.350  10.861   0.043  0.6308  0.7437  0.7181
31545SOL     OW98226   1.811   5.391   9.828  0.0583 -0.3979  0.2534
31545SOL    HW198227   1.876   5.341   9.779  1.4767 -0.1384  1.8104
31545SOL    HW298228   1.728   5.371   9.784  1.2576  0.0096 -2.3653
31546SOL     OW98229   7.846   1.979   3.664 -0.5769  0.6467  0.7551
31546SOL    HW198230   7.760   1.975   3.620 -0.8703 -1.4786  1.3924
31546SOL    HW298231   7.909   1.957   3.595 -0.6218  1.3129  0.4946
31547SOL     OW98232   2.546   5.558   9.621  0.0779  0.2061 -0.8375
31547SOL    HW198233   2.619   5.557   9.683 -0.5887 -0.2090 -0.0357
31547SOL    HW298234   2.583   5.595   9.541  1.2982 -0.4971 -0.6244
31548SOL     OW98235  10.366   2.343   6.772 -0.5553  0.2862  0.2929
31548SOL    HW198236  10.440   2.314   6.825  0.1054 -0.1004 -0.8060
31548SOL    HW298237  10.339   2.426   6.810  0.6936  0.6177  0.4748
31549SOL     OW98238   5.988   0.928   9.016  0.5458 -0.1731  0.1815
31549SOL    HW198239   5.998   0.938   9.111  1.7668 -0.4158  0.0968
31549SOL    HW298240   5.993   1.017   8.982  4.2805 -0.2817  0.0390
31550SOL     OW98241   2.741   0.605   0.481  0.1031 -0.1840 -0.3446
31550SOL    HW198242   2.726   0.543   0.409 -1.0538 -0.4904  0.1377
31550SOL    HW298243   2.763   0.687   0.438 -0.3085 -0.4324 -1.0559
31551SOL     OW98244   6.429   6.121   3.677  0.0263 -0.1634  0.3575
31551SOL    HW198245   6.507   6.125   3.622 -1.1090  0.5893 -1.3096
31551SOL    HW298246   6.370   6.062   3.630 -0.3915 -0.7734  1.6180
31552SOL     OW98247   5.087   0.081   5.775  0.3085 -0.3169  0.0609
31552SOL    HW198248   5.005   0.085   5.726  0.3804 -1.5548 -0.1997
31552SOL    HW298249   5.098  -0.012   5.794 -0.1245  0.1684  3.1408
31553SOL     OW98250   5.435   4.561   6.253 -0.0377 -1.0696  0.2588
31553SOL    HW198251   5.486   4.532   6.177  0.9096 -2.3594  1.3459
31553SOL    HW298252   5.390   4.483   6.283 -4.1150  0.3084 -1.6166
31554SOL     OW98253   8.587   2.750   4.915  0.2718  0.0713  0.1248
31554SOL    HW198254   8.623   2.711   4.994  0.7345  0.7293  0.2420
31554SOL    HW298255   8.662   2.787   4.869 -0.0728  0.2526 -0.3055
31555SOL     OW98256   0.407   1.464   8.212 -0.2338  0.1257 -0.0443
31555SOL    HW198257   0.320   1.502   8.226  0.1922  0.8138  0.7470
31555SOL    HW298258   0.437   1.438   8.299  1.4980  2.4093  0.1383
31556SOL     OW98259   7.409   3.830   5.505 -0.6968  0.4658 -0.3718
31556SOL    HW198260   7.340   3.796   5.448 -0.3384 -0.8210 -0.0726
31556SOL    HW298261   7.463   3.885   5.448 -1.1823  0.3814 -0.9232
31557SOL     OW98262   7.462   7.928  10.567 -0.7940 -0.0822  0.0333
31557SOL    HW198263   7.395   7.859  10.560 -1.4937  0.5285  0.5525
31557SOL    HW298264   7.436   7.992  10.501  1.7545 -1.8134 -2.8965
31558SOL     OW98265   1.851   0.866   5.302  0.2518 -0.1373 -0.2945
31558SOL    HW198266   1.804   0.793   5.263  2.2190 -1.6973  0.0774
31558SOL    HW298267   1.924   0.825   5.349  0.1638  1.9273  1.8049
31559SOL     OW98268   3.280   3.525   2.125  0.1365  0.6879  0.1026
31559SOL    HW198269   3.280   3.604   2.072 -0.7762 -0.0897 -1.1049
31559SOL    HW298270   3.286   3.453   2.062 -0.5342 -0.2498  1.0663
31560SOL     OW98271   4.864   5.073   2.006 -0.2137  0.1086  0.5804
31560SOL    HW198272   4.957   5.052   2.010 -0.0538  0.7629  0.4681
31560SOL    HW298273   4.843   5.111   2.092 -0.8214 -1.7161  1.2902
31561SOL     OW98274   3.399   2.517   0.934  0.1306 -0.3176  0.1537
31561SOL    HW198275   3.494   2.506   0.931  0.1620 -0.3156  0.9537
31561SOL    HW298276   3.374   2.489   1.022 -0.3037  2.0049  0.8189
31562SOL     OW98277   4.213   9.708   7.604  0.0778  0.6991  0.0626
31562SOL    HW198278   4.123   9.706   7.573 -0.4888 -0.3756  1.6362
31562SOL    HW298279   4.249   9.623   7.581  0.5702  0.9658 -0.1843
31563SOL     OW98280   4.818   4.447  10.281  0.3794 -0.0374  0.2484
31563SOL    HW198281   4.807   4.352  10.279  0.4007 -0.0430  0.4038
31563SOL    HW298282   4.729   4.482  10.290  0.4208 -0.0611  0.7664
31564SOL     OW98283   8.655  10.471   6.451 -0.1301  0.4121  0.7255
31564SOL    HW198284   8.605  10.391   6.434 -0.8261  0.9749  0.0367
31564SOL    HW298285   8.730  10.466   6.392 -1.5196  1.4432 -1.2130
31565SOL     OW98286   3.686  10.338   0.998  0.1115  0.6525 -0.2208
31565SOL    HW198287   3.601  10.383   0.997  0.2382  0.8908 -0.3264
31565SOL    HW298288   3.736  10.381   0.928  0.3171  0.5091 -0.1605
31566SOL     OW98289   7.818  10.819   9.731  0.5922  0.1510 -0.0686
31566SOL    HW198290   7.841  10.745   9.674  2.5971 -0.6544  1.6537
31566SOL    HW298291   7.786  10.778   9.811  1.7638  1.1238  0.9246
31567SOL     OW98292   2.852  11.102   7.900 -0.4079 -0.6813 -0.5788
31567SOL    HW198293   2.844  11.045   7.977  0.5534  0.7671  0.6554
31567SOL    HW298294   2.903  11.177   7.931  0.2407 -0.1716 -2.7227
31568SOL     OW98295   7.321   5.111   5.887  0.4751  0.1152  0.0077
31568SOL    HW198296   7.290   5.201   5.878  1.1720  0.3757  0.1970
31568SOL    HW298297   7.251   5.058   5.848  0.0870  0.7373 -0.1553
31569SOL     OW98298  10.578   8.781   6.454  0.7681  0.3515 -0.4466
31569SOL    HW198299  10.527   8.803   6.532 -1.0044 -2.2953 -0.7379
31569SOL    HW298300  10.529   8.822   6.382  0.5817  0.0757 -0.4761
31570SOL     OW98301   1.827   9.523  10.874 -0.2905 -0.0274 -0.5616
31570SOL    HW198302   1.907   9.567  10.844 -0.2715 -0.7479 -1.5992
31570SOL    HW298303   1.756   9.571  10.831 -0.6376  1.9555  1.9512
31571SOL     OW98304  10.697   5.018   0.164  0.3342  0.0477 -0.5516
31571SOL    HW198305  10.686   5.091   0.104  1.0213  0.9698  0.3938
31571SOL    HW298306  10.768   4.966   0.127 -0.9413 -0.8350 -1.8527
31572SOL     OW98307   5.081   0.040   8.560 -0.6831 -0.1169  0.0935
31572SOL    HW198308   5.097  -0.004   8.477  1.3037  0.4103  0.1388
31572SOL    HW298309   5.163   0.086   8.579 -1.5064  0.7743  1.7438
31573SOL     OW98310  10.348   4.932   2.082  0.4966  0.6077 -0.0771
31573SOL    HW198311  10.309   4.856   2.124  0.2185  0.5820 -0.3765
31573SOL    HW298312  10.277   4.996   2.076  0.6959  0.8447  0.0610
31574SOL     OW98313   9.677   3.077   3.157  0.0906 -0.3300  0.1317
31574SOL    HW198314   9.735   3.085   3.233 -0.2861 -0.5018  0.4446
31574SOL    HW298315   9.608   3.017   3.186 -0.4343  0.1483 -0.1115
31575SOL     OW98316   3.112   9.274  11.049 -0.5511 -0.0036  0.1848
31575SOL    HW198317   3.143   9.365  11.039  0.5910 -0.3511  0.4236
31575SOL    HW298318   3.049   9.263  10.978  0.1997  0.6087 -0.6142
31576SOL     OW98319   7.896   4.242   8.340 -0.1333  0.3229  0.2379
31576SOL    HW198320   7.954   4.316   8.321 -0.2984  1.1843  2.7773
31576SOL    HW298321   7.812   4.282   8.362  0.5036 -0.2282  4.5432
31577SOL     OW98322   5.193   9.588   1.147  0.1569  0.5917 -0.4901
31577SOL    HW198323   5.124   9.654   1.145  1.4688  1.9972 -1.9262
31577SOL    HW298324   5.146   9.505   1.154 -1.5033  1.6247  3.3496
31578SOL     OW98325   2.772   3.867   9.772  0.0818 -1.2600  0.2911
31578SOL    HW198326   2.761   3.882   9.866 -0.6777 -1.1436  0.1889
31578SOL    HW298327   2.866   3.852   9.761  0.2739 -0.5914  0.9688
31579SOL     OW98328   0.832   0.759   8.937  0.0107 -0.4327  0.7877
31579SOL    HW198329   0.820   0.711   9.019 -1.3693 -0.6333  0.4940
31579SOL    HW298330   0.797   0.701   8.869 -2.0322  1.0507  0.4686
31580SOL     OW98331   4.661   4.364   7.211 -0.0540 -0.2474 -0.0022
31580SOL    HW198332   4.715   4.377   7.289 -4.2140  0.5506  3.1035
31580SOL    HW298333   4.624   4.450   7.193 -1.3819 -0.9961 -1.0496
31581SOL     OW98334  10.144   7.785   9.257  0.2231 -0.2613 -0.1090
31581SOL    HW198335  10.072   7.847   9.247 -0.4075 -1.0166 -0.4159
31581SOL    HW298336  10.214   7.835   9.297 -1.0654  0.0808  1.8511
31582SOL     OW98337   9.509   2.352   4.931  0.0079  0.5019  0.8930
31582SOL    HW198338   9.510   2.424   4.994 -1.5509  0.8217  0.6037
31582SOL    HW298339   9.494   2.395   4.847  1.4351  0.0240  0.3670
31583SOL     OW98340   5.993   2.367   8.327  0.1368  0.3486  0.2214
31583SOL    HW198341   5.986   2.272   8.318 -1.2698  0.3568  1.0166
31583SOL    HW298342   5.918   2.392   8.381  0.2535  1.9671 -0.3158
31584SOL     OW98343   1.973  10.293   4.809  0.6953  0.2975  0.2954
31584SOL    HW198344   1.977  10.387   4.822 -0.3363  0.2056  1.3869
31584SOL    HW298345   2.065  10.266   4.804  1.0014  1.4212 -0.7026
31585SOL     OW98346   3.880   8.831   6.853  0.6408 -0.5688 -0.4697
31585SOL    HW198347   3.805   8.879   6.890 -0.3699 -2.1319 -0.4029
31585SOL    HW298348   3.957   8.877   6.887 -0.2643 -0.4463  1.5485
31586SOL     OW98349   7.641   9.441  11.045 -0.7516 -0.7407  0.0632
31586SOL    HW198350   7.624   9.409  11.134 -2.0854 -0.6620 -0.1461
31586SOL    HW298351   7.632   9.363  10.990  1.5272 -1.1054  0.1077
31587SOL     OW98352   1.052   0.404   9.138 -0.2804 -0.5992 -0.4696
31587SOL    HW198353   1.004   0.384   9.058 -1.5445 -0.1971  0.1654
31587SOL    HW298354   1.032   0.331   9.197  1.0196 -1.1364 -0.6411
31588SOL     OW98355   3.406   9.451   2.328 -0.0842  0.2202  0.3001
31588SOL    HW198356   3.486   9.410   2.361 -0.3065 -0.0995  0.4431
31588SOL    HW298357   3.335   9.392   2.354 -0.5144  1.1469  1.3230
31589SOL     OW98358   4.290  10.826   2.955  0.1584  0.5977  0.4517
31589SOL    HW198359   4.292  10.835   3.050 -0.5977  2.5386  0.3230
31589SOL    HW298360   4.375  10.860   2.925  0.2256  0.3801  0.3853
31590SOL     OW98361   5.357   9.314   2.263  0.2592 -0.1363 -0.3882
31590SOL    HW198362   5.417   9.322   2.337  0.6057 -1.6391 -0.4811
31590SOL    HW298363   5.273   9.289   2.303  1.0501 -3.5535 -0.6052
31591SOL     OW98364   0.528   2.181   1.991  0.1195 -0.5592 -0.1045
31591SOL    HW198365   0.436   2.155   1.993  0.2276 -0.9067  0.4690
31591SOL    HW298366   0.545   2.199   1.899 -1.2032  2.0037  0.0732
31592SOL     OW98367  10.996  10.400   3.064 -0.3606  0.1052 -0.1219
31592SOL    HW198368  10.902  10.382   3.060 -0.2346 -1.3556  1.9067
31592SOL    HW298369  11.005  10.488   3.029 -2.3731 -0.0544 -1.1627
31593SOL     OW98370   8.450   6.289   0.084 -0.2685  0.3902 -0.5301
31593SOL    HW198371   8.504   6.341   0.026 -0.0276  0.1418 -0.5297
31593SOL    HW298372   8.511   6.252   0.148 -0.4585  0.2501 -0.4260
31594SOL     OW98373   1.401   6.984   4.207  0.2028  0.2006  0.8755
31594SOL    HW198374   1.387   6.936   4.126 -4.2961 -3.6461  3.4393
31594SOL    HW298375   1.487   6.955   4.237  0.4268 -1.0294 -0.8243
31595SOL     OW98376   1.958   4.051   9.659 -0.1532 -0.3996 -0.5599
31595SOL    HW198377   1.904   4.113   9.611  1.2042  0.0548 -1.5416
31595SOL    HW298378   2.024   4.104   9.703  0.5168 -1.0659 -0.7343
31596SOL     OW98379   9.829   7.770  10.257  0.8823 -0.1100 -0.5092
31596SOL    HW198380   9.834   7.862  10.283 -0.0542 -0.3688  0.7081
31596SOL    HW298381   9.755   7.765  10.197  1.3357  0.0345 -1.0827
31597SOL     OW98382   7.158   8.195   6.491  1.1947 -0.3540  0.3484
31597SOL    HW198383   7.178   8.109   6.453 -0.5829 -0.7192  0.1494
31597SOL    HW298384   7.126   8.247   6.417  1.8839  0.3647  0.5452
31598SOL     OW98385   2.925   4.173   1.032 -0.2946  0.1571 -0.2721
31598SOL    HW198386   2.945   4.226   1.109  0.9713 -0.7781  0.0608
31598SOL    HW298387   2.829   4.169   1.031 -0.3454  0.5914  0.9638
31599SOL     OW98388   9.405   6.433   6.677  0.0714 -0.0955 -0.0930
31599SOL    HW198389   9.387   6.527   6.684  1.8012  0.3054 -0.5939
31599SOL    HW298390   9.396   6.414   6.584  1.2484 -0.0782 -0.2177
31600SOL     OW98391   1.444   4.733   3.649  0.1441 -0.8288 -0.6368
31600SOL    HW198392   1.489   4.673   3.589 -0.4524 -1.2564 -0.6647
31600SOL    HW298393   1.418   4.677   3.723  0.1208 -0.4789 -0.3778
31601SOL     OW98394   5.750   4.250   7.597  0.1958 -0.7484  0.0186
31601SOL    HW198395   5.667   4.223   7.557  0.1877  0.2383 -0.6668
31601SOL    HW298396   5.787   4.313   7.535  0.8249 -0.1801  0.9528
31602SOL     OW98397   1.417   5.661  10.647  0.2893 -0.8635  0.1324
31602SOL    HW198398   1.487   5.718  10.613  0.0472 -0.4926  0.2424
31602SOL    HW298399   1.353   5.722  10.684 -1.3220 -1.0467 -2.1795
31603SOL     OW98400   8.445   2.677  10.297 -0.1879  0.3610  0.0573
31603SOL    HW198401   8.435   2.729  10.217 -2.1415 -1.3109 -0.8641
31603SOL    HW298402   8.449   2.587  10.267 -1.5734 -0.3573  1.8588
31604SOL     OW98403   1.287   3.726   0.488  0.1377  0.2742  0.1071
31604SOL    HW198404   1.319   3.807   0.527 -2.7194  0.2173  2.9243
31604SOL    HW298405   1.197   3.746   0.461 -0.3548 -1.7216  0.1072
31605SOL     OW98406  10.459   0.821   4.772  0.2940  0.1272 -0.0947
31605SOL    HW198407  10.488   0.763   4.842 -0.1584 -0.7495 -0.6194
31605SOL    HW298408  10.537   0.837   4.720  0.2477 -0.6989 -0.4276
31606SOL     OW98409   7.755   3.059   5.569  0.2095  0.0301 -0.1113
31606SOL    HW198410   7.735   3.152   5.583  0.9368  0.2252 -0.2719
31606SOL    HW298411   7.838   3.061   5.520 -1.1250 -0.6509 -2.5316
31607SOL     OW98412   5.928   4.101   0.691  0.2300 -0.1007 -0.7688
31607SOL    HW198413   5.843   4.056   0.698 -0.0928  0.4233 -1.2217
31607SOL    HW298414   5.949   4.126   0.781  0.1633 -0.7019 -0.5839
31608SOL     OW98415   9.610   8.794   5.107 -0.1122  0.1176 -0.0775
31608SOL    HW198416   9.536   8.801   5.168 -0.0544  1.1390 -0.1011
31608SOL    HW298417   9.615   8.701   5.086 -0.4951 -0.1662  1.0234
31609SOL     OW98418   5.971   8.573   6.320 -0.3171  0.2633  0.2743
31609SOL    HW198419   6.049   8.562   6.374 -1.2607 -0.3309  1.5674
31609SOL    HW298420   5.985   8.515   6.245  1.9788  2.7103 -1.3239
31610SOL     OW98421   6.210   1.705   5.606  0.2078 -0.1508  0.2263
31610SOL    HW198422   6.131   1.688   5.555  0.3422 -0.3826  0.0907
31610SOL    HW298423   6.179   1.748   5.686 -0.0930 -0.6056  0.3558
31611SOL     OW98424   4.846   3.918   0.889  0.4012 -0.6249  0.0158
31611SOL    HW198425   4.761   3.960   0.901  0.5047 -0.3571 -0.1787
31611SOL    HW298426   4.891   3.972   0.824  0.3142 -1.3623 -0.6801
31612SOL     OW98427   6.701   0.252   8.193 -0.0418 -0.6710 -0.2889
31612SOL    HW198428   6.730   0.297   8.272  0.4670  0.4314 -1.0741
31612SOL    HW298429   6.654   0.175   8.225 -0.5652  0.1869  1.0910
31613SOL     OW98430   1.894  10.192   9.943  0.4786  0.2187  0.3143
31613SOL    HW198431   1.828  10.155  10.002  1.3073  0.1462  1.2158
31613SOL    HW298432   1.843  10.232   9.873 -0.5370  0.3645  1.1108
31614SOL     OW98433   6.425   6.939   4.350 -0.0866 -0.3262 -0.2873
31614SOL    HW198434   6.516   6.969   4.355 -0.3250  0.6946 -1.4754
31614SOL    HW298435   6.391   6.951   4.438  0.6278  0.3375 -0.0885
31615SOL     OW98436   3.551   8.054   2.729  0.0318  0.5429  0.1922
31615SOL    HW198437   3.506   8.127   2.684 -0.7155  0.0779  0.1623
31615SOL    HW298438   3.542   7.981   2.668  3.9277  1.2196 -1.4996
31616SOL     OW98439   7.587   1.888   4.378  0.3307 -0.3034 -0.1678
31616SOL    HW198440   7.642   1.853   4.448  1.5258 -0.0869 -0.9700
31616SOL    HW298441   7.622   1.850   4.298 -0.8527 -0.3478 -0.6975
31617SOL     OW98442   3.548   9.801   3.001  0.0783 -0.3717 -0.2371
31617SOL    HW198443   3.481   9.868   2.990  0.0328 -0.7330 -2.4301
31617SOL    HW298444   3.530   9.765   3.088 -2.6850 -0.5464 -0.7731
31618SOL     OW98445   7.462  11.044   6.680  0.2526 -0.2099 -0.4039
31618SOL    HW198446   7.392  11.027   6.617 -0.1429  0.6258 -0.1992
31618SOL    HW298447   7.528  11.091   6.629 -0.0910  0.5137 -0.1896
31619SOL     OW98448   7.120   7.259   1.433 -0.0767 -0.0302 -0.3824
31619SOL    HW198449   7.160   7.337   1.395  0.9665  0.0133  0.7213
31619SOL    HW298450   7.026   7.277   1.432  0.2003  1.7607  0.8963
31620SOL     OW98451  10.734   2.812  10.801 -0.1861  0.0710  0.6184
31620SOL    HW198452  10.724   2.720  10.826  0.3054 -0.3068 -0.4937
31620SOL    HW298453  10.670   2.825  10.731 -0.5518  0.7037  1.0607
31621SOL     OW98454   5.940   5.250   6.303  0.2028 -0.3616  0.3420
31621SOL    HW198455   5.956   5.189   6.231  0.6812 -1.3519  1.2697
31621SOL    HW298456   5.876   5.207   6.359 -2.1786  1.4934 -0.7566
31622SOL     OW98457   0.270   1.756   3.473  0.0934 -0.0594  0.8918
31622SOL    HW198458   0.241   1.811   3.546 -0.4297  2.0431 -0.8043
31622SOL    HW298459   0.205   1.771   3.404 -0.6348 -3.6242  0.6056
31623SOL     OW98460   5.515   7.418   5.385  0.2686 -0.2325  0.0219
31623SOL    HW198461   5.424   7.387   5.376 -0.0855  0.4648  1.0586
31623SOL    HW298462   5.517   7.463   5.469  1.7032 -0.6276  0.2319
31624SOL     OW98463   1.759   8.559   0.961 -0.3245  0.0938 -0.0275
31624SOL    HW198464   1.819   8.485   0.965  0.7109  0.9571  1.6138
31624SOL    HW298465   1.677   8.526   0.999  0.0739 -0.2696  0.5308
31625SOL     OW98466   7.662  10.221   6.506 -0.0654  1.0730  1.1723
31625SOL    HW198467   7.668  10.314   6.527  0.0641  1.1943  0.6141
31625SOL    HW298468   7.589  10.215   6.444  2.1986  1.3511 -1.6940
31626SOL     OW98469  10.765   8.958  10.046 -0.1326  0.1002 -0.6488
31626SOL    HW198470  10.758   9.041  10.092 -1.8923  0.0068 -0.6873
31626SOL    HW298471  10.780   8.983   9.954  0.6453  0.3399 -0.4586
31627SOL     OW98472   7.890  10.255   5.417 -0.0588  0.2602 -0.1542
31627SOL    HW198473   7.805  10.260   5.460 -0.2690  0.4138 -0.5765
31627SOL    HW298474   7.913  10.162   5.418 -1.1871 -0.0820 -1.8323
31628SOL     OW98475   4.892   2.001   8.047 -0.4610 -0.2652 -0.0232
31628SOL    HW198476   4.811   2.047   8.029  0.6897  1.6260 -0.7098
31628SOL    HW298477   4.912   2.020   8.138 -0.9231 -0.9946  0.2389
31629SOL     OW98478   9.291   0.860   0.409 -0.0038 -0.0554 -0.2365
31629SOL    HW198479   9.270   0.934   0.466 -0.8823 -0.0056 -0.6089
31629SOL    HW298480   9.307   0.788   0.470  0.7302  0.4065  0.1219
31630SOL     OW98481   0.118   2.650   9.678 -0.6098 -0.0195 -0.1557
31630SOL    HW198482   0.093   2.562   9.708  0.0438 -0.8415 -1.8970
31630SOL    HW298483   0.197   2.636   9.626  1.7016  2.0707  2.4378
31631SOL     OW98484   7.265   1.863   4.377 -0.4438  0.1846 -0.2473
31631SOL    HW198485   7.190   1.899   4.330 -1.1303  1.4196  1.6720
31631SOL    HW298486   7.322   1.938   4.392  0.1750 -0.3472  0.0936
31632SOL     OW98487   1.958   1.267   6.361 -0.2427 -0.3910 -0.6028
31632SOL    HW198488   2.006   1.184   6.368  1.4635  0.4992 -1.2873
31632SOL    HW298489   1.874   1.243   6.323  0.0109 -1.8706 -0.2961
31633SOL     OW98490  10.673   7.605   3.705  0.1866  0.1440  0.0082
31633SOL    HW198491  10.583   7.616   3.675 -0.1406  0.6546  1.1161
31633SOL    HW298492  10.701   7.692   3.732  0.2442 -0.3411  1.6674
31634SOL     OW98493   0.127   9.442   2.934 -0.5908  0.0839 -0.3105
31634SOL    HW198494   0.209   9.482   2.907 -0.0570 -0.4968  0.4005
31634SOL    HW298495   0.153   9.358   2.972 -1.5796 -0.4512 -0.7641
31635SOL     OW98496   8.681  10.555   7.560 -0.0144  0.1309  0.1394
31635SOL    HW198497   8.728  10.592   7.635 -0.1441 -0.8169  0.7016
31635SOL    HW298498   8.622  10.626   7.532  0.2411  0.5985  0.7458
31636SOL     OW98499   7.428  10.568   9.925  0.0786  0.2102  0.3084
31636SOL    HW198500   7.399  10.522  10.004 -0.5810 -0.1138 -0.1127
31636SOL    HW298501   7.499  10.514   9.891  1.5642  1.2653  1.6117
31637SOL     OW98502  10.209  10.289   9.132 -0.3547  0.0356  0.6520
31637SOL    HW198503  10.255  10.248   9.058 -1.2469 -1.1809  0.7446
31637SOL    HW298504  10.191  10.217   9.192 -1.2572  0.7078  1.2134
31638SOL     OW98505   6.753   7.569   3.740 -0.2600  0.3518 -0.0664
31638SOL    HW198506   6.736   7.537   3.651 -0.8674  1.9346 -0.5560
31638SOL    HW298507   6.681   7.533   3.792 -0.7129  0.5876 -0.5176
31639SOL     OW98508   1.945   2.000   6.978  0.6255 -0.1138  0.6844
31639SOL    HW198509   1.905   1.993   6.892  1.6821 -0.7988  0.2382
31639SOL    HW298510   2.035   2.028   6.961  1.0156 -0.8075  1.5199
31640SOL     OW98511   3.556   8.503   6.665  0.7639 -0.0174 -0.5090
31640SOL    HW198512   3.639   8.550   6.668  1.1774 -0.7834  0.2847
31640SOL    HW298513   3.558   8.456   6.582  0.2622  1.4597 -1.4167
31641SOL     OW98514   0.276  10.766  10.500  0.1975 -0.4348 -0.1364
31641SOL    HW198515   0.235  10.694  10.548 -0.0827  0.3361  0.8170
31641SOL    HW298516   0.364  10.736  10.482  1.2246  0.1693  3.1762
31642SOL     OW98517   1.109   1.951   5.720 -0.1780 -0.1187 -0.0169
31642SOL    HW198518   1.051   1.932   5.794  1.0601 -0.6309  0.8593
31642SOL    HW298519   1.099   2.045   5.705 -1.6359 -0.2878 -0.2554
31643SOL     OW98520   7.058   8.889   6.912 -0.1733 -0.0032 -0.1231
31643SOL    HW198521   7.137   8.943   6.905  0.3973 -0.9367 -1.1721
31643SOL    HW298522   6.989   8.951   6.934  0.9602  0.7349  1.5790
31644SOL     OW98523   9.380   3.764   9.346  0.1262  0.8038  0.4307
31644SOL    HW198524   9.294   3.780   9.384 -0.5863  0.2373 -0.8817
31644SOL    HW298525   9.362   3.739   9.255  1.4980 -1.9048  0.8055
31645SOL     OW98526   5.917   4.040   7.931  0.7454 -0.1367  0.0214
31645SOL    HW198527   5.939   3.949   7.913  1.1312  0.0851 -0.6788
31645SOL    HW298528   5.826   4.049   7.902  1.1187  0.0209 -1.1663
31646SOL     OW98529   1.974   6.725   9.127 -0.4833 -0.2071 -0.0028
31646SOL    HW198530   2.038   6.738   9.057 -0.6127 -0.4492 -0.1629
31646SOL    HW298531   1.978   6.631   9.146 -0.4618 -0.1453  0.3010
31647SOL     OW98532   6.358   8.102   8.257 -0.5553  0.1022 -0.4928
31647SOL    HW198533   6.450   8.127   8.255  0.0131 -1.6574  0.9062
31647SOL    HW298534   6.312   8.181   8.287  0.9474  0.0793  2.1507
31648SOL     OW98535   2.866   8.557   3.496  0.1114 -0.3125 -0.4552
31648SOL    HW198536   2.777   8.593   3.493  0.3019  0.1604 -3.2659
31648SOL    HW298537   2.859   8.471   3.454  0.5835 -1.4224  1.6127
31649SOL     OW98538   8.816   5.471  10.508  0.6431  0.1289 -0.4062
31649SOL    HW198539   8.861   5.487  10.425 -2.1154  1.2773 -1.8023
31649SOL    HW298540   8.791   5.558  10.540  0.2510 -0.4000  0.7979
31650SOL     OW98541   4.575   5.116   0.479 -0.3394 -0.1301 -0.0867
31650SOL    HW198542   4.510   5.068   0.530  1.1835  0.2558  2.3512
31650SOL    HW298543   4.584   5.066   0.398 -2.7121 -0.8674  0.0378
31651SOL     OW98544   6.257   7.925   2.455 -0.4402  0.1274  0.6595
31651SOL    HW198545   6.324   7.966   2.509 -0.2057 -0.8209  1.1132
31651SOL    HW298546   6.277   7.831   2.459 -1.8521 -0.1935  0.8939
31652SOL     OW98547   7.789  10.652   8.979  0.1123  0.1197  0.2983
31652SOL    HW198548   7.819  10.578   9.031  0.8338  0.9264  1.0658
31652SOL    HW298549   7.764  10.718   9.043 -0.4890  0.5540 -0.3702
31653SOL     OW98550   8.112   2.133   6.985  0.1985 -0.6282 -0.0265
31653SOL    HW198551   8.017   2.140   6.978  0.3622  1.1230 -0.9460
31653SOL    HW298552   8.137   2.205   7.043  1.3313  2.1502 -3.6405
31654SOL     OW98553   5.338   8.282   2.478  0.4778 -0.3045 -0.2341
31654SOL    HW198554   5.385   8.350   2.527 -2.3766  1.3848  0.3799
31654SOL    HW298555   5.371   8.290   2.389  1.1681  0.9769  0.1120
31655SOL     OW98556   6.150   5.901   0.064 -0.1944  0.2225  0.4210
31655SOL    HW198557   6.059   5.923   0.086 -0.7171  0.8050 -2.0261
31655SOL    HW298558   6.148   5.806   0.049 -0.9612  0.5195 -1.7073
31656SOL     OW98559   4.732  10.076   2.566  0.4017  0.0997  0.0256
31656SOL    HW198560   4.758  10.041   2.651  0.6112 -0.7722 -0.3862
31656SOL    HW298561   4.638  10.057   2.560  0.1682  1.0380  0.4628
31657SOL     OW98562   1.437   7.259   1.873 -0.3530  0.6811 -0.3138
31657SOL    HW198563   1.456   7.272   1.966 -0.4828  0.7762 -0.3002
31657SOL    HW298564   1.396   7.173   1.869 -2.4941  1.6161  0.0356
31658SOL     OW98565   2.775   5.183   4.799 -0.0739  0.4537 -0.0834
31658SOL    HW198566   2.858   5.142   4.772 -0.8333 -0.3221 -1.3132
31658SOL    HW298567   2.738   5.121   4.862 -0.3874  0.0773 -0.6245
31659SOL     OW98568  10.971   1.107   0.656  0.1652  0.6356  0.1650
31659SOL    HW198569  10.969   1.093   0.751  1.8587 -0.4282  0.0908
31659SOL    HW298570  10.879   1.103   0.629 -0.3853  1.4271  1.8069
31660SOL     OW98571   5.699   8.626   3.871  0.1255  0.6306  0.5513
31660SOL    HW198572   5.631   8.560   3.883  0.3329  0.5342  1.2152
31660SOL    HW298573   5.702   8.640   3.776  1.0570 -1.3497  0.2196
31661SOL     OW98574   9.935   6.423   2.739 -0.1745  0.1009  0.0082
31661SOL    HW198575   9.966   6.348   2.687  1.2644  0.5070  0.2425
31661SOL    HW298576   9.887   6.384   2.812 -0.2487 -0.5530 -0.3825
31662SOL     OW98577   6.915  10.346   3.103 -0.6142 -0.6702 -0.1094
31662SOL    HW198578   6.968  10.283   3.056 -0.0546 -2.0112  2.1860
31662SOL    HW298579   6.837  10.357   3.049 -0.1355 -2.3318 -1.1980
31663SOL     OW98580  10.018   5.787  10.651  0.2196  0.2360 -0.2106
31663SOL    HW198581  10.042   5.822  10.565  1.2900  0.7897  0.2808
31663SOL    HW298582  10.017   5.692  10.639 -0.5802  0.3387 -1.0521
31664SOL     OW98583   3.291   6.854   4.128 -0.7933 -0.0274 -0.2258
31664SOL    HW198584   3.316   6.939   4.091 -0.8561 -0.0202 -0.2526
31664SOL    HW298585   3.299   6.865   4.222 -0.1882 -0.1801 -0.2501
31665SOL     OW98586   0.031   6.551   3.807  0.3864 -0.1688  0.5104
31665SOL    HW198587   0.033   6.458   3.830 -0.4479 -0.6179 -1.0769
31665SOL    HW298588  -0.045   6.585   3.854 -1.6609 -1.2046 -1.8720
31666SOL     OW98589   4.805   3.984   3.484  0.3820  0.4559 -0.3104
31666SOL    HW198590   4.881   4.032   3.450 -0.3925  3.5506  1.9065
31666SOL    HW298591   4.731   4.043   3.470 -1.4444 -1.8775 -1.1043
31667SOL     OW98592   4.301   2.486   0.448 -0.3361  0.0468 -0.3585
31667SOL    HW198593   4.375   2.459   0.393  0.4513  0.4694  0.4687
31667SOL    HW298594   4.234   2.514   0.386  0.2309 -0.2545 -1.1204
31668SOL     OW98595   1.338   3.733   6.605 -0.0701  0.0807  0.2403
31668SOL    HW198596   1.329   3.686   6.688  0.8558 -0.9860 -0.2430
31668SOL    HW298597   1.320   3.668   6.538  0.5110  0.5925 -0.4316
31669SOL     OW98598   7.127  10.407   8.270  0.4725  0.1039  0.3706
31669SOL    HW198599   7.198  10.413   8.334 -0.2880 -0.6907  1.3382
31669SOL    HW298600   7.136  10.486   8.216  3.1740 -0.8601 -0.7466
31670SOL     OW98601  10.335   7.398   8.124  0.0782  0.2123 -0.0997
31670SOL    HW198602  10.420   7.387   8.165  1.1181 -0.7101 -2.3354
31670SOL    HW298603  10.350   7.458   8.051 -0.9300 -0.7640 -1.1608
31671SOL     OW98604   3.555   2.391   9.119 -0.2090 -0.2653  0.5640
31671SOL    HW198605   3.557   2.448   9.196 -0.8954 -0.5537  0.8013
31671SOL    HW298606   3.506   2.314   9.147  0.9445 -1.1095  0.3303
31672SOL     OW98607  10.823   3.617   3.701  0.1533  0.1229  0.2623
31672SOL    HW198608  10.871   3.659   3.630  1.1576 -1.8905 -0.3305
31672SOL    HW298609  10.824   3.681   3.772  2.6388  0.6602 -0.1834
31673SOL     OW98610   6.055   9.803   3.342 -0.4863  0.3725 -0.1074
31673SOL    HW198611   6.009   9.724   3.315 -0.5670 -0.2988  1.8441
31673SOL    HW298612   5.992   9.851   3.395  0.0046  1.0632 -0.1281
31674SOL     OW98613   6.079   0.926   1.305 -0.1302  0.3117 -0.2767
31674SOL    HW198614   6.008   0.916   1.369 -0.6179  0.8010 -0.7307
31674SOL    HW298615   6.123   1.007   1.329 -0.2535  0.4464 -0.5006
31675SOL     OW98616   1.179  10.667   6.380 -0.9902 -0.2994  0.1499
31675SOL    HW198617   1.127  10.617   6.443  0.4955  0.1715  1.8203
31675SOL    HW298618   1.195  10.751   6.422  1.4758 -0.5850 -0.0426
31676SOL     OW98619   7.174   4.890   0.452 -0.1475  0.3342 -0.6510
31676SOL    HW198620   7.224   4.849   0.381  0.3691 -1.8139  0.8781
31676SOL    HW298621   7.086   4.852   0.445  0.1190 -0.4930  0.2984
31677SOL     OW98622   4.747  10.352   2.631 -0.6205 -0.0852  0.1100
31677SOL    HW198623   4.718  10.265   2.602  0.0580 -0.2842  0.0179
31677SOL    HW298624   4.762  10.342   2.725 -0.8674  0.0258  0.1629
31678SOL     OW98625   1.741   3.263   6.926  0.0499 -0.0590  0.3656
31678SOL    HW198626   1.756   3.232   6.837  0.6940  0.3700  0.3212
31678SOL    HW298627   1.721   3.184   6.976  0.3623 -0.3820 -0.0182
31679SOL     OW98628   8.709   0.234   7.880  0.2377  0.2673 -0.0741
31679SOL    HW198629   8.802   0.256   7.882  0.2201  0.4292 -0.7729
31679SOL    HW298630   8.692   0.193   7.965  1.6041 -2.4350 -0.9867
31680SOL     OW98631   3.670   1.683   8.427  0.2057  0.9592  0.1513
31680SOL    HW198632   3.687   1.776   8.440 -1.9332  1.2492  1.2412
31680SOL    HW298633   3.578   1.671   8.452  0.0727 -1.2321 -1.1054
31681SOL     OW98634   7.136  10.973   1.673  0.2912 -0.0598  0.5095
31681SOL    HW198635   7.177  10.891   1.700 -1.5104 -0.5202  2.0690
31681SOL    HW298636   7.169  11.038   1.736 -0.4007 -0.1888  1.0204
31682SOL     OW98637   3.234   5.274   2.065 -0.3664  0.7667 -0.5826
31682SOL    HW198638   3.190   5.295   1.983 -1.3220  0.4841 -0.1572
31682SOL    HW298639   3.185   5.321   2.132  0.5433  1.1778 -0.1869
31683SOL     OW98640  10.734   9.074   1.618 -0.6091  0.3156  0.0403
31683SOL    HW198641  10.748   9.164   1.589 -1.2798 -0.2686 -2.3479
31683SOL    HW298642  10.821   9.042   1.639  0.0354  0.6631 -1.9331
31684SOL     OW98643  10.403   3.437   7.685 -0.0120  0.4294 -0.6328
31684SOL    HW198644  10.460   3.506   7.650 -1.7878  2.5865  0.4629
31684SOL    HW298645  10.445   3.411   7.767  1.0840 -0.4136 -1.4316
31685SOL     OW98646   5.504   0.634   1.513  0.0057  0.2535 -0.4123
31685SOL    HW198647   5.417   0.613   1.547 -0.2111 -1.5120 -1.9081
31685SOL    HW298648   5.557   0.557   1.533  1.2115  1.2141  0.2783
31686SOL     OW98649  10.966   3.594  10.188  0.4746 -0.2604 -0.1422
31686SOL    HW198650  11.055   3.626  10.205  0.5560 -0.6836  0.2609
31686SOL    HW298651  10.969   3.502  10.213 -0.1509 -0.2048  0.1481
31687SOL     OW98652   3.081   7.520   0.632  0.2864  0.8259  0.5310
31687SOL    HW198653   3.151   7.479   0.682  0.6022  0.2740 -0.3445
31687SOL    HW298654   3.006   7.520   0.692  1.1602  1.9540  1.6938
31688SOL     OW98655  11.089   4.065   6.801  0.1189  0.3080 -0.5710
31688SOL    HW198656  11.043   4.057   6.718 -0.6540  0.4817 -0.1742
31688SOL    HW298657  11.052   4.144   6.841 -0.2141 -0.2862  0.3498
31689SOL     OW98658   4.815   4.505   2.999  0.5107 -0.0139  0.0699
31689SOL    HW198659   4.889   4.527   2.943 -0.8112  2.4871 -0.8244
31689SOL    HW298660   4.855   4.478   3.082  2.4197  1.4485 -0.3061
31690SOL     OW98661   8.514   9.085   8.185  0.0245  0.0762  0.0399
31690SOL    HW198662   8.609   9.074   8.182 -0.0863 -1.2461  0.6994
31690SOL    HW298663   8.484   9.019   8.248 -1.3867  0.0857 -0.5816
31691SOL     OW98664   9.100   0.439   2.026 -0.2827  0.1647  0.1436
31691SOL    HW198665   9.087   0.361   1.972 -2.4494  0.0911  0.6729
31691SOL    HW298666   9.177   0.482   1.989 -0.5442 -0.8938 -1.7462
31692SOL     OW98667   5.008   8.509   6.596 -0.9151  0.0302 -0.0995
31692SOL    HW198668   4.939   8.552   6.546 -1.3335 -0.6955 -0.1671
31692SOL    HW298669   4.969   8.426   6.624  0.0160 -0.5159 -0.3728
31693SOL     OW98670   4.779   1.445   2.796  0.5864  0.4241 -0.5840
31693SOL    HW198671   4.791   1.504   2.722  1.7981  0.9735  0.0215
31693SOL    HW298672   4.841   1.476   2.862  0.3848 -0.7819  0.2137
31694SOL     OW98673   4.556   4.642   8.254  0.4223 -0.0613  0.3919
31694SOL    HW198674   4.621   4.626   8.322  0.1570 -0.4857  0.5470
31694SOL    HW298675   4.535   4.735   8.263 -1.5673 -0.6362  2.6652
31695SOL     OW98676   7.110   4.955   2.609  0.0368 -0.0463  0.3496
31695SOL    HW198677   7.114   4.890   2.539  0.9301 -0.3751  0.6882
31695SOL    HW298678   7.183   5.014   2.592 -1.4271  1.5719 -0.5963
31696SOL     OW98679   6.893   6.910   0.717 -0.2640  0.2043  0.2689
31696SOL    HW198680   6.945   6.830   0.724  0.4644  0.6768  0.4530
31696SOL    HW298681   6.815   6.885   0.668  1.0275 -0.1267 -1.7521
31697SOL     OW98682   5.721   7.652   3.234 -0.4256 -0.0620  0.1965
31697SOL    HW198683   5.810   7.683   3.249  0.1315 -1.0353 -0.9371
31697SOL    HW298684   5.671   7.687   3.308  0.2370  3.0845 -0.6687
31698SOL     OW98685   0.627   0.983   1.194 -0.4104 -0.3973 -0.4121
31698SOL    HW198686   0.579   1.033   1.128 -2.9737  0.5413  1.9305
31698SOL    HW298687   0.628   1.040   1.271  1.6667 -1.7632  0.6792
31699SOL     OW98688  10.306   4.471   9.325 -0.1642  0.2906  0.2369
31699SOL    HW198689  10.317   4.566   9.330 -1.5549  0.5663 -1.1071
31699SOL    HW298690  10.236   4.452   9.388  1.7191 -0.2265  2.2828
31700SOL     OW98691   6.332   3.948   7.130 -0.0281  0.1181  0.2585
31700SOL    HW198692   6.343   4.043   7.129  0.4440  0.0940  1.2298
31700SOL    HW298693   6.271   3.932   7.203  0.0578 -0.3352  0.2342
31701SOL     OW98694   3.242   8.665   4.376  0.3343 -0.4350  0.5720
31701SOL    HW198695   3.241   8.752   4.415  0.9529 -0.1572 -0.0075
31701SOL    HW298696   3.155   8.656   4.336  0.6089  0.3421 -0.2413
31702SOL     OW98697   5.529   0.160  10.227  0.4664 -0.4055  0.7155
31702SOL    HW198698   5.492   0.166  10.138  1.9099 -1.5810 -0.0095
31702SOL    HW298699   5.490   0.080  10.263 -0.1201  0.0731  1.1716
31703SOL     OW98700  11.046   7.426   2.023 -0.0958  0.2209  0.0512
31703SOL    HW198701  10.969   7.385   1.983 -0.5304  0.8913  0.1857
31703SOL    HW298702  11.014   7.461   2.105  0.4031  0.3534  0.1908
31704SOL     OW98703   1.079   8.829   0.232 -0.0117 -0.0932  0.1749
31704SOL    HW198704   1.164   8.784   0.230  0.1540  0.2327 -0.1290
31704SOL    HW298705   1.101   8.921   0.217 -0.2919  0.1698  1.3057
31705SOL     OW98706   0.472   8.655   8.469  0.0756 -0.0244 -0.3263
31705SOL    HW198707   0.415   8.633   8.542  1.2100  0.1559  0.6486
31705SOL    HW298708   0.444   8.597   8.398 -0.5887 -0.6977  0.4673
31706SOL     OW98709   2.285  10.854   1.778  0.3472  0.3976 -0.6506
31706SOL    HW198710   2.362  10.808   1.746  1.8946  2.5200 -0.1688
31706SOL    HW298711   2.318  10.912   1.847 -2.2129 -1.1281  2.1292
31707SOL     OW98712   7.883   8.807   7.403 -0.0163  0.3238 -0.5290
31707SOL    HW198713   7.836   8.819   7.485  1.0562  1.8923 -0.1042
31707SOL    HW298714   7.878   8.892   7.359 -0.4711 -0.4571 -2.0536
31708SOL     OW98715   3.487   6.190   4.302 -0.7450 -0.0288 -0.3755
31708SOL    HW198716   3.519   6.144   4.224  1.0972  0.0285  0.2930
31708SOL    HW298717   3.526   6.277   4.296 -0.4788 -0.0649  0.6467
31709SOL     OW98718   7.496   8.712   3.905  0.1578 -0.2489 -0.0212
31709SOL    HW198719   7.566   8.775   3.892  0.7556 -0.0655  3.1888
31709SOL    HW298720   7.505   8.650   3.832  2.0667  1.1408 -1.0411
31710SOL     OW98721   5.675   4.919   0.844 -0.1127  0.5709  0.1249
31710SOL    HW198722   5.647   4.872   0.766 -0.7442  2.1593 -0.6566
31710SOL    HW298723   5.709   5.002   0.811 -3.8710  3.0076  1.5865
31711SOL     OW98724   1.148   7.017   8.783  0.2131  0.2308  1.0462
31711SOL    HW198725   1.081   7.074   8.746  1.3573  0.3749 -0.9218
31711SOL    HW298726   1.121   7.004   8.874 -3.0849 -0.6186  0.0836
31712SOL     OW98727   3.278   5.182   5.774 -0.1613  0.8266 -0.1671
31712SOL    HW198728   3.235   5.252   5.725 -1.7585 -0.6293 -0.9209
31712SOL    HW298729   3.206   5.127   5.806  0.9990  0.0792  1.3080
31713SOL     OW98730   6.390   1.176   4.674 -0.3068  0.2946  0.0581
31713SOL    HW198731   6.373   1.270   4.666  0.9675  0.3894 -2.3978
31713SOL    HW298732   6.482   1.171   4.701 -0.6122 -0.2787  1.0460
31714SOL     OW98733   8.505   0.607   1.936 -0.2288  0.2198  0.1629
31714SOL    HW198734   8.498   0.648   2.023  0.5064 -0.1220  0.3977
31714SOL    HW298735   8.555   0.669   1.884  0.4336 -0.1308  0.3660
31715SOL     OW98736   4.570   2.906   3.600 -0.8376 -0.2041 -0.3051
31715SOL    HW198737   4.648   2.961   3.597 -0.6843 -0.3736  0.4339
31715SOL    HW298738   4.509   2.952   3.658 -1.2339 -0.1408 -0.7670
31716SOL     OW98739   3.467  10.713   7.353 -0.2739 -0.1299  0.2415
31716SOL    HW198740   3.388  10.691   7.304  0.0589 -0.1126 -0.3088
31716SOL    HW298741   3.498  10.794   7.314 -0.9001  0.7714  1.5581
31717SOL     OW98742   4.806   0.531   9.498 -0.1235  0.4471 -0.5934
31717SOL    HW198743   4.868   0.592   9.457  0.4490 -0.8452 -1.7471
31717SOL    HW298744   4.738   0.517   9.432 -0.5631  0.2951 -0.1173
31718SOL     OW98745   1.526   9.841   4.868 -0.2148 -0.3554 -0.1162
31718SOL    HW198746   1.602   9.794   4.903 -0.3086 -0.1560  0.3671
31718SOL    HW298747   1.487   9.780   4.804  0.4611 -0.3765 -0.5084
31719SOL     OW98748   5.832   8.278  10.071 -0.4970  0.1587 -0.1761
31719SOL    HW198749   5.800   8.359  10.031 -1.0220 -0.7320 -1.6019
31719SOL    HW298750   5.897   8.245  10.009  3.9863  2.2589  2.8676
31720SOL     OW98751   3.037   9.525   2.564 -0.7147  0.6522 -0.2214
31720SOL    HW198752   2.964   9.580   2.536 -0.7964  0.4977 -0.3137
31720SOL    HW298753   3.026   9.516   2.658  0.1463  2.0426  0.0565
31721SOL     OW98754   8.434   7.225   8.769 -0.4327 -0.6062  0.7359
31721SOL    HW198755   8.377   7.297   8.741  1.6347  0.9704  0.3040
31721SOL    HW298756   8.463   7.249   8.857  1.9207  0.2891 -0.1828
31722SOL     OW98757   9.511   6.262   5.177 -0.1722 -0.2395  0.2009
31722SOL    HW198758   9.557   6.199   5.122 -2.6629  0.4565 -3.0733
31722SOL    HW298759   9.483   6.212   5.253 -1.0645 -2.8915 -1.7099
31723SOL     OW98760   9.424   6.471   0.167  0.1886  0.6752 -0.0809
31723SOL    HW198761   9.487   6.540   0.149 -0.2403  0.8007 -1.1654
31723SOL    HW298762   9.345   6.497   0.120 -0.3632  0.0433  0.4721
31724SOL     OW98763   7.614   0.150   3.048  0.2406  0.3254 -0.0946
31724SOL    HW198764   7.669   0.184   3.118  0.5958 -0.6588  0.1180
31724SOL    HW298765   7.560   0.224   3.021 -2.4802 -0.0374  3.5865
31725SOL     OW98766   7.298   2.643   6.962  0.0760  0.4854  0.1563
31725SOL    HW198767   7.225   2.685   7.007 -1.2990 -0.1933 -1.3255
31725SOL    HW298768   7.365   2.633   7.028 -0.7621  2.1219  1.3155
31726SOL     OW98769   0.742   3.357   3.831 -0.4653  0.0337 -0.4186
31726SOL    HW198770   0.793   3.285   3.793 -1.0777 -0.5050 -0.2480
31726SOL    HW298771   0.766   3.357   3.923  2.0492  2.2139 -0.9723
31727SOL     OW98772   2.536   6.965   6.966  0.1564 -0.1553 -0.3428
31727SOL    HW198773   2.452   7.009   6.949  0.6650  0.0422 -2.6875
31727SOL    HW298774   2.511   6.880   7.003 -1.1252 -0.1871 -1.2103
31728SOL     OW98775   3.559  10.578   0.970  0.1674  0.0309 -0.0370
31728SOL    HW198776   3.560  10.621   0.885 -0.2089  0.0804 -0.0182
31728SOL    HW298777   3.640  10.608   1.013  0.9418 -0.9022 -0.8121
31729SOL     OW98778   7.606  10.765   5.382 -0.2053 -0.0831 -0.1629
31729SOL    HW198779   7.648  10.679   5.387 -1.1463 -0.5460 -0.0390
31729SOL    HW298780   7.631  10.808   5.464  2.0795  0.6418 -1.1746
31730SOL     OW98781   2.830   1.001   2.586  0.2615  0.1692 -0.7533
31730SOL    HW198782   2.831   1.097   2.591  0.1926  0.1652 -0.6731
31730SOL    HW298783   2.738   0.977   2.595  0.1748  0.1418 -1.5911
31731SOL     OW98784   0.721  10.068   1.789 -0.0361  0.3310 -0.3649
31731SOL    HW198785   0.782  10.138   1.812  0.4431 -0.0974 -0.3279
31731SOL    HW298786   0.764   9.988   1.817 -1.4484  0.1442  1.5097
31732SOL     OW98787   3.982   2.123  10.084  0.2241  0.1326 -0.6338
31732SOL    HW198788   3.935   2.139  10.166  1.8829 -0.2199  0.4340
31732SOL    HW298789   4.007   2.030  10.088  2.2128  0.6313 -0.4657
31733SOL     OW98790   4.041  10.684  11.110 -0.4713 -0.0619  0.1594
31733SOL    HW198791   3.970  10.716  11.165 -0.2111  0.8224  0.0002
31733SOL    HW298792   4.120  10.723  11.147  0.0788 -1.9068  0.9876
31734SOL     OW98793   7.728   8.233   5.356  0.5058  0.9284 -0.5125
31734SOL    HW198794   7.806   8.280   5.385 -0.0088  0.7868  1.1796
31734SOL    HW298795   7.727   8.153   5.409  0.6494 -0.4043 -2.4055
31735SOL     OW98796   3.783   1.388   2.524  0.2098 -0.0613 -0.5333
31735SOL    HW198797   3.688   1.390   2.509 -0.2406  1.0624  1.9575
31735SOL    HW298798   3.800   1.465   2.577  2.3474 -0.9061  0.0971
31736SOL     OW98799   7.994   7.337   1.963 -0.1654  0.1030 -0.1614
31736SOL    HW198800   7.965   7.420   2.002  1.5043 -0.2189  1.9234
31736SOL    HW298801   7.998   7.276   2.037  0.5303 -1.3059 -1.3234
31737SOL     OW98802   7.576   9.910   4.236  0.4710 -0.1861 -0.2710
31737SOL    HW198803   7.486   9.884   4.214  0.8514  0.6183 -3.2655
31737SOL    HW298804   7.594   9.865   4.318 -2.0769 -1.7701 -0.4502
31738SOL     OW98805   1.388   0.922   3.346  0.0744  0.1363 -0.1540
31738SOL    HW198806   1.315   0.931   3.286  0.0216 -0.2240 -0.1451
31738SOL    HW298807   1.463   0.959   3.299 -0.5482  2.7051  0.7275
31739SOL     OW98808   2.061   2.178   7.871  0.0159  0.1375 -0.1756
31739SOL    HW198809   1.986   2.225   7.907  0.6889  0.2927  1.0955
31739SOL    HW298810   2.108   2.244   7.819  0.1358  0.4758  0.3545
31740SOL     OW98811   4.123   8.306   9.160 -0.4896 -0.2779 -1.0422
31740SOL    HW198812   4.119   8.308   9.256 -0.2918 -0.1366 -1.0364
31740SOL    HW298813   4.032   8.290   9.133 -0.4478 -0.9104 -0.8172
31741SOL     OW98814   2.774   9.422   8.547  0.1327  0.7755 -0.3318
31741SOL    HW198815   2.762   9.434   8.641 -1.2929  0.8680 -0.4913
31741SOL    HW298816   2.759   9.509   8.510  0.2130  0.6452 -0.6704
31742SOL     OW98817   4.053   9.749   4.141  1.1825 -0.0176 -0.4153
31742SOL    HW198818   4.018   9.718   4.224  0.1388  0.1138 -0.7884
31742SOL    HW298819   4.100   9.830   4.163 -1.7820  1.8164 -0.3324
31743SOL     OW98820   8.331   3.919   1.714  0.1939 -0.2197 -0.2044
31743SOL    HW198821   8.252   3.939   1.664  0.2023 -2.3688 -1.1701
31743SOL    HW298822   8.299   3.889   1.799  0.1516  2.4926  0.8246
31744SOL     OW98823   5.826   0.776   6.519 -0.1687  0.1002 -0.0201
31744SOL    HW198824   5.755   0.729   6.475 -1.0486  0.7198  0.6989
31744SOL    HW298825   5.852   0.719   6.591 -1.5665  0.8692  1.1494
31745SOL     OW98826   4.259   1.695   4.463 -0.0946  0.6361 -0.2302
31745SOL    HW198827   4.213   1.611   4.455 -0.3024  0.5939  1.1213
31745SOL    HW298828   4.205   1.745   4.525  2.1940  0.1920  2.2758
31746SOL     OW98829   6.052   0.500   7.412  0.3475  0.2486  0.3714
31746SOL    HW198830   5.957   0.496   7.410  0.3122  0.3382  1.3413
31746SOL    HW298831   6.079   0.424   7.464  0.7302  0.9049  1.1563
31747SOL     OW98832   6.072   8.990   4.417 -0.5533 -0.5219  0.3655
31747SOL    HW198833   6.081   9.077   4.455 -1.9463  0.0543 -0.5674
31747SOL    HW298834   6.160   8.969   4.386 -0.6148  1.5809 -1.5087
31748SOL     OW98835   5.418  10.262   0.401  0.0452 -0.2644 -0.2260
31748SOL    HW198836   5.383  10.281   0.487  0.6374 -0.5864  0.0929
31748SOL    HW298837   5.511  10.244   0.416  0.2838  0.2467 -1.0026
31749SOL     OW98838  11.072   2.708   3.609  0.3662  0.2327 -0.0880
31749SOL    HW198839  11.148   2.664   3.647 -0.2820  0.7068  1.8651
31749SOL    HW298840  11.007   2.638   3.595 -0.5404  0.4140  2.7017
31750SOL     OW98841   3.449   4.212   7.007 -0.3997 -0.1600 -0.6412
31750SOL    HW198842   3.402   4.130   7.025  0.8988 -1.1616 -1.6499
31750SOL    HW298843   3.445   4.261   7.089 -0.6234 -1.5220  0.1787
31751SOL     OW98844   8.326   4.813   8.367  0.5246 -0.3826  0.0284
31751SOL    HW198845   8.295   4.745   8.307  2.1424  0.3424 -1.6990
31751SOL    HW298846   8.245   4.849   8.404 -0.4502 -1.9781 -0.3915
31752SOL     OW98847   5.181  10.338   2.302 -0.4260 -0.1528 -0.4363
31752SOL    HW198848   5.104  10.323   2.357 -1.0369 -2.0927 -1.7086
31752SOL    HW298849   5.154  10.405   2.240 -1.0243 -0.6442 -0.7154
31753SOL     OW98850   4.774   6.332   2.569 -0.1325 -0.6660  0.2336
31753SOL    HW198851   4.838   6.392   2.532  1.0392 -2.6131 -1.0919
31753SOL    HW298852   4.707   6.324   2.502 -0.8277 -0.0651  0.8437
31754SOL     OW98853   4.596   7.751   5.858 -0.6756 -0.1281 -1.1493
31754SOL    HW198854   4.643   7.829   5.827  0.1115  0.5758  1.5098
31754SOL    HW298855   4.519   7.787   5.902 -0.7896 -0.9307 -0.6883
31755SOL     OW98856   0.816   3.623   4.880  0.1048 -0.3957  0.6889
31755SOL    HW198857   0.781   3.583   4.960  0.2517  1.6236  1.8194
31755SOL    HW298858   0.888   3.565   4.855  0.0906 -1.0603  2.0593
31756SOL     OW98859   9.905   8.893   4.489 -0.0022 -0.0735 -0.4213
31756SOL    HW198860   9.997   8.876   4.511 -0.4397 -2.0752  0.0778
31756SOL    HW298861   9.906   8.979   4.447  1.6723  1.3098  2.1692
31757SOL     OW98862   2.319   0.639   1.256 -0.7611  0.0737  0.1587
31757SOL    HW198863   2.349   0.730   1.254  0.1371 -0.2065  0.1023
31757SOL    HW298864   2.337   0.606   1.168 -1.2736 -0.1029  0.1169
31758SOL     OW98865   9.052   4.299   3.517  0.0779  0.9586 -0.5770
31758SOL    HW198866   9.016   4.328   3.433 -0.8582  0.4036 -0.3828
31758SOL    HW298867   9.047   4.376   3.573  0.3245  1.2186 -0.9091
31759SOL     OW98868   2.730   8.327   8.983  0.1449 -0.2397 -0.0565
31759SOL    HW198869   2.654   8.337   9.040  0.3767  0.8882  0.0717
31759SOL    HW298870   2.721   8.397   8.918 -0.4495 -1.8700 -1.8404
31760SOL     OW98871   4.301   1.104   2.577 -0.0710  0.0801 -0.5425
31760SOL    HW198872   4.368   1.036   2.581  0.0994  0.2206 -1.0146
31760SOL    HW298873   4.291   1.134   2.668  0.0630 -0.3675 -0.3813
31761SOL     OW98874   7.349   1.075   3.221 -0.7043  0.3362  0.6270
31761SOL    HW198875   7.276   1.100   3.166 -0.5414 -0.3121  0.1070
31761SOL    HW298876   7.410   1.032   3.162 -2.0587 -3.6254  1.7991
31762SOL     OW98877   8.003   1.364   6.494  0.0066 -0.1462  0.7320
31762SOL    HW198878   8.091   1.388   6.464 -0.0392  0.0624  0.7636
31762SOL    HW298879   7.976   1.437   6.550 -1.6210  1.6050 -2.0989
31763SOL     OW98880   3.693  10.824   5.866 -0.4266  0.7510  0.4162
31763SOL    HW198881   3.599  10.838   5.857 -0.7504 -0.7735  1.1070
31763SOL    HW298882   3.713  10.753   5.805 -0.3116 -0.9233  2.2774
31764SOL     OW98883   6.837   0.892   2.292 -0.3623 -0.1591  0.3919
31764SOL    HW198884   6.819   0.822   2.229 -0.1850 -1.8049  2.0816
31764SOL    HW298885   6.931   0.906   2.286 -0.7907  2.5464 -2.4684
31765SOL     OW98886   9.203   6.589   9.800  0.2420  0.2222  0.4014
31765SOL    HW198887   9.242   6.513   9.756  1.1764  0.8333  0.1351
31765SOL    HW298888   9.219   6.573   9.893  0.8842  0.3096  0.3171
31766SOL     OW98889   4.179  10.203   7.722  0.0521  0.4364 -0.1959
31766SOL    HW198890   4.134  10.251   7.790 -1.1366  0.7141 -1.1354
31766SOL    HW298891   4.271  10.228   7.730 -0.0559  0.4272  1.2933
31767SOL     OW98892  10.361   4.185   9.294 -0.0672  0.1302  0.1330
31767SOL    HW198893  10.268   4.169   9.279  0.1260 -1.6057  0.5103
31767SOL    HW298894  10.370   4.280   9.295 -2.2456  0.4121  2.4943
31768SOL     OW98895   9.015   2.126   2.787 -0.1045 -0.2921 -0.1526
31768SOL    HW198896   9.086   2.067   2.812  1.0219  2.0949  2.9757
31768SOL    HW298897   8.948   2.069   2.750  2.2529 -3.0200 -0.5945
31769SOL     OW98898   7.776   7.703   1.390  0.2975  0.1385  0.0975
31769SOL    HW198899   7.822   7.766   1.445  0.4519 -0.0376  0.1730
31769SOL    HW298900   7.782   7.620   1.438  2.7743 -0.6606 -1.3516
31770SOL     OW98901   3.763   7.438   3.436  0.1508 -0.4171  0.0465
31770SOL    HW198902   3.720   7.437   3.350 -1.7723 -0.9412  0.9816
31770SOL    HW298903   3.829   7.369   3.430 -1.0273 -1.5445 -0.5245
31771SOL     OW98904   5.749   5.121   7.568  0.2775 -0.0228 -0.5416
31771SOL    HW198905   5.839   5.128   7.600 -0.6131  0.8117  1.9716
31771SOL    HW298906   5.696   5.168   7.632 -2.1225 -1.5547 -1.2559
31772SOL     OW98907   0.513   0.228   7.700 -0.1571  0.5330  0.1913
31772SOL    HW198908   0.550   0.149   7.661  0.8814  0.1860  1.7996
31772SOL    HW298909   0.551   0.232   7.788 -3.4063  0.5142  1.7468
31773SOL     OW98910   5.870  10.626   9.865  0.3605  0.2082 -0.5974
31773SOL    HW198911   5.892  10.667   9.781  1.1916  1.8855  0.3879
31773SOL    HW298912   5.902  10.687   9.931 -0.3496 -1.0262  0.9669
31774SOL     OW98913   4.522   6.279   1.318  0.0019  0.2950 -0.0097
31774SOL    HW198914   4.585   6.223   1.365  0.2544  0.5416 -0.0508
31774SOL    HW298915   4.465   6.313   1.387 -1.2923 -1.4147 -0.1620
31775SOL     OW98916   7.693   1.768   4.143 -0.5019 -0.2348 -0.0617
31775SOL    HW198917   7.736   1.823   4.078  2.1015  0.9052  2.3837
31775SOL    HW298918   7.728   1.680   4.126  0.5073  0.1335  0.0155
31776SOL     OW98919   8.791  11.053   8.418 -0.3381 -0.0785  0.3007
31776SOL    HW198920   8.799  11.033   8.325 -0.6685 -0.5450  0.3666
31776SOL    HW298921   8.752  11.141   8.420  0.5910  0.3456  0.0062
31777SOL     OW98922   7.207   6.754   2.899  0.2953 -0.0870  0.1434
31777SOL    HW198923   7.278   6.694   2.877  0.2014  0.3048 -1.2949
31777SOL    HW298924   7.245   6.814   2.963  0.9976 -0.4025  0.0257
31778SOL     OW98925   1.097   8.825   1.666 -0.0561  0.2686  0.4946
31778SOL    HW198926   1.069   8.901   1.614 -0.7582 -1.3816 -1.7036
31778SOL    HW298927   1.188   8.844   1.689 -0.1560  1.6736 -0.1603
31779SOL     OW98928   2.221   4.157   8.690 -0.4983 -0.0106  0.0704
31779SOL    HW198929   2.160   4.199   8.751 -0.4438  0.7792 -0.4100
31779SOL    HW298930   2.289   4.223   8.675  0.9826 -1.1543  1.2743
31780SOL     OW98931   1.957   0.351   5.117  0.5469  0.5410  0.3838
31780SOL    HW198932   1.889   0.376   5.054  1.6242  1.5840 -0.4223
31780SOL    HW298933   1.920   0.373   5.202 -0.2446  0.8269 -0.0245
31781SOL     OW98934   8.341   2.365   9.132 -0.0054 -0.2201  0.4356
31781SOL    HW198935   8.384   2.382   9.048 -0.8339 -1.3297 -0.2485
31781SOL    HW298936   8.301   2.449   9.156 -0.6525 -0.1302 -0.8331
31782SOL     OW98937   3.973  10.546   3.427  0.1183  0.1986  0.1154
31782SOL    HW198938   4.064  10.532   3.453  0.2539  0.4800 -0.1913
31782SOL    HW298939   3.979  10.578   3.336 -0.2113  1.4024  0.4988
31783SOL     OW98940   1.657   2.221   5.708  0.0521  0.2669 -0.1516
31783SOL    HW198941   1.600   2.207   5.783  0.2869 -1.7897 -0.2987
31783SOL    HW298942   1.698   2.306   5.724 -0.5185  0.2490  1.6149
31784SOL     OW98943   3.845   5.348   8.645 -0.5730 -0.0064  0.5645
31784SOL    HW198944   3.911   5.407   8.681  0.4075  0.1667 -1.3621
31784SOL    HW298945   3.895   5.276   8.608 -1.4663 -0.0486 -0.6343
31785SOL     OW98946   3.911  10.431   4.321  0.6143  0.1120 -1.0824
31785SOL    HW198947   3.995  10.471   4.343  0.0814  0.1108  1.2198
31785SOL    HW298948   3.918  10.341   4.355 -0.4983  0.2978 -0.3008
31786SOL     OW98949   4.254   0.846   3.351 -0.3553 -0.7868  0.1613
31786SOL    HW198950   4.248   0.777   3.285 -1.7801 -0.8684  0.3329
31786SOL    HW298951   4.295   0.804   3.427 -1.6156 -1.5998  0.4244
31787SOL     OW98952   4.087   6.390   7.649  0.0009 -0.5696  0.2595
31787SOL    HW198953   4.150   6.353   7.587  0.5315  0.0633  0.4051
31787SOL    HW298954   4.141   6.434   7.714 -0.5829 -0.4519  0.6685
31788SOL     OW98955   0.000   9.987   8.965  0.3752 -0.1344  0.0602
31788SOL    HW198956   0.077   9.972   9.021  0.9496  0.0480 -0.6589
31788SOL    HW298957  -0.075   9.974   9.023  0.9548 -0.0121  0.8568
31789SOL     OW98958   2.919   9.579   4.840  0.8221 -0.0716  0.2383
31789SOL    HW198959   2.958   9.651   4.792  1.2620  0.3164  1.1561
31789SOL    HW298960   2.825   9.590   4.827  0.9685 -0.7723 -1.6398
31790SOL     OW98961   0.403   7.486   4.464  0.3754 -0.1207 -0.2306
31790SOL    HW198962   0.421   7.502   4.557 -0.3148 -1.8630  0.2479
31790SOL    HW298963   0.421   7.392   4.453 -0.3491 -0.1083 -1.6609
31791SOL     OW98964   0.094  10.698   0.051  0.0934 -0.0133  0.2766
31791SOL    HW198965   0.082  10.700   0.146  0.5989 -1.6230  0.4077
31791SOL    HW298966   0.138  10.780   0.031  0.1654  0.2608  1.4769
31792SOL     OW98967   6.587   3.440   0.509  0.3090  0.0091 -0.0843
31792SOL    HW198968   6.645   3.440   0.585 -0.0193 -0.0614  0.1675
31792SOL    HW298969   6.534   3.519   0.519 -0.1338 -0.3030  0.0696
31793SOL     OW98970   4.891   5.412   6.946 -0.6152 -0.9522 -0.2451
31793SOL    HW198971   4.838   5.486   6.915  0.4107 -0.4610 -0.8908
31793SOL    HW298972   4.955   5.398   6.876 -0.3502 -2.0002  0.1948
31794SOL     OW98973   9.622   9.263   6.486  0.1732 -0.3781 -0.7778
31794SOL    HW198974   9.613   9.265   6.581 -0.3157 -0.6789 -0.8132
31794SOL    HW298975   9.639   9.353   6.461  0.4105 -0.3156 -0.3948
31795SOL     OW98976   7.089   4.675   8.332  0.7634 -0.2396 -1.1332
31795SOL    HW198977   7.150   4.706   8.400  1.3248  0.2006 -1.8186
31795SOL    HW298978   7.035   4.611   8.376  1.2861 -0.1438 -0.3242
31796SOL     OW98979   5.970   1.120   6.723 -0.2355 -0.1463  0.2137
31796SOL    HW198980   6.056   1.104   6.684 -0.3323 -1.3179  0.4292
31796SOL    HW298981   5.965   1.215   6.733  0.6716  0.0015 -0.6121
31797SOL     OW98982   8.916  10.458   3.971 -0.8185 -0.3857  0.5960
31797SOL    HW198983   8.821  10.460   3.955 -0.8923 -0.4750  1.0104
31797SOL    HW298984   8.925  10.417   4.057 -0.3800 -0.7311  0.3894
31798SOL     OW98985   5.709   3.663   2.602  0.5196 -0.1033 -0.4850
31798SOL    HW198986   5.653   3.701   2.535 -1.0235 -0.1287  0.7470
31798SOL    HW298987   5.728   3.735   2.662 -1.6259 -0.9324  1.3284
31799SOL     OW98988   2.863   2.917   4.057  0.5993  0.4267 -0.7214
31799SOL    HW198989   2.817   2.989   4.016  0.5491  1.8978  1.7030
31799SOL    HW298990   2.911   2.957   4.130  4.6323 -1.2118 -2.1686
31800SOL     OW98991  10.509   2.833  10.639 -0.0725  0.5133  0.0753
31800SOL    HW198992  10.487   2.781  10.562 -0.2109 -0.0968  0.5121
31800SOL    HW298993  10.424   2.862  10.673 -0.0222  0.6463  0.0861
31801SOL     OW98994   4.265   3.573  10.705 -0.2080 -0.1506 -0.0261
31801SOL    HW198995   4.267   3.630  10.627  1.2475 -2.4764 -1.8366
31801SOL    HW298996   4.172   3.568  10.729 -0.6224  1.1145 -1.2316
31802SOL     OW98997   8.528   3.771   1.370 -0.0457  0.1959 -0.6900
31802SOL    HW198998   8.570   3.829   1.434 -0.3407  0.9031 -1.1286
31802SOL    HW298999   8.583   3.693   1.369 -0.0665  0.1473  0.4662
31803SOL     OW99000   1.227   9.947   4.421 -0.2189 -0.4943  0.0464
31803SOL    HW199001   1.322   9.959   4.408 -0.7148  1.2790 -2.7612
31803SOL    HW299002   1.203  10.016   4.483  0.0277  0.6390 -1.0625
31804SOL     OW99003   2.835   8.729   3.844  0.0052 -0.4070  0.5080
31804SOL    HW199004   2.806   8.747   3.933 -1.9827  2.4346 -0.5289
31804SOL    HW299005   2.754   8.706   3.797  0.1812  2.1482 -1.2994
31805SOL     OW99006   0.848   5.507   0.397  0.3091 -0.2123  0.6500
31805SOL    HW199007   0.812   5.418   0.400  0.1119 -0.2250 -1.0972
31805SOL    HW299008   0.776   5.562   0.426  0.0039 -0.5327  0.5196
31806SOL     OW99009  10.690   1.631   4.400 -0.6034 -0.1720 -0.3082
31806SOL    HW199010  10.684   1.579   4.320 -0.1824  0.5677 -0.8469
31806SOL    HW299011  10.730   1.573   4.464  0.3468 -0.3478 -1.0438
31807SOL     OW99012   5.704   7.468   7.309  0.0141 -0.1267  0.4986
31807SOL    HW199013   5.682   7.499   7.396  0.1998 -0.1058  0.5394
31807SOL    HW299014   5.620   7.452   7.266 -0.1065  1.3659  0.1320
31808SOL     OW99015   7.521   9.349   9.188  0.4107  0.5372  0.0516
31808SOL    HW199016   7.544   9.443   9.187  0.4181  0.5887 -2.7524
31808SOL    HW299017   7.435   9.346   9.230 -1.1220  2.3086 -2.6307
31809SOL     OW99018   9.172   4.853   2.725  0.1484 -0.3926  0.3369
31809SOL    HW199019   9.184   4.779   2.665 -0.1355 -1.4123  1.5030
31809SOL    HW299020   9.253   4.856   2.776  0.5031  0.6455 -0.2470
31810SOL     OW99021   6.420   2.002   3.310 -0.4103 -0.0671 -0.5673
31810SOL    HW199022   6.344   2.020   3.254 -2.4634 -1.2607  1.6407
31810SOL    HW299023   6.417   2.071   3.376  0.5334 -0.0545 -0.5289
31811SOL     OW99024   4.403   3.986   5.408 -0.2401 -0.3096 -0.3583
31811SOL    HW199025   4.447   3.980   5.323  0.1467  0.9883 -0.2740
31811SOL    HW299026   4.393   3.896   5.437  2.8843 -0.6841 -0.1167
31812SOL     OW99027   4.605   5.456   9.415 -0.5804  0.0794 -0.0201
31812SOL    HW199028   4.573   5.511   9.487 -6.6525 -0.4339 -1.8029
31812SOL    HW299029   4.565   5.494   9.337 -0.2454 -3.4746 -2.1206
31813SOL     OW99030   6.013   6.991   1.660  0.0924 -0.1174  0.2633
31813SOL    HW199031   5.963   7.003   1.740 -1.9427  0.8101 -1.0921
31813SOL    HW299032   6.097   7.033   1.678 -0.8751  1.4280  1.3851
31814SOL     OW99033  10.851   8.220   7.090  0.0054 -0.2990  0.0035
31814SOL    HW199034  10.831   8.155   7.022 -0.1376 -0.1463 -0.1029
31814SOL    HW299035  10.765   8.245   7.124  0.0650 -0.2057  0.0824
31815SOL     OW99036   1.511   8.800   3.079 -0.4407 -0.4873 -0.3206
31815SOL    HW199037   1.479   8.739   3.145 -1.5901 -0.2711 -0.6445
31815SOL    HW299038   1.589   8.840   3.118 -0.8686 -0.6534  0.7427
31816SOL     OW99039   2.303   5.189   3.972  0.4103 -0.1969  0.5419
31816SOL    HW199040   2.273   5.099   3.954 -0.0311 -0.0862  0.6967
31816SOL    HW299041   2.398   5.183   3.971  0.3888 -0.5603  0.0086
31817SOL     OW99042   9.694  10.189   0.505  0.3642  0.2126 -0.1542
31817SOL    HW199043   9.669  10.171   0.595  0.3304  0.1497 -0.1764
31817SOL    HW299044   9.748  10.114   0.479  0.4021  0.2469 -0.1748
31818SOL     OW99045   2.268   7.702   1.192  0.2653  0.7214 -0.0738
31818SOL    HW199046   2.199   7.758   1.156  0.6488  1.3589  0.1663
31818SOL    HW299047   2.235   7.613   1.180 -1.0012  1.0382  0.8298
31819SOL     OW99048   2.180   8.253   2.973  0.2623  0.5318  0.2433
31819SOL    HW199049   2.220   8.331   3.013  1.6917 -0.3110  0.5207
31819SOL    HW299050   2.105   8.233   3.028  1.3047  0.3013  1.6212
31820SOL     OW99051   8.430   6.956   0.821  0.0502 -0.3160  0.2095
31820SOL    HW199052   8.432   7.026   0.887  0.1004 -0.0272 -0.0948
31820SOL    HW299053   8.420   7.002   0.738 -1.2480 -0.7445  0.1080
31821SOL     OW99054   4.844   1.218   4.103 -0.4172 -0.3374 -0.1855
31821SOL    HW199055   4.832   1.261   4.018  2.2497 -0.2914 -0.6459
31821SOL    HW299056   4.892   1.138   4.083  1.7731  0.4858  1.3382
31822SOL     OW99057  10.349   0.677   7.049  0.2165  0.6348  0.2809
31822SOL    HW199058  10.285   0.744   7.074 -0.8908 -0.2629 -0.0368
31822SOL    HW299059  10.296   0.599   7.032  1.4525 -0.2630  0.4202
31823SOL     OW99060   2.789   4.627   1.249  0.0635 -1.1568 -0.8905
31823SOL    HW199061   2.703   4.640   1.289  0.3021 -0.8045 -0.4796
31823SOL    HW299062   2.773   4.629   1.155 -0.3663 -1.0280 -0.8145
31824SOL     OW99063   3.416   1.106   7.430 -0.2885  0.5542  0.1426
31824SOL    HW199064   3.349   1.090   7.363  0.6396  0.0054 -0.6692
31824SOL    HW299065   3.498   1.108   7.382  0.4203 -0.0787  1.2950
31825SOL     OW99066   1.065   1.900   9.880 -0.0223 -0.1432  0.3704
31825SOL    HW199067   1.044   1.889   9.973  1.8231 -0.7341  0.7755
31825SOL    HW299068   1.153   1.863   9.871  0.0982  0.4690 -1.4982
31826SOL     OW99069   4.226   4.971   9.708 -0.5581 -0.2437 -0.6598
31826SOL    HW199070   4.276   5.044   9.672 -1.9942  1.0413 -0.1711
31826SOL    HW299071   4.179   5.009   9.783  0.5033 -2.2439  1.1516
31827SOL     OW99072  10.224   2.584   6.799 -0.0245 -0.0131  0.2792
31827SOL    HW199073  10.154   2.637   6.838 -1.0964 -2.0651  1.2559
31827SOL    HW299074  10.213   2.596   6.704 -1.5139 -0.0757  0.4269
31828SOL     OW99075   0.150   2.098   0.773  0.5290 -0.5413 -0.1710
31828SOL    HW199076   0.075   2.041   0.791 -0.0686  0.7375  1.6896
31828SOL    HW299077   0.225   2.039   0.767 -0.1944 -1.6067  0.8536
31829SOL     OW99078   7.181   0.519   2.048  0.5380 -0.1878  0.3642
31829SOL    HW199079   7.272   0.542   2.069  0.4422  0.1796  0.3677
31829SOL    HW299080   7.141   0.600   2.020 -0.2190 -0.0002  1.8652
31830SOL     OW99081   3.998   4.181   1.625 -0.3847 -0.4829 -0.0697
31830SOL    HW199082   4.016   4.275   1.619  1.5359 -0.8337 -0.6908
31830SOL    HW299083   4.004   4.149   1.535  0.6131 -1.4272  0.3008
31831SOL     OW99084   3.254   9.067   8.601 -0.4034 -0.2937 -0.2319
31831SOL    HW199085   3.169   9.070   8.556 -1.6768 -0.3121  2.0570
31831SOL    HW299086   3.281   9.159   8.606 -0.2508 -0.2887 -0.9861
31832SOL     OW99087   8.120   6.855   1.915 -0.5222  0.2821 -0.1425
31832SOL    HW199088   8.214   6.854   1.900 -0.4057  0.2891  0.5475
31832SOL    HW299089   8.082   6.823   1.834  0.0649  0.4665 -0.4944
31833SOL     OW99090   8.319   9.360   5.545 -0.5246  0.4673  0.1205
31833SOL    HW199091   8.270   9.356   5.628 -0.4738  0.2023  0.1411
31833SOL    HW299092   8.401   9.314   5.564  0.3203  2.0328  0.4633
31834SOL     OW99093   4.842   8.979   8.389  0.4839 -0.2459 -0.3744
31834SOL    HW199094   4.781   8.905   8.391 -0.4712  0.5280 -0.0383
31834SOL    HW299095   4.880   8.981   8.477  0.8098 -0.5696 -0.5042
31835SOL     OW99096   9.809   2.720  10.370  0.0533 -0.0566  0.7785
31835SOL    HW199097   9.829   2.627  10.383 -0.4741 -0.3375 -0.2423
31835SOL    HW299098   9.799   2.755  10.458 -0.9626 -1.2610  1.1878
31836SOL     OW99099  10.723   1.912   2.782 -0.0134 -0.2080 -0.5198
31836SOL    HW199100  10.746   1.975   2.851 -1.3670 -0.4905  0.2257
31836SOL    HW299101  10.706   1.966   2.705  0.4505  0.2013 -0.3430
31837SOL     OW99102   3.537  10.871   3.604  0.3879  0.2825  0.1802
31837SOL    HW199103   3.618  10.829   3.577 -0.3179 -1.2543  0.3440
31837SOL    HW299104   3.478  10.798   3.624 -0.9900  1.3631  0.1776
31838SOL     OW99105  10.682   0.688   3.101  0.1666 -0.2965 -0.3356
31838SOL    HW199106  10.691   0.754   3.032 -2.4295  1.3715  0.7569
31838SOL    HW299107  10.618   0.626   3.068 -3.1699  1.9446  1.3271
31839SOL     OW99108   6.317   2.464  10.386 -0.4383  0.1630 -0.1905
31839SOL    HW199109   6.350   2.419  10.309  1.1455 -2.0782  1.6492
31839SOL    HW299110   6.378   2.537  10.399 -0.8714  0.7085 -1.1870
31840SOL     OW99111   7.953   7.460   7.057 -0.1324  0.2574 -0.4059
31840SOL    HW199112   7.926   7.375   7.023 -0.3437 -0.7116  1.9815
31840SOL    HW299113   7.872   7.509   7.068  0.0945  1.4993 -3.3106
31841SOL     OW99114  10.826   0.094   5.610  0.4776  0.6869  0.3243
31841SOL    HW199115  10.769   0.085   5.533 -1.3856  0.7550  1.6357
31841SOL    HW299116  10.894   0.027   5.598 -0.5247 -0.1776 -0.7267
31842SOL     OW99117   1.439   0.648   2.242  0.2590 -0.0239  0.7861
31842SOL    HW199118   1.454   0.673   2.333  0.8757 -0.7127  0.8761
31842SOL    HW299119   1.510   0.588   2.221 -0.3096 -0.4689  0.0799
31843SOL     OW99120   3.381  10.565  10.122 -0.0369 -0.7748 -0.0198
31843SOL    HW199121   3.342  10.523  10.198 -0.6971 -0.6810 -0.2958
31843SOL    HW299122   3.323  10.541  10.049 -1.9221  2.5758  0.1711
31844SOL     OW99123  10.075   5.470   5.447 -0.0891  0.0957 -0.0770
31844SOL    HW199124  10.052   5.445   5.358  0.5732 -1.1072  0.0726
31844SOL    HW299125   9.992   5.470   5.495 -0.6617  2.1144 -0.9742
31845SOL     OW99126  10.512   2.867   0.166 -0.2039  0.1360  0.3246
31845SOL    HW199127  10.445   2.909   0.111 -1.3346 -0.1233  1.4510
31845SOL    HW299128  10.590   2.921   0.154 -1.4281  2.2424  1.2549
31846SOL     OW99129   5.824   9.502   4.591 -0.4545  0.0583 -0.4549
31846SOL    HW199130   5.823   9.458   4.506  1.7045 -1.4524  0.2095
31846SOL    HW299131   5.732   9.527   4.606 -1.0072 -0.2688 -2.8696
31847SOL     OW99132   8.966   2.381   8.628  0.5465  0.2183  0.1608
31847SOL    HW199133   8.952   2.456   8.570  0.4641  0.2530  0.2254
31847SOL    HW299134   8.931   2.409   8.712  0.8234  0.2316  0.2726
31848SOL     OW99135   1.623   4.870   0.101 -0.1226  0.3432  0.0547
31848SOL    HW199136   1.718   4.867   0.117  0.0090  1.7791 -0.3833
31848SOL    HW299137   1.595   4.778   0.109  1.7524 -0.5990 -2.5919
31849SOL     OW99138   7.939   6.565   3.289 -0.4130  0.2957  0.1414
31849SOL    HW199139   7.950   6.659   3.302  0.0018  0.2751 -0.0347
31849SOL    HW299140   7.952   6.527   3.376  1.2705  0.2533 -0.0834
31850SOL     OW99141   1.701   9.180   3.742 -0.1323  0.1294 -0.2507
31850SOL    HW199142   1.674   9.117   3.809 -0.0060 -0.9402 -1.1820
31850SOL    HW299143   1.770   9.232   3.784  3.4233 -3.5687 -0.8763
31851SOL     OW99144   6.640   4.471   5.521 -0.0504 -0.2379 -0.1535
31851SOL    HW199145   6.648   4.427   5.605  0.3505 -0.2137 -0.1762
31851SOL    HW299146   6.631   4.400   5.457 -0.6177 -0.2497 -0.0668
31852SOL     OW99147   1.530   3.281  10.812 -0.5787 -0.3371  0.2004
31852SOL    HW199148   1.500   3.368  10.839 -2.4506 -0.6436 -0.7191
31852SOL    HW299149   1.600   3.298  10.749  1.1596  0.4231  2.2560
31853SOL     OW99150   0.750   9.524   2.851 -0.6328 -0.3731  0.2841
31853SOL    HW199151   0.809   9.541   2.778  0.1170  0.5285  1.0716
31853SOL    HW299152   0.726   9.611   2.883 -4.0898 -0.5819 -1.2753
31854SOL     OW99153   3.370   2.693   9.141  0.4666 -0.1701  0.1344
31854SOL    HW199154   3.333   2.685   9.053 -1.6692  0.2224  0.9362
31854SOL    HW299155   3.356   2.607   9.181  1.5913 -0.4015  0.0533
31855SOL     OW99156   9.424   0.162   1.521  0.2008 -0.1490 -0.4948
31855SOL    HW199157   9.511   0.149   1.558  0.0535 -0.9937 -0.4329
31855SOL    HW299158   9.401   0.253   1.544  0.1414 -0.6119  1.4086
31856SOL     OW99159   2.312   2.057   0.056  0.1830 -0.2349 -0.6665
31856SOL    HW199160   2.360   2.048  -0.026 -1.5106 -0.8305 -1.6271
31856SOL    HW299161   2.301   2.151   0.067 -0.8780 -0.1877 -1.9260
31857SOL     OW99162   9.442   9.019   6.587 -0.6893  0.4243  0.1822
31857SOL    HW199163   9.488   9.080   6.529 -2.2705  0.4556 -1.1052
31857SOL    HW299164   9.485   9.029   6.672  2.1214 -0.0763 -1.0898
31858SOL     OW99165   7.094   0.505   8.027  0.0573  0.0464  0.3209
31858SOL    HW199166   7.062   0.579   7.975 -0.0574 -1.3898 -1.7493
31858SOL    HW299167   7.042   0.431   7.997  1.8878 -1.3706  0.5305
31859SOL     OW99168   5.506   4.721   7.903 -0.4160 -0.4014  0.0173
31859SOL    HW199169   5.585   4.771   7.878 -0.6397 -0.3307 -0.5728
31859SOL    HW299170   5.505   4.724   7.998 -0.0200  0.0974  0.0117
31860SOL     OW99171   6.566   3.600   5.582 -0.2631 -0.7293 -0.0532
31860SOL    HW199172   6.591   3.690   5.601 -2.7141 -0.1622  0.8044
31860SOL    HW299173   6.592   3.587   5.491 -0.5033  1.1040 -0.4298
31861SOL     OW99174   2.503   1.645   2.690 -0.2851 -0.2011 -0.1965
31861SOL    HW199175   2.597   1.660   2.687 -0.3478  0.2183 -0.0421
31861SOL    HW299176   2.490   1.593   2.770 -0.4313  1.5729  0.9909
31862SOL     OW99177   3.055   5.688   7.309 -0.5159  0.0481 -0.3288
31862SOL    HW199178   3.042   5.727   7.395 -0.9507 -0.2867 -0.2355
31862SOL    HW299179   3.090   5.759   7.255  0.6805  0.0090  0.3592
31863SOL     OW99180   4.282   2.253   2.992 -0.0456  0.1601 -0.5831
31863SOL    HW199181   4.236   2.184   2.944  1.6497 -0.8653 -0.8171
31863SOL    HW299182   4.260   2.237   3.084 -1.3229  0.6093 -0.7945
31864SOL     OW99183   8.516   6.808   1.136 -0.1528 -0.1562  0.2725
31864SOL    HW199184   8.586   6.872   1.121 -0.3509  0.2002  0.8485
31864SOL    HW299185   8.473   6.799   1.051 -0.7819  1.2713  0.4214
31865SOL     OW99186   2.847   9.769   6.833 -0.0635 -0.3028  0.3953
31865SOL    HW199187   2.788   9.725   6.773  0.4677  0.8709 -1.0682
31865SOL    HW299188   2.898   9.699   6.873  0.5100 -1.0743 -1.5712
31866SOL     OW99189   0.890   2.353   5.888  0.0794  0.2114 -0.1657
31866SOL    HW199190   0.810   2.334   5.936 -0.3217 -0.3289 -1.0345
31866SOL    HW299191   0.960   2.316   5.942 -0.3162  0.0609  0.2479
31867SOL     OW99192   1.418   3.716   3.572 -0.0337 -0.5160 -0.2056
31867SOL    HW199193   1.452   3.802   3.596  1.0321 -1.1742  0.7597
31867SOL    HW299194   1.438   3.708   3.479  1.1397 -0.2831  0.0141
31868SOL     OW99195   8.188   3.139   5.123  0.4158 -0.2791  0.4214
31868SOL    HW199196   8.158   3.127   5.213 -0.3462  0.8265  0.3365
31868SOL    HW299197   8.147   3.067   5.075 -2.2212  1.1599  0.3197
31869SOL     OW99198   7.906   6.439   8.269  0.2364  0.6102  0.1913
31869SOL    HW199199   7.960   6.363   8.293  0.8910  0.0499 -2.6567
31869SOL    HW299200   7.908   6.496   8.346 -0.0747 -2.0906  2.3673
31870SOL     OW99201   1.659  10.918   6.866 -0.3181 -0.7028 -0.7215
31870SOL    HW199202   1.655  10.877   6.780  1.5610 -0.8308 -0.7960
31870SOL    HW299203   1.594  10.872   6.918 -2.4589  0.2510 -2.3780
31871SOL     OW99204   1.101  10.065   2.162  0.2237  0.6990 -0.1138
31871SOL    HW199205   1.111  10.156   2.134 -0.5979  1.0965  0.7795
31871SOL    HW299206   1.012  10.062   2.198 -0.5231 -0.9679 -1.9274
31872SOL     OW99207   1.439   3.964   6.432 -0.6572  0.9792 -0.3707
31872SOL    HW199208   1.386   3.952   6.353 -0.5982 -3.1480 -0.0030
31872SOL    HW299209   1.384   3.931   6.503  1.1455 -0.3832  0.4755
31873SOL     OW99210   9.650   5.203   2.543 -0.4035 -0.3220  0.0161
31873SOL    HW199211   9.703   5.213   2.622  2.0452 -1.0466 -1.4327
31873SOL    HW299212   9.684   5.268   2.482 -1.0038 -0.9889 -1.0616
31874SOL     OW99213   9.406   6.784   1.798  0.5976  0.2599 -0.3058
31874SOL    HW199214   9.386   6.877   1.801 -0.0287  0.1122  0.6583
31874SOL    HW299215   9.456   6.767   1.877  0.3783 -0.2933 -0.2794
31875SOL     OW99216   1.424   9.184   0.244 -0.1105  0.1189 -0.2479
31875SOL    HW199217   1.455   9.201   0.154  2.0517  0.1586  0.4478
31875SOL    HW299218   1.415   9.271   0.283 -1.5374  0.1278 -0.5347
31876SOL     OW99219   0.549   8.176   4.730  0.0829  0.4399  0.0971
31876SOL    HW199220   0.478   8.191   4.791 -0.4063 -0.2454 -0.2797
31876SOL    HW299221   0.510   8.189   4.643  0.2563 -0.4783 -0.1357
31877SOL     OW99222   1.162   6.191   1.432 -0.2920  0.1450  0.4404
31877SOL    HW199223   1.185   6.277   1.396 -1.8171  1.1019  1.6190
31877SOL    HW299224   1.175   6.200   1.527 -1.5318 -0.5381  0.7023
31878SOL     OW99225   9.303   8.026   1.928 -0.3486  0.2043 -0.0612
31878SOL    HW199226   9.355   8.060   2.001 -0.3905  0.9798 -0.3789
31878SOL    HW299227   9.363   7.967   1.882  0.6876  1.9288 -1.0718
31879SOL     OW99228   6.048   0.410   2.914  0.3450 -0.1646 -0.0380
31879SOL    HW199229   5.984   0.342   2.933  0.3714 -0.0943  0.2981
31879SOL    HW299230   6.097   0.421   2.995  0.4380  0.1516 -0.1348
31880SOL     OW99231   6.642   0.317   5.412 -0.3735  0.5561 -0.3244
31880SOL    HW199232   6.566   0.273   5.372  0.4599 -2.5845  1.2454
31880SOL    HW299233   6.716   0.288   5.359 -0.0391  2.2857 -0.8494
31881SOL     OW99234   0.116  10.261   6.855 -0.2571 -0.2592 -0.2344
31881SOL    HW199235   0.040  10.319   6.849 -0.4522 -0.2545  1.7266
31881SOL    HW299236   0.141  10.246   6.764 -0.7468  2.1725 -0.8413
31882SOL     OW99237   1.448   3.542   4.329  0.2841  0.0642  0.0890
31882SOL    HW199238   1.500   3.606   4.377 -2.4658  2.3883  0.2436
31882SOL    HW299239   1.442   3.577   4.240 -0.8404 -0.2309  0.0291
31883SOL     OW99240   0.627  10.148   5.486  0.1046  0.6278 -0.0701
31883SOL    HW199241   0.556  10.200   5.448 -0.5158  0.4570  0.8373
31883SOL    HW299242   0.601  10.057   5.470  0.0320  0.5626  0.4173
31884SOL     OW99243   8.268   7.909   9.749 -0.7407  0.3542  0.6440
31884SOL    HW199244   8.333   7.954   9.695 -0.3022  0.0074  0.8761
31884SOL    HW299245   8.200   7.883   9.687  0.7216 -1.8717 -0.1637
31885SOL     OW99246   1.862  10.408   6.228 -0.1796  0.2597  0.0353
31885SOL    HW199247   1.807  10.483   6.251  0.1814  0.7817 -0.7520
31885SOL    HW299248   1.941  10.420   6.281  0.0713  0.6916 -0.4365
31886SOL     OW99249   9.602   2.888   1.517  0.2702 -0.1902  0.2447
31886SOL    HW199250   9.641   2.846   1.593  1.3969  0.2784 -0.0552
31886SOL    HW299251   9.576   2.815   1.460 -0.8507 -0.5537  1.1760
31887SOL     OW99252   8.935  10.070   0.272  0.1735 -0.4642  0.1074
31887SOL    HW199253   8.874  10.116   0.214 -1.7061 -2.4045  0.4025
31887SOL    HW299254   9.013  10.125   0.274 -1.3784  1.9076 -0.6937
31888SOL     OW99255   1.876   8.946   9.459 -0.3975  0.2872  0.5501
31888SOL    HW199256   1.935   8.965   9.532 -0.0751  1.4729  0.0093
31888SOL    HW299257   1.788   8.952   9.498 -0.1984 -0.8671  1.2199
31889SOL     OW99258   4.992   5.171   7.296 -0.7320 -0.0151 -0.4880
31889SOL    HW199259   5.068   5.189   7.351 -1.2781 -2.1649  1.1496
31889SOL    HW299260   5.027   5.157   7.209  0.8358 -1.3028  0.2986
31890SOL     OW99261   1.978   3.325   4.148  0.5199  0.1049 -0.7099
31890SOL    HW199262   1.999   3.409   4.188 -1.1180  1.0185 -1.6561
31890SOL    HW299263   2.014   3.259   4.208 -0.4620  1.4287  1.4206
31891SOL     OW99264   7.812   8.656  10.634 -0.3077  0.3918 -0.8779
31891SOL    HW199265   7.729   8.696  10.606  0.2451  0.9328 -1.7745
31891SOL    HW299266   7.847   8.717  10.699 -0.9385 -0.1847  0.0156
31892SOL     OW99267   9.812   0.032   0.939  0.7968  0.0794 -0.1068
31892SOL    HW199268   9.776   0.110   0.982  3.5087  0.7393  1.1892
31892SOL    HW299269   9.869   0.066   0.871  1.5861 -0.7862  0.1013
31893SOL     OW99270   6.255   3.877   0.688 -0.0272  0.0994 -0.3352
31893SOL    HW199271   6.341   3.916   0.672  0.2655 -0.7239 -0.8731
31893SOL    HW299272   6.194   3.932   0.639  0.3342  0.0636 -0.8279
31894SOL     OW99273   1.095   4.503   0.965  0.1044  0.2869 -0.3599
31894SOL    HW199274   1.140   4.419   0.959 -0.5120 -0.1885  1.1760
31894SOL    HW299275   1.003   4.482   0.947 -0.0381  0.6443 -0.0517
31895SOL     OW99276   9.242   5.355   3.360  0.5860 -0.4554  0.1541
31895SOL    HW199277   9.150   5.328   3.360 -0.0259  1.5008  0.0658
31895SOL    HW299278   9.260   5.381   3.270  1.8521 -2.6604 -0.2950
31896SOL     OW99279   8.631   6.304   5.858 -1.0095 -0.1188 -0.1163
31896SOL    HW199280   8.658   6.394   5.874  2.4579 -1.1987  1.0256
31896SOL    HW299281   8.571   6.283   5.929 -0.8475  0.8813  0.3272
31897SOL     OW99282   7.748   5.559   0.355  0.5052 -0.1866  0.8037
31897SOL    HW199283   7.680   5.550   0.288  1.0773  0.6167  0.0887
31897SOL    HW299284   7.780   5.469   0.368 -1.3165 -0.7399  1.8695
31898SOL     OW99285   6.391   4.807   5.598  0.2486 -0.0178 -0.4062
31898SOL    HW199286   6.340   4.726   5.599  1.2942 -0.7352 -1.4098
31898SOL    HW299287   6.420   4.816   5.507  2.4869 -0.0602  0.2277
31899SOL     OW99288   0.345   4.256   4.813  0.2211  0.6440  0.4728
31899SOL    HW199289   0.253   4.229   4.815  0.1302  0.7410 -1.1484
31899SOL    HW299290   0.393   4.177   4.837 -0.1902 -0.0766 -0.9981
31900SOL     OW99291   9.419   5.936   4.416  0.2490  0.2898 -0.1048
31900SOL    HW199292   9.497   5.961   4.367 -0.1667  1.0100 -0.4219
31900SOL    HW299293   9.417   5.841   4.411  0.5421  0.3212 -0.9942
31901SOL     OW99294   4.732   4.900   8.235  0.0427  0.2177 -0.2894
31901SOL    HW199295   4.765   4.820   8.194  1.7924  0.6448  0.1905
31901SOL    HW299296   4.738   4.966   8.165 -2.1851 -0.1767 -0.9456
31902SOL     OW99297   0.638   5.565   9.373  0.1059 -0.0464 -0.6519
31902SOL    HW199298   0.692   5.499   9.416  0.7850  0.7178 -0.2897
31902SOL    HW299299   0.651   5.550   9.280  2.4023  1.1918 -0.6177
31903SOL     OW99300   6.273   6.045   3.888 -0.2613 -0.4323  0.2198
31903SOL    HW199301   6.325   6.087   3.820 -0.4706  1.7180  1.3071
31903SOL    HW299302   6.249   5.960   3.851  0.1284  0.4126 -2.1129
31904SOL     OW99303   5.539   0.998   4.123  0.1694  0.2768  0.0717
31904SOL    HW199304   5.580   0.937   4.184 -0.5179 -2.2709 -1.8616
31904SOL    HW299305   5.609   1.018   4.060 -0.1466 -0.0932 -0.4008
31905SOL     OW99306  10.214   2.299   6.530  0.5222  0.1979 -0.2668
31905SOL    HW199307  10.277   2.340   6.588  0.3576 -0.0605  0.0939
31905SOL    HW299308  10.186   2.220   6.575  0.7757 -0.2760 -0.9188
31906SOL     OW99309   8.711   1.188   3.068  0.0113  0.0099  0.0729
31906SOL    HW199310   8.669   1.187   3.154  1.9484 -0.8353  1.0889
31906SOL    HW299311   8.774   1.260   3.072  0.3002 -0.1944 -0.5278
31907SOL     OW99312   5.441  10.578   2.252 -0.2542 -0.0364  0.1933
31907SOL    HW199313   5.433  10.536   2.338  0.4547 -0.3976  0.0898
31907SOL    HW299314   5.527  10.619   2.254 -0.2968  0.0775 -0.2897
31908SOL     OW99315   0.364   8.545   5.363  0.0371 -0.2868 -0.5888
31908SOL    HW199316   0.449   8.509   5.341  0.3797 -1.9933  2.8067
31908SOL    HW299317   0.379   8.598   5.442 -1.8020  0.7276 -0.8444
31909SOL     OW99318   7.681   1.492   8.575 -0.0785 -0.0604  0.0951
31909SOL    HW199319   7.678   1.580   8.538 -1.6425 -0.0591  0.1672
31909SOL    HW299320   7.774   1.473   8.585  0.2755  1.6453  0.2464
31910SOL     OW99321   4.341   4.600   6.163 -0.0173 -0.1580  0.1894
31910SOL    HW199322   4.297   4.527   6.206  0.0096 -0.2562  0.0511
31910SOL    HW299323   4.297   4.608   6.078 -0.0863  0.0508  0.2438
31911SOL     OW99324   2.119   1.074   4.546 -0.5327 -0.2468 -0.1440
31911SOL    HW199325   2.160   1.021   4.477 -0.9323  0.2647 -0.7864
31911SOL    HW299326   2.082   1.149   4.500  1.0790  1.2763  0.8815
31912SOL     OW99327   8.805   4.713   5.756 -0.2777  0.0067 -0.0982
31912SOL    HW199328   8.804   4.638   5.695  0.1133 -0.0703 -0.0113
31912SOL    HW299329   8.756   4.682   5.832 -1.1181  0.2404 -0.5273
31913SOL     OW99330   3.564   7.068   8.255  0.6793  0.3600  0.3017
31913SOL    HW199331   3.521   7.122   8.320 -0.1032 -1.0306  0.9975
31913SOL    HW299332   3.654   7.058   8.287  0.2883 -0.3537  1.2335
31914SOL     OW99333   2.751  10.019   3.528  0.6137 -0.1633 -0.2409
31914SOL    HW199334   2.794  10.018   3.443  0.0284  0.0173 -0.5479
31914SOL    HW299335   2.729   9.928   3.545 -3.4265  0.1708 -2.4871
31915SOL     OW99336   2.395  10.070   8.523 -0.4455 -0.1311 -0.2552
31915SOL    HW199337   2.307  10.046   8.552 -0.4664  0.8254  0.5035
31915SOL    HW299338   2.421  10.141   8.581  2.2001 -2.5785  1.8907
31916SOL     OW99339   7.319   8.950   4.662 -0.6580  0.5903  0.1585
31916SOL    HW199340   7.322   8.914   4.751  0.4502 -0.3089 -0.2118
31916SOL    HW299341   7.297   9.042   4.674 -0.3974  0.5112  1.3756
31917SOL     OW99342   6.045   2.304   5.588  0.4100 -0.5464 -0.2094
31917SOL    HW199343   6.122   2.361   5.595 -0.5121  0.7074 -0.1274
31917SOL    HW299344   6.036   2.289   5.494 -0.4568  1.0396 -0.4133
31918SOL     OW99345   8.623   6.144   0.226  0.3942  0.3058  0.3873
31918SOL    HW199346   8.719   6.150   0.220  0.4078  0.6226  0.8882
31918SOL    HW299347   8.605   6.143   0.320  0.1655 -4.1098  0.5208
31919SOL     OW99348   2.846   2.805   1.560  0.2892  0.1998 -0.1900
31919SOL    HW199349   2.802   2.859   1.626 -1.0369  0.2978 -1.1109
31919SOL    HW299350   2.847   2.859   1.481  2.7494  0.4617 -0.0277
31920SOL     OW99351   5.188  10.197   7.654 -0.3427  0.6941 -0.4842
31920SOL    HW199352   5.101  10.167   7.628 -0.4477  1.3746 -0.9685
31920SOL    HW299353   5.172  10.266   7.718 -0.1071 -0.2163  0.5827
31921SOL     OW99354   0.908   4.576   6.855  0.0526 -0.2520 -0.4207
31921SOL    HW199355   0.850   4.637   6.810  0.1324  0.3012  0.2078
31921SOL    HW299356   0.898   4.597   6.948 -0.1482 -1.4123 -0.1715
31922SOL     OW99357   5.119   3.554  10.930 -0.6060 -0.1013 -0.2852
31922SOL    HW199358   5.142   3.584  10.842 -0.1877 -2.7845 -1.1784
31922SOL    HW299359   5.038   3.505  10.918 -0.7569 -0.1513  0.8938
31923SOL     OW99360   1.102   3.614   3.392  0.1934  0.1074  0.5743
31923SOL    HW199361   1.081   3.706   3.405  0.1796  0.2434 -0.3605
31923SOL    HW299362   1.190   3.614   3.356  0.0720 -0.2253  0.2692
31924SOL     OW99363   9.613   3.264   5.950 -0.5865  0.1780  0.6868
31924SOL    HW199364   9.575   3.186   5.991 -3.5352  0.7196 -0.7636
31924SOL    HW299365   9.572   3.269   5.864  2.6752  1.0797 -0.9961
31925SOL     OW99366   5.302   7.078   1.626 -0.2891 -0.4911 -0.0286
31925SOL    HW199367   5.385   7.057   1.584 -1.0185  0.6373 -2.1761
31925SOL    HW299368   5.268   7.152   1.577 -1.7051  0.2917  2.0049
31926SOL     OW99369   4.409   4.095   1.565 -0.0865  0.6357 -0.0554
31926SOL    HW199370   4.503   4.095   1.580  0.5535  0.7767 -3.3358
31926SOL    HW299371   4.396   4.036   1.490 -2.5271  1.1344 -0.1318
31927SOL     OW99372  10.328  10.184   5.588  0.6086  0.1694  0.1015
31927SOL    HW199373  10.369  10.218   5.508  1.6375 -0.3294  0.3952
31927SOL    HW299374  10.237  10.211   5.582  1.2573  2.5999  0.0988
31928SOL     OW99375   2.086   9.056   0.684 -0.1216 -0.5039 -0.5518
31928SOL    HW199376   2.132   9.027   0.763 -0.5891 -1.0263 -0.4719
31928SOL    HW299377   1.994   9.060   0.710 -0.5179 -2.3053 -1.5254
31929SOL     OW99378   9.469   8.059   5.082  0.4078 -0.4285  0.1992
31929SOL    HW199379   9.453   8.008   5.003  1.2295 -1.0982  0.4461
31929SOL    HW299380   9.497   8.145   5.050 -2.5305  0.4506 -0.2287
31930SOL     OW99381   1.022   9.256  10.955 -0.4755 -0.0419 -0.4247
31930SOL    HW199382   1.065   9.173  10.976  1.3396  0.7514 -0.7352
31930SOL    HW299383   0.982   9.284  11.036 -1.8053 -1.5769 -0.5079
31931SOL     OW99384  10.538   5.067  10.858  0.1919 -0.4107 -0.6202
31931SOL    HW199385  10.626   5.039  10.882 -0.3150 -0.5055  1.2614
31931SOL    HW299386  10.550   5.157  10.827  0.9849 -0.5486 -0.7387
31932SOL     OW99387   0.388   8.870   3.217  0.6222 -0.2902  0.0270
31932SOL    HW199388   0.458   8.923   3.178  1.9808 -1.6075  0.5572
31932SOL    HW299389   0.433   8.793   3.252 -1.1627 -1.3989  0.0276
31933SOL     OW99390  10.024   3.295   9.521 -0.4338  0.1684  0.0943
31933SOL    HW199391  10.078   3.273   9.445 -2.0487  1.6268 -1.5435
31933SOL    HW299392  10.002   3.210   9.560 -0.2598 -0.6740 -1.5638
31934SOL     OW99393   1.296   4.585   0.536 -0.3494 -0.6430  0.1235
31934SOL    HW199394   1.269   4.670   0.503 -0.6760 -1.6161 -2.3570
31934SOL    HW299395   1.391   4.586   0.531 -0.4031 -0.9153 -1.3748
31935SOL     OW99396   2.708   3.959   8.917  1.1510  0.0396 -0.2610
31935SOL    HW199397   2.723   4.038   8.969 -0.6936  0.3031 -0.0601
31935SOL    HW299398   2.744   3.888   8.971  2.4029  0.6690 -0.2317
31936SOL     OW99399  10.679  10.717   1.922 -0.0218  0.1488  0.6340
31936SOL    HW199400  10.597  10.735   1.875 -0.3226  2.4558  1.8807
31936SOL    HW299401  10.662  10.746   2.012  2.0612  0.4139  0.9913
31937SOL     OW99402   0.492   0.089   0.770  0.0370 -0.0892 -0.7660
31937SOL    HW199403   0.536   0.148   0.708  1.0070  0.5529  0.4911
31937SOL    HW299404   0.430   0.040   0.716  0.4178  0.8755 -2.1409
31938SOL     OW99405   6.377   8.315   7.034  0.3952 -0.3677  0.1801
31938SOL    HW199406   6.467   8.347   7.030  0.9568 -1.8746 -0.2794
31938SOL    HW299407   6.340   8.355   7.112  1.6343 -0.1096  0.6549
31939SOL     OW99408   1.796   8.770   4.496  0.0431  0.4165 -0.0100
31939SOL    HW199409   1.845   8.792   4.416  0.7086  0.3335  0.3638
31939SOL    HW299410   1.844   8.696   4.533 -0.3326  0.3780  0.4011
31940SOL     OW99411  10.385   5.083   1.421 -0.1430  0.2039 -0.4709
31940SOL    HW199412  10.363   5.176   1.423 -1.2213  0.0346 -2.1515
31940SOL    HW299413  10.306   5.039   1.454  0.1094 -0.1290 -0.3049
31941SOL     OW99414   4.282   9.749   1.709  0.3481  0.3623  0.3689
31941SOL    HW199415   4.357   9.736   1.650 -0.1130  1.6250 -0.5483
31941SOL    HW299416   4.321   9.749   1.796  1.1679 -0.7332  0.0263
31942SOL     OW99417   4.353   6.932  10.242 -0.0660 -0.6593  0.0080
31942SOL    HW199418   4.260   6.953  10.239  0.4365  1.6449 -1.3734
31942SOL    HW299419   4.393   7.004  10.291  1.1467 -0.9723 -0.4799
31943SOL     OW99420   7.438   6.296   4.080  0.0871 -0.2228 -0.1989
31943SOL    HW199421   7.451   6.335   4.167  0.0001  1.4530 -0.9149
31943SOL    HW299422   7.345   6.274   4.077 -0.2557  1.2035 -0.4454
31944SOL     OW99423   2.531   9.097   5.386  0.5126 -0.0951 -0.2093
31944SOL    HW199424   2.479   9.151   5.327  0.9370  1.8576  1.0944
31944SOL    HW299425   2.611   9.078   5.337 -0.2198 -0.7321 -1.1885
31945SOL     OW99426   4.683   6.809   9.211  0.0033  0.4294 -0.0181
31945SOL    HW199427   4.752   6.875   9.219  0.7574 -0.4697  1.2604
31945SOL    HW299428   4.691   6.756   9.290 -3.2661  1.2931  1.0550
31946SOL     OW99429   4.221   6.741   8.523 -0.3475 -0.7873  0.3514
31946SOL    HW199430   4.259   6.740   8.610  0.5306 -0.4549 -0.0162
31946SOL    HW299431   4.260   6.666   8.478 -0.1713 -0.4861 -0.0071
31947SOL     OW99432   2.481   3.211   4.328 -0.0299 -0.0849 -0.0221
31947SOL    HW199433   2.436   3.155   4.391 -1.5459  0.6223 -0.4375
31947SOL    HW299434   2.417   3.227   4.259  0.2672  2.2816  0.1617
31948SOL     OW99435   8.771   6.710   3.302  0.1831 -0.0032  0.2043
31948SOL    HW199436   8.680   6.729   3.279 -0.2136 -1.6636  0.2703
31948SOL    HW299437   8.818   6.712   3.218 -0.7640 -3.3629 -0.5632
31949SOL     OW99438   5.325   8.708   7.985  0.0706 -0.1900  0.2079
31949SOL    HW199439   5.333   8.621   8.026 -0.0505  0.5394  1.8687
31949SOL    HW299440   5.259   8.696   7.917  1.0721 -1.7161 -0.5561
31950SOL     OW99441   6.579   2.386   9.467 -0.1099 -0.2159 -0.0471
31950SOL    HW199442   6.578   2.320   9.397  1.0685  0.3089 -0.5754
31950SOL    HW299443   6.624   2.343   9.540 -0.3326 -0.3745 -0.0023
31951SOL     OW99444   2.073   2.082   8.551 -0.5540  0.1751  0.1792
31951SOL    HW199445   2.026   2.110   8.473 -0.6011 -0.8863 -0.1977
31951SOL    HW299446   2.053   1.989   8.559 -0.6522  0.2905  1.5364
31952SOL     OW99447   8.182   2.533   6.680  0.1507  0.4994  0.1646
31952SOL    HW199448   8.244   2.585   6.731 -0.6025  1.7685 -0.1561
31952SOL    HW299449   8.130   2.486   6.745 -0.0944  1.2670  0.5355
31953SOL     OW99450   5.403  10.471   7.568 -0.0472 -0.2054 -0.0140
31953SOL    HW199451   5.333  10.405   7.572  0.3598 -0.5954  0.9909
31953SOL    HW299452   5.475  10.433   7.618  0.3496  0.8207  0.2240
31954SOL     OW99453   1.586   4.118   2.086  0.4271  0.0864 -0.3286
31954SOL    HW199454   1.551   4.207   2.093 -0.3073 -0.1120 -1.2093
31954SOL    HW299455   1.634   4.117   2.004 -0.5332 -0.6256 -0.9112
31955SOL     OW99456   2.433   1.886   6.209 -0.3128  0.1866 -0.7689
31955SOL    HW199457   2.416   1.816   6.146 -0.7238 -0.6673  0.2738
31955SOL    HW299458   2.349   1.932   6.217 -1.4661 -2.1425  2.0689
31956SOL     OW99459   6.076   2.294   2.185 -0.3834  0.5317  0.3560
31956SOL    HW199460   6.061   2.229   2.254 -0.8809  2.6522  2.3578
31956SOL    HW299461   5.992   2.302   2.140 -0.1221 -0.6765 -0.4144
31957SOL     OW99462   9.029   8.602   7.639  0.6907 -0.1115 -0.2233
31957SOL    HW199463   9.045   8.671   7.575  0.0583  0.1882 -0.0694
31957SOL    HW299464   9.003   8.649   7.718  1.4924 -0.4797  0.2621
31958SOL     OW99465   9.652   5.696   4.469 -0.6988  0.0421  0.1929
31958SOL    HW199466   9.712   5.696   4.395 -0.7199 -0.5780  0.1688
31958SOL    HW299467   9.668   5.779   4.514  0.3594 -0.2231  0.3373
31959SOL     OW99468   7.941   3.817   1.783 -0.0074 -0.2686 -0.1675
31959SOL    HW199469   7.973   3.783   1.867 -0.2254 -2.7411 -1.0230
31959SOL    HW299470   7.947   3.912   1.793 -1.9173 -0.3337  3.4149
31960SOL     OW99471   1.311  10.463   7.406  0.1918 -0.3412 -0.2894
31960SOL    HW199472   1.364  10.508   7.471 -1.1867  1.0618 -0.0810
31960SOL    HW299473   1.326  10.510   7.324 -0.8425  0.2213 -0.1825
31961SOL     OW99474   0.625   9.473   0.007 -0.1294 -0.0596 -0.5195
31961SOL    HW199475   0.575   9.488   0.087 -0.6522 -0.9418 -0.6648
31961SOL    HW299476   0.565   9.426  -0.050  0.1449  0.8079 -1.5510
31962SOL     OW99477   3.807   4.068   5.992 -0.1085 -0.1061 -0.0529
31962SOL    HW199478   3.796   4.032   5.904 -1.0747  0.6946 -0.2807
31962SOL    HW299479   3.725   4.050   6.036  0.3833 -0.5282  0.7098
31963SOL     OW99480   2.133   9.611   5.702  0.4914  0.0943 -0.2923
31963SOL    HW199481   2.196   9.643   5.638  2.1162 -1.2097  0.5727
31963SOL    HW299482   2.181   9.546   5.754 -1.2797 -0.2393  1.0699
31964SOL     OW99483   8.991   7.793   0.434 -0.0265  0.3433 -0.6685
31964SOL    HW199484   8.952   7.707   0.416  0.7558 -0.0062 -0.7243
31964SOL    HW299485   8.984   7.802   0.529 -0.5756  0.4430 -0.7178
31965SOL     OW99486   9.164   3.219   7.868 -0.5352 -0.4909 -0.3973
31965SOL    HW199487   9.233   3.254   7.812 -0.8198  2.6985  1.0338
31965SOL    HW299488   9.209   3.191   7.947 -0.5772 -1.4743 -0.6993
31966SOL     OW99489  10.850   8.401  10.379 -0.3399 -0.0927 -0.2031
31966SOL    HW199490  10.874   8.474  10.323  1.7508 -0.1121  0.5932
31966SOL    HW299491  10.871   8.429  10.467 -1.6615 -0.8301  0.3844
31967SOL     OW99492   3.216   7.732   7.938  0.1092 -0.2006 -0.1789
31967SOL    HW199493   3.299   7.712   7.894  1.3399 -0.1023  1.9631
31967SOL    HW299494   3.199   7.824   7.916  1.0572  0.0500  0.0998
31968SOL     OW99495   3.501   8.038   0.885 -0.1633  0.0727 -0.5451
31968SOL    HW199496   3.406   8.032   0.893 -0.3513  2.7913  0.3461
31968SOL    HW299497   3.533   8.044   0.975  0.7801 -0.1989 -0.8531
31969SOL     OW99498   0.116   0.775   0.411  0.6548  0.2887  0.5412
31969SOL    HW199499   0.100   0.866   0.437 -0.6579  0.4936 -0.8191
31969SOL    HW299500   0.159   0.781   0.326  0.3041 -0.3533  0.3099
31970SOL     OW99501  10.987   3.713   6.475 -0.4075 -0.3254  0.5984
31970SOL    HW199502  10.998   3.619   6.482 -0.6639 -0.3604  0.5381
31970SOL    HW299503  10.929   3.737   6.547 -2.1835 -0.5400 -0.6729
31971SOL     OW99504   3.973   7.254   3.495  0.4873 -0.0527 -0.0924
31971SOL    HW199505   4.022   7.293   3.568  0.1215  0.6044 -0.1955
31971SOL    HW299506   4.031   7.263   3.419 -0.0682  1.3596 -0.3608
31972SOL     OW99507   8.371   8.832   5.312 -0.0231 -0.2863 -0.3177
31972SOL    HW199508   8.389   8.781   5.391  1.2580  0.4249 -0.1249
31972SOL    HW299509   8.368   8.767   5.242 -0.2979 -0.8241  0.1874
31973SOL     OW99510   6.050  10.385   7.040 -0.0953 -0.5642  0.2866
31973SOL    HW199511   6.115  10.432   6.989 -0.9391 -0.2020 -0.4895
31973SOL    HW299512   5.976  10.372   6.980 -1.7634  1.2663  1.7915
31974SOL     OW99513   4.603   6.835   2.894 -0.3932  0.1509 -0.7437
31974SOL    HW199514   4.596   6.740   2.904  0.8386  0.0195 -0.9652
31974SOL    HW299515   4.615   6.849   2.800 -0.3174  0.5095 -0.6818
31975SOL     OW99516   9.058   5.580   6.511  0.3719  0.0417  0.5069
31975SOL    HW199517   9.123   5.536   6.566  0.1535 -1.2333 -0.2205
31975SOL    HW299518   9.000   5.510   6.481  1.4483  0.3754 -2.7273
31976SOL     OW99519   3.557   4.679  10.381  0.1172  0.1569  0.1716
31976SOL    HW199520   3.557   4.736  10.304 -1.0227 -0.1869 -0.1091
31976SOL    HW299521   3.649   4.662  10.399  0.3965  0.0420 -1.2775
31977SOL     OW99522   1.164   2.679   1.625 -0.7857  0.1189 -0.4742
31977SOL    HW199523   1.228   2.692   1.554  0.3419  1.1694  0.6762
31977SOL    HW299524   1.206   2.617   1.684 -0.2012  1.8019  0.9557
31978SOL     OW99525   8.090   0.860   7.421 -0.4096 -0.0857  0.1314
31978SOL    HW199526   8.181   0.834   7.406 -0.7637  0.0812 -3.0791
31978SOL    HW299527   8.093   0.956   7.426 -0.3184 -0.1294  0.9978
31979SOL     OW99528   9.624   5.827   7.631 -0.0492  0.1405 -0.1626
31979SOL    HW199529   9.693   5.874   7.583  1.5784 -0.1874  1.7190
31979SOL    HW299530   9.553   5.890   7.639  0.8945  1.2623 -0.3129
31980SOL     OW99531   4.525   7.162   1.761  0.7010 -0.2195 -0.3225
31980SOL    HW199532   4.492   7.133   1.676  0.9566 -1.0517 -0.1494
31980SOL    HW299533   4.455   7.215   1.798 -0.8154 -2.6005  0.3948
31981SOL     OW99534   2.877   0.693   0.174 -0.0546 -0.2600 -0.4598
31981SOL    HW199535   2.864   0.757   0.245  0.3505  0.3624 -0.9306
31981SOL    HW299536   2.917   0.744   0.103 -0.0216 -0.9746 -0.9666
31982SOL     OW99537   6.899   3.490   1.712  0.0443 -0.8433  0.7579
31982SOL    HW199538   6.879   3.432   1.638 -0.1900  0.9033 -0.6117
31982SOL    HW299539   6.880   3.578   1.680  0.3976  0.0295  2.7635
31983SOL     OW99540  10.458   3.280   3.382 -0.5268 -0.2911 -0.1826
31983SOL    HW199541  10.495   3.368   3.391 -3.6382  1.2099 -0.4837
31983SOL    HW299542  10.451   3.247   3.471  0.2789 -0.0556 -0.0323
31984SOL     OW99543  10.630   7.254   8.741 -0.0186 -0.3696 -0.2650
31984SOL    HW199544  10.613   7.278   8.832 -1.0427 -0.5315 -0.3983
31984SOL    HW299545  10.617   7.335   8.692 -1.1383 -0.6318 -0.4423
31985SOL     OW99546   4.635   7.936  10.874 -0.0676  0.1661  0.0015
31985SOL    HW199547   4.602   7.951  10.963 -1.5780  1.5985 -0.7477
31985SOL    HW299548   4.671   8.021  10.847 -1.4103  0.3229 -1.4374
31986SOL     OW99549   8.025   9.219   8.534 -0.0809  0.5297  0.5342
31986SOL    HW199550   7.973   9.165   8.474  1.2065  0.2257 -0.3695
31986SOL    HW299551   7.993   9.196   8.621 -0.4439 -0.7536  0.0913
31987SOL     OW99552   6.910   2.353   9.151  0.1977 -0.2056 -0.2064
31987SOL    HW199553   6.977   2.308   9.100  1.1384  0.7668  0.1483
31987SOL    HW299554   6.957   2.391   9.225 -0.6421  0.9675 -0.2484
31988SOL     OW99555   8.824   6.535   5.853  0.1934  0.3209  0.8270
31988SOL    HW199556   8.818   6.537   5.949 -2.0066 -0.4831  0.7654
31988SOL    HW299557   8.887   6.465   5.835 -1.1855 -1.2111  1.7010
31989SOL     OW99558  10.790   7.934   5.545  0.1920 -0.1408  0.0163
31989SOL    HW199559  10.702   7.898   5.557  0.3158 -0.2716  0.5936
31989SOL    HW299560  10.776   8.024   5.518 -0.1214 -0.2651 -0.2340
31990SOL     OW99561  10.340   6.244   8.045 -0.3151 -0.7075  0.0149
31990SOL    HW199562  10.310   6.327   8.009  0.0010  0.0879  1.5114
31990SOL    HW299563  10.264   6.186   8.037 -0.8836  0.0367 -0.0559
31991SOL     OW99564   7.031  10.842   3.740 -0.3607 -0.2067 -0.3928
31991SOL    HW199565   6.971  10.833   3.666 -1.3581 -1.1355  0.4840
31991SOL    HW299566   7.111  10.879   3.703 -0.8230 -0.7015 -1.9351
31992SOL     OW99567   9.693   2.557   9.756 -0.2955 -0.1265  0.7132
31992SOL    HW199568   9.756   2.486   9.770  1.8401  1.4446 -0.3438
31992SOL    HW299569   9.666   2.583   9.844 -1.2509 -2.2825  1.1173
31993SOL     OW99570   0.577   0.942   5.152 -0.2846 -0.3253 -0.3103
31993SOL    HW199571   0.662   0.922   5.113 -0.5371 -0.9174 -0.5709
31993SOL    HW299572   0.595   1.010   5.217  0.1900  0.4596 -1.2436
31994SOL     OW99573   0.531   7.814  10.093  0.3912  0.0489 -0.1782
31994SOL    HW199574   0.618   7.773  10.086  1.8118  2.3301  2.2521
31994SOL    HW299575   0.538   7.893  10.041 -1.1484 -0.9490 -1.9880
31995SOL     OW99576   1.786   5.181   2.957  0.2117  0.4995 -0.1343
31995SOL    HW199577   1.809   5.206   3.047 -0.4638  1.3779 -0.1881
31995SOL    HW299578   1.825   5.249   2.903  1.2345 -0.4234 -0.5800
31996SOL     OW99579   9.237   2.094   6.539  0.2692  0.3657 -0.2305
31996SOL    HW199580   9.325   2.060   6.558 -0.0023  0.4607  1.3166
31996SOL    HW299581   9.181   2.017   6.537  0.5264  0.1880 -2.2900
31997SOL     OW99582   1.191   1.935   0.065  0.1426  0.1007 -0.2806
31997SOL    HW199583   1.129   1.986   0.013  0.9222  2.7741  1.1874
31997SOL    HW299584   1.204   1.987   0.144  2.8678 -1.2417  0.2955
31998SOL     OW99585   3.312   9.048   5.468 -0.0619  0.5992 -0.2303
31998SOL    HW199586   3.275   8.968   5.504  0.7233  0.8587  1.2579
31998SOL    HW299587   3.391   9.020   5.422 -0.6763  0.3389 -1.1225
31999SOL     OW99588   1.285  10.946   0.650 -0.2222  0.0530 -0.0208
31999SOL    HW199589   1.272  11.017   0.587 -1.8112 -0.2201 -0.0293
31999SOL    HW299590   1.377  10.921   0.639 -0.2714  0.5224 -1.6826
32000SOL     OW99591  10.722   2.967   4.526 -0.0865 -0.0285  0.3606
32000SOL    HW199592  10.717   2.891   4.468 -0.1094 -0.0101  0.3378
32000SOL    HW299593  10.735   2.931   4.613  0.5196 -0.0361  0.2718
32001SOL     OW99594   7.237   7.695  10.243  0.2146  0.3534 -0.0558
32001SOL    HW199595   7.191   7.613  10.227 -0.9704  1.2490 -1.5999
32001SOL    HW299596   7.324   7.681  10.205  0.6934 -0.7919  1.3836
32002SOL     OW99597   4.826   1.276   3.816  0.6369 -0.1027 -0.1243
32002SOL    HW199598   4.860   1.364   3.798 -0.3571  0.1987 -0.5955
32002SOL    HW299599   4.760   1.262   3.748  1.3255 -1.5256 -0.5324
32003SOL     OW99600   5.438   4.923   4.957  0.0401 -0.3278  0.2873
32003SOL    HW199601   5.436   4.983   5.032  0.8813 -0.9808  0.8576
32003SOL    HW299602   5.531   4.915   4.936 -0.2564  1.3277 -2.0920
32004SOL     OW99603   1.849  10.503   5.254  0.7389  0.5507 -0.3823
32004SOL    HW199604   1.844  10.429   5.194  0.9254  0.9474 -0.8959
32004SOL    HW299605   1.763  10.545   5.246  0.8042  0.6699 -0.4643
32005SOL     OW99606  10.920   0.332   6.298  0.2873  0.6573 -0.0900
32005SOL    HW199607  10.997   0.354   6.350 -0.2096  2.7002 -0.1160
32005SOL    HW299608  10.941   0.360   6.209 -0.3342  0.9042 -0.1695
32006SOL     OW99609   7.395   0.321  10.329  0.6428 -0.7616 -0.3169
32006SOL    HW199610   7.319   0.292  10.379  1.3304 -1.9487  0.0765
32006SOL    HW299611   7.434   0.391  10.383  0.4907 -0.9593  0.0553
32007SOL     OW99612   0.848   5.906   0.487 -0.9078 -0.0686  0.3775
32007SOL    HW199613   0.883   5.958   0.414 -1.7248 -2.7092 -2.1102
32007SOL    HW299614   0.915   5.839   0.503 -1.0411  0.0783  1.6534
32008SOL     OW99615   9.665   4.401  11.074 -0.3696 -0.0309  0.0944
32008SOL    HW199616   9.692   4.383  10.984 -3.8496 -1.3492 -0.8431
32008SOL    HW299617   9.604   4.473  11.067 -0.2830  0.2099  1.5169
32009SOL     OW99618   2.260   5.648   8.422  0.2855  0.5058  0.1488
32009SOL    HW199619   2.341   5.602   8.443  0.0437  0.5211  1.2009
32009SOL    HW299620   2.268   5.733   8.466 -0.5701  0.2502  0.8225
32010SOL     OW99621   8.605   0.214   2.200  0.3231 -0.0203 -0.1736
32010SOL    HW199622   8.601   0.261   2.117  1.8695  1.1554  0.3705
32010SOL    HW299623   8.539   0.256   2.256  0.3291  0.1865 -0.3220
32011SOL     OW99624   1.982   4.106   3.843 -0.0324 -0.6841 -0.5221
32011SOL    HW199625   2.028   4.026   3.819  1.5839 -0.0803  0.3557
32011SOL    HW299626   1.982   4.158   3.763 -0.8045 -1.4179 -1.0093
32012SOL     OW99627  10.682   9.584   2.563 -0.2306  0.4500 -0.8675
32012SOL    HW199628  10.727   9.556   2.483  0.1800  3.0709 -1.6510
32012SOL    HW299629  10.597   9.542   2.559  0.5851 -1.2252 -1.5274
32013SOL     OW99630   9.430   8.209   7.340  0.8436 -0.2015  0.4498
32013SOL    HW199631   9.444   8.150   7.415  2.9051  1.7377  1.7043
32013SOL    HW299632   9.370   8.276   7.373 -0.8859 -1.1006 -0.7351
32014SOL     OW99633   0.543  10.669   0.906  0.6260 -0.3891  0.5886
32014SOL    HW199634   0.636  10.684   0.920  0.2846  1.4722  1.1207
32014SOL    HW299635   0.505  10.757   0.901 -0.8253 -1.0533 -1.5780
32015SOL     OW99636   5.788   7.044   1.512 -0.2077 -0.1231  0.0431
32015SOL    HW199637   5.782   6.979   1.442  1.4144  0.2132 -0.4639
32015SOL    HW299638   5.857   7.012   1.569  1.9569  1.9647 -1.2082
32016SOL     OW99639   1.643   0.299   9.346 -0.1855  0.6712  0.5797
32016SOL    HW199640   1.662   0.297   9.252  0.1722  1.5694  0.6150
32016SOL    HW299641   1.570   0.239   9.358  0.2432 -0.0150 -0.1541
32017SOL     OW99642   8.395   1.925   6.296 -0.2096  0.4687 -0.4214
32017SOL    HW199643   8.432   2.007   6.266 -0.8629  1.2274  0.7708
32017SOL    HW299644   8.300   1.940   6.296 -0.2430  0.7054  2.4253
32018SOL     OW99645   9.721   7.995   5.174 -0.2612 -0.0289  0.8898
32018SOL    HW199646   9.630   8.015   5.153  0.1109 -0.6473 -1.7060
32018SOL    HW299647   9.725   7.900   5.176  0.5595 -0.0701 -0.6195
32019SOL     OW99648   9.462   3.703   4.587 -0.2021  0.3654 -0.4628
32019SOL    HW199649   9.467   3.781   4.643 -0.7768 -1.4885  2.3888
32019SOL    HW299650   9.552   3.686   4.562  0.4491  0.0083  1.8767
32020SOL     OW99651   9.105   8.868   7.164 -0.0023 -0.0828 -0.5673
32020SOL    HW199652   9.157   8.925   7.220 -1.5969  0.5410  0.3587
32020SOL    HW299653   9.042   8.827   7.223 -0.7490 -0.5845 -1.6672
32021SOL     OW99654   1.265   5.265   6.848  0.3930 -0.2009  0.1790
32021SOL    HW199655   1.238   5.355   6.866  0.7784 -0.1822  0.6905
32021SOL    HW299656   1.360   5.271   6.833  0.3259 -0.4375 -0.3944
32022SOL     OW99657   7.845   6.793  10.945  0.8418 -0.7968  0.2268
32022SOL    HW199658   7.795   6.776  11.024  0.7234 -1.2352  0.0618
32022SOL    HW299659   7.803   6.739  10.877  0.0834  0.6219 -0.4650
32023SOL     OW99660   0.267   7.861   9.975 -0.2875  0.6100  0.0793
32023SOL    HW199661   0.213   7.938   9.960 -2.6794 -1.1547 -0.8773
32023SOL    HW299662   0.355   7.888   9.945 -1.0623  2.8718 -0.3853
32024SOL     OW99663   5.737   8.189   7.145  0.3116  0.7118 -0.3433
32024SOL    HW199664   5.712   8.096   7.140 -1.5924  1.2131 -0.9667
32024SOL    HW299665   5.733   8.209   7.238 -1.4259  0.6715 -0.3737
32025SOL     OW99666   7.818   3.580   8.744 -0.5142 -0.2123 -0.0058
32025SOL    HW199667   7.900   3.543   8.778 -1.3525 -0.8054  1.4272
32025SOL    HW299668   7.845   3.664   8.706  0.5600  0.3460  1.8372
32026SOL     OW99669   9.652   2.808   1.783 -0.2996 -0.3007  0.7173
32026SOL    HW199670   9.651   2.895   1.823 -1.4101 -0.1803  0.4508
32026SOL    HW299671   9.583   2.759   1.828 -2.2838  0.1492 -1.6285
32027SOL     OW99672   4.215   1.353   2.444  0.4421 -0.2788 -0.1718
32027SOL    HW199673   4.227   1.282   2.507  2.7710  0.1900 -0.0081
32027SOL    HW299674   4.229   1.433   2.494 -0.2322  0.2294 -0.7703
32028SOL     OW99675   3.144   8.328   5.161 -0.0224  0.1936  0.3326
32028SOL    HW199676   3.096   8.308   5.242 -2.6169  2.9170 -0.3270
32028SOL    HW299677   3.175   8.418   5.174 -0.0697  0.5006 -1.4564
32029SOL     OW99678   4.177   2.172   9.621  0.6330 -0.6750 -0.1075
32029SOL    HW199679   4.179   2.236   9.693  0.7437 -1.1356  0.3090
32029SOL    HW299680   4.121   2.102   9.654 -1.1432  0.0860 -1.3346
32030SOL     OW99681   3.278   3.030   8.759  0.2590 -0.0763 -0.0484
32030SOL    HW199682   3.345   2.971   8.793  0.2505 -0.3430 -0.4884
32030SOL    HW299683   3.223   3.049   8.834  1.3232  0.8418  0.5343
32031SOL     OW99684   4.710   1.470   9.246 -0.3276 -0.3274  0.2508
32031SOL    HW199685   4.711   1.475   9.151 -0.5523  2.7540  0.3146
32031SOL    HW299686   4.797   1.499   9.273 -0.9006  0.7957  0.9794
32032SOL     OW99687   1.861   9.860   1.271 -0.4801  0.3302  0.1032
32032SOL    HW199688   1.834   9.940   1.226  0.0900 -0.3819 -1.5895
32032SOL    HW299689   1.935   9.886   1.325 -0.6898  1.0587  0.0477
32033SOL     OW99690   2.451   0.406   2.464 -0.1558  0.1783 -0.7562
32033SOL    HW199691   2.416   0.326   2.425  0.3039 -0.0916 -0.6239
32033SOL    HW299692   2.400   0.419   2.544  0.6976 -0.7652 -0.0404
32034SOL     OW99693   4.801  10.864   7.394  0.3828 -0.2715  0.2879
32034SOL    HW199694   4.873  10.876   7.456  0.0557 -0.5302  0.7185
32034SOL    HW299695   4.824  10.784   7.346 -0.3801 -1.2473  1.4986
32035SOL     OW99696  10.584   2.502   7.079  0.2582  0.2703  0.3095
32035SOL    HW199697  10.674   2.527   7.055  0.5860 -0.2019  1.0244
32035SOL    HW299698  10.568   2.421   7.032  0.4845 -0.0399  0.7529
32036SOL     OW99699   5.393   0.962   7.943 -0.3355 -0.2693  0.5197
32036SOL    HW199700   5.351   1.030   7.891 -0.0590 -1.1204 -0.8812
32036SOL    HW299701   5.400   0.887   7.883  1.5560 -0.7285  1.2530
32037SOL     OW99702   1.815   4.691   9.335 -0.2947 -0.3588 -0.2308
32037SOL    HW199703   1.766   4.616   9.369 -1.0432  0.3143  0.2004
32037SOL    HW299704   1.799   4.761   9.398 -1.0735  0.6915 -1.5450
32038SOL     OW99705   2.123   8.295   7.207  0.0204 -0.2697  0.1931
32038SOL    HW199706   2.206   8.279   7.161  0.0845 -2.0509  0.8621
32038SOL    HW299707   2.149   8.330   7.292 -0.0197  1.1114 -0.3427
32039SOL     OW99708   9.463   7.761   6.703  0.0924 -0.0988 -0.1952
32039SOL    HW199709   9.556   7.744   6.687  0.7407  0.3374  2.5726
32039SOL    HW299710   9.458   7.855   6.720 -0.8035 -0.1816  0.0509
32040SOL     OW99711   1.813   8.056   6.023  0.6336  0.6908  0.1759
32040SOL    HW199712   1.743   8.115   6.051 -0.0085  0.1315 -0.2159
32040SOL    HW299713   1.795   7.974   6.069 -0.1939 -0.1141 -1.4782
32041SOL     OW99714   0.846  10.004   4.727  0.2275 -0.2239  0.3040
32041SOL    HW199715   0.898   9.930   4.696 -1.6599 -1.6234  0.3417
32041SOL    HW299716   0.893  10.034   4.806  2.1057 -0.0497 -0.8133
32042SOL     OW99717   2.726   3.286   3.680 -0.8057 -0.0115 -0.5414
32042SOL    HW199718   2.757   3.298   3.770 -0.9663 -2.1981 -0.1465
32042SOL    HW299719   2.640   3.246   3.689 -1.5843  1.3241 -1.6823
32043SOL     OW99720   1.787   1.900   9.844  0.1192 -0.2323  0.0881
32043SOL    HW199721   1.721   1.832   9.853 -0.6506  0.3856 -0.6986
32043SOL    HW299722   1.840   1.893   9.923 -0.3044 -1.3526  0.2845
32044SOL     OW99723   4.489   6.756   7.209 -0.8020  0.1412  0.3337
32044SOL    HW199724   4.424   6.769   7.140 -1.4635  0.9663  1.0848
32044SOL    HW299725   4.488   6.838   7.259  1.2562  0.4069  0.0196
32045SOL     OW99726  10.248   7.598  10.543  0.4158 -0.8922  0.1524
32045SOL    HW199727  10.339   7.591  10.512  1.3522  2.0199  1.9308
32045SOL    HW299728  10.213   7.673  10.497  0.0690  0.1222  2.0016
32046SOL     OW99729   1.412   3.738   8.099  0.2387  0.0489 -0.0121
32046SOL    HW199730   1.492   3.771   8.141  0.0612 -1.4004  1.6151
32046SOL    HW299731   1.425   3.643   8.095 -1.0632 -0.1301 -0.4884
32047SOL     OW99732   7.988   8.082   0.632 -0.3672  0.3291  0.2524
32047SOL    HW199733   7.942   8.036   0.562  2.5482  0.0703 -1.6912
32047SOL    HW299734   7.994   8.172   0.602 -0.3177  0.5301  0.8595
32048SOL     OW99735   9.364   0.098   0.259 -0.3137  0.4110 -0.1666
32048SOL    HW199736   9.453   0.087   0.224 -0.6473  1.3137 -1.3713
32048SOL    HW299737   9.353   0.025   0.319  0.9515 -0.1916 -0.6212
32049SOL     OW99738   9.844   9.377   3.157  0.3796  0.2506  0.6610
32049SOL    HW199739   9.929   9.415   3.137  0.7798 -0.4831  0.9340
32049SOL    HW299740   9.840   9.298   3.103 -0.1162  0.2676  0.6696
32050SOL     OW99741   7.325   6.832   0.189  0.1849 -0.0884 -0.2210
32050SOL    HW199742   7.388   6.832   0.260 -1.9092  1.4777  1.7969
32050SOL    HW299743   7.273   6.912   0.202 -1.7878 -0.9279 -2.1355
32051SOL     OW99744  10.603   1.195   2.724 -0.1845 -0.1084  0.4132
32051SOL    HW199745  10.531   1.155   2.675 -0.5554  1.6369 -0.5565
32051SOL    HW299746  10.680   1.184   2.668 -0.1649  0.0212  0.4150
32052SOL     OW99747   2.581   7.732   3.766  0.4614  0.3813  0.1808
32052SOL    HW199748   2.583   7.638   3.749 -0.2596 -0.1109  2.4423
32052SOL    HW299749   2.493   7.759   3.740  0.8329  0.5651 -0.9414
32053SOL     OW99750  11.015  10.081   1.917 -0.0538  0.0949 -0.2017
32053SOL    HW199751  10.923  10.066   1.895 -0.1832  0.6222 -0.0301
32053SOL    HW299752  11.019  10.067   2.012  0.6435 -2.9061 -0.5722
32054SOL     OW99753   8.854   5.614   7.571  0.9298 -0.0462  0.0349
32054SOL    HW199754   8.817   5.529   7.547  1.6439 -0.5683  0.7081
32054SOL    HW299755   8.834   5.671   7.497  0.6914 -0.8766 -0.5538
32055SOL     OW99756   3.204   5.133   8.427 -0.0688  0.4779  0.8008
32055SOL    HW199757   3.166   5.048   8.405 -0.8368  0.8780  0.5404
32055SOL    HW299758   3.176   5.149   8.517 -0.2896  0.6514  0.7014
32056SOL     OW99759   1.285   1.820   5.557 -0.0971 -0.0998  0.2042
32056SOL    HW199760   1.243   1.871   5.626  0.6005  1.3568 -0.3916
32056SOL    HW299761   1.314   1.740   5.601 -1.8845 -0.3582  1.0027
32057SOL     OW99762  10.124   0.814   7.146  0.1932 -0.0217 -0.1053
32057SOL    HW199763  10.039   0.773   7.160  0.2679 -1.3625 -2.9272
32057SOL    HW299764  10.113   0.868   7.068  1.4574  1.3511  0.6124
32058SOL     OW99765   1.994   9.558   4.233 -0.2988 -0.4004  0.0212
32058SOL    HW199766   2.038   9.567   4.317  0.7617  1.5840 -0.6896
32058SOL    HW299767   1.922   9.498   4.250  0.4876 -0.8319  2.0933
32059SOL     OW99768   2.150   5.558   9.361  0.0415  0.1405 -0.6780
32059SOL    HW199769   2.069   5.507   9.365 -0.1191  0.4773  1.2044
32059SOL    HW299770   2.209   5.513   9.421  1.2722 -0.0668 -1.9863
32060SOL     OW99771   5.902   8.682   4.821 -0.0201 -0.3091 -0.4094
32060SOL    HW199772   5.937   8.742   4.755 -0.2975  0.2245 -0.0740
32060SOL    HW299773   5.934   8.716   4.905  1.4864 -1.7684 -0.3366
32061SOL     OW99774   1.421   9.220   7.595 -0.1329 -0.4239  0.1157
32061SOL    HW199775   1.434   9.310   7.566  1.1901 -0.0108  1.8569
32061SOL    HW299776   1.471   9.167   7.533  0.5680  0.2195  0.1169
32062SOL     OW99777   0.817   0.959   6.345 -0.5278  0.3549 -0.4707
32062SOL    HW199778   0.874   0.937   6.272 -0.0419  1.0194 -0.3009
32062SOL    HW299779   0.788   1.048   6.327 -1.6703 -0.0280 -0.6455
32063SOL     OW99780   5.200   2.070  11.102 -0.0973  0.0315  0.3898
32063SOL    HW199781   5.160   2.017  11.033  1.1193 -0.4210  0.0097
32063SOL    HW299782   5.151   2.048  11.181  0.8195 -2.2571  0.3997
32064SOL     OW99783   1.957   7.492   6.852 -0.0581 -0.7757  0.2101
32064SOL    HW199784   1.870   7.488   6.892  0.1542 -0.5561  0.7072
32064SOL    HW299785   2.016   7.507   6.926  0.5101 -1.9139  0.0055
32065SOL     OW99786   5.941   3.733   6.681  0.6537  0.4806  0.5022
32065SOL    HW199787   6.011   3.792   6.708  0.3833  0.8238  0.4570
32065SOL    HW299788   5.945   3.733   6.585  2.4926 -1.7855  0.4954
32066SOL     OW99789   3.389   8.202   6.754  0.0222 -0.0453  0.5819
32066SOL    HW199790   3.414   8.115   6.784 -0.4947 -0.5558 -0.3944
32066SOL    HW299791   3.472   8.248   6.740  0.2995 -0.4042  1.0352
32067SOL     OW99792   8.891   3.394   8.190  0.1350  0.0383 -0.8544
32067SOL    HW199793   8.900   3.427   8.100  0.5302  1.4047 -0.3506
32067SOL    HW299794   8.849   3.466   8.237  1.6142  0.0951  0.4539
32068SOL     OW99795   7.807   7.890   5.038  0.3344 -0.3889  0.0324
32068SOL    HW199796   7.896   7.908   5.009  0.5523 -2.0546 -0.4393
32068SOL    HW299797   7.767   7.977   5.048  2.1976  0.4152  0.9410
32069SOL     OW99798   3.945   2.662   8.276  0.4952  0.0815  0.1670
32069SOL    HW199799   3.915   2.731   8.335  0.8323 -0.1744  0.6434
32069SOL    HW299800   4.011   2.705   8.220  0.2329  0.3034  0.0248
32070SOL     OW99801   7.618   9.343   4.351  1.1338 -0.0663 -0.2366
32070SOL    HW199802   7.587   9.277   4.412  1.9357  0.3950  0.6882
32070SOL    HW299803   7.704   9.369   4.384  1.1725  0.8821 -1.0187
32071SOL     OW99804   5.568   4.017   8.714  0.8119 -0.1197  0.0370
32071SOL    HW199805   5.559   4.021   8.619 -0.0352  0.8501  0.1328
32071SOL    HW299806   5.573   4.108   8.742  2.2547 -0.4079  0.8436
32072SOL     OW99807   4.069   6.338   4.620  0.2229  0.1382 -0.1628
32072SOL    HW199808   4.114   6.279   4.559  2.0166  3.0755 -1.9850
32072SOL    HW299809   4.098   6.310   4.707  1.2688 -1.4080 -0.9603
32073SOL     OW99810   6.337   8.406   8.948  0.2140 -0.1710 -0.0707
32073SOL    HW199811   6.309   8.402   8.856  0.6356  0.6925 -0.2369
32073SOL    HW299812   6.255   8.411   8.997 -0.1080  5.1348 -0.6610
32074SOL     OW99813   9.988   7.725  10.838 -0.5171  0.1835 -0.3674
32074SOL    HW199814   9.939   7.778  10.775 -1.4549  1.4849  1.3581
32074SOL    HW299815   9.946   7.744  10.922  1.2899 -0.7450  0.7936
32075SOL     OW99816   0.093   2.642   1.812  0.3265  0.4388 -0.0540
32075SOL    HW199817   0.070   2.625   1.721 -0.3536 -0.0172  0.1876
32075SOL    HW299818   0.168   2.585   1.829 -1.4982 -1.9865  0.5454
32076SOL     OW99819   8.163   9.396  10.775  0.6836  0.4750  0.6098
32076SOL    HW199820   8.092   9.381  10.712 -0.5783  1.5728  1.6890
32076SOL    HW299821   8.127   9.462  10.835  1.4212 -1.2735  3.1156
32077SOL     OW99822   0.141   2.806   9.911 -0.5837 -0.1163 -0.4569
32077SOL    HW199823   0.112   2.752   9.838  0.1536 -0.9688 -0.1334
32077SOL    HW299824   0.067   2.805   9.972 -1.0209  0.2183 -0.9638
32078SOL     OW99825   5.277   1.371   5.534 -0.1863 -0.0749  0.3895
32078SOL    HW199826   5.347   1.424   5.496 -0.6185  0.4494  0.3144
32078SOL    HW299827   5.295   1.282   5.503  0.8638 -0.0762  0.9765
32079SOL     OW99828   1.413  10.948   8.510  0.6096 -0.0391  0.1830
32079SOL    HW199829   1.334  10.902   8.481  0.0656  1.0367 -0.1224
32079SOL    HW299830   1.427  10.919   8.599 -1.6120  1.5677  1.1536
32080SOL     OW99831   3.091   2.177   0.876 -0.0439 -0.6511  0.4919
32080SOL    HW199832   2.997   2.193   0.883  0.2343  2.6695 -1.2406
32080SOL    HW299833   3.103   2.138   0.790  0.2188  0.1469  0.1507
32081SOL     OW99834   2.741  10.215   3.923 -0.1272 -0.1086 -0.6937
32081SOL    HW199835   2.659  10.175   3.953 -0.2945  0.7971  0.0967
32081SOL    HW299836   2.789  10.235   4.003  0.5281  0.0776 -1.1248
32082SOL     OW99837   9.551   8.315   3.795 -0.2275 -0.0362  0.6408
32082SOL    HW199838   9.573   8.363   3.715  1.7281 -0.3382  0.9470
32082SOL    HW299839   9.459   8.333   3.809 -0.1734  1.5108 -0.6852
32083SOL     OW99840   4.460   4.216   9.166  1.1227 -0.2281  0.0888
32083SOL    HW199841   4.432   4.251   9.081  0.7292  0.9143  0.6699
32083SOL    HW299842   4.450   4.121   9.157  1.0374 -0.1237 -1.1178
32084SOL     OW99843   5.364   7.581   0.672  0.3146 -0.1371 -0.0719
32084SOL    HW199844   5.356   7.675   0.654 -0.4997 -0.2456 -0.3244
32084SOL    HW299845   5.410   7.546   0.595 -0.4032 -0.1111 -0.5310
32085SOL     OW99846   7.337   3.477   4.332 -0.0225 -0.3180  0.0739
32085SOL    HW199847   7.257   3.463   4.382 -0.5099 -1.0926 -0.8932
32085SOL    HW299848   7.383   3.392   4.335 -0.2568 -0.5091 -1.0997
32086SOL     OW99849   1.364   9.064   4.212 -0.2701 -0.4597  0.0720
32086SOL    HW199850   1.308   9.128   4.256 -1.7467 -1.2579 -0.5906
32086SOL    HW299851   1.428   9.038   4.279 -1.4738 -0.4506  1.2544
32087SOL     OW99852  11.056   6.296   7.899  0.2263  0.8744  0.7219
32087SOL    HW199853  10.976   6.326   7.855  1.2785  2.2525 -0.3348
32087SOL    HW299854  11.043   6.320   7.991 -1.2524 -0.4406  0.8980
32088SOL     OW99855   7.147   9.955  10.159  0.4760 -0.3705 -0.2684
32088SOL    HW199856   7.224   9.951  10.216  0.0293  0.8126  0.4560
32088SOL    HW299857   7.074   9.973  10.218  0.0159  0.9886 -1.1995
32089SOL     OW99858   6.870  10.211   5.594  0.1187 -0.2300  0.3730
32089SOL    HW199859   6.945  10.269   5.589 -0.7426  0.9566  0.8090
32089SOL    HW299860   6.860  10.192   5.687 -0.2894 -0.1453  0.3501
32090SOL     OW99861   9.965   8.612   6.460 -0.1732  0.0478 -0.4616
32090SOL    HW199862   9.946   8.674   6.530  0.2538  0.0070 -0.3104
32090SOL    HW299863  10.052   8.636   6.429  0.9875 -1.9004  1.1157
32091SOL     OW99864   6.718   8.443   0.416 -0.0139 -0.7635 -0.1399
32091SOL    HW199865   6.718   8.412   0.325  0.9853 -1.2857  0.0275
32091SOL    HW299866   6.800   8.409   0.453  0.6316  1.1901  0.3484
32092SOL     OW99867   9.813   0.337   6.810  0.5349  0.2374  0.6925
32092SOL    HW199868   9.719   0.317   6.808  0.6663 -0.7478  2.3525
32092SOL    HW299869   9.818   0.424   6.849  0.2317  1.2967 -1.5139
32093SOL     OW99870   2.022   8.133   6.300  0.3097 -0.2078 -0.5954
32093SOL    HW199871   1.982   8.047   6.290  0.5254 -0.4157  0.1874
32093SOL    HW299872   2.099   8.131   6.243  0.8880 -0.9202  0.1881
32094SOL     OW99873   6.373   7.511   1.093  0.6353 -0.2338 -0.3567
32094SOL    HW199874   6.430   7.435   1.096  2.9447  1.4249  0.6136
32094SOL    HW299875   6.420   7.574   1.039 -0.9479  0.7331 -0.6723
32095SOL     OW99876   6.717   0.600   5.463 -0.4525 -0.1727 -0.1630
32095SOL    HW199877   6.664   0.528   5.498  1.5216 -1.6818 -0.0803
32095SOL    HW299878   6.722   0.582   5.369  2.1665 -1.7523  0.1779
32096SOL     OW99879   0.623  11.048   4.198 -0.2462  0.2414 -0.2362
32096SOL    HW199880   0.607  11.024   4.290 -1.6870 -0.2252 -0.5741
32096SOL    HW299881   0.715  11.027   4.183 -0.6930 -2.5047  0.3163
32097SOL     OW99882   8.668   2.473   7.205 -0.4501  0.0599  0.0344
32097SOL    HW199883   8.699   2.402   7.148  1.9259  0.1822  1.0333
32097SOL    HW299884   8.601   2.432   7.259  1.3706 -1.7306  1.0986
32098SOL     OW99885   8.800   1.301   9.867 -0.2900  0.2922  0.0864
32098SOL    HW199886   8.836   1.385   9.896 -0.4041  0.1818  0.5568
32098SOL    HW299887   8.771   1.258   9.948 -2.1757  0.7011 -0.3161
32099SOL     OW99888   0.057   4.458  10.322 -0.4813 -0.1580  0.1591
32099SOL    HW199889   0.096   4.525  10.377 -1.9570  0.6566  0.2574
32099SOL    HW299890   0.124   4.438  10.257  0.3005  0.7682  0.6595
32100SOL     OW99891  10.751   6.571   0.829  0.0113  0.2156 -0.6789
32100SOL    HW199892  10.689   6.498   0.822  0.9636 -0.6998  0.0837
32100SOL    HW299893  10.745   6.616   0.745  0.1743 -1.3900 -1.5778
32101SOL     OW99894   3.530   6.638  10.704  0.1016 -0.7950  1.0918
32101SOL    HW199895   3.448   6.684  10.687  1.2101  0.9702  0.2336
32101SOL    HW299896   3.553   6.598  10.620  0.8382 -0.0534  0.9299
32102SOL     OW99897   2.338   3.837   6.956  0.1807  0.4433  0.2992
32102SOL    HW199898   2.411   3.891   6.924 -0.1428  0.3437 -0.6346
32102SOL    HW299899   2.378   3.754   6.980  0.2686  0.0789 -1.0305
32103SOL     OW99900   5.923   3.422   8.813  0.1976 -0.2575  0.4291
32103SOL    HW199901   5.835   3.395   8.838  0.5379 -1.0482  0.8071
32103SOL    HW299902   5.910   3.496   8.755 -0.7350 -0.6754  0.0950
32104SOL     OW99903   3.766   6.805   0.862  0.2366  0.5077  0.2804
32104SOL    HW199904   3.841   6.809   0.921  0.1660  0.6973  0.3546
32104SOL    HW299905   3.753   6.895   0.833  1.4034  0.1881 -1.4218
32105SOL     OW99906  10.031   1.471   4.425 -0.1066 -0.0353  0.0748
32105SOL    HW199907  10.062   1.399   4.480  0.3125  1.0005  1.2531
32105SOL    HW299908   9.936   1.462   4.425 -0.0576 -0.6002  0.1743
32106SOL     OW99909   8.720   0.910   5.809 -0.1997  0.0541 -0.1471
32106SOL    HW199910   8.800   0.961   5.793 -0.1760 -0.0479 -0.3630
32106SOL    HW299911   8.649   0.967   5.779 -0.1090 -0.4152 -1.3389
32107SOL     OW99912   9.241   1.901   4.266 -0.2506 -0.2429  0.0580
32107SOL    HW199913   9.285   1.817   4.251 -0.6258 -0.2225 -1.3423
32107SOL    HW299914   9.168   1.880   4.323 -0.3408 -0.8787 -0.2819
32108SOL     OW99915   2.019  10.100   8.576  0.6206 -0.6447 -0.2595
32108SOL    HW199916   2.052  10.097   8.486 -0.7129 -1.4304 -0.7440
32108SOL    HW299917   2.083  10.050   8.627  1.4426 -0.1060 -0.7337
32109SOL     OW99918   7.212   2.572   9.152 -0.3846 -0.1385  0.3710
32109SOL    HW199919   7.210   2.654   9.103  1.8094  0.0332  0.4712
32109SOL    HW299920   7.173   2.594   9.237 -2.0527  0.1425 -0.4275
32110SOL     OW99921   9.303  10.157   1.235  0.0726  0.1868 -0.4559
32110SOL    HW199922   9.380  10.138   1.180 -1.7155 -0.9339 -2.7834
32110SOL    HW299923   9.279  10.071   1.271 -0.8744  0.2597 -0.8959
32111SOL     OW99924   9.873   8.097   1.368 -0.4666 -0.0359 -0.1171
32111SOL    HW199925   9.803   8.161   1.351 -0.5975  0.0758  0.8015
32111SOL    HW299926   9.945   8.149   1.403 -1.1836 -0.5436  2.3449
32112SOL     OW99927   8.847   2.962   8.877 -0.1978  0.3416 -0.6130
32112SOL    HW199928   8.874   2.876   8.844 -0.9077 -0.0823 -0.1256
32112SOL    HW299929   8.767   2.983   8.827 -2.0017 -0.8700  1.5831
32113SOL     OW99930   0.375   1.321   4.366  0.2029  0.0943  0.7854
32113SOL    HW199931   0.286   1.354   4.353  0.7770  1.6675  0.6202
32113SOL    HW299932   0.365   1.247   4.425 -1.4802 -1.3631 -1.2104
32114SOL     OW99933  10.939   9.122   6.301  0.4040  0.4550  0.5163
32114SOL    HW199934  10.902   9.038   6.330 -0.0533  0.4279 -0.1412
32114SOL    HW299935  10.865   9.169   6.264  0.9964  0.4555 -0.6993
32115SOL     OW99936   8.736   6.854   8.594 -0.2575 -0.0269  0.1859
32115SOL    HW199937   8.674   6.781   8.584  1.2400 -1.5502  1.3529
32115SOL    HW299938   8.816   6.824   8.551  0.4707  0.8243  0.8969
32116SOL     OW99939  10.788   4.495   6.260 -0.2390 -0.3225 -0.5132
32116SOL    HW199940  10.814   4.580   6.224  1.4337 -0.5480  0.0687
32116SOL    HW299941  10.731   4.457   6.193 -0.4117  0.9372 -1.1095
32117SOL     OW99942   1.138   2.611   0.061  0.1446 -0.3784  0.5549
32117SOL    HW199943   1.152   2.668  -0.015 -0.5481 -0.1840  0.5598
32117SOL    HW299944   1.214   2.554   0.063 -0.6439 -1.6125 -1.3799
32118SOL     OW99945   9.727   0.478   8.395  0.5863  0.0104 -0.2581
32118SOL    HW199946   9.795   0.483   8.461  0.8907  1.0651 -0.6223
32118SOL    HW299947   9.647   0.456   8.443  0.8441  0.5501  0.4271
32119SOL     OW99948   0.866   1.739   9.315 -0.3510  0.2772  0.1406
32119SOL    HW199949   0.902   1.660   9.275 -0.3391  0.5189 -0.3266
32119SOL    HW299950   0.775   1.742   9.286 -0.3453  0.4493  0.1392
32120SOL     OW99951   7.147   5.966   1.867  0.6469 -0.3129  0.2600
32120SOL    HW199952   7.094   6.008   1.935 -0.3259  0.8106 -1.0949
32120SOL    HW299953   7.188   6.039   1.821  1.8969 -1.0886  0.1025
32121SOL     OW99954   5.295   8.795   6.683 -0.0202 -0.8266 -0.4615
32121SOL    HW199955   5.323   8.865   6.625 -0.1159 -0.5112 -0.1290
32121SOL    HW299956   5.263   8.726   6.625 -1.8652  0.2071 -0.7524
32122SOL     OW99957   2.954   1.566   0.877 -0.2366 -0.0500 -0.1910
32122SOL    HW199958   2.869   1.536   0.844 -0.4653 -1.6340  1.6386
32122SOL    HW299959   2.950   1.661   0.872 -1.0905 -0.1566 -2.5243
32123SOL     OW99960   0.871   9.288   0.061  0.7651 -0.4494  0.2905
32123SOL    HW199961   0.816   9.366   0.051 -0.1817 -1.2024 -0.5510
32123SOL    HW299962   0.883   9.280   0.156  2.9120  2.0755  0.3416
32124SOL     OW99963   6.974   6.932   3.451 -0.3368  0.0770 -0.1491
32124SOL    HW199964   7.038   6.873   3.411  0.1766 -0.4484  1.3635
32124SOL    HW299965   6.937   6.882   3.524 -1.5120  0.8558 -0.1746
32125SOL     OW99966   5.469  10.106   9.691  0.0912 -0.1525 -0.3032
32125SOL    HW199967   5.430  10.185   9.728  0.3522  0.1151 -0.5947
32125SOL    HW299968   5.501  10.133   9.605  0.9269 -0.3639 -0.0672
32126SOL     OW99969   7.540   7.433   2.108  0.0291 -0.6022  0.4307
32126SOL    HW199970   7.514   7.395   2.192 -1.4885 -0.1972  0.1698
32126SOL    HW299971   7.463   7.425   2.052  0.5808  0.3172 -0.5151
32127SOL     OW99972   2.811   1.645   3.747 -0.0787  0.1840 -0.0240
32127SOL    HW199973   2.797   1.563   3.699  2.5894 -0.4793  0.1797
32127SOL    HW299974   2.869   1.697   3.690  0.2840  0.8552  0.9314
32128SOL     OW99975  10.744   0.334   5.873  0.3398 -0.2253 -0.5780
32128SOL    HW199976  10.813   0.395   5.848 -1.4433  1.3342 -1.9873
32128SOL    HW299977  10.714   0.297   5.790 -2.1979  1.1165 -0.3588
32129SOL     OW99978   9.629   0.566   7.784 -0.1601 -0.6065 -0.4936
32129SOL    HW199979   9.711   0.519   7.802 -0.3040 -0.8885 -0.5753
32129SOL    HW299980   9.643   0.607   7.698 -0.4723 -1.4701 -0.9604
32130SOL     OW99981   2.882  10.405   9.113  0.0417  0.4876 -0.1919
32130SOL    HW199982   2.976  10.419   9.114  0.4575 -1.8574  0.9673
32130SOL    HW299983   2.851  10.456   9.038  2.3875  0.3445 -1.3592
32131SOL     OW99984   6.550   4.381   2.645 -0.1927  0.3630 -0.4504
32131SOL    HW199985   6.503   4.332   2.578 -0.4058 -1.8895  1.2250
32131SOL    HW299986   6.641   4.351   2.638 -0.6753 -2.0227  1.8936
32132SOL     OW99987   3.499   2.790   2.546 -0.2604  0.3131  0.4244
32132SOL    HW199988   3.491   2.698   2.571 -0.4868  0.6197  1.5508
32132SOL    HW299989   3.503   2.837   2.630 -0.6930  1.3777 -0.1359
32133SOL     OW99990   3.092   3.987   1.455  0.1666 -0.0281  0.1974
32133SOL    HW199991   3.087   4.081   1.439 -0.4939 -0.0582  0.1742
32133SOL    HW299992   3.070   3.978   1.548 -0.2137 -0.1863  0.0965
32134SOL     OW99993   1.424   2.860   5.404  0.0709 -0.0215 -0.2724
32134SOL    HW199994   1.478   2.824   5.475 -1.8242 -2.0849  0.2264
32134SOL    HW299995   1.465   2.827   5.324  0.4124 -0.3388  0.0278
32135SOL     OW99996  11.006   1.752   4.376  1.1279 -0.2595  0.0631
32135SOL    HW199997  10.936   1.781   4.435  0.5053 -1.8408  0.1428
32135SOL    HW299998  11.070   1.824   4.378 -0.1977  0.9641  0.4389
32136SOL     OW99999   4.730   8.292   9.636  0.2244  0.4871  0.1621
32136SOL    HW1    0   4.786   8.264   9.564 -1.7418  0.3559 -1.3814
32136SOL    HW2    1   4.766   8.376   9.664  0.5652  0.9078 -1.4857
32137SOL     OW    2   9.586   1.812   5.723 -0.2838  0.5081  0.5317
32137SOL    HW1    3   9.642   1.794   5.647  0.8192 -0.0958  1.4529
32137SOL    HW2    4   9.510   1.858   5.687  0.1464  0.1067 -0.9490
32138SOL     OW    5  10.645   8.763  11.002 -0.2401  0.2667 -0.2539
32138SOL    HW1    6  10.701   8.786  11.076 -1.9156 -1.0892  1.5394
32138SOL    HW2    7  10.599   8.845  10.981 -1.4967  0.1757  1.8470
32139SOL     OW    8   1.133   8.010   4.078 -0.0520  0.4156 -0.0858
32139SOL    HW1    9   1.075   7.936   4.097 -0.4169  0.7396  0.0823
32139SOL    HW2   10   1.211   7.970   4.041  1.3071 -0.4244  3.3125
32140SOL     OW   11  10.590   1.170   8.015  0.1536  0.0737  0.1686
32140SOL    HW1   12  10.500   1.194   7.994  0.5723  1.6944  0.0826
32140SOL    HW2   13  10.606   1.206   8.102  1.3603  1.7844 -0.6924
32141SOL     OW   14   1.344  11.062   6.269 -0.1667  0.0046 -0.1159
32141SOL    HW1   15   1.406  11.091   6.202 -0.3184  3.2683  0.9461
32141SOL    HW2   16   1.311  11.144   6.307 -3.2769 -1.6443  1.0542
32142SOL     OW   17   0.760   0.383   5.592  0.0520  0.1318  0.2338
32142SOL    HW1   18   0.797   0.312   5.644 -0.3484 -0.5128 -0.3397
32142SOL    HW2   19   0.761   0.350   5.502  0.9762  1.3326 -0.2187
32143SOL     OW   20   2.259   9.071   1.602 -0.5302  0.2846  0.1290
32143SOL    HW1   21   2.217   9.008   1.543 -0.1195 -0.8538  1.0024
32143SOL    HW2   22   2.191   9.093   1.666 -0.8404  1.1743 -0.4925
32144SOL     OW   23   7.759   2.340   9.776 -0.1144  0.8078 -0.4944
32144SOL    HW1   24   7.851   2.358   9.795  0.4175 -0.8065 -1.3261
32144SOL    HW2   25   7.727   2.418   9.732  1.5925  0.4402 -2.5075
32145SOL     OW   26   4.160   7.569   9.630  0.2961  0.0901  0.0232
32145SOL    HW1   27   4.206   7.630   9.572 -1.7563  0.9025 -0.8418
32145SOL    HW2   28   4.184   7.482   9.598  2.3789  0.4087  0.5662
32146SOL     OW   29   5.231   7.890   1.612  0.1130 -0.4725 -0.2833
32146SOL    HW1   30   5.169   7.884   1.686 -0.5800 -1.0543 -0.8877
32146SOL    HW2   31   5.301   7.947   1.644 -1.0934  0.8193  0.1684
32147SOL     OW   32   3.758   9.189   0.060  0.1177 -0.5258  0.3725
32147SOL    HW1   33   3.780   9.115   0.117 -1.3691 -1.8912 -0.7386
32147SOL    HW2   34   3.664   9.202   0.072  0.4036  1.5291  0.8716
32148SOL     OW   35  10.095  10.019  10.442 -0.1941 -0.4058 -0.3089
32148SOL    HW1   36  10.045  10.057  10.370 -0.1627 -0.8467 -0.5698
32148SOL    HW2   37  10.186  10.024  10.413 -0.1777 -0.5486 -0.2842
32149SOL     OW   38   7.276   0.156   6.543  0.2534  0.1454  0.1914
32149SOL    HW1   39   7.295   0.067   6.515  0.0528  0.0635  0.3166
32149SOL    HW2   40   7.183   0.167   6.524 -0.5679 -0.7940  3.2313
32150SOL     OW   41   7.242   8.965   2.375  0.2316 -0.2496  0.3690
32150SOL    HW1   42   7.262   8.977   2.282  0.1004 -1.1784  0.2086
32150SOL    HW2   43   7.327   8.973   2.418  0.2920  0.1976  0.1671
32151SOL     OW   44   2.133   0.645   2.596  0.3957  0.2232  0.4873
32151SOL    HW1   45   2.188   0.575   2.632 -0.0092  0.1114  0.8992
32151SOL    HW2   46   2.081   0.676   2.670 -1.1403 -0.6548 -0.1513
32152SOL     OW   47   1.893   6.745   3.669 -0.3363 -0.0335  0.3099
32152SOL    HW1   48   1.982   6.773   3.647  0.1081 -1.5788  0.0637
32152SOL    HW2   49   1.855   6.820   3.715  1.2367  0.4934  0.7990
32153SOL     OW   50   0.199   6.507   1.636 -0.1968  0.1330  0.5843
32153SOL    HW1   51   0.248   6.510   1.719  0.7797  0.8064 -0.0009
32153SOL    HW2   52   0.234   6.579   1.585 -0.3243 -0.6928 -0.6967
32154SOL     OW   53   4.949   9.046   4.124 -0.0929  0.2840 -0.1922
32154SOL    HW1   54   4.925   8.964   4.081  0.4565 -0.4731  0.8856
32154SOL    HW2   55   4.912   9.039   4.212  0.7867  0.7544  0.2324
32155SOL     OW   56   0.974   4.904   7.344 -0.4951  0.2094  0.1517
32155SOL    HW1   57   0.879   4.897   7.346 -0.5721  0.8292  3.0274
32155SOL    HW2   58   1.005   4.819   7.373 -0.3229  0.8832  2.0707
32156SOL     OW   59  10.352   9.838   2.012 -0.1264 -0.2365 -0.0361
32156SOL    HW1   60  10.297   9.760   2.011 -0.9159  0.2353  1.9349
32156SOL    HW2   61  10.441   9.805   2.009 -0.4707 -1.1264 -0.7861
32157SOL     OW   62   5.381   0.079   5.815 -0.2970 -0.2197  0.0852
32157SOL    HW1   63   5.419   0.043   5.895 -0.4896  1.2168  0.8492
32157SOL    HW2   64   5.290   0.098   5.838 -0.6413 -0.7417 -0.7965
32158SOL     OW   65   7.344   9.161   1.302  0.2107  0.8069 -0.1245
32158SOL    HW1   66   7.396   9.223   1.354  2.6318 -0.0795 -1.3434
32158SOL    HW2   67   7.378   9.170   1.213 -1.7995  0.1701 -1.0122
32159SOL     OW   68   3.170   7.022   5.310  0.4029  0.3846  0.0530
32159SOL    HW1   69   3.198   7.086   5.375  0.6672  0.5309 -0.2060
32159SOL    HW2   70   3.221   6.944   5.330  1.5977  0.8798 -0.8915
32160SOL     OW   71   6.214   8.181   0.032 -0.4026 -0.0103 -0.0120
32160SOL    HW1   72   6.245   8.091   0.022 -0.2274  0.1054 -0.5558
32160SOL    HW2   73   6.236   8.204   0.122 -1.8019 -1.0133  0.6263
32161SOL     OW   74   8.311  11.063   7.597  0.2288  0.0826 -0.3529
32161SOL    HW1   75   8.326  11.157   7.595  0.1073  0.1094 -0.1157
32161SOL    HW2   76   8.384  11.025   7.547 -0.1274  0.3424 -1.0784
32162SOL     OW   77   8.719  10.105  10.587 -0.0628 -0.4122  0.0343
32162SOL    HW1   78   8.667  10.030  10.616 -0.4737 -0.9216 -1.8995
32162SOL    HW2   79   8.672  10.140  10.512  0.8865  0.9151  0.0213
32163SOL     OW   80  10.723   5.602   6.396 -0.5381  0.3072  0.5826
32163SOL    HW1   81  10.774   5.618   6.476 -0.3544  1.0224  0.3321
32163SOL    HW2   82  10.675   5.683   6.383 -0.4597  0.2432 -0.1107
32164SOL     OW   83  10.912   5.987   9.004  0.7863  0.0312  0.1460
32164SOL    HW1   84  10.871   5.966   8.920  2.1165 -0.6222 -0.3607
32164SOL    HW2   85  10.854   5.948   9.069  0.8328 -1.2666 -0.5669
32165SOL     OW   86   1.064   4.178   0.889  0.2077  0.3868  0.2299
32165SOL    HW1   87   1.007   4.101   0.888  0.4021  0.2435 -0.0795
32165SOL    HW2   88   1.003   4.253   0.886  0.0490  0.2282 -0.6436
32166SOL     OW   89   4.734   4.225   4.066 -0.0347 -0.7488 -0.4875
32166SOL    HW1   90   4.753   4.247   4.157  1.3872  0.1947 -0.9703
32166SOL    HW2   91   4.651   4.178   4.069 -0.1294 -0.5286  1.2622
32167SOL     OW   92   6.958   9.432  11.017  0.0560 -0.0411 -1.1249
32167SOL    HW1   93   6.999   9.397  10.938  0.2267  0.9901 -1.5164
32167SOL    HW2   94   6.868   9.451  10.990  0.4647  1.5760 -1.5138
32168SOL     OW   95   4.172   7.004   3.497 -0.0999  0.1111 -0.4462
32168SOL    HW1   96   4.240   7.037   3.439 -1.0159  0.7297 -1.1951
32168SOL    HW2   97   4.090   7.035   3.458 -0.7951 -0.3701  0.5944
32169SOL     OW   98  10.336   6.242   6.926  0.2270 -0.0355  0.2901
32169SOL    HW1   99  10.365   6.334   6.935 -0.9818  0.1941  3.0133
32169SOL    HW2  100  10.362   6.202   7.009 -0.6135 -1.7887 -0.2589
32170SOL     OW  101   7.791   5.146   7.193 -0.1279  0.0173 -0.5778
32170SOL    HW1  102   7.761   5.111   7.110  0.6988  1.3857 -1.4898
32170SOL    HW2  103   7.714   5.190   7.230  0.0520  1.3600 -1.7176
32171SOL     OW  104   2.708   0.620   2.003  0.1661  0.0433 -0.0691
32171SOL    HW1  105   2.631   0.593   2.054  1.2890  1.6692  2.6894
32171SOL    HW2  106   2.756   0.538   1.989 -2.0021 -1.0327 -1.9680
32172SOL     OW  107   1.996   5.889   0.015 -0.7645  0.1651  0.0967
32172SOL    HW1  108   1.998   5.930  -0.071 -2.0830 -0.3135 -0.1918
32172SOL    HW2  109   1.952   5.953   0.071  2.2489  1.5584  1.0878
32173SOL     OW  110  11.065  10.272   4.173  0.7140  0.1995  0.8777
32173SOL    HW1  111  11.036  10.182   4.185 -1.0795  0.5109 -0.6962
32173SOL    HW2  112  11.131  10.267   4.103 -0.9739  0.3077 -0.7866
32174SOL     OW  113   8.505   5.984   2.623  0.0883 -0.0228  0.3338
32174SOL    HW1  114   8.569   5.914   2.626  0.6902  0.5347  0.9947
32174SOL    HW2  115   8.550   6.057   2.580  0.3190  0.7446  1.7987
32175SOL     OW  116   8.876   6.754   8.362  0.4975 -0.1526  0.1748
32175SOL    HW1  117   8.859   6.663   8.385  0.6260 -0.8906 -2.3675
32175SOL    HW2  118   8.852   6.761   8.269 -0.2445  2.6116  0.4665
32176SOL     OW  119   6.059   5.015   1.837 -0.5073 -0.4319  0.4942
32176SOL    HW1  120   6.041   4.935   1.788 -1.3847 -0.0292  0.1323
32176SOL    HW2  121   5.974   5.041   1.873 -0.4708  0.9285 -0.3149
32177SOL     OW  122   6.342   4.477   9.966 -0.2375  0.0032 -0.4221
32177SOL    HW1  123   6.363   4.531  10.041  2.5731 -2.0127  0.4183
32177SOL    HW2  124   6.380   4.523   9.891 -1.0875  0.9212 -0.3021
32178SOL     OW  125  10.346   5.607   2.115 -0.3879  0.2874  0.0729
32178SOL    HW1  126  10.346   5.583   2.208 -2.0226 -0.5703 -0.1094
32178SOL    HW2  127  10.308   5.695   2.114  0.8880  0.8533  0.3164
32179SOL     OW  128   4.271   9.102   0.336  0.1839 -0.1433 -0.1717
32179SOL    HW1  129   4.242   9.134   0.250  0.5189  1.1951  0.1840
32179SOL    HW2  130   4.198   9.123   0.395 -0.0234 -1.0108 -0.1045
32180SOL     OW  131   5.262   5.426   9.187  0.0128 -0.0765  0.3199
32180SOL    HW1  132   5.252   5.421   9.282  2.6113  0.1633  0.6846
32180SOL    HW2  133   5.324   5.498   9.173 -0.3700 -0.0439 -1.5729
32181SOL     OW  134   5.119   5.983   6.740  0.2492 -0.4605  0.4237
32181SOL    HW1  135   5.124   6.055   6.804 -1.4346 -0.1940  0.2939
32181SOL    HW2  136   5.140   5.905   6.791  1.8351  0.0629  0.6325
32182SOL     OW  137   6.298   2.795   1.819  0.3203 -0.2054 -0.3931
32182SOL    HW1  138   6.333   2.713   1.786  0.6987 -0.2109  0.0173
32182SOL    HW2  139   6.233   2.821   1.753  0.7655 -0.4223 -0.9316
32183SOL     OW  140   4.878   6.751   7.710  0.1093  0.1683  0.1845
32183SOL    HW1  141   4.933   6.788   7.778  0.3605 -0.4257  0.3152
32183SOL    HW2  142   4.903   6.798   7.630 -0.8553  1.5219  0.6576
32184SOL     OW  143   3.267   6.969   1.366  0.5009  0.5562 -0.7616
32184SOL    HW1  144   3.337   7.033   1.380  0.5253  0.5685 -0.9381
32184SOL    HW2  145   3.229   6.956   1.453  1.4426 -0.2895 -0.4491
32185SOL     OW  146   4.980   8.730   9.751 -0.5613  0.0140 -0.2562
32185SOL    HW1  147   5.058   8.681   9.777 -0.8421 -1.5571 -2.1396
32185SOL    HW2  148   5.014   8.816   9.726  0.1983  0.2161  1.3050
32186SOL     OW  149   2.332   8.483   3.611 -0.0249 -0.4000  0.5522
32186SOL    HW1  150   2.378   8.408   3.572  2.3124  0.3575  1.7239
32186SOL    HW2  151   2.315   8.456   3.701 -1.9581 -0.6451  0.1666
32187SOL     OW  152   5.998   7.989   4.870  0.0774 -0.0543  0.1409
32187SOL    HW1  153   5.939   8.049   4.916 -0.5425  0.0656 -0.7681
32187SOL    HW2  154   6.066   8.045   4.833 -0.1548  0.0171 -0.1835
32188SOL     OW  155   2.378   3.374   8.196 -1.1181  0.0662  0.6032
32188SOL    HW1  156   2.406   3.295   8.242  2.1912  0.3929 -0.5854
32188SOL    HW2  157   2.403   3.446   8.254  1.1806  0.3854 -0.6635
32189SOL     OW  158   1.375   4.799  10.093  0.4587  0.0668  0.2102
32189SOL    HW1  159   1.366   4.892  10.073  1.2125  0.3698  1.1918
32189SOL    HW2  160   1.457   4.793  10.142  1.2116 -1.3466 -1.1287
32190SOL     OW  161   7.505   5.889   3.248 -0.4361  0.1959  0.0404
32190SOL    HW1  162   7.468   5.908   3.161  3.4913 -1.1408 -2.1576
32190SOL    HW2  163   7.582   5.946   3.253  1.5343 -2.3925  0.9432
32191SOL     OW  164   6.320  10.602   5.666  0.3160  0.0334  0.1409
32191SOL    HW1  165   6.399  10.621   5.716 -0.2988  1.3716  0.6607
32191SOL    HW2  166   6.284  10.688   5.645 -0.9200 -0.5516 -0.2285
32192SOL     OW  167   2.765   3.190   7.830  0.8016  0.1222 -0.1183
32192SOL    HW1  168   2.671   3.206   7.822  0.7353 -0.6605 -1.1947
32192SOL    HW2  169   2.785   3.206   7.922 -0.4651 -0.1129  0.2140
32193SOL     OW  170   5.446   2.348  10.403  0.1613 -0.0055  0.6559
32193SOL    HW1  171   5.432   2.298  10.484 -1.9446 -2.0901 -0.8509
32193SOL    HW2  172   5.386   2.307  10.340  1.1767  2.0288 -1.7611
32194SOL     OW  173   9.939   2.040   5.393  0.2662  0.6800  0.1357
32194SOL    HW1  174   9.854   2.031   5.349  0.3091  0.6970  0.0489
32194SOL    HW2  175   9.989   1.964   5.366  0.2394  0.6103  0.2773
32195SOL     OW  176   5.832   7.737   7.725  0.4709  0.2785  0.3311
32195SOL    HW1  177   5.893   7.810   7.716  0.2267  0.3227 -1.1095
32195SOL    HW2  178   5.832   7.718   7.819  1.8405  1.0048  0.5064
32196SOL     OW  179   2.853   2.208   2.665  0.4351 -0.1515 -0.3895
32196SOL    HW1  180   2.772   2.224   2.616  0.4546  1.7171  0.1084
32196SOL    HW2  181   2.824   2.189   2.754  0.5429  2.2225  0.2023
32197SOL     OW  182   2.887   5.742   8.331  0.0273 -0.6108  0.0324
32197SOL    HW1  183   2.791   5.745   8.326 -0.0478 -1.2968  0.8424
32197SOL    HW2  184   2.911   5.665   8.280  0.0804 -0.8894  0.4669
32198SOL     OW  185   2.568   0.810   5.728  0.3864  0.6450  0.2255
32198SOL    HW1  186   2.539   0.722   5.703  0.1729  0.7200  0.2023
32198SOL    HW2  187   2.663   0.805   5.727  0.3961  0.7066 -0.8508
32199SOL     OW  188   8.467   8.018   6.563 -0.1370 -0.1231  0.0453
32199SOL    HW1  189   8.541   8.058   6.608  0.3034 -0.3667 -0.4519
32199SOL    HW2  190   8.453   7.935   6.609 -0.7489  0.3710  0.7742
32200SOL     OW  191   0.053   3.618   9.435 -0.1165 -0.3336 -0.7925
32200SOL    HW1  192   0.025   3.677   9.504 -2.0971  2.2833 -3.5719
32200SOL    HW2  193   0.032   3.530   9.467 -2.7574  0.8951  1.1467
32201SOL     OW  194   6.986   0.612   8.561 -0.0532 -0.0275 -0.2275
32201SOL    HW1  195   7.062   0.618   8.619 -0.0041  0.9755 -0.3672
32201SOL    HW2  196   6.917   0.572   8.614 -0.4991  2.2783  1.0692
32202SOL     OW  197   3.420   7.638   5.002 -0.3396 -0.0033 -0.5379
32202SOL    HW1  198   3.385   7.549   5.014  1.2546 -0.7695 -1.2546
32202SOL    HW2  199   3.512   7.631   5.029 -0.3033  1.5637 -0.1666
32203SOL     OW  200   8.040   9.167  10.954  0.2827  0.4024 -0.1231
32203SOL    HW1  201   8.006   9.256  10.959  1.1081  0.7561 -0.5188
32203SOL    HW2  202   8.047   9.138  11.046  1.6294  1.3917  0.1075
32204SOL     OW  203   2.458   5.613   4.419  0.2459  0.7487 -0.0565
32204SOL    HW1  204   2.366   5.604   4.444  0.5637 -0.6270  0.7600
32204SOL    HW2  205   2.464   5.573   4.332  0.3000 -0.5151  0.4965
32205SOL     OW  206   8.326  10.349   7.981  0.3383  0.5161 -0.2805
32205SOL    HW1  207   8.342  10.398   7.900  1.1668 -0.5071 -0.7657
32205SOL    HW2  208   8.411  10.346   8.024  0.4275 -0.8944 -0.5105
32206SOL     OW  209   3.772   4.783   3.361 -0.0674 -0.6932  0.3713
32206SOL    HW1  210   3.688   4.737   3.356 -0.0571 -0.7771  0.9062
32206SOL    HW2  211   3.775   4.820   3.449 -0.4950  1.1706 -0.3528
32207SOL     OW  212   6.486   8.787   6.543 -0.3280 -0.3079 -0.3383
32207SOL    HW1  213   6.558   8.813   6.486 -0.4375  0.4739 -0.1287
32207SOL    HW2  214   6.527   8.734   6.611  0.0883  0.3071 -0.1037
32208SOL     OW  215   6.523   8.758   4.637 -0.1493 -0.1560 -0.1653
32208SOL    HW1  216   6.604   8.795   4.602 -0.9856  0.6009 -1.4166
32208SOL    HW2  217   6.467   8.834   4.651 -1.3448 -0.7857 -1.2580
32209SOL     OW  218   7.355   5.858   7.718 -0.1811  0.0136  0.0205
32209SOL    HW1  219   7.313   5.911   7.650 -1.6810 -1.7246 -0.4601
32209SOL    HW2  220   7.442   5.840   7.682  0.2124  1.7259  0.0035
32210SOL     OW  221   9.269   3.135   2.537 -0.4771 -0.0104 -0.1867
32210SOL    HW1  222   9.359   3.113   2.558 -0.6414 -0.5319 -0.0182
32210SOL    HW2  223   9.254   3.219   2.581 -0.0547  0.1220 -0.2879
32211SOL     OW  224   7.670   9.274   6.110  0.2341 -0.5499 -0.2624
32211SOL    HW1  225   7.673   9.194   6.058  2.4366  0.9329 -2.6277
32211SOL    HW2  226   7.761   9.300   6.121 -0.3080  0.6563  2.1620
32212SOL     OW  227   4.203   1.174  10.644 -0.1399  0.7152 -0.2818
32212SOL    HW1  228   4.186   1.150  10.553 -0.1905  0.9046 -0.3227
32212SOL    HW2  229   4.120   1.211  10.675 -0.6984 -1.0426  0.4004
32213SOL     OW  230   8.089   4.247   1.087  0.2686  0.1593  0.2040
32213SOL    HW1  231   8.046   4.325   1.122 -0.4076  0.1198 -0.5121
32213SOL    HW2  232   8.179   4.252   1.120 -0.0565  0.6855  1.0220
32214SOL     OW  233   4.987  10.980   9.299 -0.2415 -0.1761  0.4054
32214SOL    HW1  234   4.896  10.991   9.327 -0.2444  1.7848 -0.2537
32214SOL    HW2  235   4.983  10.980   9.204  0.5249  0.6963  0.3630
32215SOL     OW  236   3.556   1.229   8.799  0.2568  0.5306 -0.5680
32215SOL    HW1  237   3.471   1.271   8.813  0.2439 -0.0665  1.4733
32215SOL    HW2  238   3.537   1.155   8.742 -1.2719 -1.4683  2.3155
32216SOL     OW  239   7.231   8.079   2.288 -0.2931  0.4325 -1.0022
32216SOL    HW1  240   7.174   8.046   2.358 -2.5017  1.7301 -2.0604
32216SOL    HW2  241   7.305   8.019   2.287 -0.9836 -0.5817  1.3464
32217SOL     OW  242   0.077   6.987   3.915  0.6869  0.2604 -0.1321
32217SOL    HW1  243   0.082   6.916   3.851  0.9553  0.3508 -0.2153
32217SOL    HW2  244   0.006   6.963   3.974  0.8466 -0.1302 -0.0984
32218SOL     OW  245   3.947   0.027   7.957  0.5194  0.1269 -0.6150
32218SOL    HW1  246   3.995   0.021   8.039  0.1750 -0.3968 -0.4499
32218SOL    HW2  247   3.906   0.114   7.960 -1.2461 -0.6950  0.7565
32219SOL     OW  248   1.486   2.248   4.721  0.6383  0.0902 -0.4202
32219SOL    HW1  249   1.532   2.311   4.777 -0.1045  1.6434 -1.5021
32219SOL    HW2  250   1.536   2.167   4.731  1.5341  0.7786  1.1352
32220SOL     OW  251   1.398   6.146   7.921  0.0682  0.2622  0.4873
32220SOL    HW1  252   1.364   6.085   7.856  0.4159  2.0318 -1.5012
32220SOL    HW2  253   1.484   6.111   7.944  1.8325  1.5843 -3.2486
32221SOL     OW  254   8.563   5.083   5.835 -0.2569  0.2208 -0.1822
32221SOL    HW1  255   8.506   5.027   5.889 -1.3289  2.2156  0.8682
32221SOL    HW2  256   8.614   5.133   5.898  1.3997 -0.2312 -1.1153
32222SOL     OW  257   6.234   7.092   1.757  0.7719 -0.1030  0.0263
32222SOL    HW1  258   6.303   7.157   1.744  0.7068  0.1664  0.9778
32222SOL    HW2  259   6.240   7.068   1.850  0.7844 -1.4495 -0.2963
32223SOL     OW  260   8.366   4.133  10.500  0.0343 -0.1235 -0.0494
32223SOL    HW1  261   8.443   4.075  10.495  0.8147  0.6209  1.9710
32223SOL    HW2  262   8.310   4.092  10.566 -0.5263  0.1767 -0.3405
32224SOL     OW  263   6.907   5.304   3.795  0.0437  0.1523 -0.6013
32224SOL    HW1  264   6.876   5.231   3.848  0.3235  0.6303  0.2456
32224SOL    HW2  265   7.001   5.310   3.815  0.0792  0.5585 -0.8847
32225SOL     OW  266  10.140  10.412   5.669 -0.1443 -0.3134 -0.1141
32225SOL    HW1  267  10.134  10.457   5.584 -0.6422  0.9498  0.5600
32225SOL    HW2  268  10.057  10.365   5.677 -0.8553  0.9725  0.4075
32226SOL     OW  269  10.717   2.856   2.202  0.0726  0.0244  0.3450
32226SOL    HW1  270  10.751   2.772   2.172 -1.4026 -0.1634 -0.9138
32226SOL    HW2  271  10.769   2.876   2.280  0.3621 -2.1093  0.7605
32227SOL     OW  272   6.473   3.361   5.632  0.1844 -0.3038 -0.0779
32227SOL    HW1  273   6.433   3.333   5.550  0.0267  0.2805 -0.2049
32227SOL    HW2  274   6.507   3.449   5.613  1.0773 -0.5811  0.1728
32228SOL     OW  275   7.357   1.382   6.767 -0.0004 -0.2882 -0.2267
32228SOL    HW1  276   7.352   1.473   6.796  2.3540  0.3753 -1.6226
32228SOL    HW2  277   7.368   1.332   6.847 -2.1617  0.5130  0.6469
32229SOL     OW  278   9.730   6.905   9.363 -0.0494 -0.6200 -0.7946
32229SOL    HW1  279   9.663   6.973   9.361  0.4882 -0.0472  0.0687
32229SOL    HW2  280   9.812   6.953   9.348  0.3146 -1.1070 -0.3718
32230SOL     OW  281   7.139   0.216   1.399 -0.2078 -0.3632 -0.2937
32230SOL    HW1  282   7.202   0.282   1.369  0.1343  0.4009  1.9036
32230SOL    HW2  283   7.080   0.204   1.325 -1.0659  3.3812 -0.4386
32231SOL     OW  284   4.403   4.482  10.806 -0.2477 -0.1174 -0.5321
32231SOL    HW1  285   4.411   4.397  10.848  2.8032 -0.2171 -1.0959
32231SOL    HW2  286   4.460   4.540  10.857 -3.0450  1.9768  0.4981
32232SOL     OW  287   9.840   1.248   1.551  0.3349 -0.2907 -0.6240
32232SOL    HW1  288   9.919   1.301   1.537  0.5284 -0.7905 -1.4313
32232SOL    HW2  289   9.869   1.177   1.608  0.4468 -0.4322 -0.8587
32233SOL     OW  290   1.882   2.939   8.791 -0.1397  0.0433  0.0180
32233SOL    HW1  291   1.881   2.846   8.767 -0.2626  0.2650 -0.8516
32233SOL    HW2  292   1.792   2.956   8.822  0.2525 -0.4546  1.5395
32234SOL     OW  293   8.753   3.928   8.240 -0.1549 -0.8419  0.0593
32234SOL    HW1  294   8.659   3.927   8.224 -0.0809 -1.9064 -0.4050
32234SOL    HW2  295   8.763   3.970   8.326 -0.8439  1.5732 -0.9568
32235SOL     OW  296   4.482   6.510   5.897 -0.2969  0.7555 -0.2026
32235SOL    HW1  297   4.552   6.474   5.952  0.6943  0.7838 -1.4090
32235SOL    HW2  298   4.470   6.599   5.929  0.6820  0.9688 -0.4034
32236SOL     OW  299   7.088   0.255   5.774 -0.1025  0.2887  0.2349
32236SOL    HW1  300   7.098   0.160   5.777  0.7295  0.3105 -0.9837
32236SOL    HW2  301   7.091   0.283   5.865 -2.0177 -0.9877  0.7275
32237SOL     OW  302   3.878   7.027   4.245  0.2626 -0.4444 -0.0440
32237SOL    HW1  303   3.881   7.089   4.172 -1.6147 -0.0096  0.2020
32237SOL    HW2  304   3.926   6.951   4.214 -2.3633 -1.1956 -2.6837
32238SOL     OW  305   9.808   1.938   7.515  0.4624 -0.1360  0.1721
32238SOL    HW1  306   9.837   1.849   7.495 -0.1504 -0.6354  1.4043
32238SOL    HW2  307   9.882   1.977   7.562  0.9579  0.2243 -0.8718
32239SOL     OW  308   5.043   3.724   4.392 -0.1970  0.1199  0.4929
32239SOL    HW1  309   5.075   3.653   4.337 -1.2310 -0.4395  0.5790
32239SOL    HW2  310   5.044   3.801   4.335  0.7473  0.0019  0.3404
32240SOL     OW  311   7.276   7.685   6.989  0.0652 -0.3414  0.1273
32240SOL    HW1  312   7.208   7.749   7.009  1.6644  0.9756  1.7930
32240SOL    HW2  313   7.340   7.734   6.937 -0.0198 -1.4050 -1.0054
32241SOL     OW  314   2.798   6.068   4.364  0.0427  0.7404 -0.0879
32241SOL    HW1  315   2.769   6.072   4.273  1.9068 -1.5290 -0.8739
32241SOL    HW2  316   2.739   6.004   4.405 -0.7468  1.7042  0.3230
32242SOL     OW  317   9.067   7.091   7.135  0.2127 -0.0823 -0.2225
32242SOL    HW1  318   9.012   7.023   7.096 -0.0270  1.1421 -2.1629
32242SOL    HW2  319   9.005   7.148   7.182  0.0830  0.1535 -0.6758
32243SOL     OW  320   7.032   7.831   2.227 -0.2898  0.3330 -0.0959
32243SOL    HW1  321   7.025   7.904   2.166 -0.3161  0.1157 -0.3574
32243SOL    HW2  322   7.083   7.765   2.179 -0.5584  0.0466  0.0101
32244SOL     OW  323   4.470   2.839   4.023 -0.9740  0.3312 -0.0261
32244SOL    HW1  324   4.488   2.930   4.046 -1.9373  0.6112 -0.3313
32244SOL    HW2  325   4.496   2.789   4.100  1.2739  0.6587 -0.5108
32245SOL     OW  326   8.818   7.898  10.249 -0.0743  0.1839  0.6766
32245SOL    HW1  327   8.846   7.864  10.164 -0.2356 -0.1959  0.7759
32245SOL    HW2  328   8.811   7.993  10.235 -0.1930  0.1136  0.2396
32246SOL     OW  329   0.295   5.595   8.613  0.6576  0.5166  0.1244
32246SOL    HW1  330   0.268   5.503   8.609  0.5070  0.5300  0.7154
32246SOL    HW2  331   0.390   5.592   8.615  0.6506  0.2365  2.5966
32247SOL     OW  332   8.550   1.112   1.384 -0.5410 -0.3645  0.4638
32247SOL    HW1  333   8.527   1.195   1.342 -0.4758 -0.4165  0.3237
32247SOL    HW2  334   8.645   1.118   1.397 -0.2450 -1.1628 -1.1956
32248SOL     OW  335   9.522   9.352   9.706  0.2044 -0.0452 -0.0090
32248SOL    HW1  336   9.498   9.368   9.615 -1.9939 -0.8428  0.3694
32248SOL    HW2  337   9.509   9.258   9.718  0.4287  0.0585  1.1346
32249SOL     OW  338   0.735   0.145   3.527 -0.1643  0.1484 -0.0822
32249SOL    HW1  339   0.821   0.105   3.543 -0.0173  0.4842 -0.0205
32249SOL    HW2  340   0.748   0.238   3.547 -0.8199  0.0304  0.9735
32250SOL     OW  341   5.057   6.854   0.140 -0.3596  0.1457  0.8375
32250SOL    HW1  342   5.069   6.949   0.147  1.1483 -0.0160  0.6513
32250SOL    HW2  343   4.978   6.844   0.087 -0.3792  1.2958  0.6170
32251SOL     OW  344   1.975   1.408   0.835 -1.0009 -0.7748  0.0104
32251SOL    HW1  345   2.000   1.456   0.756 -2.0491  0.0110  0.1479
32251SOL    HW2  346   2.055   1.360   0.860  0.1671  1.1184  0.0633
32252SOL     OW  347  10.715   3.853   9.356  0.8242  0.0832  0.6970
32252SOL    HW1  348  10.660   3.877   9.282  1.1217 -0.9993  0.0942
32252SOL    HW2  349  10.654   3.825   9.424  0.4554  2.5844  1.4995
32253SOL     OW  350   3.781   4.524   0.462  0.1487 -0.2726  0.2501
32253SOL    HW1  351   3.867   4.503   0.427 -0.2009  0.5509 -1.1742
32253SOL    HW2  352   3.738   4.573   0.392 -1.4298 -0.5549  0.9833
32254SOL     OW  353   3.885   9.665   7.768 -0.2859 -0.6154  0.3837
32254SOL    HW1  354   3.796   9.662   7.734  0.2358 -1.6510 -1.0173
32254SOL    HW2  355   3.917   9.753   7.746 -0.4927 -0.7354 -0.4173
32255SOL     OW  356  10.405   2.978   9.324 -0.2132  0.3904  0.1602
32255SOL    HW1  357  10.372   3.012   9.407 -1.2553 -1.3933  0.5237
32255SOL    HW2  358  10.369   3.037   9.258 -3.5047 -0.9182  0.6158
32256SOL     OW  359  10.607  10.180   4.314  0.4611 -0.9367  0.0522
32256SOL    HW1  360  10.616  10.115   4.245  0.8040 -0.0997 -0.7100
32256SOL    HW2  361  10.620  10.264   4.270  0.0618 -0.3503  1.0207
32257SOL     OW  362   2.432   6.089   8.439 -0.1692  0.0021  1.2591
32257SOL    HW1  363   2.460   6.140   8.515  1.0648 -0.4407  1.1355
32257SOL    HW2  364   2.366   6.029   8.472 -0.7224  0.8251  1.6652
32258SOL     OW  365   8.105  11.002   9.009 -0.5459  0.0541  0.1605
32258SOL    HW1  366   8.197  10.976   9.020 -0.2736  0.6835 -0.5299
32258SOL    HW2  367   8.108  11.097   8.996 -0.9996 -0.2000 -2.5557
32259SOL     OW  368   0.871   9.867   6.211 -0.7678  0.1053 -0.1291
32259SOL    HW1  369   0.959   9.892   6.238 -0.3015  0.5185 -1.8896
32259SOL    HW2  370   0.828   9.839   6.292  0.6042  0.9752  0.9525
32260SOL     OW  371   5.540   4.685   9.451  0.4645  0.2256 -0.4283
32260SOL    HW1  372   5.565   4.641   9.369  1.2393  2.2838 -1.3736
32260SOL    HW2  373   5.612   4.745   9.468 -1.0414  1.9365  0.1664
32261SOL     OW  374   7.315   7.556   1.389  0.4358 -0.0215  0.4101
32261SOL    HW1  375   7.350   7.645   1.388  0.6574 -0.0831 -1.6199
32261SOL    HW2  376   7.350   7.515   1.310 -3.4095 -0.3547 -1.3757
32262SOL     OW  377   0.806   4.233  10.520  1.0336 -0.1851  0.1432
32262SOL    HW1  378   0.831   4.226  10.428 -0.9231  0.8188 -0.5284
32262SOL    HW2  379   0.808   4.143  10.553  1.0194 -0.6481 -1.0830
32263SOL     OW  380   9.500   2.331   8.520  0.5406  0.1150  0.4569
32263SOL    HW1  381   9.475   2.319   8.612  2.1585 -0.5813  0.8554
32263SOL    HW2  382   9.518   2.243   8.488  3.5387  0.5461  0.6129
32264SOL     OW  383  10.378   2.699   7.001  0.2987  0.4564 -0.3768
32264SOL    HW1  384  10.452   2.643   7.027  0.8353  0.4713 -1.7868
32264SOL    HW2  385  10.354   2.667   6.914 -1.1735  0.6567 -0.0587
32265SOL     OW  386   5.428   7.538   4.374  0.0481  0.3572  0.6517
32265SOL    HW1  387   5.521   7.529   4.350  0.1794 -0.7396  1.4605
32265SOL    HW2  388   5.426   7.609   4.437  0.2802  0.6430  0.3409
32266SOL     OW  389   5.048   0.198   0.730  0.0471  0.2390 -0.6693
32266SOL    HW1  390   5.008   0.140   0.666  1.6522 -0.4125 -1.1380
32266SOL    HW2  391   5.094   0.140   0.790 -0.0270  0.9266  0.0723
32267SOL     OW  392   8.379   7.730   4.430  0.3333 -0.0749 -0.5243
32267SOL    HW1  393   8.379   7.765   4.519  0.1405 -0.5365 -0.3426
32267SOL    HW2  394   8.291   7.696   4.417  0.5453 -0.5833 -0.6620
32268SOL     OW  395   0.200   5.753   9.880 -0.0613 -0.8703 -0.4343
32268SOL    HW1  396   0.234   5.706   9.956  0.1325 -0.8820 -0.5264
32268SOL    HW2  397   0.219   5.695   9.806  0.3632 -0.5608 -0.5751
32269SOL     OW  398   1.887  11.111   4.049 -0.6938  0.8802 -0.3483
32269SOL    HW1  399   1.903  11.149   4.135  0.1757 -0.7073  0.2376
32269SOL    HW2  400   1.935  11.028   4.050 -2.1833 -0.0610 -1.6829
32270SOL     OW  401   0.096   2.203   4.300  0.6317  0.0508 -0.0320
32270SOL    HW1  402   0.145   2.269   4.348  1.6472 -1.8127  1.6546
32270SOL    HW2  403   0.150   2.183   4.223  1.6140 -0.6325  0.8175
32271SOL     OW  404   2.596   8.433   4.741 -0.2342  0.2046  0.3818
32271SOL    HW1  405   2.595   8.356   4.797  0.4664 -0.4479 -0.4822
32271SOL    HW2  406   2.622   8.505   4.799  2.6374 -0.8025  0.5296
32272SOL     OW  407   9.561   2.707   9.577  0.0351  0.2283 -0.1609
32272SOL    HW1  408   9.614   2.647   9.631  2.4429  0.9624 -1.5716
32272SOL    HW2  409   9.583   2.684   9.487  1.2131  3.2892 -0.7638
32273SOL     OW  410  10.575   2.236   6.931 -0.6349 -0.2955 -0.3673
32273SOL    HW1  411  10.628   2.191   6.865 -0.2843 -0.3657 -0.0429
32273SOL    HW2  412  10.555   2.168   6.996  0.7525  0.2273  0.6495
32274SOL     OW  413   2.339   3.543  10.991 -0.0279 -0.2461  0.0899
32274SOL    HW1  414   2.256   3.524  10.947 -0.5572  0.7701  0.6122
32274SOL    HW2  415   2.323   3.624  11.039  1.3926  0.1744 -0.1027
32275SOL     OW  416   5.792   3.322   1.445 -0.0776 -0.2407 -0.0892
32275SOL    HW1  417   5.768   3.293   1.533  0.7885  1.1409  0.6399
32275SOL    HW2  418   5.709   3.352   1.406 -0.5339 -1.2355  0.0802
32276SOL     OW  419   6.387   5.720   1.328  0.7315  0.1230 -0.2556
32276SOL    HW1  420   6.369   5.717   1.422 -0.0920  0.3696 -0.3938
32276SOL    HW2  421   6.324   5.659   1.290  1.5063 -0.4738 -0.5903
32277SOL     OW  422   2.553   6.898   8.849  0.1622  0.2850 -0.0986
32277SOL    HW1  423   2.570   6.913   8.942 -0.7557 -0.6695  0.2466
32277SOL    HW2  424   2.630   6.850   8.818  1.8946  3.1622 -0.6032
32278SOL     OW  425   3.795   2.161  10.305 -0.1618  0.1625  0.1063
32278SOL    HW1  426   3.791   2.249  10.342 -0.4960  0.0751  0.2808
32278SOL    HW2  427   3.800   2.103  10.381 -0.4938  0.0004  0.0035
32279SOL     OW  428   1.072   4.415   9.323 -0.2607  0.3910  0.4860
32279SOL    HW1  429   1.144   4.477   9.307 -0.4826  0.7777  0.9411
32279SOL    HW2  430   1.008   4.433   9.254  0.8714 -1.2237 -1.0604
32280SOL     OW  431   7.294   2.805   8.403  0.4073 -0.3430 -0.6591
32280SOL    HW1  432   7.345   2.863   8.459 -0.1524 -2.0362  1.7142
32280SOL    HW2  433   7.344   2.803   8.320  1.1409  2.3734 -0.3874
32281SOL     OW  434   5.629  10.329   5.660 -0.0429  0.0919  0.1814
32281SOL    HW1  435   5.590  10.284   5.585  2.0157 -0.2122 -0.7639
32281SOL    HW2  436   5.688  10.394   5.621  0.4374  0.5086  1.5410
32282SOL     OW  437   9.139   9.179   1.125  0.4741 -0.0608 -1.0754
32282SOL    HW1  438   9.157   9.104   1.181  0.4243  1.4987  1.1843
32282SOL    HW2  439   9.222   9.228   1.123 -0.0838  0.9301 -0.6899
32283SOL     OW  440  10.876   4.018   1.034  0.1236 -0.4151  0.3540
32283SOL    HW1  441  10.847   3.942   0.985 -0.0450  0.3852 -0.8269
32283SOL    HW2  442  10.947   4.056   0.982  0.2552  0.2035  0.9545
32284SOL     OW  443   3.476   0.896   9.567 -0.1610  0.4733  0.1865
32284SOL    HW1  444   3.540   0.826   9.575  0.2090  0.3936 -2.5512
32284SOL    HW2  445   3.499   0.958   9.636  1.1385 -0.8535  0.9951
32285SOL     OW  446   0.542   6.302   7.661 -0.1434  0.4028 -0.5426
32285SOL    HW1  447   0.576   6.216   7.639  1.1564  0.8708 -0.4428
32285SOL    HW2  448   0.486   6.288   7.737  0.4653 -0.2696 -0.2208
32286SOL     OW  449  10.991   8.318   2.039 -0.0688  0.5427  0.2086
32286SOL    HW1  450  11.050   8.324   2.115 -0.0471 -0.8273  0.3229
32286SOL    HW2  451  10.905   8.337   2.075 -0.2016 -1.0521  0.8111
32287SOL     OW  452   9.603   1.059   2.602  0.0893  0.0342 -0.5355
32287SOL    HW1  453   9.545   1.134   2.601 -0.1528 -0.1311  0.2892
32287SOL    HW2  454   9.574   1.004   2.529 -0.1850  0.4000 -0.6990
32288SOL     OW  455   2.469   0.468   7.576 -0.0930 -0.9543 -0.2534
32288SOL    HW1  456   2.530   0.532   7.539 -0.6368 -0.7901 -0.8784
32288SOL    HW2  457   2.511   0.384   7.560  0.8536 -0.7432  1.0008
32289SOL     OW  458  10.325   2.556   7.282 -0.4380  0.4173 -0.8020
32289SOL    HW1  459  10.358   2.600   7.204  2.1472 -1.1137 -0.6793
32289SOL    HW2  460  10.334   2.621   7.352  1.9730  0.2653 -0.8875
32290SOL     OW  461   5.838   7.044   6.424  0.1416  0.1505  0.5701
32290SOL    HW1  462   5.840   7.043   6.520 -0.0140  1.6864  0.6051
32290SOL    HW2  463   5.874   6.958   6.400  1.7379  0.3422  1.9857
32291SOL     OW  464   9.962   9.563   0.456 -0.8914 -0.0831 -0.4522
32291SOL    HW1  465   9.952   9.658   0.460 -0.2650 -0.0397  0.5576
32291SOL    HW2  466  10.017   9.548   0.380 -0.3691  0.4258 -0.1814
32292SOL     OW  467   5.995   1.456   7.064  0.4867 -0.8194  0.1622
32292SOL    HW1  468   5.915   1.416   7.029  0.0333 -0.7875  1.1097
32292SOL    HW2  469   6.001   1.423   7.154 -1.2163  2.8630  1.8596
32293SOL     OW  470   2.501   1.868   7.568 -0.1555  0.4127 -0.2517
32293SOL    HW1  471   2.443   1.863   7.644 -1.4781 -1.0479 -1.2833
32293SOL    HW2  472   2.444   1.895   7.496  0.5977 -0.3435 -1.1631
32294SOL     OW  473   0.809   8.294   0.996  0.8593  0.3643 -0.3877
32294SOL    HW1  474   0.770   8.211   0.970  0.9320 -0.3141  1.5011
32294SOL    HW2  475   0.755   8.360   0.953 -0.9572 -0.6028  0.2707
32295SOL     OW  476  10.165   8.745   3.743  0.2810 -0.1172 -0.0700
32295SOL    HW1  477  10.169   8.692   3.663 -0.5466  1.3157 -1.1105
32295SOL    HW2  478  10.218   8.697   3.807  0.3746 -1.6591 -1.2656
32296SOL     OW  479   8.870   9.261   2.361 -0.5757 -0.4616 -0.2878
32296SOL    HW1  480   8.877   9.170   2.332  0.0807 -0.1632 -1.0857
32296SOL    HW2  481   8.919   9.311   2.296 -1.4141  0.5349 -0.1823
32297SOL     OW  482   2.853   2.516  10.385  0.6213 -0.0737 -0.3327
32297SOL    HW1  483   2.828   2.429  10.353  1.3178 -0.7774  0.9769
32297SOL    HW2  484   2.790   2.534  10.455  0.3878  0.5426 -0.7017
32298SOL     OW  485   3.951   5.365   9.407  0.3747  0.5374 -0.4428
32298SOL    HW1  486   4.037   5.324   9.392 -1.1789 -3.3128 -0.0792
32298SOL    HW2  487   3.933   5.348   9.499 -1.1097  0.4866 -0.7259
32299SOL     OW  488   0.471   2.088   9.273  0.6890 -0.0371  0.0191
32299SOL    HW1  489   0.518   2.005   9.277  0.3836 -0.2117  0.1081
32299SOL    HW2  490   0.406   2.076   9.203 -0.1832 -0.3254  0.8477
32300SOL     OW  491   4.236  10.267   3.625 -0.0325 -0.2698  0.4500
32300SOL    HW1  492   4.140  10.268   3.619  0.0206 -0.5318 -0.5806
32300SOL    HW2  493   4.260  10.175   3.614  0.3834 -0.0933 -0.1589
32301SOL     OW  494  10.267  10.049   0.973  0.4250 -0.0224 -0.3097
32301SOL    HW1  495  10.230  10.095   0.898  0.3219  0.9638  0.3272
32301SOL    HW2  496  10.315   9.975   0.935 -0.7504 -0.3331 -1.2517
32302SOL     OW  497   5.319   5.947  10.836  0.3983 -0.9049 -0.3308
32302SOL    HW1  498   5.283   5.996  10.910  3.2953  0.8548  0.1173
32302SOL    HW2  499   5.358   5.869  10.875  1.0440 -0.4785 -0.0961
32303SOL     OW  500   9.721   8.681   6.099 -0.3620 -0.0940  0.3158
32303SOL    HW1  501   9.655   8.664   6.166 -0.4620 -0.4700  0.1275
32303SOL    HW2  502   9.672   8.677   6.016 -0.0378 -0.7642  0.1498
32304SOL     OW  503   1.353   1.584   5.661  0.5789  0.1252 -0.1727
32304SOL    HW1  504   1.316   1.562   5.746 -1.4511 -4.1315 -1.9050
32304SOL    HW2  505   1.433   1.531   5.655  0.2401 -0.2899 -1.2223
32305SOL     OW  506  11.051  10.454   6.820  0.1626 -0.2375  0.3274
32305SOL    HW1  507  10.987  10.464   6.890 -0.9278 -0.0430 -0.6730
32305SOL    HW2  508  11.043  10.534   6.768  0.5836 -0.6000 -0.3128
32306SOL     OW  509  10.636   1.883   8.932  0.4270  0.0264  0.4497
32306SOL    HW1  510  10.720   1.858   8.970 -0.2674 -0.5669  1.6647
32306SOL    HW2  511  10.571   1.840   8.988 -0.7802  2.7768  1.3336
32307SOL     OW  512   6.215   2.224   9.269  0.2266  0.2154  0.1795
32307SOL    HW1  513   6.173   2.138   9.270  0.1531  0.2375 -0.4350
32307SOL    HW2  514   6.154   2.279   9.221  0.8049  0.3274 -0.4364
32308SOL     OW  515   9.869  10.267   7.624 -0.6456  0.2104  0.0646
32308SOL    HW1  516   9.866  10.172   7.608  1.5095 -0.0169  0.8072
32308SOL    HW2  517   9.883  10.305   7.537 -1.2255 -0.1499 -0.1991
32309SOL     OW  518   3.233   2.080   7.113 -0.0860 -0.2299 -0.0770
32309SOL    HW1  519   3.220   2.092   7.207 -0.1509 -1.4705  0.0904
32309SOL    HW2  520   3.179   2.004   7.091  3.2756 -2.8290 -0.2006
32310SOL     OW  521   0.465   4.836   6.018 -0.3703  0.1309  0.1973
32310SOL    HW1  522   0.434   4.760   6.067 -0.8198  0.5436  0.5555
32310SOL    HW2  523   0.517   4.799   5.946 -0.5343 -0.5086  0.4089
32311SOL     OW  524   9.636   6.384   2.559 -0.1846 -0.0670  0.1915
32311SOL    HW1  525   9.709   6.333   2.524 -1.8552 -0.6874 -2.7449
32311SOL    HW2  526   9.593   6.326   2.621  1.5877  0.2237  1.7799
32312SOL     OW  527   5.854   4.849   1.293  0.1130  0.3022  0.6095
32312SOL    HW1  528   5.793   4.909   1.249 -0.1346 -0.7145 -0.4945
32312SOL    HW2  529   5.829   4.854   1.386 -0.8974  0.7750  0.3331
32313SOL     OW  530  10.799   8.870   6.231 -0.3248 -0.3014  0.1813
32313SOL    HW1  531  10.794   8.844   6.139  2.2091  1.1378 -0.4817
32313SOL    HW2  532  10.727   8.932   6.243 -0.7008 -0.5370 -0.8221
32314SOL     OW  533   0.648  10.763   0.005 -0.1863  0.0965 -0.4779
32314SOL    HW1  534   0.613  10.801   0.086 -0.8495 -1.6098  0.0735
32314SOL    HW2  535   0.572  10.749  -0.050  0.0340 -0.5044 -0.6384
32315SOL     OW  536  10.220   2.194   7.567  0.0610 -0.1251  0.2670
32315SOL    HW1  537  10.271   2.249   7.507  0.3892 -1.1942 -0.4750
32315SOL    HW2  538  10.283   2.127   7.597 -0.7890 -1.2553 -0.3902
32316SOL     OW  539   8.634   9.113   3.496 -0.5544 -0.9494  0.5622
32316SOL    HW1  540   8.722   9.110   3.534 -0.3329 -2.2857  0.0296
32316SOL    HW2  541   8.589   9.038   3.536 -0.6701 -1.7079 -0.9351
32317SOL     OW  542   3.737   6.536   8.529 -0.4455 -0.0839  0.1418
32317SOL    HW1  543   3.751   6.582   8.446 -1.7403 -2.6450 -1.6259
32317SOL    HW2  544   3.821   6.543   8.575  1.6067 -1.5609 -3.0215
32318SOL     OW  545   0.717   9.126   5.900  0.1953  0.3850  0.2031
32318SOL    HW1  546   0.758   9.210   5.917 -2.8917  1.8977  0.8396
32318SOL    HW2  547   0.686   9.132   5.810  2.1933 -1.1865 -0.6719
32319SOL     OW  548   9.170   8.925   1.244 -0.2058  0.5629 -0.2764
32319SOL    HW1  549   9.139   8.835   1.255 -1.9532  1.2445  0.9030
32319SOL    HW2  550   9.264   8.921   1.261 -0.1040 -1.1468 -1.0525
32320SOL     OW  551   4.394   6.771   6.275 -0.2653 -0.2460  0.0099
32320SOL    HW1  552   4.471   6.725   6.309  0.8167  1.7145  0.3378
32320SOL    HW2  553   4.327   6.758   6.342  0.8729  0.9148  1.4404
32321SOL     OW  554   3.578   1.040   9.193 -0.2571  0.2876  0.1972
32321SOL    HW1  555   3.533   1.011   9.272 -0.0060  1.4536  0.7998
32321SOL    HW2  556   3.527   1.003   9.121  0.2912 -1.9458  0.8852
32322SOL     OW  557   4.226   5.493   9.623 -0.1873  0.2628 -0.3782
32322SOL    HW1  558   4.156   5.434   9.597 -0.6350  0.6966 -0.1778
32322SOL    HW2  559   4.183   5.577   9.637  0.4571  0.6796 -0.7905
32323SOL     OW  560   7.417   1.417   5.719  0.4569 -0.3668 -0.3776
32323SOL    HW1  561   7.375   1.482   5.776  1.3934  0.4695 -0.6126
32323SOL    HW2  562   7.510   1.433   5.729  0.7357 -1.9809 -0.1242
32324SOL     OW  563   7.852   3.530   7.559 -0.6286 -0.4957 -0.2221
32324SOL    HW1  564   7.904   3.453   7.583 -2.3955 -2.1052 -1.2928
32324SOL    HW2  565   7.776   3.526   7.617 -0.7720  0.4284 -0.3344
32325SOL     OW  566   7.175   2.423   0.638 -0.1876  0.2458  0.2140
32325SOL    HW1  567   7.213   2.505   0.606 -0.5855  0.7737  1.0767
32325SOL    HW2  568   7.080   2.437   0.632 -0.2829 -0.7798 -1.2063
32326SOL     OW  569  10.882   7.384   7.683 -0.0161 -0.3460  0.9906
32326SOL    HW1  570  10.880   7.413   7.592 -0.7859  1.1435  1.4612
32326SOL    HW2  571  10.898   7.463   7.733  0.7016 -1.2033  2.1431
32327SOL     OW  572   8.151   7.944   7.037 -0.5561 -0.1846  0.0246
32327SOL    HW1  573   8.175   7.974   7.125 -1.2291  1.4609 -0.3107
32327SOL    HW2  574   8.147   7.849   7.045  1.5673 -0.2352  1.1886
32328SOL     OW  575   4.176   7.152   2.199  0.0327  0.3703 -0.5020
32328SOL    HW1  576   4.232   7.171   2.274 -0.9106  0.7346  0.1355
32328SOL    HW2  577   4.206   7.212   2.130  1.2353 -0.3140 -0.6080
32329SOL     OW  578   4.435   6.736   1.002 -0.4645  0.4674  0.0160
32329SOL    HW1  579   4.401   6.784   1.078 -0.1870  0.9079 -0.1377
32329SOL    HW2  580   4.370   6.667   0.987  1.0753 -1.7261  2.6585
32330SOL     OW  581   4.368   6.000   3.719 -0.1001 -0.0609  0.1394
32330SOL    HW1  582   4.285   6.027   3.678  0.0231 -1.9565 -1.5105
32330SOL    HW2  583   4.343   5.931   3.780  0.2945 -0.8750 -0.6139
32331SOL     OW  584   5.353   3.790   5.159 -0.2378  0.0446  0.7398
32331SOL    HW1  585   5.266   3.816   5.129  1.0150  2.2544 -1.2636
32331SOL    HW2  586   5.393   3.871   5.190  1.6536 -0.6111  0.1386
32332SOL     OW  587   7.478   9.594   4.831 -0.3263 -0.0503 -0.0399
32332SOL    HW1  588   7.512   9.620   4.916 -0.3130  0.4200 -0.1878
32332SOL    HW2  589   7.390   9.561   4.849 -0.4912  0.4662  0.0957
32333SOL     OW  590   2.674  10.193   6.592  0.1782  0.2401  0.1352
32333SOL    HW1  591   2.758  10.230   6.564  1.0047 -1.3573  0.3898
32333SOL    HW2  592   2.693  10.152   6.676 -0.8909 -0.0580  0.2468
32334SOL     OW  593  10.961   1.470   1.356  0.2080  0.0591  0.0159
32334SOL    HW1  594  11.016   1.407   1.310 -1.4656 -1.1888 -0.3993
32334SOL    HW2  595  10.892   1.491   1.293 -1.3100 -0.5600  1.4044
32335SOL     OW  596   5.534   0.153   5.256  0.2191  0.1679 -0.7599
32335SOL    HW1  597   5.443   0.161   5.285  0.7386 -1.7209  1.8488
32335SOL    HW2  598   5.582   0.129   5.336  2.7376 -0.5049 -2.3607
32336SOL     OW  599  10.822   0.151   9.393 -0.0656  0.1987  0.4479
32336SOL    HW1  600  10.790   0.061   9.391 -0.9209  0.5053 -0.0550
32336SOL    HW2  601  10.917   0.143   9.401 -0.1915 -0.7379  1.1399
32337SOL     OW  602   9.890   7.043   8.604  0.3185  0.1920 -0.3037
32337SOL    HW1  603   9.961   6.987   8.636  0.6676  0.4275 -0.6546
32337SOL    HW2  604   9.906   7.051   8.510  0.5900  1.3111 -0.1778
32338SOL     OW  605   6.175  10.524  10.421 -0.0077  0.5061 -0.2915
32338SOL    HW1  606   6.189  10.543  10.514 -1.3387 -1.8435  0.4855
32338SOL    HW2  607   6.092  10.567  10.400 -0.1046  0.3705 -0.1819
32339SOL     OW  608   3.091   7.013   9.198  0.0316  1.0491  0.2327
32339SOL    HW1  609   3.050   6.941   9.149 -0.0135  0.7025  0.7689
32339SOL    HW2  610   3.099   7.084   9.134 -3.0377  1.7969  0.5169
32340SOL     OW  611   6.171   1.270   7.418  0.1357 -0.2671  0.1109
32340SOL    HW1  612   6.121   1.332   7.365  0.8929 -0.3673 -0.7251
32340SOL    HW2  613   6.114   1.193   7.425  0.2720 -0.4833 -1.0645
32341SOL     OW  614   3.579   5.939   8.872 -0.0586  0.1173  0.3116
32341SOL    HW1  615   3.557   5.846   8.875  1.1430 -0.1961 -0.1300
32341SOL    HW2  616   3.522   5.980   8.937 -0.5816 -0.9282  0.5196
32342SOL     OW  617   1.343   4.591   6.639 -0.2270  0.8143 -0.0106
32342SOL    HW1  618   1.323   4.679   6.608 -0.6762  1.3154  1.6168
32342SOL    HW2  619   1.361   4.541   6.560 -0.0904  2.3343 -0.9726
32343SOL     OW  620   2.219   5.873   4.537  0.3573 -0.8384 -0.2385
32343SOL    HW1  621   2.208   5.944   4.599  1.6509 -1.1694  0.4063
32343SOL    HW2  622   2.300   5.830   4.564 -0.4384 -2.6179 -0.5505
32344SOL     OW  623   4.638   9.384   1.783 -0.3699 -0.2142 -0.3331
32344SOL    HW1  624   4.579   9.333   1.838 -1.2067  1.4431  0.3742
32344SOL    HW2  625   4.705   9.418   1.843 -2.0322  2.7169  0.0877
32345SOL     OW  626   9.920   0.685   6.237 -1.0024  0.1097  0.6121
32345SOL    HW1  627   9.829   0.665   6.213 -0.5587  0.3511 -1.4059
32345SOL    HW2  628   9.917   0.774   6.270 -1.4355  0.2630  0.1656
32346SOL     OW  629   5.751   2.858   1.285  0.2346 -0.8019 -0.1237
32346SOL    HW1  630   5.725   2.851   1.377  1.3793  0.0346  0.2930
32346SOL    HW2  631   5.689   2.803   1.238 -1.3586 -0.0144  0.9568
32347SOL     OW  632   7.259   7.456   6.595 -0.3260 -0.2153  0.1538
32347SOL    HW1  633   7.203   7.513   6.648 -1.3495 -1.6773  0.7301
32347SOL    HW2  634   7.308   7.405   6.660 -0.2359 -0.7443 -0.3228
32348SOL     OW  635   2.955   1.502  10.400 -0.8073  0.1104  0.7691
32348SOL    HW1  636   2.896   1.441  10.445  0.7868 -2.1999 -0.0955
32348SOL    HW2  637   2.962   1.468  10.311  1.3509  0.6461  0.6828
32349SOL     OW  638   5.986   3.399   7.671  0.4452 -0.9190 -0.0063
32349SOL    HW1  639   6.035   3.456   7.730  0.1095  0.0198 -0.5983
32349SOL    HW2  640   6.029   3.314   7.678  1.0844 -0.5454  0.7587
32350SOL     OW  641   7.148   2.317   7.546 -0.4825 -0.4865 -0.0106
32350SOL    HW1  642   7.243   2.321   7.551 -0.5857  1.0515  2.0675
32350SOL    HW2  643   7.130   2.251   7.479  2.0145 -1.5485  0.2692
32351SOL     OW  644  10.078   2.508   9.347  0.0844  0.1765 -0.3603
32351SOL    HW1  645  10.049   2.436   9.291  0.8107  0.8662 -1.6712
32351SOL    HW2  646  10.155   2.474   9.393 -0.1171 -0.1739 -0.2839
32352SOL     OW  647   9.088   4.735   6.522 -0.3589 -0.3832  0.1021
32352SOL    HW1  648   9.071   4.657   6.575  1.5619 -1.2793 -0.4935
32352SOL    HW2  649   9.149   4.705   6.454 -0.9061  1.2637 -1.1962
32353SOL     OW  650   4.924  10.439   0.007  0.3570 -0.0155  0.0209
32353SOL    HW1  651   4.854  10.448   0.072  0.4736  2.3490 -0.0948
32353SOL    HW2  652   4.920  10.520  -0.044  2.5703 -0.2392 -0.6070
32354SOL     OW  653   7.254   0.403  11.052  0.0535 -0.0386  0.0598
32354SOL    HW1  654   7.237   0.494  11.078  0.1013  0.2235 -0.7697
32354SOL    HW2  655   7.187   0.352  11.097  2.0895 -0.0850  3.3715
32355SOL     OW  656   7.132   7.657   7.545  0.4404  0.4033  0.1771
32355SOL    HW1  657   7.040   7.682   7.554  0.0751 -0.4716 -0.9662
32355SOL    HW2  658   7.132   7.562   7.556  1.3771  0.5012  1.2535
32356SOL     OW  659   0.488   8.353   9.139  0.2765 -1.2988 -0.0587
32356SOL    HW1  660   0.578   8.356   9.171  0.0329  0.0659  0.5208
32356SOL    HW2  661   0.434   8.382   9.213 -0.3022  1.8277 -1.5540
32357SOL     OW  662   6.975   4.515   3.321  0.9923 -0.3151 -0.2867
32357SOL    HW1  663   7.051   4.569   3.344  0.9982  0.4777 -2.0405
32357SOL    HW2  664   6.923   4.513   3.401  1.6665  1.1773  0.2363
32358SOL     OW  665   5.529   9.105  10.049 -0.4192  0.0854  0.2004
32358SOL    HW1  666   5.591   9.156  10.101 -2.4196  2.7886  0.1290
32358SOL    HW2  667   5.467   9.070  10.113  1.2775 -3.0410  0.3339
32359SOL     OW  668   9.580   4.782   8.574 -0.0089  0.7286  0.0788
32359SOL    HW1  669   9.630   4.716   8.622 -1.3777  0.9356  1.9079
32359SOL    HW2  670   9.495   4.740   8.558 -0.6752  1.8132  0.7058
32360SOL     OW  671   7.441   3.796   2.846  0.1661 -0.7013  0.0761
32360SOL    HW1  672   7.438   3.825   2.937 -2.8577 -0.6844  0.0555
32360SOL    HW2  673   7.471   3.706   2.851  0.5746 -0.5292  1.0313
32361SOL     OW  674   9.932   4.763   2.206  0.4113 -0.0281  0.3462
32361SOL    HW1  675   9.863   4.829   2.218 -0.5899 -1.1898  1.1250
32361SOL    HW2  676  10.004   4.795   2.260 -0.4149 -0.0372  1.4867
32362SOL     OW  677   5.771   3.285   9.869  0.2467 -0.1739 -0.1574
32362SOL    HW1  678   5.743   3.204   9.912 -0.6843  0.9805  1.5633
32362SOL    HW2  679   5.694   3.312   9.818  0.6748 -0.5251 -1.0094
32363SOL     OW  680   5.806   3.813   1.180 -0.1320 -0.4266 -0.1830
32363SOL    HW1  681   5.866   3.740   1.165 -1.1136 -0.8055 -2.6788
32363SOL    HW2  682   5.862   3.890   1.188  0.9257 -1.3544  2.5715
32364SOL     OW  683   7.688  10.087   8.800 -0.2546 -0.1435 -0.0246
32364SOL    HW1  684   7.671  10.170   8.844 -0.0850 -0.2714  0.2874
32364SOL    HW2  685   7.646  10.096   8.714  1.9929  1.2992 -1.0710
32365SOL     OW  686   3.564   6.276   7.012  0.2845 -0.4043 -0.2810
32365SOL    HW1  687   3.511   6.356   7.018 -0.3759 -0.7864 -0.8868
32365SOL    HW2  688   3.503   6.206   7.032  0.8017 -0.7882 -0.0217
32366SOL     OW  689   9.934   2.411   5.419 -0.6300 -0.1280  0.3453
32366SOL    HW1  690   9.914   2.318   5.426 -0.0911 -0.1697  1.6117
32366SOL    HW2  691   9.946   2.427   5.325 -1.0089 -1.2665  0.0974
32367SOL     OW  692   3.875  10.759   4.881 -0.4527 -0.2429  0.5535
32367SOL    HW1  693   3.956  10.764   4.931 -0.0305 -0.5948 -0.0686
32367SOL    HW2  694   3.861  10.665   4.870 -1.7289 -0.2309  1.8735
32368SOL     OW  695   0.807   6.908   3.686  0.1284  0.3060  0.1036
32368SOL    HW1  696   0.861   6.942   3.615  0.4063 -1.1528 -0.4147
32368SOL    HW2  697   0.745   6.848   3.644 -1.6932  1.6521  0.7303
32369SOL     OW  698   7.202   8.408   3.065 -0.4878 -0.0638  0.3591
32369SOL    HW1  699   7.254   8.437   2.990 -1.6250 -1.1534 -0.9047
32369SOL    HW2  700   7.157   8.486   3.095  1.4625  0.8031  1.1836
32370SOL     OW  701   7.621   7.220   1.854  0.0829  0.0767  0.1890
32370SOL    HW1  702   7.527   7.201   1.850  0.1191 -0.3462  1.2606
32370SOL    HW2  703   7.636   7.250   1.943  0.9692  0.1938  0.0084
32371SOL     OW  704   7.920   8.933   7.836 -0.4720 -0.4965  0.7545
32371SOL    HW1  705   7.960   9.020   7.844 -1.0164 -0.1944  0.3088
32371SOL    HW2  706   7.987   8.873   7.869  0.3257 -0.0042  0.0875
32372SOL     OW  707   3.601   3.968   8.168  0.5338  0.0660  0.3942
32372SOL    HW1  708   3.550   4.047   8.189 -0.1309 -0.0129 -0.8091
32372SOL    HW2  709   3.692   3.998   8.165  0.1883  1.1027 -1.2575
32373SOL     OW  710  10.493   7.271   6.960 -0.0858  0.4593  0.2669
32373SOL    HW1  711  10.536   7.212   7.023 -1.3124  0.5116  1.1939
32373SOL    HW2  712  10.425   7.217   6.920  0.6407  0.4449 -1.0125
32374SOL     OW  713   1.090  10.004   1.750  0.5769  0.0257  0.1104
32374SOL    HW1  714   1.143   9.995   1.671  1.1346  1.7827  0.2572
32374SOL    HW2  715   1.095  10.097   1.773 -1.4104 -0.0118  0.9399
32375SOL     OW  716   6.118   4.077   0.514  0.1434  0.4119 -0.1056
32375SOL    HW1  717   6.066   4.082   0.433 -0.9763 -1.5628  0.4311
32375SOL    HW2  718   6.053   4.085   0.584  1.0832  1.9225  0.6390
32376SOL     OW  719   6.676   2.281   6.623 -0.1501 -0.2816 -0.4222
32376SOL    HW1  720   6.592   2.245   6.651 -0.3908 -0.4619 -1.3519
32376SOL    HW2  721   6.655   2.334   6.546  0.2798  1.4222  0.5934
32377SOL     OW  722   9.949   6.056   0.756  0.1033  0.2288  0.2571
32377SOL    HW1  723   9.920   6.144   0.730 -0.4215  0.1435  0.5322
32377SOL    HW2  724  10.020   6.035   0.695 -0.1933  0.5863 -0.2205
32378SOL     OW  725   9.881   9.499   1.437  0.1948 -0.3532  0.0408
32378SOL    HW1  726   9.863   9.492   1.343 -0.7236 -1.4607  0.2873
32378SOL    HW2  727   9.943   9.429   1.455  0.1380 -0.3328  0.3140
32379SOL     OW  728   1.215   9.192   9.892 -0.5255 -0.0650 -0.2775
32379SOL    HW1  729   1.190   9.197   9.984 -1.5925  1.6454 -0.6224
32379SOL    HW2  730   1.306   9.223   9.890  0.9466 -3.7816  0.6235
32380SOL     OW  731   3.669   0.243   9.125 -0.1022  1.0831 -0.1572
32380SOL    HW1  732   3.625   0.314   9.171 -0.4575  0.0282  1.1776
32380SOL    HW2  733   3.653   0.165   9.178 -0.0851 -0.1019 -1.7827
32381SOL     OW  734   9.066   7.254   1.840  0.6825 -0.2347  0.2951
32381SOL    HW1  735   8.976   7.227   1.825 -0.0595  1.5144  1.3321
32381SOL    HW2  736   9.063   7.303   1.922  2.8038 -1.1714  1.0091
32382SOL     OW  737   3.316   2.373   4.391 -0.4333 -0.4616  0.5754
32382SOL    HW1  738   3.390   2.376   4.451  0.4704  3.3462 -0.3956
32382SOL    HW2  739   3.251   2.433   4.430 -1.4590 -0.9339 -0.3464
32383SOL     OW  740   5.378   1.527   2.586 -0.2920 -0.1639  0.3605
32383SOL    HW1  741   5.298   1.515   2.637 -0.9007  0.6975 -0.3395
32383SOL    HW2  742   5.448   1.534   2.651 -1.2050  2.1813  1.2046
32384SOL     OW  743   7.365   8.394   4.093 -0.0530 -0.0183  0.0406
32384SOL    HW1  744   7.455   8.375   4.064  0.3204  2.2841 -0.6006
32384SOL    HW2  745   7.316   8.315   4.075  1.7760 -1.2081  0.0462
32385SOL     OW  746   4.867   1.244   3.504  0.3316 -0.0535 -0.1284
32385SOL    HW1  747   4.837   1.290   3.426  0.4637  0.2609  0.0056
32385SOL    HW2  748   4.790   1.243   3.562  0.8513  1.7388  0.6779
32386SOL     OW  749   4.525   7.133   7.935 -0.2673 -0.5989  0.4343
32386SOL    HW1  750   4.448   7.186   7.913  0.6428  1.0052  0.9276
32386SOL    HW2  751   4.587   7.150   7.864  0.4225 -0.1485  1.1243
32387SOL     OW  752   2.556  11.097   6.509 -0.6956 -0.0450 -0.1632
32387SOL    HW1  753   2.587  11.007   6.522 -2.6724 -0.5877  1.4740
32387SOL    HW2  754   2.461  11.090   6.516 -1.1674  1.7410 -3.2285
32388SOL     OW  755   2.886   6.990   1.361  0.3376  0.3595  0.1139
32388SOL    HW1  756   2.957   6.944   1.316  2.9626  0.0721  4.0452
32388SOL    HW2  757   2.883   7.077   1.321  1.0253 -0.4809 -1.8724
32389SOL     OW  758   5.092   3.598   8.028  0.0047 -0.1100 -0.1596
32389SOL    HW1  759   5.005   3.608   7.988 -0.1254 -0.3139  0.0714
32389SOL    HW2  760   5.126   3.517   7.991  0.0872 -0.0433 -0.2298
32390SOL     OW  761   9.496   4.221   5.878  0.6885  0.1904  0.4580
32390SOL    HW1  762   9.579   4.184   5.906  2.1222  1.5533 -1.6880
32390SOL    HW2  763   9.504   4.230   5.783 -1.3402  1.6674  0.3513
32391SOL     OW  764   1.515   6.303   6.041  0.5125 -0.2587  0.6726
32391SOL    HW1  765   1.478   6.267   6.121 -0.0536  0.0141  0.5376
32391SOL    HW2  766   1.453   6.371   6.014  0.9022 -0.0723  0.2206
32392SOL     OW  767   3.125   1.241   8.422  0.6659 -0.3749  0.5354
32392SOL    HW1  768   3.192   1.252   8.489 -0.0247 -0.4816  1.2706
32392SOL    HW2  769   3.149   1.303   8.353  2.7453 -1.9683 -0.2848
32393SOL     OW  770   1.529   5.795   6.787  0.6471  0.0014  0.3792
32393SOL    HW1  771   1.520   5.871   6.730  1.0791 -0.6971 -0.6437
32393SOL    HW2  772   1.464   5.808   6.856  1.1351  1.5997  0.5782
32394SOL     OW  773  10.459   8.342   8.777  0.1816 -0.0735  0.5203
32394SOL    HW1  774  10.543   8.299   8.766  0.1829  0.1378 -0.3508
32394SOL    HW2  775  10.401   8.298   8.715 -0.0396  0.5658  0.2532
32395SOL     OW  776   7.905  10.279   4.965 -0.0640  0.1391  0.5479
32395SOL    HW1  777   7.852  10.347   5.006 -0.1390 -0.7698  2.0391
32395SOL    HW2  778   7.955  10.325   4.897 -1.1323  1.4053  0.5817
32396SOL     OW  779   6.425  10.166   5.230 -0.5129  0.0526 -0.3113
32396SOL    HW1  780   6.368  10.172   5.153 -1.6401 -0.4848  0.4583
32396SOL    HW2  781   6.462  10.078   5.224  0.3688  0.4461 -0.8793
32397SOL     OW  782   5.520   5.919   3.147 -0.5711  0.0630 -0.3495
32397SOL    HW1  783   5.493   5.982   3.081 -3.5016 -1.0079 -0.2846
32397SOL    HW2  784   5.525   5.835   3.101  2.7393  0.1000 -0.3153
32398SOL     OW  785   9.905   1.708   5.850 -0.1818  0.3367 -0.4123
32398SOL    HW1  786   9.971   1.763   5.808  1.5283  0.6485  2.4043
32398SOL    HW2  787   9.886   1.752   5.933 -0.2967 -2.1569  1.0046
32399SOL     OW  788   8.624   9.990   4.858  0.0776  0.4916  0.3027
32399SOL    HW1  789   8.552   9.943   4.815  0.2860  1.0498 -0.7055
32399SOL    HW2  790   8.591  10.009   4.946 -0.6799  0.0093  0.1417
32400SOL     OW  791   1.678   0.487   4.787  0.4322 -0.3693 -0.1304
32400SOL    HW1  792   1.628   0.548   4.841  1.8972  1.6872 -1.0073
32400SOL    HW2  793   1.637   0.492   4.701 -0.0400 -1.4242  0.0040
32401SOL     OW  794  10.625  10.944   6.554  0.0824 -0.6123 -0.0460
32401SOL    HW1  795  10.543  10.988   6.530 -0.2820 -1.0250  0.4353
32401SOL    HW2  796  10.690  10.979   6.492 -0.6424 -0.9328 -1.0086
32402SOL     OW  797   6.875   0.917   9.435 -0.0999 -0.1164  0.1175
32402SOL    HW1  798   6.940   0.955   9.375  0.1296 -0.3750  0.1996
32402SOL    HW2  799   6.873   0.824   9.413  0.4489 -0.3340  0.9217
32403SOL     OW  800  11.018   0.459   6.079 -0.2010 -0.2961  0.1730
32403SOL    HW1  801  11.077   0.517   6.128 -1.5161  0.3568  1.0327
32403SOL    HW2  802  11.043   0.471   5.988 -0.6059  1.8441  0.2968
32404SOL     OW  803   0.898   9.548   3.890 -0.3783  0.0088  0.1318
32404SOL    HW1  804   0.920   9.610   3.820 -2.1812  0.8577  0.2559
32404SOL    HW2  805   0.814   9.578   3.923 -0.7308 -1.8235  1.0376
32405SOL     OW  806   1.990   8.859   5.288 -0.3084 -0.1089 -0.2291
32405SOL    HW1  807   1.925   8.788   5.292 -0.8898  0.4646  1.3597
32405SOL    HW2  808   1.939   8.936   5.260  0.3564 -0.3153 -2.1477
32406SOL     OW  809   4.532   8.598   6.642  0.0515  0.0894 -0.3862
32406SOL    HW1  810   4.517   8.529   6.707 -1.7950  2.2803  1.7004
32406SOL    HW2  811   4.563   8.672   6.693  1.8372  0.9312 -2.5412
32407SOL     OW  812   1.434   6.732   8.154 -0.2362  0.0462 -0.1244
32407SOL    HW1  813   1.509   6.695   8.107  1.1888  0.4808  1.6804
32407SOL    HW2  814   1.398   6.659   8.204 -0.6612 -0.0267 -0.5302
32408SOL     OW  815   9.188   6.570   0.436  0.9108 -0.0026 -0.2795
32408SOL    HW1  816   9.248   6.534   0.501  0.1984  1.5568  1.3241
32408SOL    HW2  817   9.243   6.626   0.381  1.1941  0.2745  0.2754
32409SOL     OW  818   9.888   7.186   3.399  0.1601  0.0204  0.6172
32409SOL    HW1  819   9.983   7.177   3.394 -0.0194 -2.8363  0.4568
32409SOL    HW2  820   9.855   7.096   3.390 -2.7563  1.1838 -3.1779
32410SOL     OW  821   2.247   0.970   7.821  0.1075  0.0963  0.1890
32410SOL    HW1  822   2.262   0.998   7.731  0.3736  0.2964  0.2948
32410SOL    HW2  823   2.164   0.922   7.818  0.7602 -1.0248 -0.3976
32411SOL     OW  824   8.746   1.836   5.431  0.4161 -0.0877  0.3552
32411SOL    HW1  825   8.677   1.902   5.430 -0.3437 -0.7823  2.5417
32411SOL    HW2  826   8.820   1.879   5.386 -0.7043  1.4709 -0.0980
32412SOL     OW  827   5.035   9.987   6.584 -0.4061 -0.2165  0.0923
32412SOL    HW1  828   5.107   9.949   6.533 -0.8953 -0.0014 -0.7727
32412SOL    HW2  829   5.078  10.052   6.641  0.2071 -0.8158  0.3327
32413SOL     OW  830   3.257   6.636   5.441  0.1123 -0.0968 -0.7366
32413SOL    HW1  831   3.308   6.694   5.383  0.6816  0.1262 -0.0300
32413SOL    HW2  832   3.323   6.597   5.499 -0.5078  0.0741  0.0935
32414SOL     OW  833  11.080   6.501  10.417  0.0480  0.2294  0.7158
32414SOL    HW1  834  11.170   6.522  10.442  0.5061  0.8250 -1.2714
32414SOL    HW2  835  11.027   6.570  10.456  0.6243  0.6740  0.7198
32415SOL     OW  836   3.711  10.840   1.329 -0.1976  0.3501  0.8225
32415SOL    HW1  837   3.656  10.765   1.349  0.9506 -1.1188 -1.1862
32415SOL    HW2  838   3.794  10.823   1.374  0.7927 -0.7319 -1.2221
32416SOL     OW  839   0.444   8.717   2.743 -0.2326  0.1401  0.2712
32416SOL    HW1  840   0.423   8.624   2.736 -1.4388  0.4973 -1.2069
32416SOL    HW2  841   0.371   8.755   2.792 -1.0527  0.6934 -1.3077
32417SOL     OW  842   3.406   1.436   0.310 -0.1583  0.2786 -0.1722
32417SOL    HW1  843   3.374   1.445   0.400  1.1180  0.7542  0.2538
32417SOL    HW2  844   3.382   1.519   0.267 -1.8502 -0.4166 -0.6577
32418SOL     OW  845   6.047   8.980   4.995 -0.0950  0.2340 -0.7727
32418SOL    HW1  846   6.062   9.054   5.053 -1.3458  0.7876 -1.1216
32418SOL    HW2  847   5.985   8.924   5.043  0.0641 -0.0785 -0.9273
32419SOL     OW  848   8.698   8.117  11.090  0.9255 -0.1327 -0.1040
32419SOL    HW1  849   8.651   8.191  11.129  0.3794 -0.1712 -0.6656
32419SOL    HW2  850   8.789   8.147  11.085  0.8356  0.2280  0.3190
32420SOL     OW  851   7.330   9.621   8.626  0.2377  0.4471  0.0314
32420SOL    HW1  852   7.313   9.713   8.605  1.0722  0.1532 -2.2227
32420SOL    HW2  853   7.425   9.613   8.622  0.2370 -0.3084  1.2431
32421SOL     OW  854   7.340   2.494   1.694 -0.3961  0.2374 -0.0638
32421SOL    HW1  855   7.396   2.553   1.644  2.3449 -0.9237  1.3919
32421SOL    HW2  856   7.323   2.540   1.777  2.5290 -1.1617  1.4687
32422SOL     OW  857   2.112   5.099   1.949 -0.1011  0.0495 -0.5564
32422SOL    HW1  858   2.118   5.171   2.013 -0.0403  0.9085 -1.5135
32422SOL    HW2  859   2.020   5.071   1.954 -1.5585  3.4342 -3.5328
32423SOL     OW  860   3.964   4.710   3.677  0.0275 -0.0427 -0.1145
32423SOL    HW1  861   3.877   4.738   3.650  0.2071  0.9271  0.2588
32423SOL    HW2  862   4.021   4.738   3.605  0.2160  0.6390  0.2876
32424SOL     OW  863   0.297   6.751   4.076  0.0074 -0.1131  0.3493
32424SOL    HW1  864   0.315   6.677   4.018  0.4741  1.5474 -1.7316
32424SOL    HW2  865   0.204   6.741   4.098 -0.0133 -1.1507 -0.1211
32425SOL     OW  866   2.682   4.943   8.427  0.3067  0.1203 -0.3051
32425SOL    HW1  867   2.718   4.879   8.488  0.5136  0.9253  0.4455
32425SOL    HW2  868   2.603   4.976   8.470  0.2471  0.4266 -0.6368
32426SOL     OW  869   7.300   5.339   7.787  0.0897  0.3696  0.1042
32426SOL    HW1  870   7.315   5.406   7.854 -1.9607  2.2102 -1.1438
32426SOL    HW2  871   7.206   5.342   7.771  0.0274 -2.4062 -0.4962
32427SOL     OW  872   5.402   8.109   0.564  0.0934 -0.0111  0.0115
32427SOL    HW1  873   5.435   8.062   0.641  0.4281  0.9779  0.4825
32427SOL    HW2  874   5.462   8.183   0.554 -1.9831  1.8788  0.9190
32428SOL     OW  875   9.945   9.600   7.518 -0.1714 -0.3730  0.3204
32428SOL    HW1  876   9.899   9.518   7.537 -1.1530 -0.7571 -3.0168
32428SOL    HW2  877   9.886   9.669   7.549  0.9933 -0.7433  3.8600
32429SOL     OW  878   8.196   8.539   6.612  0.2989  0.3754  0.5346
32429SOL    HW1  879   8.251   8.470   6.648 -0.3556 -0.3548  0.1617
32429SOL    HW2  880   8.122   8.493   6.572  0.4236  1.2206 -0.7392
32430SOL     OW  881   9.454   1.294   2.584 -0.4054 -0.4270  0.6717
32430SOL    HW1  882   9.404   1.308   2.664  0.8498  0.5927  1.3348
32430SOL    HW2  883   9.395   1.320   2.514 -0.1460  3.1520  1.5450
32431SOL     OW  884   6.116   4.260   1.345 -0.3604 -0.1171  0.6022
32431SOL    HW1  885   6.080   4.335   1.298 -2.4453 -1.3182  0.1968
32431SOL    HW2  886   6.055   4.246   1.417  1.8021  0.5646  2.7069
32432SOL     OW  887   3.739   3.500  10.188 -0.5871 -0.1690  0.0090
32432SOL    HW1  888   3.827   3.518  10.155 -1.0108  1.2947 -0.3647
32432SOL    HW2  889   3.722   3.409  10.163  0.4462 -0.1613 -0.7618
32433SOL     OW  890   6.310   2.462   1.269 -0.6361 -0.1482 -0.3912
32433SOL    HW1  891   6.246   2.398   1.240 -0.9134 -0.1982  0.3022
32433SOL    HW2  892   6.269   2.546   1.254 -0.2807 -0.1295 -1.2810
32434SOL     OW  893   6.974  10.413   3.374 -0.5626  0.4051  0.8585
32434SOL    HW1  894   6.962  10.506   3.352  0.4026  0.1379 -1.0650
32434SOL    HW2  895   6.984  10.370   3.289 -2.8072 -1.7816  1.5825
32435SOL     OW  896  10.644   9.236   5.691  0.3629 -0.0019 -0.1195
32435SOL    HW1  897  10.702   9.208   5.621  0.4149 -0.8153  0.2395
32435SOL    HW2  898  10.652   9.331   5.692  1.4063 -0.0801 -0.3227
32436SOL     OW  899   6.743   1.249   4.169  0.0125  0.1209  0.4033
32436SOL    HW1  900   6.734   1.252   4.265 -0.8845 -1.0466  0.3744
32436SOL    HW2  901   6.811   1.185   4.153  0.3189  0.4800  0.2589
32437SOL     OW  902   0.517   3.668   5.150 -0.4536  0.0840  0.0931
32437SOL    HW1  903   0.481   3.749   5.114  1.0487  0.1815 -1.3138
32437SOL    HW2  904   0.604   3.693   5.183 -0.1618 -0.8604  0.0672
32438SOL     OW  905   3.741   6.087  10.843 -0.1751  0.4528 -0.1720
32438SOL    HW1  906   3.831   6.112  10.862  0.4740 -1.5707 -0.3525
32438SOL    HW2  907   3.746   6.040  10.760 -1.3576  0.1317 -0.0808
32439SOL     OW  908   5.599   7.189   2.069  0.0995  0.2416 -0.4138
32439SOL    HW1  909   5.525   7.142   2.032  2.1564 -2.0469 -1.9214
32439SOL    HW2  910   5.626   7.251   2.001 -0.8538  1.6512  0.4470
32440SOL     OW  911   9.036   1.690   3.309  1.4116 -0.2393 -0.1946
32440SOL    HW1  912   9.028   1.678   3.403  0.3015 -0.8847 -0.3523
32440SOL    HW2  913   9.111   1.749   3.298  0.3627  1.4461  1.1967
32441SOL     OW  914   4.859   2.289  10.393 -0.0122  0.4566  0.0650
32441SOL    HW1  915   4.764   2.285  10.390 -0.0325  1.2844 -0.5206
32441SOL    HW2  916   4.879   2.380  10.412  0.7183  1.1714 -3.4536
32442SOL     OW  917   7.154  10.598   8.106  0.6256 -0.7445  0.3394
32442SOL    HW1  918   7.058  10.598   8.100  0.4660 -0.5273  2.1675
32442SOL    HW2  919   7.177  10.690   8.114  0.6936 -0.8909  2.6779
32443SOL     OW  920   7.725   6.774   2.861 -0.3174 -0.1639  0.9405
32443SOL    HW1  921   7.812   6.812   2.844 -0.9169  1.6258  1.6016
32443SOL    HW2  922   7.738   6.717   2.936  0.5841 -1.1855  0.0445
32444SOL     OW  923  10.550   1.887   7.883  0.1289  0.6746  0.3805
32444SOL    HW1  924  10.587   1.918   7.966 -0.1920  1.2651  0.3069
32444SOL    HW2  925  10.474   1.836   7.908 -1.5329  2.9721  0.3994
32445SOL     OW  926  10.041  10.710   2.773  0.5834  0.3042  0.0196
32445SOL    HW1  927   9.961  10.751   2.807 -0.2700 -0.0849 -1.4071
32445SOL    HW2  928  10.027  10.616   2.786  2.1259  0.3189  2.4208
32446SOL     OW  929   4.255  10.736   8.940  0.4864  0.2139  0.2349
32446SOL    HW1  930   4.338  10.760   8.982  0.3892 -0.9688  1.1678
32446SOL    HW2  931   4.273  10.654   8.895  0.1244  0.5750 -0.5802
32447SOL     OW  932   1.778   2.623   8.290  0.0615  0.2153  0.0470
32447SOL    HW1  933   1.851   2.561   8.284  0.4249  0.6091  0.3001
32447SOL    HW2  934   1.708   2.583   8.239  0.5519 -0.0441 -0.4409
32448SOL     OW  935   8.711   6.149   4.890 -0.2063  0.3651  0.3870
32448SOL    HW1  936   8.676   6.067   4.925 -1.0596  0.5578  0.0096
32448SOL    HW2  937   8.702   6.140   4.795  1.3365  0.1814  0.2355
32449SOL     OW  938   4.165   8.550   1.310 -0.3717 -0.1705  0.5993
32449SOL    HW1  939   4.245   8.501   1.331 -0.7074 -0.7612  0.5303
32449SOL    HW2  940   4.163   8.552   1.215  0.1281  0.7986  0.6042
32450SOL     OW  941   8.409   1.923   7.666 -0.7912  0.4685 -0.1923
32450SOL    HW1  942   8.495   1.954   7.637 -0.2508 -0.0781  0.7821
32450SOL    HW2  943   8.347   1.973   7.613  0.0975  1.6044 -0.1994
32451SOL     OW  944   1.280   5.993   2.661 -0.1463 -0.6229  0.2676
32451SOL    HW1  945   1.214   5.933   2.695 -1.0762  0.4430  0.4373
32451SOL    HW2  946   1.246   6.020   2.576 -0.6111  0.8843  0.8749
32452SOL     OW  947   3.926   0.597   1.313  1.0242 -0.0449 -0.3517
32452SOL    HW1  948   3.837   0.627   1.326  1.2027  0.5395 -0.4391
32452SOL    HW2  949   3.921   0.501   1.319 -0.0246 -0.2118 -2.8415
32453SOL     OW  950   1.502   9.029   4.869  0.1540 -0.4188  0.3016
32453SOL    HW1  951   1.564   9.031   4.796  1.1809 -0.5179  1.1482
32453SOL    HW2  952   1.439   9.098   4.848  1.3961  0.7123  0.1355
32454SOL     OW  953   6.369   2.413   6.980 -0.3387 -0.1267  0.3872
32454SOL    HW1  954   6.332   2.343   7.033 -1.0724 -1.3226 -1.5767
32454SOL    HW2  955   6.463   2.400   6.986 -0.4660 -2.2286 -1.0150
32455SOL     OW  956   1.349  10.470   4.706 -0.1240  0.4109 -0.4635
32455SOL    HW1  957   1.427  10.416   4.690  0.6926  0.8942  1.5957
32455SOL    HW2  958   1.383  10.560   4.705 -1.0329  0.7622 -1.4438
32456SOL     OW  959   5.090   2.644   3.380  0.4237  0.0350 -0.3742
32456SOL    HW1  960   5.109   2.558   3.417 -2.3718 -0.4512  0.1855
32456SOL    HW2  961   5.061   2.696   3.456 -1.5852  0.2307 -1.1980
32457SOL     OW  962   3.041  11.048   6.923  0.2920 -0.0820 -0.1824
32457SOL    HW1  963   2.985  10.979   6.959 -1.2160  0.8218 -0.7358
32457SOL    HW2  964   3.130  11.022   6.949 -0.1716 -2.4494 -0.7309
32458SOL     OW  965   0.319   4.219   5.702 -0.4550  0.3700 -0.6685
32458SOL    HW1  966   0.404   4.206   5.660 -1.4545  0.1759 -2.7522
32458SOL    HW2  967   0.340   4.252   5.789  1.8413 -2.8237  0.1717
32459SOL     OW  968   2.166   3.270  10.187  0.1902 -0.3677  0.5674
32459SOL    HW1  969   2.223   3.250  10.261  1.6072  0.3490 -0.2876
32459SOL    HW2  970   2.212   3.235  10.111 -1.3812 -1.3699  0.0236
32460SOL     OW  971   4.451   9.996   8.427 -0.6943  0.7578 -0.4338
32460SOL    HW1  972   4.448   9.906   8.393 -1.5636  1.3438 -2.0404
32460SOL    HW2  973   4.359  10.019   8.441 -0.3990  0.7121  2.0502
32461SOL     OW  974   7.229   5.305   9.894 -0.0835 -0.0920 -0.4031
32461SOL    HW1  975   7.251   5.375   9.832 -0.4033  0.1866 -0.2138
32461SOL    HW2  976   7.296   5.238   9.881  1.1753  0.9308  0.5094
32462SOL     OW  977   6.429   9.297   0.783  0.4601  0.3733  0.5301
32462SOL    HW1  978   6.414   9.204   0.799  1.3382  0.4749  2.1701
32462SOL    HW2  979   6.371   9.319   0.711 -0.7985 -1.1309  1.0450
32463SOL     OW  980   4.918  10.734  11.094 -0.2343  0.0638  0.0309
32463SOL    HW1  981   4.862  10.713  11.168  0.8603  0.0420  0.8854
32463SOL    HW2  982   4.956  10.819  11.117 -0.6541  0.5423 -0.9827
32464SOL     OW  983   5.685  11.086   9.658 -0.8027  0.3120 -0.4768
32464SOL    HW1  984   5.705  11.025   9.587  2.9302  2.2391 -1.3309
32464SOL    HW2  985   5.629  11.152   9.617 -1.3789 -0.3030 -0.6970
32465SOL     OW  986   1.724   9.220   7.115 -0.0587 -0.1204 -0.8691
32465SOL    HW1  987   1.653   9.170   7.076 -2.3637  2.3439 -0.1387
32465SOL    HW2  988   1.745   9.174   7.196 -0.4532 -1.1731 -1.3544
32466SOL     OW  989   4.422   2.138   0.138  0.0182 -0.2415  0.0562
32466SOL    HW1  990   4.436   2.091   0.056 -0.2213  0.2593 -0.2727
32466SOL    HW2  991   4.509   2.149   0.174  0.1938  0.1776 -0.4874
32467SOL     OW  992   3.297   8.794   8.705  0.3265 -0.0485 -0.3443
32467SOL    HW1  993   3.290   8.890   8.697  0.8339 -0.0095 -0.2987
32467SOL    HW2  994   3.246   8.773   8.783 -2.6806 -0.1821 -2.1831
32468SOL     OW  995   3.844   1.279   9.866  0.6558 -0.0529 -0.3949
32468SOL    HW1  996   3.766   1.294   9.814 -0.1036  0.7391  0.9092
32468SOL    HW2  997   3.917   1.289   9.804 -0.2317  0.2545 -1.4108
32469SOL     OW  998   9.784   0.809   4.231 -0.3080  0.3140  0.4198
32469SOL    HW1  999   9.780   0.841   4.321  1.9505  1.6286  0.1252
32469SOL    HW2 1000   9.824   0.722   4.238 -2.1359 -0.5347  0.8230
32470SOL     OW 1001   2.969   0.379   8.578  0.3408 -0.1055 -0.3006
32470SOL    HW1 1002   2.995   0.340   8.661  0.7469 -0.9213 -0.7883
32470SOL    HW2 1003   3.040   0.438   8.555 -0.4131  1.1755  0.5851
32471SOL     OW 1004   1.016   3.569   6.829 -0.1942 -0.3298  0.4920
32471SOL    HW1 1005   1.082   3.524   6.778 -0.5225  0.3150 -0.5316
32471SOL    HW2 1006   0.932   3.537   6.794 -0.4355  1.1956 -0.4174
32472SOL     OW 1007   7.124   5.207   2.932 -0.6104  0.2507 -0.0021
32472SOL    HW1 1008   7.166   5.292   2.939 -1.1483  0.6086 -0.8344
32472SOL    HW2 1009   7.031   5.225   2.947 -0.8326 -0.0405 -0.9117
32473SOL     OW 1010   3.513   6.587   7.509 -0.1423 -0.3996 -0.3792
32473SOL    HW1 1011   3.456   6.651   7.466  0.9303  0.9963  0.2161
32473SOL    HW2 1012   3.598   6.598   7.467 -0.0296 -1.7973 -0.5899
32474SOL     OW 1013   4.010   7.180   0.397 -0.2135 -0.4239 -0.5486
32474SOL    HW1 1014   3.989   7.268   0.364 -0.7255 -1.0810 -2.0829
32474SOL    HW2 1015   4.005   7.188   0.492  0.2515  1.3279 -0.6256
32475SOL     OW 1016  10.060   7.527   4.588 -0.1166  0.1796  0.8395
32475SOL    HW1 1017  10.026   7.492   4.505 -0.6254  1.1145  0.6470
32475SOL    HW2 1018  10.022   7.470   4.655 -1.4427  0.7138  0.5755
32476SOL     OW 1019  10.775   6.255   3.888  0.0099  0.1485 -0.3422
32476SOL    HW1 1020  10.699   6.213   3.930  1.3097 -1.4522  0.5774
32476SOL    HW2 1021  10.742   6.287   3.805 -1.9079  0.4241  0.4667
32477SOL     OW 1022  10.565   8.953   1.091 -0.0614 -0.7274 -0.3281
32477SOL    HW1 1023  10.563   8.932   1.185  0.5446  1.2594  0.1631
32477SOL    HW2 1024  10.658   8.952   1.069 -0.1429 -0.2759 -0.6876
32478SOL     OW 1025   6.152   8.227   7.589  0.2275 -0.4806 -0.3742
32478SOL    HW1 1026   6.230   8.174   7.579  0.4353 -0.2488 -0.0234
32478SOL    HW2 1027   6.154   8.256   7.680 -0.6565 -1.0808 -0.1484
32479SOL     OW 1028   5.670   7.527   9.210 -0.8018 -0.0470 -0.0544
32479SOL    HW1 1029   5.601   7.578   9.253 -1.5500 -1.6725  0.8054
32479SOL    HW2 1030   5.741   7.524   9.274 -0.1924  1.0339 -0.6572
32480SOL     OW 1031   3.877   5.887   6.995 -0.3533 -0.9741  0.6109
32480SOL    HW1 1032   3.957   5.914   7.040 -0.2147 -0.9004  0.3264
32480SOL    HW2 1033   3.863   5.956   6.929 -0.5990 -1.0346  0.5988
32481SOL     OW 1034   4.779   8.598   1.651 -0.3093  0.3305 -1.0736
32481SOL    HW1 1035   4.774   8.665   1.582 -1.0149  0.5631 -0.8031
32481SOL    HW2 1036   4.744   8.642   1.729 -0.1524 -0.1494 -0.7310
32482SOL     OW 1037   9.115   9.571   1.792 -0.6757  0.6614  0.1577
32482SOL    HW1 1038   9.078   9.572   1.704  1.2793  0.5967 -0.7176
32482SOL    HW2 1039   9.039   9.578   1.850 -2.0012  0.8396 -1.5173
32483SOL     OW 1040   2.620   4.253   8.033 -0.4494  1.1942  0.1588
32483SOL    HW1 1041   2.692   4.194   8.009 -2.5154 -1.1525 -0.5950
32483SOL    HW2 1042   2.664   4.337   8.049  2.3053  0.2318 -1.5209
32484SOL     OW 1043   0.869   8.297   8.654 -0.7624  0.0209  0.2092
32484SOL    HW1 1044   0.946   8.339   8.615  0.0171  0.0576  1.7383
32484SOL    HW2 1045   0.821   8.368   8.697 -1.8334  0.0445 -0.9342
32485SOL     OW 1046   2.815   7.429   1.116  0.3502 -0.2837  0.5148
32485SOL    HW1 1047   2.804   7.510   1.166 -0.8562 -1.3788  2.1363
32485SOL    HW2 1048   2.745   7.432   1.051  1.4596  0.8005 -0.6765
32486SOL     OW 1049   7.696   1.452   9.607  0.3708 -0.3415  0.2762
32486SOL    HW1 1050   7.676   1.493   9.692  1.8886  0.0480  0.4717
32486SOL    HW2 1051   7.668   1.361   9.618  2.6425 -0.9291  2.0779
32487SOL     OW 1052   8.658   0.897   4.983  0.0579 -0.3745  0.0262
32487SOL    HW1 1053   8.693   0.985   4.964 -0.9479  0.2782  1.0686
32487SOL    HW2 1054   8.732   0.850   5.023  0.4188  0.2291  0.0830
32488SOL     OW 1055   2.194   2.532   1.077  0.3853  0.1904 -0.2237
32488SOL    HW1 1056   2.255   2.604   1.064  0.8030 -0.0696  0.2426
32488SOL    HW2 1057   2.216   2.497   1.164 -0.7753  0.4285  0.1897
32489SOL     OW 1058   7.862   4.567   1.092 -0.3869 -0.2887  0.0713
32489SOL    HW1 1059   7.801   4.574   1.018 -0.6690 -2.3159  0.0759
32489SOL    HW2 1060   7.947   4.589   1.055 -0.8524  1.1085 -0.2680
32490SOL     OW 1061   2.118   4.228   0.106 -0.1047 -0.0005 -0.2827
32490SOL    HW1 1062   2.161   4.151   0.144 -0.3792 -1.2954 -2.3947
32490SOL    HW2 1063   2.164   4.241   0.023  0.2211  2.4492  0.2172
32491SOL     OW 1064   1.462   4.209   9.172  0.3352 -0.5382  0.6129
32491SOL    HW1 1065   1.421   4.211   9.259  0.3565 -1.8351  0.6652
32491SOL    HW2 1066   1.535   4.270   9.178  0.0346 -0.2437  1.3531
32492SOL     OW 1067   6.358   3.031   2.446  0.2224 -0.0758 -0.0738
32492SOL    HW1 1068   6.404   3.072   2.520 -0.8768 -1.4350  1.4579
32492SOL    HW2 1069   6.423   2.973   2.407 -0.1611 -2.4055  2.4107
32493SOL     OW 1070   9.232   3.442   0.624  0.0381  0.5388  0.3168
32493SOL    HW1 1071   9.162   3.418   0.685 -1.1109  0.4704 -1.0073
32493SOL    HW2 1072   9.258   3.360   0.583 -0.0519  0.7596 -0.1885
32494SOL     OW 1073  10.727   2.431   3.241  0.1851 -0.2271  0.1449
32494SOL    HW1 1074  10.790   2.363   3.215  0.4506  0.4492 -1.0399
32494SOL    HW2 1075  10.754   2.456   3.330 -0.3581 -2.1513  0.9044
32495SOL     OW 1076   2.329   0.607   0.485  0.4876  0.1786 -0.2233
32495SOL    HW1 1077   2.381   0.540   0.441  0.9366 -0.0392  0.6198
32495SOL    HW2 1078   2.246   0.565   0.506  0.5843  0.0320 -0.1338
32496SOL     OW 1079   0.983   6.334   5.307 -0.0610 -0.2664  0.4869
32496SOL    HW1 1080   0.953   6.381   5.229  0.2501 -0.2698  0.3620
32496SOL    HW2 1081   0.930   6.369   5.378  0.2377  0.3510  0.4141
32497SOL     OW 1082   3.609   1.465   4.966 -0.0816 -0.0258 -0.8274
32497SOL    HW1 1083   3.576   1.431   4.882  0.6661  0.4355 -1.3254
32497SOL    HW2 1084   3.692   1.419   4.979  1.1596  1.8374 -1.7219
32498SOL     OW 1085   0.058  10.983   4.842 -0.5309  0.1254  0.4010
32498SOL    HW1 1086   0.046  11.060   4.786 -2.9391 -0.0114  0.6016
32498SOL    HW2 1087   0.118  11.012   4.910 -0.1874  1.3442 -0.3857
32499SOL     OW 1088   6.147   3.268   9.605 -1.1076 -0.2722 -0.4390
32499SOL    HW1 1089   6.109   3.339   9.656 -0.3337  0.6914 -1.1674
32499SOL    HW2 1090   6.129   3.189   9.656 -2.1233  0.4149  0.3070
32500SOL     OW 1091   1.400  10.439   2.447 -0.2169 -0.6926  0.3950
32500SOL    HW1 1092   1.385  10.364   2.390 -2.3336  0.0255 -0.0896
32500SOL    HW2 1093   1.313  10.461   2.481  0.6445  0.3461  2.0746
32501SOL     OW 1094   2.930   0.451   0.289 -0.1510  0.0399  0.4907
32501SOL    HW1 1095   2.962   0.541   0.290  0.8338 -0.3016 -0.0066
32501SOL    HW2 1096   2.930   0.425   0.197  2.0387 -1.3227  0.8079
32502SOL     OW 1097   5.708  10.783   1.870 -0.1694  0.3693 -0.2737
32502SOL    HW1 1098   5.690  10.871   1.835 -0.2474  1.0115  1.2863
32502SOL    HW2 1099   5.623  10.752   1.902 -0.0342 -0.0284 -0.2957
32503SOL     OW 1100   9.006   5.929   9.564 -0.6086  0.0655  0.0477
32503SOL    HW1 1101   8.979   5.837   9.560 -0.1714 -0.0754 -4.2067
32503SOL    HW2 1102   8.940   5.976   9.513  1.3341  1.3665 -1.4265
32504SOL     OW 1103   8.174   1.943   4.756 -0.1542 -0.0305  0.1835
32504SOL    HW1 1104   8.160   1.897   4.839  1.8321  0.3257  0.7821
32504SOL    HW2 1105   8.211   2.028   4.782  1.1631 -0.1837 -1.0528
32505SOL     OW 1106   2.879   3.576   0.997  0.1866  0.0653  0.5084
32505SOL    HW1 1107   2.905   3.510   1.062  0.6343  0.0882  0.3582
32505SOL    HW2 1108   2.785   3.588   1.011  0.0959 -0.6218  0.5263
32506SOL     OW 1109   2.721   2.037   6.993 -0.2737  0.1433  0.1354
32506SOL    HW1 1110   2.773   2.117   7.004 -0.9818  0.5746  0.4179
32506SOL    HW2 1111   2.776   1.980   6.939  0.5035  0.5724  0.4557
32507SOL     OW 1112   8.539  10.504   1.400  0.3093  0.1710 -0.1231
32507SOL    HW1 1113   8.615  10.552   1.433 -0.0667  0.0617  0.9335
32507SOL    HW2 1114   8.507  10.557   1.327  2.1189 -0.4048 -1.4171
32508SOL     OW 1115   4.473   4.042  11.062  0.4161 -0.1544 -0.0484
32508SOL    HW1 1116   4.512   4.027  11.149 -1.0179  3.5269  1.4561
32508SOL    HW2 1117   4.392   3.991  11.063  1.2176 -1.4629  0.0621
32509SOL     OW 1118   9.795   1.862   6.620 -0.1917  0.4303  0.3691
32509SOL    HW1 1119   9.823   1.925   6.687  0.8244 -0.4027  0.7556
32509SOL    HW2 1120   9.796   1.912   6.538  0.0101  1.0755  0.7556
32510SOL     OW 1121   3.530   6.949   7.805 -0.0726 -0.1183 -0.1822
32510SOL    HW1 1122   3.435   6.955   7.818 -0.5604 -3.1912 -1.4167
32510SOL    HW2 1123   3.568   6.982   7.886 -2.1629  1.2859  0.3010
32511SOL     OW 1124   5.591   7.410   9.808 -0.3982 -0.9083  0.3166
32511SOL    HW1 1125   5.679   7.373   9.808  0.0601  0.1420  0.1975
32511SOL    HW2 1126   5.564   7.408   9.899  0.3011  0.0037  0.5558
32512SOL     OW 1127   7.592   8.349  10.506  0.7052  0.1268  0.0666
32512SOL    HW1 1128   7.577   8.318  10.595  1.1626  1.2672  0.5665
32512SOL    HW2 1129   7.562   8.278  10.450  3.0899 -1.8542  1.1179
32513SOL     OW 1130   8.839   1.581   8.445 -0.0821  0.0254 -0.8134
32513SOL    HW1 1131   8.766   1.597   8.505  1.4998  2.3737  0.6583
32513SOL    HW2 1132   8.814   1.627   8.365 -0.9060 -0.6085 -0.9421
32514SOL     OW 1133   9.569   7.740   5.198  0.0583  0.1256 -0.2311
32514SOL    HW1 1134   9.579   7.649   5.226  0.8679  0.1408 -0.4282
32514SOL    HW2 1135   9.566   7.736   5.103  0.1585  0.3048 -0.2438
32515SOL     OW 1136  10.918  10.644   6.095 -0.1085  0.6321 -0.6635
32515SOL    HW1 1137  10.863  10.671   6.168  1.3771 -0.1080  0.7973
32515SOL    HW2 1138  10.857  10.631   6.022 -1.8261  0.0954  0.8017
32516SOL     OW 1139   2.518   7.172   4.980  0.0385 -0.2817  0.9402
32516SOL    HW1 1140   2.592   7.111   4.974  1.1678  1.1467 -3.2945
32516SOL    HW2 1141   2.470   7.159   4.898 -1.9453  1.7732  1.6942
32517SOL     OW 1142   6.803   4.011   5.521 -0.3813 -0.7350  0.0612
32517SOL    HW1 1143   6.777   4.103   5.523  0.7860 -0.3893  0.7899
32517SOL    HW2 1144   6.874   4.008   5.457 -1.5679 -1.4828 -1.2515
32518SOL     OW 1145   1.188   1.482  10.747  0.0173 -0.7810 -0.1173
32518SOL    HW1 1146   1.278   1.465  10.718  0.2986  1.0822 -0.4830
32518SOL    HW2 1147   1.165   1.407  10.801  2.0454 -1.0059  0.5112
32519SOL     OW 1148   7.900   4.183   6.267  0.2841 -0.5191 -0.2003
32519SOL    HW1 1149   7.816   4.213   6.231  0.1122 -1.5382 -0.6786
32519SOL    HW2 1150   7.923   4.250   6.332 -1.6550 -0.9735  1.0457
32520SOL     OW 1151   3.204   3.066   0.721 -0.1133 -0.0381 -0.5999
32520SOL    HW1 1152   3.265   2.992   0.729 -1.0594 -0.6830  0.7997
32520SOL    HW2 1153   3.120   3.032   0.749 -1.1098  0.9345 -2.2182
32521SOL     OW 1154   8.106  10.462   8.132  0.1462 -0.4051  0.1533
32521SOL    HW1 1155   8.187  10.428   8.094  0.8310  1.7118 -0.4557
32521SOL    HW2 1156   8.134  10.507   8.212 -0.6669 -0.9489  0.7676
32522SOL     OW 1157   5.667   1.553   8.122  0.3605  0.0767  0.3205
32522SOL    HW1 1158   5.607   1.545   8.048  1.7601 -2.0969 -0.6918
32522SOL    HW2 1159   5.621   1.512   8.195 -0.1335  0.1906  0.0773
32523SOL     OW 1160   6.564   3.029   0.313 -0.6591  0.3847  0.2760
32523SOL    HW1 1161   6.499   3.098   0.328 -0.3102  0.7223  0.2490
32523SOL    HW2 1162   6.521   2.949   0.343  0.5917  1.1771  5.1663
32524SOL     OW 1163   2.969   5.585   8.979  0.6170  0.1786 -0.6908
32524SOL    HW1 1164   2.883   5.603   8.939  0.7765  1.1948 -0.5762
32524SOL    HW2 1165   3.026   5.568   8.904 -0.4379 -4.4119 -0.7719
32525SOL     OW 1166   5.016   9.584   7.339 -0.3351 -0.3616 -0.5815
32525SOL    HW1 1167   5.014   9.518   7.269 -0.1498 -1.5829  0.5323
32525SOL    HW2 1168   4.928   9.582   7.377 -0.4276  0.2772 -0.7492
32526SOL     OW 1169   0.505  10.221   3.779  0.2109  0.4463  0.3254
32526SOL    HW1 1170   0.510  10.315   3.760 -1.8784  0.0296 -3.1347
32526SOL    HW2 1171   0.422  10.211   3.826  0.8581  0.3926  1.4798
32527SOL     OW 1172   1.464   3.540   0.947  0.1312  0.6258  0.4930
32527SOL    HW1 1173   1.539   3.551   0.889  0.1239  1.4751  0.6279
32527SOL    HW2 1174   1.500   3.548   1.035  0.5000 -2.6749  0.7794
32528SOL     OW 1175   7.877   2.848   5.203  0.2782  0.5045  0.1130
32528SOL    HW1 1176   7.932   2.879   5.131  2.0803 -0.4905  1.0051
32528SOL    HW2 1177   7.871   2.923   5.262  1.0806  0.5071  0.2105
32529SOL     OW 1178   8.111   8.246   5.675 -0.1208 -0.2655  0.0364
32529SOL    HW1 1179   8.081   8.308   5.609  0.4819 -0.4458 -0.4200
32529SOL    HW2 1180   8.061   8.268   5.754 -0.2102  0.5299 -0.2333
32530SOL     OW 1181   4.258   4.744   2.887 -0.0290 -0.0699  0.1860
32530SOL    HW1 1182   4.312   4.716   2.961  0.0051 -0.4350  0.0272
32530SOL    HW2 1183   4.247   4.838   2.899  1.6196  0.2401 -0.3961
32531SOL     OW 1184  10.221   4.667   3.633 -0.3859 -0.1947 -0.0167
32531SOL    HW1 1185  10.287   4.705   3.575 -0.1520  1.2977  1.1712
32531SOL    HW2 1186  10.271   4.615   3.696 -0.3336  0.7067  0.7103
32532SOL     OW 1187   8.422   4.271   7.841 -0.4463 -0.3764 -0.3236
32532SOL    HW1 1188   8.503   4.229   7.872 -1.5677 -0.3346  3.0289
32532SOL    HW2 1189   8.356   4.247   7.906 -2.4087  2.2266 -1.1846
32533SOL     OW 1190   6.100   7.143   0.222 -0.3513 -0.9737  0.2154
32533SOL    HW1 1191   6.082   7.199   0.297  1.1306 -0.1347 -0.0163
32533SOL    HW2 1192   6.179   7.095   0.246  0.5023 -0.2336 -1.0346
32534SOL     OW 1193   1.170   7.188  10.517 -0.5243 -0.0809  0.3467
32534SOL    HW1 1194   1.126   7.104  10.520  0.5669 -0.7613 -1.2473
32534SOL    HW2 1195   1.198   7.197  10.426  3.5706 -0.2291  1.4010
32535SOL     OW 1196  10.368   6.242   1.875 -0.2857  0.2415 -0.3496
32535SOL    HW1 1197  10.414   6.194   1.806  0.8549  1.9835 -0.8706
32535SOL    HW2 1198  10.298   6.288   1.830 -0.3878  0.3098 -0.1216
32536SOL     OW 1199   2.221   2.568   2.397  0.5076 -0.0664 -0.4621
32536SOL    HW1 1200   2.288   2.536   2.336  0.4467  1.5874 -1.4728
32536SOL    HW2 1201   2.253   2.544   2.483  1.9051 -0.1718 -0.9901
32537SOL     OW 1202   9.773   6.209   0.433 -0.1053  0.1380  0.5482
32537SOL    HW1 1203   9.831   6.264   0.485 -0.0483  1.2532 -0.6493
32537SOL    HW2 1204   9.696   6.263   0.416 -0.7433 -0.7110  0.6654
32538SOL     OW 1205   1.975   0.845   7.772 -0.5436  0.0349 -0.6608
32538SOL    HW1 1206   2.010   0.758   7.792 -0.3025  0.6746  2.0172
32538SOL    HW2 1207   1.880   0.834   7.775 -0.5196 -0.2330 -0.8284
32539SOL     OW 1208   2.858   7.283   3.591 -0.7639  0.3150 -0.0811
32539SOL    HW1 1209   2.939   7.273   3.640 -0.5422  0.8198 -0.3404
32539SOL    HW2 1210   2.829   7.373   3.608 -1.0472  0.2737 -0.3247
32540SOL     OW 1211   5.806   3.042  10.785 -0.1178 -0.1928 -0.5562
32540SOL    HW1 1212   5.875   2.989  10.746 -1.8471 -2.0835 -1.2215
32540SOL    HW2 1213   5.774   3.097  10.714 -0.6212 -0.7991 -0.8159
32541SOL     OW 1214  10.337   0.421   1.701  0.5370  0.0431 -0.4639
32541SOL    HW1 1215  10.334   0.356   1.771  1.5982 -0.1592 -0.5858
32541SOL    HW2 1216  10.250   0.419   1.662  0.3997 -0.9285 -0.1233
32542SOL     OW 1217   1.873   5.274   0.760 -0.6279  0.3588  0.1567
32542SOL    HW1 1218   1.904   5.310   0.677 -0.8477 -0.5628 -0.3407
32542SOL    HW2 1219   1.845   5.185   0.739  1.4490 -0.7492  1.6406
32543SOL     OW 1220   5.029   5.452   2.250  0.0369  0.1183  0.1502
32543SOL    HW1 1221   5.092   5.523   2.264 -1.5891  1.7328 -0.4222
32543SOL    HW2 1222   4.987   5.440   2.335  0.1944 -0.0566  0.2045
32544SOL     OW 1223   3.671   5.344   7.017 -0.5141 -0.5341  0.3086
32544SOL    HW1 1224   3.611   5.309   7.083 -1.3320  0.7533  0.2826
32544SOL    HW2 1225   3.736   5.275   7.005 -1.5113 -1.6236  0.9579
32545SOL     OW 1226   4.138   2.436  10.247  0.1728 -0.2500 -0.1821
32545SOL    HW1 1227   4.126   2.453  10.340 -1.7691  2.4292 -0.8297
32545SOL    HW2 1228   4.141   2.340  10.241 -0.1723 -0.5112  2.5521
32546SOL     OW 1229   9.090   1.649   9.281 -0.2743 -0.5234 -0.0287
32546SOL    HW1 1230   9.032   1.702   9.336  0.0678 -0.7033  0.5174
32546SOL    HW2 1231   9.118   1.577   9.338  0.1672 -0.6579 -0.4092
32547SOL     OW 1232   1.486   0.419   5.497  0.4160  0.3659  0.1965
32547SOL    HW1 1233   1.575   0.454   5.503  0.7518 -0.1244 -1.4830
32547SOL    HW2 1234   1.445   0.444   5.580  2.1503  0.4854  1.0612
32548SOL     OW 1235   0.474   3.967   6.746  0.5078  0.1497  0.1018
32548SOL    HW1 1236   0.406   3.961   6.679 -0.6201  0.0861  1.2104
32548SOL    HW2 1237   0.470   4.058   6.776 -1.4100 -0.5919  2.4325
32549SOL     OW 1238   9.444  10.361   3.339 -0.5306  0.1329 -0.0397
32549SOL    HW1 1239   9.525  10.413   3.339 -0.9001  0.7168  0.3145
32549SOL    HW2 1240   9.393  10.397   3.267 -1.3505  1.1793  1.0224
32550SOL     OW 1241   0.854   5.049   3.014  0.3462  0.1273  0.0309
32550SOL    HW1 1242   0.810   5.115   2.959 -0.7695  0.8791  1.7333
32550SOL    HW2 1243   0.894   4.988   2.952 -1.9620  0.1888 -1.6198
32551SOL     OW 1244  10.311   0.427   6.033 -0.1988 -0.4828 -0.0668
32551SOL    HW1 1245  10.235   0.439   6.091 -0.1140  1.2873 -0.2899
32551SOL    HW2 1246  10.378   0.390   6.090 -0.9034 -1.1534  0.3595
32552SOL     OW 1247   6.223   4.079   8.423 -0.0536  0.4509 -0.3813
32552SOL    HW1 1248   6.139   4.097   8.380 -0.4519 -1.4718 -0.5025
32552SOL    HW2 1249   6.263   4.011   8.370 -0.1749 -1.4089  1.7429
32553SOL     OW 1250   1.988   7.369   9.996  0.2671 -0.7102 -0.4764
32553SOL    HW1 1251   1.918   7.421   9.955  0.6695 -0.0404 -0.3279
32553SOL    HW2 1252   2.020   7.312   9.925  1.6411  1.1475 -1.4437
32554SOL     OW 1253   7.972   2.474   6.885  0.1817 -0.2645  0.5445
32554SOL    HW1 1254   7.924   2.546   6.927  0.6723  0.8787 -0.7797
32554SOL    HW2 1255   7.938   2.472   6.796  1.2964 -0.6392  0.1144
32555SOL     OW 1256   9.819   2.484   7.077  0.3320 -0.6680 -0.1087
32555SOL    HW1 1257   9.838   2.570   7.114  0.0228 -0.8164  0.4122
32555SOL    HW2 1258   9.777   2.436   7.149 -1.5443 -0.5225 -1.0656
32556SOL     OW 1259   1.736   8.979   8.765  0.2075 -0.3163  0.0215
32556SOL    HW1 1260   1.800   8.908   8.768  0.1321 -0.3844 -0.0283
32556SOL    HW2 1261   1.768   9.037   8.696  0.3067 -0.2651  0.1090
32557SOL     OW 1262   2.764   0.815   3.135 -1.0484  0.5961 -0.2260
32557SOL    HW1 1263   2.748   0.803   3.042  1.6298 -0.3568 -0.6404
32557SOL    HW2 1264   2.849   0.860   3.140 -1.1848  0.7420  1.7446
32558SOL     OW 1265   5.973  10.929   7.452 -0.3573 -0.1260  0.2173
32558SOL    HW1 1266   5.969  11.005   7.510  0.9154  0.5107 -0.4910
32558SOL    HW2 1267   5.908  10.868   7.487 -1.8812  1.5465  0.4237
32559SOL     OW 1268   1.302   8.765   2.713  0.3112  0.0174  0.3130
32559SOL    HW1 1269   1.349   8.840   2.747 -0.3032  0.5946 -0.0927
32559SOL    HW2 1270   1.281   8.712   2.790 -0.6572  1.0744  0.7980
32560SOL     OW 1271   0.570   6.063   0.481  0.4357 -0.2859  0.4975
32560SOL    HW1 1272   0.502   5.998   0.464 -0.2012  0.5211 -0.1373
32560SOL    HW2 1273   0.643   6.013   0.518 -1.1394 -0.9541  2.9305
32561SOL     OW 1274   7.597   2.986   1.870  0.5924  0.0596  0.7362
32561SOL    HW1 1275   7.617   3.080   1.868 -0.5113  0.3300  1.4542
32561SOL    HW2 1276   7.523   2.979   1.930 -1.4126 -0.9047 -1.6839
32562SOL     OW 1277   9.689   3.965   8.244  0.3923  0.3043 -0.4120
32562SOL    HW1 1278   9.686   4.018   8.324  0.4771 -0.1963 -0.0728
32562SOL    HW2 1279   9.780   3.938   8.237  0.3520  0.2166 -0.5928
32563SOL     OW 1280   8.500   2.691   0.972  0.2561  0.4713  0.4346
32563SOL    HW1 1281   8.461   2.607   0.998  1.0169 -0.2248 -0.6153
32563SOL    HW2 1282   8.483   2.697   0.878  3.0009 -0.0674 -0.1668
32564SOL     OW 1283   4.258   5.846   1.671 -0.7248 -0.1518  0.1512
32564SOL    HW1 1284   4.244   5.766   1.620  0.7494  0.0260 -0.5941
32564SOL    HW2 1285   4.216   5.915   1.620 -0.7518 -0.2380  0.0564
32565SOL     OW 1286   0.895   0.378   1.989 -0.1905 -0.5881  0.0319
32565SOL    HW1 1287   0.921   0.298   2.035 -0.7518 -0.1907  1.0974
32565SOL    HW2 1288   0.849   0.348   1.911  1.3945 -1.2909 -0.6698
32566SOL     OW 1289   8.764   7.866   0.059  0.1357  0.0206 -0.4862
32566SOL    HW1 1290   8.718   7.940   0.019  0.2306  1.3483  1.6735
32566SOL    HW2 1291   8.799   7.817  -0.015 -1.6843  0.9691 -2.0716
32567SOL     OW 1292   7.155   4.898   9.475  0.8007 -0.1927 -0.2575
32567SOL    HW1 1293   7.198   4.816   9.451  1.9661  0.8648 -1.9586
32567SOL    HW2 1294   7.073   4.898   9.424 -0.8716 -1.7360  2.2197
32568SOL     OW 1295   8.620   8.995   7.517  0.2564  0.0714 -0.1368
32568SOL    HW1 1296   8.602   8.993   7.611  0.4240  1.6187 -0.0446
32568SOL    HW2 1297   8.583   8.913   7.484  1.1409 -1.0044  1.4304
32569SOL     OW 1298  10.829   5.835   3.267 -0.2537  0.2649 -0.6172
32569SOL    HW1 1299  10.797   5.906   3.212 -1.0585 -0.1825 -0.7378
32569SOL    HW2 1300  10.833   5.759   3.208 -1.7852 -0.3938  0.0663
32570SOL     OW 1301   0.960   0.954   8.131 -0.1909  0.5885 -0.4792
32570SOL    HW1 1302   0.890   0.990   8.076 -0.9003 -1.4062 -0.9838
32570SOL    HW2 1303   0.923   0.955   8.220  0.1980  2.0045 -0.3178
32571SOL     OW 1304   7.754   7.318  10.927 -0.0495 -0.0082 -0.0049
32571SOL    HW1 1305   7.751   7.223  10.934 -0.2840 -0.0535 -0.6746
32571SOL    HW2 1306   7.730   7.349  11.015 -1.2745 -0.5643 -0.1259
32572SOL     OW 1307   4.675   4.067  10.679 -0.1864 -0.3222  0.1366
32572SOL    HW1 1308   4.621   4.042  10.604 -0.5372 -0.8108  0.5393
32572SOL    HW2 1309   4.677   3.989  10.734 -0.1313  0.0999  0.7472
32573SOL     OW 1310   0.629   7.917   4.786 -0.1351  0.2144 -0.0080
32573SOL    HW1 1311   0.697   7.970   4.829 -0.0542 -0.7087  1.0317
32573SOL    HW2 1312   0.627   7.951   4.696  0.0385  1.8502  0.5650
32574SOL     OW 1313   6.200   6.467   7.529 -0.2440 -0.6551  0.1010
32574SOL    HW1 1314   6.129   6.451   7.467 -0.2980  1.4450 -0.4612
32574SOL    HW2 1315   6.156   6.482   7.613 -0.1151 -5.0059  1.1920
32575SOL     OW 1316   8.193   6.343   4.343 -0.0881 -0.2435 -0.2717
32575SOL    HW1 1317   8.185   6.292   4.262  1.2431 -0.3954 -0.3373
32575SOL    HW2 1318   8.171   6.281   4.413  0.5193 -0.6342 -0.4165
32576SOL     OW 1319   2.645   5.614   5.508 -0.7368 -0.1505 -0.1934
32576SOL    HW1 1320   2.605   5.688   5.463 -1.0715 -1.1040 -1.5507
32576SOL    HW2 1321   2.575   5.549   5.515 -0.6693 -0.0784  1.6888
32577SOL     OW 1322   9.097  10.030   9.426 -0.1377 -0.0570 -0.6925
32577SOL    HW1 1323   9.034   9.974   9.472  0.5415 -1.8108 -1.7610
32577SOL    HW2 1324   9.169   9.971   9.405  0.9253  1.4187 -1.3012
32578SOL     OW 1325   5.523   6.135  10.009  0.0925  0.0269 -0.2836
32578SOL    HW1 1326   5.566   6.197  10.068  0.0267  1.3784 -1.5910
32578SOL    HW2 1327   5.578   6.134   9.930 -0.5442 -0.6773 -0.7313
32579SOL     OW 1328   9.922   3.840   7.825 -0.2380 -0.1123  0.4644
32579SOL    HW1 1329   9.927   3.793   7.742  0.5726  0.4781  0.1753
32579SOL    HW2 1330   9.888   3.775   7.887 -0.0972 -0.7822 -0.1482
32580SOL     OW 1331   6.789   6.943   2.230 -0.3322 -0.3810 -0.9904
32580SOL    HW1 1332   6.716   6.881   2.223  0.2775 -1.6820  2.4551
32580SOL    HW2 1333   6.747   7.025   2.259 -0.6216 -0.5397 -0.9527
32581SOL     OW 1334  11.012   7.241   7.116  0.2924 -0.0207 -0.2789
32581SOL    HW1 1335  11.010   7.285   7.201  2.4164  1.8987 -1.1107
32581SOL    HW2 1336  11.084   7.179   7.123 -0.4294 -0.8897 -0.2797
32582SOL     OW 1337   2.226   0.561   3.692  0.7287 -0.2679  0.2917
32582SOL    HW1 1338   2.216   0.621   3.617  1.0803 -0.6288 -0.0535
32582SOL    HW2 1339   2.201   0.613   3.768  1.1433  0.3595  0.0107
32583SOL     OW 1340   0.073   5.918   1.842  0.6205 -0.3070 -0.0882
32583SOL    HW1 1341   0.014   5.843   1.847 -1.0101  0.9110 -0.2335
32583SOL    HW2 1342   0.159   5.883   1.868 -0.5206 -1.7135  2.0376
32584SOL     OW 1343  10.716   5.841   4.428 -0.0554  0.2643  0.2196
32584SOL    HW1 1344  10.793   5.785   4.416  0.5108  0.9584  0.5798
32584SOL    HW2 1345  10.743   5.905   4.494 -1.3719 -0.2743  1.3262
32585SOL     OW 1346   0.579   2.986   9.913 -0.2875  0.4710 -0.1157
32585SOL    HW1 1347   0.555   2.916   9.974 -0.6158  0.0313 -0.7345
32585SOL    HW2 1348   0.513   2.981   9.844  0.1473  0.8795 -0.5713
32586SOL     OW 1349   4.126   5.096   9.913 -0.2830 -0.2034  1.0078
32586SOL    HW1 1350   4.198   5.088   9.975  0.4392  0.2963  0.2586
32586SOL    HW2 1351   4.064   5.027   9.938 -0.0693  0.0615  2.3398
32587SOL     OW 1352   6.136   4.377   6.528 -0.4050 -0.5197  0.3528
32587SOL    HW1 1353   6.059   4.349   6.479  0.6505  1.0637 -2.4363
32587SOL    HW2 1354   6.108   4.458   6.572 -0.0775  0.7528 -1.6718
32588SOL     OW 1355   9.102   1.122   7.766  0.2713  0.1310 -0.0056
32588SOL    HW1 1356   9.089   1.170   7.684 -0.5826  0.3768  0.2604
32588SOL    HW2 1357   9.051   1.042   7.756 -0.8501  0.7180  0.7341
32589SOL     OW 1358   0.359   7.769   4.896  0.0119  0.0927 -0.4306
32589SOL    HW1 1359   0.408   7.851   4.904 -1.3519  1.0527 -1.5144
32589SOL    HW2 1360   0.279   7.784   4.945 -0.9361  0.0053 -1.8805
32590SOL     OW 1361   7.269   7.383   8.899  0.3370  0.1925  0.0815
32590SOL    HW1 1362   7.222   7.362   8.980  0.6307 -1.0725 -0.0507
32590SOL    HW2 1363   7.241   7.315   8.837 -0.0467  1.2616 -0.9588
32591SOL     OW 1364   9.537   8.099   9.458  0.2361 -0.8610  0.3681
32591SOL    HW1 1365   9.539   8.132   9.548 -1.9216 -0.8456  0.4584
32591SOL    HW2 1366   9.589   8.019   9.461  0.0189 -0.9787  1.7056
32592SOL     OW 1367   0.545   5.025   1.609 -0.0013  0.1275 -0.0030
32592SOL    HW1 1368   0.470   4.970   1.589  1.4345 -1.8365 -0.3285
32592SOL    HW2 1369   0.509   5.113   1.619 -2.0256 -0.3727 -2.1931
32593SOL     OW 1370  10.739   9.771   6.502 -0.1618  0.1658 -0.3385
32593SOL    HW1 1371  10.797   9.735   6.569 -0.3522 -1.9322 -1.2188
32593SOL    HW2 1372  10.651   9.754   6.534 -0.2573 -1.2227 -1.2414
32594SOL     OW 1373   6.511   5.340   7.638  0.1634 -0.5088 -0.0748
32594SOL    HW1 1374   6.519   5.391   7.719  1.1226 -2.5437  1.1706
32594SOL    HW2 1375   6.567   5.265   7.651 -1.7937 -2.3408 -1.5197
32595SOL     OW 1376   4.517   8.253   3.486  1.1273  0.4571 -0.1134
32595SOL    HW1 1377   4.576   8.310   3.436 -0.5776 -0.0341 -2.8827
32595SOL    HW2 1378   4.432   8.296   3.482  0.4964 -0.6824  0.5296
32596SOL     OW 1379   8.938   8.547   2.479 -0.1162  0.1943 -0.5262
32596SOL    HW1 1380   8.880   8.508   2.545 -1.5483 -0.0691 -1.8771
32596SOL    HW2 1381   9.025   8.513   2.500 -0.0733  1.7605  2.4802
32597SOL     OW 1382   9.615   5.815   8.671 -0.1545 -0.0434  0.7245
32597SOL    HW1 1383   9.615   5.804   8.766 -0.3857  0.6381  0.8138
32597SOL    HW2 1384   9.686   5.877   8.654 -0.7755  0.6547  0.5757
32598SOL     OW 1385   9.929   3.866   0.123 -0.3012 -0.0684 -0.2358
32598SOL    HW1 1386   9.877   3.797   0.164  0.4797 -0.8311 -0.4962
32598SOL    HW2 1387  10.019   3.849   0.151  0.0346  0.2992 -1.0386
32599SOL     OW 1388   0.548   0.123   1.805 -0.4131  0.2994 -0.6577
32599SOL    HW1 1389   0.641   0.105   1.793 -0.7553 -1.5273 -0.8162
32599SOL    HW2 1390   0.515   0.143   1.718 -0.6459 -1.6071 -1.0417
32600SOL     OW 1391   1.149   9.488   7.777  0.2485  0.1751 -0.5956
32600SOL    HW1 1392   1.240   9.514   7.761  0.2865  1.5190  1.4180
32600SOL    HW2 1393   1.156   9.410   7.831  0.2284  0.8368  0.3719
32601SOL     OW 1394   3.348   9.675   4.251 -0.4336 -0.6294  0.3615
32601SOL    HW1 1395   3.279   9.652   4.189 -0.2075 -0.3755  0.0105
32601SOL    HW2 1396   3.356   9.770   4.245  1.1252 -0.7925 -0.8991
32602SOL     OW 1397   1.469   6.875  10.764  0.3610  0.5795  0.0686
32602SOL    HW1 1398   1.501   6.830  10.842  0.6364  1.5768  0.5559
32602SOL    HW2 1399   1.374   6.881  10.777  0.3350  0.2127  0.0431
32603SOL     OW 1400   4.577   9.948   5.829 -0.1870 -0.5403  0.0268
32603SOL    HW1 1401   4.595   9.868   5.878 -0.3936 -1.2496 -1.0248
32603SOL    HW2 1402   4.579  10.017   5.895 -3.0947 -1.7272  1.5557
32604SOL     OW 1403   1.434  10.384   1.415  0.5777  0.0531 -0.3894
32604SOL    HW1 1404   1.472  10.311   1.366  0.1953 -0.6689  0.3558
32604SOL    HW2 1405   1.438  10.458   1.355  3.0177 -0.0114 -0.3886
32605SOL     OW 1406   6.523   7.615   6.684 -0.5751 -0.0684  0.7226
32605SOL    HW1 1407   6.452   7.650   6.737 -1.1149  0.4419 -0.3144
32605SOL    HW2 1408   6.539   7.683   6.618  0.3895 -0.4913  0.5115
32606SOL     OW 1409   6.433  10.111   4.427 -0.2241 -0.2039  0.4605
32606SOL    HW1 1410   6.508  10.089   4.482 -0.0974 -0.0496  0.3482
32606SOL    HW2 1411   6.411  10.029   4.383 -0.8145 -0.5288  1.3279
32607SOL     OW 1412   3.965  10.378   0.255 -0.3284 -0.6127  0.1164
32607SOL    HW1 1413   3.952  10.378   0.160  0.3190  0.0589  0.0213
32607SOL    HW2 1414   3.921  10.457   0.285  1.6430  0.5809  0.0390
32608SOL     OW 1415   4.666   7.736   1.515  0.0213  0.5512  0.5631
32608SOL    HW1 1416   4.682   7.795   1.589  0.2031 -1.0299  1.8675
32608SOL    HW2 1417   4.746   7.683   1.509 -0.7999 -0.7407  0.6147
32609SOL     OW 1418   9.579   2.346   1.950 -0.2940 -0.0651 -0.5924
32609SOL    HW1 1419   9.586   2.334   1.855 -1.6800  1.6433 -0.9758
32609SOL    HW2 1420   9.508   2.287   1.976  1.3937 -2.0469 -0.2073
32610SOL     OW 1421   3.157  10.172   0.372  0.5452 -0.2237  0.1688
32610SOL    HW1 1422   3.101  10.096   0.385 -0.4818  0.0534 -2.1817
32610SOL    HW2 1423   3.171  10.176   0.278  1.7579  1.6858  0.3752
32611SOL     OW 1424  10.648   8.289  10.233 -0.4171  0.3445  0.3789
32611SOL    HW1 1425  10.567   8.274  10.282 -1.0819  2.0636 -0.1230
32611SOL    HW2 1426  10.708   8.327  10.298  0.4105 -1.9054  1.0203
32612SOL     OW 1427   3.003  10.753   3.608  0.4325  0.2999  0.0927
32612SOL    HW1 1428   2.961  10.751   3.522 -0.7950  2.5163  0.5609
32612SOL    HW2 1429   2.941  10.800   3.664  1.4439 -0.5991  2.0720
32613SOL     OW 1430   1.189  10.993   9.653  0.3708 -0.3691 -0.0613
32613SOL    HW1 1431   1.261  10.930   9.653 -0.5220 -1.5237  2.5175
32613SOL    HW2 1432   1.125  10.956   9.592  0.5953 -1.0553  0.1045
32614SOL     OW 1433   2.933   8.761   2.785 -0.0081 -0.3355  0.1418
32614SOL    HW1 1434   2.902   8.723   2.867 -0.8912 -1.2750 -0.5984
32614SOL    HW2 1435   2.861   8.747   2.724 -0.0715  1.8557 -0.3893
32615SOL     OW 1436   7.451  10.748   8.080 -0.7410  0.0678 -0.1103
32615SOL    HW1 1437   7.529  10.788   8.042 -0.9712  1.9291  1.2286
32615SOL    HW2 1438   7.485  10.677   8.135 -0.0494  0.4241 -0.0633
32616SOL     OW 1439   0.963   2.068   2.412  0.1903 -0.2521  0.3424
32616SOL    HW1 1440   0.990   1.976   2.406 -0.7857 -0.4687 -1.0152
32616SOL    HW2 1441   0.947   2.095   2.322  0.4377  1.2607  0.7209
32617SOL     OW 1442   2.486   1.159   9.815 -0.4840  0.3510 -0.7470
32617SOL    HW1 1443   2.543   1.235   9.804 -1.2361  0.9404 -0.7128
32617SOL    HW2 1444   2.399   1.197   9.827 -0.6265 -0.4298  1.0766
32618SOL     OW 1445   1.688   5.633  10.365  0.2522  0.1112  0.1496
32618SOL    HW1 1446   1.671   5.546  10.328 -0.6660  0.3353  0.0216
32618SOL    HW2 1447   1.758   5.619  10.429 -0.2708 -0.8225  0.5263
32619SOL     OW 1448   6.474   1.247   2.267 -0.1327  0.1063 -0.4182
32619SOL    HW1 1449   6.479   1.264   2.361 -0.0397  1.3797 -0.6376
32619SOL    HW2 1450   6.503   1.156   2.257 -1.7126 -0.6061  0.9532
32620SOL     OW 1451   2.842   6.120   5.332  0.0129 -0.3398  0.5787
32620SOL    HW1 1452   2.765   6.142   5.384  0.2359  0.8317  0.4486
32620SOL    HW2 1453   2.807   6.083   5.251 -0.5068  1.5575 -0.1217
32621SOL     OW 1454   0.741   5.728   2.308  0.3804  0.2932 -0.4895
32621SOL    HW1 1455   0.786   5.812   2.313 -0.0494  0.4997  0.0641
32621SOL    HW2 1456   0.719   5.717   2.216  0.9824  0.4978 -0.6595
32622SOL     OW 1457   6.855   9.771   7.567 -0.0056  0.5327  0.0462
32622SOL    HW1 1458   6.883   9.714   7.639 -2.6492 -1.2182 -0.1671
32622SOL    HW2 1459   6.865   9.717   7.488  0.9176  1.7143 -0.6836
32623SOL     OW 1460   6.277   5.297   1.630  0.4221  0.2910 -0.3995
32623SOL    HW1 1461   6.207   5.360   1.610 -0.7993 -1.3789 -1.6354
32623SOL    HW2 1462   6.265   5.275   1.722 -0.7807 -0.0743 -0.6338
32624SOL     OW 1463   2.961   3.666   5.134 -0.1950 -0.2986 -0.2743
32624SOL    HW1 1464   2.888   3.723   5.109  0.7945  0.6621 -1.0928
32624SOL    HW2 1465   2.921   3.582   5.155 -1.5679  0.3395 -0.2841
32625SOL     OW 1466   5.914   2.229   8.554 -0.0513 -0.0237 -1.1713
32625SOL    HW1 1467   5.833   2.250   8.601 -0.2216 -1.2206 -0.8985
32625SOL    HW2 1468   5.983   2.260   8.612 -0.2291 -2.2286  0.3549
32626SOL     OW 1469   7.648  10.898   2.722 -0.0757  0.6453  0.6916
32626SOL    HW1 1470   7.740  10.908   2.746 -0.0775  2.2950  0.1428
32626SOL    HW2 1471   7.603  10.968   2.769 -1.3717 -1.1923  2.3401
32627SOL     OW 1472   5.099   6.573   8.004 -0.0398  0.1145 -0.3171
32627SOL    HW1 1473   5.078   6.479   8.013  0.7892 -0.0151  0.3048
32627SOL    HW2 1474   5.167   6.576   7.937  1.3883  0.0541  1.0732
32628SOL     OW 1475   3.297   5.820   0.124 -0.2939  0.0195 -0.4221
32628SOL    HW1 1476   3.334   5.742   0.084  0.0362  0.5606 -1.1784
32628SOL    HW2 1477   3.203   5.813   0.107  0.0188  1.2492 -3.1615
32629SOL     OW 1478   8.016   7.919   9.299  0.1898  0.1424 -0.8441
32629SOL    HW1 1479   8.009   7.828   9.330 -0.0075 -0.5234 -2.7228
32629SOL    HW2 1480   7.942   7.963   9.339  0.4264 -0.4613  0.2945
32630SOL     OW 1481   5.068   0.686   3.269 -0.0957 -0.3053 -0.0287
32630SOL    HW1 1482   4.998   0.740   3.232  1.4964  0.1632 -2.6436
32630SOL    HW2 1483   5.027   0.640   3.342 -2.7766  0.8277 -0.6972
32631SOL     OW 1484   7.022   8.096   7.626  0.4927 -0.0464 -0.1644
32631SOL    HW1 1485   7.088   8.031   7.649 -0.6589 -0.5843  1.9682
32631SOL    HW2 1486   7.053   8.177   7.667  0.0828 -0.2051  0.4891
32632SOL     OW 1487   1.895   9.933   4.837 -0.1349 -0.0475  0.4330
32632SOL    HW1 1488   1.943   9.975   4.909  0.0777 -0.5252  0.5696
32632SOL    HW2 1489   1.821   9.992   4.821  0.7848  1.0044 -0.1596
32633SOL     OW 1490   3.710   4.361  11.066  0.2238 -0.3170 -0.0526
32633SOL    HW1 1491   3.692   4.319  11.149  0.2699 -0.1920  0.0212
32633SOL    HW2 1492   3.794   4.405  11.078  0.0657 -0.0067 -0.0495
32634SOL     OW 1493   1.695   5.506   4.849 -0.3150  0.0625  0.0652
32634SOL    HW1 1494   1.628   5.564   4.885 -0.3053  0.3946 -0.4449
32634SOL    HW2 1495   1.667   5.490   4.759  0.6127  0.7203 -0.3587
32635SOL     OW 1496   7.256   5.648   8.568  0.0235 -0.1312 -0.1322
32635SOL    HW1 1497   7.286   5.734   8.538  2.0042 -0.0699  1.7705
32635SOL    HW2 1498   7.184   5.667   8.628  0.6614  0.2527  0.5254
32636SOL     OW 1499   9.588   5.926   7.126 -0.3900 -0.3077 -0.4564
32636SOL    HW1 1500   9.495   5.929   7.150 -0.4894  0.0866 -0.8672
32636SOL    HW2 1501   9.591   5.965   7.038  0.2833  0.5396 -0.0685
32637SOL     OW 1502   1.745   9.891   3.542 -0.5796 -0.0409  0.3176
32637SOL    HW1 1503   1.772   9.811   3.495 -0.9984 -0.5204  0.8775
32637SOL    HW2 1504   1.662   9.915   3.502  0.4173  1.2290 -1.1553
32638SOL     OW 1505   9.353   5.890  10.378 -0.8487 -0.2520 -0.7532
32638SOL    HW1 1506   9.334   5.931  10.462 -0.3031 -0.9106 -0.2973
32638SOL    HW2 1507   9.441   5.921  10.355 -0.9407 -0.1807 -1.0188
32639SOL     OW 1508   0.124   0.811   6.846  0.4573 -0.3133  0.0737
32639SOL    HW1 1509   0.069   0.748   6.799  1.5944 -1.3715  0.1109
32639SOL    HW2 1510   0.188   0.841   6.781 -0.2899  1.1141 -0.0467
32640SOL     OW 1511   9.685   3.058   1.171 -0.1880 -0.5616 -0.6754
32640SOL    HW1 1512   9.765   3.005   1.180  0.7847  0.7334 -1.2810
32640SOL    HW2 1513   9.652   3.067   1.260  2.6468  2.2163  0.2857
32641SOL     OW 1514   0.104   2.123   3.061  0.3935 -0.2436 -0.0776
32641SOL    HW1 1515   0.165   2.052   3.082  0.7277 -0.1031 -0.5774
32641SOL    HW2 1516   0.032   2.080   3.016  0.0969 -0.4164  0.5520
32642SOL     OW 1517   3.668   0.582   5.473  0.0523  0.4001  0.0693
32642SOL    HW1 1518   3.610   0.567   5.399 -3.1685  2.5917  1.8577
32642SOL    HW2 1519   3.694   0.674   5.464  0.6641  0.3231  0.9667
32643SOL     OW 1520   8.760   9.189   9.945  0.1628 -0.9199  0.3011
32643SOL    HW1 1521   8.784   9.126   9.876 -0.4277 -0.5515 -0.2454
32643SOL    HW2 1522   8.823   9.260   9.935 -0.7597 -0.2180 -0.7697
32644SOL     OW 1523   0.761   3.726   3.168  0.4203 -0.2380 -0.2416
32644SOL    HW1 1524   0.721   3.725   3.255  0.5743 -2.7861 -0.1313
32644SOL    HW2 1525   0.687   3.731   3.107  0.3450  3.1799 -0.0916
32645SOL     OW 1526   3.530   0.082   8.537 -0.1371 -0.4501  0.3299
32645SOL    HW1 1527   3.554   0.144   8.606 -0.5306  0.5965 -0.4535
32645SOL    HW2 1528   3.454   0.120   8.495 -0.8114 -1.8115  0.2469
32646SOL     OW 1529   1.870   6.612  10.454 -0.3639  0.1130  0.0211
32646SOL    HW1 1530   1.851   6.519  10.445 -0.0498  0.0424  0.0836
32646SOL    HW2 1531   1.864   6.647  10.365 -1.9337  0.3192  0.1767
32647SOL     OW 1532   8.039   7.598   2.507  0.2874  0.0058  0.2020
32647SOL    HW1 1533   8.080   7.684   2.498 -2.7920  1.6941  0.7669
32647SOL    HW2 1534   8.060   7.553   2.425  1.2903  1.6254 -0.4826
32648SOL     OW 1535   3.194   8.396   0.645  0.0918 -0.0803  0.4358
32648SOL    HW1 1536   3.134   8.470   0.636 -0.2261 -0.4955 -1.2138
32648SOL    HW2 1537   3.159   8.329   0.586  1.8543 -0.5550 -0.1323
32649SOL     OW 1538   2.641   3.925   1.958  0.0207  0.2057  0.0508
32649SOL    HW1 1539   2.720   3.940   2.009  1.8672  1.6966 -3.0009
32649SOL    HW2 1540   2.632   3.830   1.954  2.2389 -0.0258 -0.3410
32650SOL     OW 1541   8.441   6.214   7.848 -0.0615 -0.1592  0.6390
32650SOL    HW1 1542   8.439   6.193   7.941 -1.3570  0.8093  0.8488
32650SOL    HW2 1543   8.386   6.291   7.839  0.0131 -0.2507 -0.9444
32651SOL     OW 1544  10.230   2.472   4.881  0.0613  0.7418 -0.3312
32651SOL    HW1 1545  10.263   2.429   4.802 -0.3640  0.3334 -0.2889
32651SOL    HW2 1546  10.164   2.533   4.849  0.2110  0.9003 -0.3345
32652SOL     OW 1547   9.512   2.495   0.079 -0.0391 -0.7048  0.0230
32652SOL    HW1 1548   9.497   2.406   0.047 -0.6610 -0.8665  0.7255
32652SOL    HW2 1549   9.496   2.489   0.173  1.5863 -0.2112  0.3502
32653SOL     OW 1550   8.877   1.937   1.819  0.2342 -0.4939  0.4041
32653SOL    HW1 1551   8.893   1.913   1.910  2.6858  1.7407  0.6787
32653SOL    HW2 1552   8.784   1.957   1.815  0.1059 -0.5007  2.4672
32654SOL     OW 1553   5.070   5.796   5.091  0.0697  0.4003 -0.4441
32654SOL    HW1 1554   5.131   5.750   5.149  1.7905  2.9487 -0.1054
32654SOL    HW2 1555   5.001   5.829   5.149 -0.6390 -0.7830 -0.5590
32655SOL     OW 1556   5.965   2.274   4.280  0.0836 -0.4361  0.1598
32655SOL    HW1 1557   5.907   2.303   4.210 -0.2865  0.2584  0.7437
32655SOL    HW2 1558   6.019   2.205   4.240 -0.5141 -0.4489 -0.6367
32656SOL     OW 1559   2.487   9.168   7.971 -0.4545 -0.2792  0.1423
32656SOL    HW1 1560   2.507   9.245   8.025  2.1983  0.0624 -1.1787
32656SOL    HW2 1561   2.461   9.205   7.886 -2.4653 -0.8553  0.4544
32657SOL     OW 1562  10.904   9.752   5.712  0.1337  0.4149  0.0575
32657SOL    HW1 1563  10.819   9.786   5.682 -1.0987 -2.5368 -0.1481
32657SOL    HW2 1564  10.923   9.680   5.652  2.8198  0.9420  0.1580
32658SOL     OW 1565   4.520   5.109   7.933  0.5354  0.2399  0.0138
32658SOL    HW1 1566   4.454   5.076   7.994  1.1446 -0.6354  0.2309
32658SOL    HW2 1567   4.524   5.042   7.864  0.5493  0.7399 -0.4829
32659SOL     OW 1568   6.901   2.783   6.053 -0.1682 -0.6391  0.0580
32659SOL    HW1 1569   6.890   2.852   6.118 -2.5043 -1.6955  0.8952
32659SOL    HW2 1570   6.980   2.737   6.081 -0.4082 -0.2858  1.4249
32660SOL     OW 1571   9.471   0.186   5.817  0.2119 -0.0728 -0.1801
32660SOL    HW1 1572   9.518   0.246   5.759  1.5525 -0.2273  0.6991
32660SOL    HW2 1573   9.512   0.198   5.903  0.9033 -2.5917 -0.0646
32661SOL     OW 1574   7.879   2.957   9.125  0.3123  0.3692  0.3643
32661SOL    HW1 1575   7.821   3.033   9.117  0.2872  0.2559 -0.6504
32661SOL    HW2 1576   7.954   2.978   9.069  0.6105 -0.0740  0.5937
32662SOL     OW 1577   4.317   8.551   7.460  0.1285  0.0909 -0.2922
32662SOL    HW1 1578   4.314   8.627   7.517  0.3707 -1.0493  1.3072
32662SOL    HW2 1579   4.366   8.485   7.510 -0.0814 -1.1230 -1.6145
32663SOL     OW 1580   5.094   6.017  10.680  0.2196  0.3593 -1.0985
32663SOL    HW1 1581   5.178   5.978  10.702  0.1622 -0.1194 -1.6967
32663SOL    HW2 1582   5.040   6.004  10.757  1.0799  1.8446 -0.1890
32664SOL     OW 1583   2.746   7.083   6.616 -0.3339  0.4941  0.4578
32664SOL    HW1 1584   2.656   7.050   6.614  0.6066 -2.3184  0.4482
32664SOL    HW2 1585   2.740   7.171   6.579 -2.8760 -0.1365 -0.8357
32665SOL     OW 1586   7.493   5.128  10.379  0.3375  0.7047  0.0245
32665SOL    HW1 1587   7.522   5.098  10.293 -0.0417  2.1218 -0.6302
32665SOL    HW2 1588   7.560   5.190  10.407  0.7668 -0.1884  1.0462
32666SOL     OW 1589   5.556  10.104   1.312  0.8468  0.3633  0.3354
32666SOL    HW1 1590   5.632  10.160   1.303  0.6392  0.5241 -0.5429
32666SOL    HW2 1591   5.556  10.050   1.232  0.0914  0.3190  0.3534
32667SOL     OW 1592   8.896   8.237   3.357  0.3420 -0.0516 -0.0909
32667SOL    HW1 1593   8.823   8.291   3.387 -0.3838 -1.6209  1.1439
32667SOL    HW2 1594   8.877   8.221   3.264  0.6121  1.7814 -0.5080
32668SOL     OW 1595  10.477   4.404   8.106 -0.9398 -0.3115 -0.3564
32668SOL    HW1 1596  10.492   4.335   8.171 -2.2101 -0.3321 -0.0484
32668SOL    HW2 1597  10.382   4.409   8.099 -1.0083  2.5866  0.9324
32669SOL     OW 1598   5.343   1.215   7.008 -0.0111  0.4232 -0.0270
32669SOL    HW1 1599   5.410   1.210   6.939  1.1120  2.1335  0.8593
32669SOL    HW2 1600   5.372   1.152   7.074 -1.2726 -1.4702 -1.1989
32670SOL     OW 1601   1.148   6.659   4.824  0.5579  0.9417 -0.0263
32670SOL    HW1 1602   1.107   6.679   4.908 -0.0347 -1.8987  0.4587
32670SOL    HW2 1603   1.076   6.666   4.761  0.5365  1.0665  0.0114
32671SOL     OW 1604   7.706   1.747   8.462 -0.5145  0.0295  0.0693
32671SOL    HW1 1605   7.767   1.819   8.476 -0.6146  0.1446 -0.0779
32671SOL    HW2 1606   7.626   1.774   8.507  0.0839 -0.8957  1.7694
32672SOL     OW 1607   2.770   5.203   0.483 -0.1915  0.3254  0.8256
32672SOL    HW1 1608   2.792   5.113   0.458  0.0879  0.7700 -0.5852
32672SOL    HW2 1609   2.851   5.239   0.518  0.0430  0.4393  0.1670
32673SOL     OW 1610   2.478   8.760   6.073 -0.0906 -0.3314  0.2182
32673SOL    HW1 1611   2.421   8.685   6.089  0.4095 -0.6432  0.5317
32673SOL    HW2 1612   2.487   8.802   6.158  0.4090 -0.4656  0.2313
32674SOL     OW 1613   7.462   6.119   6.886 -0.0921 -0.5536 -0.0214
32674SOL    HW1 1614   7.487   6.212   6.887 -0.7073 -0.3619  1.5898
32674SOL    HW2 1615   7.487   6.087   6.972  1.4968 -2.3175 -1.0895
32675SOL     OW 1616   7.135  10.906   2.450  0.3092 -0.1927  0.0734
32675SOL    HW1 1617   7.051  10.950   2.441 -1.2453 -3.3309 -3.2728
32675SOL    HW2 1618   7.125  10.849   2.526 -0.0521  0.4426  0.5118
32676SOL     OW 1619   9.192   3.891   0.678 -0.3292 -0.3136  1.1797
32676SOL    HW1 1620   9.106   3.848   0.679 -0.8496  0.6438  0.2121
32676SOL    HW2 1621   9.177   3.976   0.719 -0.8223  1.4503 -2.2802
32677SOL     OW 1622   1.679   7.140   5.750  0.1858 -0.2244 -0.0234
32677SOL    HW1 1623   1.675   7.205   5.821 -1.6844 -1.3799  1.0134
32677SOL    HW2 1624   1.711   7.061   5.792  0.9420 -0.4077 -0.9315
32678SOL     OW 1625   1.588   0.682   1.308  0.0372 -0.2229 -0.4593
32678SOL    HW1 1626   1.601   0.776   1.295  0.4789 -0.1868  0.2258
32678SOL    HW2 1627   1.543   0.676   1.392 -3.8957 -0.3804 -2.3617
32679SOL     OW 1628   0.197   6.010   1.014  0.1191 -0.0742 -0.4706
32679SOL    HW1 1629   0.162   6.038   1.098  1.8015  0.0003  0.2375
32679SOL    HW2 1630   0.120   5.986   0.963 -0.9021 -1.0885  1.4254
32680SOL     OW 1631   5.443   6.945   9.587  0.4028 -0.2937  0.5511
32680SOL    HW1 1632   5.449   6.850   9.574 -0.6633 -0.1534 -1.3184
32680SOL    HW2 1633   5.534   6.975   9.584  0.6084 -0.8676 -2.7362
32681SOL     OW 1634   9.695   0.156   3.502  0.3528 -0.2207  0.1643
32681SOL    HW1 1635   9.749   0.156   3.422  0.3903  0.8115  0.1770
32681SOL    HW2 1636   9.758   0.144   3.573  0.3787 -0.5864  0.0853
32682SOL     OW 1637   2.868   6.441   5.377  0.0188  0.5492 -0.0093
32682SOL    HW1 1638   2.788   6.466   5.330  1.4467  2.7642 -1.4574
32682SOL    HW2 1639   2.913   6.380   5.318  0.9745  1.9627 -0.7893
32683SOL     OW 1640   4.207   2.336   7.945  0.4840  0.0562  0.0009
32683SOL    HW1 1641   4.270   2.284   7.995 -0.8433 -2.3365 -0.6678
32683SOL    HW2 1642   4.197   2.417   7.995  3.1234 -0.0067  0.7506
32684SOL     OW 1643  10.883   5.294   0.336  0.0810 -0.2961  0.3251
32684SOL    HW1 1644  10.932   5.367   0.373  1.4872 -0.3469 -1.3089
32684SOL    HW2 1645  10.852   5.245   0.412  0.9859  0.7824  1.4303
32685SOL     OW 1646   6.049   3.986   5.155 -0.3527 -0.2077  0.1931
32685SOL    HW1 1647   6.133   4.032   5.146 -1.6438  2.1037 -1.1072
32685SOL    HW2 1648   6.057   3.910   5.098  0.1561  1.1771 -1.6728
32686SOL     OW 1649   6.409   3.642   0.473 -0.4710 -0.0906 -0.2753
32686SOL    HW1 1650   6.351   3.585   0.524 -0.6478  1.9992  2.0540
32686SOL    HW2 1651   6.376   3.731   0.490  1.3776  0.9172 -1.5909
32687SOL     OW 1652   3.997   8.745   5.576  0.0607  0.0234  0.6427
32687SOL    HW1 1653   3.999   8.678   5.507  1.8877  1.1199 -0.4522
32687SOL    HW2 1654   3.992   8.695   5.658 -0.1634 -1.3879 -0.1864
32688SOL     OW 1655   2.780   4.696   0.968 -0.1344  0.0356 -0.2923
32688SOL    HW1 1656   2.865   4.726   1.001 -0.1628 -1.6654  1.5379
32688SOL    HW2 1657   2.801   4.644   0.891  0.2550  1.3251 -1.0895
32689SOL     OW 1658   9.978   8.096   3.965 -0.0541  0.2115  0.0266
32689SOL    HW1 1659   9.971   8.119   4.058  1.1019 -0.1339  0.2188
32689SOL    HW2 1660   9.890   8.069   3.940 -0.0839 -1.1052  1.4196
32690SOL     OW 1661   7.903   6.701   4.212  0.1397  0.0442  0.4007
32690SOL    HW1 1662   7.850   6.622   4.221 -1.1031  0.9216  1.0685
32690SOL    HW2 1663   7.874   6.740   4.129  1.3150 -0.5740 -0.3336
32691SOL     OW 1664   5.268   1.495   8.482 -0.0234  0.2597 -0.2324
32691SOL    HW1 1665   5.352   1.456   8.461  0.1451  0.5554 -0.1222
32691SOL    HW2 1666   5.290   1.584   8.511 -0.4798  0.8118 -1.5206
32692SOL     OW 1667   5.911   4.600   9.615  0.5250  0.1603 -0.0010
32692SOL    HW1 1668   5.947   4.574   9.530 -0.8433 -1.3108 -0.1757
32692SOL    HW2 1669   5.886   4.518   9.657  1.0497  0.8620  1.8054
32693SOL     OW 1670   1.595   7.311   1.663 -0.6177 -0.9141 -0.0192
32693SOL    HW1 1671   1.686   7.285   1.677  0.4012  1.3091 -1.8983
32693SOL    HW2 1672   1.554   7.303   1.749  1.8330 -0.2304  1.2815
32694SOL     OW 1673   0.007   3.761   3.171 -0.6547  0.5024  0.2812
32694SOL    HW1 1674   0.010   3.709   3.252 -3.1153 -1.0321 -0.5233
32694SOL    HW2 1675   0.053   3.842   3.193  2.2899 -1.4571  1.9706
32695SOL     OW 1676   5.173   5.856   1.106 -0.3665 -0.3715  0.0992
32695SOL    HW1 1677   5.207   5.827   1.191 -2.4976 -1.0425  0.8056
32695SOL    HW2 1678   5.167   5.951   1.114 -0.6065 -0.4327  0.7311
32696SOL     OW 1679   3.522   6.585   9.488  0.0840  0.6566  0.1716
32696SOL    HW1 1680   3.494   6.648   9.555 -0.0395 -0.5338  1.2731
32696SOL    HW2 1681   3.445   6.529   9.474  1.0217 -0.9530  1.2348
32697SOL     OW 1682   5.194   0.255   1.264 -0.0875 -0.4642 -0.5891
32697SOL    HW1 1683   5.237   0.193   1.205 -0.5552 -1.4889  0.1084
32697SOL    HW2 1684   5.100   0.236   1.255 -0.1810 -0.4885  0.2897
32698SOL     OW 1685  10.341  10.067   8.317 -0.1281 -0.6392  0.0890
32698SOL    HW1 1686  10.421  10.039   8.363 -0.6790 -2.5239 -0.0328
32698SOL    HW2 1687  10.310  10.142   8.368  0.3465 -1.4454  1.6452
32699SOL     OW 1688  10.658   2.126   8.250  0.5230  0.0902 -0.2837
32699SOL    HW1 1689  10.573   2.158   8.281  0.9304 -1.0459  2.2481
32699SOL    HW2 1690  10.702   2.205   8.218 -0.5345  1.1293  0.6934
32700SOL     OW 1691   6.104   3.712   8.815 -0.2283 -0.5742  0.1421
32700SOL    HW1 1692   6.040   3.660   8.767  0.4455 -0.5690 -0.7802
32700SOL    HW2 1693   6.129   3.782   8.755  0.4424 -0.4173  0.5898
32701SOL     OW 1694  10.601   4.763   7.637 -0.0961 -0.3667  0.0264
32701SOL    HW1 1695  10.587   4.827   7.568 -1.8601  1.1210  1.6638
32701SOL    HW2 1696  10.663   4.805   7.697 -2.2326  0.4805  1.7783
32702SOL     OW 1697   1.686   3.071   6.168 -0.3894 -0.2915  0.6064
32702SOL    HW1 1698   1.763   3.119   6.136 -1.3274  0.1231 -1.1757
32702SOL    HW2 1699   1.713   3.037   6.254  1.1535  1.3439  0.8360
32703SOL     OW 1700   4.990   0.869   4.383 -0.0409  0.1507 -0.0219
32703SOL    HW1 1701   4.942   0.827   4.454  0.2498  0.5426  0.4067
32703SOL    HW2 1702   5.013   0.797   4.324 -0.9970 -0.0642 -0.1426
32704SOL     OW 1703   9.752   6.257  10.066  0.3467 -0.1910  0.1849
32704SOL    HW1 1704   9.764   6.329  10.128  0.7057  0.2163 -0.3531
32704SOL    HW2 1705   9.838   6.243  10.028 -0.0583  0.2355 -0.9423
32705SOL     OW 1706   6.422   6.546   5.878 -0.4173  0.6204 -0.2164
32705SOL    HW1 1707   6.394   6.638   5.870 -0.0836  0.6809 -0.6828
32705SOL    HW2 1708   6.498   6.550   5.936 -0.2885  0.6635 -0.3858
32706SOL     OW 1709   3.187   7.723   5.216  0.3727  0.3161  0.1492
32706SOL    HW1 1710   3.214   7.814   5.205  0.5558 -0.0262 -3.0747
32706SOL    HW2 1711   3.092   7.725   5.202  0.6496 -0.1889 -2.1993
32707SOL     OW 1712   4.667   1.553   8.964  0.2835  0.2832 -0.3183
32707SOL    HW1 1713   4.727   1.624   8.986  0.5004  0.8581 -2.5866
32707SOL    HW2 1714   4.580   1.587   8.989  0.6154  0.4335  0.6714
32708SOL     OW 1715   9.731   3.584  11.108  0.1050  0.3168  0.1588
32708SOL    HW1 1716   9.704   3.593  11.200 -0.5053 -0.6489  0.0932
32708SOL    HW2 1717   9.649   3.594  11.059  0.4235  0.7913 -0.2798
32709SOL     OW 1718   2.103   6.051   2.587 -0.5397 -0.0502 -0.2417
32709SOL    HW1 1719   2.072   6.140   2.601  1.2285  0.8681 -1.6782
32709SOL    HW2 1720   2.178   6.042   2.645  2.0281  1.0579 -3.1498
32710SOL     OW 1721  10.821   8.217   3.816 -0.4607  0.4524 -0.2031
32710SOL    HW1 1722  10.824   8.296   3.762  0.3665 -0.5802 -1.7537
32710SOL    HW2 1723  10.895   8.226   3.875 -1.7657  1.9148  1.3215
32711SOL     OW 1724   7.421   0.576   9.898  0.2471  0.4482  0.1236
32711SOL    HW1 1725   7.445   0.664   9.928  0.7082  0.9771 -1.6659
32711SOL    HW2 1726   7.326   0.577   9.893  0.2005  0.5499  0.9262
32712SOL     OW 1727   6.471   6.173   4.383 -0.0267 -0.0793  0.0424
32712SOL    HW1 1728   6.522   6.112   4.435 -0.1597  1.2246  1.7813
32712SOL    HW2 1729   6.535   6.216   4.326  0.3062 -0.6322 -0.0135
32713SOL     OW 1730   6.249  10.222   3.893  0.3174  0.2932  0.1563
32713SOL    HW1 1731   6.330  10.178   3.866 -0.5131 -1.3083  0.1384
32713SOL    HW2 1732   6.222  10.174   3.971 -0.0411  1.5411  0.8149
32714SOL     OW 1733   5.949   7.005   8.026  0.2516 -0.2000 -0.2424
32714SOL    HW1 1734   6.031   7.054   8.011  1.1581 -0.6972  2.4700
32714SOL    HW2 1735   5.978   6.918   8.053 -1.2746 -1.0950 -1.3681
32715SOL     OW 1736   6.717   2.768   3.644 -0.1798  0.4861 -0.3113
32715SOL    HW1 1737   6.763   2.789   3.563  0.6312  0.3329  0.0977
32715SOL    HW2 1738   6.642   2.715   3.616 -0.8764  1.8407 -1.1161
32716SOL     OW 1739   7.955   6.146   6.705  0.8096  0.3986  0.2906
32716SOL    HW1 1740   8.040   6.161   6.746  0.7776  2.3977 -0.2549
32716SOL    HW2 1741   7.953   6.206   6.631 -1.0853  0.4380  0.3144
32717SOL     OW 1742   8.930   9.938   1.651  0.1722 -0.2075  0.9210
32717SOL    HW1 1743   8.840   9.913   1.630 -0.0512  0.3815  1.1446
32717SOL    HW2 1744   8.983   9.901   1.581 -0.4754  1.1706 -0.3555
32718SOL     OW 1745  10.045   5.749   8.487 -0.1069  0.0917  0.3073
32718SOL    HW1 1746  10.135   5.719   8.491  0.1827  1.0552  2.0308
32718SOL    HW2 1747  10.010   5.711   8.406  2.2675  0.9477 -1.2331
32719SOL     OW 1748   0.227   9.917   2.709  0.0362 -0.3571 -0.5706
32719SOL    HW1 1749   0.215   9.893   2.801  0.1920 -1.7181 -0.8809
32719SOL    HW2 1750   0.166   9.860   2.661  0.0590  0.2363 -1.3253
32720SOL     OW 1751   8.794   8.644   7.083 -0.0229  0.0497  0.1465
32720SOL    HW1 1752   8.844   8.685   7.012 -2.0276  0.9915 -0.8037
32720SOL    HW2 1753   8.828   8.685   7.163 -0.0822  1.5794 -0.5716
32721SOL     OW 1754   1.195   4.883   1.688 -0.0539 -0.3692  0.0967
32721SOL    HW1 1755   1.148   4.896   1.770 -0.8786  1.7004 -0.6240
32721SOL    HW2 1756   1.157   4.947   1.628  0.6735 -1.6446 -1.8558
32722SOL     OW 1757   0.690   4.224   1.907 -0.0654  0.5163 -0.1452
32722SOL    HW1 1758   0.784   4.214   1.894  0.0907 -0.3022  1.4016
32722SOL    HW2 1759   0.651   4.148   1.865 -0.0772  0.9532 -0.9539
32723SOL     OW 1760   0.340   3.101   0.700  0.1285  0.2054  0.1059
32723SOL    HW1 1761   0.391   3.032   0.744 -0.7100 -0.3761  0.1895
32723SOL    HW2 1762   0.330   3.169   0.766 -2.6491 -1.4061  1.5312
32724SOL     OW 1763   8.955   5.773   0.816  0.0566 -0.0464 -0.3193
32724SOL    HW1 1764   8.920   5.764   0.904 -0.6864 -0.9707 -0.6840
32724SOL    HW2 1765   9.050   5.774   0.828  0.0380 -1.8236  0.4058
32725SOL     OW 1766  10.498   1.469   7.863 -0.4547  0.0983 -0.2931
32725SOL    HW1 1767  10.493   1.528   7.938 -1.3771  1.5578 -1.4429
32725SOL    HW2 1768  10.427   1.406   7.876 -1.9364  1.5791 -0.9033
32726SOL     OW 1769   0.529   6.644   6.457 -0.2335  0.0748 -0.0937
32726SOL    HW1 1770   0.452   6.664   6.509 -0.9158  1.3116 -1.4895
32726SOL    HW2 1771   0.503   6.570   6.402 -0.5815  0.7398 -0.8408
32727SOL     OW 1772   6.879   7.719   7.634 -0.2306  0.2471 -0.4061
32727SOL    HW1 1773   6.823   7.780   7.681  1.1508  0.7505  0.6784
32727SOL    HW2 1774   6.843   7.632   7.655  0.1757  0.4732  1.4324
32728SOL     OW 1775   3.867  10.477   4.845 -0.1853  0.3846 -0.1655
32728SOL    HW1 1776   3.945  10.464   4.899  0.9442  0.7616 -1.6482
32728SOL    HW2 1777   3.889  10.439   4.760 -2.4819 -1.5758  0.0146
32729SOL     OW 1778   9.902   3.271   2.870  0.5353 -0.1822 -0.4096
32729SOL    HW1 1779   9.840   3.199   2.862 -0.1301  0.2086  0.9538
32729SOL    HW2 1780   9.953   3.251   2.948 -0.6322  1.5185  0.8555
32730SOL     OW 1781   0.707  10.142   8.656  0.1706  0.1523 -0.0646
32730SOL    HW1 1782   0.746  10.176   8.737 -1.3811  1.4833  0.1744
32730SOL    HW2 1783   0.722  10.211   8.592 -1.0494  0.3350 -0.1735
32731SOL     OW 1784   4.121   4.847   8.174 -0.1453 -0.5323 -0.1299
32731SOL    HW1 1785   4.115   4.909   8.102  0.5988 -0.3664 -0.0561
32731SOL    HW2 1786   4.100   4.762   8.135 -1.5525 -0.2064 -0.1535
32732SOL     OW 1787   1.766   2.884   3.455  0.2731  0.0601 -0.2482
32732SOL    HW1 1788   1.672   2.888   3.471  0.5470 -0.5030  1.9146
32732SOL    HW2 1789   1.782   2.948   3.386 -1.6237  0.4993 -0.3292
32733SOL     OW 1790   3.020   0.336   4.982 -0.6598 -0.0693  0.8889
32733SOL    HW1 1791   2.942   0.373   4.940  1.9611  3.1584 -1.6927
32733SOL    HW2 1792   3.065   0.289   4.912  1.2313  0.9424  1.3402
32734SOL     OW 1793   7.694  10.470   5.015 -0.1512 -0.4312  0.4662
32734SOL    HW1 1794   7.715  10.563   5.011  0.2562 -0.5650 -0.6722
32734SOL    HW2 1795   7.641  10.454   4.937  0.6433 -1.3588  0.1010
32735SOL     OW 1796   1.806   8.408   6.164 -0.1418 -0.7023 -0.3608
32735SOL    HW1 1797   1.757   8.458   6.099 -0.5434 -0.9338 -0.2326
32735SOL    HW2 1798   1.876   8.366   6.113 -0.5947 -1.0751 -0.6879
32736SOL     OW 1799   1.729   9.542   8.891 -0.0844  0.5944 -0.2430
32736SOL    HW1 1800   1.769   9.539   8.978  0.3857 -0.2288 -0.4736
32736SOL    HW2 1801   1.789   9.596   8.838  0.4458 -0.1722 -0.4417
32737SOL     OW 1802   2.531   5.384   3.646  0.8629  0.2323 -0.2754
32737SOL    HW1 1803   2.544   5.316   3.580  1.6771 -1.0073  1.0958
32737SOL    HW2 1804   2.615   5.390   3.692  0.5351  1.5475  0.2217
32738SOL     OW 1805   6.578   6.808   6.551  0.0402  0.7895  0.0140
32738SOL    HW1 1806   6.538   6.821   6.464 -0.0967 -1.1024 -0.2503
32738SOL    HW2 1807   6.504   6.784   6.607  0.4559 -0.3859  0.0733
32739SOL     OW 1808   3.146   1.183   5.930  0.6342  0.1392  0.5179
32739SOL    HW1 1809   3.159   1.278   5.928 -1.2240  0.4361 -0.2352
32739SOL    HW2 1810   3.056   1.172   5.962  0.7945 -1.3632  0.5148
32740SOL     OW 1811   3.418   2.103   4.104 -0.8680  0.4243  0.0193
32740SOL    HW1 1812   3.489   2.142   4.053 -0.6566  1.3333  0.9739
32740SOL    HW2 1813   3.458   2.084   4.190 -2.0935  2.2816  1.0680
32741SOL     OW 1814  10.505   2.979   1.757  0.1931  0.2186  0.0466
32741SOL    HW1 1815  10.501   2.935   1.843 -1.0499 -0.7131 -0.4545
32741SOL    HW2 1816  10.564   2.925   1.705 -0.3825 -0.2062 -0.1882
32742SOL     OW 1817   7.827   5.855   0.512  0.8185 -0.2011 -0.5936
32742SOL    HW1 1818   7.797   5.925   0.454 -0.4229  0.3947  0.7096
32742SOL    HW2 1819   7.748   5.806   0.534  1.0901  0.0923  1.2347
32743SOL     OW 1820   6.617   5.335   5.140 -0.4271  0.5154 -0.4783
32743SOL    HW1 1821   6.703   5.298   5.160 -0.6885 -0.0361 -0.3716
32743SOL    HW2 1822   6.554   5.269   5.169 -0.9576  1.6340  1.0496
32744SOL     OW 1823   6.540   9.008   5.984  0.1680 -0.2199 -0.1032
32744SOL    HW1 1824   6.525   9.078   5.920 -0.4161  0.3675  0.6654
32744SOL    HW2 1825   6.583   9.051   6.058 -0.1104 -0.6926  0.3419
32745SOL     OW 1826   4.889   6.792   1.926 -0.5170 -0.2095  0.3289
32745SOL    HW1 1827   4.917   6.880   1.948  1.1183 -0.1784 -1.5767
32745SOL    HW2 1828   4.895   6.787   1.831 -0.0811 -2.5031  0.3965
32746SOL     OW 1829   3.394   0.588   5.721  0.2103  0.3242  0.3479
32746SOL    HW1 1830   3.443   0.540   5.655 -0.6230 -0.2326  0.1270
32746SOL    HW2 1831   3.451   0.662   5.744  0.1469  1.0264 -1.6291
32747SOL     OW 1832   0.182  10.506   6.702  0.5339  0.0208  0.1060
32747SOL    HW1 1833   0.181  10.427   6.648 -0.5538 -0.6899  1.1274
32747SOL    HW2 1834   0.114  10.492   6.768  1.3846  1.1255  1.2850
32748SOL     OW 1835   9.331   2.317   9.365  0.2264  0.0334 -0.1320
32748SOL    HW1 1836   9.347   2.239   9.312 -0.2564  1.1487 -2.0428
32748SOL    HW2 1837   9.415   2.362   9.368  0.4480 -0.4137  0.7742
32749SOL     OW 1838   4.775   9.257   7.465  0.5355 -0.0841 -0.7700
32749SOL    HW1 1839   4.787   9.351   7.457  2.2926 -0.2389 -0.3426
32749SOL    HW2 1840   4.792   9.223   7.377 -1.8820  0.1049 -1.3815
32750SOL     OW 1841   0.374   8.678   1.282 -0.0091  0.2505  0.5397
32750SOL    HW1 1842   0.317   8.620   1.331 -1.3512  1.2893  0.2692
32750SOL    HW2 1843   0.352   8.662   1.190 -0.0795  0.8622  0.4451
32751SOL     OW 1844   4.641  10.642   9.903 -0.2525  0.3963  0.1242
32751SOL    HW1 1845   4.618  10.636   9.810 -0.5487  3.2126 -0.0690
32751SOL    HW2 1846   4.594  10.720   9.934 -0.5694 -0.7521  2.7951
32752SOL     OW 1847   0.418   0.254   6.724 -0.3412  0.2589  0.0209
32752SOL    HW1 1848   0.477   0.252   6.800 -0.1859  0.6446 -0.0843
32752SOL    HW2 1849   0.345   0.198   6.748  0.2958 -0.5995 -0.0258
32753SOL     OW 1850   2.515   2.365   3.518 -0.5055 -0.3335  0.2446
32753SOL    HW1 1851   2.554   2.452   3.512 -0.0586 -0.4688  1.1160
32753SOL    HW2 1852   2.589   2.305   3.521 -0.7649 -0.6206  1.4758
32754SOL     OW 1853   4.946   7.648   6.285 -0.1320 -0.0799  0.0464
32754SOL    HW1 1854   5.035   7.670   6.257 -0.5946 -0.3109 -1.7265
32754SOL    HW2 1855   4.958   7.596   6.365  1.2410  1.0661  0.6284
32755SOL     OW 1856   8.853   3.729   5.615 -0.5907 -0.1586 -0.0329
32755SOL    HW1 1857   8.803   3.669   5.671 -0.1659 -1.4135 -0.9483
32755SOL    HW2 1858   8.788   3.769   5.557 -0.6406 -1.3736 -0.8507
32756SOL     OW 1859   0.844   6.997   9.821  0.0896  0.0416  0.5036
32756SOL    HW1 1860   0.827   6.912   9.781  0.9627 -0.2819  0.7896
32756SOL    HW2 1861   0.930   7.023   9.785 -1.3354  2.1071 -1.7861
32757SOL     OW 1862   7.934   0.210   2.832 -0.3244 -0.1832 -0.4384
32757SOL    HW1 1863   7.941   0.238   2.923 -0.6907 -0.7970 -0.2164
32757SOL    HW2 1864   8.022   0.179   2.809 -0.5290 -1.2131  0.1093
32758SOL     OW 1865   1.742   7.325   2.780 -0.3450  0.8274 -1.0137
32758SOL    HW1 1866   1.737   7.231   2.795  1.8458  0.1583 -3.5886
32758SOL    HW2 1867   1.704   7.364   2.858  0.5823 -2.1587  1.1144
32759SOL     OW 1868   8.950   5.734   5.927  0.2580  0.6678 -0.9452
32759SOL    HW1 1869   8.958   5.657   5.983  1.5279  1.3024 -0.1978
32759SOL    HW2 1870   8.920   5.803   5.985  2.4280  1.5511 -0.7581
32760SOL     OW 1871  10.949   0.541   4.333  0.1104 -0.1108 -0.3549
32760SOL    HW1 1872  11.011   0.489   4.383 -1.0666 -1.2133  0.0140
32760SOL    HW2 1873  10.939   0.494   4.250 -0.9561 -0.4929 -0.0246
32761SOL     OW 1874   6.306   3.621   4.277 -0.0155  0.0426 -0.2668
32761SOL    HW1 1875   6.259   3.696   4.313  0.6089 -0.3930  1.5181
32761SOL    HW2 1876   6.396   3.651   4.267  1.0158 -1.2971  3.4921
32762SOL     OW 1877   0.230  10.429   8.225 -0.4253  0.6034  0.0212
32762SOL    HW1 1878   0.171  10.356   8.206 -0.6951  0.8227  0.0088
32762SOL    HW2 1879   0.299  10.391   8.279  0.1473  0.0492 -1.0666
32763SOL     OW 1880   5.408   3.643   7.238 -0.6458  0.1963  0.0191
32763SOL    HW1 1881   5.440   3.562   7.197 -0.5046 -0.7465  1.8774
32763SOL    HW2 1882   5.487   3.693   7.256 -0.7388  0.8449 -1.2150
32764SOL     OW 1883   4.322   3.374   7.134  0.1396  0.2979  0.0665
32764SOL    HW1 1884   4.234   3.338   7.145 -0.2225  1.1278  0.0014
32764SOL    HW2 1885   4.373   3.304   7.093 -0.6239 -0.0124 -0.3611
32765SOL     OW 1886   5.585   8.877   6.282  0.0487  0.1412 -0.0477
32765SOL    HW1 1887   5.555   8.796   6.243  0.3277 -0.9050  1.7803
32765SOL    HW2 1888   5.681   8.871   6.281  0.0640 -0.3616  1.5879
32766SOL     OW 1889   6.919   5.406   9.468  1.0105 -0.3033 -0.2730
32766SOL    HW1 1890   6.907   5.378   9.559  1.4105 -0.3087 -0.2206
32766SOL    HW2 1891   6.943   5.325   9.421  0.2380 -0.4093 -0.4946
32767SOL     OW 1892   6.640  11.096   3.829 -0.4055  0.6943  0.3098
32767SOL    HW1 1893   6.581  11.026   3.857 -1.2228  1.2781  0.0835
32767SOL    HW2 1894   6.721  11.079   3.876 -1.4565  1.1455  2.4131
32768SOL     OW 1895   3.262   9.898   3.206  0.7006 -0.4772  0.0160
32768SOL    HW1 1896   3.191   9.837   3.228  1.8584 -1.3780  1.4326
32768SOL    HW2 1897   3.268   9.895   3.111 -0.7885 -0.7859 -0.0942
32769SOL     OW 1898  10.231   8.917   8.996 -0.2950  0.3100 -0.4147
32769SOL    HW1 1899  10.236   9.006   8.960 -0.1222  0.1473 -0.7966
32769SOL    HW2 1900  10.138   8.895   8.991 -0.3254  0.4316 -0.4124
32770SOL     OW 1901   2.292   9.000   3.915  0.2012 -0.2514 -0.6037
32770SOL    HW1 1902   2.342   8.953   3.982  0.9234  1.2405 -0.0618
32770SOL    HW2 1903   2.284   8.937   3.844  3.7512 -0.3333 -1.1469
32771SOL     OW 1904  10.704  10.202   3.528  0.5344 -0.3219 -0.5049
32771SOL    HW1 1905  10.638  10.231   3.592  0.7860  1.8910 -1.1573
32771SOL    HW2 1906  10.786  10.203   3.576  0.3508 -1.3295 -0.1605
32772SOL     OW 1907   8.275   6.744   3.311 -0.0661 -0.4494  0.3272
32772SOL    HW1 1908   8.301   6.683   3.380 -0.0771 -0.1719  0.5768
32772SOL    HW2 1909   8.181   6.730   3.301  0.5081 -3.5433 -2.5672
32773SOL     OW 1910  11.102   1.641  10.459 -0.6564  0.4510 -0.4030
32773SOL    HW1 1911  11.097   1.600  10.372  0.0422 -1.3978  0.3870
32773SOL    HW2 1912  11.010   1.658  10.482 -1.0669 -1.4634 -0.4425
32774SOL     OW 1913   3.007   5.051   2.711  0.2385  0.2703  0.9107
32774SOL    HW1 1914   3.089   5.015   2.745  0.4549  0.3959  0.5268
32774SOL    HW2 1915   3.033   5.130   2.665 -0.0363  0.0370  0.3490
32775SOL     OW 1916   2.249   1.668  10.399  0.1341 -0.0496  0.1978
32775SOL    HW1 1917   2.298   1.590  10.424  2.1492  0.9355 -0.4858
32775SOL    HW2 1918   2.240   1.718  10.481 -0.2426 -0.4962  0.4337
32776SOL     OW 1919   3.783   4.971   3.878  0.4616  0.4961 -0.8065
32776SOL    HW1 1920   3.859   5.026   3.859  0.2810  0.2351 -2.4153
32776SOL    HW2 1921   3.765   4.926   3.796  0.5781 -1.9691  0.4457
32777SOL     OW 1922  10.469   2.750  10.392  0.0525 -0.5875  0.2565
32777SOL    HW1 1923  10.473   2.688  10.319  1.0202 -0.9944  0.6295
32777SOL    HW2 1924  10.457   2.835  10.351  2.5105 -0.5507 -0.5488
32778SOL     OW 1925   3.729   6.111   8.557 -0.2743 -0.3575 -0.2217
32778SOL    HW1 1926   3.725   6.062   8.475 -1.0871  1.9613 -1.6602
32778SOL    HW2 1927   3.821   6.135   8.566 -0.5500  1.5505 -1.8909
32779SOL     OW 1928  10.744   0.474   8.865  0.1093  0.4175  0.4867
32779SOL    HW1 1929  10.653   0.492   8.888 -0.1661  0.9379 -0.8673
32779SOL    HW2 1930  10.743   0.468   8.769  1.3995 -0.1557  0.4909
32780SOL     OW 1931   1.332   0.107   8.423  0.2336 -0.0211  0.0292
32780SOL    HW1 1932   1.350   0.133   8.333  2.0694  0.3788  0.4655
32780SOL    HW2 1933   1.340   0.011   8.423  0.8587  0.0261 -0.1300
32781SOL     OW 1934   0.197   5.491   5.130 -0.1913 -0.5886  0.1941
32781SOL    HW1 1935   0.154   5.449   5.055 -1.0024  0.3792  0.0995
32781SOL    HW2 1936   0.291   5.481   5.112 -0.3569  0.2785 -1.3578
32782SOL     OW 1937   3.073   3.589   6.413  0.0853  0.0416  0.3553
32782SOL    HW1 1938   2.980   3.609   6.423 -0.4392 -1.6850 -0.6164
32782SOL    HW2 1939   3.114   3.625   6.491 -1.0585  2.6114 -0.1218
32783SOL     OW 1940  10.160   9.940   2.435  0.4858  0.4166 -0.1123
32783SOL    HW1 1941  10.150   9.845   2.438  0.8187  0.3982  1.2527
32783SOL    HW2 1942  10.168   9.961   2.342 -1.1595 -0.7102 -0.5401
32784SOL     OW 1943   0.953   9.918   5.941  0.1021  0.0071  0.3538
32784SOL    HW1 1944   0.921   9.903   6.030  2.9453 -2.4214  1.1240
32784SOL    HW2 1945   1.018   9.987   5.950  1.4000 -1.1864  0.5025
32785SOL     OW 1946   3.280   3.633   8.580  0.0111 -0.0587 -0.1960
32785SOL    HW1 1947   3.300   3.607   8.670 -0.5558  0.0522 -0.0370
32785SOL    HW2 1948   3.301   3.556   8.527 -0.5968 -0.4636  0.1468
32786SOL     OW 1949   8.890   9.777   2.564  0.2903 -0.1185  0.0012
32786SOL    HW1 1950   8.932   9.740   2.486 -0.1038  0.0800 -0.3106
32786SOL    HW2 1951   8.857   9.701   2.612  1.3048 -0.2997  0.4288
32787SOL     OW 1952   5.008  10.196   8.308 -0.1864  0.1008 -0.5150
32787SOL    HW1 1953   4.986  10.267   8.368 -2.4059  0.0680 -1.1927
32787SOL    HW2 1954   4.952  10.123   8.334 -1.3894  0.1560 -2.6704
32788SOL     OW 1955   6.886   2.136   5.771  0.3559  0.4570  0.2297
32788SOL    HW1 1956   6.808   2.081   5.765  0.9230 -0.6248  2.0760
32788SOL    HW2 1957   6.863   2.216   5.723 -1.9232  0.2219  0.8217
32789SOL     OW 1958  10.576   8.766   5.152 -0.0473  0.1127  0.3615
32789SOL    HW1 1959  10.530   8.702   5.206 -0.0172 -0.0972  0.1379
32789SOL    HW2 1960  10.618   8.825   5.215 -0.6290  0.3138  0.5706
32790SOL     OW 1961   2.880   4.853   2.863 -0.5224 -0.0972  0.0021
32790SOL    HW1 1962   2.903   4.929   2.809 -0.6757  1.1161  1.5541
32790SOL    HW2 1963   2.828   4.797   2.805 -0.4897  1.0248 -1.1668
32791SOL     OW 1964   0.349   2.484   2.718  0.0419 -0.6436  0.1186
32791SOL    HW1 1965   0.297   2.565   2.721  0.3798 -0.4476  1.2973
32791SOL    HW2 1966   0.293   2.419   2.760  0.2597 -0.7203  0.2917
32792SOL     OW 1967  11.091   4.873   9.412  0.4597 -0.4157 -0.1193
32792SOL    HW1 1968  11.059   4.786   9.434 -3.3081  0.8378  0.1520
32792SOL    HW2 1969  11.083   4.923   9.493 -1.2012  1.0707 -1.1246
32793SOL     OW 1970   4.045   0.880   3.013  0.0137 -0.2842  0.1815
32793SOL    HW1 1971   4.004   0.872   2.927 -1.7328  0.6165  0.9014
32793SOL    HW2 1972   4.050   0.790   3.046 -1.6054 -0.4111  0.1525
32794SOL     OW 1973   6.200   0.893   2.545  0.0949  0.0100  0.1969
32794SOL    HW1 1974   6.220   0.829   2.476  1.0951  0.3789  0.1270
32794SOL    HW2 1975   6.155   0.964   2.499 -0.9851 -0.6149  0.2679
32795SOL     OW 1976   5.560   6.789   5.557  0.1965 -0.1572 -0.1593
32795SOL    HW1 1977   5.528   6.763   5.470  1.1425  0.7644 -0.8134
32795SOL    HW2 1978   5.612   6.868   5.540  1.0138 -0.3897  1.1485
32796SOL     OW 1979   0.012   1.248   2.003 -0.2007  0.1273 -0.0935
32796SOL    HW1 1980  -0.002   1.156   1.980  1.4242  0.0169 -0.7311
32796SOL    HW2 1981  -0.072   1.290   1.981 -0.1589 -0.7631 -2.2293
32797SOL     OW 1982   9.947   2.719   8.467  0.3784 -0.0693 -0.3200
32797SOL    HW1 1983   9.862   2.706   8.508  0.5245 -1.3039 -0.3856
32797SOL    HW2 1984   9.928   2.772   8.389 -0.3825 -0.6056 -0.5089
32798SOL     OW 1985   1.734   7.123   7.617  0.2147  0.2600 -0.1584
32798SOL    HW1 1986   1.653   7.161   7.651 -0.0377 -1.1139  0.8520
32798SOL    HW2 1987   1.706   7.063   7.548  0.4123  0.1412 -0.1378
32799SOL     OW 1988   4.515   5.241   1.576 -0.6809  0.3039 -0.4854
32799SOL    HW1 1989   4.565   5.312   1.536 -0.7073  1.1449  0.9107
32799SOL    HW2 1990   4.559   5.161   1.548  0.2732  0.9502 -0.8541
32800SOL     OW 1991   3.330   9.422   5.689 -0.2516 -0.5513  0.1467
32800SOL    HW1 1992   3.260   9.390   5.632 -0.4055 -0.1393  0.0974
32800SOL    HW2 1993   3.354   9.507   5.651  0.8638 -1.0619 -0.3352
32801SOL     OW 1994   6.260   4.483   1.911 -0.1319 -0.3378  0.7057
32801SOL    HW1 1995   6.330   4.545   1.930  1.2703 -0.6316 -2.6709
32801SOL    HW2 1996   6.301   4.419   1.852 -3.0344 -0.9159 -0.8596
32802SOL     OW 1997   6.335   6.873   4.852 -0.6156 -0.3705 -0.2416
32802SOL    HW1 1998   6.281   6.839   4.781 -0.7918 -1.1143  0.2355
32802SOL    HW2 1999   6.336   6.803   4.918 -0.8489  0.4815  0.7010
32803SOL     OW 2000   8.920   2.911   2.622  0.2421  0.0328  0.0555
32803SOL    HW1 2001   8.909   2.884   2.713  1.4702  1.3435  0.6290
32803SOL    HW2 2002   8.865   2.850   2.572  0.3492 -1.3687  1.5641
32804SOL     OW 2003   1.844  10.453   7.381 -0.5300  0.4324  0.0314
32804SOL    HW1 2004   1.867  10.436   7.473  0.3695  0.2929 -0.2175
32804SOL    HW2 2005   1.788  10.380   7.356 -1.9311  1.1558  0.8627
32805SOL     OW 2006   5.442  11.051   6.040  0.2229  0.3019  0.3578
32805SOL    HW1 2007   5.487  10.996   5.976 -0.4545  2.5606 -2.2725
32805SOL    HW2 2008   5.368  10.998   6.069  0.4396 -0.7623 -0.9376
32806SOL     OW 2009   4.856   4.514   3.764 -0.5352 -0.2676 -0.3840
32806SOL    HW1 2010   4.862   4.607   3.743 -2.3536 -0.3685 -1.5171
32806SOL    HW2 2011   4.888   4.508   3.854 -0.8703  1.5364 -0.1113
32807SOL     OW 2012   3.310   1.879   5.530 -0.4201 -0.0333 -0.5857
32807SOL    HW1 2013   3.356   1.854   5.610  1.1498  0.2491 -1.3468
32807SOL    HW2 2014   3.309   1.800   5.476 -0.6522  0.0161 -0.6560
32808SOL     OW 2015   8.248   9.373   8.591  0.2668 -0.2345  0.5331
32808SOL    HW1 2016   8.192   9.299   8.566  1.0140 -0.0825 -1.7760
32808SOL    HW2 2017   8.337   9.339   8.584  0.6029  0.7444 -0.1228
32809SOL     OW 2018   5.616  10.284  10.902  0.1218 -0.2038  0.1866
32809SOL    HW1 2019   5.589  10.373  10.924  0.2530  0.2407 -1.3238
32809SOL    HW2 2020   5.543  10.229  10.930 -2.1344  0.8751 -2.9467
32810SOL     OW 2021   6.707   8.170   5.079  0.3177  0.2473  0.1270
32810SOL    HW1 2022   6.682   8.138   4.992 -0.8012  1.3268  0.0206
32810SOL    HW2 2023   6.709   8.265   5.069 -2.3989  0.5731  1.8859
32811SOL     OW 2024   0.987   0.669   9.183 -0.3387 -0.3865  0.3648
32811SOL    HW1 2025   0.986   0.687   9.277 -0.8546  0.6733  0.1718
32811SOL    HW2 2026   0.996   0.574   9.177 -1.4306 -0.5836  1.5079
32812SOL     OW 2027   4.373   4.768  10.270  0.0162 -0.2408 -0.1418
32812SOL    HW1 2028   4.413   4.735  10.351 -0.1336  0.4984  0.2521
32812SOL    HW2 2029   4.294   4.813  10.300  0.5203  0.9701 -0.5809
32813SOL     OW 2030   3.011   1.004   8.454  0.0752  0.0693 -0.1174
32813SOL    HW1 2031   3.036   1.095   8.435  1.2237 -0.3934 -0.9716
32813SOL    HW2 2032   3.053   0.953   8.384  2.7501 -1.5546  2.4535
32814SOL     OW 2033  10.646   2.130   8.576  0.0822  0.5481 -0.0056
32814SOL    HW1 2034  10.581   2.200   8.565  1.8332  2.4383  0.9796
32814SOL    HW2 2035  10.714   2.150   8.511  0.8301  0.0240  0.6005
32815SOL     OW 2036   6.693   3.970   5.085  0.1870  0.7716  0.0423
32815SOL    HW1 2037   6.611   3.951   5.132  0.0259  1.2676 -0.0324
32815SOL    HW2 2038   6.735   3.884   5.075  0.0899  0.6238  0.8426
32816SOL     OW 2039  11.024   0.703   9.124 -0.0202 -0.0313  0.3514
32816SOL    HW1 2040  10.953   0.735   9.179 -0.1470 -0.0413  0.1956
32816SOL    HW2 2041  10.999   0.727   9.035 -0.5133 -1.2520  0.1351
32817SOL     OW 2042   9.713   9.900   0.904 -0.5288 -0.4086  0.1281
32817SOL    HW1 2043   9.790   9.930   0.855 -1.5657 -1.1568 -2.0954
32817SOL    HW2 2044   9.723   9.804   0.908 -0.4545 -0.3642  1.4634
32818SOL     OW 2045   1.861   9.409   0.711 -0.2502 -0.1059 -0.2738
32818SOL    HW1 2046   1.821   9.333   0.753  0.6613 -0.9738 -0.9344
32818SOL    HW2 2047   1.819   9.413   0.625 -0.0888 -0.0303 -0.3479
32819SOL     OW 2048   1.630   0.393   6.121 -0.6303 -0.2263 -0.1786
32819SOL    HW1 2049   1.536   0.379   6.110 -0.2908 -0.8057 -3.2941
32819SOL    HW2 2050   1.648   0.475   6.075  0.1445  0.9714  2.1329
32820SOL     OW 2051   9.160   0.092   8.797  0.4232 -0.2822  0.6174
32820SOL    HW1 2052   9.152   0.004   8.761  0.8115  0.0554 -0.3296
32820SOL    HW2 2053   9.154   0.080   8.891 -1.3414 -1.1251  0.4420
32821SOL     OW 2054   8.582   7.944   6.886  0.0158  0.0756  0.1514
32821SOL    HW1 2055   8.638   7.969   6.813 -0.3813  1.7162  0.3694
32821SOL    HW2 2056   8.503   7.908   6.845 -0.0498  0.6439 -0.2316
32822SOL     OW 2057   3.787   8.919   0.197 -0.0887  0.4514  0.1302
32822SOL    HW1 2058   3.828   8.877   0.121  1.9288  1.6609  0.4712
32822SOL    HW2 2059   3.693   8.904   0.185  0.2013  0.2349 -2.3795
32823SOL     OW 2060   0.994   5.841   1.429 -0.2705 -0.1980  0.5822
32823SOL    HW1 2061   0.947   5.922   1.451 -0.3280 -0.3968  1.1907
32823SOL    HW2 2062   1.080   5.871   1.400 -0.2568  0.0803  0.8994
32824SOL     OW 2063   6.112   3.196   3.987 -0.1078 -0.6084  0.7091
32824SOL    HW1 2064   6.155   3.277   4.015 -0.3480 -0.7044  1.3856
32824SOL    HW2 2065   6.113   3.200   3.892 -1.0890  0.7318  0.7129
32825SOL     OW 2066   5.953   2.715   2.844  0.5086  0.2098 -0.1309
32825SOL    HW1 2067   5.986   2.804   2.830  0.6453  0.1324 -0.2960
32825SOL    HW2 2068   6.032   2.662   2.856  0.4961 -0.1738 -1.6374
32826SOL     OW 2069   4.317  10.053   1.927 -0.4418  0.1994 -0.5355
32826SOL    HW1 2070   4.244  10.102   1.889 -0.7698  1.7951  1.8667
32826SOL    HW2 2071   4.394  10.085   1.880 -1.0044  0.5301 -1.2584
32827SOL     OW 2072   2.518   0.913   0.776  0.7344 -0.1509 -0.1000
32827SOL    HW1 2073   2.597   0.956   0.744  0.1965  1.6867  0.9191
32827SOL    HW2 2074   2.527   0.822   0.747  4.0951 -0.4791  1.5347
32828SOL     OW 2075   1.891   3.858   6.408 -0.1273 -0.0694  0.6222
32828SOL    HW1 2076   1.911   3.766   6.393  0.5861  0.5151 -2.6539
32828SOL    HW2 2077   1.971   3.894   6.445  1.0709 -0.0325 -1.8474
32829SOL     OW 2078   8.967   8.366  10.754  0.1014 -0.3991  0.2968
32829SOL    HW1 2079   8.910   8.289  10.752 -0.8875  0.3251  0.0708
32829SOL    HW2 2080   8.936   8.422  10.683  1.1267  0.0027  0.1392
32830SOL     OW 2081   5.730   1.251   7.945  0.5946  0.0101 -0.0166
32830SOL    HW1 2082   5.705   1.324   7.889 -0.1620  2.0493  2.8202
32830SOL    HW2 2083   5.812   1.219   7.906  0.0602  1.1877 -2.3153
32831SOL     OW 2084  11.081   0.619   9.824  0.3835  0.1433  0.1828
32831SOL    HW1 2085  11.009   0.595   9.766  1.4123 -1.4046 -0.5197
32831SOL    HW2 2086  11.078   0.554   9.894  1.3935 -0.2705 -0.1364
32832SOL     OW 2087   7.864   1.191   6.333 -0.0131  0.0803  0.7973
32832SOL    HW1 2088   7.931   1.169   6.268 -0.6853  0.1100  0.0711
32832SOL    HW2 2089   7.906   1.253   6.392 -0.1446  2.2059 -1.1860
32833SOL     OW 2090   1.396   4.522   1.398 -0.0213 -0.4349  0.0480
32833SOL    HW1 2091   1.372   4.607   1.434  0.9874 -0.6539  1.2806
32833SOL    HW2 2092   1.318   4.494   1.349 -1.1427  0.2316  1.3991
32834SOL     OW 2093   0.961   1.392   4.771  0.0170  0.4326  0.2940
32834SOL    HW1 2094   1.035   1.337   4.795 -0.3221 -0.3462 -0.3910
32834SOL    HW2 2095   0.930   1.356   4.687 -0.1098  1.7600 -0.2646
32835SOL     OW 2096   9.485   5.738   0.236 -0.2321  0.0630 -0.3728
32835SOL    HW1 2097   9.565   5.711   0.282 -1.6895 -0.2952  2.1693
32835SOL    HW2 2098   9.479   5.832   0.251 -0.9888 -0.1407  0.7217
32836SOL     OW 2099   2.581   0.237   8.153  0.1538 -0.0718  0.3576
32836SOL    HW1 2100   2.664   0.236   8.105 -0.6543 -0.2702 -1.0862
32836SOL    HW2 2101   2.570   0.147   8.184  0.6460  0.0419  0.8919
32837SOL     OW 2102   8.330   7.588   4.714 -0.1972 -0.3868  0.0453
32837SOL    HW1 2103   8.381   7.543   4.782  0.2027 -0.9049 -0.5947
32837SOL    HW2 2104   8.360   7.678   4.717 -0.7443 -0.2197  1.0891
32838SOL     OW 2105   5.905   4.079   6.759  0.0936  0.0071 -0.5589
32838SOL    HW1 2106   5.944   4.156   6.802 -1.1469  0.7915 -0.8045
32838SOL    HW2 2107   5.898   4.015   6.830  1.2826  0.0323 -0.3817
32839SOL     OW 2108   9.663   0.172   4.113  0.1166 -0.1277 -0.4866
32839SOL    HW1 2109   9.710   0.205   4.037 -0.7293 -0.4429 -1.1705
32839SOL    HW2 2110   9.617   0.248   4.149 -1.4979 -0.4140 -1.8125
32840SOL     OW 2111   6.846   3.877   3.870  0.0553  0.0180 -0.2154
32840SOL    HW1 2112   6.896   3.836   3.800  1.1391  1.8223 -0.5395
32840SOL    HW2 2113   6.855   3.816   3.944  0.9992 -0.6836 -0.8820
32841SOL     OW 2114   1.106   6.511   9.599  0.2457  0.1063 -0.0462
32841SOL    HW1 2115   1.102   6.574   9.527  0.9081  0.6795  0.4076
32841SOL    HW2 2116   1.190   6.527   9.641  1.0202 -1.9484 -0.6860
32842SOL     OW 2117   8.616   6.148   9.945 -0.4440 -0.6861  0.1967
32842SOL    HW1 2118   8.543   6.154   9.883 -0.6289 -0.5001  0.4315
32842SOL    HW2 2119   8.677   6.087   9.904 -0.5272 -0.4987 -0.2094
32843SOL     OW 2120   5.206   7.827   4.736 -0.5400  0.1352 -0.2590
32843SOL    HW1 2121   5.255   7.902   4.702  1.7211  0.0781  2.4448
32843SOL    HW2 2122   5.260   7.751   4.714 -1.6555 -0.4449 -1.0084
32844SOL     OW 2123   6.160   6.377   1.966  0.0313  0.0909 -0.1372
32844SOL    HW1 2124   6.187   6.288   1.988 -1.2912 -0.7053 -1.5437
32844SOL    HW2 2125   6.219   6.404   1.896  0.0145  0.0586 -0.1638
32845SOL     OW 2126   5.203   4.158   1.317 -0.7110 -0.1974 -0.2558
32845SOL    HW1 2127   5.187   4.210   1.239  0.0808  0.1551 -0.1864
32845SOL    HW2 2128   5.285   4.111   1.299 -0.0542  0.5494  0.6927
32846SOL     OW 2129   9.868   9.486   2.149 -0.2895 -0.7064 -0.4714
32846SOL    HW1 2130   9.881   9.393   2.135 -0.3200 -0.8159  0.1901
32846SOL    HW2 2131   9.949   9.516   2.191 -0.7343 -0.6771  0.3872
32847SOL     OW 2132   2.765   9.037   5.297  0.2683 -0.2504 -0.3640
32847SOL    HW1 2133   2.851   9.043   5.255  0.5767 -0.5017  0.2172
32847SOL    HW2 2134   2.731   8.952   5.268  1.4182 -1.4475  1.5774
32848SOL     OW 2135   6.932   0.934   5.013  0.6759 -0.5855 -0.5323
32848SOL    HW1 2136   6.944   0.844   5.044  0.6340 -1.3473 -2.5684
32848SOL    HW2 2137   7.012   0.979   5.038  0.6531 -1.1503  0.6184
32849SOL     OW 2138   0.185   3.794   5.455  0.3004  0.3906  0.0383
32849SOL    HW1 2139   0.261   3.809   5.511  0.7684  0.8640 -0.7117
32849SOL    HW2 2140   0.154   3.882   5.433  0.1557  0.2068 -0.5029
32850SOL     OW 2141   2.939   4.893   6.210 -0.9112 -0.3488 -0.0366
32850SOL    HW1 2142   2.884   4.933   6.277  0.5116  0.6372  0.6034
32850SOL    HW2 2143   3.025   4.933   6.224 -0.1848 -1.3889 -1.3796
32851SOL     OW 2144   4.234   0.034   8.741 -0.2950 -0.0711 -0.9463
32851SOL    HW1 2145   4.207  -0.058   8.733 -0.0944 -0.1573 -0.6600
32851SOL    HW2 2146   4.327   0.029   8.764 -0.4439  0.1863 -0.2603
32852SOL     OW 2147   5.908   5.533   1.823  0.2376  0.2153 -0.2456
32852SOL    HW1 2148   5.875   5.452   1.862 -1.7663  1.2866  0.4653
32852SOL    HW2 2149   5.898   5.598   1.893  0.9747  1.2550 -1.0766
32853SOL     OW 2150   4.069   0.896   7.137  0.3877 -0.2807  0.1799
32853SOL    HW1 2151   4.141   0.873   7.078 -0.5150  0.4535 -1.2500
32853SOL    HW2 2152   3.990   0.875   7.087 -0.4068  0.7684  0.9657
32854SOL     OW 2153   8.854   7.769   7.388 -0.3026  0.0004  0.2946
32854SOL    HW1 2154   8.908   7.835   7.432 -1.1786  1.4477 -0.7090
32854SOL    HW2 2155   8.823   7.813   7.309 -1.3993 -1.4427 -0.1159
32855SOL     OW 2156   1.991   1.435  10.729  0.2858  0.6497  0.3835
32855SOL    HW1 2157   1.904   1.397  10.742  0.2939 -0.6119 -2.4651
32855SOL    HW2 2158   2.050   1.375  10.774 -0.1304  0.0394  0.1416
32856SOL     OW 2159   1.744   9.010   4.621 -0.3594 -0.0152  0.2121
32856SOL    HW1 2160   1.675   9.027   4.557  0.4545  0.5569 -0.5258
32856SOL    HW2 2161   1.787   8.930   4.589  0.2935  0.4854 -0.1791
32857SOL     OW 2162   2.202   9.002  10.940 -0.2948 -0.4332 -0.2098
32857SOL    HW1 2163   2.271   8.936  10.951 -1.0235 -0.9079  1.8699
32857SOL    HW2 2164   2.138   8.981  11.007 -1.1176  1.7116 -0.2661
32858SOL     OW 2165   8.952   6.883   2.694 -0.0717 -0.1694  0.5717
32858SOL    HW1 2166   8.858   6.886   2.708  0.1206  0.3770  1.8782
32858SOL    HW2 2167   8.983   6.810   2.748  0.3788  0.3460  1.0232
32859SOL     OW 2168   0.077   4.479   1.847  0.0667 -0.0694 -0.4786
32859SOL    HW1 2169   0.168   4.464   1.821  0.2726 -1.2016  0.7326
32859SOL    HW2 2170   0.064   4.573   1.838  1.9057  0.3737  0.9156
32860SOL     OW 2171   9.153   1.159   6.199  0.0728 -0.1323 -0.5186
32860SOL    HW1 2172   9.087   1.095   6.225 -0.5209 -0.2256 -2.1290
32860SOL    HW2 2173   9.169   1.211   6.278  1.2112 -2.7547  1.1153
32861SOL     OW 2174   4.278   9.092   4.061 -0.0571  0.0844 -0.8204
32861SOL    HW1 2175   4.295   9.060   4.150  1.7747 -1.7272 -1.7244
32861SOL    HW2 2176   4.212   9.160   4.072  0.2007  0.0100  1.9320
32862SOL     OW 2177   3.555   9.375   4.555 -0.2724  0.1068 -0.3363
32862SOL    HW1 2178   3.593   9.463   4.556 -1.1531  0.5736  3.0437
32862SOL    HW2 2179   3.467   9.387   4.520  0.4432  0.0633 -2.2762
32863SOL     OW 2180   3.168   1.939   6.108 -0.1124 -0.7252 -0.9222
32863SOL    HW1 2181   3.260   1.916   6.121  0.1204  0.4113 -0.4326
32863SOL    HW2 2182   3.151   2.007   6.173 -1.7830 -2.0923  0.1554
32864SOL     OW 2183   6.968   5.002  10.353  0.2109  0.1582  0.3000
32864SOL    HW1 2184   6.942   4.952  10.431  1.4655 -0.8428  0.1023
32864SOL    HW2 2185   7.051   5.042  10.378  0.0131  0.8371 -0.1161
32865SOL     OW 2186  10.524   2.460   3.530 -0.4010 -0.0252  0.1387
32865SOL    HW1 2187  10.614   2.493   3.531 -0.0388 -0.9901  0.3773
32865SOL    HW2 2188  10.512   2.425   3.442 -0.7098  0.5387 -0.0461
32866SOL     OW 2189   7.094   5.240   5.037  0.5453 -0.3020 -0.6795
32866SOL    HW1 2190   7.133   5.266   5.120  2.2215 -1.2901 -1.1219
32866SOL    HW2 2191   7.121   5.149   5.025  0.3039 -0.1915 -2.2912
32867SOL     OW 2192   6.318   1.601   3.515 -0.3023  0.4092  0.4568
32867SOL    HW1 2193   6.279   1.524   3.557  0.5072 -0.8843 -1.0738
32867SOL    HW2 2194   6.381   1.634   3.579  1.0979 -1.6728  0.2373
32868SOL     OW 2195   3.428   4.139   8.842  0.0861 -0.0487 -0.0207
32868SOL    HW1 2196   3.409   4.208   8.906 -0.6718  1.1817 -1.5195
32868SOL    HW2 2197   3.345   4.092   8.834  0.6937 -1.4324  1.2642
32869SOL     OW 2198   0.400   3.000  10.733 -0.0916  0.1853 -0.2579
32869SOL    HW1 2199   0.395   3.054  10.654  0.6066 -1.9629 -1.8772
32869SOL    HW2 2200   0.309   2.983  10.757 -0.3131  0.4798 -0.8723
32870SOL     OW 2201   8.887   7.052   0.692  0.2869 -0.0025 -0.1337
32870SOL    HW1 2202   8.925   6.997   0.624 -0.7306 -0.0532 -0.6850
32870SOL    HW2 2203   8.817   7.100   0.648  1.8087  2.5660  0.0512
32871SOL     OW 2204   2.733   2.903   6.759  0.0904  0.2705 -0.1771
32871SOL    HW1 2205   2.755   2.995   6.744  1.5045 -0.1747 -1.0458
32871SOL    HW2 2206   2.815   2.856   6.746 -0.7024 -1.1759 -0.2020
32872SOL     OW 2207   1.837   6.133   0.702 -0.5568 -0.0804  0.1095
32872SOL    HW1 2208   1.928   6.122   0.729 -0.4849  1.1924  0.4365
32872SOL    HW2 2209   1.797   6.182   0.774 -1.1434  0.6357 -0.6950
32873SOL     OW 2210   6.835   0.478   0.807  0.8855 -0.4198 -0.2870
32873SOL    HW1 2211   6.796   0.513   0.887 -0.9132 -2.1923 -0.2999
32873SOL    HW2 2212   6.764   0.481   0.743  1.2992 -1.9982 -0.8667
32874SOL     OW 2213   6.959   8.394   2.388 -0.0981 -0.1353 -0.5772
32874SOL    HW1 2214   7.029   8.460   2.389 -0.2273  0.0117 -0.9579
32874SOL    HW2 2215   6.962   8.359   2.299 -0.4933 -0.1482 -0.5841
32875SOL     OW 2216   4.066   1.229   5.656 -0.0880 -0.3209 -0.4462
32875SOL    HW1 2217   4.083   1.209   5.748 -2.0412 -1.0811 -0.2080
32875SOL    HW2 2218   4.122   1.169   5.608  1.6922  0.7510  0.2016
32876SOL     OW 2219   3.332   9.545   6.950  0.1186 -0.1353 -0.1248
32876SOL    HW1 2220   3.264   9.599   6.990 -0.2943 -0.1841 -0.7424
32876SOL    HW2 2221   3.332   9.572   6.858  1.1404  0.0718 -0.0722
32877SOL     OW 2222   0.029   7.850   1.845 -0.4453  0.9543 -0.4996
32877SOL    HW1 2223   0.065   7.932   1.878 -0.6470  1.6911 -2.0207
32877SOL    HW2 2224  -0.038   7.825   1.908  1.8873  0.1058  1.8508
32878SOL     OW 2225   7.882   8.608   3.436  0.8404 -0.2623 -0.6922
32878SOL    HW1 2226   7.844   8.641   3.518  1.2271 -1.2410 -0.0900
32878SOL    HW2 2227   7.809   8.608   3.374  1.2097  3.5520 -1.3735
32879SOL     OW 2228   1.065   9.481   5.542  0.0742 -0.2526 -0.5203
32879SOL    HW1 2229   1.097   9.571   5.547  1.3253 -0.7127  0.1845
32879SOL    HW2 2230   1.131   9.430   5.589 -2.5727 -1.0707  2.5989
32880SOL     OW 2231   3.759   5.399   4.015 -0.4043  0.1933  0.0246
32880SOL    HW1 2232   3.778   5.446   4.096 -0.0173 -0.1600  0.1446
32880SOL    HW2 2233   3.839   5.410   3.962 -1.2518  1.8198 -1.0017
32881SOL     OW 2234   1.763   1.337   5.433  0.8886 -0.1867  0.4119
32881SOL    HW1 2235   1.857   1.322   5.443  0.7215  0.1204  2.9397
32881SOL    HW2 2236   1.757   1.407   5.367  2.3653 -0.6490 -0.2581
32882SOL     OW 2237   4.419   3.662   1.868 -0.2873  0.2050 -0.4518
32882SOL    HW1 2238   4.394   3.632   1.955 -0.0314  1.0254 -0.0818
32882SOL    HW2 2239   4.337   3.690   1.828 -0.6802 -1.7890 -1.1592
32883SOL     OW 2240   7.704   5.188   7.667  0.3232 -0.0784  0.8762
32883SOL    HW1 2241   7.793   5.161   7.642 -0.4377 -1.4359 -0.5169
32883SOL    HW2 2242   7.661   5.106   7.693 -0.4484  0.6052  1.8367
32884SOL     OW 2243   7.295   6.088   6.393  0.1874 -0.1707 -0.0957
32884SOL    HW1 2244   7.365   6.067   6.454  0.7912  0.2108 -0.6437
32884SOL    HW2 2245   7.225   6.125   6.447 -0.4699 -2.4891  0.7513
32885SOL     OW 2246   7.898   4.535   2.760  0.0951 -0.5834 -0.4263
32885SOL    HW1 2247   7.990   4.512   2.776  0.0849 -0.1232  0.3624
32885SOL    HW2 2248   7.902   4.612   2.703  0.1889 -0.7927 -0.7036
32886SOL     OW 2249   0.805   9.367   3.255  0.3058  0.2531  0.6086
32886SOL    HW1 2250   0.805   9.282   3.210  0.6191  1.2056 -1.2697
32886SOL    HW2 2251   0.874   9.358   3.320  1.3774 -0.4595 -0.5697
32887SOL     OW 2252   1.261   7.523  10.690 -0.1729 -0.0041  0.1079
32887SOL    HW1 2253   1.258   7.604  10.740 -2.2173  0.0672 -0.0435
32887SOL    HW2 2254   1.296   7.549  10.605 -1.3460  0.8784 -0.1366
32888SOL     OW 2255   6.387   4.209   5.814 -0.0186 -0.1151  0.3554
32888SOL    HW1 2256   6.391   4.157   5.894  0.9765  1.3172  1.2710
32888SOL    HW2 2257   6.371   4.144   5.745  0.7083 -1.5765  1.4968
32889SOL     OW 2258   3.054   8.852   2.248  0.4476 -0.8401 -0.5468
32889SOL    HW1 2259   3.011   8.845   2.163 -0.6973 -1.1543  0.0393
32889SOL    HW2 2260   3.070   8.946   2.260 -0.6758 -0.6484 -0.4919
32890SOL     OW 2261   2.964   5.477   5.945 -0.0289  0.0936 -0.3636
32890SOL    HW1 2262   2.871   5.494   5.931 -0.2028  0.2568  0.8653
32890SOL    HW2 2263   2.970   5.452   6.037  1.0123 -0.9112 -0.6894
32891SOL     OW 2264  10.868   3.168   6.683  0.0947 -0.2934  0.2725
32891SOL    HW1 2265  10.898   3.254   6.712 -2.1367  0.1398  1.6040
32891SOL    HW2 2266  10.927   3.106   6.725 -0.0157  0.5347  1.7113
32892SOL     OW 2267   2.480   6.122   4.713 -0.4198 -0.4731  0.4094
32892SOL    HW1 2268   2.558   6.177   4.707 -0.5730 -0.0929  1.5944
32892SOL    HW2 2269   2.463   6.094   4.623  0.8245 -0.2118  0.0732
32893SOL     OW 2270   8.561   9.855  10.342 -0.7198 -0.3052 -0.0529
32893SOL    HW1 2271   8.469   9.880  10.349 -0.3318  1.7900 -1.5395
32893SOL    HW2 2272   8.606   9.908  10.408 -0.4026 -0.1705 -0.3721
32894SOL     OW 2273   8.028   3.345   7.695  0.5049  0.3563 -0.5205
32894SOL    HW1 2274   7.953   3.288   7.714  1.5606 -0.6533  0.8548
32894SOL    HW2 2275   8.025   3.412   7.763  1.0798  0.0720 -0.2125
32895SOL     OW 2276   8.751   0.296  10.669 -0.3434  0.4149  0.2541
32895SOL    HW1 2277   8.708   0.243  10.736 -0.4907  0.8642  0.5186
32895SOL    HW2 2278   8.748   0.385  10.703  1.1275  0.4088  0.4561
32896SOL     OW 2279   2.290   0.001   4.573 -0.7576 -0.1612 -0.0403
32896SOL    HW1 2280   2.321   0.008   4.483 -0.0985 -0.4469  0.1599
32896SOL    HW2 2281   2.267   0.091   4.598  1.2613  0.3184  0.2724
32897SOL     OW 2282   5.753   1.992   3.714  0.4467  0.1955  0.3329
32897SOL    HW1 2283   5.693   1.918   3.722  0.9679 -0.2341  0.2681
32897SOL    HW2 2284   5.714   2.060   3.770 -0.5411  0.2199 -0.3510
32898SOL     OW 2285   2.591   6.466   2.029  0.0705 -0.3900  0.2776
32898SOL    HW1 2286   2.672   6.451   1.981 -0.4998 -1.6424 -0.3251
32898SOL    HW2 2287   2.521   6.438   1.969 -1.0401  3.0470 -0.2800
32899SOL     OW 2288   1.316   4.437   9.784  0.8393  0.2261 -0.1060
32899SOL    HW1 2289   1.255   4.493   9.736  0.0634 -1.0641 -0.6840
32899SOL    HW2 2290   1.307   4.465   9.875  0.8419  1.3649 -0.4392
32900SOL     OW 2291   2.546   0.079   4.175 -0.0174  0.4239  0.0485
32900SOL    HW1 2292   2.581   0.145   4.236 -1.6091  0.5555  0.8861
32900SOL    HW2 2293   2.565   0.114   4.088  0.5807  1.2092  0.4829
32901SOL     OW 2294   9.343   6.109   8.784  0.0685  0.0654 -0.5023
32901SOL    HW1 2295   9.370   6.186   8.734  1.9214 -0.6250 -0.6225
32901SOL    HW2 2296   9.422   6.081   8.830 -1.0305 -0.6770  1.0300
32902SOL     OW 2297   6.254   8.676   9.326 -0.3000  0.4309  0.1405
32902SOL    HW1 2298   6.273   8.712   9.239 -1.5350  0.0196 -0.3182
32902SOL    HW2 2299   6.326   8.706   9.380  0.6268  0.4882 -1.0843
32903SOL     OW 2300   1.528   3.493  10.258  0.7929 -0.5282  0.0406
32903SOL    HW1 2301   1.442   3.450  10.257 -0.1511  1.2194 -2.2658
32903SOL    HW2 2302   1.510   3.582  10.289  2.3673 -0.9944  2.6357
32904SOL     OW 2303   6.394   3.190   8.460 -0.7840 -0.2240 -0.3523
32904SOL    HW1 2304   6.333   3.120   8.483  0.5228 -1.1573  0.4185
32904SOL    HW2 2305   6.402   3.243   8.539 -0.8145  0.0649 -0.5416
32905SOL     OW 2306  10.090   6.023   4.831  0.6488 -0.6960  0.3018
32905SOL    HW1 2307  10.085   6.106   4.878 -1.1598 -1.4737  1.5450
32905SOL    HW2 2308  10.184   6.005   4.825  1.0270  0.8958  0.9436
32906SOL     OW 2309   9.882   4.850   0.466  0.3053  0.3363  0.0955
32906SOL    HW1 2310   9.900   4.824   0.376  0.9987 -0.7118  0.5184
32906SOL    HW2 2311   9.844   4.938   0.459 -1.0417 -0.3070 -1.3145
32907SOL     OW 2312   8.005   0.325   4.144  0.1637 -0.0792  0.0593
32907SOL    HW1 2313   8.015   0.414   4.178  1.2036 -0.4276  0.6921
32907SOL    HW2 2314   8.017   0.334   4.050 -0.7076  0.5878 -0.0055
32908SOL     OW 2315   9.996   8.974   3.770 -0.3826 -0.6244  0.3266
32908SOL    HW1 2316   9.913   8.935   3.743  0.0653 -0.8134 -0.8406
32908SOL    HW2 2317  10.051   8.899   3.794 -0.3407 -0.5363  0.5124
32909SOL     OW 2318   5.547   3.392   4.722  0.0049 -0.0261 -0.1423
32909SOL    HW1 2319   5.616   3.396   4.789  1.9266 -0.2166 -2.0190
32909SOL    HW2 2320   5.519   3.483   4.710 -0.8917 -0.0576  1.3573
32910SOL     OW 2321   5.884   5.966   4.502 -0.6453 -0.1359  0.6753
32910SOL    HW1 2322   5.943   5.999   4.570  1.0669  1.4737 -1.4294
32910SOL    HW2 2323   5.884   5.871   4.514  1.9789 -0.1619  1.1380
32911SOL     OW 2324   5.348   2.563   2.981  0.6708  0.8811 -0.3672
32911SOL    HW1 2325   5.437   2.530   2.968  0.6191  0.5379  0.0954
32911SOL    HW2 2326   5.301   2.490   3.021  0.0993  0.9624 -0.8729
32912SOL     OW 2327   7.608   1.457   1.232 -0.1564 -0.3795 -0.2742
32912SOL    HW1 2328   7.594   1.548   1.208  2.0710 -0.0178 -0.3932
32912SOL    HW2 2329   7.683   1.459   1.292 -0.9684 -1.9932  0.8759
32913SOL     OW 2330   8.490   1.977   3.179  0.0976  0.5920 -0.4201
32913SOL    HW1 2331   8.410   1.988   3.128  0.4146 -0.7459 -1.2564
32913SOL    HW2 2332   8.481   2.040   3.250  0.1201  3.3145 -2.6483
32914SOL     OW 2333   3.181   1.962   4.140 -0.6810 -0.2318 -0.2428
32914SOL    HW1 2334   3.227   2.039   4.104 -0.3065  0.2128  1.1121
32914SOL    HW2 2335   3.227   1.887   4.102  0.8934  0.2089  0.6785
32915SOL     OW 2336   1.318   7.641   9.057  0.3259  0.2219  0.1607
32915SOL    HW1 2337   1.374   7.707   9.018 -1.0302  0.2797 -1.8499
32915SOL    HW2 2338   1.290   7.586   8.984 -0.8214 -0.8559  1.3427
32916SOL     OW 2339   1.753   4.169  10.458  0.1091 -0.4219 -0.4771
32916SOL    HW1 2340   1.681   4.215  10.416 -0.6954 -1.2083  0.0145
32916SOL    HW2 2341   1.830   4.222  10.438 -0.5907  0.4032 -1.0479
32917SOL     OW 2342   5.346  10.897   4.836 -0.0536 -0.7285 -0.0452
32917SOL    HW1 2343   5.364  10.805   4.852 -1.5575 -0.9507  0.4231
32917SOL    HW2 2344   5.391  10.943   4.907  0.1420 -1.1281  0.0940
32918SOL     OW 2345  10.631   8.614   1.971  0.0787  0.3987 -0.0436
32918SOL    HW1 2346  10.693   8.602   2.043 -0.4752  1.6515  0.6854
32918SOL    HW2 2347  10.674   8.676   1.912  0.2175 -0.0473 -0.4180
32919SOL     OW 2348   2.758  10.763   1.550 -0.0447 -0.2329 -0.3545
32919SOL    HW1 2349   2.787  10.835   1.606 -0.8264 -0.3407  0.2054
32919SOL    HW2 2350   2.839  10.723   1.519  0.6034  2.9282 -3.4444
32920SOL     OW 2351   9.127   6.242   1.870 -0.4602 -0.3190  0.1969
32920SOL    HW1 2352   9.090   6.324   1.901 -0.0224  0.4252 -1.1316
32920SOL    HW2 2353   9.061   6.175   1.890 -0.6299  0.2635  1.6940
32921SOL     OW 2354   4.973  10.242   4.938  0.3461  0.0090 -0.4132
32921SOL    HW1 2355   4.899  10.232   4.879 -0.1416  1.0425  0.0082
32921SOL    HW2 2356   5.047  10.264   4.881  0.1973 -0.4052 -0.7698
32922SOL     OW 2357   1.689   7.519   6.924  0.1643  0.0102  0.0448
32922SOL    HW1 2358   1.708   7.612   6.907 -0.9456  0.3900  0.7674
32922SOL    HW2 2359   1.601   7.519   6.961  0.3691 -1.2981  0.5825
32923SOL     OW 2360   9.520   7.199   7.054  0.0159  0.1852 -0.2159
32923SOL    HW1 2361   9.610   7.182   7.081 -0.0703 -0.6180 -0.4076
32923SOL    HW2 2362   9.511   7.294   7.060  1.3564  0.4492 -1.7016
32924SOL     OW 2363   5.181   3.027   9.130 -0.2486 -0.2657 -0.4938
32924SOL    HW1 2364   5.206   2.957   9.191 -2.2350  0.3549  1.1457
32924SOL    HW2 2365   5.110   2.989   9.078  1.3217 -0.7336 -2.4259
32925SOL     OW 2366  10.614   6.519   7.486 -0.1932  0.0487  0.0724
32925SOL    HW1 2367  10.525   6.510   7.520  0.4966 -0.0029  2.0437
32925SOL    HW2 2368  10.666   6.542   7.564  1.3719  0.9426 -1.1752
32926SOL     OW 2369   1.072   2.563   4.109 -0.0152  0.0765 -0.2394
32926SOL    HW1 2370   1.107   2.509   4.180  0.6982 -1.2364 -1.5333
32926SOL    HW2 2371   1.097   2.652   4.132  1.8203 -0.5259  0.2800
32927SOL     OW 2372  10.286   1.178  10.484  0.1057 -0.0762  0.1011
32927SOL    HW1 2373  10.193   1.173  10.506 -0.1557 -0.3622 -1.0131
32927SOL    HW2 2374  10.289   1.163  10.389  1.1416  1.4280 -0.1372
32928SOL     OW 2375   9.438   3.516   0.421 -0.4555 -0.8373  0.3959
32928SOL    HW1 2376   9.378   3.510   0.346  0.4015 -2.2396 -0.2089
32928SOL    HW2 2377   9.402   3.587   0.474 -1.1550  0.1129 -1.2697
32929SOL     OW 2378   0.908   8.943  10.100 -0.0432 -0.5655  0.4021
32929SOL    HW1 2379   0.961   8.961  10.178  0.3369  1.1783 -0.2180
32929SOL    HW2 2380   0.835   9.005  10.106 -0.3056 -0.7928 -0.3689
32930SOL     OW 2381   9.092   2.249   6.754  0.0803  0.3275  0.4744
32930SOL    HW1 2382   9.130   2.196   6.684  0.7170  1.3016  0.0479
32930SOL    HW2 2383   9.151   2.236   6.829  0.4686  0.7298  0.2467
32931SOL     OW 2384   3.471   6.694   1.220  0.2552  0.6877 -0.3551
32931SOL    HW1 2385   3.453   6.755   1.149 -1.0773  1.0750  0.2838
32931SOL    HW2 2386   3.387   6.649   1.235  0.3601  1.0103  1.3290
32932SOL     OW 2387   0.722  10.500  10.210 -0.3614  0.0832  0.1455
32932SOL    HW1 2388   0.777  10.554  10.266  1.1829 -1.2344  0.0042
32932SOL    HW2 2389   0.653  10.467  10.267 -0.6564  1.2537  0.4875
32933SOL     OW 2390   1.691   5.141   4.181 -0.3597  0.1507  0.1902
32933SOL    HW1 2391   1.724   5.198   4.250  0.9159  1.1063 -1.1323
32933SOL    HW2 2392   1.728   5.055   4.200 -1.9180 -0.1895  1.9433
32934SOL     OW 2393   4.032   0.292   6.845 -0.0271 -0.0448  0.1906
32934SOL    HW1 2394   3.975   0.277   6.921  0.1346  0.1927  0.3593
32934SOL    HW2 2395   3.992   0.240   6.775 -1.1556  1.0806 -0.0341
32935SOL     OW 2396   1.851   4.270   2.576 -0.1211  0.0994 -0.0343
32935SOL    HW1 2397   1.757   4.254   2.588 -0.7368  1.8630 -1.8597
32935SOL    HW2 2398   1.864   4.265   2.481  1.5520  0.3442  0.1506
32936SOL     OW 2399   2.140   3.798   4.655 -0.1000 -0.5804 -0.2134
32936SOL    HW1 2400   2.102   3.739   4.590 -0.4395 -0.0415 -0.5105
32936SOL    HW2 2401   2.066   3.854   4.681  0.5344  0.6333 -0.9564
32937SOL     OW 2402   2.926   9.044   6.993  0.1287 -0.1370 -0.3422
32937SOL    HW1 2403   3.003   9.015   7.041  0.2748  1.1096  0.2227
32937SOL    HW2 2404   2.853   9.033   7.053  0.3408  1.6183  0.3062
32938SOL     OW 2405   5.354   3.813  10.726 -0.3311 -0.1984 -0.2838
32938SOL    HW1 2406   5.261   3.835  10.717 -0.0349  0.9665 -0.6545
32938SOL    HW2 2407   5.373   3.759  10.649 -0.8322 -0.9766  0.1193
32939SOL     OW 2408  10.970   9.979   5.380 -0.0410 -0.0652  0.3587
32939SOL    HW1 2409  11.000   9.979   5.289  0.0233 -4.2269  0.1854
32939SOL    HW2 2410  11.045   9.946   5.429 -0.2953  1.5194  1.8813
32940SOL     OW 2411   7.403   2.399   9.362  0.6372  0.0808 -0.6389
32940SOL    HW1 2412   7.403   2.493   9.380 -0.1254  0.1296 -0.8653
32940SOL    HW2 2413   7.360   2.391   9.278 -0.3686 -0.5664 -0.0788
32941SOL     OW 2414   4.916   3.625   0.139 -0.3563 -0.0601  0.5090
32941SOL    HW1 2415   4.894   3.545   0.092  0.8242  0.3418 -0.8202
32941SOL    HW2 2416   4.881   3.696   0.085  4.8669  0.7349 -2.6129
32942SOL     OW 2417   7.754   2.593  10.254 -0.0116 -0.2542  0.1043
32942SOL    HW1 2418   7.743   2.590  10.159  0.1233  0.8123  0.0338
32942SOL    HW2 2419   7.809   2.518  10.275  0.1262 -0.3845 -0.6886
32943SOL     OW 2420   8.495   5.300   1.919  0.0060  0.1949  0.2054
32943SOL    HW1 2421   8.479   5.357   1.994 -1.1687  1.2746 -0.8249
32943SOL    HW2 2422   8.506   5.360   1.845  0.6846 -0.8597 -0.5795
32944SOL     OW 2423   3.546   1.548   2.237 -0.0446  0.4041 -0.0382
32944SOL    HW1 2424   3.515   1.497   2.312 -0.7382 -1.2547 -1.3750
32944SOL    HW2 2425   3.567   1.482   2.171  0.1446  1.8318 -1.4604
32945SOL     OW 2426   2.466   1.785   1.936  0.0928  0.0390 -0.2629
32945SOL    HW1 2427   2.488   1.877   1.918 -1.8385  0.8055  0.9221
32945SOL    HW2 2428   2.409   1.789   2.013 -1.6437 -1.9761 -1.3408
32946SOL     OW 2429   6.423   7.948   5.940  0.0261 -0.0094  0.1996
32946SOL    HW1 2430   6.363   7.898   5.994  0.1788 -0.4142  0.0021
32946SOL    HW2 2431   6.386   8.037   5.937 -1.2902 -0.5600 -1.0070
32947SOL     OW 2432  10.656   5.452   4.410 -0.2170 -0.8550 -0.2630
32947SOL    HW1 2433  10.595   5.491   4.348  0.9791 -0.3223 -1.1305
32947SOL    HW2 2434  10.623   5.363   4.423 -1.9139 -0.1831  0.3273
32948SOL     OW 2435   1.214   9.801   6.755  0.0918  0.3224  0.2531
32948SOL    HW1 2436   1.121   9.809   6.731  0.3040  0.5758 -0.5044
32948SOL    HW2 2437   1.234   9.709   6.742  0.0359  0.3337  0.0840
32949SOL     OW 2438   7.998   4.727   1.597 -0.1327  0.3526  0.4196
32949SOL    HW1 2439   8.043   4.738   1.681 -0.3481 -0.5637  0.6621
32949SOL    HW2 2440   8.000   4.633   1.580  0.8185  0.6158 -1.1196
32950SOL     OW 2441   6.588   7.448   5.400  0.3737  0.4171  0.3729
32950SOL    HW1 2442   6.553   7.437   5.312  0.6977 -0.4041  0.3318
32950SOL    HW2 2443   6.531   7.394   5.455 -0.2136  1.4250  0.7770
32951SOL     OW 2444   7.194   9.501   4.377  0.3126 -0.1867 -0.1420
32951SOL    HW1 2445   7.210   9.560   4.303 -2.6244  0.8778 -0.0284
32951SOL    HW2 2446   7.240   9.421   4.354  2.1681  1.1867 -1.5685
32952SOL     OW 2447   0.379   6.788   1.767  0.1749  0.3140  0.0584
32952SOL    HW1 2448   0.356   6.765   1.677  0.1111  2.0435 -0.4132
32952SOL    HW2 2449   0.384   6.884   1.766 -0.2084  0.3843  1.9966
32953SOL     OW 2450   6.188   0.417   2.678  0.2769  0.4307 -0.6166
32953SOL    HW1 2451   6.283   0.416   2.680  0.2850  0.3792 -0.9864
32953SOL    HW2 2452   6.161   0.383   2.763  0.5804 -0.8669 -1.0189
32954SOL     OW 2453   4.993   1.369   7.277 -0.3183  0.0317 -0.1875
32954SOL    HW1 2454   4.940   1.373   7.197 -0.8884 -2.2797  0.0090
32954SOL    HW2 2455   4.962   1.291   7.323  0.1935  1.1296  2.1849
32955SOL     OW 2456   7.316  10.790   3.012  0.4318 -0.7860 -0.4357
32955SOL    HW1 2457   7.237  10.737   3.024 -0.3165  0.2624 -0.5579
32955SOL    HW2 2458   7.332  10.828   3.098  1.1404 -1.4350 -0.2750
32956SOL     OW 2459   9.086   7.374   3.115  0.3946  0.0051 -0.5713
32956SOL    HW1 2460   9.001   7.381   3.159  0.1386 -2.7483 -0.5020
32956SOL    HW2 2461   9.135   7.450   3.147 -0.9391 -0.0688  1.9132
32957SOL     OW 2462   9.417   9.950   4.731 -0.3168 -0.0828  0.0157
32957SOL    HW1 2463   9.326   9.966   4.757 -0.9083 -0.8126 -1.4670
32957SOL    HW2 2464   9.435   9.860   4.760 -0.3471 -0.2274 -0.4070
32958SOL     OW 2465   9.528  10.497   3.583 -0.5653 -0.2368 -0.6684
32958SOL    HW1 2466   9.595  10.520   3.647 -0.5287 -0.0478 -0.7729
32958SOL    HW2 2467   9.458  10.561   3.597 -1.4993 -1.4718  0.6047
32959SOL     OW 2468   1.491   8.743   1.924  0.1919  0.3610  0.1705
32959SOL    HW1 2469   1.456   8.683   1.989 -4.6000  0.8915 -1.4797
32959SOL    HW2 2470   1.530   8.814   1.975  0.8857 -1.4097  2.2449
32960SOL     OW 2471  10.042   5.046   5.135 -0.0375  0.0084 -0.1845
32960SOL    HW1 2472  10.087   5.129   5.124 -2.1146  1.0507 -1.3840
32960SOL    HW2 2473  10.103   4.980   5.101  1.0509  1.1894 -0.5717
32961SOL     OW 2474   3.772   9.835   2.837 -0.0361  0.8231  0.5915
32961SOL    HW1 2475   3.704   9.843   2.903 -0.7582 -1.3197  0.1909
32961SOL    HW2 2476   3.851   9.813   2.887 -0.5657 -0.7418  0.7911
32962SOL     OW 2477   0.303   8.072  10.885 -0.1721 -0.0031  0.2702
32962SOL    HW1 2478   0.219   8.050  10.925 -1.4714 -0.3511 -2.4432
32962SOL    HW2 2479   0.352   7.990  10.887 -0.4475 -0.1620  0.6271
32963SOL     OW 2480  10.043   6.426   1.462 -0.4393 -0.2537  0.3767
32963SOL    HW1 2481   9.986   6.350   1.475 -0.8710 -0.0234 -0.0974
32963SOL    HW2 2482   9.984   6.494   1.428 -0.3275  0.7357  2.0570
32964SOL     OW 2483   8.575   3.703   4.889 -0.3760  0.4101  0.6673
32964SOL    HW1 2484   8.527   3.674   4.966  0.3124 -0.0835  0.9138
32964SOL    HW2 2485   8.657   3.738   4.923  1.2899 -2.5412  0.0329
32965SOL     OW 2486   3.269  10.661   9.628  0.4613 -0.6600 -0.0522
32965SOL    HW1 2487   3.302  10.751   9.622  0.2887 -0.5991 -0.0868
32965SOL    HW2 2488   3.343  10.607   9.601  0.3012 -0.4838 -0.8625
32966SOL     OW 2489   6.895   0.497   1.753  0.1906  0.1486  0.3117
32966SOL    HW1 2490   6.946   0.504   1.673 -0.4496 -1.1642 -0.2490
32966SOL    HW2 2491   6.891   0.403   1.770  0.2609  0.4029  1.8613
32967SOL     OW 2492   4.384   5.938   5.542  0.0298  0.2870  0.0961
32967SOL    HW1 2493   4.428   5.853   5.540  0.4139  0.4906 -0.7232
32967SOL    HW2 2494   4.365   5.957   5.450  0.1104  1.1671  0.2535
32968SOL     OW 2495   7.003   7.908   1.938 -0.1501  0.3340  0.2846
32968SOL    HW1 2496   6.954   7.852   1.877 -1.3536  0.0547  1.4557
32968SOL    HW2 2497   6.999   7.995   1.899 -0.0794 -0.0071 -0.5095
32969SOL     OW 2498   2.069   0.872   0.226 -0.0170 -0.8834 -1.0565
32969SOL    HW1 2499   2.112   0.951   0.259 -0.9310 -1.1835  0.9653
32969SOL    HW2 2500   2.136   0.829   0.173  0.8464  0.6752 -1.2943
32970SOL     OW 2501   0.598   8.952   3.071 -0.3071  0.0141  0.5627
32970SOL    HW1 2502   0.650   8.873   3.061  0.3099  0.1150  2.5053
32970SOL    HW2 2503   0.571   8.975   2.982 -0.0279 -2.0330 -0.1059
32971SOL     OW 2504  10.298   9.086   3.374  0.1996 -0.3177  0.2077
32971SOL    HW1 2505  10.386   9.060   3.402  0.2245 -0.6140 -0.1265
32971SOL    HW2 2506  10.286   9.041   3.290  0.0340  0.3450 -0.1299
32972SOL     OW 2507   2.101   5.089   6.726 -0.5048 -0.4814  0.6505
32972SOL    HW1 2508   2.193   5.101   6.706 -1.0260  2.8726 -0.3983
32972SOL    HW2 2509   2.057   5.089   6.641 -1.5448 -1.3553  1.1605
32973SOL     OW 2510   2.165   0.624   6.399  0.3435  0.0352  0.0443
32973SOL    HW1 2511   2.230   0.691   6.418  1.3806 -1.4192  2.0947
32973SOL    HW2 2512   2.150   0.581   6.484 -0.3557 -2.2118 -1.1247
32974SOL     OW 2513   9.259   3.492   0.208  0.6559  0.4162 -0.1681
32974SOL    HW1 2514   9.291   3.418   0.157  0.5091  0.7267 -0.7123
32974SOL    HW2 2515   9.165   3.494   0.193  0.3492 -0.4833  1.4211
32975SOL     OW 2516   5.794   0.704   9.746 -0.4420 -0.2410 -0.0280
32975SOL    HW1 2517   5.758   0.618   9.725 -0.0857 -0.0595 -1.5484
32975SOL    HW2 2518   5.730   0.766   9.710 -0.8654  0.1542  1.3527
32976SOL     OW 2519   3.195   6.032   0.959 -0.1994  0.1219  0.0692
32976SOL    HW1 2520   3.254   6.077   0.898 -1.4350 -0.2723 -1.5160
32976SOL    HW2 2521   3.171   6.099   1.023  1.1353  0.5586  0.1433
32977SOL     OW 2522   6.564   4.039   6.615  0.2350  0.1578 -0.8255
32977SOL    HW1 2523   6.599   4.128   6.604  1.5209 -0.0685  0.8765
32977SOL    HW2 2524   6.571   4.023   6.709  0.5616 -1.9651 -1.1695
32978SOL     OW 2525   3.878   7.588   9.657 -0.2631  0.5141  0.0767
32978SOL    HW1 2526   3.971   7.576   9.643 -0.4336 -0.8449 -0.0121
32978SOL    HW2 2527   3.836   7.526   9.597 -1.2633  1.8783 -0.6911
32979SOL     OW 2528   4.785   9.357   7.925  0.3942 -0.4430  0.4019
32979SOL    HW1 2529   4.873   9.327   7.902  0.9691  1.3287  0.1722
32979SOL    HW2 2530   4.727   9.312   7.864  1.1633 -1.3610  0.3264
32980SOL     OW 2531   2.091   4.265   0.391 -0.1993  0.2239 -0.2908
32980SOL    HW1 2532   2.086   4.282   0.297 -0.0856 -1.9332 -0.7407
32980SOL    HW2 2533   2.016   4.207   0.409 -0.9370  1.5665  1.2086
32981SOL     OW 2534   2.332   2.934   5.050 -0.1070  0.1274  0.4672
32981SOL    HW1 2535   2.263   2.871   5.033  0.2203 -0.1422  0.1130
32981SOL    HW2 2536   2.365   2.912   5.137  0.2807 -0.4519  0.1761
32982SOL     OW 2537   2.550  10.726   3.094 -0.3089 -0.1726  0.0827
32982SOL    HW1 2538   2.597  10.715   3.177  1.5786 -1.6322 -1.0803
32982SOL    HW2 2539   2.523  10.637   3.069 -0.0792  0.1017 -1.2533
32983SOL     OW 2540   8.906  10.800   5.287  0.1234 -0.5685 -0.3189
32983SOL    HW1 2541   8.859  10.738   5.342 -1.1890  1.4692  0.9976
32983SOL    HW2 2542   8.839  10.842   5.234  0.6691  1.0486  0.2099
32984SOL     OW 2543   7.892   6.400  11.024 -0.3709 -0.2300  0.1810
32984SOL    HW1 2544   7.884   6.352  10.941 -1.0306  0.5625 -0.2355
32984SOL    HW2 2545   7.801   6.414  11.052 -0.2275 -3.3830  2.8246
32985SOL     OW 2546   9.873   9.027  10.082  0.4963 -0.6125  0.0851
32985SOL    HW1 2547   9.880   8.939  10.119  1.8744 -0.3189  0.5870
32985SOL    HW2 2548   9.835   9.013   9.995 -0.0928 -1.6027  0.4768
32986SOL     OW 2549   5.888   6.230   0.757  0.2074 -0.3790  0.3262
32986SOL    HW1 2550   5.958   6.253   0.819  0.0839  0.4947  0.1512
32986SOL    HW2 2551   5.818   6.196   0.812  0.9081 -1.6418  0.4713
32987SOL     OW 2552   7.111   2.049   5.960  0.0166 -0.4972  0.2904
32987SOL    HW1 2553   7.026   2.072   5.924  0.8148  3.2088  0.3169
32987SOL    HW2 2554   7.099   2.057   6.055  0.3386 -0.0329  0.2964
32988SOL     OW 2555   8.296  10.298   7.283  0.1240 -0.0129  0.4119
32988SOL    HW1 2556   8.210  10.319   7.247 -0.4941 -1.5109  0.9171
32988SOL    HW2 2557   8.356  10.360   7.241 -0.7157 -0.9310 -2.3857
32989SOL     OW 2558   5.474   1.751   5.407 -0.7681 -0.0872  0.1100
32989SOL    HW1 2559   5.408   1.793   5.462  0.3250 -1.0839  2.3264
32989SOL    HW2 2560   5.459   1.657   5.418  0.5171 -0.3211  0.0351
32990SOL     OW 2561   5.668   3.316   7.230  0.4920  0.6429 -0.2178
32990SOL    HW1 2562   5.731   3.310   7.303 -0.4566  0.1016  0.5720
32990SOL    HW2 2563   5.583   3.303   7.271 -0.0191 -0.3003 -1.5264
32991SOL     OW 2564   1.858   8.276   0.416 -0.2678  0.7739 -0.1979
32991SOL    HW1 2565   1.796   8.278   0.344 -0.9460 -2.5653  0.1714
32991SOL    HW2 2566   1.825   8.341   0.478 -2.8396 -0.1977 -0.4607
32992SOL     OW 2567   8.046   2.080   5.308  0.4049  0.2568  0.6863
32992SOL    HW1 2568   8.071   2.172   5.314 -3.0400  1.2670  1.7271
32992SOL    HW2 2569   8.081   2.040   5.388  0.0175  1.2397  1.3668
32993SOL     OW 2570   0.683   1.122   1.451  0.2552 -0.4437  0.3785
32993SOL    HW1 2571   0.750   1.073   1.498  0.3574 -0.5620  0.1104
32993SOL    HW2 2572   0.607   1.120   1.508 -0.9721 -3.9941 -1.1175
32994SOL     OW 2573   1.885   2.329   9.186 -0.5744  0.4965  0.0730
32994SOL    HW1 2574   1.921   2.326   9.274 -0.4836  0.5682  0.0387
32994SOL    HW2 2575   1.815   2.263   9.186  0.9160 -1.1637 -0.4587
32995SOL     OW 2576   7.974   8.179   8.634 -0.0719 -0.2126  0.1460
32995SOL    HW1 2577   7.978   8.275   8.633 -0.1497 -0.2117 -0.3335
32995SOL    HW2 2578   8.030   8.152   8.561 -0.7307 -0.5043 -0.2609
32996SOL     OW 2579   7.900   6.337   7.014  0.3376  0.0461  0.1026
32996SOL    HW1 2580   7.819   6.366   6.972  0.7418  0.5195 -0.3502
32996SOL    HW2 2581   7.899   6.242   7.004 -0.3562  0.0066  0.4568
32997SOL     OW 2582   2.944   3.635   9.490  0.5569 -0.0928 -1.2808
32997SOL    HW1 2583   3.001   3.568   9.527 -0.8850 -0.3100  0.7063
32997SOL    HW2 2584   2.973   3.717   9.530 -1.7342 -0.4771  1.4780
32998SOL     OW 2585   7.225   1.518   8.839  0.1486 -0.1616 -0.1894
32998SOL    HW1 2586   7.152   1.491   8.893 -2.0989  1.7230 -2.0538
32998SOL    HW2 2587   7.279   1.572   8.897 -1.0026  0.0280  0.7345
32999SOL     OW 2588   6.508   1.646   1.377  0.2223  0.1682  0.6095
32999SOL    HW1 2589   6.443   1.622   1.443 -0.0318  0.3316  0.4195
32999SOL    HW2 2590   6.458   1.692   1.310  0.1569 -1.6383 -0.6334
33000SOL     OW 2591   0.066   1.845   8.242 -0.7841  0.2406  0.3679
33000SOL    HW1 2592   0.104   1.898   8.312 -0.9272 -1.4970  1.8317
33000SOL    HW2 2593  -0.028   1.842   8.262 -1.3188  1.9558 -1.4881
33001SOL     OW 2594   2.541  10.600   7.001  0.5951 -0.1373  0.2346
33001SOL    HW1 2595   2.515  10.513   6.968 -1.3013  0.8714 -1.1273
33001SOL    HW2 2596   2.637  10.594   7.009  0.4710 -2.5168  0.7376
33002SOL     OW 2597   8.203   2.544  10.966 -0.3075 -0.5917  0.7234
33002SOL    HW1 2598   8.249   2.495  10.898 -1.3039 -0.2504 -0.2214
33002SOL    HW2 2599   8.161   2.616  10.920 -0.7174 -0.1422  1.7588
33003SOL     OW 2600   9.356   1.679  10.467  0.3712 -0.1569  0.4025
33003SOL    HW1 2601   9.356   1.630  10.385 -1.5795 -0.5115  0.5583
33003SOL    HW2 2602   9.362   1.612  10.535 -2.3657 -0.2923  0.6192
33004SOL     OW 2603   0.861   9.636   9.335  0.0998 -0.3892 -0.2306
33004SOL    HW1 2604   0.896   9.591   9.412  0.7562  0.4506 -0.0264
33004SOL    HW2 2605   0.829   9.720   9.368  1.0744  0.2940 -0.9809
33005SOL     OW 2606   2.877   8.345   0.619 -0.1623  0.0569  0.2192
33005SOL    HW1 2607   2.882   8.274   0.554  0.3211 -0.7662  1.1311
33005SOL    HW2 2608   2.860   8.300   0.702 -1.8349  1.1678  0.5316
33006SOL     OW 2609   0.086   0.054   2.962  0.2010  0.0334  0.4882
33006SOL    HW1 2610   0.044   0.129   2.922  0.0813  0.2157  0.9461
33006SOL    HW2 2611   0.111   0.085   3.049  0.6943 -0.2701  0.4575
33007SOL     OW 2612   9.968   8.759   3.037 -0.7779  0.3622  0.0089
33007SOL    HW1 2613  10.032   8.706   3.085 -0.6400 -0.0174 -0.5871
33007SOL    HW2 2614  10.003   8.764   2.948 -1.7039 -0.0766 -0.3920
33008SOL     OW 2615   5.459   3.787   0.888  0.1281  0.1197 -0.4603
33008SOL    HW1 2616   5.515   3.746   0.955  0.1754  1.2298  0.2101
33008SOL    HW2 2617   5.471   3.881   0.902 -1.0357  0.3729 -1.0490
33009SOL     OW 2618   2.262   5.931  10.470  0.1772 -0.8600  0.0599
33009SOL    HW1 2619   2.179   5.895  10.503 -0.3635  1.0683  0.9675
33009SOL    HW2 2620   2.281   5.880  10.392 -1.8335 -1.4172 -0.1306
33010SOL     OW 2621   3.782  10.009   7.048  0.3338  0.1905 -0.0967
33010SOL    HW1 2622   3.808  10.102   7.055 -0.1619  0.3883 -0.8171
33010SOL    HW2 2623   3.768   9.995   6.955 -1.9455  0.0337  0.2162
33011SOL     OW 2624   7.583   9.306   7.372  0.4547 -0.3567  0.1540
33011SOL    HW1 2625   7.651   9.290   7.438 -0.2921 -2.9457  0.4057
33011SOL    HW2 2626   7.629   9.297   7.288  0.8424  0.0338  0.3227
33012SOL     OW 2627   1.025   4.442  10.049  0.4981 -0.1087 -0.0847
33012SOL    HW1 2628   1.000   4.458   9.958  1.0240 -0.9319 -0.3874
33012SOL    HW2 2629   1.074   4.359  10.046 -0.2854 -0.6418  1.0837
33013SOL     OW 2630   0.013   3.021   8.974  0.4566 -0.6884  0.4226
33013SOL    HW1 2631  -0.037   3.000   9.053  1.1548  0.2565  1.1467
33013SOL    HW2 2632   0.100   3.043   9.007  1.0138 -1.1316 -0.7036
33014SOL     OW 2633   7.310   5.788   2.728  0.2406  0.1567 -0.7999
33014SOL    HW1 2634   7.251   5.837   2.671  2.1282  0.6408 -2.4404
33014SOL    HW2 2635   7.381   5.848   2.747  0.4403 -0.5370  0.8079
33015SOL     OW 2636   1.518   7.256   9.930  0.4244  0.5207  0.5694
33015SOL    HW1 2637   1.576   7.270   9.855  0.9252 -1.9044  0.4142
33015SOL    HW2 2638   1.566   7.196   9.987 -0.9205  0.4439  1.6875
33016SOL     OW 2639   4.007   7.997   2.584 -0.2781 -0.2014  0.2999
33016SOL    HW1 2640   3.945   7.941   2.631 -1.1604  0.1824 -0.3815
33016SOL    HW2 2641   4.082   8.005   2.644 -0.1897 -1.9640  0.4857
33017SOL     OW 2642   4.979   0.756   5.372 -0.6093 -0.0804 -0.1939
33017SOL    HW1 2643   4.965   0.804   5.290  0.8800  1.2341  0.2728
33017SOL    HW2 2644   4.930   0.804   5.437  0.3218  0.4444  0.1451
33018SOL     OW 2645   4.747   9.772   7.168  0.6385  0.0244 -0.0951
33018SOL    HW1 2646   4.708   9.685   7.176  2.1071 -0.8397 -1.7457
33018SOL    HW2 2647   4.744   9.792   7.075  0.7280  1.5622  0.2039
33019SOL     OW 2648   8.608  10.852   0.370  0.0496  0.2783 -0.5276
33019SOL    HW1 2649   8.601  10.843   0.465 -0.7944 -0.8612 -0.6848
33019SOL    HW2 2650   8.659  10.776   0.342  0.5905  0.7933 -0.9653
33020SOL     OW 2651   1.972   5.072   8.908  0.2141  0.6786 -0.3824
33020SOL    HW1 2652   1.912   5.122   8.964  0.3312  0.8616 -0.4194
33020SOL    HW2 2653   1.917   5.005   8.868 -0.0601  1.1216 -0.7633
33021SOL     OW 2654  10.218   4.183   2.586 -0.0454  0.0644  0.1058
33021SOL    HW1 2655  10.242   4.276   2.589  1.3410 -0.2952  0.6497
33021SOL    HW2 2656  10.126   4.182   2.615 -0.2228  1.2987 -0.3329
33022SOL     OW 2657   9.997   5.318   2.151  0.0580  0.2973 -0.4279
33022SOL    HW1 2658  10.053   5.359   2.217  0.7776 -0.4577 -0.5568
33022SOL    HW2 2659   9.942   5.390   2.119  0.3906  0.8809  0.2760
33023SOL     OW 2660   2.356   6.243  10.938  0.5333 -0.1045  0.3098
33023SOL    HW1 2661   2.297   6.298  10.886  0.1463  0.5901  1.4465
33023SOL    HW2 2662   2.299   6.197  10.999  0.6244 -3.1820 -1.7316
33024SOL     OW 2663   1.771   8.132  10.213  0.2709 -0.1619  0.4613
33024SOL    HW1 2664   1.816   8.188  10.151 -1.0344  2.3455  1.6324
33024SOL    HW2 2665   1.723   8.070  10.158  1.5957 -0.0650 -0.8888
33025SOL     OW 2666   1.349   5.247   5.148  0.5923 -0.3158 -0.3521
33025SOL    HW1 2667   1.277   5.263   5.209  0.2514 -1.8225 -0.3263
33025SOL    HW2 2668   1.314   5.184   5.085  1.7503 -0.7529 -0.5878
33026SOL     OW 2669   1.514   2.062   4.089  0.7196  0.1607  0.3457
33026SOL    HW1 2670   1.590   2.099   4.134  1.3050  0.1762 -0.6288
33026SOL    HW2 2671   1.455   2.034   4.159  1.4312  0.5514  1.1069
33027SOL     OW 2672   8.264   2.310   0.595 -0.5651  0.4506 -0.0578
33027SOL    HW1 2673   8.273   2.362   0.674  0.1367  0.5294 -0.1755
33027SOL    HW2 2674   8.170   2.298   0.583 -0.6615 -1.4925  2.0446
33028SOL     OW 2675   4.890   2.613   7.670 -0.0763 -0.4244 -0.2605
33028SOL    HW1 2676   4.932   2.617   7.756 -0.9077  1.3034  0.1046
33028SOL    HW2 2677   4.963   2.612   7.608  0.5223  0.3095  0.4141
33029SOL     OW 2678   3.641   8.146   0.349 -0.1840  0.2152  0.7133
33029SOL    HW1 2679   3.590   8.165   0.427  0.2600  3.4740  0.3178
33029SOL    HW2 2680   3.691   8.067   0.371 -1.2861  0.1089  3.0747
33030SOL     OW 2681  10.284   0.769   1.542  0.3622  0.2707 -0.0682
33030SOL    HW1 2682  10.319   0.839   1.487  2.7164 -0.2227  0.6876
33030SOL    HW2 2683  10.252   0.815   1.620 -1.1344  0.7761 -0.9456
33031SOL     OW 2684   5.628   1.950   8.825 -0.1835  0.0695 -0.1379
33031SOL    HW1 2685   5.690   1.889   8.785 -1.7979 -0.5325 -1.8549
33031SOL    HW2 2686   5.654   2.035   8.792  0.6303  0.0411  0.3842
33032SOL     OW 2687   9.198   6.439   5.653 -0.1007  0.4704  0.6963
33032SOL    HW1 2688   9.151   6.466   5.732  0.5769  0.7613  1.0010
33032SOL    HW2 2689   9.272   6.387   5.685 -1.4544 -1.9689  0.1317
33033SOL     OW 2690   9.392   2.372   3.855 -0.1407 -0.3112  0.1918
33033SOL    HW1 2691   9.425   2.311   3.789 -0.8587 -1.0592  0.5013
33033SOL    HW2 2692   9.454   2.365   3.927 -0.7139 -1.4002  0.6051
33034SOL     OW 2693   8.860   0.382   5.548  0.0014 -0.2063  0.4708
33034SOL    HW1 2694   8.950   0.358   5.531 -0.3486 -2.0518  0.9686
33034SOL    HW2 2695   8.865   0.449   5.616  1.0082  0.3293 -0.1242
33035SOL     OW 2696  11.006   2.587   2.787 -0.2282 -0.6368  0.3231
33035SOL    HW1 2697  11.028   2.592   2.880  0.6817 -1.5991  0.1849
33035SOL    HW2 2698  10.987   2.494   2.772 -0.0273 -0.5514 -0.5135
33036SOL     OW 2699   3.136   1.013  10.210  0.3545 -0.2239  0.1078
33036SOL    HW1 2700   3.108   0.932  10.253 -0.0700 -0.6062 -0.8595
33036SOL    HW2 2701   3.231   1.004  10.203  0.2102 -1.2233 -1.0718
33037SOL     OW 2702   7.513   3.144   1.478  0.0066 -0.2767 -0.0668
33037SOL    HW1 2703   7.600   3.164   1.512 -0.7195  0.8017  1.2609
33037SOL    HW2 2704   7.524   3.146   1.383  1.3268  0.3499  0.0687
33038SOL     OW 2705   8.763   5.967   3.195  0.0851  0.6587  0.4822
33038SOL    HW1 2706   8.835   6.028   3.182  0.8825 -0.2326  0.5950
33038SOL    HW2 2707   8.797   5.883   3.164 -1.3721  0.4844 -0.7416
33039SOL     OW 2708   7.923   0.998   3.311 -0.1093 -0.3265  0.4951
33039SOL    HW1 2709   7.973   1.079   3.314 -1.3576  0.6502 -2.0162
33039SOL    HW2 2710   7.941   0.962   3.224 -0.3622 -2.2461  1.1885
33040SOL     OW 2711   6.085  10.701   2.045  0.9271 -0.3627 -0.0681
33040SOL    HW1 2712   6.149  10.635   2.070 -0.2955 -1.8875 -0.8663
33040SOL    HW2 2713   6.000  10.659   2.056  0.0710  1.2436 -0.1195
33041SOL     OW 2714   4.624   7.515   1.226 -0.6324  0.4692 -0.4853
33041SOL    HW1 2715   4.670   7.591   1.192 -2.0774  0.7683 -1.8961
33041SOL    HW2 2716   4.550   7.552   1.275  0.2177 -0.0056  1.2289
33042SOL     OW 2717   8.373   9.872   7.737 -0.0534  0.4207 -0.7782
33042SOL    HW1 2718   8.416   9.828   7.664  0.8230  0.4691 -0.3000
33042SOL    HW2 2719   8.285   9.891   7.704  0.9161  2.2396 -2.5550
33043SOL     OW 2720   9.451   9.483   1.072  0.0002  0.0860  0.3607
33043SOL    HW1 2721   9.400   9.436   1.138  0.1328  0.1068  0.4786
33043SOL    HW2 2722   9.451   9.574   1.103 -0.8672  0.2983 -0.2443
33044SOL     OW 2723   8.235   5.925   8.440 -0.2546 -0.7654  0.3560
33044SOL    HW1 2724   8.198   5.954   8.523  1.6508  0.6850  0.7640
33044SOL    HW2 2725   8.159   5.912   8.383 -1.4735  0.4733  1.6253
33045SOL     OW 2726   6.452   7.007   6.903  0.1237 -0.0230  0.4881
33045SOL    HW1 2727   6.497   7.003   6.987 -0.1916 -1.0386  0.6324
33045SOL    HW2 2728   6.447   7.100   6.882 -2.2699  0.5683  2.9772
33046SOL     OW 2729   4.274   8.833   7.557  0.6191 -0.3957  0.7880
33046SOL    HW1 2730   4.238   8.918   7.530 -0.3667 -1.0092  0.1210
33046SOL    HW2 2731   4.350   8.856   7.610  0.9257  0.9009 -0.1508
33047SOL     OW 2732   7.589   1.366   8.962  0.9114  0.4248  0.0296
33047SOL    HW1 2733   7.554   1.330   9.043  0.7857 -0.4065 -0.3909
33047SOL    HW2 2734   7.680   1.390   8.983  0.6745  0.8371  0.5927
33048SOL     OW 2735   5.901   1.146   9.995  0.0687 -0.3253 -0.3075
33048SOL    HW1 2736   5.877   1.078   9.932  1.8531 -0.9714 -0.3586
33048SOL    HW2 2737   5.988   1.175   9.966  0.2669  0.4323  0.9848
33049SOL     OW 2738   3.037   9.318   5.150  0.0032 -0.3193 -0.2942
33049SOL    HW1 2739   2.992   9.238   5.175  0.2271 -0.6456 -0.9155
33049SOL    HW2 2740   3.123   9.312   5.192 -0.0541 -0.3115 -0.1771
33050SOL     OW 2741   4.957   8.421   6.957  0.0986 -0.2242 -0.0731
33050SOL    HW1 2742   4.884   8.449   7.013 -0.3606  0.8847 -1.1801
33050SOL    HW2 2743   5.007   8.360   7.012 -1.4576 -0.7533  0.8370
33051SOL     OW 2744   5.615   1.305   5.782  0.1265 -0.0003  0.0116
33051SOL    HW1 2745   5.532   1.350   5.798  1.0652  2.0406 -0.5264
33051SOL    HW2 2746   5.590   1.220   5.747 -1.7462  0.5493 -0.0857
33052SOL     OW 2747   5.893   9.686  10.945 -0.5829  0.3372  0.3655
33052SOL    HW1 2748   5.958   9.683  11.016  1.0090 -0.8745 -1.0597
33052SOL    HW2 2749   5.812   9.653  10.986  1.0802 -3.5413  0.9692
33053SOL     OW 2750   6.549   2.039   7.925 -0.6842  0.2144  0.3726
33053SOL    HW1 2751   6.631   2.085   7.943 -1.5705  1.1221  2.3210
33053SOL    HW2 2752   6.491   2.106   7.890 -1.0560 -0.1136  0.3507
33054SOL     OW 2753   9.664   3.914   5.507 -0.2565  0.2420  0.1228
33054SOL    HW1 2754   9.680   3.858   5.582  0.4748 -0.2283 -0.3667
33054SOL    HW2 2755   9.600   3.867   5.454  1.9678 -1.2936 -1.4135
33055SOL     OW 2756   0.964   8.380   7.098  0.0338 -0.4694 -0.4651
33055SOL    HW1 2757   0.910   8.407   7.173  0.0575 -0.1264 -0.5736
33055SOL    HW2 2758   1.006   8.299   7.128  0.3422 -0.1351  0.0327
33056SOL     OW 2759  10.790   9.298   6.133  0.0382  0.0661  0.0327
33056SOL    HW1 2760  10.846   9.289   6.056  0.6895  0.9506  0.3919
33056SOL    HW2 2761  10.702   9.280   6.100  0.1052  1.8506 -1.2554
33057SOL     OW 2762   4.579   0.870   2.244  0.3054  0.6334 -0.6701
33057SOL    HW1 2763   4.664   0.852   2.204 -0.2962 -1.8357 -1.0341
33057SOL    HW2 2764   4.520   0.804   2.206 -1.3439  1.0980  0.9137
33058SOL     OW 2765   8.012   7.146  10.305  0.6253  0.1080 -0.4720
33058SOL    HW1 2766   8.046   7.061  10.277  1.0789 -0.1679  0.8729
33058SOL    HW2 2767   7.921   7.128  10.329  0.9948 -0.2205  0.7396
33059SOL     OW 2768   7.879   5.369   9.037  0.5463  0.1064  0.0721
33059SOL    HW1 2769   7.812   5.420   8.992 -0.5909  0.1383  1.7270
33059SOL    HW2 2770   7.876   5.283   8.995 -0.1603  0.2648 -0.2143
33060SOL     OW 2771  10.798   1.574   3.488  0.7442  0.3329 -0.2334
33060SOL    HW1 2772  10.752   1.502   3.444  2.0809  0.6609 -2.3289
33060SOL    HW2 2773  10.766   1.571   3.578 -1.2283 -1.1905 -0.8902
33061SOL     OW 2774   6.823   1.667   5.402 -0.1023 -0.0029 -0.6646
33061SOL    HW1 2775   6.856   1.646   5.490 -1.4366  0.6259  0.0115
33061SOL    HW2 2776   6.889   1.630   5.343  1.0241 -0.0973  0.5951
33062SOL     OW 2777   2.058   2.875  10.826  0.0429 -0.4001  0.0504
33062SOL    HW1 2778   2.109   2.850  10.749 -0.1027  0.9332 -0.4918
33062SOL    HW2 2779   1.986   2.928  10.791 -0.4280 -0.3640  1.0417
33063SOL     OW 2780   0.571   1.102   1.721  0.6868 -0.1672  0.0127
33063SOL    HW1 2781   0.629   1.043   1.768 -0.1917 -1.3227 -0.3169
33063SOL    HW2 2782   0.483   1.067   1.735  0.1132  1.1679 -0.0370
33064SOL     OW 2783   4.971   6.818   8.446 -0.3568 -0.0607  0.4950
33064SOL    HW1 2784   5.018   6.804   8.364 -2.1814  0.2806 -0.6862
33064SOL    HW2 2785   4.925   6.736   8.462  0.1260 -0.1873  1.3065
33065SOL     OW 2786   9.788   3.402   1.816 -0.2690  0.5803 -0.1344
33065SOL    HW1 2787   9.832   3.443   1.890  0.5842 -0.2891 -0.1321
33065SOL    HW2 2788   9.839   3.322   1.799  0.4873  1.4947 -2.5966
33066SOL     OW 2789   8.554   0.639   4.647 -0.1732  0.7664  0.1536
33066SOL    HW1 2790   8.625   0.593   4.603 -1.3345 -0.6975 -0.2660
33066SOL    HW2 2791   8.529   0.582   4.720 -1.9505  0.4474 -0.6544
33067SOL     OW 2792   3.066   0.013   9.424 -0.1271  0.1514 -0.4048
33067SOL    HW1 2793   3.093   0.015   9.516 -1.7527 -1.1650  0.1539
33067SOL    HW2 2794   2.999  -0.056   9.420  0.0230  0.0684 -2.6159
33068SOL     OW 2795   5.995   3.289   9.042  0.3966  0.0501  0.4140
33068SOL    HW1 2796   5.983   3.345   8.966 -1.2079 -0.5015  0.2157
33068SOL    HW2 2797   5.980   3.347   9.117  0.2489  0.2292  0.2490
33069SOL     OW 2798   4.764   1.644   9.850 -0.5171 -0.2575  0.0452
33069SOL    HW1 2799   4.750   1.641   9.755  0.5396  0.0930 -0.1340
33069SOL    HW2 2800   4.827   1.574   9.867 -0.0282  0.2498  0.3540
33070SOL     OW 2801   7.791  10.396   5.695  0.2887  0.3089  0.0032
33070SOL    HW1 2802   7.746  10.449   5.630 -0.3084  1.3354  1.2239
33070SOL    HW2 2803   7.884  10.411   5.678  0.1328  1.6808  0.2533
33071SOL     OW 2804   1.836   6.582   0.174  0.5707 -0.1445  0.0149
33071SOL    HW1 2805   1.833   6.677   0.181 -1.4792 -0.1524 -0.2316
33071SOL    HW2 2806   1.798   6.550   0.256 -1.2785 -0.6568 -0.9755
33072SOL     OW 2807   5.334   1.296   2.092  0.0954 -0.2039  0.0372
33072SOL    HW1 2808   5.388   1.243   2.034 -0.2586 -1.6616  0.9818
33072SOL    HW2 2809   5.279   1.347   2.033 -0.2983 -1.6945 -0.9410
33073SOL     OW 2810   9.647   4.598   3.152  0.4777 -0.0570 -0.5781
33073SOL    HW1 2811   9.576   4.552   3.195 -0.1568  1.1677 -0.2815
33073SOL    HW2 2812   9.606   4.644   3.079  1.0033  0.4720 -0.5489
33074SOL     OW 2813   3.053  10.214  10.650 -0.4358  0.0810  0.5012
33074SOL    HW1 2814   2.996  10.183  10.579  0.7599 -1.8664  0.3226
33074SOL    HW2 2815   3.078  10.303  10.623  0.0650 -0.6287 -1.6231
33075SOL     OW 2816  10.623   6.732   5.975 -0.0686  0.0584  0.2218
33075SOL    HW1 2817  10.640   6.649   6.019  0.0199  0.3367  0.7246
33075SOL    HW2 2818  10.612   6.709   5.883  0.2474 -0.4740  0.3135
33076SOL     OW 2819   7.201   1.570   1.607 -1.0593  0.2732  0.7929
33076SOL    HW1 2820   7.136   1.602   1.545 -0.6802 -1.5642 -0.6506
33076SOL    HW2 2821   7.160   1.580   1.693 -2.3459  1.1514  0.1013
33077SOL     OW 2822   4.337   6.426   0.930 -0.3004 -0.2594  0.0720
33077SOL    HW1 2823   4.386   6.460   1.005 -0.8718 -0.3022  0.4764
33077SOL    HW2 2824   4.403   6.401   0.866  0.2593  4.4360 -1.5719
33078SOL     OW 2825   0.237   5.975   5.713  0.0759  0.5695 -0.2597
33078SOL    HW1 2826   0.249   6.060   5.671 -1.1816  1.5710  1.2512
33078SOL    HW2 2827   0.151   5.945   5.683 -0.5393  0.9875  0.9931
33079SOL     OW 2828   8.444   0.000  10.747  0.1065 -0.0255 -0.5032
33079SOL    HW1 2829   8.393  -0.051  10.809 -0.8752  0.2453 -1.0719
33079SOL    HW2 2830   8.527   0.017  10.792 -0.0698 -0.9725  0.1977
33080SOL     OW 2831   6.580   9.419  10.346  0.1059  0.1396  0.7596
33080SOL    HW1 2832   6.504   9.477  10.335 -0.2518 -0.2588  1.0849
33080SOL    HW2 2833   6.655   9.475  10.328 -0.2790  0.4452  0.0406
33081SOL     OW 2834   9.824   4.721   6.925  0.1243  0.0486  0.8360
33081SOL    HW1 2835   9.755   4.655   6.938 -0.2481  0.5249  1.3016
33081SOL    HW2 2836   9.776   4.803   6.909  0.5875  0.3263  0.8651
33082SOL     OW 2837   2.530   0.213   3.483  0.2973 -0.3847  0.0201
33082SOL    HW1 2838   2.459   0.276   3.468  0.0090 -0.6976  0.0478
33082SOL    HW2 2839   2.500   0.160   3.557 -1.1623 -2.9017 -2.1503
33083SOL     OW 2840   5.319   2.415   1.002  0.4567 -0.5855 -0.2079
33083SOL    HW1 2841   5.268   2.462   0.936 -0.5689 -0.8820  0.3602
33083SOL    HW2 2842   5.381   2.362   0.951  0.6916  0.3052 -0.8877
33084SOL     OW 2843   8.383   4.418   3.799  0.3494  0.2123 -0.6308
33084SOL    HW1 2844   8.374   4.322   3.796 -1.0998  0.2556  0.8362
33084SOL    HW2 2845   8.420   4.441   3.714  1.1769 -1.6880 -0.8448
33085SOL     OW 2846   8.084   5.504   1.526  0.0378  0.4271  0.2368
33085SOL    HW1 2847   8.047   5.563   1.460  0.7288 -0.3593 -0.8995
33085SOL    HW2 2848   8.072   5.417   1.488  1.6978  0.0538  0.5287
33086SOL     OW 2849   8.396  10.957   9.011  0.5753 -0.4586  0.3502
33086SOL    HW1 2850   8.484  10.920   9.018  0.3540 -1.7591 -2.2687
33086SOL    HW2 2851   8.403  11.021   8.940 -0.5729 -0.5502  0.1337
33087SOL     OW 2852   7.062   2.111   0.864  0.3280  0.0095  0.0950
33087SOL    HW1 2853   7.020   2.149   0.787 -0.8425 -0.7077  0.3515
33087SOL    HW2 2854   7.028   2.162   0.937 -0.2862 -0.7308  0.3279
33088SOL     OW 2855   9.339   4.291   7.009 -0.5113  0.1867 -0.1553
33088SOL    HW1 2856   9.433   4.275   7.001 -0.3943 -1.1396  2.6192
33088SOL    HW2 2857   9.329   4.384   6.989  1.3705  0.3280 -0.6427
33089SOL     OW 2858   8.617   4.751  10.719  0.1063  0.9869  0.5140
33089SOL    HW1 2859   8.701   4.763  10.675  0.0989 -1.2726 -0.2601
33089SOL    HW2 2860   8.555   4.806  10.670  0.5687  0.3504 -0.8003
33090SOL     OW 2861   6.155   9.257   9.147 -0.5793 -0.1797  0.0935
33090SOL    HW1 2862   6.118   9.175   9.181 -1.7240 -0.8186 -2.4311
33090SOL    HW2 2863   6.248   9.239   9.139 -1.0086 -1.9664 -2.0147
33091SOL     OW 2864   1.600   7.535   3.886  0.1206  0.0684  0.1652
33091SOL    HW1 2865   1.650   7.549   3.966 -0.2892  1.1398  0.2500
33091SOL    HW2 2866   1.632   7.603   3.826  2.8174 -2.6298 -1.8151
33092SOL     OW 2867   3.924   8.121   9.972 -0.1013 -0.1201  0.2162
33092SOL    HW1 2868   4.002   8.079  10.009  0.3513  0.5094 -0.0028
33092SOL    HW2 2869   3.866   8.133  10.047 -0.0648 -0.7566  0.3514
33093SOL     OW 2870   6.671   0.790   3.053 -0.1541  0.4809 -0.2778
33093SOL    HW1 2871   6.715   0.852   3.111 -0.7414  0.8397 -0.2059
33093SOL    HW2 2872   6.685   0.825   2.965  1.3082 -0.4188 -0.4331
33094SOL     OW 2873  10.117   3.256   8.905  0.6146  0.0200 -0.1676
33094SOL    HW1 2874  10.149   3.185   8.849 -1.2096 -0.3710 -0.7741
33094SOL    HW2 2875  10.023   3.259   8.890 -0.2609 -0.9724  3.8299
33095SOL     OW 2876   9.144   0.039   4.027  0.1399 -0.0368  0.5593
33095SOL    HW1 2877   9.059   0.046   4.071  0.0183  0.5389  0.2377
33095SOL    HW2 2878   9.128  -0.016   3.951  0.4628 -1.4873  1.4847
33096SOL     OW 2879   2.474   3.982   8.292 -0.5254  0.0078  0.4454
33096SOL    HW1 2880   2.541   3.955   8.229  0.9729  0.9975  1.5478
33096SOL    HW2 2881   2.483   3.919   8.364 -0.1899  0.6444  0.9666
33097SOL     OW 2882   3.605   4.597   9.306 -0.2203 -0.4600  0.5527
33097SOL    HW1 2883   3.697   4.605   9.328  0.0131 -1.2383 -0.0717
33097SOL    HW2 2884   3.604   4.585   9.211 -1.1861  2.6947  0.0763
33098SOL     OW 2885   3.589   3.330   4.344  0.0684  0.3674  0.3879
33098SOL    HW1 2886   3.626   3.281   4.417  0.8949 -1.6976 -1.3108
33098SOL    HW2 2887   3.550   3.264   4.288  0.1985  1.7675 -1.4689
33099SOL     OW 2888   7.021  10.710   5.455  0.1841  0.3829  0.1111
33099SOL    HW1 2889   6.939  10.731   5.500  1.1428  0.7857  1.7270
33099SOL    HW2 2890   7.011  10.749   5.368 -1.1771  0.7642  0.4130
33100SOL     OW 2891   4.342   8.212   6.368  0.5960  0.1048 -0.2967
33100SOL    HW1 2892   4.358   8.222   6.462 -1.9195 -2.2525  0.5407
33100SOL    HW2 2893   4.297   8.292   6.343  1.0557  0.6501  0.5582
33101SOL     OW 2894   6.131   2.207   8.053 -0.2471 -0.1825  0.0824
33101SOL    HW1 2895   6.051   2.258   8.040  0.7965  1.9293  1.4265
33101SOL    HW2 2896   6.122   2.172   8.141 -0.0038 -0.5458 -0.0364
33102SOL     OW 2897   3.734   0.314   6.425  0.0493 -0.2889 -0.1273
33102SOL    HW1 2898   3.809   0.372   6.410  0.0732 -0.5367 -1.0678
33102SOL    HW2 2899   3.741   0.287   6.516  1.5484 -0.9225 -0.4039
33103SOL     OW 2900   8.195   2.027   5.507 -0.0713  0.0486 -0.2480
33103SOL    HW1 2901   8.198   2.027   5.603  0.1757  0.4955 -0.2552
33103SOL    HW2 2902   8.248   2.102   5.481  0.8799 -0.7664 -0.7574
33104SOL     OW 2903   0.898   5.462   5.919 -0.2946  0.0211 -0.0770
33104SOL    HW1 2904   0.979   5.423   5.950  0.1880  0.5831 -0.5925
33104SOL    HW2 2905   0.829   5.405   5.952  0.2110  0.3608  1.6208
33105SOL     OW 2906   4.508   6.762   4.351 -0.4370  0.1998  0.3102
33105SOL    HW1 2907   4.488   6.684   4.404 -1.4296  0.0615 -0.2358
33105SOL    HW2 2908   4.518   6.728   4.262  1.9598  0.3330  0.4807
33106SOL     OW 2909   7.257   0.362   0.424 -0.1981  0.0375 -0.2916
33106SOL    HW1 2910   7.217   0.408   0.497 -0.0322  0.4254 -0.4443
33106SOL    HW2 2911   7.204   0.282   0.414 -0.1058 -0.1137  0.3686
33107SOL     OW 2912   9.171   0.123   2.175  0.2639  0.3071 -0.6190
33107SOL    HW1 2913   9.083   0.159   2.165  0.8692  1.5047 -2.0196
33107SOL    HW2 2914   9.159   0.043   2.226 -1.7367  0.0244 -1.4454
33108SOL     OW 2915  11.007   3.446   4.412  0.4493  0.4460 -0.0262
33108SOL    HW1 2916  11.049   3.464   4.328 -2.0385  1.5056 -1.1216
33108SOL    HW2 2917  10.917   3.424   4.390 -0.3293  0.9318  2.3826
33109SOL     OW 2918   3.524  10.609   1.299  0.1836 -0.0105 -0.4652
33109SOL    HW1 2919   3.514  10.520   1.334  1.7982 -0.0984 -0.1379
33109SOL    HW2 2920   3.465  10.611   1.224 -0.6493 -1.0149  0.1255
33110SOL     OW 2921   0.952   1.709   8.292 -0.2805 -0.0794  0.8661
33110SOL    HW1 2922   0.856   1.718   8.290 -0.4895 -1.7504 -2.1169
33110SOL    HW2 2923   0.967   1.622   8.328  0.0856 -0.1925  0.4386
33111SOL     OW 2924   1.357   9.998   8.144 -0.9870 -0.2161 -0.2086
33111SOL    HW1 2925   1.344  10.092   8.160 -3.5676 -0.8112  1.9214
33111SOL    HW2 2926   1.433   9.975   8.196 -0.6249  0.5882 -0.3628
33112SOL     OW 2927   2.225   0.470   6.196 -0.1457  0.2270 -0.2609
33112SOL    HW1 2928   2.309   0.432   6.222 -0.1893 -0.4889 -1.1237
33112SOL    HW2 2929   2.183   0.494   6.279  0.3498 -0.6157  0.2477
33113SOL     OW 2930   4.542   4.824   5.092 -0.3867 -0.0020  0.0220
33113SOL    HW1 2931   4.512   4.890   5.030 -1.3692 -0.3626  0.1034
33113SOL    HW2 2932   4.631   4.852   5.115 -0.8947  1.4823  0.3060
33114SOL     OW 2933  11.079  10.417   6.057  1.0658 -0.3668 -0.1981
33114SOL    HW1 2934  11.101  10.400   6.148  0.3757  0.3079  0.1069
33114SOL    HW2 2935  11.023  10.495   6.060  2.8472  1.0309 -1.3865
33115SOL     OW 2936   8.645   9.334   9.321  0.1547  0.5712 -0.9093
33115SOL    HW1 2937   8.696   9.285   9.386 -1.4447  0.0297 -0.0166
33115SOL    HW2 2938   8.655   9.284   9.240 -1.0776 -1.0447 -0.1192
33116SOL     OW 2939   9.372   6.012   3.488 -0.2142 -0.8575  0.5159
33116SOL    HW1 2940   9.411   5.952   3.552 -0.7773  0.3627  2.0566
33116SOL    HW2 2941   9.435   6.083   3.480 -1.8555  1.0407  2.8909
33117SOL     OW 2942   7.303  11.091   5.785 -0.0790 -0.0761 -0.0880
33117SOL    HW1 2943   7.276  11.063   5.872 -0.5042  0.7152  0.0377
33117SOL    HW2 2944   7.340  11.178   5.798 -1.6062  0.7288 -0.9159
33118SOL     OW 2945   9.050   1.884   8.911  0.3509 -0.5834  1.0468
33118SOL    HW1 2946   9.087   1.940   8.979  1.2792  1.1164 -0.7288
33118SOL    HW2 2947   9.124   1.865   8.853 -0.1684 -2.8915  1.0392
33119SOL     OW 2948   1.783   1.083   4.410 -0.6606 -0.7732 -0.8689
33119SOL    HW1 2949   1.776   0.989   4.425 -1.6946 -0.6417 -0.4502
33119SOL    HW2 2950   1.769   1.094   4.316 -3.4182 -0.8273 -0.5531
33120SOL     OW 2951   5.922   5.021  10.208 -0.1183 -0.3017  0.5816
33120SOL    HW1 2952   5.850   5.060  10.158  1.1362 -0.3400 -1.3869
33120SOL    HW2 2953   5.890   5.015  10.298 -2.0749  0.8583  0.0011
33121SOL     OW 2954   5.646   2.054   3.991  0.1598 -0.3532 -0.5716
33121SOL    HW1 2955   5.555   2.068   4.020  0.4951 -0.0843  0.3974
33121SOL    HW2 2956   5.683   1.995   4.057  0.7687 -0.2321 -0.8020
33122SOL     OW 2957   8.578   1.524   4.443  0.1000  0.6478  0.1007
33122SOL    HW1 2958   8.669   1.504   4.419 -0.4503  0.3970 -1.9401
33122SOL    HW2 2959   8.557   1.603   4.393 -0.9595  0.4219  0.1725
33123SOL     OW 2960   2.695   8.333   7.348 -0.4980 -0.0841 -0.0624
33123SOL    HW1 2961   2.604   8.345   7.321  0.0316 -1.2133 -2.5756
33123SOL    HW2 2962   2.733   8.421   7.345 -0.9867  0.0981 -1.0587
33124SOL     OW 2963   1.116   6.816   9.845  0.0102  0.2006  0.0527
33124SOL    HW1 2964   1.166   6.826   9.764 -2.1978 -0.2458 -1.4493
33124SOL    HW2 2965   1.183   6.805   9.913  1.9380  0.1976 -1.7365
33125SOL     OW 2966   4.348   0.437   7.244  0.4022  0.1905  0.2719
33125SOL    HW1 2967   4.317   0.391   7.323 -2.0227  1.1160 -0.0596
33125SOL    HW2 2968   4.310   0.387   7.172 -0.5996  1.5009 -0.1470
33126SOL     OW 2969   5.160  10.391   4.798 -0.0418  0.1554 -0.9060
33126SOL    HW1 2970   5.114  10.446   4.734 -1.6567 -0.4160 -0.3026
33126SOL    HW2 2971   5.243  10.369   4.756 -0.8849  0.1090 -2.6432
33127SOL     OW 2972   7.612   7.151   8.137 -0.2653 -0.5385 -0.1086
33127SOL    HW1 2973   7.660   7.077   8.100  1.0086  0.8855 -1.4610
33127SOL    HW2 2974   7.674   7.194   8.195 -0.3858  0.4786 -0.7200
33128SOL     OW 2975   6.071   1.891  10.132  0.8094 -0.4623 -0.1759
33128SOL    HW1 2976   5.975   1.892  10.123  0.8104  0.1281 -0.1651
33128SOL    HW2 2977   6.103   1.909  10.044  0.9119 -0.8155 -0.2090
33129SOL     OW 2978   4.500  11.110  10.890 -0.0331 -0.4728 -0.2501
33129SOL    HW1 2979   4.561  11.119  10.817 -0.4162 -0.5317 -0.5857
33129SOL    HW2 2980   4.426  11.062  10.853 -0.5763  0.1809 -0.0355
33130SOL     OW 2981   1.133  10.618   5.126 -0.3881 -0.8047  0.0800
33130SOL    HW1 2982   1.055  10.639   5.178  0.3014 -0.3969  0.9532
33130SOL    HW2 2983   1.117  10.661   5.042 -0.5559  0.3268  0.6720
33131SOL     OW 2984   4.939   9.617   4.398  0.3278  0.6711  0.4872
33131SOL    HW1 2985   4.969   9.550   4.337  1.7373  0.6074  1.2155
33131SOL    HW2 2986   4.893   9.568   4.466 -0.1288  0.6252  0.1554
33132SOL     OW 2987   9.914   3.909   5.378 -0.3800  0.1769 -0.5093
33132SOL    HW1 2988   9.828   3.936   5.410  0.3287  0.3429  1.3717
33132SOL    HW2 2989   9.958   3.991   5.357  0.1608  0.2673  0.8761
33133SOL     OW 2990   8.262   8.960   8.104  0.1748  0.1574  0.4303
33133SOL    HW1 2991   8.210   9.040   8.100  1.0257  0.8759  2.4522
33133SOL    HW2 2992   8.352   8.990   8.115  0.9817 -1.0778 -1.8943
33134SOL     OW 2993  10.374   4.948   3.297  0.0392  0.1773  0.0829
33134SOL    HW1 2994  10.372   4.881   3.365  0.3552  0.1361  0.0505
33134SOL    HW2 2995  10.345   4.903   3.218 -0.9931  0.3849  0.3256
33135SOL     OW 2996   4.422   9.610   2.475 -0.4573 -0.5045  0.2613
33135SOL    HW1 2997   4.496   9.670   2.463 -0.6336 -0.5307 -1.1852
33135SOL    HW2 2998   4.361   9.634   2.405 -1.3374 -1.1910  0.7816
33136SOL     OW 2999   2.278  10.211   3.997 -0.3242 -0.3678  0.2063
33136SOL    HW1 3000   2.215  10.154   4.042 -1.7005  1.1909  0.3393
33136SOL    HW2 3001   2.319  10.262   4.067  0.4430 -0.7245  0.0277
33137SOL     OW 3002   9.336   5.152   7.494 -0.3921  0.8433  0.2763
33137SOL    HW1 3003   9.333   5.248   7.497  2.4053  1.0380 -0.1816
33137SOL    HW2 3004   9.382   5.132   7.412  0.0981 -0.8351  0.9217
33138SOL     OW 3005   3.608   0.125   7.785  0.3549 -0.5283  0.5052
33138SOL    HW1 3006   3.610   0.157   7.695  1.6486  0.0395  0.7215
33138SOL    HW2 3007   3.606   0.029   7.776  0.3567 -0.4719 -0.1251
33139SOL     OW 3008   4.287   7.960   3.015 -0.0809 -0.4753  0.1370
33139SOL    HW1 3009   4.263   8.039   2.968  0.0095 -0.7218 -0.3245
33139SOL    HW2 3010   4.286   7.986   3.108 -1.7946 -0.3851  0.1193
33140SOL     OW 3011   2.570   8.424   2.884  0.0984 -0.2103 -1.1478
33140SOL    HW1 3012   2.568   8.479   2.806  0.3995  0.9361 -0.3793
33140SOL    HW2 3013   2.523   8.475   2.950  2.5797  0.3471  0.3281
33141SOL     OW 3014   9.356   7.974   4.842 -0.8191 -0.7199  0.6153
33141SOL    HW1 3015   9.342   8.030   4.765  1.6267 -0.3592  0.3447
33141SOL    HW2 3016   9.275   7.924   4.851 -2.2040  1.1807 -0.5520
33142SOL     OW 3017   6.329   7.308   8.556  0.0939  0.1899 -0.3940
33142SOL    HW1 3018   6.267   7.254   8.506 -1.7330  1.1167  0.7571
33142SOL    HW2 3019   6.338   7.262   8.640  0.5180  0.3663 -0.3429
33143SOL     OW 3020   6.845   6.816   9.416  0.7870  0.3315 -0.2358
33143SOL    HW1 3021   6.794   6.752   9.367  0.7296  0.2064 -0.0145
33143SOL    HW2 3022   6.794   6.897   9.410  0.1503  0.0145  0.6485
33144SOL     OW 3023   5.522   6.021   8.318 -0.3992 -0.1971 -0.1740
33144SOL    HW1 3024   5.506   6.070   8.399  0.0397 -1.7820  0.9113
33144SOL    HW2 3025   5.519   5.929   8.344  2.5372 -0.7396 -1.3791
33145SOL     OW 3026   4.597   4.366   7.560 -0.0399  0.1592  0.3766
33145SOL    HW1 3027   4.556   4.449   7.534 -1.5524 -0.8013 -0.4354
33145SOL    HW2 3028   4.592   4.366   7.656  1.0270  1.4961  0.4610
33146SOL     OW 3029   1.884   5.681   9.018 -0.3485 -0.4547 -0.4845
33146SOL    HW1 3030   1.971   5.660   9.054 -0.0447  0.6511 -0.5140
33146SOL    HW2 3031   1.863   5.607   8.961  1.8607  0.4971 -2.7476
33147SOL     OW 3032   7.008  10.587   3.865 -0.1279 -0.1856 -0.9796
33147SOL    HW1 3033   7.036  10.678   3.852 -0.0068 -0.0938 -0.1597
33147SOL    HW2 3034   6.922  10.581   3.825 -0.5817  0.5768 -0.1562
33148SOL     OW 3035  10.197   8.083   6.897 -0.0482 -0.2961 -0.6053
33148SOL    HW1 3036  10.167   8.112   6.811  0.0904  0.6734 -0.3294
33148SOL    HW2 3037  10.291   8.074   6.888 -0.1349 -1.0950 -0.8080
33149SOL     OW 3038   4.227   7.380   2.389  0.2012 -0.1985 -0.0226
33149SOL    HW1 3039   4.245   7.469   2.418  0.0881  0.0905 -0.7950
33149SOL    HW2 3040   4.172   7.343   2.457 -0.1983  0.5130  0.0529
33150SOL     OW 3041   7.039   0.279   0.093  0.5996  0.0551  0.2876
33150SOL    HW1 3042   7.026   0.259   0.186 -0.5412 -2.2763 -0.3013
33150SOL    HW2 3043   7.018   0.197   0.048 -0.8339  1.6519 -2.1735
33151SOL     OW 3044   8.244   0.496   5.425 -0.0710 -0.2491  0.4538
33151SOL    HW1 3045   8.195   0.415   5.412  0.7821 -0.5488 -1.0803
33151SOL    HW2 3046   8.319   0.489   5.366  1.3207  0.6283  2.0295
33152SOL     OW 3047   6.522   8.645   6.183 -0.1665  0.1128 -0.1558
33152SOL    HW1 3048   6.520   8.563   6.232  0.2864  0.6800  0.8516
33152SOL    HW2 3049   6.431   8.675   6.184 -0.6504 -1.1424 -1.9232
33153SOL     OW 3050   3.305   7.057   7.497 -0.4241  0.5051  0.0367
33153SOL    HW1 3051   3.309   7.152   7.491  0.7101  0.4976  0.2851
33153SOL    HW2 3052   3.394   7.029   7.475 -1.0881 -0.5879 -1.4273
33154SOL     OW 3053   8.839  10.119   8.985 -0.0724 -0.2925 -0.4775
33154SOL    HW1 3054   8.782  10.043   8.997 -0.3769 -0.0931 -0.6595
33154SOL    HW2 3055   8.830  10.142   8.893  0.1762 -0.1544 -0.4705
33155SOL     OW 3056   4.802   1.192   3.174  0.5404  0.3712  0.1335
33155SOL    HW1 3057   4.788   1.284   3.198 -0.9297  1.0355 -2.8006
33155SOL    HW2 3058   4.720   1.149   3.199  0.1408  0.4692 -0.9690
33156SOL     OW 3059   3.540   5.171   2.365  0.1357  0.0988 -0.1827
33156SOL    HW1 3060   3.635   5.179   2.360  0.1769 -0.8812 -1.5545
33156SOL    HW2 3061   3.508   5.203   2.281 -0.6711 -0.4867 -0.1177
33157SOL     OW 3062   0.894  11.003   4.528 -0.3834  0.1506  0.2998
33157SOL    HW1 3063   0.961  10.960   4.475  0.8485  0.8300  1.2613
33157SOL    HW2 3064   0.915  10.979   4.618 -1.1153  0.8077  0.6573
33158SOL     OW 3065   8.260  10.019   0.617 -0.2593  0.5801 -0.7779
33158SOL    HW1 3066   8.172  10.012   0.581 -0.4513 -0.1266 -0.1885
33158SOL    HW2 3067   8.318  10.014   0.541 -0.7105  0.6212 -1.1276
33159SOL     OW 3068   9.812   4.274   9.188  0.4876  0.2605  0.5229
33159SOL    HW1 3069   9.812   4.233   9.275 -1.4876  0.4025  0.6337
33159SOL    HW2 3070   9.734   4.330   9.188  1.2183  1.3358 -0.8680
33160SOL     OW 3071   2.805   9.978   0.655 -0.0108 -0.0957 -0.6195
33160SOL    HW1 3072   2.777   9.967   0.564 -0.8768 -1.7110 -0.1978
33160SOL    HW2 3073   2.878   9.918   0.665  1.2958  1.3983 -0.6901
33161SOL     OW 3074   6.080   3.951   1.717  0.0643  0.0435 -0.5272
33161SOL    HW1 3075   6.066   3.990   1.803 -0.3030 -0.5554 -0.3107
33161SOL    HW2 3076   6.161   3.900   1.727 -0.8771 -1.4105 -0.0303
33162SOL     OW 3077   8.838   0.500   1.989 -0.8359  0.4085 -0.1108
33162SOL    HW1 3078   8.778   0.446   1.938 -2.2372 -0.5301  2.3695
33162SOL    HW2 3079   8.921   0.452   1.986 -2.1214 -2.2700  2.3220
33163SOL     OW 3080   1.914   7.234   9.152  0.1364 -0.2007  0.1027
33163SOL    HW1 3081   1.963   7.310   9.119  0.9389 -0.1853  1.2973
33163SOL    HW2 3082   1.969   7.159   9.131 -0.4408 -0.4298 -0.6547
33164SOL     OW 3083   5.420   9.672   6.277 -0.4107  0.2475 -0.2034
33164SOL    HW1 3084   5.346   9.730   6.289 -0.4511  0.0126  0.7841
33164SOL    HW2 3085   5.383   9.584   6.283 -0.0192  0.1284  0.5699
33165SOL     OW 3086   5.239   4.982   9.148 -0.1112 -0.3968 -0.5759
33165SOL    HW1 3087   5.267   5.061   9.102  1.0073 -0.6436 -0.3642
33165SOL    HW2 3088   5.221   5.012   9.237 -0.5007 -0.2366 -0.7079
33166SOL     OW 3089   9.751  10.801   7.041  0.4625 -0.3999  0.0698
33166SOL    HW1 3090   9.703  10.839   7.114  0.5227  2.2281 -1.1550
33166SOL    HW2 3091   9.833  10.770   7.079  0.0643  0.0063  1.2799
33167SOL     OW 3092   8.505   5.029  10.263  0.0101  0.6755 -0.5505
33167SOL    HW1 3093   8.467   5.012  10.177  0.5746  0.7008 -0.8106
33167SOL    HW2 3094   8.574   5.094  10.246  2.1653 -1.4774 -0.5828
33168SOL     OW 3095   2.985   7.487   4.603 -0.0508  0.4139  0.5968
33168SOL    HW1 3096   2.954   7.566   4.557  0.9490  0.6830  0.3678
33168SOL    HW2 3097   3.061   7.459   4.553  0.0468 -0.2685  1.1251
33169SOL     OW 3098   4.627   9.591   3.734  0.2491  0.2363 -0.1033
33169SOL    HW1 3099   4.647   9.576   3.826  0.1932 -0.3306 -0.1801
33169SOL    HW2 3100   4.589   9.679   3.731 -0.6782 -0.1251  0.5546
33170SOL     OW 3101   5.287   3.691   9.354 -0.4590  0.7091  0.6178
33170SOL    HW1 3102   5.302   3.599   9.375  1.3550  0.5195 -1.1673
33170SOL    HW2 3103   5.372   3.723   9.323 -1.5330  2.3850 -0.8489
33171SOL     OW 3104   9.727   9.443   9.420  0.0935 -0.2858  0.2884
33171SOL    HW1 3105   9.715   9.538   9.409 -0.6492 -0.3179  0.7734
33171SOL    HW2 3106   9.641   9.405   9.402  0.7242 -1.0278 -1.3746
33172SOL     OW 3107   3.510   7.043   4.821  0.3786  0.7103  0.0974
33172SOL    HW1 3108   3.527   7.020   4.913  2.4129  0.1516 -0.3652
33172SOL    HW2 3109   3.568   7.117   4.804 -0.1960  0.9901 -0.6713
33173SOL     OW 3110   1.848   4.430   2.813 -0.0310 -0.3662  0.8037
33173SOL    HW1 3111   1.829   4.386   2.730 -0.9997  2.6078 -0.6863
33173SOL    HW2 3112   1.777   4.402   2.871  0.3630 -2.0843  0.5243
33174SOL     OW 3113   6.789  10.577   0.195  0.2758 -0.4589  0.3374
33174SOL    HW1 3114   6.798  10.547   0.105  1.8984 -0.1516  0.3623
33174SOL    HW2 3115   6.876  10.611   0.218 -0.8856  2.2560  1.0416
33175SOL     OW 3116   4.790   3.502  10.862  0.3802 -0.0794  0.0037
33175SOL    HW1 3117   4.790   3.581  10.807 -0.0660 -1.3615 -1.9500
33175SOL    HW2 3118   4.707   3.459  10.842  0.5816 -1.0257  1.0900
33176SOL     OW 3119   6.920   8.471   6.628 -0.3757 -0.6251  0.4261
33176SOL    HW1 3120   6.867   8.396   6.656  1.1244 -2.1377 -0.5555
33176SOL    HW2 3121   6.946   8.449   6.538 -0.4894  1.4445 -0.1687
33177SOL     OW 3122   6.631   2.222   7.699  0.0093 -0.1951 -0.1719
33177SOL    HW1 3123   6.713   2.266   7.676 -0.3430  0.9761  0.6951
33177SOL    HW2 3124   6.576   2.292   7.734  0.4834 -1.6725  4.2176
33178SOL     OW 3125   2.359   0.211   5.283  0.7741 -0.1457  0.0398
33178SOL    HW1 3126   2.426   0.169   5.229 -0.7577  0.8527 -2.8599
33178SOL    HW2 3127   2.294   0.142   5.298 -0.7424  0.4626 -2.9767
33179SOL     OW 3128  10.880  10.543   9.320  0.3627 -0.0295  0.3416
33179SOL    HW1 3129  10.949  10.476   9.321  1.2584  0.7588 -2.1228
33179SOL    HW2 3130  10.835  10.531   9.237 -1.8349  0.1936  1.4165
33180SOL     OW 3131   4.189   9.006   7.955 -0.3026  0.1758  0.7766
33180SOL    HW1 3132   4.174   9.100   7.943  0.7703  0.0738 -2.0471
33180SOL    HW2 3133   4.284   8.999   7.967  0.4365 -0.7338 -3.7118
33181SOL     OW 3134   4.741   1.569   2.078 -0.3055  0.0415  0.2304
33181SOL    HW1 3135   4.715   1.538   2.165  1.5351  0.4595  0.9694
33181SOL    HW2 3136   4.736   1.664   2.084 -0.1338  0.0737 -0.1148
33182SOL     OW 3137   1.370   4.566   1.865 -0.0866  0.4866 -0.3689
33182SOL    HW1 3138   1.420   4.630   1.814  0.2280  1.5044  1.1630
33182SOL    HW2 3139   1.317   4.618   1.924  1.1668 -0.6458  1.8613
33183SOL     OW 3140   7.693   3.345   7.308 -0.5857  0.0263  0.1715
33183SOL    HW1 3141   7.773   3.326   7.258 -1.2445 -0.2394 -0.7950
33183SOL    HW2 3142   7.684   3.440   7.302 -0.6935 -0.0081 -0.2831
33184SOL     OW 3143   1.584   3.656   2.396 -0.1988 -0.1815  0.3081
33184SOL    HW1 3144   1.581   3.620   2.307 -2.1553  1.3814 -0.3347
33184SOL    HW2 3145   1.617   3.745   2.384  2.8346 -1.0044  1.6460
33185SOL     OW 3146   3.818   9.675   8.876  0.3578 -0.2729  0.2490
33185SOL    HW1 3147   3.784   9.650   8.790  0.5515 -1.4955  0.5140
33185SOL    HW2 3148   3.815   9.595   8.927 -1.3175  0.7711  1.9190
33186SOL     OW 3149  10.544   6.156   9.729  0.5823  0.0327  0.3342
33186SOL    HW1 3150  10.582   6.072   9.756  1.8575  0.6242  0.4488
33186SOL    HW2 3151  10.451   6.147   9.747  0.1260 -2.5232 -2.5365
33187SOL     OW 3152   7.226   3.610   4.697  0.5602  0.1750  0.1851
33187SOL    HW1 3153   7.195   3.556   4.623 -1.2044 -0.8433  1.5737
33187SOL    HW2 3154   7.320   3.594   4.701  0.7091  0.2734 -1.8234
33188SOL     OW 3155  10.783   2.967   7.916 -0.4707  0.8135 -0.1575
33188SOL    HW1 3156  10.726   3.026   7.966  1.2497  0.9542  1.7676
33188SOL    HW2 3157  10.854   3.023   7.887  0.6495 -0.0775  0.7919
33189SOL     OW 3158   2.302   3.904   3.138 -0.1104 -0.2363 -0.1482
33189SOL    HW1 3159   2.263   3.892   3.051 -0.0692  0.1184 -0.2171
33189SOL    HW2 3160   2.378   3.847   3.138 -0.0646 -0.1782 -0.3770
33190SOL     OW 3161   4.794   8.077   5.722 -0.1351 -0.0091 -0.4376
33190SOL    HW1 3162   4.756   8.109   5.804  1.7296 -0.6747  0.7642
33190SOL    HW2 3163   4.736   8.006   5.695 -0.8064  0.2545  0.2719
33191SOL     OW 3164   8.035   0.752   3.581 -0.0434  0.0815  0.2348
33191SOL    HW1 3165   7.954   0.786   3.542  0.9589  1.1786 -0.9972
33191SOL    HW2 3166   8.035   0.659   3.559 -2.0988 -0.5276  2.3487
33192SOL     OW 3167   9.264   7.045   4.047  0.6004  0.0118  0.3905
33192SOL    HW1 3168   9.197   7.010   3.988  2.3796 -2.5237 -0.3107
33192SOL    HW2 3169   9.276   7.135   4.019 -3.2709  0.9671  1.3324
33193SOL     OW 3170   5.649   0.215   6.323  0.4798 -0.2362 -0.2684
33193SOL    HW1 3171   5.568   0.209   6.273 -0.0233  1.1789  0.3117
33193SOL    HW2 3172   5.621   0.248   6.409  1.6170 -0.1284  0.0746
33194SOL     OW 3173   3.687   2.929   0.617 -0.6202 -0.1662  0.3775
33194SOL    HW1 3174   3.710   2.889   0.700 -0.1705  2.1250  1.4402
33194SOL    HW2 3175   3.738   3.010   0.613 -0.1771 -0.4594 -2.4186
33195SOL     OW 3176   6.438   4.325   9.630  0.1626  0.5301  0.4198
33195SOL    HW1 3177   6.355   4.355   9.592  0.2245  0.2880  0.0920
33195SOL    HW2 3178   6.468   4.399   9.682 -0.7615  0.2807  1.3540
33196SOL     OW 3179   1.699   4.580   3.946  0.1705 -0.4022 -0.5555
33196SOL    HW1 3180   1.613   4.547   3.920 -0.1494  0.8077 -1.0696
33196SOL    HW2 3181   1.754   4.568   3.868 -0.3804  1.7468 -1.3546
33197SOL     OW 3182   7.423   1.655   6.876  0.5898  0.6604  0.3193
33197SOL    HW1 3183   7.503   1.613   6.844  0.3010  0.9332 -0.8179
33197SOL    HW2 3184   7.416   1.735   6.824 -1.3437 -0.2030 -0.8914
33198SOL     OW 3185   9.053  10.485   7.454 -0.5425 -0.2789  0.0449
33198SOL    HW1 3186   9.032  10.534   7.533  1.8814 -0.1858  0.7088
33198SOL    HW2 3187   8.991  10.413   7.452 -1.6923  0.6557  1.1209
33199SOL     OW 3188   3.852   0.277   4.053  0.0118 -0.3024 -0.4727
33199SOL    HW1 3189   3.833   0.190   4.087 -0.4690  0.5317  1.4947
33199SOL    HW2 3190   3.829   0.272   3.960 -1.0521 -1.9468 -0.1532
33200SOL     OW 3191   7.352   7.289   0.420 -0.3386 -0.2454 -0.3293
33200SOL    HW1 3192   7.322   7.354   0.483 -0.2921 -1.3879  0.9126
33200SOL    HW2 3193   7.440   7.318   0.395 -0.4845  0.3873 -0.1251
33201SOL     OW 3194   2.336   2.781   5.587  0.2492  0.7184 -0.1164
33201SOL    HW1 3195   2.417   2.771   5.637  0.0302 -0.2773  0.0731
33201SOL    HW2 3196   2.295   2.694   5.592 -0.6048  1.0890 -0.5885
33202SOL     OW 3197   6.673   4.767   4.310 -0.5908  0.2141  0.6596
33202SOL    HW1 3198   6.673   4.796   4.219 -0.2854 -4.2328 -1.0472
33202SOL    HW2 3199   6.746   4.814   4.351  2.1930 -0.6991 -2.7341
33203SOL     OW 3200  10.954  10.019   8.243  0.5241  0.2448  0.2903
33203SOL    HW1 3201  10.922  10.014   8.153 -1.5716  2.2686  0.8324
33203SOL    HW2 3202  11.047  10.043   8.234  0.3555  0.3953 -1.3194
33204SOL     OW 3203   9.069   5.084   7.189  0.3567 -0.0549 -0.2303
33204SOL    HW1 3204   9.138   5.116   7.130  1.1119 -0.9067  0.1704
33204SOL    HW2 3205   9.038   5.004   7.147 -0.3090  0.2451 -0.3309
33205SOL     OW 3206   8.197   7.841   2.478 -0.6109 -0.6951  0.1003
33205SOL    HW1 3207   8.177   7.931   2.501  0.9190 -0.4716  0.6432
33205SOL    HW2 3208   8.216   7.843   2.384  2.5020  0.2008  0.6349
33206SOL     OW 3209   4.231   2.778   5.493  0.2299 -0.0614 -0.7793
33206SOL    HW1 3210   4.270   2.691   5.480  0.4519 -0.1173  0.1761
33206SOL    HW2 3211   4.305   2.838   5.487  0.2001 -0.0121 -0.6510
33207SOL     OW 3212  10.561   6.655   5.686 -0.1509 -0.4408 -0.6627
33207SOL    HW1 3213  10.466   6.655   5.678 -0.1272 -1.8528 -1.2144
33207SOL    HW2 3214  10.585   6.562   5.693  1.2913 -0.2140 -2.0281
33208SOL     OW 3215  10.922   1.042   1.319 -0.5556  0.2006  0.0475
33208SOL    HW1 3216  10.966   1.031   1.403 -0.0755  0.7715 -0.1207
33208SOL    HW2 3217  10.993   1.051   1.256 -0.8673 -2.5602 -0.7834
33209SOL     OW 3218   3.387   7.291   6.107  0.4183  0.0421 -0.2353
33209SOL    HW1 3219   3.465   7.336   6.140 -0.6797  1.1235  0.9654
33209SOL    HW2 3220   3.328   7.361   6.081 -0.2466 -0.7621 -0.9534
33210SOL     OW 3221   0.582   8.571   6.980  0.0383  0.4620 -0.1060
33210SOL    HW1 3222   0.603   8.660   7.010  0.5918  0.4743 -0.5218
33210SOL    HW2 3223   0.527   8.535   7.049 -2.4223  2.0496 -1.0989
33211SOL     OW 3224   6.028   4.238   5.536  0.2388 -0.3219 -0.0707
33211SOL    HW1 3225   6.113   4.274   5.510 -0.1926  1.3250  0.6707
33211SOL    HW2 3226   5.970   4.258   5.462  0.1690 -0.1270  0.0350
33212SOL     OW 3227   5.134   6.221   0.433 -0.0553 -0.0929 -0.2919
33212SOL    HW1 3228   5.138   6.160   0.360  0.4035  0.1631 -0.4870
33212SOL    HW2 3229   5.219   6.265   0.432  0.2208 -0.5649  0.8150
33213SOL     OW 3230   9.585  10.254   9.047  0.3498  0.5235  0.2229
33213SOL    HW1 3231   9.638  10.232   8.970 -0.8699  0.9902 -0.7950
33213SOL    HW2 3232   9.575  10.349   9.043 -2.1152  0.3158 -0.7562
33214SOL     OW 3233   1.693   3.470   7.877  0.6874 -0.1282 -0.2331
33214SOL    HW1 3234   1.774   3.419   7.880 -0.6300 -2.3031  0.7423
33214SOL    HW2 3235   1.677   3.495   7.967  0.3044  0.3758 -0.4367
33215SOL     OW 3236   0.182  10.542   7.531  0.5948  0.4578 -0.2686
33215SOL    HW1 3237   0.163  10.506   7.444  0.7332 -0.8727  0.2275
33215SOL    HW2 3238   0.195  10.635   7.516  0.3156  0.3002 -1.6300
33216SOL     OW 3239   9.334   0.646   6.401 -0.7015 -0.2007 -0.0806
33216SOL    HW1 3240   9.285   0.670   6.323 -0.6474  0.7198  0.1588
33216SOL    HW2 3241   9.308   0.710   6.467  0.1587 -0.2354  0.3064
33217SOL     OW 3242   1.635   0.876   2.008  0.3478  0.0574  0.0874
33217SOL    HW1 3243   1.694   0.801   2.014  1.3227  0.4429 -3.0287
33217SOL    HW2 3244   1.568   0.850   1.946 -2.7404 -0.1860  3.1814
33218SOL     OW 3245   3.228   7.990   0.583 -0.0869 -0.3814 -0.9797
33218SOL    HW1 3246   3.185   7.991   0.668  1.8066 -2.0966  0.0783
33218SOL    HW2 3247   3.197   8.070   0.540 -0.0462  1.2890  1.8417
33219SOL     OW 3248   3.612   9.412   5.648 -0.0784  0.3607 -0.0018
33219SOL    HW1 3249   3.520   9.411   5.676 -0.4249 -1.2096 -1.0991
33219SOL    HW2 3250   3.651   9.335   5.690 -0.3344 -1.4116 -2.7677
33220SOL     OW 3251   6.408   6.034   0.857 -0.2408  0.0713  0.4750
33220SOL    HW1 3252   6.477   6.051   0.794 -0.1321 -1.5929  0.0929
33220SOL    HW2 3253   6.454   6.006   0.937 -0.4425 -1.0813  0.2066
33221SOL     OW 3254   3.984   2.948   4.966 -0.4233  0.0673  0.8050
33221SOL    HW1 3255   3.912   2.888   4.982 -0.7213  0.4572  0.9342
33221SOL    HW2 3256   3.950   3.011   4.902  0.7130 -1.4059 -1.3720
33222SOL     OW 3257   7.269   2.184   6.711 -0.4439 -0.7861 -0.2743
33222SOL    HW1 3258   7.313   2.258   6.752  0.1020 -1.5983  0.6444
33222SOL    HW2 3259   7.177   2.211   6.704 -0.2391 -0.0019 -0.0245
33223SOL     OW 3260   8.630   5.583   5.556  0.2189 -0.0948  0.9303
33223SOL    HW1 3261   8.640   5.490   5.579 -2.0391 -0.7722 -0.5265
33223SOL    HW2 3262   8.654   5.630   5.636  2.8374 -1.8241  1.2748
33224SOL     OW 3263   3.141  10.290   9.619 -0.3597 -0.3639  0.6530
33224SOL    HW1 3264   3.194  10.225   9.573  0.4157  1.9100 -1.9366
33224SOL    HW2 3265   3.179  10.294   9.707  2.3728 -0.4465 -0.4089
33225SOL     OW 3266   3.847   2.680   6.759 -0.0156 -0.0433 -0.2075
33225SOL    HW1 3267   3.823   2.757   6.707  0.8941  1.2455  1.1746
33225SOL    HW2 3268   3.776   2.672   6.824  0.6737  0.6482  0.6602
33226SOL     OW 3269   3.405   3.646   3.362  0.5135 -0.3071 -0.0700
33226SOL    HW1 3270   3.401   3.565   3.312  0.0697  0.1670 -0.8090
33226SOL    HW2 3271   3.466   3.702   3.314 -0.4000  0.3868 -0.4421
33227SOL     OW 3272   6.249   2.705   3.059 -0.0185 -0.5668  0.6380
33227SOL    HW1 3273   6.272   2.721   2.968 -0.0987 -0.5240  0.6256
33227SOL    HW2 3274   6.257   2.791   3.101 -0.8455 -0.4120  0.4875
33228SOL     OW 3275   3.292   8.269   5.859 -0.5723 -0.4331 -0.5096
33228SOL    HW1 3276   3.303   8.275   5.764  0.1512  0.2814 -0.3969
33228SOL    HW2 3277   3.382   8.263   5.892 -0.7158  1.1084  0.2227
33229SOL     OW 3278   4.441  10.190   8.955 -0.4848  0.2979 -0.3771
33229SOL    HW1 3279   4.519  10.211   9.007 -1.2657  0.0740  0.9550
33229SOL    HW2 3280   4.475  10.164   8.870  0.7716  2.3918 -0.6055
33230SOL     OW 3281   8.223   7.644   6.392 -0.1735  0.1143 -0.2034
33230SOL    HW1 3282   8.129   7.631   6.402 -0.1255 -0.7022 -0.7399
33230SOL    HW2 3283   8.234   7.739   6.387 -0.8678  0.2617  0.7805
33231SOL     OW 3284   9.185   3.074   8.301 -0.1658  0.3279 -0.4560
33231SOL    HW1 3285   9.092   3.085   8.320 -0.1481  0.5265 -0.4822
33231SOL    HW2 3286   9.202   2.982   8.320 -0.2183  0.4485  0.1955
33232SOL     OW 3287   5.994   1.021  10.598 -1.1187 -0.9311  0.5025
33232SOL    HW1 3288   6.020   1.112  10.582 -0.6376 -1.2806 -0.8287
33232SOL    HW2 3289   6.040   0.997  10.678  0.4748 -0.6545 -0.2915
33233SOL     OW 3290   8.149   1.871   6.870  0.2125  0.2750  0.4310
33233SOL    HW1 3291   8.076   1.821   6.833 -0.4579  1.1761  0.5020
33233SOL    HW2 3292   8.123   1.963   6.860  1.3425  0.6114  0.4606
33234SOL     OW 3293   0.217   5.540   1.853  0.2808 -0.2698 -0.2175
33234SOL    HW1 3294   0.265   5.621   1.872 -0.1666  0.0222 -0.3167
33234SOL    HW2 3295   0.125   5.565   1.859  0.1404 -0.7227 -0.4704
33235SOL     OW 3296   4.673   1.356   1.914  0.0685  0.0597  0.1114
33235SOL    HW1 3297   4.695   1.435   1.963 -1.5209 -0.2490  1.4055
33235SOL    HW2 3298   4.687   1.285   1.976 -2.2046 -0.3296  0.2518
33236SOL     OW 3299   8.348   3.610   0.672  0.4948 -0.3019 -0.4713
33236SOL    HW1 3300   8.350   3.516   0.688  1.7011 -0.1273  0.5798
33236SOL    HW2 3301   8.274   3.623   0.613 -1.0813 -1.6640  1.0824
33237SOL     OW 3302   0.120   1.357   8.671 -0.4432  0.2647  0.4494
33237SOL    HW1 3303   0.130   1.442   8.629 -2.1373 -1.0757 -3.0467
33237SOL    HW2 3304   0.205   1.314   8.660  0.1609  1.1248  1.5098
33238SOL     OW 3305   6.627   4.579   6.680  0.7000 -0.0788  0.1986
33238SOL    HW1 3306   6.600   4.571   6.771 -1.0114  1.2595 -0.1416
33238SOL    HW2 3307   6.713   4.622   6.684 -0.4342  2.2957  1.1701
33239SOL     OW 3308   5.214   5.281   7.417  0.0236 -0.1412 -0.7800
33239SOL    HW1 3309   5.264   5.363   7.410  1.3215 -0.7234  0.9362
33239SOL    HW2 3310   5.269   5.216   7.374 -0.3713 -0.3673 -0.9461
33240SOL     OW 3311   3.639   7.775   8.759 -0.2959  0.1817  0.1566
33240SOL    HW1 3312   3.654   7.694   8.711  0.8087  1.5687 -2.0143
33240SOL    HW2 3313   3.703   7.773   8.830 -0.4603 -0.9374  0.2851
33241SOL     OW 3314   7.085   9.130   3.385 -0.3983 -0.1773  0.1130
33241SOL    HW1 3315   7.037   9.175   3.454  0.4853  2.3642 -0.7991
33241SOL    HW2 3316   7.021   9.119   3.315 -0.3600  0.7938 -0.0961
33242SOL     OW 3317   9.754   7.480  10.291 -0.6518 -0.0972  0.4258
33242SOL    HW1 3318   9.755   7.447  10.380 -0.7353  1.7177  1.1497
33242SOL    HW2 3319   9.778   7.573  10.299 -2.0924  0.4949 -1.2378
33243SOL     OW 3320   0.408   9.978   2.441  0.0209  0.2588  0.4605
33243SOL    HW1 3321   0.464   9.902   2.429 -1.6429 -0.7475 -1.5974
33243SOL    HW2 3322   0.373   9.970   2.529  0.5863 -0.8741  0.5842
33244SOL     OW 3323   2.550   5.961   0.785  0.1578 -0.1828 -0.3883
33244SOL    HW1 3324   2.568   6.052   0.760 -0.8741 -0.2609 -1.5110
33244SOL    HW2 3325   2.462   5.963   0.821  0.5991 -0.5480  0.7397
33245SOL     OW 3326   4.655   5.082   6.354  0.1641 -0.2346 -0.1821
33245SOL    HW1 3327   4.611   5.167   6.342 -0.8054 -0.8219 -0.8722
33245SOL    HW2 3328   4.589   5.026   6.393  0.0920 -1.2881 -1.7180
33246SOL     OW 3329   7.241   0.434   6.609  0.2573  0.2046  0.0311
33246SOL    HW1 3330   7.243   0.352   6.657  1.4617  0.8345  1.1201
33246SOL    HW2 3331   7.250   0.409   6.517 -0.3343 -0.9181  0.2674
33247SOL     OW 3332   0.931   0.927   2.494 -0.1801 -0.1670  0.1966
33247SOL    HW1 3333   0.867   0.863   2.463 -1.1388  1.1046 -0.5394
33247SOL    HW2 3334   0.992   0.937   2.421  1.0204 -1.5256  0.9712
33248SOL     OW 3335   0.089   1.557  10.707  0.2579 -0.1871 -0.2419
33248SOL    HW1 3336   0.063   1.612  10.633 -1.9879  1.2350  1.5105
33248SOL    HW2 3337   0.057   1.602  10.784 -0.2135 -3.1393  1.4436
33249SOL     OW 3338   4.234   0.446   9.282 -0.8410  0.3758 -0.4731
33249SOL    HW1 3339   4.251   0.463   9.375 -1.3578 -1.9036  0.0939
33249SOL    HW2 3340   4.292   0.374   9.260 -1.8933 -0.1965 -1.4819
33250SOL     OW 3341   0.460  10.241   3.432  0.0250  0.3025 -0.1881
33250SOL    HW1 3342   0.492  10.181   3.365 -2.8477 -0.8932 -0.6608
33250SOL    HW2 3343   0.538  10.283   3.467  1.7478 -0.0607 -3.2908
33251SOL     OW 3344  10.745   7.116   4.037  0.2240  0.6364  0.0885
33251SOL    HW1 3345  10.662   7.160   4.017 -0.9428 -1.3209  0.2949
33251SOL    HW2 3346  10.726   7.065   4.116  1.1367 -1.0778 -0.7482
33252SOL     OW 3347   8.060   7.304   9.906 -0.3917 -0.3097 -0.7517
33252SOL    HW1 3348   8.114   7.309   9.985 -0.9810  0.0607 -0.3664
33252SOL    HW2 3349   8.122   7.315   9.834  0.2291 -1.1678 -0.3670
33253SOL     OW 3350   0.084   8.245   4.221 -0.3861 -0.7690 -0.1575
33253SOL    HW1 3351   0.176   8.270   4.213 -0.7261 -0.0557 -2.6671
33253SOL    HW2 3352   0.044   8.317   4.269  0.2493 -0.7782  0.3963
33254SOL     OW 3353   0.063   8.731   9.115 -0.6849  0.0327  0.2802
33254SOL    HW1 3354   0.064   8.822   9.085 -0.0606 -0.3962 -1.0528
33254SOL    HW2 3355   0.148   8.719   9.158 -0.6876  0.0122  0.2801
33255SOL     OW 3356   9.408   2.945  11.015 -0.2054 -0.2709  0.8334
33255SOL    HW1 3357   9.482   3.005  11.008  0.3322 -0.9747  0.3334
33255SOL    HW2 3358   9.406   2.900  10.930 -1.9197  0.5489  0.3871
33256SOL     OW 3359   0.266   3.866   7.668  0.0141  0.6542  0.3045
33256SOL    HW1 3360   0.340   3.882   7.725 -0.0628  3.8295 -0.3097
33256SOL    HW2 3361   0.295   3.795   7.610  2.8552  2.1679 -0.3121
33257SOL     OW 3362   5.733   0.410   9.113  0.3870 -0.1725 -0.0019
33257SOL    HW1 3363   5.828   0.407   9.129  0.5203 -1.4970 -0.8736
33257SOL    HW2 3364   5.702   0.483   9.167  2.5364  3.3888 -3.1151
33258SOL     OW 3365   7.430  10.572   1.197 -0.4573 -0.3174  0.2697
33258SOL    HW1 3366   7.384  10.633   1.256 -1.8615 -0.8144 -0.2723
33258SOL    HW2 3367   7.511  10.551   1.244  0.4412  2.4721  0.1898
33259SOL     OW 3368   5.116   5.338   7.868 -0.7708 -0.2477  0.0491
33259SOL    HW1 3369   5.168   5.282   7.811 -0.1350  0.7084 -0.3415
33259SOL    HW2 3370   5.086   5.280   7.938  0.8248 -0.8366  0.2831
33260SOL     OW 3371   8.717   0.780   3.056  0.3207 -0.4713  0.0228
33260SOL    HW1 3372   8.746   0.848   3.117  2.0144 -2.4164  1.5219
33260SOL    HW2 3373   8.636   0.747   3.096 -0.7848  0.9031 -0.9694
33261SOL     OW 3374   8.348  10.951   2.160  0.0164 -0.5828 -0.0881
33261SOL    HW1 3375   8.352  10.865   2.202  0.8335  0.0810  1.2696
33261SOL    HW2 3376   8.263  10.952   2.115 -0.2697 -1.8547  0.3746
33262SOL     OW 3377   2.936   0.969   0.574  0.0257  0.1797  0.7634
33262SOL    HW1 3378   2.991   0.910   0.625  0.4599  0.4106  0.5644
33262SOL    HW2 3379   2.984   1.052   0.572 -0.0570  0.2155  0.1015
33263SOL     OW 3380  10.909   0.954   8.602  0.0054  0.0221  0.4336
33263SOL    HW1 3381  10.999   0.929   8.583  0.2818  0.5914  0.9652
33263SOL    HW2 3382  10.916   1.043   8.636 -0.8386  0.3988 -0.3245
33264SOL     OW 3383   5.661   6.002   8.054 -0.2917  0.4160  0.1980
33264SOL    HW1 3384   5.641   5.986   8.146  1.6517 -0.8391  0.4500
33264SOL    HW2 3385   5.639   6.094   8.040 -0.8749  0.5546  1.8207
33265SOL     OW 3386   5.408   7.992   9.439  0.3905  0.6347 -0.6771
33265SOL    HW1 3387   5.354   8.035   9.373 -0.1895  2.0763  0.6619
33265SOL    HW2 3388   5.462   7.930   9.390 -3.0638 -1.5813 -2.0102
33266SOL     OW 3389   2.946   4.799   8.093  0.2638 -0.1905 -0.6989
33266SOL    HW1 3390   2.933   4.706   8.075  2.8445 -0.7151 -0.2411
33266SOL    HW2 3391   3.013   4.826   8.029  0.2401  1.1100 -0.1970
33267SOL     OW 3392   9.623   7.354  10.003 -0.1608 -0.6484  0.0239
33267SOL    HW1 3393   9.546   7.309  10.038  1.1487 -1.6799  1.7523
33267SOL    HW2 3394   9.657   7.404  10.077  1.6663 -1.4283 -0.2302
33268SOL     OW 3395   8.459  10.499   0.215 -0.1797 -0.1883 -0.2418
33268SOL    HW1 3396   8.516  10.560   0.169 -0.9060  0.8968  0.2644
33268SOL    HW2 3397   8.424  10.442   0.146  1.5038 -0.8917 -0.5576
33269SOL     OW 3398   3.631   6.370   1.566 -0.3582  0.1931  0.0456
33269SOL    HW1 3399   3.618   6.345   1.475  0.5300  0.3491 -0.1385
33269SOL    HW2 3400   3.581   6.451   1.577  0.6566  0.9470 -0.7040
33270SOL     OW 3401   8.884   5.842   2.918  0.2135  0.0889 -0.1367
33270SOL    HW1 3402   8.859   5.779   2.985 -1.9504  0.0240 -0.9264
33270SOL    HW2 3403   8.811   5.840   2.855  0.8601  2.1763 -1.0256
33271SOL     OW 3404   2.464   1.922   6.918 -0.4391 -0.3264 -0.1393
33271SOL    HW1 3405   2.507   1.997   6.960 -0.4564  0.7048 -1.8546
33271SOL    HW2 3406   2.536   1.865   6.891 -0.2935  0.0611 -0.5889
33272SOL     OW 3407   8.396   4.259   2.042 -0.3347  0.2407 -0.6015
33272SOL    HW1 3408   8.337   4.214   2.103  0.0737 -0.3639 -0.6434
33272SOL    HW2 3409   8.343   4.328   2.004 -0.4346  0.9999  0.8699
33273SOL     OW 3410  10.576   5.722   5.769  0.0337  0.4249  0.2442
33273SOL    HW1 3411  10.546   5.808   5.799 -0.8721  0.2672 -0.1733
33273SOL    HW2 3412  10.617   5.739   5.684  0.3250  0.5172  0.4031
33274SOL     OW 3413   1.927   3.737   5.497 -0.6421  0.0263  0.1543
33274SOL    HW1 3414   1.975   3.746   5.415  0.1917  1.2831  0.7493
33274SOL    HW2 3415   1.982   3.682   5.552 -0.6466  0.1284  0.2627
33275SOL     OW 3416  10.506   2.162  10.721  0.2924 -0.7223 -0.1571
33275SOL    HW1 3417  10.439   2.184  10.785 -1.2526  1.0109 -2.2371
33275SOL    HW2 3418  10.462   2.105  10.658  0.7138  0.3971 -1.5261
33276SOL     OW 3419  10.707   0.841   2.855  0.3750 -0.1734  0.0106
33276SOL    HW1 3420  10.773   0.909   2.844  0.5362 -0.2521  0.5011
33276SOL    HW2 3421  10.715   0.788   2.775 -0.9013  1.3385 -1.1953
33277SOL     OW 3422   6.790   4.837   2.548  0.4594  0.1110  0.1246
33277SOL    HW1 3423   6.800   4.918   2.598  0.3438  0.5615 -0.5634
33277SOL    HW2 3424   6.704   4.803   2.574  0.5583  0.1455  0.5017
33278SOL     OW 3425   6.398  10.061  10.319  0.6189  0.2147  0.3727
33278SOL    HW1 3426   6.374  10.152  10.333 -0.3823 -0.0759  0.6813
33278SOL    HW2 3427   6.376  10.045  10.227  1.3503  0.4356  0.1530
33279SOL     OW 3428  10.686   8.003   4.066  0.1602 -0.0792 -0.0499
33279SOL    HW1 3429  10.724   7.959   4.143  1.7440  0.5285 -0.4561
33279SOL    HW2 3430  10.758   8.055   4.031 -0.7981  0.3219 -1.4532
33280SOL     OW 3431   4.564   8.181   1.722 -0.0413  0.1149  0.4897
33280SOL    HW1 3432   4.470   8.167   1.725  0.3147 -2.8984  0.9238
33280SOL    HW2 3433   4.581   8.216   1.634 -1.4986  0.2291  0.2355
33281SOL     OW 3434   0.470   9.300   9.368 -0.4584 -0.1581 -0.0498
33281SOL    HW1 3435   0.477   9.365   9.298  0.5260  0.7852  0.8623
33281SOL    HW2 3436   0.549   9.247   9.359 -0.4278 -0.1592  0.2098
33282SOL     OW 3437   3.119   7.977   5.611 -0.2795  0.1442  0.4763
33282SOL    HW1 3438   3.214   7.978   5.601 -0.3093  0.6072  0.2345
33282SOL    HW2 3439   3.086   8.031   5.539 -0.5421  3.1015  2.6360
33283SOL     OW 3440   0.781   7.728   7.547 -0.2038  0.0696  0.4962
33283SOL    HW1 3441   0.788   7.822   7.529 -0.8071  0.2846  1.3021
33283SOL    HW2 3442   0.753   7.690   7.464 -4.0374  1.1734  1.0775
33284SOL     OW 3443   0.983   3.253   3.504  0.1405  0.3742 -0.2127
33284SOL    HW1 3444   0.980   3.273   3.410  1.4307 -0.0653 -0.3738
33284SOL    HW2 3445   0.972   3.337   3.547 -1.7116  0.4272 -0.7089
33285SOL     OW 3446   3.715   2.532  10.819  0.4966  0.2295  0.1287
33285SOL    HW1 3447   3.623   2.506  10.829 -0.2123  2.3766 -0.3894
33285SOL    HW2 3448   3.763   2.449  10.821 -1.3272 -0.8789  1.5244
33286SOL     OW 3449   8.678   5.035   4.906  0.6852  0.1539  0.4391
33286SOL    HW1 3450   8.657   5.079   4.824  2.0402 -0.9080 -0.5266
33286SOL    HW2 3451   8.597   4.990   4.930  0.3001  0.3955 -0.3649
33287SOL     OW 3452   4.617  10.556   2.906 -0.0320 -0.4592 -0.5854
33287SOL    HW1 3453   4.598  10.537   2.814  0.5268 -1.2213 -0.5498
33287SOL    HW2 3454   4.695  10.504   2.925  0.6636  0.7503 -0.0603
33288SOL     OW 3455   5.379   5.982  10.223  0.1198 -0.2187 -0.2782
33288SOL    HW1 3456   5.419   6.047  10.165  0.3713 -1.7626 -1.9014
33288SOL    HW2 3457   5.289   5.972  10.190 -0.5642  0.7048  1.2001
33289SOL     OW 3458   3.741  10.140   2.191 -0.6276 -0.1774 -0.0142
33289SOL    HW1 3459   3.812  10.078   2.211  0.5524  1.5381  1.4391
33289SOL    HW2 3460   3.699  10.156   2.275 -1.0519  0.8042 -0.4044
33290SOL     OW 3461   5.061   8.770   9.276  0.1561 -0.4991  0.1279
33290SOL    HW1 3462   5.026   8.839   9.220 -0.9249 -0.7558  0.4438
33290SOL    HW2 3463   5.015   8.783   9.360  1.8333 -0.0258  1.0245
33291SOL     OW 3464   8.497   1.254   9.226 -0.6184  0.2267  0.0580
33291SOL    HW1 3465   8.446   1.176   9.204 -0.3405 -0.1832  0.8266
33291SOL    HW2 3466   8.456   1.288   9.306  0.8737 -0.6712  1.2680
33292SOL     OW 3467   2.733   1.922   1.352 -0.6259  0.2587 -0.4346
33292SOL    HW1 3468   2.668   1.992   1.344 -1.4929 -0.6735 -2.2168
33292SOL    HW2 3469   2.701   1.853   1.294  0.8352 -1.1381  0.3339
33293SOL     OW 3470   6.848   0.479   5.890  0.3600  0.1893  0.0200
33293SOL    HW1 3471   6.911   0.422   5.934  0.8759  0.9402  0.2842
33293SOL    HW2 3472   6.901   0.536   5.835  0.0047  1.3410  0.8228
33294SOL     OW 3473  10.420   1.642   6.778  0.4420 -0.5742 -0.4419
33294SOL    HW1 3474  10.473   1.722   6.773 -0.2572 -0.0277  0.5753
33294SOL    HW2 3475  10.479   1.576   6.814  1.0154 -0.5336 -1.2602
33295SOL     OW 3476   0.615   1.912   6.262  0.9958 -0.0456 -0.4531
33295SOL    HW1 3477   0.593   1.934   6.352  0.5827 -0.5498 -0.4229
33295SOL    HW2 3478   0.538   1.865   6.229  0.4661  1.5317 -1.5891
33296SOL     OW 3479   6.474   7.954   4.972 -0.5828  0.4437  0.1952
33296SOL    HW1 3480   6.554   7.971   4.922  0.5376  0.6760  1.9828
33296SOL    HW2 3481   6.500   7.892   5.040 -1.6581  1.3480  1.4806
33297SOL     OW 3482  10.845   4.593   0.063  0.4504 -0.3734 -0.4778
33297SOL    HW1 3483  10.775   4.657   0.072  0.0632 -0.6030 -1.6039
33297SOL    HW2 3484  10.916   4.641   0.020  1.0596 -0.1027  0.7905
33298SOL     OW 3485   1.041   1.786   1.178  0.1727  0.5402  0.0463
33298SOL    HW1 3486   0.990   1.753   1.252  0.1024 -0.3144 -0.3621
33298SOL    HW2 3487   0.994   1.754   1.101 -0.9172  3.1363 -0.4522
33299SOL     OW 3488   3.118   3.141   2.049  0.2279 -0.0239 -0.0072
33299SOL    HW1 3489   3.101   3.047   2.041  0.4220 -0.1221  0.6993
33299SOL    HW2 3490   3.046   3.174   2.104  0.4452  0.1536  0.1700
33300SOL     OW 3491   9.042   2.206  10.495 -0.0137 -0.1807 -0.7663
33300SOL    HW1 3492   9.057   2.126  10.446 -1.2836 -1.9731  1.5488
33300SOL    HW2 3493   8.963   2.245  10.456  0.3697 -0.2702 -1.6376
33301SOL     OW 3494  10.337   5.529   2.387 -0.2243 -0.2662  0.5135
33301SOL    HW1 3495  10.282   5.598   2.423 -0.3951 -0.4663  0.6362
33301SOL    HW2 3496  10.379   5.489   2.463 -1.0723 -1.1027  0.5510
33302SOL     OW 3497   8.950   8.401   2.724 -0.4542 -0.1898  0.1608
33302SOL    HW1 3498   9.042   8.424   2.740 -0.4890  1.2678 -1.4159
33302SOL    HW2 3499   8.953   8.312   2.689  0.3461 -0.2033  0.2347
33303SOL     OW 3500   8.641   6.722   1.817  0.1884  0.1904 -0.0150
33303SOL    HW1 3501   8.708   6.654   1.820 -0.3765 -0.3427  1.2509
33303SOL    HW2 3502   8.674   6.786   1.753  3.0109  1.1127  2.1574
33304SOL     OW 3503  10.070   9.406   2.405  0.3286  0.2582 -0.1600
33304SOL    HW1 3504  10.098   9.497   2.391  1.8280 -0.2012 -0.3537
33304SOL    HW2 3505  10.144   9.354   2.376  0.1537 -0.9942  1.4809
33305SOL     OW 3506   0.374   1.097   1.385  0.1042 -0.1385 -0.1484
33305SOL    HW1 3507   0.298   1.045   1.358  1.8477 -2.3615 -1.1384
33305SOL    HW2 3508   0.384   1.078   1.479 -0.7130  0.4055  0.0554
33306SOL     OW 3509   2.307  10.592   4.921 -0.4203  0.1061 -0.7031
33306SOL    HW1 3510   2.321  10.669   4.866  0.8772 -0.6248 -1.4547
33306SOL    HW2 3511   2.334  10.619   5.008  0.1483  0.4698 -0.9896
33307SOL     OW 3512   5.922   8.294   6.109  0.0913 -0.1952  0.0154
33307SOL    HW1 3513   5.942   8.241   6.032  1.0106  1.6080 -1.0564
33307SOL    HW2 3514   5.836   8.332   6.091 -1.1847 -2.2149  1.3647
33308SOL     OW 3515   0.895   2.300  10.094  0.2474  0.0800  0.0767
33308SOL    HW1 3516   0.805   2.312  10.125  0.4416  2.4611 -0.1436
33308SOL    HW2 3517   0.897   2.345  10.009  1.0210 -2.1388 -1.1722
33309SOL     OW 3518   5.592  10.532  11.019 -0.1010  0.5544 -0.6593
33309SOL    HW1 3519   5.611  10.596  10.951  0.1704  2.2858  0.9389
33309SOL    HW2 3520   5.525  10.575  11.073 -1.8525 -1.6252 -0.9796
33310SOL     OW 3521   8.509   1.058   5.223  0.0034 -0.1301  0.5920
33310SOL    HW1 3522   8.600   1.085   5.238  0.3537 -2.4330  3.6858
33310SOL    HW2 3523   8.516   0.991   5.154  0.3281  1.0686 -0.5827
33311SOL     OW 3524   0.424   8.554  10.356  0.1448  0.4513 -0.5806
33311SOL    HW1 3525   0.363   8.499  10.306  1.2563 -0.3443 -1.0920
33311SOL    HW2 3526   0.367   8.614  10.404 -0.9953  0.6320 -2.0771
33312SOL     OW 3527   5.169   5.120   7.050  0.0662 -0.2513  0.0508
33312SOL    HW1 3528   5.104   5.081   6.992 -0.5639  0.4374  0.2723
33312SOL    HW2 3529   5.224   5.173   6.993 -0.1485 -0.0944 -0.0122
33313SOL     OW 3530   2.792   6.444  11.108 -0.8060 -0.1843  0.2045
33313SOL    HW1 3531   2.753   6.499  11.039  2.1931  0.2392 -1.3268
33313SOL    HW2 3532   2.828   6.369  11.061 -2.9185 -2.4640  2.0117
33314SOL     OW 3533   3.581   2.157   9.770  0.2341 -0.5785 -0.0697
33314SOL    HW1 3534   3.549   2.205   9.846  3.2303 -1.3011  1.8266
33314SOL    HW2 3535   3.550   2.068   9.783 -1.6248 -0.1512 -1.2671
33315SOL     OW 3536   7.011   0.407   2.899  0.5271 -0.3195  0.5872
33315SOL    HW1 3537   7.070   0.443   2.965 -0.5309  0.8841  0.9339
33315SOL    HW2 3538   6.932   0.462   2.905  1.3151  1.7186 -3.4693
33316SOL     OW 3539   4.784  10.309   5.818 -0.3991 -0.6228  0.1876
33316SOL    HW1 3540   4.861  10.303   5.762 -1.8005 -0.5972 -1.8363
33316SOL    HW2 3541   4.803  10.382   5.878  1.1838 -0.7160 -0.1818
33317SOL     OW 3542   7.433   2.651   4.123 -0.0233 -0.2704 -0.3149
33317SOL    HW1 3543   7.340   2.661   4.141 -0.0722 -1.1538 -0.0230
33317SOL    HW2 3544   7.476   2.661   4.208  0.0271 -1.1613 -0.2238
33318SOL     OW 3545   9.553   7.974   3.427 -0.0978  0.2639 -0.4726
33318SOL    HW1 3546   9.514   7.999   3.510  0.1314 -0.8090 -0.0223
33318SOL    HW2 3547   9.479   7.954   3.370 -0.3524  3.0910 -1.2731
33319SOL     OW 3548   0.771   8.475   7.569  0.3288  0.5159  0.1866
33319SOL    HW1 3549   0.843   8.441   7.516 -0.0385 -0.8196  0.4951
33319SOL    HW2 3550   0.811   8.500   7.652  0.4568 -0.1574  0.3337
33320SOL     OW 3551  10.005   5.134   3.493 -0.4173  0.2663 -0.4706
33320SOL    HW1 3552  10.095   5.102   3.496 -0.3293  0.5830  1.0653
33320SOL    HW2 3553  10.007   5.207   3.431  0.6751  1.0698  0.4775
33321SOL     OW 3554   6.821   4.042   4.081  0.1243  0.4327 -0.4288
33321SOL    HW1 3555   6.813   3.993   4.000  1.0682  2.4286 -1.8299
33321SOL    HW2 3556   6.813   4.134   4.054  1.5663  1.2153  1.5553
33322SOL     OW 3557  10.836   1.052   8.281 -0.3360 -0.0093 -0.3465
33322SOL    HW1 3558  10.836   1.011   8.367  0.5639 -0.3212 -0.4783
33322SOL    HW2 3559  10.766   1.117   8.285  1.1181  1.5509  1.3879
33323SOL     OW 3560   2.029   3.814   9.382  0.2146  0.0335 -0.0036
33323SOL    HW1 3561   2.022   3.789   9.474  1.9820 -0.5375  0.0099
33323SOL    HW2 3562   2.010   3.734   9.334 -0.1009  0.1805 -0.1265
33324SOL     OW 3563   0.073   0.288   2.150  0.1549  0.3426  0.2420
33324SOL    HW1 3564   0.153   0.252   2.190 -0.1429  0.8679  1.3298
33324SOL    HW2 3565   0.104   0.332   2.070  0.9753  0.6472  0.7184
33325SOL     OW 3566   6.272   4.583   7.691  0.0589  0.2156  0.2732
33325SOL    HW1 3567   6.250   4.655   7.751  2.5667  1.3567 -0.0213
33325SOL    HW2 3568   6.362   4.560   7.714  0.9095  0.2882 -2.5983
33326SOL     OW 3569   1.902   0.637   5.000 -0.6072  0.5797 -0.0847
33326SOL    HW1 3570   1.923   0.731   4.999  0.5838  0.3315 -0.1331
33326SOL    HW2 3571   1.984   0.594   4.976 -1.3075 -0.4537 -0.6895
33327SOL     OW 3572   6.970   1.755   0.391  0.7550  0.0376 -0.2351
33327SOL    HW1 3573   6.979   1.843   0.427  0.7768  0.5917 -1.5338
33327SOL    HW2 3574   6.890   1.720   0.431  0.1585  1.0552 -0.5089
33328SOL     OW 3575   6.542   6.419   0.819  0.0527  0.3428 -0.0461
33328SOL    HW1 3576   6.606   6.376   0.761  0.7575 -1.6184  2.0270
33328SOL    HW2 3577   6.459   6.376   0.799  0.5773 -1.4271  1.3507
33329SOL     OW 3578   5.596   5.287   7.937 -0.4982  0.3829 -0.0495
33329SOL    HW1 3579   5.636   5.364   7.977 -1.6034  0.9799 -0.0426
33329SOL    HW2 3580   5.556   5.320   7.856 -0.4458 -0.3172 -0.3703
33330SOL     OW 3581   0.018   7.264   3.640  0.0283 -0.3266  0.2709
33330SOL    HW1 3582   0.062   7.346   3.619 -0.3844 -0.0304  0.5510
33330SOL    HW2 3583   0.007   7.265   3.735  0.0562 -0.7274  0.2826
33331SOL     OW 3584   7.456   4.132   8.288 -0.5323  0.3135 -0.0115
33331SOL    HW1 3585   7.433   4.225   8.293 -1.7762  0.0643 -0.6952
33331SOL    HW2 3586   7.406   4.091   8.359 -1.4746 -0.0881 -0.8829
33332SOL     OW 3587   7.198   1.444   3.190 -0.0570  0.1924  0.2871
33332SOL    HW1 3588   7.160   1.392   3.261  1.0468  0.8765  1.4145
33332SOL    HW2 3589   7.156   1.529   3.198  0.3727  0.3972  0.3834
33333SOL     OW 3590  10.552   8.014   4.380 -0.2267  0.5700  0.3867
33333SOL    HW1 3591  10.618   8.007   4.311  0.7013  0.5546  1.2482
33333SOL    HW2 3592  10.519   7.925   4.391 -0.5636  0.6160 -0.2015
33334SOL     OW 3593   4.211   8.601   2.193 -0.5857 -0.2596  0.0388
33334SOL    HW1 3594   4.275   8.603   2.263 -0.7806 -1.6324  0.2781
33334SOL    HW2 3595   4.197   8.693   2.171  0.6831  0.1072  0.6774
33335SOL     OW 3596   0.626   3.145   8.291  0.3522 -0.6573 -0.1595
33335SOL    HW1 3597   0.587   3.097   8.218  1.4513 -0.6124 -0.8125
33335SOL    HW2 3598   0.715   3.165   8.260  1.2754 -1.7146  1.6701
33336SOL     OW 3599   8.840   2.072   4.162  0.4854  0.2931  0.4391
33336SOL    HW1 3600   8.851   2.090   4.255  0.2878  0.5720  0.4113
33336SOL    HW2 3601   8.758   2.117   4.138  1.2773  1.4504 -0.1881
33337SOL     OW 3602  11.019   7.004   0.242 -0.4446 -0.4181  0.9084
33337SOL    HW1 3603  11.108   7.039   0.251  0.7220 -2.9115 -0.1164
33337SOL    HW2 3604  10.994   7.024   0.152 -0.3438 -0.9322  0.7630
33338SOL     OW 3605   9.465   3.684   9.853 -0.5750 -0.2629 -0.3645
33338SOL    HW1 3606   9.468   3.745   9.779 -0.6337 -0.9202 -0.9102
33338SOL    HW2 3607   9.557   3.667   9.874 -0.5464 -0.8773 -0.9569
33339SOL     OW 3608   3.581   7.588   2.677  0.5560 -0.2880  0.3104
33339SOL    HW1 3609   3.642   7.515   2.677  0.8486 -0.0935 -1.7162
33339SOL    HW2 3610   3.585   7.623   2.588 -1.3095  0.7367  0.5774
33340SOL     OW 3611   7.721   3.993  10.278 -0.0701 -0.2078  0.1653
33340SOL    HW1 3612   7.738   3.987  10.184 -3.4922 -0.3196 -0.5862
33340SOL    HW2 3613   7.805   3.975  10.319  1.1130 -2.3297 -2.8247
33341SOL     OW 3614   6.995   7.850   2.756  0.8452  0.4566  0.2440
33341SOL    HW1 3615   6.909   7.878   2.725  1.0400  0.0351 -0.7223
33341SOL    HW2 3616   7.038   7.931   2.784 -0.3983  0.5196  2.2229
33342SOL     OW 3617   6.222   5.426   2.847 -0.1334 -0.4349 -0.5256
33342SOL    HW1 3618   6.127   5.435   2.842  0.0142  0.4270 -2.4191
33342SOL    HW2 3619   6.247   5.485   2.918 -0.7472  2.0805 -2.2630
33343SOL     OW 3620   6.856   4.645   2.852 -0.2455  0.0510 -0.1584
33343SOL    HW1 3621   6.816   4.728   2.825  0.7247  0.1879 -1.2723
33343SOL    HW2 3622   6.948   4.654   2.827  0.0930 -0.9546  0.6810
33344SOL     OW 3623   0.407   8.508   4.681  0.1994 -0.5603 -0.1865
33344SOL    HW1 3624   0.322   8.539   4.712  0.1533  0.1723 -1.0016
33344SOL    HW2 3625   0.388   8.429   4.632  0.2135 -1.4339  1.1565
33345SOL     OW 3626   0.107   7.352   1.383  0.4360 -0.0711  0.0335
33345SOL    HW1 3627   0.100   7.308   1.298 -1.2212 -0.1553  0.1680
33345SOL    HW2 3628   0.030   7.408   1.387  1.0851  0.7846  1.0242
33346SOL     OW 3629   3.197   8.162   9.726  0.2363 -0.1201  0.2704
33346SOL    HW1 3630   3.151   8.204   9.798  0.9286  1.6384 -0.2603
33346SOL    HW2 3631   3.159   8.202   9.647  0.0729 -1.3998 -0.3367
33347SOL     OW 3632   0.183   7.228   7.310 -0.2151 -0.0602 -0.2150
33347SOL    HW1 3633   0.105   7.172   7.312  0.2561 -0.7459 -0.3190
33347SOL    HW2 3634   0.184   7.272   7.395  0.7548 -2.1442  0.9397
33348SOL     OW 3635   9.805   8.710   3.241 -0.0550 -0.7605  0.3124
33348SOL    HW1 3636   9.870   8.674   3.301  0.2366  2.7290  2.3696
33348SOL    HW2 3637   9.856   8.741   3.166  0.1234 -1.3098  0.1987
33349SOL     OW 3638   1.069   9.293   6.974 -0.2132 -0.0825  0.1441
33349SOL    HW1 3639   1.027   9.228   7.031 -0.3335 -0.5481 -0.4690
33349SOL    HW2 3640   1.111   9.353   7.035 -2.1565  0.6879  0.8088
33350SOL     OW 3641   5.659   8.951   7.337  0.1315  0.6492 -0.0476
33350SOL    HW1 3642   5.690   8.875   7.287  0.6694 -0.9857  2.5642
33350SOL    HW2 3643   5.724   9.019   7.320  0.4463  0.0672 -1.2907
33351SOL     OW 3644   0.199   4.400   2.322  0.4237  0.7744 -0.2491
33351SOL    HW1 3645   0.204   4.377   2.415 -2.2268 -1.6310 -0.5448
33351SOL    HW2 3646   0.156   4.486   2.320  0.9309  1.0593  0.7408
33352SOL     OW 3647  10.598   5.388   5.523 -0.8826 -0.3320  0.1089
33352SOL    HW1 3648  10.579   5.433   5.606 -0.1914 -0.4119  0.3182
33352SOL    HW2 3649  10.640   5.455   5.469  2.1766 -1.1912  1.1940
33353SOL     OW 3650   7.056   9.045   1.758  0.4416  0.2059  0.8483
33353SOL    HW1 3651   7.083   9.122   1.709 -0.5489  0.7745  1.1555
33353SOL    HW2 3652   7.089   9.061   1.847  0.7276  0.0008  0.7805
33354SOL     OW 3653   7.835   2.258   6.419 -0.4930  0.5160 -0.5174
33354SOL    HW1 3654   7.818   2.166   6.396  2.1214 -0.3791  0.7705
33354SOL    HW2 3655   7.922   2.276   6.385 -0.2776  1.9912  0.6860
33355SOL     OW 3656   0.596   5.007   0.578 -0.0270 -0.2543 -0.6663
33355SOL    HW1 3657   0.527   5.041   0.635  1.0135 -1.6737  1.5500
33355SOL    HW2 3658   0.551   4.943   0.522 -1.0043  0.9679 -1.3460
33356SOL     OW 3659   8.652   5.662   6.518  0.6076  0.2612  0.3699
33356SOL    HW1 3660   8.722   5.596   6.519  0.7515  0.4240  0.8355
33356SOL    HW2 3661   8.691   5.737   6.473 -0.1751 -0.6466 -1.9707
33357SOL     OW 3662   9.096   6.638   6.332 -0.1977  0.0195  0.3072
33357SOL    HW1 3663   9.143   6.712   6.371 -1.0233  0.7832 -0.1056
33357SOL    HW2 3664   9.045   6.601   6.404  0.0998 -0.0519  0.4813
33358SOL     OW 3665   5.956   5.362   3.945 -0.5891  0.4780  0.1242
33358SOL    HW1 3666   5.867   5.395   3.931 -0.6415  1.2800  2.1105
33358SOL    HW2 3667   5.948   5.268   3.935 -1.6463  0.5457  0.2224
33359SOL     OW 3668   8.386   5.306   9.939  0.4279 -0.0237 -0.0936
33359SOL    HW1 3669   8.339   5.353   9.870 -0.4043 -0.2683  0.2891
33359SOL    HW2 3670   8.317   5.276   9.998  0.8989 -2.0087 -0.4888
33360SOL     OW 3671   0.748   4.659   9.471  0.0561 -0.1354 -0.2296
33360SOL    HW1 3672   0.795   4.582   9.438 -0.4819 -0.2956 -0.6436
33360SOL    HW2 3673   0.672   4.623   9.515 -0.9952  0.1817 -1.7006
33361SOL     OW 3674   9.497   7.870   1.069 -0.4629 -0.1092  0.1644
33361SOL    HW1 3675   9.406   7.899   1.054  0.2640  2.9077  0.7633
33361SOL    HW2 3676   9.497   7.839   1.160 -0.9419 -0.3909  0.0733
33362SOL     OW 3677   1.670  10.710   7.627 -0.4710 -0.4936  0.1594
33362SOL    HW1 3678   1.746  10.721   7.569 -0.0919 -1.9829  0.3170
33362SOL    HW2 3679   1.706  10.719   7.716 -0.1563 -2.4672  0.2954
33363SOL     OW 3680  10.554   0.723   1.915 -0.1296  0.5713 -0.0173
33363SOL    HW1 3681  10.612   0.647   1.929 -0.5257 -0.6864 -3.8162
33363SOL    HW2 3682  10.466   0.687   1.918 -0.2973  0.3828 -3.1495
33364SOL     OW 3683   9.219  10.707   3.931 -0.1072  0.3798 -0.2322
33364SOL    HW1 3684   9.180  10.643   3.872 -0.1315  0.4752 -0.3191
33364SOL    HW2 3685   9.165  10.786   3.921 -2.0286 -0.5235  2.1872
33365SOL     OW 3686   8.495   1.743   4.609 -0.4598  0.3865  0.1228
33365SOL    HW1 3687   8.402   1.735   4.587 -0.6535 -0.7552  1.1909
33365SOL    HW2 3688   8.532   1.658   4.584  0.0318  0.3855  0.8306
33366SOL     OW 3689   6.798   1.534   8.052 -0.1699 -0.2875  0.3538
33366SOL    HW1 3690   6.750   1.580   7.984 -1.1080 -1.2507  0.3328
33366SOL    HW2 3691   6.871   1.492   8.005  0.6087  1.0196  0.3557
33367SOL     OW 3692   0.006  10.808   6.065 -0.2993  0.0754  0.2267
33367SOL    HW1 3693  -0.060  10.739   6.069 -0.1719 -0.0282  0.6149
33367SOL    HW2 3694   0.080  10.767   6.020 -0.0577 -0.1847  0.8509
33368SOL     OW 3695   5.768   1.719   3.300 -0.3750  0.3416  0.1658
33368SOL    HW1 3696   5.748   1.807   3.269 -0.1624  0.2223 -0.3227
33368SOL    HW2 3697   5.821   1.680   3.230 -0.8802 -0.3453  0.1548
33369SOL     OW 3698  10.326   2.645   8.167  0.3843  0.3350  0.8378
33369SOL    HW1 3699  10.414   2.625   8.136 -0.8705  0.6246 -3.6645
33369SOL    HW2 3700  10.282   2.560   8.168 -0.2162  0.5758 -0.8317
33370SOL     OW 3701   3.691   6.117   7.337  0.0065 -0.1578  0.0567
33370SOL    HW1 3702   3.774   6.131   7.383 -0.8712 -0.9259  1.9879
33370SOL    HW2 3703   3.707   6.149   7.249  2.6754 -1.1969  0.0666
33371SOL     OW 3704   1.446   9.092   9.416  0.3006  0.4454 -0.0689
33371SOL    HW1 3705   1.493   9.101   9.333  0.4915  0.1037  0.0038
33371SOL    HW2 3706   1.358   9.123   9.396  0.7383  1.7855 -0.0299
33372SOL     OW 3707   4.378   8.224   6.626 -0.7713 -0.1587  0.1831
33372SOL    HW1 3708   4.457   8.272   6.650  0.0491 -1.2168 -0.2972
33372SOL    HW2 3709   4.332   8.210   6.708 -1.0996  1.5332  0.3166
33373SOL     OW 3710   1.848   0.699   2.067 -0.0672 -0.3758 -0.9140
33373SOL    HW1 3711   1.942   0.701   2.049 -0.1941  0.5419 -1.5265
33373SOL    HW2 3712   1.839   0.746   2.150 -0.0193 -0.2198 -0.9972
33374SOL     OW 3713   7.805   7.603   6.392 -0.8045 -0.0667 -0.7199
33374SOL    HW1 3714   7.774   7.563   6.311 -0.4479 -0.3940 -0.6953
33374SOL    HW2 3715   7.787   7.537   6.460  0.0568 -0.3175 -0.7235
33375SOL     OW 3716   7.191   7.833   0.963 -0.1531  0.5894 -0.2498
33375SOL    HW1 3717   7.114   7.888   0.950 -0.9277 -0.4584 -0.1722
33375SOL    HW2 3718   7.160   7.759   1.014 -0.4196 -2.5737 -4.5010
33376SOL     OW 3719   9.016   4.815  10.051  0.3678  0.7578 -0.2913
33376SOL    HW1 3720   9.024   4.724  10.079 -1.8090  0.5099 -0.2809
33376SOL    HW2 3721   9.097   4.856  10.081  1.2324 -1.0726  0.0490
33377SOL     OW 3722   3.633  10.648   5.109  0.4376 -0.6133  0.3168
33377SOL    HW1 3723   3.612  10.611   5.195  0.7139 -1.3592  0.0720
33377SOL    HW2 3724   3.687  10.725   5.128  0.2710 -0.6146  0.8174
33378SOL     OW 3725   0.231   7.700   2.720  0.0959 -0.2014  0.3039
33378SOL    HW1 3726   0.156   7.697   2.661  0.7654 -2.5245 -0.5219
33378SOL    HW2 3727   0.258   7.609   2.730  1.4325  0.3432  2.3950
33379SOL     OW 3728   0.103   3.267  10.374  0.3381  0.3221  0.6215
33379SOL    HW1 3729   0.066   3.353  10.395 -1.1776 -0.3609  0.9091
33379SOL    HW2 3730   0.090   3.215  10.453 -0.7895 -0.7842 -0.2398
33380SOL     OW 3731   2.919  10.250   4.153 -0.2674 -0.5482 -0.7835
33380SOL    HW1 3732   3.011  10.272   4.141 -0.2849 -0.3304 -0.5299
33380SOL    HW2 3733   2.896  10.288   4.237 -1.3264  1.8774 -2.0709
33381SOL     OW 3734   8.657   3.266   6.539 -0.1599 -0.1343  0.1021
33381SOL    HW1 3735   8.585   3.320   6.569  0.2531 -0.0983  1.1011
33381SOL    HW2 3736   8.620   3.210   6.471 -1.3731 -0.7514  1.2217
33382SOL     OW 3737   9.346   0.878   2.576  0.2067  0.2636  0.0303
33382SOL    HW1 3738   9.396   0.907   2.499  1.9085 -0.8350  0.6606
33382SOL    HW2 3739   9.283   0.815   2.541  0.1962  0.6192 -0.6083
33383SOL     OW 3740   3.513   3.152   0.743 -0.2667 -0.1165 -0.1716
33383SOL    HW1 3741   3.598   3.171   0.702  0.5459 -1.7960  0.6654
33383SOL    HW2 3742   3.450   3.195   0.686  0.9891 -0.6149 -2.0424
33384SOL     OW 3743   1.093  10.660   0.441 -0.1015 -0.0081  0.2598
33384SOL    HW1 3744   1.115  10.737   0.388  0.2619  0.0152  0.4388
33384SOL    HW2 3745   1.173  10.607   0.440 -0.1558 -0.0958  0.6257
33385SOL     OW 3746   8.224   6.335  10.228  0.2805 -0.0218 -0.2992
33385SOL    HW1 3747   8.178   6.418  10.238 -2.3673 -1.5779  1.9631
33385SOL    HW2 3748   8.272   6.344  10.146  0.2093  3.7252 -0.0930
33386SOL     OW 3749   5.278   9.504   7.420 -0.3202  0.3231  0.0954
33386SOL    HW1 3750   5.195   9.549   7.405  0.1284  1.3642  0.7066
33386SOL    HW2 3751   5.253   9.420   7.459 -1.1948 -0.2447 -1.5965
33387SOL     OW 3752   2.244   0.076   3.870  0.0710  0.0865 -0.0895
33387SOL    HW1 3753   2.175   0.119   3.820 -1.2439 -0.9203  0.7966
33387SOL    HW2 3754   2.274   0.143   3.932 -2.4340 -0.3440  1.7505
33388SOL     OW 3755   0.263   7.942   1.316 -0.0137  0.0847 -0.0909
33388SOL    HW1 3756   0.275   7.966   1.408  2.4871  1.5048 -0.6816
33388SOL    HW2 3757   0.250   8.026   1.271 -2.1193 -0.6510 -0.9826
33389SOL     OW 3758  10.837   9.530   5.581  0.4695 -0.4102  0.2066
33389SOL    HW1 3759  10.752   9.555   5.618  0.4083 -0.7173  0.2825
33389SOL    HW2 3760  10.815   9.488   5.498  0.6702  1.1553 -0.6660
33390SOL     OW 3761   5.714   8.060  10.170 -0.3957  0.0452 -0.7073
33390SOL    HW1 3762   5.703   7.999  10.096  1.8975 -0.8090 -0.4182
33390SOL    HW2 3763   5.769   8.130  10.134  1.6100 -0.8883  0.3692
33391SOL     OW 3764   8.963   5.307  10.772  0.6728 -0.2708  0.9534
33391SOL    HW1 3765   8.950   5.299  10.866  0.8513 -0.9867  0.9207
33391SOL    HW2 3766   8.879   5.340  10.739  0.6550  0.1056  1.3753
33392SOL     OW 3767   8.639   9.295   3.071  0.1847  0.5479 -0.3254
33392SOL    HW1 3768   8.678   9.211   3.095  1.1833  1.3610  1.0840
33392SOL    HW2 3769   8.556   9.273   3.028 -0.4126 -1.1097  1.5674
33393SOL     OW 3770   7.810   7.399   5.714  0.0810 -0.0254 -0.0379
33393SOL    HW1 3771   7.823   7.368   5.804 -1.3792  0.5654  0.4004
33393SOL    HW2 3772   7.731   7.353   5.684 -0.3396  0.9578 -0.4614
33394SOL     OW 3773   8.773   8.916   2.541  0.0894 -0.1325  0.4114
33394SOL    HW1 3774   8.800   8.923   2.449  0.5735 -0.3154  0.5391
33394SOL    HW2 3775   8.833   8.974   2.588  0.3479 -0.6489  0.7173
33395SOL     OW 3776   0.313   9.761   7.729  0.1893  0.1270  0.0095
33395SOL    HW1 3777   0.314   9.852   7.757 -1.1368  0.0475  0.4029
33395SOL    HW2 3778   0.330   9.711   7.809  2.2334  0.0213 -0.4276
33396SOL     OW 3779  10.569   3.191   8.324 -0.2522  0.0897 -0.2047
33396SOL    HW1 3780  10.583   3.135   8.401 -1.1947 -0.6621 -0.5537
33396SOL    HW2 3781  10.588   3.279   8.355  1.3108 -0.4020  0.3580
33397SOL     OW 3782   4.146   0.264   3.058 -0.3728 -0.3141 -0.1775
33397SOL    HW1 3783   4.190   0.296   2.980  0.0715  0.0433  0.2111
33397SOL    HW2 3784   4.126   0.173   3.039 -0.4668 -0.1728 -0.7871
33398SOL     OW 3785  10.812   1.654   5.848  0.1505 -0.1464  0.1562
33398SOL    HW1 3786  10.721   1.646   5.878  0.1208 -0.0303  0.0981
33398SOL    HW2 3787  10.863   1.663   5.929 -0.1805  2.8171  0.1345
33399SOL     OW 3788  10.846   8.931   1.145  0.6360 -0.0806  0.4725
33399SOL    HW1 3789  10.843   9.018   1.186 -2.0305 -0.2953  0.9111
33399SOL    HW2 3790  10.883   8.875   1.212  1.5115  0.5519  0.5325
33400SOL     OW 3791   1.392   3.249   5.586 -0.2124 -0.2958 -0.1102
33400SOL    HW1 3792   1.315   3.244   5.642  0.4921  1.4610  1.1315
33400SOL    HW2 3793   1.382   3.332   5.538  1.2741  0.4140  0.7324
33401SOL     OW 3794   8.768   8.936   5.904 -0.0254 -0.3272 -0.1791
33401SOL    HW1 3795   8.792   8.992   5.977  0.1371 -0.1641 -0.3561
33401SOL    HW2 3796   8.672   8.930   5.907  0.0505 -1.3923  0.8341
33402SOL     OW 3797   8.228   1.853   8.579  0.2097 -0.4199 -0.9379
33402SOL    HW1 3798   8.301   1.849   8.641 -1.4048 -1.0919  1.0231
33402SOL    HW2 3799   8.230   1.943   8.545  0.5804  0.2712  0.8205
33403SOL     OW 3800   4.727   3.431   5.643  0.2925 -0.2250  0.4837
33403SOL    HW1 3801   4.818   3.438   5.616 -0.1195  2.0413 -0.5327
33403SOL    HW2 3802   4.720   3.491   5.718 -0.4416 -0.0890  0.3118
33404SOL     OW 3803   4.337   6.647   2.011  0.2849  0.3403  0.2439
33404SOL    HW1 3804   4.401   6.622   1.944 -0.1487 -0.8649  0.2661
33404SOL    HW2 3805   4.258   6.668   1.962  0.6294  1.7175  0.2266
33405SOL     OW 3806   7.200   0.739   0.002 -0.3014  0.7382  0.0277
33405SOL    HW1 3807   7.197   0.750   0.097  0.0116  2.0863 -0.0914
33405SOL    HW2 3808   7.108   0.736  -0.025 -0.3968 -0.5214  0.4446
33406SOL     OW 3809  10.807   3.320   7.939  0.0389  0.2346  0.0044
33406SOL    HW1 3810  10.867   3.271   7.882 -0.7788  0.0394 -0.7144
33406SOL    HW2 3811  10.761   3.253   7.989  0.1457  0.3584  0.2650
33407SOL     OW 3812   6.760   0.809   4.039  0.3551  0.1546 -0.4860
33407SOL    HW1 3813   6.842   0.847   4.071 -0.3661  0.2855  1.3200
33407SOL    HW2 3814   6.709   0.885   4.010 -1.0537  0.7528  3.0441
33408SOL     OW 3815   7.034   1.838   1.769 -0.5959 -0.1889  0.2161
33408SOL    HW1 3816   7.012   1.800   1.685  0.2943  0.4324 -0.3175
33408SOL    HW2 3817   7.084   1.769   1.814 -0.1141 -0.1284 -0.2174
33409SOL     OW 3818   7.248   5.483   2.427 -0.0476  0.0603  0.4441
33409SOL    HW1 3819   7.171   5.530   2.460 -0.6577 -0.4801 -0.1763
33409SOL    HW2 3820   7.280   5.538   2.355  0.2398  0.3592  0.7964
33410SOL     OW 3821   1.062   1.461   8.421 -0.5613 -0.3131 -0.1424
33410SOL    HW1 3822   1.120   1.426   8.489 -0.5548  0.1516  0.0914
33410SOL    HW2 3823   1.040   1.385   8.367 -3.1613 -1.3777  2.2191
33411SOL     OW 3824   0.396   8.744   7.294 -0.3369 -0.5838 -0.6199
33411SOL    HW1 3825   0.491   8.738   7.292 -0.2806  0.2788 -1.9171
33411SOL    HW2 3826   0.366   8.663   7.253 -0.1393 -0.6008 -0.7324
33412SOL     OW 3827   0.680   7.507  10.880  0.5119  0.0289 -0.1718
33412SOL    HW1 3828   0.729   7.558  10.817 -0.2584 -0.5412 -1.2658
33412SOL    HW2 3829   0.744   7.447  10.918  0.8334 -0.1523 -0.9847
33413SOL     OW 3830   8.546   5.472   3.816 -0.0502  0.1294  0.3560
33413SOL    HW1 3831   8.550   5.461   3.721 -0.7872  0.7501  0.2360
33413SOL    HW2 3832   8.632   5.507   3.840 -0.4476  1.7102 -0.3589
33414SOL     OW 3833   4.969   8.413   9.936  0.0665 -0.5863 -0.2181
33414SOL    HW1 3834   5.003   8.366   9.860  1.8146 -0.9972  0.7696
33414SOL    HW2 3835   4.980   8.352  10.009 -0.0606  0.3868  0.6374
33415SOL     OW 3836  10.333  11.078   3.539 -0.2317  0.4183  0.2832
33415SOL    HW1 3837  10.365  11.083   3.449 -1.5554 -0.5255 -0.2695
33415SOL    HW2 3838  10.311  10.986   3.552 -1.2323  0.7601  1.1580
33416SOL     OW 3839   3.469   6.736   9.741 -0.0426  0.3653  0.0214
33416SOL    HW1 3840   3.382   6.702   9.758  0.6893 -1.6978 -0.1083
33416SOL    HW2 3841   3.510   6.741   9.828  0.1435  0.0593 -0.0470
33417SOL     OW 3842   7.719   0.894   0.369 -0.6122 -0.3020 -0.2190
33417SOL    HW1 3843   7.623   0.898   0.370 -0.6273 -0.4756  0.9485
33417SOL    HW2 3844   7.738   0.803   0.347 -0.8032 -1.0511  2.3762
33418SOL     OW 3845   6.258   7.387   6.702 -0.1307  0.3677  0.1717
33418SOL    HW1 3846   6.254   7.405   6.608 -2.2868  1.4022  0.4017
33418SOL    HW2 3847   6.347   7.356   6.717  0.7196  1.5773 -1.9678
33419SOL     OW 3848   4.468  10.346   9.579  0.2023 -0.4789 -0.0945
33419SOL    HW1 3849   4.438  10.309   9.662  1.5734 -0.7257  0.3213
33419SOL    HW2 3850   4.540  10.288   9.552  0.6803  0.4022 -0.7545
33420SOL     OW 3851   6.843   4.169   2.528  0.2181  0.9250 -0.0861
33420SOL    HW1 3852   6.825   4.170   2.434  1.5613 -0.9301 -0.4253
33420SOL    HW2 3853   6.939   4.173   2.535  0.1667  0.5233  1.1699
33421SOL     OW 3854   1.068   9.445  10.598  0.0608 -0.3386 -0.2459
33421SOL    HW1 3855   1.139   9.418  10.656 -1.0729 -0.5894  1.0722
33421SOL    HW2 3856   1.040   9.530  10.632 -0.7343 -0.5659 -0.2959
33422SOL     OW 3857   5.514   6.874   1.526 -0.0879 -0.0219 -0.2448
33422SOL    HW1 3858   5.470   6.791   1.510 -2.9831  1.3396 -0.0299
33422SOL    HW2 3859   5.539   6.905   1.438  1.0075 -1.0753 -0.3224
33423SOL     OW 3860   3.894  10.437   1.178  0.3337  0.2023  0.1714
33423SOL    HW1 3861   3.862  10.347   1.177  0.8403  0.0018  0.9526
33423SOL    HW2 3862   3.826  10.487   1.133 -0.0444 -0.5415 -0.1014
33424SOL     OW 3863   2.960   0.078   0.196 -0.2382 -0.8720 -0.4296
33424SOL    HW1 3864   3.000   0.010   0.141  1.0445 -1.6491  1.3715
33424SOL    HW2 3865   3.028   0.101   0.259 -1.1591  1.0479 -0.0645
33425SOL     OW 3866  10.890   9.799   0.597  0.3681  0.0322 -0.1596
33425SOL    HW1 3867  10.912   9.785   0.505  0.1688 -0.0951 -0.1885
33425SOL    HW2 3868  10.798   9.774   0.604  0.5374 -0.5189  0.1952
33426SOL     OW 3869   9.071   4.561   9.454 -0.3094  0.0436 -0.5899
33426SOL    HW1 3870   8.987   4.516   9.465 -0.2670 -0.0359 -0.5882
33426SOL    HW2 3871   9.094   4.589   9.543  0.2332 -0.9659 -0.3946
33427SOL     OW 3872   2.162   2.449  10.464 -0.1411  0.3719 -0.2464
33427SOL    HW1 3873   2.167   2.354  10.451  3.3427  0.1761  1.2890
33427SOL    HW2 3874   2.169   2.485  10.375 -1.0243 -0.7782 -0.8124
33428SOL     OW 3875   6.849  10.425  10.702  0.6522  0.9419  0.5320
33428SOL    HW1 3876   6.768  10.423  10.753  0.4583 -0.3161  0.2010
33428SOL    HW2 3877   6.826  10.472  10.622 -0.2427 -0.8454 -0.3141
33429SOL     OW 3878   4.968   5.467   9.958  0.1755 -0.6637  0.1371
33429SOL    HW1 3879   4.970   5.472  10.053  0.3255  0.3744  0.0901
33429SOL    HW2 3880   4.961   5.374   9.939 -0.9629 -0.8156  1.1749
33430SOL     OW 3881   5.948   5.627   0.403 -0.4129  0.0945 -0.2651
33430SOL    HW1 3882   5.853   5.642   0.404 -0.4548 -0.1355  0.7288
33430SOL    HW2 3883   5.981   5.685   0.472 -0.2258 -2.1233  1.6140
33431SOL     OW 3884   8.800  10.093   6.032  0.1982  0.6313  0.3461
33431SOL    HW1 3885   8.817  10.013   5.982 -0.4677  0.4005  0.4889
33431SOL    HW2 3886   8.706  10.105   6.027  0.3986  2.0408 -0.6235
33432SOL     OW 3887   5.870   5.927   7.187 -0.4393  0.0677 -0.1912
33432SOL    HW1 3888   5.867   5.920   7.091 -0.2322 -1.5841 -0.1121
33432SOL    HW2 3889   5.962   5.909   7.209 -0.5644  0.0667  0.3340
33433SOL     OW 3890   2.506  10.338   6.373  0.5067  0.2204  0.0251
33433SOL    HW1 3891   2.447  10.396   6.325  0.8368 -0.4098 -1.1993
33433SOL    HW2 3892   2.591  10.350   6.330  1.0863  0.4697  1.1951
33434SOL     OW 3893   1.479   0.026  10.743  0.6598 -0.1035 -0.2796
33434SOL    HW1 3894   1.563   0.057  10.709  1.0525  1.5238  2.0063
33434SOL    HW2 3895   1.426   0.105  10.752 -0.1789 -0.7707  0.8018
33435SOL     OW 3896   4.392   5.043   8.156  0.6483 -0.4018  0.1290
33435SOL    HW1 3897   4.346   4.959   8.156 -0.1487  0.0053  1.6558
33435SOL    HW2 3898   4.438   5.046   8.240 -0.2435  1.1464  0.6030
33436SOL     OW 3899   6.914   5.680   9.308  0.2600 -0.1534  0.0707
33436SOL    HW1 3900   6.886   5.661   9.219  0.0596 -0.1361  0.1286
33436SOL    HW2 3901   6.927   5.593   9.348 -0.1683 -0.1637  0.1851
33437SOL     OW 3902   9.177   7.298   5.347 -0.0446 -0.0143 -0.2090
33437SOL    HW1 3903   9.205   7.316   5.436 -0.2652 -1.8454  0.2862
33437SOL    HW2 3904   9.100   7.353   5.334  0.2391  0.5794  0.5771
33438SOL     OW 3905   1.304   4.234   5.124  0.1335  0.0937 -0.1439
33438SOL    HW1 3906   1.290   4.186   5.042 -1.3253  2.1548 -1.1778
33438SOL    HW2 3907   1.376   4.187   5.166  0.4376 -1.4964 -2.2306
33439SOL     OW 3908   7.499   2.449   4.952  0.7133 -0.0795  0.3200
33439SOL    HW1 3909   7.530   2.459   4.862  1.8940 -1.5062  0.5276
33439SOL    HW2 3910   7.457   2.532   4.972  2.0842  0.9619 -0.9141
33440SOL     OW 3911   7.389   8.488   9.484 -0.3734  0.8041  0.4635
33440SOL    HW1 3912   7.413   8.579   9.468 -1.7270  1.0265 -0.5404
33440SOL    HW2 3913   7.349   8.460   9.402  0.8954 -1.0197  0.4073
33441SOL     OW 3914   2.191   6.603   2.548 -0.4419 -0.5916  0.0152
33441SOL    HW1 3915   2.209   6.510   2.531  1.0602 -0.4486  0.6911
33441SOL    HW2 3916   2.124   6.602   2.616  0.2446 -1.1997  0.7015
33442SOL     OW 3917   8.298   0.676  10.314  0.6789 -0.0461 -0.3624
33442SOL    HW1 3918   8.273   0.626  10.392  0.1098 -1.1065 -1.1925
33442SOL    HW2 3919   8.390   0.655  10.300  0.7156 -0.0499 -0.1131
33443SOL     OW 3920   1.626   9.102   2.259 -0.4061 -1.2758  0.0080
33443SOL    HW1 3921   1.690   9.059   2.316  0.4733 -0.7697 -0.5649
33443SOL    HW2 3922   1.679   9.163   2.207 -1.4318 -0.4779 -0.1249
33444SOL     OW 3923   8.202   3.950   0.365  0.1583  0.4721 -0.3670
33444SOL    HW1 3924   8.250   4.031   0.346 -0.6918  0.8344 -1.0346
33444SOL    HW2 3925   8.269   3.890   0.397  0.6271  1.8024  1.2875
33445SOL     OW 3926   4.797   8.698   3.444 -0.1217  0.1402  0.3143
33445SOL    HW1 3927   4.827   8.676   3.532  0.6770  2.2969  0.6484
33445SOL    HW2 3928   4.703   8.684   3.446 -0.0464 -0.2981  1.3698
33446SOL     OW 3929   0.059   7.925   1.580  0.1893  0.3052 -0.0253
33446SOL    HW1 3930   0.138   7.980   1.575  2.2302 -2.1149  2.2861
33446SOL    HW2 3931   0.050   7.907   1.674 -2.3233 -0.6920 -0.3942
33447SOL     OW 3932   8.036   6.770   6.258  0.1642 -0.0238  0.5379
33447SOL    HW1 3933   7.995   6.824   6.190 -1.0861 -0.9534  0.5031
33447SOL    HW2 3934   8.090   6.708   6.209 -0.7562 -0.7100  0.3442
33448SOL     OW 3935   4.458   1.396  10.599  0.0260  0.1694 -0.9582
33448SOL    HW1 3936   4.379   1.372  10.648  1.0136 -0.5271  0.3313
33448SOL    HW2 3937   4.436   1.480  10.558 -0.4908  1.3364  1.5409
33449SOL     OW 3938   7.955   6.076   0.301 -0.2978 -0.4298 -0.3808
33449SOL    HW1 3939   7.898   6.009   0.264  0.3250 -1.5961  0.7185
33449SOL    HW2 3940   7.931   6.156   0.254 -2.6851 -0.9120 -0.1069
33450SOL     OW 3941   5.076   2.569   7.427 -0.7168 -0.2912 -0.3262
33450SOL    HW1 3942   5.161   2.614   7.429 -1.1717  0.5820  0.3015
33450SOL    HW2 3943   5.091   2.492   7.372  0.5935 -0.3800  0.0997
33451SOL     OW 3944   1.806   4.836   6.975 -0.3900  0.4299  0.3031
33451SOL    HW1 3945   1.855   4.913   7.004 -0.8245  0.4912  0.8841
33451SOL    HW2 3946   1.797   4.782   7.054  0.8943 -0.7736 -0.3168
33452SOL     OW 3947   9.867  10.458   9.090  0.3548  0.1598  0.1515
33452SOL    HW1 3948   9.815  10.531   9.123  0.8134  0.3477  0.4681
33452SOL    HW2 3949   9.946  10.498   9.054 -0.0453 -0.0629 -1.0046
33453SOL     OW 3950   7.424  10.532  10.825 -0.3031  0.2619  0.2794
33453SOL    HW1 3951   7.491  10.577  10.876  0.3023 -0.6103  0.2868
33453SOL    HW2 3952   7.470  10.496  10.750 -0.6226 -0.8762  0.5979
33454SOL     OW 3953   0.892   5.477   8.475 -0.0390  0.4434  0.2485
33454SOL    HW1 3954   0.816   5.478   8.417 -0.5140  0.2181  0.8513
33454SOL    HW2 3955   0.939   5.558   8.455  0.9275 -0.5632 -1.8712
33455SOL     OW 3956   5.698   8.582   0.453 -0.2797 -0.0600  0.5805
33455SOL    HW1 3957   5.734   8.599   0.366 -1.2163  1.1485  0.3922
33455SOL    HW2 3958   5.748   8.508   0.486  0.7451  0.0717 -0.5980
33456SOL     OW 3959   2.094   6.042   0.826  0.1788 -0.2806 -0.3749
33456SOL    HW1 3960   2.166   6.090   0.867  0.6941  0.1539 -1.7515
33456SOL    HW2 3961   2.107   6.054   0.732 -1.4995 -0.4872 -0.6607
33457SOL     OW 3962   5.059   8.913  10.008 -0.2541  0.2259 -0.0264
33457SOL    HW1 3963   5.022   8.923   9.920 -2.0923 -0.0290  0.6744
33457SOL    HW2 3964   5.126   8.845   9.998 -1.7442 -1.1744 -0.8916
33458SOL     OW 3965   9.483   8.024   8.916 -0.3152  0.3509  0.1141
33458SOL    HW1 3966   9.447   7.935   8.914  1.9653 -0.6405  0.5036
33458SOL    HW2 3967   9.429   8.073   8.854 -2.6116 -0.8736  1.0288
33459SOL     OW 3968   3.008   7.553   9.754  0.9720 -0.0437 -0.0568
33459SOL    HW1 3969   2.973   7.613   9.688  1.1383  0.3603  0.2171
33459SOL    HW2 3970   3.089   7.519   9.716  2.4471  2.1278  0.9264
33460SOL     OW 3971  10.915  10.733   3.896  0.3424  0.0454  0.1924
33460SOL    HW1 3972  10.991  10.758   3.842  0.1404  0.5278  0.1254
33460SOL    HW2 3973  10.931  10.642   3.919  0.8468  0.0848  0.0111
33461SOL     OW 3974   8.132   8.581  10.465 -0.0295  0.1115 -0.7278
33461SOL    HW1 3975   8.221   8.608  10.487 -0.3779  1.3157 -0.7577
33461SOL    HW2 3976   8.082   8.599  10.544 -0.3457 -0.1242 -0.8740
33462SOL     OW 3977   8.521   9.000   1.123 -0.1059  0.3250  0.4857
33462SOL    HW1 3978   8.595   9.033   1.174  0.5215 -0.7807  0.3225
33462SOL    HW2 3979   8.537   9.032   1.034 -0.2845  0.8015  0.6216
33463SOL     OW 3980   0.631   6.963   2.982  0.4178  0.0841 -0.5843
33463SOL    HW1 3981   0.699   6.910   3.023  0.6084  0.6389 -0.1911
33463SOL    HW2 3982   0.642   6.946   2.888 -0.4926 -1.7731 -0.4118
33464SOL     OW 3983   0.920  11.088   1.373 -0.7014  0.1988 -0.3910
33464SOL    HW1 3984   0.959  11.163   1.328 -0.6640 -0.0672 -0.8088
33464SOL    HW2 3985   0.844  11.064   1.319  0.1065 -0.9497 -1.0561
33465SOL     OW 3986   1.292   1.237   5.253  0.0283  0.1403 -0.4888
33465SOL    HW1 3987   1.372   1.190   5.277  1.0632  1.8128 -0.5069
33465SOL    HW2 3988   1.255   1.186   5.181  0.6811 -1.0491 -0.0190
33466SOL     OW 3989   7.300   1.638   9.163 -0.6156 -0.4161 -0.3363
33466SOL    HW1 3990   7.369   1.580   9.195 -1.1033  0.0925  1.8188
33466SOL    HW2 3991   7.219   1.603   9.201 -1.0891  0.9248 -0.0596
33467SOL     OW 3992   5.570   0.195   1.364  1.0041  0.0119 -0.1496
33467SOL    HW1 3993   5.602   0.267   1.420  2.1716 -2.1563  2.1611
33467SOL    HW2 3994   5.483   0.175   1.398  1.6162 -1.1462  0.8049
33468SOL     OW 3995   6.757   1.007   3.162 -0.0853  0.4963  0.6794
33468SOL    HW1 3996   6.833   1.036   3.214  1.1843 -2.2841  0.5595
33468SOL    HW2 3997   6.774   1.042   3.074  1.6426 -0.8851  0.4116
33469SOL     OW 3998   9.705   5.915   4.610  0.2595  0.4010 -0.0667
33469SOL    HW1 3999   9.798   5.940   4.607  0.1739  1.1493  2.0921
33469SOL    HW2 4000   9.670   5.962   4.685 -1.0684 -2.4802  1.2601
33470SOL     OW 4001   5.754   3.041   7.772  0.1108 -0.2566 -0.1969
33470SOL    HW1 4002   5.815   2.977   7.735 -0.9338 -0.9880 -0.7134
33470SOL    HW2 4003   5.720   2.998   7.851 -1.8178 -1.1076 -1.4005
33471SOL     OW 4004   7.038   3.297   5.996 -0.0100 -0.4861  0.4992
33471SOL    HW1 4005   7.034   3.388   6.028 -0.4072  0.0074 -0.8543
33471SOL    HW2 4006   7.011   3.244   6.071  2.0181  0.3467  1.8838
33472SOL     OW 4007   8.905   7.986   0.270  0.1327 -0.4520  0.1983
33472SOL    HW1 4008   8.936   7.913   0.324 -0.0899 -0.9430 -0.3283
33472SOL    HW2 4009   8.841   7.946   0.210 -0.8470  0.3753  0.6560
33473SOL     OW 4010   8.085   1.066   6.770  0.4300  0.5021  0.2397
33473SOL    HW1 4011   7.996   1.030   6.772  0.6926 -0.1329  1.1955
33473SOL    HW2 4012   8.079   1.149   6.817  0.4855  0.0809  1.0120
33474SOL     OW 4013   0.245   3.740   9.139 -0.1140 -0.7908  0.1721
33474SOL    HW1 4014   0.274   3.711   9.052 -1.2961 -2.2168  0.2136
33474SOL    HW2 4015   0.191   3.817   9.121  1.0718  0.0089 -0.1622
33475SOL     OW 4016   4.902   0.234   9.118 -0.4102 -0.0381  0.4424
33475SOL    HW1 4017   4.933   0.324   9.105  0.6336 -0.6028 -1.2320
33475SOL    HW2 4018   4.977   0.187   9.154 -0.8612 -0.3336  1.0303
33476SOL     OW 4019   0.107   3.084  11.052  0.1012  0.2852  0.0368
33476SOL    HW1 4020   0.098   3.048  11.141 -1.4996  0.1199 -0.1678
33476SOL    HW2 4021   0.020   3.116  11.030  0.2336 -0.5578 -1.8674
33477SOL     OW 4022   6.884   6.844   9.039  0.2051  0.1972 -0.1998
33477SOL    HW1 4023   6.900   6.928   9.084  1.0437  0.4599 -0.9655
33477SOL    HW2 4024   6.954   6.838   8.974 -1.2026  0.0063 -1.7484
33478SOL     OW 4025   2.553   2.407   4.012 -0.0526  0.4606 -0.1375
33478SOL    HW1 4026   2.625   2.343   4.017  0.5412  1.0546 -0.9384
33478SOL    HW2 4027   2.537   2.432   4.103 -0.3648 -0.8946  0.2025
33479SOL     OW 4028   1.443   4.092   2.422 -0.0802 -0.0942 -0.2442
33479SOL    HW1 4029   1.496   4.051   2.354  0.5138  1.5733 -0.8549
33479SOL    HW2 4030   1.367   4.127   2.376  0.0827  0.6286  0.0227
33480SOL     OW 4031   7.112   5.475   6.209  0.1621 -0.0741  0.0885
33480SOL    HW1 4032   7.064   5.400   6.174 -1.3571  0.1929  1.4749
33480SOL    HW2 4033   7.045   5.543   6.219  1.3940  1.3166 -0.6051
33481SOL     OW 4034   8.309   4.319   8.326 -0.7205 -0.0365  0.2845
33481SOL    HW1 4035   8.263   4.388   8.277 -0.0717  0.4068  0.2904
33481SOL    HW2 4036   8.389   4.304   8.276 -1.2446 -1.4023 -0.1940
33482SOL     OW 4037   8.717   1.961  11.105  0.4497  0.5750 -0.4779
33482SOL    HW1 4038   8.749   1.873  11.087 -0.7268 -0.2651  1.2092
33482SOL    HW2 4039   8.716   2.004  11.020  0.3551 -1.2822 -1.4798
33483SOL     OW 4040  10.385   5.365   1.964 -0.1366  0.6545  0.0614
33483SOL    HW1 4041  10.385   5.442   2.020 -0.0680  1.7934 -1.4580
33483SOL    HW2 4042  10.324   5.386   1.893  0.4790 -0.3585 -0.8003
33484SOL     OW 4043   8.729   9.115   8.798  0.6415 -0.0963  0.0385
33484SOL    HW1 4044   8.745   9.209   8.791 -0.8841  0.1323 -0.6612
33484SOL    HW2 4045   8.728   9.083   8.708 -0.2195 -0.5244  0.1839
33485SOL     OW 4046  11.054   3.023   9.664 -0.3090 -0.3374 -0.3855
33485SOL    HW1 4047  10.981   3.024   9.726  0.1553  0.0483  0.1684
33485SOL    HW2 4048  11.132   3.018   9.719  0.0852 -0.7785 -0.9729
33486SOL     OW 4049   2.936   0.139   2.749  0.2456  0.2688  0.3464
33486SOL    HW1 4050   2.920   0.233   2.743 -0.2878  0.2446  1.2407
33486SOL    HW2 4051   3.024   0.132   2.785  0.2124  0.4386  0.4648
33487SOL     OW 4052  10.874   5.782   9.711 -0.2047 -0.0929 -0.0427
33487SOL    HW1 4053  10.803   5.845   9.720  0.9651  1.2717 -0.0471
33487SOL    HW2 4054  10.834   5.698   9.731 -2.5150  0.1994 -2.8139
33488SOL     OW 4055   1.098   8.383  11.000 -0.1213  0.0144  0.6564
33488SOL    HW1 4056   1.087   8.411  11.091  1.0070  0.7845  0.5799
33488SOL    HW2 4057   1.091   8.288  11.003  0.1204  0.0160  1.5896
33489SOL     OW 4058   1.780   3.396   2.818 -0.3041  0.0866  0.2044
33489SOL    HW1 4059   1.847   3.456   2.851 -0.5699  0.3719  0.2284
33489SOL    HW2 4060   1.754   3.434   2.734 -0.1999 -0.2046  0.0391
33490SOL     OW 4061  10.249   9.138   4.930 -0.2433  0.4101 -0.0583
33490SOL    HW1 4062  10.252   9.232   4.911 -1.3726  0.2551 -1.1673
33490SOL    HW2 4063  10.197   9.132   5.010 -0.2267  0.7302 -0.0219
33491SOL     OW 4064   0.428  11.026  10.603  0.6297  0.7136  0.3208
33491SOL    HW1 4065   0.345  10.981  10.618  1.8541 -1.1426  2.0595
33491SOL    HW2 4066   0.413  11.078  10.523 -1.6528 -0.8308 -0.3605
33492SOL     OW 4067   2.335   2.463   5.812  0.1605 -0.0705  0.1326
33492SOL    HW1 4068   2.363   2.372   5.810 -0.7102 -0.3320 -0.4095
33492SOL    HW2 4069   2.296   2.474   5.899  3.2298  0.7308  1.5621
33493SOL     OW 4070   3.565   6.557   4.500  0.4001  0.4787  0.0524
33493SOL    HW1 4071   3.645   6.510   4.523 -0.0389 -0.1174  0.3750
33493SOL    HW2 4072   3.555   6.542   4.406 -0.1482 -0.7312  0.2866
33494SOL     OW 4073   3.685   6.249   9.442  0.4123 -0.5791  0.1011
33494SOL    HW1 4074   3.749   6.320   9.438 -0.2678  0.0272 -0.3323
33494SOL    HW2 4075   3.670   6.225   9.351 -0.4107 -0.3080  0.1571
33495SOL     OW 4076   2.797   4.093   0.296 -0.1826 -0.0121 -0.1424
33495SOL    HW1 4077   2.727   4.063   0.355 -0.7623  1.9003  0.1930
33495SOL    HW2 4078   2.851   4.015   0.283 -0.3056 -0.6703  2.5422
33496SOL     OW 4079   6.047   2.541   1.372  0.1593  0.0422 -0.1390
33496SOL    HW1 4080   6.090   2.620   1.340  0.5058  0.3094  0.9562
33496SOL    HW2 4081   6.061   2.542   1.466 -0.6441 -0.8420  0.0100
33497SOL     OW 4082   0.150   9.459   6.534 -0.2913  0.7187  0.0049
33497SOL    HW1 4083   0.086   9.530   6.535 -1.1134 -0.0129  0.4096
33497SOL    HW2 4084   0.098   9.379   6.526  0.6794  0.2018 -1.6729
33498SOL     OW 4085   8.769   8.504   0.166 -0.1749 -0.2228  0.2490
33498SOL    HW1 4086   8.701   8.566   0.192 -0.8370 -0.6607 -0.4167
33498SOL    HW2 4087   8.799   8.534   0.081 -3.6810 -3.2014 -2.3764
33499SOL     OW 4088   9.810   7.451   8.387 -0.4401  0.4668  0.3672
33499SOL    HW1 4089   9.728   7.403   8.380  0.0019 -0.1091 -1.6670
33499SOL    HW2 4090   9.848   7.423   8.470 -1.5635 -0.4587  0.5916
33500SOL     OW 4091   9.181   4.529   1.705 -0.3390  0.8677  0.2088
33500SOL    HW1 4092   9.170   4.569   1.619 -0.5710  1.2179  0.3977
33500SOL    HW2 4093   9.096   4.541   1.748  0.2296  2.0965  1.0648
33501SOL     OW 4094   4.285   9.479   5.896  0.0679  0.0446 -0.1662
33501SOL    HW1 4095   4.289   9.457   5.989  1.6734  0.3609 -0.1281
33501SOL    HW2 4096   4.290   9.575   5.894  2.0091 -0.0172 -0.5989
33502SOL     OW 4097  10.765   5.238   2.072  0.7933  0.6311 -0.3688
33502SOL    HW1 4098  10.708   5.307   2.108  0.0018 -0.1590 -0.0662
33502SOL    HW2 4099  10.705   5.169   2.046  1.6508 -0.6039  0.7772
33503SOL     OW 4100   5.296   4.258   9.309  0.1698  0.2158  0.1565
33503SOL    HW1 4101   5.384   4.253   9.347  1.6752  2.5528 -2.5938
33503SOL    HW2 4102   5.297   4.193   9.238  0.5292  1.6717 -1.2361
33504SOL     OW 4103   2.246   6.602   5.788 -0.6553  0.3405 -0.0442
33504SOL    HW1 4104   2.184   6.639   5.851 -1.2623  1.1184 -1.0698
33504SOL    HW2 4105   2.207   6.519   5.761 -1.2382  0.7968 -0.6373
33505SOL     OW 4106   4.709   5.421   9.692  0.3546 -0.0062  0.0249
33505SOL    HW1 4107   4.726   5.341   9.641 -2.2537 -0.8568  0.3679
33505SOL    HW2 4108   4.725   5.395   9.783  0.1136  0.0439  0.0823
33506SOL     OW 4109   2.930   9.159   3.295  0.4239 -0.2217  0.2917
33506SOL    HW1 4110   2.881   9.123   3.222  0.1552  1.2304 -0.2621
33506SOL    HW2 4111   3.021   9.131   3.279  0.4137  0.3023 -0.7492
33507SOL     OW 4112   7.934   9.070  10.454  0.0826  0.3271  0.3831
33507SOL    HW1 4113   7.917   9.163  10.440  0.5463  0.3661  0.0621
33507SOL    HW2 4114   7.869   9.026  10.398  1.4872  0.4813 -1.4659
33508SOL     OW 4115   3.918   1.223   6.631  0.1768 -0.4131  0.5404
33508SOL    HW1 4116   3.884   1.309   6.654  1.5199 -0.1180  1.5241
33508SOL    HW2 4117   3.846   1.163   6.651 -0.9958  0.4960 -0.7305
33509SOL     OW 4118   6.408  10.545   9.817 -0.1564 -0.2014  0.5170
33509SOL    HW1 4119   6.486  10.581   9.775 -0.3126  0.2240  0.5887
33509SOL    HW2 4120   6.346  10.530   9.745  0.1860 -1.0601  0.3896
33510SOL     OW 4121   1.088   1.505   0.494  0.6192  0.4416  0.3486
33510SOL    HW1 4122   1.181   1.507   0.517  0.5506  0.5012  0.6183
33510SOL    HW2 4123   1.046   1.458   0.566  0.6643 -1.1055 -0.5822
33511SOL     OW 4124   5.789  10.103   0.718 -0.1939  0.7782 -0.0377
33511SOL    HW1 4125   5.876  10.081   0.685 -0.4819  0.9277 -0.9155
33511SOL    HW2 4126   5.780  10.197   0.702 -1.5296  0.3138 -2.4431
33512SOL     OW 4127   4.439   8.987   0.550  0.6267 -0.3416  0.4481
33512SOL    HW1 4128   4.413   8.896   0.540  1.7790 -0.7323  0.8785
33512SOL    HW2 4129   4.362   9.037   0.524 -0.2307 -1.4400  0.8029
33513SOL     OW 4130   1.735   8.079   8.300  0.1687  0.8524 -0.1974
33513SOL    HW1 4131   1.647   8.055   8.270  0.4909  0.5267 -0.8979
33513SOL    HW2 4132   1.724   8.166   8.338 -0.3222  1.1227 -0.9231
33514SOL     OW 4133   9.730   0.856   2.735  0.5399 -0.4349  0.2506
33514SOL    HW1 4134   9.793   0.821   2.672  0.3981 -0.2259 -0.0116
33514SOL    HW2 4135   9.675   0.915   2.683  0.2465 -0.4733  0.5146
33515SOL     OW 4136   5.774   8.531   3.504  0.0199 -0.2579  0.1684
33515SOL    HW1 4137   5.829   8.568   3.435 -0.7558 -0.7788 -0.7644
33515SOL    HW2 4138   5.698   8.589   3.507  1.2131  1.3397  2.4883
33516SOL     OW 4139   0.806   4.040   3.253  0.0340  0.3303  0.0396
33516SOL    HW1 4140   0.726   4.002   3.290  1.4356 -1.5408  1.3293
33516SOL    HW2 4141   0.828   3.982   3.180  0.8173  0.1307  0.4227
33517SOL     OW 4142   9.199  10.980   8.227  0.3399  0.6633  0.1190
33517SOL    HW1 4143   9.181  10.936   8.311 -2.2686 -0.0644 -0.7221
33517SOL    HW2 4144   9.292  10.963   8.211 -0.1224 -3.2424  0.6376
33518SOL     OW 4145   5.348   3.822   2.755  0.7545 -0.6479 -0.2439
33518SOL    HW1 4146   5.417   3.888   2.755 -0.8012  1.0564 -0.2967
33518SOL    HW2 4147   5.301   3.837   2.673  1.0486 -2.6302 -0.8319
33519SOL     OW 4148   2.236   7.760   6.879  0.0233  0.9691 -0.3868
33519SOL    HW1 4149   2.236   7.773   6.784  0.4707  0.3209 -0.4863
33519SOL    HW2 4150   2.191   7.837   6.914 -1.7532  0.3839 -1.2444
33520SOL     OW 4151   3.744   1.593   2.691  0.4349 -0.4262  0.4880
33520SOL    HW1 4152   3.681   1.542   2.742 -1.3888  0.1320 -1.0846
33520SOL    HW2 4153   3.741   1.680   2.729  0.7878 -0.5625  0.8380
33521SOL     OW 4154   2.161   2.213   1.948  0.0073 -0.4962 -0.0480
33521SOL    HW1 4155   2.144   2.145   1.882  1.1286 -0.4443 -0.4100
33521SOL    HW2 4156   2.252   2.198   1.975  0.1219  0.5771  0.2057
33522SOL     OW 4157   0.585   9.389   4.530 -0.2201  0.3410 -0.2064
33522SOL    HW1 4158   0.539   9.314   4.490 -0.0653  0.8748 -1.4455
33522SOL    HW2 4159   0.675   9.380   4.499 -0.2697  1.1998 -0.6283
33523SOL     OW 4160   7.285   6.379   2.269 -0.2413 -0.4673 -0.4033
33523SOL    HW1 4161   7.271   6.285   2.276  1.7413 -0.8902 -1.3941
33523SOL    HW2 4162   7.316   6.393   2.180  0.1224  1.0398 -0.0797
33524SOL     OW 4163   9.544   4.612   1.763 -0.9439  0.3317 -0.6970
33524SOL    HW1 4164   9.632   4.648   1.769 -0.2118 -1.2132 -1.4248
33524SOL    HW2 4165   9.496   4.652   1.836  0.8129 -0.0233  0.7244
33525SOL     OW 4166   1.095   9.445   1.856 -0.6174  0.3140  0.4272
33525SOL    HW1 4167   1.027   9.408   1.799 -0.3914 -0.2072  0.4899
33525SOL    HW2 4168   1.114   9.530   1.818  0.3372 -0.4734 -0.9552
33526SOL     OW 4169   5.852   8.959   9.762  0.5602  0.0164 -0.4781
33526SOL    HW1 4170   5.911   8.887   9.739  0.4398 -0.0069 -0.7284
33526SOL    HW2 4171   5.904   9.038   9.747  0.6584 -0.0148 -0.3054
33527SOL     OW 4172  10.738   3.209   5.521  0.3664 -0.2537 -0.0883
33527SOL    HW1 4173  10.689   3.232   5.443  0.9837  0.2162 -0.3528
33527SOL    HW2 4174  10.706   3.122   5.546 -1.3722  0.4841  0.4007
33528SOL     OW 4175   2.372   6.432   1.304 -0.3580  0.4385 -0.4861
33528SOL    HW1 4176   2.407   6.344   1.290 -0.6139  0.1729  0.4485
33528SOL    HW2 4177   2.448   6.485   1.325 -0.0615  0.6929 -2.0684
33529SOL     OW 4178  10.814   3.805   8.006  0.1680 -0.0489 -0.1621
33529SOL    HW1 4179  10.909   3.807   8.018  0.2863  0.8703 -1.1493
33529SOL    HW2 4180  10.789   3.896   7.993 -0.6440 -0.4271 -1.4352
33530SOL     OW 4181   3.716   3.873   3.868 -0.1732 -0.1166  0.1159
33530SOL    HW1 4182   3.710   3.807   3.936  0.3649 -0.9332 -0.6029
33530SOL    HW2 4183   3.798   3.920   3.887 -0.6052  0.4199  0.6825
33531SOL     OW 4184   3.446   9.828   7.749  0.1673 -0.1864 -0.3625
33531SOL    HW1 4185   3.379   9.893   7.727  0.0649  0.0977  0.7455
33531SOL    HW2 4186   3.406   9.745   7.725 -0.8594 -0.0775  0.8634
33532SOL     OW 4187   9.924   9.104   3.060  0.2209  0.7029 -0.0332
33532SOL    HW1 4188   9.957   9.069   3.143 -1.0353  1.1967  0.6856
33532SOL    HW2 4189   9.967   9.050   2.994 -0.7692 -1.4866  1.0001
33533SOL     OW 4190  11.028   8.569   8.331  0.7854 -0.4042  0.4343
33533SOL    HW1 4191  10.941   8.584   8.367  0.9496  0.9091  0.3420
33533SOL    HW2 4192  11.085   8.628   8.382  1.4265 -0.4090 -0.2681
33534SOL     OW 4193   0.729   1.726   5.448 -0.3743 -0.3380 -0.0624
33534SOL    HW1 4194   0.726   1.774   5.531  1.4028 -0.7347  0.2590
33534SOL    HW2 4195   0.803   1.764   5.402 -0.9189 -0.6161 -1.1879
33535SOL     OW 4196   2.574   6.648   9.266  0.2221 -0.5084  0.2731
33535SOL    HW1 4197   2.519   6.703   9.322 -0.9441 -0.2627 -1.0503
33535SOL    HW2 4198   2.641   6.613   9.325 -1.0601 -0.4198  1.8684
33536SOL     OW 4199   1.550   2.124   7.877  0.0986  0.1697  0.1523
33536SOL    HW1 4200   1.477   2.165   7.830  0.8572 -1.5936 -2.8265
33536SOL    HW2 4201   1.577   2.051   7.821  4.0831  0.6252  1.1872
33537SOL     OW 4202   7.817  11.000   5.327  0.4055 -0.6130 -0.2350
33537SOL    HW1 4203   7.801  11.094   5.341 -0.7417 -0.4741 -2.1523
33537SOL    HW2 4204   7.883  10.997   5.258  0.5932 -1.2411 -0.0325
33538SOL     OW 4205   8.231   1.180   9.077 -0.2306 -0.2606 -0.2148
33538SOL    HW1 4206   8.198   1.215   9.160 -0.4043  0.8948 -0.7446
33538SOL    HW2 4207   8.290   1.109   9.103  0.4773  0.7048  0.9645
33539SOL     OW 4208   3.256   6.226   8.994 -0.0077  0.0876 -0.3270
33539SOL    HW1 4209   3.232   6.303   8.942  0.4890  0.2850 -0.2711
33539SOL    HW2 4210   3.347   6.242   9.019 -0.1612 -0.1407  0.3759
33540SOL     OW 4211   6.983   2.280   3.400 -0.3384 -0.3313  0.2113
33540SOL    HW1 4212   6.908   2.289   3.458 -0.0907 -1.9022  0.8355
33540SOL    HW2 4213   7.059   2.287   3.458 -0.0918 -3.4434  0.4708
33541SOL     OW 4214   0.377   7.195   2.384  0.2341  0.2996 -1.1901
33541SOL    HW1 4215   0.409   7.119   2.336  0.7522 -0.6818  0.6310
33541SOL    HW2 4216   0.285   7.174   2.403  0.8124 -0.7102  0.7666
33542SOL     OW 4217   8.638   8.258   5.520  0.0952  0.1769  0.0278
33542SOL    HW1 4218   8.606   8.228   5.605  0.3394  0.6211  0.2826
33542SOL    HW2 4219   8.562   8.255   5.462 -0.1087  0.0175  0.3023
33543SOL     OW 4220   2.508   5.048   4.685 -0.4054  0.5035 -0.1531
33543SOL    HW1 4221   2.490   5.087   4.771 -0.0939  2.3575 -0.8717
33543SOL    HW2 4222   2.471   4.960   4.690  1.4690 -0.2741  2.6150
33544SOL     OW 4223   1.343   1.673   2.361  0.3564  0.0674  0.0337
33544SOL    HW1 4224   1.321   1.580   2.363  2.6576 -0.5696 -0.9126
33544SOL    HW2 4225   1.336   1.697   2.268 -1.2303  1.1456  0.3931
33545SOL     OW 4226  10.961   3.409   8.955 -0.2913 -0.3895  0.0228
33545SOL    HW1 4227  11.013   3.362   9.020  0.6605 -0.4558 -0.7622
33545SOL    HW2 4228  11.010   3.489   8.937 -0.0157 -0.8317 -1.3268
33546SOL     OW 4229   4.399   6.673   0.550  0.1907 -0.1175  0.2434
33546SOL    HW1 4230   4.412   6.691   0.457  0.4956 -0.8350  0.1394
33546SOL    HW2 4231   4.478   6.627   0.577 -0.6216 -1.4555  0.4379
33547SOL     OW 4232   0.267   3.968   7.357 -0.3970  0.2567  0.0706
33547SOL    HW1 4233   0.294   4.036   7.296  4.0465 -2.2531 -1.2132
33547SOL    HW2 4234   0.291   4.002   7.443  1.9017  0.3512 -0.5648
33548SOL     OW 4235   7.299   9.098  10.015 -0.8868 -0.2117 -0.5228
33548SOL    HW1 4236   7.333   9.137  10.095 -0.5495  0.3348 -0.9289
33548SOL    HW2 4237   7.236   9.032  10.045 -0.7163 -0.0534  0.1873
33549SOL     OW 4238  10.787   2.597   2.084 -0.0007  0.0334  0.6603
33549SOL    HW1 4239  10.792   2.623   1.993  1.0987 -1.6672  0.1792
33549SOL    HW2 4240  10.872   2.557   2.103 -0.2476  0.2256  2.3917
33550SOL     OW 4241   8.148   4.914   1.133  0.0420 -0.0260 -0.2602
33550SOL    HW1 4242   8.170   4.999   1.096 -0.7681 -0.1394 -1.0409
33550SOL    HW2 4243   8.059   4.924   1.164 -0.2932 -0.7690 -0.9516
33551SOL     OW 4244   4.903   1.307   4.528  0.2028 -0.1299 -0.2737
33551SOL    HW1 4245   4.850   1.231   4.502 -0.2115  0.4677 -1.2434
33551SOL    HW2 4246   4.932   1.344   4.445  2.0355 -0.3490  0.2323
33552SOL     OW 4247  10.559   5.520  10.952 -0.1875  0.3954  0.3212
33552SOL    HW1 4248  10.483   5.555  10.907 -0.2205 -1.7366 -1.4543
33552SOL    HW2 4249  10.523   5.462  11.019 -0.1102  2.4879  2.2829
33553SOL     OW 4250   9.939   5.381   0.273 -0.4539 -0.7797  0.4771
33553SOL    HW1 4251  10.026   5.415   0.252  0.2569 -2.1701  1.0317
33553SOL    HW2 4252   9.881   5.421   0.209  0.7036 -0.3355 -0.3225
33554SOL     OW 4253   7.930  10.049   2.373  1.2614 -0.6722 -0.2607
33554SOL    HW1 4254   7.962   9.991   2.304 -0.5446  0.0352 -1.7808
33554SOL    HW2 4255   7.845  10.012   2.398  0.9413  0.2554  0.0895
33555SOL     OW 4256   0.287   1.237   9.934  0.5984 -0.7625  0.1704
33555SOL    HW1 4257   0.364   1.181   9.923  0.7122 -1.0679  2.2098
33555SOL    HW2 4258   0.321   1.318   9.971 -0.0352 -0.8834  1.0505
33556SOL     OW 4259   4.973   6.641   8.963 -0.4872 -0.3728  0.7542
33556SOL    HW1 4260   5.011   6.565   8.919 -0.5754 -0.2425  0.4536
33556SOL    HW2 4261   5.008   6.716   8.916 -0.9163 -0.2442  0.6383
33557SOL     OW 4262   1.532   4.751   1.063  0.2890  0.7632 -0.2400
33557SOL    HW1 4263   1.512   4.682   1.000 -1.4252  0.7750  0.2511
33557SOL    HW2 4264   1.609   4.718   1.110 -0.9415 -1.2006  0.5001
33558SOL     OW 4265   0.946   4.931   2.506  0.1933  0.6658 -0.4282
33558SOL    HW1 4266   0.959   4.836   2.514  0.8593  0.4203 -3.3117
33558SOL    HW2 4267   1.029   4.963   2.470 -0.2537  2.2638 -0.1064
33559SOL     OW 4268   4.640   2.110   7.458 -0.0357  0.0351 -0.0189
33559SOL    HW1 4269   4.546   2.101   7.475 -0.1742  1.3496 -0.0084
33559SOL    HW2 4270   4.673   2.161   7.531  0.6569 -0.2127 -0.1497
33560SOL     OW 4271   1.323  10.458   0.362 -0.1658  0.4146 -0.3742
33560SOL    HW1 4272   1.347  10.409   0.441 -0.8225  2.5425  1.2613
33560SOL    HW2 4273   1.395  10.522   0.352  0.1972 -0.1960 -1.8741
33561SOL     OW 4274   2.042   7.691   3.384 -0.1460 -0.1938  0.0735
33561SOL    HW1 4275   2.131   7.668   3.357 -0.3632  1.1065 -1.9471
33561SOL    HW2 4276   2.052   7.772   3.434 -0.0768 -0.7991  1.0576
33562SOL     OW 4277   4.816   3.521   3.010 -0.1533 -0.2495  0.7264
33562SOL    HW1 4278   4.768   3.520   3.092 -1.2013  2.3755  0.2510
33562SOL    HW2 4279   4.761   3.470   2.950 -0.7819  0.1017  0.9872
33563SOL     OW 4280   7.468   3.241   7.769 -0.5209 -0.2338  0.0611
33563SOL    HW1 4281   7.529   3.188   7.821 -0.6218  1.1439  1.6506
33563SOL    HW2 4282   7.520   3.315   7.739 -1.2069  0.5675  0.8061
33564SOL     OW 4283   0.074  11.007   3.505 -0.4345 -0.3436  0.0131
33564SOL    HW1 4284  -0.006  10.976   3.464  0.2955 -0.5134 -1.3517
33564SOL    HW2 4285   0.053  11.014   3.598 -3.3392  3.5767 -0.6824
33565SOL     OW 4286   7.813   6.857   5.731  0.3672  0.2843 -0.7873
33565SOL    HW1 4287   7.873   6.887   5.799  2.3128 -1.7078 -1.5155
33565SOL    HW2 4288   7.832   6.914   5.656 -0.9215  1.6826 -0.1051
33566SOL     OW 4289   1.224   5.268   7.389 -0.0935 -0.0924  0.1990
33566SOL    HW1 4290   1.169   5.345   7.371  0.9301  0.3458 -1.3433
33566SOL    HW2 4291   1.167   5.209   7.439 -1.0148  1.5128  1.1512
33567SOL     OW 4292   7.874   7.981   3.191 -0.3208 -0.2697  0.1168
33567SOL    HW1 4293   7.961   8.020   3.194  0.2065 -1.4499  1.8852
33567SOL    HW2 4294   7.815   8.056   3.181  0.8178  0.6990  0.3879
33568SOL     OW 4295   3.976   2.909   2.491  1.0247 -0.8982  0.2940
33568SOL    HW1 4296   4.025   2.830   2.512  1.9000 -0.7463 -1.0550
33568SOL    HW2 4297   3.946   2.895   2.401  0.1644 -0.1875  0.4540
33569SOL     OW 4298   4.511   2.866   2.222  0.3236 -0.0408  0.4336
33569SOL    HW1 4299   4.531   2.939   2.281  0.7596 -1.2850  1.8720
33569SOL    HW2 4300   4.596   2.841   2.186  0.0521  0.7511 -0.8232
33570SOL     OW 4301   9.908   3.878   3.889 -0.2811 -0.2597  0.3283
33570SOL    HW1 4302   9.837   3.895   3.826  1.5036 -0.8428 -2.0010
33570SOL    HW2 4303   9.889   3.790   3.922 -1.4031  0.1634  0.8649
33571SOL     OW 4304   0.367   9.580   4.479  0.4075 -0.0408 -0.5164
33571SOL    HW1 4305   0.404   9.664   4.451  0.4655  0.5739  1.2709
33571SOL    HW2 4306   0.442   9.521   4.481  0.6957  0.3345 -0.0586
33572SOL     OW 4307   3.577  10.184  10.324 -0.1240 -0.3406  0.6278
33572SOL    HW1 4308   3.566  10.278  10.339  1.4183  0.3456 -1.9263
33572SOL    HW2 4309   3.661  10.163  10.365  0.2995 -0.2132 -0.1518
33573SOL     OW 4310   7.203   9.789   1.709  0.4777  0.1626  0.3633
33573SOL    HW1 4311   7.127   9.773   1.766  0.7104  1.9630  1.2395
33573SOL    HW2 4312   7.181   9.745   1.627 -2.0465  1.5426  0.1978
33574SOL     OW 4313   8.850   9.514   2.025 -0.4245 -0.0769 -0.1689
33574SOL    HW1 4314   8.815   9.529   2.113  1.8111  1.2292  0.5786
33574SOL    HW2 4315   8.773   9.494   1.972 -2.0743  0.9620  1.6815
33575SOL     OW 4316   6.304   8.833   5.971  0.6517 -0.1766  0.1467
33575SOL    HW1 4317   6.377   8.886   6.003 -0.3634  0.4905  1.4341
33575SOL    HW2 4318   6.282   8.775   6.044  0.0870 -0.5863 -0.3400
33576SOL     OW 4319   6.372   1.982   8.427  0.3789 -0.2116  0.1071
33576SOL    HW1 4320   6.462   1.964   8.454  1.1631 -1.0196 -2.6894
33576SOL    HW2 4321   6.330   1.896   8.423 -1.0801  0.2621  2.8269
33577SOL     OW 4322   9.112   8.650   1.248 -0.2923  0.0982 -0.3108
33577SOL    HW1 4323   9.124   8.606   1.332 -1.0217 -0.9090 -0.7043
33577SOL    HW2 4324   9.050   8.594   1.201  0.2307  0.5545 -1.5824
33578SOL     OW 4325   1.511   7.691   8.155  1.3542  0.2534 -0.1289
33578SOL    HW1 4326   1.526   7.784   8.136  1.5450  0.4878  1.0922
33578SOL    HW2 4327   1.576   7.669   8.222  2.0547 -1.0653 -1.2013
33579SOL     OW 4328   7.687  10.142   4.830  0.5521 -0.4803  0.5582
33579SOL    HW1 4329   7.685  10.134   4.734 -0.9209 -1.7541  0.6552
33579SOL    HW2 4330   7.759  10.203   4.847 -1.8202  3.3129 -1.5640
33580SOL     OW 4331   1.015   3.044   7.813 -0.2763  0.0409  0.0222
33580SOL    HW1 4332   1.065   3.073   7.737 -0.3624  0.4069  0.1035
33580SOL    HW2 4333   0.946   2.988   7.777  0.7320 -1.2304 -0.0150
33581SOL     OW 4334   2.285   1.263   6.141  0.0265  0.2360  0.2483
33581SOL    HW1 4335   2.279   1.250   6.047 -2.8360  0.5271  0.3000
33581SOL    HW2 4336   2.238   1.344   6.158  0.1467 -0.0046  1.9661
33582SOL     OW 4337   0.908   2.988   8.151 -0.0423  0.2579 -0.2011
33582SOL    HW1 4338   0.875   2.919   8.209  0.5632  1.3411  1.5115
33582SOL    HW2 4339   0.861   2.973   8.068 -0.2635 -1.8996  0.2347
33583SOL     OW 4340   2.844   7.971   7.361 -0.1360 -0.3483  0.4393
33583SOL    HW1 4341   2.896   7.925   7.427  0.6544  0.3734  0.3293
33583SOL    HW2 4342   2.882   8.059   7.357 -0.9361 -0.0156 -0.1311
33584SOL     OW 4343   7.732   3.724   7.907 -0.0830  0.5671 -0.4492
33584SOL    HW1 4344   7.776   3.667   7.970  1.3756 -0.5738 -2.3943
33584SOL    HW2 4345   7.653   3.676   7.882 -0.3201  0.7189 -0.0041
33585SOL     OW 4346   5.833   6.165   1.393  0.2036  0.0568  0.1885
33585SOL    HW1 4347   5.833   6.260   1.410  1.3787 -0.2144  2.0090
33585SOL    HW2 4348   5.854   6.158   1.300 -0.3899  1.5972 -0.0977
33586SOL     OW 4349   9.717   6.634   4.210  0.2412  0.0462  0.2887
33586SOL    HW1 4350   9.722   6.727   4.186  2.1657 -0.0640  0.0472
33586SOL    HW2 4351   9.723   6.587   4.127  0.1146 -0.2893  0.4673
33587SOL     OW 4352   9.771   0.139   1.922  0.1294  0.1498  0.4339
33587SOL    HW1 4353   9.688   0.101   1.948  1.0227 -1.6051  0.8742
33587SOL    HW2 4354   9.780   0.217   1.977 -0.5679 -0.4393  1.4142
33588SOL     OW 4355   6.884   2.390   0.268  0.1843 -0.4168 -0.0290
33588SOL    HW1 4356   6.926   2.305   0.253  0.1435 -0.5306  0.4531
33588SOL    HW2 4357   6.792   2.368   0.285  0.1966 -0.2890  0.2095
33589SOL     OW 4358  10.475   4.917   2.326  0.2874 -0.4719  0.6577
33589SOL    HW1 4359  10.464   4.929   2.231  2.0149  1.3667  0.6026
33589SOL    HW2 4360  10.442   4.829   2.343 -3.3214  0.3564 -1.0324
33590SOL     OW 4361   8.714   9.049   3.193 -0.2082  0.1309 -0.1592
33590SOL    HW1 4362   8.651   9.050   3.265 -0.4024 -1.5676 -0.2690
33590SOL    HW2 4363   8.784   8.992   3.223  0.5305  0.7294 -0.6806
33591SOL     OW 4364   4.391   9.609  10.328  0.1416  0.0041 -0.1362
33591SOL    HW1 4365   4.424   9.550  10.396 -1.4812 -1.2136 -0.3425
33591SOL    HW2 4366   4.446   9.592  10.252 -0.3550 -1.3524 -0.2218
33592SOL     OW 4367  10.472   8.811   2.324 -0.0614  0.9022 -0.1111
33592SOL    HW1 4368  10.447   8.860   2.402  0.0251  0.9132 -0.0897
33592SOL    HW2 4369  10.394   8.762   2.300  1.0888 -2.5600  2.5000
33593SOL     OW 4370   3.395   6.254   8.294  0.5484  0.5590  0.2961
33593SOL    HW1 4371   3.472   6.296   8.332  2.1849 -0.3972 -1.7584
33593SOL    HW2 4372   3.365   6.315   8.226  0.7393  0.0382 -0.2665
33594SOL     OW 4373   2.001   8.926   0.004  0.0625  0.2616 -0.1991
33594SOL    HW1 4374   2.004   8.964   0.092 -0.6391 -1.5550  0.6595
33594SOL    HW2 4375   1.908   8.921  -0.016  0.2343  1.9906 -1.7125
33595SOL     OW 4376   2.490   2.233  10.303 -0.1089  0.4789 -0.1929
33595SOL    HW1 4377   2.458   2.181  10.376 -0.6666  1.8317  0.5684
33595SOL    HW2 4378   2.413   2.253  10.251 -0.0732  1.3669  0.0771
33596SOL     OW 4379   8.547   6.607   7.335 -0.3090 -1.2459  0.0782
33596SOL    HW1 4380   8.460   6.570   7.351 -0.3518 -0.5703  1.6684
33596SOL    HW2 4381   8.549   6.687   7.388  1.1563 -1.0620 -0.2004
33597SOL     OW 4382   5.355   7.826   8.303  0.1578 -0.1214  0.0986
33597SOL    HW1 4383   5.393   7.914   8.309  0.7489 -0.3770  0.2317
33597SOL    HW2 4384   5.262   7.838   8.319  0.3032  0.4274  0.5467
33598SOL     OW 4385   6.546   9.404   0.407  0.1871 -0.3589  0.2417
33598SOL    HW1 4386   6.595   9.407   0.325 -1.0315  1.2316 -0.4727
33598SOL    HW2 4387   6.595   9.343   0.462  1.7532 -0.4551 -1.1915
33599SOL     OW 4388   1.851   9.252   6.862  0.1661  0.1511 -0.1083
33599SOL    HW1 4389   1.809   9.235   6.947  2.7454 -2.0632  0.8622
33599SOL    HW2 4390   1.934   9.295   6.885 -0.4838  2.5416 -1.8154
33600SOL     OW 4391   9.385   8.221   3.069 -0.1432  0.3994 -0.7769
33600SOL    HW1 4392   9.472   8.243   3.103  0.1841 -1.8463 -0.0373
33600SOL    HW2 4393   9.392   8.239   2.975  0.3296  2.4620 -0.4070
33601SOL     OW 4394  10.399   4.012   6.171  0.2618  0.5012  0.0769
33601SOL    HW1 4395  10.321   4.020   6.117 -0.5981 -1.2598  0.9933
33601SOL    HW2 4396  10.472   4.014   6.109 -0.6502 -0.6339 -1.0690
33602SOL     OW 4397   1.427   2.213   4.417 -0.0485 -0.6371  0.1490
33602SOL    HW1 4398   1.424   2.247   4.506  1.7719 -1.1249  0.4328
33602SOL    HW2 4399   1.439   2.290   4.361  1.9220 -0.5544  0.6144
33603SOL     OW 4400   4.250   9.818   8.686  0.2126  0.2240  0.8400
33603SOL    HW1 4401   4.294   9.880   8.628 -0.9833 -1.9370 -2.6473
33603SOL    HW2 4402   4.307   9.812   8.762  2.9629  1.7605 -0.9375
33604SOL     OW 4403   8.658   6.050   6.201  0.0781  0.6044 -0.7884
33604SOL    HW1 4404   8.708   6.130   6.217  0.4334  0.2050  0.1794
33604SOL    HW2 4405   8.706   6.006   6.131  1.8706 -0.3704  0.9328
33605SOL     OW 4406   5.131   0.110   9.222 -0.4660 -0.2169  0.2012
33605SOL    HW1 4407   5.220   0.081   9.202  0.4551  0.9716  2.2383
33605SOL    HW2 4408   5.087   0.032   9.256 -0.2666 -0.8425 -0.9323
33606SOL     OW 4409   7.912   0.390   9.363 -0.6584  0.3998  0.2658
33606SOL    HW1 4410   7.908   0.353   9.275  0.9954  0.8530 -0.0428
33606SOL    HW2 4411   8.004   0.414   9.374 -0.6620 -0.3381  2.3981
33607SOL     OW 4412   9.492   4.433   9.888  0.4542  0.9704 -0.3157
33607SOL    HW1 4413   9.490   4.457   9.981  1.9288 -0.5965  0.1706
33607SOL    HW2 4414   9.415   4.476   9.851 -1.0372  0.4114  1.9262
33608SOL     OW 4415   6.931   0.877   0.101 -0.5912 -0.4304 -0.1164
33608SOL    HW1 4416   6.842   0.863   0.135 -0.9271  0.9938 -0.3438
33608SOL    HW2 4417   6.960   0.958   0.144  0.5341 -0.7859 -0.1916
33609SOL     OW 4418   4.344   1.045   7.299  0.5314  0.1184 -0.4517
33609SOL    HW1 4419   4.335   1.130   7.342  0.3834  0.9999 -2.1304
33609SOL    HW2 4420   4.309   0.982   7.362 -0.4848  1.4448  0.3558
33610SOL     OW 4421   2.303   9.824   5.395  0.2135  0.3677 -0.9629
33610SOL    HW1 4422   2.353   9.809   5.475  1.3977  1.9616 -1.3524
33610SOL    HW2 4423   2.281   9.737   5.364 -0.3516 -0.2962  1.1227
33611SOL     OW 4424   7.084   8.832   7.294  0.0146  0.5351  0.6441
33611SOL    HW1 4425   6.994   8.837   7.261  0.4182  1.9578 -0.3160
33611SOL    HW2 4426   7.098   8.917   7.336  0.0958 -0.5903  3.0744
33612SOL     OW 4427   2.365  10.429   7.616  0.1396 -0.0907  0.3332
33612SOL    HW1 4428   2.345  10.520   7.594 -1.8640 -0.9104 -1.6244
33612SOL    HW2 4429   2.283  10.394   7.650  0.5925 -1.4125  0.1217
33613SOL     OW 4430   1.985   0.989   9.993 -0.2112  0.4310  0.6866
33613SOL    HW1 4431   2.062   0.946   9.957 -0.8153 -0.1829  0.1100
33613SOL    HW2 4432   1.911   0.938   9.961 -0.8702  1.0736  1.1405
33614SOL     OW 4433   0.370   7.352   6.149  0.6526 -0.4581 -0.5672
33614SOL    HW1 4434   0.334   7.432   6.110  3.4316  0.7275 -0.9921
33614SOL    HW2 4435   0.416   7.309   6.077  1.4455 -1.0016  0.2384
33615SOL     OW 4436   7.346   3.824   7.415  0.1469  0.1510 -0.1997
33615SOL    HW1 4437   7.430   3.809   7.371  1.2282 -0.4868  1.9421
33615SOL    HW2 4438   7.294   3.747   7.392  0.3784  0.2227 -1.0143
33616SOL     OW 4439   8.812   5.548   9.027 -0.5820 -0.0397 -0.3840
33616SOL    HW1 4440   8.858   5.487   8.969  1.6263 -0.0785  1.2995
33616SOL    HW2 4441   8.859   5.630   9.018 -1.5019  0.5264 -0.1472
33617SOL     OW 4442   9.472   9.182   2.405  0.6815 -0.1409  0.5848
33617SOL    HW1 4443   9.478   9.263   2.456 -1.7023  0.3863  0.1475
33617SOL    HW2 4444   9.475   9.211   2.314  2.4213 -0.8414  0.3819
33618SOL     OW 4445   9.759   9.155   7.220  0.2393  0.1058 -0.4533
33618SOL    HW1 4446   9.762   9.245   7.188 -0.3651  0.6644  0.9681
33618SOL    HW2 4447   9.687   9.154   7.283  1.3542 -0.9293  0.8698
33619SOL     OW 4448   2.679   9.899   0.040 -0.3287 -0.4471  0.3561
33619SOL    HW1 4449   2.623   9.972   0.066 -0.7645  0.6031 -2.9959
33619SOL    HW2 4450   2.638   9.822   0.078 -0.1903  0.8775  3.5284
33620SOL     OW 4451   6.854   6.538  10.820 -0.2632 -0.1443 -0.0248
33620SOL    HW1 4452   6.815   6.619  10.854 -0.5715 -0.3842  0.1996
33620SOL    HW2 4453   6.925   6.519  10.881 -0.8502 -0.6033  0.5401
33621SOL     OW 4454   3.811   9.688   6.109 -0.2646  0.0864 -0.4991
33621SOL    HW1 4455   3.831   9.611   6.162  1.6694  0.2816 -0.8575
33621SOL    HW2 4456   3.800   9.653   6.020  2.0727  0.2909 -0.9442
33622SOL     OW 4457   6.626   9.430   9.473 -0.0008  0.0293 -0.3291
33622SOL    HW1 4458   6.607   9.347   9.516  1.8894  0.2052  0.9861
33622SOL    HW2 4459   6.722   9.431   9.465  0.1251  2.4830  0.6279
33623SOL     OW 4460   5.110   9.134   6.837  0.4603  0.2209  0.5880
33623SOL    HW1 4461   5.052   9.117   6.763  1.3902 -1.5725  0.2273
33623SOL    HW2 4462   5.072   9.085   6.909  0.4774  0.6116  0.8655
33624SOL     OW 4463   6.825  10.470   9.243  0.1667  0.1317  0.5592
33624SOL    HW1 4464   6.816  10.377   9.262  0.7912  0.1525  1.0041
33624SOL    HW2 4465   6.736  10.500   9.226  0.1307 -0.8956 -1.3359
33625SOL     OW 4466   4.608   5.864   1.783 -0.2842 -0.1862 -0.0874
33625SOL    HW1 4467   4.651   5.894   1.703 -0.2726 -1.2401 -0.4883
33625SOL    HW2 4468   4.679   5.837   1.841  0.0609  4.2349  1.9548
33626SOL     OW 4469   8.530   3.996   8.910 -0.7061  0.4588 -0.4575
33626SOL    HW1 4470   8.489   3.918   8.948  1.8617  0.2156  2.1545
33626SOL    HW2 4471   8.457   4.055   8.890 -2.4872 -1.2195  0.7882
33627SOL     OW 4472   1.051   3.869   1.566  0.0727  0.1582 -0.4777
33627SOL    HW1 4473   1.119   3.805   1.547  0.8601  0.6672  0.5577
33627SOL    HW2 4474   1.087   3.952   1.535 -0.5654  0.2510 -0.9875
33628SOL     OW 4475   4.434   0.118   1.598  0.3275  0.1519  0.3682
33628SOL    HW1 4476   4.422   0.189   1.535  0.1478  1.1873  1.5303
33628SOL    HW2 4477   4.512   0.142   1.647  1.0063 -1.1178 -0.0367
33629SOL     OW 4478   7.450   8.684  10.327  0.1836 -0.0940 -0.4123
33629SOL    HW1 4479   7.448   8.726  10.242  2.2917  1.0490  0.0277
33629SOL    HW2 4480   7.497   8.602  10.312 -1.3189 -0.9298 -0.7119
33630SOL     OW 4481   9.941   0.209   3.654  0.1969  0.3136  0.0932
33630SOL    HW1 4482  10.014   0.164   3.610 -1.0917 -0.1392 -1.7219
33630SOL    HW2 4483   9.913   0.147   3.722  0.2705 -0.3690 -0.4786
33631SOL     OW 4484   1.868   0.353   9.810 -0.2710 -0.0417 -0.0323
33631SOL    HW1 4485   1.794   0.305   9.773  0.2827 -0.1460 -1.0421
33631SOL    HW2 4486   1.896   0.411   9.740  0.9711 -0.4309  0.1159
33632SOL     OW 4487   7.613   5.354   2.325 -0.9145 -0.4197  0.4262
33632SOL    HW1 4488   7.681   5.361   2.391  0.0745 -0.2680 -0.5753
33632SOL    HW2 4489   7.579   5.444   2.316 -0.1011 -0.1647 -0.2252
33633SOL     OW 4490   8.047   9.140   1.537  0.1499 -0.1572 -0.1742
33633SOL    HW1 4491   8.130   9.094   1.524 -0.1086 -0.5518 -0.4786
33633SOL    HW2 4492   8.015   9.109   1.622  0.5798  0.4221  0.2062
33634SOL     OW 4493   5.689   1.420   7.481 -0.2469 -0.2096  0.1541
33634SOL    HW1 4494   5.780   1.429   7.511 -0.1872  1.5685 -0.4404
33634SOL    HW2 4495   5.692   1.347   7.418  0.6581 -0.5145  0.5234
33635SOL     OW 4496   9.905   8.448   7.174 -0.6090 -0.0584 -0.0651
33635SOL    HW1 4497   9.917   8.528   7.123 -0.8722  0.0312  0.0114
33635SOL    HW2 4498   9.811   8.429   7.167 -0.3304 -1.1463 -1.2695
33636SOL     OW 4499  10.216  10.665   3.444 -0.4661  0.3571  0.2357
33636SOL    HW1 4500  10.294  10.622   3.411 -0.5132 -0.8020  1.5623
33636SOL    HW2 4501  10.247  10.747   3.482 -0.0883  0.5078 -0.3853
33637SOL     OW 4502   4.079   9.941   0.260  0.3512 -0.5335  0.4150
33637SOL    HW1 4503   4.082   9.850   0.230 -1.1411 -0.2589 -0.6642
33637SOL    HW2 4504   4.061   9.992   0.182 -0.6116  0.5208  1.2904
33638SOL     OW 4505   0.009   8.995   9.053  1.0607  0.7192 -0.1323
33638SOL    HW1 4506  -0.054   8.977   8.983  1.7872 -1.1575 -0.3665
33638SOL    HW2 4507   0.068   9.059   9.015 -0.5046  2.3164 -0.0019
33639SOL     OW 4508   8.178   8.514   8.349  0.2740  0.2336  0.0547
33639SOL    HW1 4509   8.124   8.590   8.326 -0.3994 -0.0931  0.5473
33639SOL    HW2 4510   8.128   8.439   8.318  0.5559 -0.0581  0.3088
33640SOL     OW 4511   7.216   7.960   1.253 -0.3930  0.3000  0.3450
33640SOL    HW1 4512   7.245   7.956   1.162 -0.2015  1.6912  0.3207
33640SOL    HW2 4513   7.292   7.933   1.304 -0.2971  0.1410  0.1177
33641SOL     OW 4514   4.655   5.937   9.246  0.8960  0.6028 -0.0094
33641SOL    HW1 4515   4.738   5.948   9.201 -0.4625  1.0971 -2.6186
33641SOL    HW2 4516   4.676   5.944   9.339  3.4323  2.8537 -0.6433
33642SOL     OW 4517   6.235   9.753   1.277 -0.1136 -0.0706  0.0415
33642SOL    HW1 4518   6.301   9.822   1.265  0.0941 -0.1220  0.8515
33642SOL    HW2 4519   6.165   9.776   1.216  0.5524  0.1075 -0.6769
33643SOL     OW 4520   5.868  10.578   0.938  0.3015 -0.1710  0.0653
33643SOL    HW1 4521   5.785  10.574   0.890 -0.0755 -1.6048  0.7843
33643SOL    HW2 4522   5.908  10.661   0.911 -0.7256 -0.1070 -1.3321
33644SOL     OW 4523   0.911  10.490   9.030  0.1439 -0.5120  0.0304
33644SOL    HW1 4524   0.961  10.563   8.992  0.6826  0.5867  2.6174
33644SOL    HW2 4525   0.826  10.529   9.052 -0.1893 -1.1431 -0.1243
33645SOL     OW 4526   6.858  10.605   1.556  0.4126 -0.0019  0.6408
33645SOL    HW1 4527   6.822  10.523   1.522 -0.8264  0.8324 -0.1393
33645SOL    HW2 4528   6.949  10.584   1.577  0.5473 -1.1986 -0.9431
33646SOL     OW 4529   7.987   3.843   2.301 -0.4033  0.9100  0.3780
33646SOL    HW1 4530   7.915   3.780   2.298 -0.7718  1.3383 -0.1487
33646SOL    HW2 4531   7.956   3.917   2.248  1.0789  0.4315 -1.2484
33647SOL     OW 4532   1.642   4.763   9.669  0.5821  0.2109 -0.1911
33647SOL    HW1 4533   1.583   4.822   9.716  1.1275  0.1478  0.5982
33647SOL    HW2 4534   1.594   4.681   9.662  0.1541  0.4884 -0.5231
33648SOL     OW 4535   4.606   6.978   2.228 -0.4993  0.3953  0.2823
33648SOL    HW1 4536   4.686   7.001   2.274  0.1063 -1.2978  0.1267
33648SOL    HW2 4537   4.634   6.959   2.138 -1.5965  3.2327 -0.7817
33649SOL     OW 4538   9.463   3.500   9.277  0.2921  0.3032 -0.1560
33649SOL    HW1 4539   9.467   3.573   9.339  0.9425  1.3738 -1.4106
33649SOL    HW2 4540   9.370   3.478   9.273  0.0982  0.9718  0.3492
33650SOL     OW 4541   9.440   4.596   0.040 -0.4122  0.1061  0.0326
33650SOL    HW1 4542   9.458   4.527   0.104  0.0765 -0.2699 -0.4948
33650SOL    HW2 4543   9.464   4.677   0.084  1.1241 -0.2495 -0.0747
33651SOL     OW 4544   7.390   0.992   1.368  0.6325  0.0885 -0.0340
33651SOL    HW1 4545   7.298   0.981   1.391  0.6179 -0.6747 -0.4270
33651SOL    HW2 4546   7.421   1.064   1.424 -0.0657  0.0115  0.4551
33652SOL     OW 4547   8.401  11.057   5.267 -0.3414 -0.2925 -0.5655
33652SOL    HW1 4548   8.432  11.001   5.338 -0.0493  0.8340  0.2174
33652SOL    HW2 4549   8.480  11.102   5.236 -0.6312 -0.0172 -0.9195
33653SOL     OW 4550   9.078   3.710   1.600  0.1722 -0.4077  0.4207
33653SOL    HW1 4551   9.070   3.623   1.640 -1.8658 -0.6687 -0.4558
33653SOL    HW2 4552   9.050   3.771   1.669  1.0390 -0.4705  0.8420
33654SOL     OW 4553   1.942   5.344   8.214  0.5546  1.1927  0.0057
33654SOL    HW1 4554   1.895   5.397   8.150 -0.3447  0.7189  0.2678
33654SOL    HW2 4555   1.896   5.260   8.215  3.0213 -0.2986 -1.7536
33655SOL     OW 4556   2.448   9.169   7.481 -0.2200  0.0049 -0.4279
33655SOL    HW1 4557   2.450   9.083   7.523  0.2446 -0.0124 -0.4800
33655SOL    HW2 4558   2.368   9.168   7.428  0.7364 -1.1361 -1.9649
33656SOL     OW 4559   1.043   6.065  10.176  0.4716 -0.0787  0.3730
33656SOL    HW1 4560   1.039   6.118  10.256  2.1821  0.2463  0.2832
33656SOL    HW2 4561   1.001   6.120  10.109 -1.8027 -0.7188  1.1548
33657SOL     OW 4562   8.141   6.273   3.121 -0.2192  0.4924 -1.1250
33657SOL    HW1 4563   8.074   6.251   3.057  0.9696 -0.7232 -2.0234
33657SOL    HW2 4564   8.213   6.309   3.068  0.6149 -0.1435 -0.4566
33658SOL     OW 4565   9.694   2.658   3.757  0.3050  0.3079 -0.0101
33658SOL    HW1 4566   9.650   2.696   3.833 -0.9706  0.3054 -0.7270
33658SOL    HW2 4567   9.680   2.721   3.686  0.9925  0.0435 -0.3938
33659SOL     OW 4568  10.588   5.766   6.759 -0.7579 -0.3651  1.0791
33659SOL    HW1 4569  10.557   5.712   6.831  0.6383 -0.3233  1.7450
33659SOL    HW2 4570  10.671   5.726   6.732 -2.0079 -1.3579 -1.6273
33660SOL     OW 4571   0.480   6.857   4.638 -0.3156 -0.1950 -0.1006
33660SOL    HW1 4572   0.452   6.782   4.691  0.4322  0.9943  2.1197
33660SOL    HW2 4573   0.400   6.906   4.622 -0.5368 -0.4921  0.0705
33661SOL     OW 4574  10.040   1.366   9.334 -0.2186 -0.0035 -0.3099
33661SOL    HW1 4575   9.959   1.366   9.283  0.4918  0.7343 -1.4861
33661SOL    HW2 4576  10.033   1.443   9.390 -0.7643 -0.5159  0.3471
33662SOL     OW 4577   7.918  10.545   3.050  0.5542 -0.2626  0.3359
33662SOL    HW1 4578   7.921  10.517   3.141  1.0472 -0.2992  0.3100
33662SOL    HW2 4579   7.902  10.639   3.053  0.6125 -0.2567  0.4627
33663SOL     OW 4580   7.975   9.970   6.368  0.8681  0.1726  0.2297
33663SOL    HW1 4581   7.886   9.937   6.381  0.1573  0.7062 -2.6356
33663SOL    HW2 4582   8.027   9.892   6.353  0.7123 -0.0909  1.0253
33664SOL     OW 4583   0.332   8.587   5.082 -0.0111  0.4341  0.1473
33664SOL    HW1 4584   0.257   8.606   5.026  0.1382  1.4758  0.2797
33664SOL    HW2 4585   0.297   8.586   5.171  0.1279  0.9269  0.2095
33665SOL     OW 4586   0.006   2.587  10.064 -0.0129  0.0437  0.1167
33665SOL    HW1 4587   0.004   2.510  10.121  2.9528 -2.9314 -3.2610
33665SOL    HW2 4588  -0.078   2.585  10.018  0.3279 -1.8662 -0.5319
33666SOL     OW 4589  11.096   8.306  11.010 -0.0028 -0.0272 -0.5123
33666SOL    HW1 4590  11.161   8.318  10.941  0.7567 -0.0812  0.1709
33666SOL    HW2 4591  11.141   8.254  11.077  0.0078  1.7332  0.9472
33667SOL     OW 4592   7.607   8.637   7.372  0.3967 -0.3721 -0.8226
33667SOL    HW1 4593   7.610   8.643   7.467 -1.1042 -4.2696 -0.3090
33667SOL    HW2 4594   7.519   8.668   7.349  0.5103 -0.0732 -0.8532
33668SOL     OW 4595   6.461   5.491   6.968 -0.2062  0.0680  0.1050
33668SOL    HW1 4596   6.453   5.568   7.025 -0.2227  1.2298 -1.4159
33668SOL    HW2 4597   6.386   5.436   6.992 -2.9484  2.6405 -1.8121
33669SOL     OW 4598   8.891   2.941   0.761 -0.4497 -0.3442  0.1346
33669SOL    HW1 4599   8.923   2.926   0.672 -0.5562 -0.0284  0.0428
33669SOL    HW2 4600   8.804   2.980   0.748  0.5488  2.1219  0.3430
33670SOL     OW 4601   0.047   6.227  10.716 -0.6243 -0.7132 -0.3262
33670SOL    HW1 4602   0.101   6.296  10.755  0.3509 -0.2791 -2.3440
33670SOL    HW2 4603  -0.003   6.192  10.790 -1.0646  2.0356  0.7902
33671SOL     OW 4604   2.873   1.250   9.702 -0.2093 -0.6202 -0.5178
33671SOL    HW1 4605   2.947   1.258   9.642 -0.1255  0.4761 -0.2955
33671SOL    HW2 4606   2.799   1.288   9.654 -0.0025  0.8758  0.2845
33672SOL     OW 4607   6.425   0.104   7.925  0.1715  0.3959 -0.1838
33672SOL    HW1 4608   6.411   0.079   8.017 -1.6991  1.1891 -0.2133
33672SOL    HW2 4609   6.338   0.127   7.893  0.7636 -0.0241 -2.2277
33673SOL     OW 4610   5.380   9.915   4.405  0.0620  0.8465 -0.0421
33673SOL    HW1 4611   5.365  10.000   4.363 -1.5337  1.1454  1.0586
33673SOL    HW2 4612   5.349   9.926   4.495 -0.5068 -0.9821  0.0396
33674SOL     OW 4613   0.108   7.453   5.404  0.1806 -0.7255 -0.7451
33674SOL    HW1 4614   0.134   7.449   5.496 -0.4825  0.0470 -0.5140
33674SOL    HW2 4615   0.064   7.369   5.388 -2.1339  0.1905  0.4232
33675SOL     OW 4616  10.629   3.139   8.068  0.2510 -0.0234 -0.0225
33675SOL    HW1 4617  10.549   3.161   8.021  0.7054  1.8407 -0.0118
33675SOL    HW2 4618  10.612   3.166   8.158 -0.0843 -2.2211  0.6160
33676SOL     OW 4619   6.258   4.959  10.266 -0.1810  0.4916 -0.5995
33676SOL    HW1 4620   6.308   5.003  10.335  0.9506 -0.1787 -0.9647
33676SOL    HW2 4621   6.236   4.874  10.304  1.6230 -0.4361 -1.4878
33677SOL     OW 4622  10.638   1.555   0.982  0.0250  0.4245 -1.0642
33677SOL    HW1 4623  10.564   1.504   0.947 -2.5411  1.2121  2.6362
33677SOL    HW2 4624  10.632   1.543   1.077  3.9561  1.6342 -0.5098
33678SOL     OW 4625   5.110   8.982   9.700  0.6150 -0.0800 -0.4826
33678SOL    HW1 4626   5.195   8.946   9.674  0.3245 -0.5699 -0.7695
33678SOL    HW2 4627   5.131   9.060   9.752  1.2246  0.2355 -1.1928
33679SOL     OW 4628   9.038   2.433   7.115 -0.1724  0.4449  0.2072
33679SOL    HW1 4629   8.978   2.360   7.099  0.0715  0.2591  0.1470
33679SOL    HW2 4630   9.125   2.395   7.108 -0.0096  1.0053 -1.1676
33680SOL     OW 4631   9.225   4.231   5.838 -0.3225 -0.3644 -0.3005
33680SOL    HW1 4632   9.320   4.233   5.851  0.2086 -1.0592 -3.3473
33680SOL    HW2 4633   9.195   4.318   5.864  1.3747  0.3684 -0.6521
33681SOL     OW 4634   2.344   0.737   8.437  0.0316  0.4267 -0.2870
33681SOL    HW1 4635   2.363   0.703   8.349 -0.4622 -0.1060 -0.1979
33681SOL    HW2 4636   2.363   0.663   8.495 -0.7661  0.3962 -0.0574
33682SOL     OW 4637   2.040   9.331   9.645 -0.4307  1.0715 -0.3208
33682SOL    HW1 4638   1.954   9.368   9.623 -1.2349  0.5227  1.7299
33682SOL    HW2 4639   2.065   9.374   9.726  0.2377 -0.3255  0.2447
33683SOL     OW 4640   2.832   3.534   2.119 -0.2734 -0.0143 -0.6199
33683SOL    HW1 4641   2.881   3.467   2.071 -0.5260  0.6864 -1.8964
33683SOL    HW2 4642   2.897   3.601   2.141 -0.2489 -0.1102 -0.3986
33684SOL     OW 4643  10.589   3.814   1.538 -0.1230 -0.2915 -0.0460
33684SOL    HW1 4644  10.584   3.812   1.634 -0.1193  0.2432 -0.0316
33684SOL    HW2 4645  10.530   3.885   1.513  1.1919  0.7312 -0.3354
33685SOL     OW 4646   5.646   1.541   7.021 -0.1167 -0.5141 -0.5372
33685SOL    HW1 4647   5.718   1.477   7.023  1.6230  1.3436  0.0455
33685SOL    HW2 4648   5.601   1.530   7.104  0.3900 -0.7472 -0.2920
33686SOL     OW 4649   1.010  10.215   8.020  0.0506  0.0704  0.1248
33686SOL    HW1 4650   1.002  10.168   7.937  2.2879 -0.7189  0.2831
33686SOL    HW2 4651   1.041  10.148   8.081  1.9506  1.4180  0.7038
33687SOL     OW 4652   0.313  10.389   4.339 -0.2256 -0.3065 -0.1568
33687SOL    HW1 4653   0.265  10.451   4.394 -2.2175 -1.9371  0.0898
33687SOL    HW2 4654   0.297  10.420   4.249 -2.3705 -1.1154 -0.1259
33688SOL     OW 4655   0.923   7.969  10.124 -0.3164 -0.1611 -0.1810
33688SOL    HW1 4656   0.864   7.903  10.088 -1.7178  0.9162  0.0439
33688SOL    HW2 4657   0.954   8.018  10.048  0.1813 -0.6317 -0.2858
33689SOL     OW 4658   4.535   9.488   5.215  0.1166  0.2623 -0.2063
33689SOL    HW1 4659   4.454   9.508   5.169 -0.8073 -1.3077  0.6710
33689SOL    HW2 4660   4.542   9.393   5.212  0.2451  0.0968  2.4193
33690SOL     OW 4661   8.413   1.075   8.008  0.2831  0.4856 -0.2709
33690SOL    HW1 4662   8.331   1.123   8.021 -0.8431 -1.0641 -1.2978
33690SOL    HW2 4663   8.414   1.009   8.078  0.2093 -0.0805 -0.8023
33691SOL     OW 4664   2.024   8.751   3.292 -0.0821  0.2002  0.1944
33691SOL    HW1 4665   2.017   8.665   3.251 -3.7213  1.2937 -1.9266
33691SOL    HW2 4666   1.958   8.751   3.361  1.4088  0.6232  1.6705
33692SOL     OW 4667   6.257   5.067   4.837 -0.2467  0.1657  0.0121
33692SOL    HW1 4668   6.190   5.115   4.887  0.7850  1.2098  0.4446
33692SOL    HW2 4669   6.208   5.025   4.767 -1.3828  0.8151  0.3779
33693SOL     OW 4670   2.424   7.957   1.846  0.4072  0.1048  0.4467
33693SOL    HW1 4671   2.420   8.047   1.878  1.2839  0.6765 -0.9578
33693SOL    HW2 4672   2.335   7.938   1.816  0.1353  0.3533  1.0620
33694SOL     OW 4673   0.602   3.202   4.992 -0.4432 -0.4297  0.0945
33694SOL    HW1 4674   0.549   3.281   5.008  0.1553 -0.2405  1.2562
33694SOL    HW2 4675   0.674   3.232   4.937 -0.6708 -0.3470 -0.1598
33695SOL     OW 4676   2.889   6.019   1.062 -0.2598 -0.0831 -0.0601
33695SOL    HW1 4677   2.886   6.093   1.002  1.7013  1.7600  1.9276
33695SOL    HW2 4678   2.922   6.056   1.144  0.4784 -3.1088  1.1369
33696SOL     OW 4679   2.807   0.211   8.900  0.0023  0.0761 -0.3591
33696SOL    HW1 4680   2.755   0.158   8.840 -0.5479 -1.0524  1.0637
33696SOL    HW2 4681   2.745   0.274   8.936 -0.6857 -1.8041  1.9708
33697SOL     OW 4682   6.763   3.827   8.436 -0.1441  0.6355 -0.0311
33697SOL    HW1 4683   6.847   3.862   8.465  0.2058 -0.6017  0.5157
33697SOL    HW2 4684   6.728   3.782   8.513 -1.8489  2.0655  0.0979
33698SOL     OW 4685   5.693   9.887   1.981 -0.1190  0.0805 -0.1666
33698SOL    HW1 4686   5.678   9.911   1.889  0.2195 -0.7651 -0.4501
33698SOL    HW2 4687   5.746   9.958   2.016 -1.1918  0.9855 -0.3021
33699SOL     OW 4688   3.672   9.802   7.393  0.4707 -0.2418 -0.2473
33699SOL    HW1 4689   3.647   9.735   7.456  0.0304  1.1083  1.0762
33699SOL    HW2 4690   3.767   9.792   7.384  0.9135  0.8964  2.3653
33700SOL     OW 4691   2.407   1.862   5.895  0.0666 -0.0039  0.3523
33700SOL    HW1 4692   2.490   1.891   5.933 -0.9946  0.9093  2.1386
33700SOL    HW2 4693   2.429   1.835   5.806  2.0234  1.6430  0.2503
33701SOL     OW 4694   2.844   1.858   4.921  0.5642 -0.0061  0.2131
33701SOL    HW1 4695   2.907   1.910   4.872  0.4460  1.8439  1.9178
33701SOL    HW2 4696   2.806   1.919   4.984 -1.2650 -1.6313  0.7760
33702SOL     OW 4697   9.397   3.202   8.430  0.4582 -0.5081 -0.0057
33702SOL    HW1 4698   9.338   3.168   8.364 -1.8307 -0.3678  1.8416
33702SOL    HW2 4699   9.409   3.130   8.492  0.4286  0.1331  0.7763
33703SOL     OW 4700   1.370  10.763   9.746  0.7401 -0.3108  0.1815
33703SOL    HW1 4701   1.338  10.829   9.807 -1.1619 -0.8238 -0.1900
33703SOL    HW2 4702   1.465  10.767   9.753  0.6348  1.6277  1.0398
33704SOL     OW 4703   4.662  10.810   3.084  0.2837  0.1829 -0.0934
33704SOL    HW1 4704   4.623  10.885   3.040 -0.0445  0.3582  0.4813
33704SOL    HW2 4705   4.590  10.769   3.132  0.3013 -0.9471 -0.9890
33705SOL     OW 4706   5.539   5.356   6.946  0.7581 -0.2008 -0.2649
33705SOL    HW1 4707   5.467   5.406   6.984  2.1283  2.3063 -0.7650
33705SOL    HW2 4708   5.532   5.270   6.987 -1.6066  0.4210  0.8096
33706SOL     OW 4709   6.339   1.238  10.131 -0.6004 -0.4519  0.5002
33706SOL    HW1 4710   6.431   1.219  10.110 -1.0765 -1.1455 -1.1881
33706SOL    HW2 4711   6.332   1.223  10.225  1.3133  0.9777  0.9221
33707SOL     OW 4712   5.249   1.773   6.814 -0.2461  0.6262  0.2146
33707SOL    HW1 4713   5.208   1.781   6.727  0.9613  0.0669 -0.4280
33707SOL    HW2 4714   5.299   1.854   6.824  1.5606 -0.3050 -0.7005
33708SOL     OW 4715   9.988   4.644   6.252 -0.5552  0.0998  0.0972
33708SOL    HW1 4716   9.921   4.699   6.212  1.2243  1.5714 -1.0306
33708SOL    HW2 4717  10.006   4.684   6.337  1.1512  1.7371 -0.9598
33709SOL     OW 4718   6.491   0.258  10.530 -0.9271 -0.5223 -0.4031
33709SOL    HW1 4719   6.539   0.270  10.448 -0.5721  1.9255  0.0745
33709SOL    HW2 4720   6.438   0.337  10.538 -1.5213 -1.0562  1.3636
33710SOL     OW 4721   7.023   3.793   5.682  0.0040 -0.2276 -0.3319
33710SOL    HW1 4722   6.968   3.727   5.723 -2.1904  1.6014 -0.1181
33710SOL    HW2 4723   7.015   3.870   5.738  2.3177  0.3479 -0.6658
33711SOL     OW 4724   3.790   8.265   2.643  0.1913 -0.1994 -0.6553
33711SOL    HW1 4725   3.827   8.214   2.570  0.9552 -2.2440  1.0358
33711SOL    HW2 4726   3.701   8.231   2.653  0.5449 -0.9517  0.1730
33712SOL     OW 4727   5.742   1.298   4.751 -0.0186 -0.4046 -0.3901
33712SOL    HW1 4728   5.837   1.307   4.752  0.0547 -0.8775 -1.4989
33712SOL    HW2 4729   5.709   1.388   4.746  0.3655 -0.2381  0.0481
33713SOL     OW 4730  10.848   2.447   4.434  0.1501  0.2840  0.0293
33713SOL    HW1 4731  10.780   2.393   4.475  0.6326 -0.4471 -0.0987
33713SOL    HW2 4732  10.907   2.470   4.505 -0.8451  1.9336  0.3718
33714SOL     OW 4733   7.628  10.018   1.489  0.6258 -0.3264 -0.0858
33714SOL    HW1 4734   7.628  10.114   1.497 -0.1988 -0.4765  2.4214
33714SOL    HW2 4735   7.684   9.988   1.560  0.4822 -1.7417 -0.5472
33715SOL     OW 4736   8.057   5.765  10.783 -0.2100  0.0968  0.2265
33715SOL    HW1 4737   8.063   5.708  10.860  1.0007  0.2191  0.2409
33715SOL    HW2 4738   8.031   5.706  10.712  0.6549 -0.4181  0.3192
33716SOL     OW 4739   2.910   6.212   9.932  0.4653  0.8681 -0.7819
33716SOL    HW1 4740   2.852   6.252   9.997  1.0703  0.1058  0.2678
33716SOL    HW2 4741   2.950   6.138   9.978  0.0266 -0.4446 -2.3958
33717SOL     OW 4742   7.126  11.010  10.546  0.6763 -0.3141 -0.5097
33717SOL    HW1 4743   7.162  11.093  10.517  1.1564 -0.3928 -0.1707
33717SOL    HW2 4744   7.145  11.008  10.640  0.6079 -0.7693 -0.5022
33718SOL     OW 4745   3.212   2.789  10.433 -0.0696  0.2764  0.3301
33718SOL    HW1 4746   3.172   2.740  10.505 -0.4307 -1.4198 -0.9591
33718SOL    HW2 4747   3.305   2.796  10.458 -0.0207 -1.0080  0.6220
33719SOL     OW 4748   6.860   5.555   4.396  0.0129  0.1525 -0.3667
33719SOL    HW1 4749   6.899   5.520   4.477 -0.1763  3.5648  1.3735
33719SOL    HW2 4750   6.769   5.528   4.400 -0.0933  0.6349  0.8076
33720SOL     OW 4751   0.343   8.029   3.534 -0.2475  0.0705  0.1424
33720SOL    HW1 4752   0.260   7.991   3.505 -0.1874 -0.1608  0.2684
33720SOL    HW2 4753   0.382   7.962   3.591 -0.1268  0.3100  0.3451
33721SOL     OW 4754   2.159   3.450   1.596  0.0702 -0.4641 -0.3412
33721SOL    HW1 4755   2.189   3.526   1.647  1.5956 -0.7610 -0.7518
33721SOL    HW2 4756   2.194   3.374   1.643  0.7937 -0.7744 -1.3626
33722SOL     OW 4757   1.587   7.605   6.567 -0.6798  0.0417  0.1560
33722SOL    HW1 4758   1.679   7.611   6.590 -0.6021  2.8018 -0.5337
33722SOL    HW2 4759   1.586   7.601   6.471 -1.2618 -2.3129  0.1977
33723SOL     OW 4760   5.750   3.021   1.011 -0.2786  0.5546  0.4343
33723SOL    HW1 4761   5.832   2.988   0.973  0.0163  0.9867  0.6826
33723SOL    HW2 4762   5.721   2.951   1.069 -0.4515  0.1118 -0.1902
33724SOL     OW 4763   7.701   2.530   9.252  0.0417 -0.2558 -0.2234
33724SOL    HW1 4764   7.655   2.483   9.183  0.5910 -0.9358 -0.1366
33724SOL    HW2 4765   7.687   2.622   9.232 -2.0367 -0.4214  0.2475
33725SOL     OW 4766   8.165   5.134   3.187 -0.1793 -0.8715  0.2231
33725SOL    HW1 4767   8.255   5.105   3.197  0.1512 -0.0321 -0.2417
33725SOL    HW2 4768   8.121   5.062   3.143 -0.0427 -1.7922  1.5353
33726SOL     OW 4769   7.080   6.817   7.229  0.4492 -0.0148 -0.3553
33726SOL    HW1 4770   7.041   6.889   7.179 -0.4287 -0.3321 -0.1472
33726SOL    HW2 4771   7.033   6.739   7.201  2.4432 -0.7983 -1.7238
33727SOL     OW 4772   6.735   7.073   7.089 -0.6379  0.3340 -0.1398
33727SOL    HW1 4773   6.701   7.160   7.107 -3.0445 -0.6874  0.5708
33727SOL    HW2 4774   6.727   7.026   7.172  2.1324 -0.1781 -0.0625
33728SOL     OW 4775   8.801   8.619   1.457  0.0482 -0.4000  0.4859
33728SOL    HW1 4776   8.730   8.559   1.433  0.9148 -0.3329 -2.5584
33728SOL    HW2 4777   8.881   8.567   1.450  0.7090  0.7329 -1.0381
33729SOL     OW 4778   5.259   2.617   8.888 -0.3106  0.5433  0.3043
33729SOL    HW1 4779   5.244   2.599   8.795 -0.2218  1.7751  0.0437
33729SOL    HW2 4780   5.351   2.595   8.903 -0.8357 -1.6847  0.6192
33730SOL     OW 4781   3.334   9.609   7.682 -0.3806  0.1257  0.3403
33730SOL    HW1 4782   3.271   9.561   7.735  0.5534 -0.5271  0.8894
33730SOL    HW2 4783   3.306   9.595   7.592  0.2608 -2.1118  0.4143
33731SOL     OW 4784   9.316   2.108   1.941  0.0732  0.2305  0.0992
33731SOL    HW1 4785   9.326   2.156   1.860  1.7093 -0.7618 -0.3388
33731SOL    HW2 4786   9.222   2.109   1.959 -0.2047  1.2364 -1.3067
33732SOL     OW 4787   5.202   8.421   3.544  0.8420 -0.4498 -0.0079
33732SOL    HW1 4788   5.187   8.351   3.608  1.6444 -0.2351  0.4196
33732SOL    HW2 4789   5.237   8.493   3.595 -4.3236  2.1368  0.5146
33733SOL     OW 4790   2.961   1.308  11.002  0.4561 -0.5295 -0.0304
33733SOL    HW1 4791   3.051   1.316  11.033 -0.1323 -0.6900  1.8314
33733SOL    HW2 4792   2.934   1.220  11.027 -0.3599 -0.3160 -0.1210
33734SOL     OW 4793   4.655   8.089  10.029  0.4040 -0.2907  0.0287
33734SOL    HW1 4794   4.622   8.084  10.119  0.2577 -0.1528 -0.0164
33734SOL    HW2 4795   4.588   8.138   9.982 -0.0942 -1.3672 -0.4188
33735SOL     OW 4796   9.897  10.287   5.729 -0.7865  0.4563 -0.0071
33735SOL    HW1 4797   9.852  10.247   5.654 -0.1050 -1.1743  0.3940
33735SOL    HW2 4798   9.826  10.324   5.782 -1.4783 -0.2396 -0.4094
33736SOL     OW 4799  10.846   1.471   0.187 -0.7018  0.3155  0.5434
33736SOL    HW1 4800  10.801   1.438   0.264 -1.1959  0.8658  0.4909
33736SOL    HW2 4801  10.781   1.468   0.117 -0.0054 -1.0304 -0.0829
33737SOL     OW 4802   3.543   4.379   7.677 -0.4653  0.2761 -0.2727
33737SOL    HW1 4803   3.490   4.343   7.605  1.1371  0.1565 -1.4480
33737SOL    HW2 4804   3.599   4.444   7.635  1.6016 -0.8807  0.5468
33738SOL     OW 4805   5.243   5.751   4.318  0.1561 -0.1281 -0.3047
33738SOL    HW1 4806   5.178   5.792   4.261  0.7430 -0.0055 -0.9080
33738SOL    HW2 4807   5.199   5.740   4.401 -0.6698 -0.1457 -0.7366
33739SOL     OW 4808   4.947   7.635  10.030  0.0237  0.4270 -0.3901
33739SOL    HW1 4809   4.870   7.689  10.013 -2.2130 -1.5278  2.6188
33739SOL    HW2 4810   4.951   7.574   9.956 -1.6788  0.2128 -0.3295
33740SOL     OW 4811   9.227   3.856  10.975 -0.0897  0.1680 -0.1614
33740SOL    HW1 4812   9.201   3.890  11.061 -2.0488 -0.3498 -0.5146
33740SOL    HW2 4813   9.254   3.933  10.926 -0.9243  0.7465  0.2633
33741SOL     OW 4814  10.539   9.538   6.267 -0.1918 -0.3172 -0.0438
33741SOL    HW1 4815  10.615   9.595   6.277 -0.7935  0.4885  0.0974
33741SOL    HW2 4816  10.540   9.483   6.345  0.6826 -0.8576 -0.4274
33742SOL     OW 4817   6.797   0.471   4.922  0.4331  0.0339  0.7642
33742SOL    HW1 4818   6.705   0.481   4.896  0.3893 -1.2658  0.3843
33742SOL    HW2 4819   6.822   0.385   4.890  2.5635  1.3288 -1.4797
33743SOL     OW 4820  10.544   3.513   8.831  0.6967 -0.4782 -0.2002
33743SOL    HW1 4821  10.495   3.431   8.834  1.5636 -1.0433 -1.0282
33743SOL    HW2 4822  10.605   3.509   8.904  0.0542 -0.1124  0.3678
33744SOL     OW 4823   4.070   4.134   6.019  0.0391  0.6137 -0.2491
33744SOL    HW1 4824   4.099   4.162   5.932 -1.2425 -1.3372 -1.3718
33744SOL    HW2 4825   3.975   4.130   6.012 -0.1008  0.7011  1.3473
33745SOL     OW 4826   6.035   0.086   3.706 -0.3533  0.3477  0.7774
33745SOL    HW1 4827   6.005   0.008   3.753  2.9628 -1.5257  0.1150
33745SOL    HW2 4828   6.043   0.154   3.773 -0.5505 -0.7491  1.9398
33746SOL     OW 4829   1.673  10.734  10.782  0.1084  0.0651 -0.2605
33746SOL    HW1 4830   1.624  10.805  10.825  1.4081  0.6548  0.2859
33746SOL    HW2 4831   1.732  10.778  10.722  0.5687 -0.5799 -0.2942
33747SOL     OW 4832   4.137   9.542   9.578 -0.3338 -0.2298  0.7166
33747SOL    HW1 4833   4.065   9.592   9.539 -0.1347  1.0117  1.8975
33747SOL    HW2 4834   4.127   9.553   9.672  1.5625  0.2182  0.9164
33748SOL     OW 4835   6.173   6.663  10.594 -0.3622  0.7511  0.0224
33748SOL    HW1 4836   6.127   6.589  10.555 -1.8129  1.6749 -0.0794
33748SOL    HW2 4837   6.133   6.674  10.680  1.1794  0.2329  0.8477
33749SOL     OW 4838   0.086   7.714   5.074  0.0927  0.3004  0.0344
33749SOL    HW1 4839   0.054   7.672   4.994 -0.2861 -1.3106  0.9831
33749SOL    HW2 4840   0.149   7.651   5.110 -0.4911  0.5252  1.5163
33750SOL     OW 4841   6.750   5.902   4.351  0.7209  0.3575  0.1502
33750SOL    HW1 4842   6.676   5.850   4.381 -0.2264  0.0077 -2.4711
33750SOL    HW2 4843   6.724   5.993   4.369  0.4426  0.1501  0.8111
33751SOL     OW 4844   0.416   8.434   2.691  0.0855 -0.2359  0.0242
33751SOL    HW1 4845   0.333   8.428   2.644  0.6845 -0.1208 -1.0756
33751SOL    HW2 4846   0.479   8.391   2.634  0.8505 -0.0458  0.7063
33752SOL     OW 4847   5.558   1.744   7.463 -0.0123  0.1837  0.2712
33752SOL    HW1 4848   5.550   1.653   7.435 -0.7011  0.5445 -0.7466
33752SOL    HW2 4849   5.500   1.792   7.405 -0.9093  1.0818  1.8295
33753SOL     OW 4850   5.575   7.982   7.847 -0.3330  0.4466 -0.4443
33753SOL    HW1 4851   5.613   7.999   7.933 -0.8113  0.1430 -0.1696
33753SOL    HW2 4852   5.648   7.992   7.786 -0.1345  1.3214 -0.0737
33754SOL     OW 4853   2.184  10.203   9.528  0.8766  0.4612 -0.5922
33754SOL    HW1 4854   2.270  10.218   9.488  1.6652 -1.9607  0.0671
33754SOL    HW2 4855   2.191  10.118   9.570 -1.3766  0.9059  0.8475
33755SOL     OW 4856   5.621   4.633   0.895 -0.0942  0.3492 -0.2910
33755SOL    HW1 4857   5.694   4.666   0.947 -0.5637  0.4662  0.3095
33755SOL    HW2 4858   5.554   4.701   0.902 -1.7266 -1.3762  2.3299
33756SOL     OW 4859   3.470   6.759   5.660 -0.7196 -0.3539 -0.0564
33756SOL    HW1 4860   3.464   6.831   5.596 -0.8957  0.4947  0.8855
33756SOL    HW2 4861   3.554   6.718   5.643  0.0735  1.0367  0.3606
33757SOL     OW 4862   5.571   4.401  11.025  0.1019  0.6470 -0.0313
33757SOL    HW1 4863   5.655   4.398  11.071  1.1908 -0.3321 -1.9337
33757SOL    HW2 4864   5.591   4.368  10.937 -2.8193 -2.1687  0.2006
33758SOL     OW 4865   2.812   3.053   3.223  0.1956 -0.4897  0.6474
33758SOL    HW1 4866   2.903   3.033   3.204  0.3533 -0.4700  1.3819
33758SOL    HW2 4867   2.807   3.061   3.318 -0.1565  1.4534  0.5198
33759SOL     OW 4868  10.921  10.713   3.169 -0.2120  0.3470 -0.1556
33759SOL    HW1 4869  10.957  10.800   3.182  0.3599 -0.0498  1.0617
33759SOL    HW2 4870  10.968  10.658   3.231  0.7993 -1.2190 -2.1951
33760SOL     OW 4871   0.662   6.118   8.168  0.3558 -0.3013  0.3854
33760SOL    HW1 4872   0.720   6.159   8.104 -1.4488  0.8456 -0.6081
33760SOL    HW2 4873   0.640   6.189   8.229 -1.4978 -0.1622 -0.3936
33761SOL     OW 4874   4.842   4.777   3.669  0.1944  0.2727  0.4647
33761SOL    HW1 4875   4.861   4.716   3.597  1.5744  1.4567 -0.2241
33761SOL    HW2 4876   4.764   4.824   3.640 -0.1465 -0.2909  0.4403
33762SOL     OW 4877   5.657   4.484   6.402 -0.2928 -0.2865 -0.5077
33762SOL    HW1 4878   5.714   4.515   6.332 -0.5047 -0.2033 -0.6446
33762SOL    HW2 4879   5.568   4.504   6.372 -0.7056 -3.6341 -1.9485
33763SOL     OW 4880   1.642   8.545   4.839 -0.1925 -0.4119 -0.2123
33763SOL    HW1 4881   1.601   8.459   4.851  1.1104 -1.1938 -1.0962
33763SOL    HW2 4882   1.569   8.606   4.830 -1.3687 -0.5924  5.0062
33764SOL     OW 4883   6.393   1.218   6.438  0.0720  0.1166 -0.2160
33764SOL    HW1 4884   6.474   1.176   6.409 -0.0024 -0.4693  0.3816
33764SOL    HW2 4885   6.342   1.146   6.476 -0.6755  0.5025 -0.4790
33765SOL     OW 4886   8.255   2.898   0.649 -0.1547  0.3028 -0.1504
33765SOL    HW1 4887   8.168   2.933   0.631 -0.8230 -0.9358  0.5724
33765SOL    HW2 4888   8.240   2.817   0.699  1.3931 -0.0553 -0.1874
33766SOL     OW 4889   6.999   0.188  10.839  0.2386 -0.0538  0.1625
33766SOL    HW1 4890   6.968   0.206  10.750  2.2351 -1.6405 -0.9264
33766SOL    HW2 4891   7.083   0.143  10.827  1.4132  1.1910  2.8917
33767SOL     OW 4892   6.505   3.517   6.852  0.4207 -0.5030 -0.3330
33767SOL    HW1 4893   6.467   3.601   6.879  3.3785  1.2004 -0.9982
33767SOL    HW2 4894   6.555   3.537   6.773  0.0612 -3.2741 -1.3948
33768SOL     OW 4895   6.625   8.683   9.647 -0.7040  0.1060 -0.3239
33768SOL    HW1 4896   6.585   8.607   9.689 -0.0711  0.5300  1.0931
33768SOL    HW2 4897   6.691   8.646   9.589 -0.2906 -0.4390  0.4758
33769SOL     OW 4898   5.284   5.980   1.849  0.0395  0.2597 -0.0328
33769SOL    HW1 4899   5.356   6.035   1.880 -0.5995  1.5743 -0.7761
33769SOL    HW2 4900   5.238   6.034   1.784 -0.8358 -1.0326 -0.5501
33770SOL     OW 4901   8.572   1.608   8.846 -0.4667  0.2691 -0.0534
33770SOL    HW1 4902   8.535   1.534   8.798 -1.2039  0.2078  0.6002
33770SOL    HW2 4903   8.600   1.570   8.930  2.4299 -0.0096 -1.0135
33771SOL     OW 4904   0.358   8.399  11.069  0.4783 -0.1842 -0.1974
33771SOL    HW1 4905   0.357   8.382  10.974 -0.8386 -0.4501 -0.1574
33771SOL    HW2 4906   0.297   8.334  11.105  1.2238 -0.3054  0.8866
33772SOL     OW 4907   0.211   9.819   4.335 -0.1341 -0.0626  0.2463
33772SOL    HW1 4908   0.256   9.852   4.257 -2.0290 -1.5873 -1.6293
33772SOL    HW2 4909   0.210   9.724   4.323 -0.4799 -0.3226  2.1616
33773SOL     OW 4910   2.498   7.944   7.701  0.1716 -0.2286  0.3743
33773SOL    HW1 4911   2.520   8.012   7.637 -3.3543 -0.0413 -0.9060
33773SOL    HW2 4912   2.470   7.870   7.647  1.0474 -1.6215  1.7633
33774SOL     OW 4913   6.462   3.221   6.700 -0.2716 -0.5670 -0.3708
33774SOL    HW1 4914   6.545   3.259   6.671 -0.6180 -1.1970 -2.3279
33774SOL    HW2 4915   6.396   3.286   6.677 -0.5403 -0.9992 -0.8408
33775SOL     OW 4916   4.024   5.305   9.737 -0.2117 -0.3077  0.1877
33775SOL    HW1 4917   4.071   5.256   9.805 -1.2465 -1.9126 -0.2290
33775SOL    HW2 4918   3.959   5.356   9.786  0.6447  0.4430  0.5877
33776SOL     OW 4919   5.730   0.341   9.549 -0.3992  0.1992  0.2896
33776SOL    HW1 4920   5.824   0.356   9.538 -0.6563  2.6110  0.7721
33776SOL    HW2 4921   5.710   0.269   9.489  1.6281  0.0354 -0.2773
33777SOL     OW 4922   7.187   2.319   5.903 -0.5998  0.2352 -0.0315
33777SOL    HW1 4923   7.205   2.226   5.917 -1.4411 -0.0354 -0.7114
33777SOL    HW2 4924   7.156   2.325   5.813  2.2683  1.6056 -1.0390
33778SOL     OW 4925   0.231   1.053   0.995  0.0578  0.1882  0.2279
33778SOL    HW1 4926   0.285   0.978   1.018 -1.0035 -0.3499  1.0630
33778SOL    HW2 4927   0.168   1.061   1.067 -1.4113  0.3491 -1.0042
33779SOL     OW 4928   3.844   9.581   0.516  0.2796 -0.0539  0.0551
33779SOL    HW1 4929   3.804   9.564   0.431 -0.4503 -0.0016  0.3795
33779SOL    HW2 4930   3.938   9.581   0.499  0.1866 -1.1084 -0.5594
33780SOL     OW 4931   6.680   0.277   9.070 -0.4588 -0.0544 -0.2614
33780SOL    HW1 4932   6.741   0.232   9.129  0.8817  2.0339  0.0626
33780SOL    HW2 4933   6.619   0.322   9.129  0.1596  1.0773 -0.4578
33781SOL     OW 4934   2.453   9.330   3.362 -0.6078  0.0481 -0.3276
33781SOL    HW1 4935   2.431   9.239   3.345 -1.6311 -0.1656  1.8119
33781SOL    HW2 4936   2.549   9.331   3.372 -0.4223 -0.4795 -1.7650
33782SOL     OW 4937   1.217   9.683   3.857 -0.0273 -0.1433  0.5139
33782SOL    HW1 4938   1.250   9.762   3.815  2.5103 -0.3680  1.8918
33782SOL    HW2 4939   1.173   9.714   3.936  0.6506 -0.0885  0.8689
33783SOL     OW 4940   5.867   7.895   4.355  0.1821  0.1090  0.0801
33783SOL    HW1 4941   5.834   7.945   4.430 -0.2280 -0.8268  0.5378
33783SOL    HW2 4942   5.935   7.839   4.392 -0.3793 -0.7340 -0.1432
33784SOL     OW 4943   6.456   6.199   2.369  0.2603 -0.0189  0.2431
33784SOL    HW1 4944   6.498   6.212   2.454  1.3769 -0.1418 -0.2753
33784SOL    HW2 4945   6.366   6.228   2.383 -0.4842 -2.8638  2.3448
33785SOL     OW 4946   7.384   4.631   6.969 -0.1043  0.0361  0.1929
33785SOL    HW1 4947   7.343   4.702   6.920 -0.6960  0.3464  1.1121
33785SOL    HW2 4948   7.476   4.632   6.941 -0.8316 -1.2810 -2.6254
33786SOL     OW 4949   5.817   6.557   5.608 -0.2728 -0.4393 -0.5897
33786SOL    HW1 4950   5.752   6.536   5.675  0.3316  0.5405  0.3487
33786SOL    HW2 4951   5.901   6.539   5.652  0.1716  1.3317 -0.6534
33787SOL     OW 4952   4.439   8.737   6.007 -0.6660  0.3878 -0.4065
33787SOL    HW1 4953   4.484   8.653   6.021 -0.7002  0.1987 -1.3723
33787SOL    HW2 4954   4.461   8.762   5.917  0.8481  2.3516  0.4449
33788SOL     OW 4955   2.065   1.826   8.654  0.0414 -0.0883  0.2959
33788SOL    HW1 4956   2.095   1.845   8.743  0.4208  1.7784 -0.2018
33788SOL    HW2 4957   2.140   1.784   8.612 -0.4236 -1.8067  1.0579
33789SOL     OW 4958   0.427   5.271   9.800  0.3706 -0.3222 -0.3251
33789SOL    HW1 4959   0.520   5.291   9.797  0.2355  0.4352  0.3849
33789SOL    HW2 4960   0.409   5.229   9.716  1.0718  0.7766 -1.0451
33790SOL     OW 4961   7.441   9.502   6.589  0.4148 -0.0904 -0.0230
33790SOL    HW1 4962   7.395   9.423   6.619 -2.0573  1.1605 -0.2325
33790SOL    HW2 4963   7.390   9.531   6.513  2.8598  0.2799 -1.6536
33791SOL     OW 4964   3.045   5.445   4.841 -0.3191  0.0104 -0.4171
33791SOL    HW1 4965   3.121   5.424   4.787  0.5346  1.1551  0.2985
33791SOL    HW2 4966   3.027   5.364   4.889 -0.4379 -0.6911 -1.6315
33792SOL     OW 4967   7.233   4.949   7.116  0.6308  0.3821  0.1870
33792SOL    HW1 4968   7.144   4.976   7.138  0.3381 -0.8790  0.6474
33792SOL    HW2 4969   7.260   4.894   7.189  1.3871 -0.1210 -0.4530
33793SOL     OW 4970   5.417   2.482   6.938  0.5206 -0.3503 -0.1551
33793SOL    HW1 4971   5.401   2.551   7.003  0.4468 -0.9949  0.5206
33793SOL    HW2 4972   5.390   2.522   6.855 -0.0204  0.2577  0.2942
33794SOL     OW 4973   7.555   3.189  10.097 -0.0498 -0.1906 -0.0190
33794SOL    HW1 4974   7.646   3.169  10.078 -0.1949 -0.4215 -0.4768
33794SOL    HW2 4975   7.530   3.128  10.166 -0.2935 -1.1404 -0.9329
33795SOL     OW 4976   1.936   6.303   4.994 -0.5139  0.2484  0.1631
33795SOL    HW1 4977   1.986   6.222   4.977  0.4239  0.6081  1.0681
33795SOL    HW2 4978   1.966   6.331   5.081  0.1529  2.2712 -0.6751
33796SOL     OW 4979   9.301   7.108   7.765  0.3008  0.4720 -0.0868
33796SOL    HW1 4980   9.381   7.160   7.760  0.2262  0.5218 -1.0064
33796SOL    HW2 4981   9.311   7.042   7.696 -1.1591  1.5275 -1.3710
33797SOL     OW 4982   0.961   4.408   1.525 -0.2796 -0.2831 -0.1582
33797SOL    HW1 4983   0.991   4.385   1.613 -0.6370  1.4804  0.4783
33797SOL    HW2 4984   0.959   4.504   1.526  1.0728 -0.1659 -2.5696
33798SOL     OW 4985   2.488   0.730   3.049 -0.3058  0.1321  0.0948
33798SOL    HW1 4986   2.413   0.687   3.007  0.8903 -0.7476 -1.2465
33798SOL    HW2 4987   2.518   0.667   3.114  1.3688 -1.1509 -1.7845
33799SOL     OW 4988   6.696   1.251   8.277  0.6981 -0.1066  0.2542
33799SOL    HW1 4989   6.782   1.209   8.271 -0.2179 -2.0911  0.3045
33799SOL    HW2 4990   6.645   1.193   8.334 -0.5876  1.2129  0.5091
33800SOL     OW 4991   7.712  10.751   3.014  0.1779  0.3540 -0.7682
33800SOL    HW1 4992   7.653  10.702   2.956 -0.6153  2.0105 -1.4039
33800SOL    HW2 4993   7.784  10.778   2.958  0.5272  0.0969 -0.4523
33801SOL     OW 4994   9.143   1.597   7.878  0.0902 -0.0319  0.0279
33801SOL    HW1 4995   9.141   1.512   7.922 -0.1458  0.2129  0.4973
33801SOL    HW2 4996   9.200   1.651   7.933  0.4117  0.0512 -0.3863
33802SOL     OW 4997   3.631   8.473   8.459  0.1217 -0.0588 -0.2520
33802SOL    HW1 4998   3.581   8.424   8.395 -1.7807 -0.9161  1.7596
33802SOL    HW2 4999   3.568   8.533   8.499  0.9701 -0.2388  1.4728
33803SOL     OW 5000   4.582   0.472   8.812 -0.1755  0.2995  0.3425
33803SOL    HW1 5001   4.562   0.402   8.874 -0.1940  0.6560  0.7437
33803SOL    HW2 5002   4.527   0.454   8.736 -1.0894  0.5646  0.9343
33804SOL     OW 5003   4.809   6.109   2.765  0.1499  0.1191  0.1252
33804SOL    HW1 5004   4.736   6.156   2.724  0.4980 -0.1211 -0.7881
33804SOL    HW2 5005   4.886   6.163   2.746  0.1576  0.6681  1.5664
33805SOL     OW 5006  10.733  10.049   6.501  0.5473  0.4672  0.0442
33805SOL    HW1 5007  10.640  10.069   6.485  0.6900  0.1471 -1.2923
33805SOL    HW2 5008  10.738   9.954   6.493  0.4871  0.0862  3.0577
33806SOL     OW 5009   1.239   2.998   1.080  0.3351  0.2473  0.1196
33806SOL    HW1 5010   1.310   2.952   1.127 -0.8224  0.3743  2.0850
33806SOL    HW2 5011   1.219   3.074   1.135 -0.4739  0.9148 -1.0663
33807SOL     OW 5012   4.072   5.096   0.327 -0.2332  0.3597 -0.0084
33807SOL    HW1 5013   4.112   5.033   0.387 -0.6082 -0.6080 -0.7555
33807SOL    HW2 5014   4.131   5.098   0.252  0.9307  2.5368  0.8729
33808SOL     OW 5015   9.203   4.619   8.112 -0.6674 -0.3493  0.2285
33808SOL    HW1 5016   9.227   4.541   8.062 -0.4551  0.0624 -0.3158
33808SOL    HW2 5017   9.107   4.615   8.117 -0.6688 -0.5580  0.0651
33809SOL     OW 5018  10.935   8.040   0.806  0.3417 -0.1847  0.5472
33809SOL    HW1 5019  10.871   7.988   0.757  0.6276 -2.1018  2.0938
33809SOL    HW2 5020  10.923   8.014   0.897  2.2829  0.5395  1.0626
33810SOL     OW 5021   2.977   5.024   9.658 -0.1980  0.2470  0.8295
33810SOL    HW1 5022   2.939   5.073   9.585  0.8533  0.6567  0.5251
33810SOL    HW2 5023   2.931   4.941   9.658 -1.5256  0.9591  0.8944
33811SOL     OW 5024   7.713  10.050   7.285 -0.5683 -0.3892 -0.6397
33811SOL    HW1 5025   7.648  10.021   7.349  1.3858 -0.5728  1.3507
33811SOL    HW2 5026   7.728   9.973   7.230 -1.6715 -0.4751 -0.8505
33812SOL     OW 5027   9.923   0.473   3.664  0.2378 -0.0970  0.1801
33812SOL    HW1 5028   9.907   0.379   3.664  1.5661 -0.3914  2.6321
33812SOL    HW2 5029   9.837   0.511   3.644 -0.1842 -1.7586 -1.5475
33813SOL     OW 5030   4.855   7.719   1.083  0.4297  0.2467  0.2142
33813SOL    HW1 5031   4.786   7.673   1.035  1.5846  0.3271 -1.6177
33813SOL    HW2 5032   4.808   7.785   1.133 -1.0538 -1.3767  1.1057
33814SOL     OW 5033   0.550   5.008   6.657 -0.0967  0.2837 -0.7273
33814SOL    HW1 5034   0.536   5.085   6.712 -1.3301 -0.3226 -0.1397
33814SOL    HW2 5035   0.467   4.995   6.611  0.1452 -0.5761 -0.9551
33815SOL     OW 5036   6.434   9.637   9.769 -0.0783 -0.8834  0.4086
33815SOL    HW1 5037   6.517   9.656   9.814 -0.3267 -0.7520  0.8093
33815SOL    HW2 5038   6.385   9.583   9.831 -0.6266 -0.2969  0.4937
33816SOL     OW 5039   7.064  10.287   9.212 -0.1528  0.0079 -0.0746
33816SOL    HW1 5040   6.987  10.231   9.220 -0.4449  0.5271  1.1024
33816SOL    HW2 5041   7.045  10.362   9.269  0.6691  0.7908 -0.7905
33817SOL     OW 5042   5.079   4.234   6.998 -0.3278  0.6555 -0.5957
33817SOL    HW1 5043   5.174   4.242   6.993 -0.4190  1.4492 -1.4225
33817SOL    HW2 5044   5.060   4.231   7.091  0.4572  1.3369 -0.4027
33818SOL     OW 5045   3.114   9.620   6.452  0.2612  0.3836 -0.7856
33818SOL    HW1 5046   3.191   9.631   6.395  0.6053  1.4092 -0.1511
33818SOL    HW2 5047   3.061   9.698   6.436 -0.5654 -0.2324 -1.0789
33819SOL     OW 5048   3.921   6.391   9.964  0.3025  0.3761  0.0592
33819SOL    HW1 5049   3.993   6.434  10.009 -0.3469  0.1438  1.3712
33819SOL    HW2 5050   3.963   6.327   9.907  1.1821  1.2821 -0.3286
33820SOL     OW 5051   3.712   8.233   2.293 -0.1203  0.4089 -0.0124
33820SOL    HW1 5052   3.646   8.166   2.274 -1.2781  1.3716  0.4776
33820SOL    HW2 5053   3.782   8.186   2.338 -1.0699 -0.4267  0.6483
33821SOL     OW 5054   6.985   6.431   2.416  0.4788 -0.3993 -0.1849
33821SOL    HW1 5055   7.004   6.338   2.401  1.2480 -0.0617 -1.4297
33821SOL    HW2 5056   6.999   6.472   2.331 -0.6979  0.7337  0.1527
33822SOL     OW 5057   8.864   7.574   2.838 -0.1571  0.2036  0.1510
33822SOL    HW1 5058   8.899   7.487   2.853 -1.5434 -0.1929  1.3115
33822SOL    HW2 5059   8.785   7.559   2.786 -1.7399  0.4646  2.3236
33823SOL     OW 5060   8.671   4.697   9.046  0.2406  0.0705 -0.0220
33823SOL    HW1 5061   8.718   4.623   9.007 -1.5343 -1.1432  0.0219
33823SOL    HW2 5062   8.739   4.746   9.092  1.5867 -1.1749 -0.5774
33824SOL     OW 5063   5.276   5.955   1.462 -0.4771  0.1559  0.3042
33824SOL    HW1 5064   5.355   5.995   1.498 -0.9156  1.6773 -0.3167
33824SOL    HW2 5065   5.304   5.915   1.380 -0.4478  1.3256 -0.2824
33825SOL     OW 5066  10.452   7.863  10.718 -0.1921  0.6405  0.8374
33825SOL    HW1 5067  10.418   7.830  10.801  0.4406 -1.2116  0.4207
33825SOL    HW2 5068  10.523   7.802  10.696 -0.3334  1.0965 -1.0461
33826SOL     OW 5069   2.563   6.481   4.888  0.1343 -0.3919  0.2885
33826SOL    HW1 5070   2.510   6.533   4.949 -0.8811  0.3338 -1.1677
33826SOL    HW2 5071   2.513   6.480   4.807  2.5642  0.8222 -1.3616
33827SOL     OW 5072   1.095   4.009  10.378  1.0283 -0.0886 -0.3259
33827SOL    HW1 5073   1.006   3.990  10.409  0.4581 -1.0755 -2.4296
33827SOL    HW2 5074   1.148   3.937  10.413  0.4102 -1.1477 -1.4918
33828SOL     OW 5075   5.602   2.225   8.720  0.1370  0.1276 -0.4472
33828SOL    HW1 5076   5.549   2.288   8.671 -0.8333 -1.3302 -1.3302
33828SOL    HW2 5077   5.672   2.278   8.759 -1.2533  1.9079 -0.2578
33829SOL     OW 5078   8.974  10.558   7.699  0.5938  0.3758  0.1278
33829SOL    HW1 5079   9.028  10.488   7.735  1.0882  0.7634  0.1651
33829SOL    HW2 5080   8.933  10.598   7.776  0.2056  0.0369  0.0933
33830SOL     OW 5081  10.712   8.717   2.650 -0.2475 -0.2862  0.0887
33830SOL    HW1 5082  10.787   8.749   2.599 -1.2722 -1.0290 -1.9469
33830SOL    HW2 5083  10.746   8.641   2.697  0.6377  0.2472  0.3498
33831SOL     OW 5084   5.841  10.335   6.838  0.9946  0.7945  0.2782
33831SOL    HW1 5085   5.753  10.349   6.875  0.3697  1.4276 -1.3638
33831SOL    HW2 5086   5.850  10.240   6.832 -0.0012  0.7418 -0.4932
33832SOL     OW 5087   8.046   9.184   3.412  0.2081 -0.6066  0.2611
33832SOL    HW1 5088   8.105   9.255   3.386 -1.1247  0.2225 -0.6328
33832SOL    HW2 5089   7.995   9.165   3.334 -1.4023 -0.5779  1.2405
33833SOL     OW 5090  10.599   9.141   4.828 -0.2647 -0.1804  0.2068
33833SOL    HW1 5091  10.530   9.122   4.764  1.7127 -0.1927 -2.0644
33833SOL    HW2 5092  10.614   9.057   4.872  0.3822 -1.0118 -1.5001
33834SOL     OW 5093   5.440   2.766   5.466 -0.3103  0.0122 -0.3828
33834SOL    HW1 5094   5.387   2.698   5.424  1.6370 -1.3720 -0.7026
33834SOL    HW2 5095   5.488   2.806   5.394 -0.5892  0.9753 -0.0420
33835SOL     OW 5096   6.639   2.478   2.226  0.6648  0.3214 -0.1226
33835SOL    HW1 5097   6.561   2.437   2.263  0.7050  1.1607  0.9556
33835SOL    HW2 5098   6.608   2.522   2.147  0.0998  0.4197  0.1468
33836SOL     OW 5099   7.665   6.906   3.661 -0.1511 -0.3014  0.4908
33836SOL    HW1 5100   7.667   6.881   3.569  0.0681  0.7651  0.1900
33836SOL    HW2 5101   7.756   6.925   3.683 -0.2340 -0.3210  0.8626
33837SOL     OW 5102   0.075   4.186   5.618  0.7841 -0.1234  0.5487
33837SOL    HW1 5103   0.162   4.210   5.651  1.0075  1.2505 -0.9030
33837SOL    HW2 5104   0.092   4.153   5.530 -0.2243  1.0889 -0.1401
33838SOL     OW 5105   3.551   4.842   2.915 -0.5352  0.0381 -0.2791
33838SOL    HW1 5106   3.479   4.879   2.864  0.4060  0.9953 -0.9567
33838SOL    HW2 5107   3.563   4.902   2.988 -0.7210 -0.3625  0.0804
33839SOL     OW 5108   4.129   2.956   8.494  0.2440 -0.5967  0.0940
33839SOL    HW1 5109   4.220   2.934   8.510  0.7153  0.6940 -0.6394
33839SOL    HW2 5110   4.111   3.028   8.554  0.3190  0.4436 -1.0777
33840SOL     OW 5111   6.857   2.126   6.104 -0.1750  0.8989  0.6277
33840SOL    HW1 5112   6.782   2.167   6.061 -1.5561 -1.0809  0.9782
33840SOL    HW2 5113   6.841   2.032   6.094  2.2797  0.4047  0.7476
33841SOL     OW 5114  10.673   9.400   4.884  0.0545  0.2912 -0.0236
33841SOL    HW1 5115  10.636   9.314   4.901 -0.3941  0.3143 -0.8001
33841SOL    HW2 5116  10.666   9.411   4.789  2.6238  0.0601 -0.3183
33842SOL     OW 5117   3.683   5.272   6.165  0.2095  0.4418 -0.2247
33842SOL    HW1 5118   3.655   5.293   6.075 -2.0895  0.6961  0.4938
33842SOL    HW2 5119   3.602   5.268   6.215  1.4998  1.2368  2.0611
33843SOL     OW 5120   2.718   0.461  10.831 -0.0226  0.0278  0.3989
33843SOL    HW1 5121   2.776   0.389  10.805 -0.3918 -0.4467  0.8521
33843SOL    HW2 5122   2.699   0.507  10.749  1.1413  0.3101  0.2756
33844SOL     OW 5123   9.933   3.803   4.674  0.1937  0.0755  0.0179
33844SOL    HW1 5124   9.887   3.859   4.737  1.7992  1.6883 -0.1685
33844SOL    HW2 5125  10.018   3.788   4.714  0.7549  0.0183 -1.1840
33845SOL     OW 5126   5.228   6.071   2.207 -0.4959  1.0469  0.4164
33845SOL    HW1 5127   5.293   6.073   2.137 -0.9831  2.5064 -0.0328
33845SOL    HW2 5128   5.272   6.026   2.279  1.1617  2.3006  0.2590
33846SOL     OW 5129  10.594   3.526   3.426 -0.9364  0.8199  0.3058
33846SOL    HW1 5130  10.565   3.554   3.339 -0.6540  0.5370  0.1200
33846SOL    HW2 5131  10.668   3.468   3.410 -3.2816 -2.4837  0.4829
33847SOL     OW 5132   8.900  10.768   1.214  0.3622  0.4028  0.6441
33847SOL    HW1 5133   8.990  10.737   1.207 -0.0954 -1.2771  1.6022
33847SOL    HW2 5134   8.848  10.699   1.172 -0.7535 -0.5893  3.4478
33848SOL     OW 5135  10.667   2.739   8.936  0.0542 -0.3819 -0.5430
33848SOL    HW1 5136  10.658   2.645   8.953  1.8228 -0.7326 -1.3722
33848SOL    HW2 5137  10.689   2.777   9.021 -0.3876 -0.7418 -0.2602
33849SOL     OW 5138   9.861   8.012   5.887 -0.3422  0.2444  0.3340
33849SOL    HW1 5139   9.913   7.931   5.883  1.7056  1.4977  0.2903
33849SOL    HW2 5140   9.926   8.082   5.888 -1.9755  1.8646  2.2570
33850SOL     OW 5141   7.773   3.282   9.219 -0.4389  0.3378 -0.0900
33850SOL    HW1 5142   7.736   3.354   9.269  1.4432  0.8175  0.7210
33850SOL    HW2 5143   7.856   3.262   9.263  0.6634 -0.1383 -2.1980
33851SOL     OW 5144   8.369   4.465   5.624  0.5508  0.1412  0.1181
33851SOL    HW1 5145   8.336   4.524   5.692  1.3573  0.3443  0.3412
33851SOL    HW2 5146   8.357   4.513   5.543  0.2621  0.1902  0.1859
33852SOL     OW 5147   6.679   2.708   1.283 -0.8423  0.1921  0.1544
33852SOL    HW1 5148   6.755   2.734   1.230 -0.5978  0.3895  0.5991
33852SOL    HW2 5149   6.622   2.662   1.221 -0.9717  1.2008 -0.5070
33853SOL     OW 5150   2.987   2.154   2.448  0.3440 -0.4903  0.7170
33853SOL    HW1 5151   2.940   2.167   2.530 -0.3472  1.6374  0.0426
33853SOL    HW2 5152   2.963   2.065   2.421 -0.5588 -0.6976  2.0699
33854SOL     OW 5153   6.989   8.064   5.044  0.0676 -0.0529  0.4559
33854SOL    HW1 5154   6.894   8.069   5.047  0.0888  0.2212  0.6625
33854SOL    HW2 5155   7.019   8.146   5.083  0.3987  1.3011 -2.4018
33855SOL     OW 5156   9.283   8.150   7.690 -0.1686 -0.3550 -0.1885
33855SOL    HW1 5157   9.362   8.106   7.659 -0.8574 -1.5988 -0.2735
33855SOL    HW2 5158   9.214   8.085   7.677 -0.7945 -0.2390  2.1890
33856SOL     OW 5159   0.752   8.179   0.310  0.3769 -0.0143  0.2507
33856SOL    HW1 5160   0.803   8.189   0.230 -0.0496 -1.6476 -0.2561
33856SOL    HW2 5161   0.666   8.150   0.281  0.0688 -0.1607  1.2785
33857SOL     OW 5162   0.141  10.314   6.534 -0.7866 -0.4928  0.2143
33857SOL    HW1 5163   0.111  10.324   6.444  0.9768 -1.1274 -0.5057
33857SOL    HW2 5164   0.176  10.225   6.538 -3.9306 -1.8240  2.5731
33858SOL     OW 5165   5.784   7.104   5.989 -0.5306 -0.2183  0.6634
33858SOL    HW1 5166   5.797   7.127   5.897  1.7029  0.5729  1.1090
33858SOL    HW2 5167   5.779   7.008   5.989  0.7668 -0.3072 -0.1755
33859SOL     OW 5168   0.357  10.732   6.067  0.4942 -0.3772 -0.6765
33859SOL    HW1 5169   0.340  10.690   6.151  1.5393 -0.3695 -0.4463
33859SOL    HW2 5170   0.379  10.661   6.007  1.9428 -0.2085 -0.3692
33860SOL     OW 5171   5.934  10.660   8.122  0.0243  0.5332  0.3412
33860SOL    HW1 5172   5.956  10.705   8.041  0.2567 -1.1436 -0.5820
33860SOL    HW2 5173   5.856  10.608   8.100 -0.4554  0.7513  1.4600
33861SOL     OW 5174   0.512   3.979   1.881 -0.2937  0.6181  0.2839
33861SOL    HW1 5175   0.574   3.922   1.836  0.4845  1.3189  0.4343
33861SOL    HW2 5176   0.442   3.921   1.910 -0.8710  0.1597 -1.8785
33862SOL     OW 5177   7.281   0.414   7.394  0.8408 -0.1134  0.0139
33862SOL    HW1 5178   7.215   0.399   7.462 -1.0084 -0.0510 -1.6484
33862SOL    HW2 5179   7.303   0.507   7.401 -0.7586  0.3497 -0.6084
33863SOL     OW 5180   2.015  10.029   5.086  0.6567 -0.0203 -0.1360
33863SOL    HW1 5181   2.103  10.066   5.089  1.2176 -1.3552  1.9151
33863SOL    HW2 5182   1.992  10.014   5.178 -1.2318 -0.8106 -0.6915
33864SOL     OW 5183   4.031   1.362   0.019 -0.3393 -0.1783  0.2798
33864SOL    HW1 5184   4.040   1.437   0.078  1.9640  1.5551 -1.9939
33864SOL    HW2 5185   3.972   1.393  -0.050  0.8590 -0.2471 -0.8320
33865SOL     OW 5186   8.257   9.595   3.750  0.2193 -0.3574  0.1897
33865SOL    HW1 5187   8.268   9.550   3.834 -0.2405 -0.5502  0.1501
33865SOL    HW2 5188   8.191   9.544   3.704  0.8527 -0.5626 -0.5113
33866SOL     OW 5189   5.699   0.145   3.485 -0.4415 -0.3148 -0.0006
33866SOL    HW1 5190   5.716   0.088   3.560 -2.2360 -0.9277 -0.0191
33866SOL    HW2 5191   5.783   0.147   3.437 -0.2056 -2.6778  0.1928
33867SOL     OW 5192  10.100   1.125   5.312 -0.5315 -0.6984  0.0619
33867SOL    HW1 5193  10.064   1.107   5.399  1.2008  0.2701  1.0215
33867SOL    HW2 5194  10.187   1.086   5.314  0.1373  0.7078 -0.6658
33868SOL     OW 5195   6.993   7.462   2.870  0.2503  0.0967 -0.3126
33868SOL    HW1 5196   6.937   7.512   2.811 -0.8456  0.1387  0.7361
33868SOL    HW2 5197   7.004   7.519   2.946  0.8003 -0.3687 -0.0367
33869SOL     OW 5198   0.979   8.183  10.277  0.0009  0.0864 -0.3098
33869SOL    HW1 5199   0.961   8.099  10.236 -0.0885 -0.3487  0.5815
33869SOL    HW2 5200   0.914   8.189  10.348  0.3765  0.6470 -0.0053
33870SOL     OW 5201   8.595   1.268   1.873  0.3161  0.9735 -0.4473
33870SOL    HW1 5202   8.534   1.230   1.936 -0.9247  1.6101 -1.2127
33870SOL    HW2 5203   8.572   1.362   1.873  1.8100  1.3625 -0.2166
33871SOL     OW 5204   3.156   1.957   9.420 -0.1891  0.2368 -0.0021
33871SOL    HW1 5205   3.252   1.952   9.417 -0.1853  0.6257 -0.9978
33871SOL    HW2 5206   3.127   1.866   9.408  0.0426 -0.0325  1.2607
33872SOL     OW 5207   5.412   3.847   3.583 -0.2157  0.6375  0.1696
33872SOL    HW1 5208   5.384   3.759   3.559  0.0556  0.2186  1.3490
33872SOL    HW2 5209   5.337   3.884   3.629  0.4713  0.1680  1.7231
33873SOL     OW 5210   4.585   7.608   9.037  0.0154  0.2514 -0.2192
33873SOL    HW1 5211   4.509   7.551   9.048 -0.1463  0.5918  0.4252
33873SOL    HW2 5212   4.561   7.690   9.078 -0.6049  1.6000 -3.0069
33874SOL     OW 5213   7.543   4.351  10.807  0.1873  0.2114 -0.6246
33874SOL    HW1 5214   7.563   4.263  10.840 -0.5594 -0.6629 -2.3550
33874SOL    HW2 5215   7.595   4.410  10.862  0.8522 -1.3214  0.4618
33875SOL     OW 5216   9.715  10.820  10.327 -0.0396  0.0073  0.0961
33875SOL    HW1 5217   9.657  10.872  10.384  1.0065  0.5847  0.6527
33875SOL    HW2 5218   9.698  10.730  10.352 -1.0372  0.1322 -0.0738
33876SOL     OW 5219   2.420  11.048   1.929 -0.3540  0.0402  0.3080
33876SOL    HW1 5220   2.388  11.058   2.019 -1.6922 -1.6117  0.0570
33876SOL    HW2 5221   2.425  11.138   1.896 -3.1969  0.5461  0.9497
33877SOL     OW 5222   4.672   4.969   1.021  0.7910 -0.2420 -0.6334
33877SOL    HW1 5223   4.714   5.043   0.977  0.8986  0.6066  0.8054
33877SOL    HW2 5224   4.595   5.007   1.063  0.1898 -1.1992 -0.8421
33878SOL     OW 5225   2.979   8.012   9.372  0.1313 -0.5948 -0.0084
33878SOL    HW1 5226   3.018   8.097   9.354 -0.6850 -0.1565  0.2302
33878SOL    HW2 5227   2.938   7.986   9.289  2.0814 -1.7240 -0.6945
33879SOL     OW 5228   7.344   9.485   1.055 -0.1710  0.1594 -0.8415
33879SOL    HW1 5229   7.366   9.578   1.062  0.1294  0.0175  0.2424
33879SOL    HW2 5230   7.259   9.478   1.098 -0.2654 -0.0503 -1.0582
33880SOL     OW 5231   9.124   8.840   5.752  0.2691  0.3892 -0.1900
33880SOL    HW1 5232   9.037   8.871   5.727  0.9831  1.2671 -1.7675
33880SOL    HW2 5233   9.132   8.863   5.844 -1.1684  0.2790 -0.0168
33881SOL     OW 5234   8.677   8.829   5.323  0.3951  0.0288  0.3111
33881SOL    HW1 5235   8.591   8.866   5.338  0.7181  1.0309 -0.2617
33881SOL    HW2 5236   8.663   8.761   5.257  0.2649  1.2426 -0.9544
33882SOL     OW 5237   4.575   6.707   8.564 -0.5057  0.5293  0.1332
33882SOL    HW1 5238   4.582   6.663   8.649  3.1428  1.2455  0.3991
33882SOL    HW2 5239   4.587   6.800   8.584  3.1656  0.5150 -1.1958
33883SOL     OW 5240   9.165   9.878  10.696  0.1465 -0.2806 -0.1249
33883SOL    HW1 5241   9.158   9.964  10.737 -0.5012  0.2199 -1.2371
33883SOL    HW2 5242   9.087   9.871  10.641  0.6638 -1.1779 -0.7774
33884SOL     OW 5243   3.761   7.780   9.455 -0.0641 -0.2842  0.0806
33884SOL    HW1 5244   3.781   7.741   9.370 -0.4318 -0.2536 -0.0228
33884SOL    HW2 5245   3.795   7.717   9.519  1.3161  0.2647 -0.0799
33885SOL     OW 5246   6.111   9.395   2.527 -0.0955  0.5197 -0.2459
33885SOL    HW1 5247   6.069   9.372   2.444  0.9891 -0.7678 -0.4652
33885SOL    HW2 5248   6.188   9.446   2.503  0.7159 -0.6087 -0.1114
33886SOL     OW 5249  10.657   7.568   9.955 -0.2101  0.3773  0.4365
33886SOL    HW1 5250  10.724   7.636   9.943 -0.2131  0.2931 -0.1194
33886SOL    HW2 5251  10.686   7.517  10.030 -0.1351  0.9081  0.7760
33887SOL     OW 5252   2.804  10.637   6.934  0.2355  0.2369  0.3273
33887SOL    HW1 5253   2.781  10.581   6.860  0.9653  1.2418 -0.6955
33887SOL    HW2 5254   2.760  10.720   6.917  0.3869  0.4773  1.0437
33888SOL     OW 5255   3.725   3.786  10.800  0.6944 -0.1412 -0.0985
33888SOL    HW1 5256   3.674   3.853  10.845  0.6088  2.0142 -3.1080
33888SOL    HW2 5257   3.664   3.714  10.786 -0.4968  0.9203 -0.5114
33889SOL     OW 5258   5.769   5.169  10.719 -0.3942 -0.3853  0.1331
33889SOL    HW1 5259   5.724   5.196  10.799  0.3230  0.8430  0.1495
33889SOL    HW2 5260   5.857   5.144  10.748  0.3377  1.3925 -0.3867
33890SOL     OW 5261   6.980   6.392   8.570  0.1663  0.4680  0.1999
33890SOL    HW1 5262   6.965   6.393   8.475 -2.4652 -1.7923  0.4822
33890SOL    HW2 5263   7.027   6.310   8.586 -0.5305  0.2003  0.9491
33891SOL     OW 5264   7.382   8.989   0.389 -0.3050  0.0659 -0.4714
33891SOL    HW1 5265   7.334   9.047   0.330 -0.7594  1.2137  0.9477
33891SOL    HW2 5266   7.446   8.944   0.333 -2.0983 -0.4863 -2.1719
33892SOL     OW 5267   1.671   9.364   9.508  0.0292  0.1631  0.5379
33892SOL    HW1 5268   1.587   9.372   9.554  0.7293 -0.9469  2.1122
33892SOL    HW2 5269   1.668   9.278   9.466  0.6858 -0.2517  1.3102
33893SOL     OW 5270   3.034   0.698  10.118  0.3046  0.4933 -0.8698
33893SOL    HW1 5271   3.074   0.759  10.055 -0.7088  0.3106 -1.7073
33893SOL    HW2 5272   3.031   0.614  10.072  0.9096 -0.0092 -0.0273
33894SOL     OW 5273   4.157  10.557   8.218  0.2366  0.0030 -0.4807
33894SOL    HW1 5274   4.251  10.573   8.226  0.1459  0.4808 -0.3395
33894SOL    HW2 5275   4.116  10.640   8.243 -0.2400 -0.3922  0.0956
33895SOL     OW 5276   7.943   1.512   9.849 -0.0680 -0.4697 -0.2778
33895SOL    HW1 5277   8.029   1.508   9.890  0.0313  0.8376 -0.3201
33895SOL    HW2 5278   7.937   1.601   9.814 -1.1886 -0.7403 -0.8172
33896SOL     OW 5279   9.405   5.456   0.596  0.2697  0.0639 -0.1917
33896SOL    HW1 5280   9.361   5.426   0.517 -2.4458  0.1741  1.1496
33896SOL    HW2 5281   9.443   5.377   0.634 -0.4847 -0.4193 -0.4228
33897SOL     OW 5282   4.127   1.097  10.390  0.2385 -0.5125  0.0805
33897SOL    HW1 5283   4.152   1.016  10.346  1.4401 -0.1403  0.0288
33897SOL    HW2 5284   4.065   1.139  10.330  1.6575 -0.1306 -1.1945
33898SOL     OW 5285   6.533   3.131   4.812 -0.1868  0.3699 -0.1940
33898SOL    HW1 5286   6.488   3.050   4.787 -0.2255  0.7344 -1.3743
33898SOL    HW2 5287   6.626   3.112   4.801 -0.2444  0.8133 -1.5468
33899SOL     OW 5288   7.967   3.964  10.383  0.1957  0.0125 -0.0563
33899SOL    HW1 5289   7.974   4.041  10.439  0.7367  0.1831 -0.3493
33899SOL    HW2 5290   8.023   3.899  10.426 -0.0538 -0.1334  0.0495
33900SOL     OW 5291   3.801   5.789   0.046  0.0013 -0.5907  0.9569
33900SOL    HW1 5292   3.820   5.883   0.050 -0.4294 -0.4892  0.6598
33900SOL    HW2 5293   3.727   5.782  -0.013 -0.0941 -1.1037  1.1325
33901SOL     OW 5294   2.826   9.791   7.204  0.2605 -0.2710  0.0303
33901SOL    HW1 5295   2.840   9.837   7.286  1.0014 -1.4143  0.5693
33901SOL    HW2 5296   2.909   9.798   7.157 -0.1757  0.4294 -0.6626
33902SOL     OW 5297   5.460   2.457   1.249 -0.5428 -0.4536 -0.5779
33902SOL    HW1 5298   5.398   2.451   1.176  1.1132  1.7461 -2.3075
33902SOL    HW2 5299   5.512   2.377   1.244 -0.6403 -0.4598 -1.6504
33903SOL     OW 5300   8.604   8.043   5.981 -0.2982 -0.0591  0.3798
33903SOL    HW1 5301   8.668   8.024   5.913  0.0244  0.8300  0.4247
33903SOL    HW2 5302   8.657   8.064   6.058 -0.6028  1.5221  0.1929
33904SOL     OW 5303   5.116   9.695  10.881  0.3917 -0.0822  0.4939
33904SOL    HW1 5304   5.202   9.655  10.894 -1.0731 -3.6098  0.3138
33904SOL    HW2 5305   5.102   9.693  10.786  0.2869  0.9769  0.4729
33905SOL     OW 5306   4.634   1.843   2.497 -0.7315  0.4150 -0.4877
33905SOL    HW1 5307   4.654   1.936   2.501  1.6383  0.0006  4.7998
33905SOL    HW2 5308   4.544   1.836   2.528  0.0946  0.9133  2.2568
33906SOL     OW 5309   8.800   2.120   3.365 -0.4053 -0.0605 -0.0349
33906SOL    HW1 5310   8.788   2.080   3.279  0.7997 -0.6158  0.0301
33906SOL    HW2 5311   8.716   2.109   3.409 -0.9652  0.0364 -1.0605
33907SOL     OW 5312   8.674   0.061   3.520  0.5859  0.2410 -0.2829
33907SOL    HW1 5313   8.584   0.057   3.551  1.3088  0.2802  2.0529
33907SOL    HW2 5314   8.701   0.151   3.535  1.3599 -0.0561  0.1866
33908SOL     OW 5315   2.159   6.440   4.171  0.3439 -0.0525 -0.3750
33908SOL    HW1 5316   2.084   6.386   4.144  0.6835 -0.6962 -0.0339
33908SOL    HW2 5317   2.122   6.528   4.180 -0.8103 -0.6819  1.6079
33909SOL     OW 5318   0.907   3.680   5.718  0.1951  0.3845 -0.1000
33909SOL    HW1 5319   0.813   3.694   5.733  0.4752  2.6301 -0.1277
33909SOL    HW2 5320   0.941   3.655   5.803 -0.3802 -0.3211 -0.0582
33910SOL     OW 5321   6.094   4.667   5.824 -0.5389  0.3579 -0.3695
33910SOL    HW1 5322   6.146   4.593   5.857 -0.4291  0.7779  0.4438
33910SOL    HW2 5323   6.087   4.651   5.730 -0.4843 -0.6643 -0.2180
33911SOL     OW 5324   9.374   5.260   1.313 -0.1084 -0.0549  0.2189
33911SOL    HW1 5325   9.384   5.222   1.400  1.6220 -0.3809 -0.0817
33911SOL    HW2 5326   9.301   5.321   1.322 -0.1529 -0.2896  1.8174
33912SOL     OW 5327   7.661   4.275   1.584 -0.1484  0.4265 -0.2852
33912SOL    HW1 5328   7.573   4.290   1.549 -0.1089 -0.6112 -0.8852
33912SOL    HW2 5329   7.657   4.187   1.622  1.0197 -0.2837 -1.6933
33913SOL     OW 5330  10.473   7.457   9.708 -0.5294  0.0480  0.7144
33913SOL    HW1 5331  10.549   7.409   9.674 -0.4502  1.1211 -0.7598
33913SOL    HW2 5332  10.397   7.409   9.676 -0.4500  0.2126  0.2647
33914SOL     OW 5333   4.546   7.778   4.307 -0.4109 -0.2706  0.0824
33914SOL    HW1 5334   4.537   7.750   4.398  0.1963 -2.1764 -0.3990
33914SOL    HW2 5335   4.640   7.774   4.290 -0.3593  1.5138 -0.2345
33915SOL     OW 5336   5.914   3.744   0.181 -0.0999 -0.1927 -0.2314
33915SOL    HW1 5337   5.897   3.686   0.107 -0.4201 -2.7086  1.6883
33915SOL    HW2 5338   6.002   3.722   0.210 -0.6298 -0.5761  1.2045
33916SOL     OW 5339   3.997   1.180   9.377  0.1511 -0.2009  0.1927
33916SOL    HW1 5340   3.908   1.157   9.349  0.0968 -0.5935  0.6660
33916SOL    HW2 5341   3.987   1.205   9.469  0.3941  0.6392 -0.0063
33917SOL     OW 5342   4.280   9.306   7.561  0.2914 -0.6358  0.6587
33917SOL    HW1 5343   4.232   9.225   7.579 -0.5141 -0.6684 -1.4053
33917SOL    HW2 5344   4.220   9.358   7.508  0.9783  1.1417  1.5438
33918SOL     OW 5345   5.583   5.947   1.156 -0.2856 -0.3683  0.4733
33918SOL    HW1 5346   5.527   5.920   1.083  0.8350 -2.1707  0.1928
33918SOL    HW2 5347   5.656   5.994   1.115  0.7205 -2.0083  0.2848
33919SOL     OW 5348   4.525  10.522   5.877  0.4049 -0.3174  0.1138
33919SOL    HW1 5349   4.443  10.475   5.893  0.8088 -0.9170  0.4861
33919SOL    HW2 5350   4.549  10.560   5.962  0.1136  0.5271 -0.1713
33920SOL     OW 5351  10.563   1.081   8.527  0.2597 -0.3079 -0.6262
33920SOL    HW1 5352  10.618   1.135   8.583  2.0688 -0.2295 -2.3624
33920SOL    HW2 5353  10.507   1.032   8.587  2.2105 -0.3652  1.2491
33921SOL     OW 5354   6.897  10.833   8.174 -0.3613  0.1374 -0.2970
33921SOL    HW1 5355   6.987  10.857   8.195 -0.9289  1.0525  1.2428
33921SOL    HW2 5356   6.875  10.766   8.238 -0.6345 -0.4429 -0.9836
33922SOL     OW 5357   7.138   3.857   4.591  0.7345 -0.0854 -0.1316
33922SOL    HW1 5358   7.180   3.901   4.665 -0.2356  0.9151 -0.1461
33922SOL    HW2 5359   7.140   3.764   4.613 -1.2827  0.3143  2.1097
33923SOL     OW 5360   6.601   1.605   1.816 -0.4756  0.0480  0.0306
33923SOL    HW1 5361   6.645   1.558   1.746  0.5792 -1.8752  1.8585
33923SOL    HW2 5362   6.645   1.690   1.820  0.3711 -0.3373 -0.7677
33924SOL     OW 5363   3.909   1.618  10.532  0.2902  0.2053 -0.1658
33924SOL    HW1 5364   3.824   1.647  10.498 -0.6650  1.1198  2.6792
33924SOL    HW2 5365   3.891   1.531  10.568  1.2769 -0.7669 -1.9579
33925SOL     OW 5366   6.044   8.041   2.714 -0.2870  0.4129  0.1626
33925SOL    HW1 5367   5.967   8.048   2.771 -0.6241 -1.8158  0.0345
33925SOL    HW2 5368   6.059   7.947   2.703  2.5691  0.7529  0.3007
33926SOL     OW 5369   4.460   8.860   6.247 -0.5434 -0.0570 -0.3672
33926SOL    HW1 5370   4.467   8.788   6.310  1.0870  0.5179  0.1487
33926SOL    HW2 5371   4.456   8.817   6.162 -1.1153 -0.7892  0.0130
33927SOL     OW 5372   8.528   9.750   7.996  0.1804  0.2709 -0.5294
33927SOL    HW1 5373   8.497   9.663   7.972 -0.4583  0.6903 -1.2555
33927SOL    HW2 5374   8.618   9.753   7.963 -0.0376  0.1470 -1.1435
33928SOL     OW 5375   9.860  10.535   6.804 -0.0893 -0.2591 -0.0174
33928SOL    HW1 5376   9.835  10.617   6.761 -0.2625  0.2906  1.1145
33928SOL    HW2 5377   9.955  10.530   6.792 -0.1396 -0.1425 -0.5069
33929SOL     OW 5378   5.131   0.746   6.574  0.3887 -0.5832 -0.1385
33929SOL    HW1 5379   5.217   0.716   6.603  0.9336  1.2262  0.2719
33929SOL    HW2 5380   5.121   0.832   6.614 -0.9795 -0.1134 -1.3832
33930SOL     OW 5381   9.351   7.295   9.700 -0.6117  0.2182 -0.1002
33930SOL    HW1 5382   9.340   7.384   9.735 -0.1600  0.2935 -0.1472
33930SOL    HW2 5383   9.446   7.284   9.690 -0.6604 -0.2991 -0.0235
33931SOL     OW 5384   7.203   2.187   2.378 -0.3539 -0.2660 -0.3562
33931SOL    HW1 5385   7.279   2.237   2.349 -1.9347  1.6743 -1.3705
33931SOL    HW2 5386   7.128   2.235   2.345 -2.1762 -0.6991  2.7503
33932SOL     OW 5387   6.890  10.101   7.874 -0.0629 -0.1245 -0.7158
33932SOL    HW1 5388   6.821  10.044   7.907  1.1848 -1.4811 -0.3310
33932SOL    HW2 5389   6.924  10.146   7.952 -0.5475  0.6020 -0.9148
33933SOL     OW 5390  10.136   1.874   0.536 -0.4741  0.5255 -0.1016
33933SOL    HW1 5391  10.065   1.922   0.494 -0.1292  1.2573  0.1344
33933SOL    HW2 5392  10.203   1.940   0.553 -0.3825  0.1576  1.0981
33934SOL     OW 5393   8.001  10.479   6.434 -0.2161 -0.1793  0.2191
33934SOL    HW1 5394   8.007  10.407   6.371  0.0338 -0.0433  0.0865
33934SOL    HW2 5395   7.914  10.516   6.419 -0.3422 -0.4491  0.2839
33935SOL     OW 5396   2.809   6.730  11.043 -0.0874  0.2546  0.5525
33935SOL    HW1 5397   2.837   6.666  10.977 -0.1304  0.8387 -0.0381
33935SOL    HW2 5398   2.881   6.794  11.046 -2.3073  3.3576 -2.9769
33936SOL     OW 5399   1.331   8.463   3.012  0.7412  0.4006  0.0717
33936SOL    HW1 5400   1.299   8.383   3.054 -0.7697  0.4517 -0.8925
33936SOL    HW2 5401   1.349   8.523   3.084 -1.3359  0.3291  0.7164
33937SOL     OW 5402  10.902   0.240   1.731 -0.3381  1.2231  0.3036
33937SOL    HW1 5403  10.892   0.227   1.637  0.5491  2.7636 -0.0474
33937SOL    HW2 5404  10.816   0.271   1.760 -0.2207  2.1675 -0.2972
33938SOL     OW 5405   0.003   4.996   3.556  0.0686 -0.0406  0.7051
33938SOL    HW1 5406  -0.008   4.906   3.525  1.7333 -0.5252  1.4491
33938SOL    HW2 5407  -0.018   4.992   3.649  0.8624  0.1788  0.8986
33939SOL     OW 5408   9.490   6.069   9.614 -0.3622 -0.5063  0.1171
33939SOL    HW1 5409   9.395   6.082   9.621 -0.1806  0.6415  0.7164
33939SOL    HW2 5410   9.527   6.136   9.671  0.8704  0.0852 -1.3168
33940SOL     OW 5411   1.174   0.829  10.915 -0.3497 -0.0660 -0.3157
33940SOL    HW1 5412   1.104   0.886  10.948 -1.3166 -0.9939 -0.6915
33940SOL    HW2 5413   1.153   0.816  10.823  1.1433  0.7926 -0.8137
33941SOL     OW 5414   6.534   3.813   0.964 -0.1320  0.3173  0.1204
33941SOL    HW1 5415   6.629   3.813   0.975 -0.0492 -2.0288 -0.1621
33941SOL    HW2 5416   6.520   3.792   0.872 -0.9432  0.8111  0.1199
33942SOL     OW 5417   8.982   0.435   6.365 -0.3966  0.3657 -0.1908
33942SOL    HW1 5418   8.890   0.408   6.375 -0.0921  0.0176  2.3522
33942SOL    HW2 5419   9.030   0.352   6.358 -0.1684  0.5191 -0.4684
33943SOL     OW 5420   9.158   7.767   5.126  0.0474 -0.6088 -0.6168
33943SOL    HW1 5421   9.144   7.829   5.055 -1.3117 -2.2337 -1.8435
33943SOL    HW2 5422   9.225   7.706   5.093  0.7873 -0.2992  0.2570
33944SOL     OW 5423   7.026   6.945   5.256 -0.3288  0.0281 -0.0594
33944SOL    HW1 5424   6.981   6.922   5.337  0.2680  1.8468  0.8488
33944SOL    HW2 5425   6.994   7.032   5.234  0.6805  0.2037 -0.9288
33945SOL     OW 5426   3.974   2.508   4.196 -0.1637 -0.0251  0.1292
33945SOL    HW1 5427   3.912   2.440   4.170 -1.6080  0.9710  0.8898
33945SOL    HW2 5428   4.039   2.508   4.126 -0.7151 -1.4481 -0.4252
33946SOL     OW 5429  10.165   9.246  10.992  0.5221  0.2852 -0.3476
33946SOL    HW1 5430  10.187   9.335  11.017  0.1448  0.5849 -1.0735
33946SOL    HW2 5431  10.076   9.233  11.027  1.3745 -0.5588  1.6451
33947SOL     OW 5432   9.108   4.310   6.892  0.0246  0.4558 -0.7635
33947SOL    HW1 5433   9.183   4.269   6.934  0.1607 -0.4428 -1.8440
33947SOL    HW2 5434   9.081   4.378   6.954  0.2188 -0.7803  0.7513
33948SOL     OW 5435   7.545   7.238   1.520 -0.0006 -0.1445 -0.6175
33948SOL    HW1 5436   7.476   7.195   1.468  0.2127 -0.7973 -0.3701
33948SOL    HW2 5437   7.513   7.232   1.610  0.6622 -1.0177 -0.4273
33949SOL     OW 5438   2.515   2.099   3.699 -0.4059 -0.2684 -0.1004
33949SOL    HW1 5439   2.572   2.165   3.660  2.3655 -1.0362  2.3024
33949SOL    HW2 5440   2.528   2.021   3.645  0.9785 -0.4588  0.4678
33950SOL     OW 5441   2.125   6.748   9.854  0.1278 -0.2286 -0.2627
33950SOL    HW1 5442   2.141   6.788   9.939  0.0087  1.0745 -0.8353
33950SOL    HW2 5443   2.071   6.671   9.873 -1.1446  0.8645  0.6929
33951SOL     OW 5444   8.970  10.117  10.642 -0.0146 -0.2856 -0.4592
33951SOL    HW1 5445   9.007  10.170  10.571 -0.4732  1.5194  0.5979
33951SOL    HW2 5446   8.885  10.089  10.610 -0.0994  0.2812 -0.7363
33952SOL     OW 5447   6.180   6.601   8.806  0.2030 -0.2678 -0.3022
33952SOL    HW1 5448   6.144   6.614   8.718 -0.4538 -0.6107 -0.0962
33952SOL    HW2 5449   6.167   6.508   8.824  0.7448 -0.2911 -0.0195
33953SOL     OW 5450   7.069   5.562   0.978 -0.8227 -0.1148  0.0081
33953SOL    HW1 5451   7.050   5.611   1.058 -1.1052 -1.6008  0.8801
33953SOL    HW2 5452   7.024   5.479   0.990  0.6117 -1.0530 -0.9256
33954SOL     OW 5453   7.873   1.487  10.179 -0.0165  0.1072  0.0142
33954SOL    HW1 5454   7.946   1.481  10.117 -0.5962  1.6760 -0.8546
33954SOL    HW2 5455   7.915   1.508  10.263  0.5756  0.3571 -0.3385
33955SOL     OW 5456   3.006   4.511   4.334 -0.5532  0.1710  0.1882
33955SOL    HW1 5457   3.099   4.530   4.342 -0.9689  2.0601  1.3823
33955SOL    HW2 5458   2.975   4.572   4.266 -1.3524  1.5873  1.7476
33956SOL     OW 5459   5.719   1.966   0.731 -0.4642 -0.7787 -0.6049
33956SOL    HW1 5460   5.724   2.025   0.805 -1.6210 -1.3338 -0.0696
33956SOL    HW2 5461   5.808   1.931   0.722 -0.1962 -0.3077  0.1707
33957SOL     OW 5462   0.595   3.818   0.828 -0.4096  0.2777 -1.0113
33957SOL    HW1 5463   0.552   3.772   0.757  0.1804  0.7101 -1.6629
33957SOL    HW2 5464   0.567   3.909   0.819 -1.3289  0.1328  0.0849
33958SOL     OW 5465  10.357   9.442   0.433 -0.0290 -0.2955 -0.3135
33958SOL    HW1 5466  10.415   9.392   0.490 -0.9218 -0.5072  0.4314
33958SOL    HW2 5467  10.328   9.379   0.367 -0.2719 -0.4833 -0.0327
33959SOL     OW 5468   5.019   6.925   8.986  0.5876 -0.0238  0.4641
33959SOL    HW1 5469   4.935   6.960   9.015  0.5232  0.4564 -0.2699
33959SOL    HW2 5470   5.081   6.996   8.997  0.4787  0.3249 -0.9217
33960SOL     OW 5471   4.636   8.868   9.017 -0.2504 -0.0210 -0.9924
33960SOL    HW1 5472   4.673   8.901   8.936  0.8650 -0.3604 -0.6421
33960SOL    HW2 5473   4.569   8.806   8.990 -1.2041  1.2414 -1.6437
33961SOL     OW 5474   4.966   1.821   7.283  0.0481  0.3092  0.3077
33961SOL    HW1 5475   5.011   1.787   7.205 -0.5809 -0.6109  0.3247
33961SOL    HW2 5476   4.996   1.912   7.290 -0.0831  0.5065 -1.1674
33962SOL     OW 5477   1.505   7.831   0.930 -0.2767  0.2534  0.1030
33962SOL    HW1 5478   1.432   7.780   0.964 -1.4582  2.6917  1.4901
33962SOL    HW2 5479   1.465   7.906   0.886  1.3629  0.9818 -0.2468
33963SOL     OW 5480   8.155   0.645   5.622  0.8208 -0.1463 -0.0884
33963SOL    HW1 5481   8.070   0.605   5.605  0.2641  1.2933 -0.8976
33963SOL    HW2 5482   8.216   0.599   5.564  0.6554 -1.3062  0.6213
33964SOL     OW 5483   1.705   2.648   7.637  0.3418 -0.0844 -0.2191
33964SOL    HW1 5484   1.698   2.646   7.542 -2.4240 -1.0450 -0.0835
33964SOL    HW2 5485   1.615   2.632   7.668  1.0257  0.8992  2.5474
33965SOL     OW 5486   2.922  10.121   3.743  0.4507 -0.8283  0.1635
33965SOL    HW1 5487   2.866  10.078   3.679 -0.2119 -0.9443  0.8167
33965SOL    HW2 5488   2.863  10.171   3.798  1.0357 -0.5346  0.5387
33966SOL     OW 5489   9.351   1.590   3.545  0.3309 -0.0639 -0.1488
33966SOL    HW1 5490   9.317   1.502   3.531  0.3044 -0.3205  1.3580
33966SOL    HW2 5491   9.445   1.583   3.526  0.7334 -0.9534  1.8546
33967SOL     OW 5492   1.727   9.226   2.927 -0.3080  0.3327  0.2163
33967SOL    HW1 5493   1.744   9.257   3.016  0.6516  0.3596  0.0359
33967SOL    HW2 5494   1.668   9.291   2.889 -0.3173  0.5917  0.6740
33968SOL     OW 5495   3.614   7.890  10.291 -0.1819 -0.1060  0.0143
33968SOL    HW1 5496   3.539   7.921  10.342 -0.7739 -1.5162  0.0314
33968SOL    HW2 5497   3.608   7.795  10.295  1.7824 -0.2581  0.2559
33969SOL     OW 5498   2.354   5.862   3.648 -0.0145 -0.2709 -0.1780
33969SOL    HW1 5499   2.375   5.955   3.641  1.3296 -0.5743 -0.4170
33969SOL    HW2 5500   2.261   5.860   3.672  0.6889  1.2347  3.3162
33970SOL     OW 5501   1.406  10.821   0.188 -0.0966  0.0090  0.0587
33970SOL    HW1 5502   1.500  10.810   0.206  0.4067  1.2927 -1.5457
33970SOL    HW2 5503   1.400  10.826   0.093 -1.8080 -0.0300  0.1314
33971SOL     OW 5504   9.259   9.557   4.462  0.3949  0.2344  0.5709
33971SOL    HW1 5505   9.329   9.622   4.463  1.2009 -0.5885 -0.7050
33971SOL    HW2 5506   9.298   9.479   4.423 -1.0490 -0.4576  0.4388
33972SOL     OW 5507   7.639   4.283  10.359  0.1978 -0.3244  0.2476
33972SOL    HW1 5508   7.666   4.337  10.284  0.3555 -0.3349  0.2979
33972SOL    HW2 5509   7.675   4.197  10.340  0.3000 -0.3086  0.3724
33973SOL     OW 5510   3.335   0.047   6.428  0.3561  0.2488 -0.4153
33973SOL    HW1 5511   3.339   0.133   6.470  0.5071  0.0077  0.0771
33973SOL    HW2 5512   3.260   0.053   6.368 -0.6841  0.2076  0.8197
33974SOL     OW 5513   7.450   8.153   8.235  0.3816 -0.1514 -0.0734
33974SOL    HW1 5514   7.528   8.194   8.271  1.6873 -1.8737 -0.8228
33974SOL    HW2 5515   7.468   8.143   8.142 -0.2488 -1.5479 -0.0787
33975SOL     OW 5516   8.282   7.810   9.210  0.1721  0.0907  0.0268
33975SOL    HW1 5517   8.210   7.862   9.247  1.4589  1.1882  1.1096
33975SOL    HW2 5518   8.355   7.872   9.203  1.1924 -1.1207 -0.5093
33976SOL     OW 5519   7.832   1.378   7.632 -0.0586 -0.0795 -0.2849
33976SOL    HW1 5520   7.750   1.388   7.583 -0.0364  0.9258 -0.1518
33976SOL    HW2 5521   7.895   1.431   7.584 -0.2196  1.5674  1.2103
33977SOL     OW 5522   8.435   4.087   5.717 -0.5834 -0.1717  0.6508
33977SOL    HW1 5523   8.416   4.173   5.756 -2.1191 -0.1792 -0.0062
33977SOL    HW2 5524   8.401   4.024   5.780 -1.8524 -0.2156 -0.0541
33978SOL     OW 5525   8.912   7.736   6.971  0.3193  0.1356 -0.7159
33978SOL    HW1 5526   8.837   7.771   7.020  1.6507  1.2386  0.6218
33978SOL    HW2 5527   8.974   7.708   7.039  0.7920 -1.5608 -1.7967
33979SOL     OW 5528   8.762   1.172   5.220 -0.4264  0.0259 -0.5473
33979SOL    HW1 5529   8.851   1.190   5.250  0.0676 -1.7847 -0.7987
33979SOL    HW2 5530   8.710   1.243   5.257  1.0711  1.0241 -0.2248
33980SOL     OW 5531   6.859   6.553   3.942  0.0865 -0.2423 -0.1196
33980SOL    HW1 5532   6.779   6.589   3.905  0.1529 -1.9077 -2.1006
33980SOL    HW2 5533   6.866   6.466   3.902  2.6196 -0.3314  0.3767
33981SOL     OW 5534   1.203   6.291  10.541  0.0444 -0.4765  0.1442
33981SOL    HW1 5535   1.160   6.287  10.456  0.8057  0.0312 -0.2805
33981SOL    HW2 5536   1.135   6.320  10.602 -0.3798 -0.3452 -0.3857
33982SOL     OW 5537   5.323   7.738  10.036 -0.3121 -0.1057  0.3124
33982SOL    HW1 5538   5.390   7.795  10.074  1.5038 -2.1023  0.3267
33982SOL    HW2 5539   5.254   7.797  10.008  1.5772  2.1123  0.0301
33983SOL     OW 5540   8.668  10.786   8.784  0.7068  0.2539  0.2927
33983SOL    HW1 5541   8.608  10.773   8.857  0.7310  0.5336  0.3604
33983SOL    HW2 5542   8.613  10.822   8.714  0.8193  0.6190  0.3922
33984SOL     OW 5543   0.307   6.721   2.749 -0.1181 -0.5099  0.4222
33984SOL    HW1 5544   0.255   6.658   2.698  0.4692 -2.8376  2.5060
33984SOL    HW2 5545   0.263   6.805   2.735 -3.0871 -1.9419  0.2319
33985SOL     OW 5546   0.373   7.604   0.813 -0.0400  0.0774 -0.6644
33985SOL    HW1 5547   0.330   7.562   0.887 -0.3045  0.3543 -0.6576
33985SOL    HW2 5548   0.302   7.625   0.753  0.0407  0.8379 -0.5039
33986SOL     OW 5549   7.329   1.688   8.167 -0.1955  0.2967  0.1367
33986SOL    HW1 5550   7.393   1.632   8.123  0.1041 -0.0193  0.9527
33986SOL    HW2 5551   7.369   1.775   8.166 -1.3213  0.8860 -2.4856
33987SOL     OW 5552   0.694   8.539  10.711 -0.3645  0.1145  0.2804
33987SOL    HW1 5553   0.663   8.622  10.673  0.2228  0.5891  0.8149
33987SOL    HW2 5554   0.788   8.539  10.693  0.0938  0.7359  2.3808
33988SOL     OW 5555   6.561   7.487   6.053  0.1011  0.0464  0.2170
33988SOL    HW1 5556   6.639   7.489   5.996  1.8591 -1.7585  2.3763
33988SOL    HW2 5557   6.488   7.500   5.993  1.9588  0.6362 -2.1011
33989SOL     OW 5558   1.039   5.699   0.470  0.3951  0.1037  0.4589
33989SOL    HW1 5559   1.097   5.707   0.395  0.3366  1.8197  0.5495
33989SOL    HW2 5560   0.968   5.642   0.440 -0.5418  2.0905 -1.4504
33990SOL     OW 5561   9.355   4.063   2.659  0.1483  0.1114  0.1890
33990SOL    HW1 5562   9.435   4.009   2.660 -0.0862 -0.2432  0.1548
33990SOL    HW2 5563   9.309   4.036   2.579  0.8760  1.6366 -0.7723
33991SOL     OW 5564  10.601   0.166   4.930  0.1400 -0.0695 -0.2910
33991SOL    HW1 5565  10.666   0.229   4.963 -0.4150  0.2026  0.3106
33991SOL    HW2 5566  10.577   0.200   4.844 -1.8105  1.8625  0.9088
33992SOL     OW 5567  11.021  10.371  11.039  0.0443  0.2192 -0.1010
33992SOL    HW1 5568  11.002  10.465  11.030 -0.7769 -0.0393 -1.5065
33992SOL    HW2 5569  11.112  10.362  11.012 -0.3947  0.4193 -1.8139
33993SOL     OW 5570   9.006   8.367   6.845 -0.3512  0.0201 -0.2624
33993SOL    HW1 5571   9.028   8.418   6.768 -0.2216 -1.9327 -1.6087
33993SOL    HW2 5572   9.087   8.365   6.896 -0.1859  0.6289 -0.4959
33994SOL     OW 5573   8.161   9.408   3.352 -0.0747 -0.1208  0.1270
33994SOL    HW1 5574   8.253   9.429   3.338 -0.4031  1.1771 -0.1916
33994SOL    HW2 5575   8.113   9.481   3.313 -1.3272 -1.9525 -2.0808
33995SOL     OW 5576   2.294   5.303   6.366  0.4284 -0.6755  0.4953
33995SOL    HW1 5577   2.376   5.258   6.347  1.1032  0.8823 -0.3954
33995SOL    HW2 5578   2.226   5.237   6.351  1.4285 -1.6055 -0.0219
33996SOL     OW 5579   8.121   0.278   5.348  0.3331 -0.2455 -0.3292
33996SOL    HW1 5580   8.161   0.224   5.281  3.1569  1.6646 -0.3462
33996SOL    HW2 5581   8.047   0.321   5.303  0.4429 -1.1198 -1.3846
33997SOL     OW 5582   8.197   0.494   3.220 -0.5111 -0.0053  0.5735
33997SOL    HW1 5583   8.258   0.566   3.233 -1.7309  0.7455  2.5414
33997SOL    HW2 5584   8.151   0.485   3.303 -2.3840 -1.1886 -0.5002
33998SOL     OW 5585   2.482   8.048   0.536 -0.0308  0.1137  0.2393
33998SOL    HW1 5586   2.555   8.014   0.485 -0.0223 -0.6937  0.7861
33998SOL    HW2 5587   2.504   8.028   0.627 -0.2453  1.1641  0.5437
33999SOL     OW 5588   1.592  10.884   1.698  0.0660  0.0289 -0.0267
33999SOL    HW1 5589   1.642  10.939   1.638  0.9275  1.0474  1.5610
33999SOL    HW2 5590   1.509  10.930   1.710  0.4057  0.4913  0.5576
34000SOL     OW 5591  10.331   0.675   2.174 -0.2490  0.2570 -0.5207
34000SOL    HW1 5592  10.335   0.657   2.080 -0.4110 -1.6386 -0.1935
34000SOL    HW2 5593  10.413   0.720   2.193  0.4203 -0.5851 -1.3400
34001SOL     OW 5594   4.649   0.133   4.222 -0.2549  0.2852 -0.4097
34001SOL    HW1 5595   4.707   0.130   4.147 -0.8651  0.7142 -0.9114
34001SOL    HW2 5596   4.564   0.104   4.188  0.0739 -2.2393  0.7321
34002SOL     OW 5597   3.473   8.676   7.784 -0.1453 -0.1042  0.5753
34002SOL    HW1 5598   3.437   8.588   7.789 -0.7713  0.0574 -0.5997
34002SOL    HW2 5599   3.413   8.730   7.835  0.3649 -0.3821  1.4839
34003SOL     OW 5600  10.837   8.343   4.972 -0.2426 -0.4244 -0.3985
34003SOL    HW1 5601  10.881   8.344   4.887 -0.1575  0.0694 -0.3520
34003SOL    HW2 5602  10.816   8.435   4.990 -0.3099 -0.5285  0.0872
34004SOL     OW 5603   2.007   4.461   9.285  0.4309 -0.1477  0.0885
34004SOL    HW1 5604   1.924   4.415   9.270  0.5946 -0.2179 -0.6693
34004SOL    HW2 5605   1.984   4.554   9.281  0.4864 -0.1624 -0.7814
34005SOL     OW 5606   7.241   7.778   4.519  0.3568  0.1719  0.2552
34005SOL    HW1 5607   7.298   7.755   4.593  0.7776 -1.0623 -0.4407
34005SOL    HW2 5608   7.292   7.843   4.470  0.1487  0.8663  0.9238
34006SOL     OW 5609   7.391   1.570   4.984 -0.1608  0.0773 -0.1306
34006SOL    HW1 5610   7.376   1.483   5.021 -3.3437  0.4904 -0.1616
34006SOL    HW2 5611   7.437   1.618   5.053 -1.2144 -0.7376  1.1901
34007SOL     OW 5612   3.247   9.996   4.312  0.3070 -0.1010  0.0665
34007SOL    HW1 5613   3.263  10.091   4.315 -1.3342  0.3344 -2.0750
34007SOL    HW2 5614   3.262   9.973   4.220  0.2877 -1.8539  0.4786
34008SOL     OW 5615   8.028   1.617   4.784  0.3281  0.0577 -0.3407
34008SOL    HW1 5616   7.956   1.650   4.838 -0.1376  0.2915 -1.0831
34008SOL    HW2 5617   8.048   1.531   4.821  0.2382  0.3456  0.3951
34009SOL     OW 5618   5.666   3.876   8.915  0.0570  0.2744 -0.0006
34009SOL    HW1 5619   5.630   3.910   8.833  1.2127 -0.2473 -0.7551
34009SOL    HW2 5620   5.622   3.926   8.983 -1.3107  0.3559 -0.9119
34010SOL     OW 5621   6.391   0.562   9.647  0.3668 -0.4908 -0.3467
34010SOL    HW1 5622   6.380   0.644   9.598  2.0676 -0.0598 -0.0737
34010SOL    HW2 5623   6.316   0.561   9.707 -0.9276 -0.2919 -1.8893
34011SOL     OW 5624   3.000   0.016  10.595 -0.2069  0.3370  0.7732
34011SOL    HW1 5625   2.961   0.020  10.682 -0.6782 -0.5143  0.6195
34011SOL    HW2 5626   3.090   0.046  10.607  0.0131 -0.6279  1.7338
34012SOL     OW 5627   8.433   2.359   4.285  0.2754  0.1282 -0.0224
34012SOL    HW1 5628   8.527   2.361   4.303  0.0985  2.2903  1.0401
34012SOL    HW2 5629   8.403   2.276   4.320  1.5107  0.2360  1.3849
34013SOL     OW 5630   4.824   3.557   6.414  0.1991 -0.2758 -0.0922
34013SOL    HW1 5631   4.766   3.483   6.396 -0.2398  0.2283 -0.7924
34013SOL    HW2 5632   4.765   3.629   6.436  0.5527  0.2531 -0.8566
34014SOL     OW 5633   8.813   5.376   4.054 -0.3540  0.2471 -0.0416
34014SOL    HW1 5634   8.787   5.382   4.146 -1.1016 -0.5666 -0.1780
34014SOL    HW2 5635   8.782   5.457   4.014 -2.5287 -0.5674 -0.1303
34015SOL     OW 5636   6.871   5.228   4.336  0.1623 -0.4291  0.2778
34015SOL    HW1 5637   6.874   5.308   4.388  0.1769 -0.8527  0.9438
34015SOL    HW2 5638   6.794   5.239   4.280  0.0995  0.0036  0.4445
34016SOL     OW 5639   0.854   9.168   2.118  0.0277  0.0872  0.0651
34016SOL    HW1 5640   0.774   9.150   2.167 -0.7556 -0.2137 -1.2654
34016SOL    HW2 5641   0.924   9.130   2.171 -0.9745 -1.8262  0.1282
34017SOL     OW 5642   6.624   5.854   4.842 -0.3105 -1.1446  0.5244
34017SOL    HW1 5643   6.556   5.787   4.851  0.1664 -1.5750  0.9167
34017SOL    HW2 5644   6.607   5.915   4.914 -2.7539  1.0056 -1.6143
34018SOL     OW 5645   4.535   8.639   2.695  0.1333  0.3680  0.0625
34018SOL    HW1 5646   4.599   8.708   2.712 -0.8970  1.6522 -0.9959
34018SOL    HW2 5647   4.454   8.686   2.677 -0.6709 -1.1479 -0.4383
34019SOL     OW 5648   1.375   2.937   0.840 -0.6180 -0.0801 -0.0868
34019SOL    HW1 5649   1.440   3.004   0.818  0.8858 -1.1786  0.8715
34019SOL    HW2 5650   1.335   2.968   0.921 -0.1116 -0.2041  0.2125
34020SOL     OW 5651   7.895   9.384   0.903  0.7599 -0.1846 -0.1993
34020SOL    HW1 5652   7.942   9.329   0.841  1.2305 -0.4584  0.3964
34020SOL    HW2 5653   7.828   9.427   0.850  0.8830 -0.7349 -0.8169
34021SOL     OW 5654   9.169   5.687   8.033  0.2079 -0.3647 -0.0410
34021SOL    HW1 5655   9.213   5.602   8.025  1.4132  0.0804  1.5314
34021SOL    HW2 5656   9.132   5.702   7.946  3.9201 -0.3692 -1.8186
34022SOL     OW 5657   5.232   1.961   4.923  0.6438  0.2022  0.5269
34022SOL    HW1 5658   5.216   1.981   4.830 -0.8039 -0.8969  0.5031
34022SOL    HW2 5659   5.182   1.882   4.939  0.0352  0.9446  2.5248
34023SOL     OW 5660   2.259   6.124   5.194 -0.0571 -0.3851 -0.8197
34023SOL    HW1 5661   2.234   6.134   5.285  0.2431 -0.6046 -0.7108
34023SOL    HW2 5662   2.322   6.195   5.179  0.1667 -0.5704 -0.7552
34024SOL     OW 5663   1.765   6.626   4.032  0.2766 -0.0244 -0.0274
34024SOL    HW1 5664   1.737   6.539   4.005 -2.1892  0.3325  1.1159
34024SOL    HW2 5665   1.710   6.686   3.981  0.8997  0.8421  0.2838
34025SOL     OW 5666   1.227  10.668   3.335  0.0910  0.1922 -0.5314
34025SOL    HW1 5667   1.186  10.750   3.309 -0.7282 -0.6507 -1.9912
34025SOL    HW2 5668   1.165  10.600   3.309 -1.2128 -0.8396  4.2104
34026SOL     OW 5669  10.826   3.228  10.744  0.3634 -0.7612  0.5336
34026SOL    HW1 5670  10.784   3.242  10.828  1.7298  0.5280  1.0600
34026SOL    HW2 5671  10.900   3.171  10.762  0.1773 -1.1700  0.0412
34027SOL     OW 5672   4.300   6.293   7.147  0.4907 -0.3317 -0.3105
34027SOL    HW1 5673   4.358   6.284   7.071  2.1986 -0.1751  0.9002
34027SOL    HW2 5674   4.239   6.219   7.139 -0.1570  0.3503 -2.4241
34028SOL     OW 5675   7.397   1.501   4.097  0.9085  0.1723  0.0684
34028SOL    HW1 5676   7.456   1.478   4.026 -0.8825 -1.2048 -1.0847
34028SOL    HW2 5677   7.376   1.593   4.084  0.3624 -0.1449 -1.4067
34029SOL     OW 5678  10.266   5.213  10.759 -0.0986  0.0395  0.2384
34029SOL    HW1 5679  10.332   5.240  10.695 -0.9519  0.3729 -0.5268
34029SOL    HW2 5680  10.266   5.118  10.754 -0.0104  0.0544 -0.1177
34030SOL     OW 5681  10.484   4.464   3.426 -0.5897 -0.8002 -0.1108
34030SOL    HW1 5682  10.508   4.391   3.370 -2.7159 -2.1502  0.6447
34030SOL    HW2 5683  10.445   4.424   3.503 -0.8109  1.1044  0.8277
34031SOL     OW 5684   6.715   0.632  10.998  0.0188  0.2325  0.0069
34031SOL    HW1 5685   6.644   0.571  11.014  0.3655  0.2371  1.7622
34031SOL    HW2 5686   6.789   0.577  10.972  0.4624 -0.2257  2.0150
34032SOL     OW 5687   4.212  10.710   2.721 -0.4465  0.2858 -0.2299
34032SOL    HW1 5688   4.172  10.771   2.659 -1.4124 -1.5169 -1.4876
34032SOL    HW2 5689   4.239  10.764   2.795 -1.5375  2.1669 -1.1484
34033SOL     OW 5690  10.141   8.291  10.899  0.3661  0.2622 -0.1001
34033SOL    HW1 5691  10.156   8.196  10.896 -1.4989 -0.0674 -0.4045
34033SOL    HW2 5692  10.214   8.326  10.949  0.0682 -1.5943  1.7641
34034SOL     OW 5693   7.076   3.909  10.255  0.3023  0.3068  0.0577
34034SOL    HW1 5694   7.090   3.816  10.270 -1.3339  0.0696  0.2403
34034SOL    HW2 5695   7.165   3.945  10.245  0.9381 -1.3288 -0.5096
34035SOL     OW 5696  10.543   9.270   9.801 -0.3622 -0.0192  0.1204
34035SOL    HW1 5697  10.460   9.277   9.847  0.1839 -1.2819  1.3540
34035SOL    HW2 5698  10.584   9.191   9.837  1.3357  0.5319 -0.5256
34036SOL     OW 5699   0.142   6.842   9.164 -0.2509 -0.0018 -0.1921
34036SOL    HW1 5700   0.150   6.778   9.234  0.2077  0.3053  0.0507
34036SOL    HW2 5701   0.079   6.805   9.102 -0.3761 -0.4419  0.2018
34037SOL     OW 5702   8.179   0.042   0.491 -0.1194 -0.1154  0.3637
34037SOL    HW1 5703   8.184  -0.038   0.439  0.2444 -0.5951  1.1154
34037SOL    HW2 5704   8.096   0.082   0.467 -1.0213 -1.4987  1.0640
34038SOL     OW 5705   2.781   1.764   4.527  0.4913  0.2368 -0.1004
34038SOL    HW1 5706   2.700   1.721   4.501  1.0984 -0.2472 -1.2762
34038SOL    HW2 5707   2.792   1.835   4.464 -0.3799  2.0779  1.6795
34039SOL     OW 5708   7.008   5.584   6.715 -0.2573  0.6794  0.0607
34039SOL    HW1 5709   7.055   5.605   6.796  3.4329  0.8199 -1.9224
34039SOL    HW2 5710   6.986   5.670   6.678  0.4754  0.7050 -0.3363
34040SOL     OW 5711   0.994   5.512   0.848 -0.0840  0.3098  0.2073
34040SOL    HW1 5712   1.031   5.600   0.843  2.9529 -0.8857 -1.0478
34040SOL    HW2 5713   1.066   5.454   0.822 -1.5235 -2.6893  2.2724
34041SOL     OW 5714   4.240  10.492   7.112  0.0022 -0.7118  0.2195
34041SOL    HW1 5715   4.317  10.445   7.145 -0.2246 -0.1955  1.5396
34041SOL    HW2 5716   4.182  10.424   7.078  0.1681 -1.2840  1.0672
34042SOL     OW 5717   2.574   0.868   9.190 -0.1401  0.1618  0.1102
34042SOL    HW1 5718   2.559   0.922   9.268 -0.1891  0.9677 -0.4384
34042SOL    HW2 5719   2.667   0.846   9.193 -0.0946  0.3729  0.2866
34043SOL     OW 5720   0.503  10.600  10.748 -0.1527 -0.2448 -0.5460
34043SOL    HW1 5721   0.532  10.649  10.670  2.1335  0.6253  0.7344
34043SOL    HW2 5722   0.583  10.556  10.778 -1.0515 -0.7808  1.1376
34044SOL     OW 5723   1.163   3.869   4.833 -0.1907  0.6851 -0.2517
34044SOL    HW1 5724   1.108   3.921   4.775 -0.8781 -0.2737 -0.4769
34044SOL    HW2 5725   1.109   3.853   4.910 -0.8815 -1.5749 -1.1109
34045SOL     OW 5726   6.887   3.244   7.859 -0.0832  0.2170 -0.0215
34045SOL    HW1 5727   6.899   3.337   7.877  0.4720  0.1495 -0.0456
34045SOL    HW2 5728   6.958   3.200   7.906 -0.9160 -0.2818  0.8150
34046SOL     OW 5729   1.856  10.321   8.815 -0.7158 -0.0322 -1.2988
34046SOL    HW1 5730   1.871  10.412   8.791 -1.7179  0.3482 -0.5234
34046SOL    HW2 5731   1.944  10.287   8.834 -0.2978  0.6582 -1.9551
34047SOL     OW 5732  10.451   0.497   9.313 -0.2585  0.4317 -0.2222
34047SOL    HW1 5733  10.537   0.455   9.307 -0.2827  0.0539  1.6438
34047SOL    HW2 5734  10.395   0.444   9.256 -0.1077 -1.6724  1.4896
34048SOL     OW 5735   3.081   8.221   1.862 -0.4646 -0.3934  0.1445
34048SOL    HW1 5736   3.057   8.241   1.952 -0.0376  3.8960 -0.4780
34048SOL    HW2 5737   3.169   8.257   1.851  0.6975 -3.3540 -1.3318
34049SOL     OW 5738   8.396   3.119   2.587  0.2653  0.4445  0.3109
34049SOL    HW1 5739   8.379   3.190   2.649 -0.3099 -0.6119  1.3970
34049SOL    HW2 5740   8.478   3.080   2.619 -0.2506 -0.3627  0.6592
34050SOL     OW 5741   6.382   9.930   7.098  0.4076  0.4011 -0.1701
34050SOL    HW1 5742   6.351   9.844   7.070  2.2587 -0.9689  1.6628
34050SOL    HW2 5743   6.307   9.988   7.085 -0.8352 -1.4088 -1.6879
34051SOL     OW 5744   0.622   5.184  10.603 -0.1217 -0.3349 -0.4569
34051SOL    HW1 5745   0.542   5.234  10.620  0.2493  0.1705 -0.1590
34051SOL    HW2 5746   0.637   5.134  10.683  0.4349  0.3798 -0.1076
34052SOL     OW 5747   5.631   3.967   2.239 -0.1665  0.0841  0.8395
34052SOL    HW1 5748   5.706   3.985   2.183  0.1523 -0.2998  1.1391
34052SOL    HW2 5749   5.557   3.960   2.179 -0.0714  1.0318  0.5915
34053SOL     OW 5750   1.356   6.298   4.111  0.2858 -0.3446  0.1873
34053SOL    HW1 5751   1.406   6.223   4.144  1.3167  0.5734  0.7784
34053SOL    HW2 5752   1.283   6.307   4.172 -0.5494 -1.6085 -0.5960
34054SOL     OW 5753  10.465   5.888   1.934 -0.2691  0.2755  0.1513
34054SOL    HW1 5754  10.485   5.959   1.873 -0.5931  1.2510  1.1237
34054SOL    HW2 5755  10.513   5.813   1.901 -0.6802  0.6762 -1.4644
34055SOL     OW 5756   1.237   8.050   5.861 -0.1615 -0.1770  0.2866
34055SOL    HW1 5757   1.265   8.125   5.809 -1.3465 -0.3342 -0.6118
34055SOL    HW2 5758   1.176   8.088   5.925 -2.4631 -0.6037 -1.5372
34056SOL     OW 5759   9.737   3.965   4.839 -0.1666 -0.2119  0.3223
34056SOL    HW1 5760   9.648   3.976   4.806  0.5679  2.0808 -1.0773
34056SOL    HW2 5761   9.732   3.991   4.931 -0.6820  1.4603 -0.1458
34057SOL     OW 5762   5.071   9.393   6.292 -0.2108 -0.6405 -0.0910
34057SOL    HW1 5763   5.009   9.413   6.362 -0.5535 -0.8605 -0.3265
34057SOL    HW2 5764   5.046   9.306   6.261 -0.5245 -0.2647 -0.9531
34058SOL     OW 5765   8.877  10.100   6.855 -0.4152 -0.0655  0.0176
34058SOL    HW1 5766   8.940  10.047   6.805  1.8963  0.9760  1.6358
34058SOL    HW2 5767   8.858  10.047   6.933  1.4970  1.1402  1.3820
34059SOL     OW 5768   4.189   7.195   5.041  0.6246 -0.4848  0.3651
34059SOL    HW1 5769   4.216   7.254   4.971  0.7487 -1.4517 -0.4299
34059SOL    HW2 5770   4.101   7.166   5.016 -0.2421  0.8001  1.7260
34060SOL     OW 5771   2.405  10.833   0.373 -0.2572  0.0835  0.3677
34060SOL    HW1 5772   2.457  10.803   0.299 -0.0801  0.1097  0.4807
34060SOL    HW2 5773   2.353  10.756   0.398 -0.5305  0.1597  0.0356
34061SOL     OW 5774   1.536   5.825  11.001 -0.3695 -0.5726  0.3919
34061SOL    HW1 5775   1.491   5.741  10.994  0.3747 -1.1507  2.0734
34061SOL    HW2 5776   1.576   5.824  11.088  1.6943  0.4974 -0.4627
34062SOL     OW 5777  10.120   4.423   1.290 -0.2855  0.4344 -0.2965
34062SOL    HW1 5778  10.192   4.377   1.247 -0.5136 -1.2260  0.9922
34062SOL    HW2 5779  10.159   4.466   1.365 -0.5135  0.1191  0.0063
34063SOL     OW 5780   4.249  10.677   3.272 -0.2665 -0.4404  0.0219
34063SOL    HW1 5781   4.319  10.658   3.209  0.6386  0.6601  0.6403
34063SOL    HW2 5782   4.275  10.629   3.351  0.9541  1.5418  0.9259
34064SOL     OW 5783   9.400  10.419  10.844  1.0653  0.4741  0.4206
34064SOL    HW1 5784   9.411  10.351  10.910  1.5530 -0.7598 -0.8848
34064SOL    HW2 5785   9.467  10.484  10.865  2.4933 -0.8228  0.0618
34065SOL     OW 5786   4.749  10.307   7.789 -0.6818 -0.5341  0.1105
34065SOL    HW1 5787   4.788  10.275   7.870  2.8361  0.3476 -1.0189
34065SOL    HW2 5788   4.708  10.390   7.812  0.2812 -0.2938  1.0005
34066SOL     OW 5789   6.547   9.441   7.827  0.0614 -0.3602  0.0840
34066SOL    HW1 5790   6.463   9.481   7.846 -0.0371 -0.6197  0.2003
34066SOL    HW2 5791   6.592   9.438   7.912  0.2069 -0.1752  0.0137
34067SOL     OW 5792  10.085   4.290   9.155  0.0178 -0.8379 -0.4554
34067SOL    HW1 5793  10.097   4.358   9.221  0.6480 -1.3891 -0.0014
34067SOL    HW2 5794   9.992   4.266   9.162  0.1704 -1.1860  0.5211
34068SOL     OW 5795  10.182   7.283   0.353  0.2377  0.4493 -0.1689
34068SOL    HW1 5796  10.174   7.358   0.294  1.6279 -0.3390 -1.4190
34068SOL    HW2 5797  10.205   7.322   0.438  3.4660  1.3703 -1.3541
34069SOL     OW 5798   9.762  10.810   6.029 -0.1101  0.0694  0.1504
34069SOL    HW1 5799   9.732  10.806   5.938 -1.8679 -0.0630  0.7121
34069SOL    HW2 5800   9.824  10.737   6.037 -0.6580 -0.5074 -0.6900
34070SOL     OW 5801   3.176   1.034   3.448  0.4637  0.4719  0.3535
34070SOL    HW1 5802   3.185   1.009   3.540  1.1733  0.6679  0.3432
34070SOL    HW2 5803   3.258   1.008   3.407 -0.0644 -0.1234 -0.3549
34071SOL     OW 5804   4.302   5.291   8.734  0.1829  0.2437  0.3917
34071SOL    HW1 5805   4.268   5.284   8.645 -1.2403  0.8102  0.8666
34071SOL    HW2 5806   4.280   5.208   8.775 -0.6331  0.6002  0.6917
34072SOL     OW 5807   5.551  10.943   7.664  0.3423 -0.3089 -0.6621
34072SOL    HW1 5808   5.631  10.891   7.678  1.0204  0.9580  0.4716
34072SOL    HW2 5809   5.565  10.986   7.580  0.5590 -0.6066 -0.7815
34073SOL     OW 5810   2.910   8.766   4.494 -0.9335 -0.2998  0.3091
34073SOL    HW1 5811   2.853   8.811   4.431 -0.0202 -1.5325 -1.4926
34073SOL    HW2 5812   2.888   8.674   4.484  1.1537 -0.7925 -0.2594
34074SOL     OW 5813   8.007   1.054  10.635  0.0785 -0.3419 -0.2036
34074SOL    HW1 5814   7.928   1.002  10.650  0.5683 -1.1952 -0.4881
34074SOL    HW2 5815   8.077   0.989  10.627  1.0692  0.4662  1.5275
34075SOL     OW 5816   2.000  11.062   7.657  0.4010  0.8994 -0.2849
34075SOL    HW1 5817   1.998  11.073   7.752 -1.4875  1.8001 -0.3828
34075SOL    HW2 5818   1.946  11.133   7.624 -0.0779 -0.1961 -1.9544
34076SOL     OW 5819   8.117  10.138  10.797 -0.1674 -0.3597 -0.1332
34076SOL    HW1 5820   8.060  10.114  10.871  1.0766 -2.6071  0.1635
34076SOL    HW2 5821   8.189  10.186  10.837 -1.1901  1.5131 -0.3842
34077SOL     OW 5822   4.670   8.043   6.243 -0.7190  0.6657  0.3344
34077SOL    HW1 5823   4.605   7.974   6.259  0.8846 -1.5546 -1.9180
34077SOL    HW2 5824   4.747   8.015   6.293  0.5458 -0.2820 -1.9715
34078SOL     OW 5825   8.666   6.132   4.044  0.5569  0.5364 -0.1674
34078SOL    HW1 5826   8.725   6.207   4.038 -1.4485  2.4791  2.1415
34078SOL    HW2 5827   8.614   6.136   3.964  1.1596  0.9624 -0.5462
34079SOL     OW 5828  10.328   6.535   0.119  0.0866 -0.6269 -0.4975
34079SOL    HW1 5829  10.325   6.629   0.098 -0.1571 -0.6744 -0.6840
34079SOL    HW2 5830  10.259   6.497   0.065 -0.7648 -0.7087  0.6067
34080SOL     OW 5831  10.393   2.411   1.895  0.6939  0.1417  0.5506
34080SOL    HW1 5832  10.345   2.482   1.851  0.1308  0.1070  1.0836
34080SOL    HW2 5833  10.445   2.455   1.962  0.6272  0.0846  0.6398
34081SOL     OW 5834   2.424   3.573  10.172  0.1092  0.4792  0.0870
34081SOL    HW1 5835   2.386   3.485  10.168  1.8973 -0.4330  1.6641
34081SOL    HW2 5836   2.461   3.587  10.085 -2.3774  0.7936 -1.0138
34082SOL     OW 5837   3.186   9.572   7.437 -0.1442 -0.0010  0.3757
34082SOL    HW1 5838   3.101   9.604   7.467 -0.5719 -0.2578 -0.5416
34082SOL    HW2 5839   3.177   9.565   7.342  1.2124  0.8925  0.1522
34083SOL     OW 5840  10.901   8.437   1.177  0.4795  0.1700  0.6303
34083SOL    HW1 5841  10.948   8.505   1.127  1.7602 -0.4485  0.9440
34083SOL    HW2 5842  10.948   8.432   1.260 -0.6215  0.0278  1.2600
34084SOL     OW 5843  10.665   2.100   9.381 -0.2854 -0.4077  0.2076
34084SOL    HW1 5844  10.726   2.170   9.405  0.4510 -1.8201  2.8025
34084SOL    HW2 5845  10.686   2.082   9.289  1.1041  1.1921  0.1556
34085SOL     OW 5846   8.842   6.036  10.951 -0.1774 -0.3119 -0.1571
34085SOL    HW1 5847   8.767   6.095  10.946  1.1344  1.4549  0.2366
34085SOL    HW2 5848   8.834   5.995  11.038  0.1226  1.0329  0.5311
34086SOL     OW 5849   0.899  10.689   5.286  0.2457  0.2004  0.0074
34086SOL    HW1 5850   0.805  10.673   5.287  0.2209  0.3638  0.3090
34086SOL    HW2 5851   0.924  10.694   5.378  0.4715  0.6252 -0.0739
34087SOL     OW 5852   3.214   2.720   4.133  0.1417  0.2775 -0.2808
34087SOL    HW1 5853   3.181   2.809   4.122  1.2344  0.8704  0.9799
34087SOL    HW2 5854   3.141   2.664   4.105 -1.0242  1.5499  0.1040
34088SOL     OW 5855  10.055   2.237   2.415 -0.0008 -0.6352 -0.4286
34088SOL    HW1 5856   9.969   2.268   2.443 -0.3079 -1.6454 -0.2430
34088SOL    HW2 5857  10.117   2.288   2.468 -0.4372  0.6268 -1.0812
34089SOL     OW 5858   7.394   9.908   9.359  0.1117 -0.5779  0.1377
34089SOL    HW1 5859   7.432   9.896   9.272  0.6204  1.0104  0.1178
34089SOL    HW2 5860   7.442   9.846   9.415  1.8373  0.4240 -0.1601
34090SOL     OW 5861   0.317   8.504   4.259 -0.4209  0.3221 -0.4633
34090SOL    HW1 5862   0.411   8.522   4.270 -0.4247 -0.6375  1.6308
34090SOL    HW2 5863   0.274   8.580   4.298 -0.5140  0.4321 -0.7801
34091SOL     OW 5864  10.511  10.649   5.174  0.4137  0.1465  0.1904
34091SOL    HW1 5865  10.546  10.679   5.090  0.0996  2.5354  0.8454
34091SOL    HW2 5866  10.570  10.578   5.200  2.1893  1.1880 -0.7714
34092SOL     OW 5867   8.609  10.358   7.339 -0.3255 -0.2248  0.2581
34092SOL    HW1 5868   8.555  10.409   7.399  0.3409  1.8956 -0.8163
34092SOL    HW2 5869   8.554  10.345   7.262  0.5391  1.9470 -0.8431
34093SOL     OW 5870   2.407  10.214   0.394 -0.2819 -0.0269  0.4056
34093SOL    HW1 5871   2.467  10.246   0.461  0.4664 -1.3684  0.4182
34093SOL    HW2 5872   2.401  10.286   0.331  1.4330  0.1390  0.3655
34094SOL     OW 5873   8.759   0.674   2.174  0.1524  0.1802 -0.1615
34094SOL    HW1 5874   8.789   0.613   2.107 -0.0695  0.1801 -0.2624
34094SOL    HW2 5875   8.837   0.723   2.199 -0.0964  1.4052 -1.6902
34095SOL     OW 5876  10.092  10.057   0.034  0.1473 -0.2558  0.4490
34095SOL    HW1 5877  10.055  10.134   0.078 -1.3651 -0.8695  0.3033
34095SOL    HW2 5878  10.042  10.050  -0.047 -0.4823 -2.0252  0.9603
34096SOL     OW 5879   2.730   2.282  10.825 -0.1027  0.1992 -0.0240
34096SOL    HW1 5880   2.692   2.369  10.817 -1.1204 -0.1802  0.4441
34096SOL    HW2 5881   2.688   2.231  10.756 -0.2091 -0.1449  0.2878
34097SOL     OW 5882   0.128   4.682   2.299 -0.4441  0.4830 -0.0233
34097SOL    HW1 5883   0.188   4.685   2.374  0.1573  0.2633 -0.4866
34097SOL    HW2 5884   0.150   4.760   2.248  0.0368 -0.0348 -0.6296
34098SOL     OW 5885   5.241   9.580   9.606  0.2596 -0.2011 -0.3665
34098SOL    HW1 5886   5.252   9.567   9.700  1.6128 -0.0742 -0.4866
34098SOL    HW2 5887   5.317   9.632   9.579  0.8359 -1.6639 -1.8003
34099SOL     OW 5888   1.896  10.286   5.453 -0.4133  0.0076  0.4139
34099SOL    HW1 5889   1.930  10.361   5.403  1.7907 -1.0067  0.2830
34099SOL    HW2 5890   1.826  10.251   5.398 -1.9167  2.2762  0.7540
34100SOL     OW 5891   2.801   8.818   0.531  0.7983  0.0621 -0.1363
34100SOL    HW1 5892   2.794   8.745   0.593 -0.3166  0.0177 -0.3019
34100SOL    HW2 5893   2.855   8.883   0.577  4.0683 -1.8318 -0.9457
34101SOL     OW 5894  10.628   6.014   4.252  0.4289  0.5145 -0.5827
34101SOL    HW1 5895  10.679   5.946   4.296  0.8083  0.1158 -1.6032
34101SOL    HW2 5896  10.617   6.082   4.318 -0.5296 -0.7975  0.6897
34102SOL     OW 5897   6.097  10.928   3.532 -0.1326  0.2273  0.3847
34102SOL    HW1 5898   6.088  11.021   3.556 -0.9404  0.1832  0.2911
34102SOL    HW2 5899   6.170  10.897   3.585 -0.0242  0.8519  0.6196
34103SOL     OW 5900   4.541   5.213   1.229  0.1502  0.5446 -1.0322
34103SOL    HW1 5901   4.616   5.236   1.175 -0.3497  0.9708 -1.5647
34103SOL    HW2 5902   4.545   5.275   1.302 -0.6198  1.7308 -1.9382
34104SOL     OW 5903   2.537   2.478   7.416 -0.5283  0.2830  0.2550
34104SOL    HW1 5904   2.560   2.570   7.402 -1.0620  0.4428  0.4365
34104SOL    HW2 5905   2.621   2.433   7.416 -0.1600  0.9285  1.4108
34105SOL     OW 5906   3.063   9.855   2.331  0.6317 -0.2444 -0.0744
34105SOL    HW1 5907   3.150   9.818   2.321  0.9103  0.4587 -0.2826
34105SOL    HW2 5908   3.004   9.779   2.324  1.2482 -0.8231  0.7303
34106SOL     OW 5909   8.022   5.561  10.369 -0.0634  0.1661 -0.2905
34106SOL    HW1 5910   8.062   5.476  10.390 -0.2449 -0.1086 -1.0211
34106SOL    HW2 5911   8.091   5.608  10.323  0.3544  0.7876  0.9275
34107SOL     OW 5912   8.848   8.110   2.116 -0.2811 -0.5744  0.5440
34107SOL    HW1 5913   8.780   8.136   2.178 -0.6139  0.7900 -0.3469
34107SOL    HW2 5914   8.923   8.088   2.171 -0.8061 -0.1454  1.4680
34108SOL     OW 5915   4.271   6.114  10.158  0.1489  0.3720 -0.0953
34108SOL    HW1 5916   4.256   6.181  10.224  0.3404  0.6555 -0.3373
34108SOL    HW2 5917   4.193   6.117  10.103 -0.1342 -0.0505  0.2726
34109SOL     OW 5918   2.196   5.848   5.228 -0.3124 -0.1534  0.2873
34109SOL    HW1 5919   2.234   5.919   5.176 -0.3105 -1.4092 -1.5058
34109SOL    HW2 5920   2.119   5.888   5.269 -1.7039  0.3826 -2.5733
34110SOL     OW 5921   1.613   7.914   5.823  0.1346 -0.2997  0.2738
34110SOL    HW1 5922   1.579   7.998   5.854  0.1226 -0.5619  0.9822
34110SOL    HW2 5923   1.569   7.900   5.739  1.6929  1.4254 -0.9410
34111SOL     OW 5924   6.805   1.653   2.320  0.0550  0.4810  0.2031
34111SOL    HW1 5925   6.715   1.686   2.317 -0.1376 -0.0029  0.6257
34111SOL    HW2 5926   6.811   1.592   2.246 -0.4637 -0.7215  1.1172
34112SOL     OW 5927   2.075   0.444   6.608  0.2697 -0.0486 -0.2052
34112SOL    HW1 5928   2.019   0.375   6.571 -0.3843  0.8958 -1.0290
34112SOL    HW2 5929   2.015   0.517   6.624  0.7056 -0.0717  1.8679
34113SOL     OW 5930   4.500   1.782   7.824 -0.0993  0.0578 -0.2349
34113SOL    HW1 5931   4.457   1.707   7.782 -1.7824 -0.1150  1.6358
34113SOL    HW2 5932   4.547   1.744   7.898  0.8373  0.6390 -0.5067
34114SOL     OW 5933   8.067   9.103  10.045 -1.0567  0.3978 -0.4685
34114SOL    HW1 5934   7.981   9.141  10.061 -1.6961 -0.5716 -1.4347
34114SOL    HW2 5935   8.056   9.010  10.064 -0.1675  0.2959 -0.4211
34115SOL     OW 5936   9.002   5.766   8.950 -0.2527 -0.3401 -0.1047
34115SOL    HW1 5937   9.075   5.734   9.003 -0.1565 -1.5418 -0.9018
34115SOL    HW2 5938   9.024   5.856   8.929  1.1712 -0.7754 -0.5779
34116SOL     OW 5939   7.908  10.629   1.346  0.2257  0.5915 -0.0243
34116SOL    HW1 5940   7.964  10.560   1.382 -0.6319  0.0121  0.2260
34116SOL    HW2 5941   7.882  10.596   1.260 -2.8853 -1.0075  1.3908
34117SOL     OW 5942   9.174   5.607   2.474 -0.3431 -0.2685  0.0832
34117SOL    HW1 5943   9.105   5.585   2.411  0.1664  1.0239 -0.9915
34117SOL    HW2 5944   9.156   5.698   2.499  0.3163 -0.2853  0.6564
34118SOL     OW 5945   6.104   1.364   1.520  0.5453  0.2248  0.8199
34118SOL    HW1 5946   6.049   1.437   1.545  0.7715  0.6153  0.2047
34118SOL    HW2 5947   6.081   1.347   1.429  1.6882  0.6378  0.4341
34119SOL     OW 5948   9.412   5.066  10.320  0.2404 -1.0366 -0.2163
34119SOL    HW1 5949   9.495   5.113  10.329  1.3131 -3.0925  1.3179
34119SOL    HW2 5950   9.347   5.124  10.362  1.1208 -0.0189 -0.2160
34120SOL     OW 5951  10.440   4.750   3.473  0.2787 -0.1577  0.2829
34120SOL    HW1 5952  10.435   4.658   3.447 -1.0022 -0.4531  1.4560
34120SOL    HW2 5953  10.516   4.754   3.531  1.2736 -0.1293 -0.9822
34121SOL     OW 5954   4.207  10.607   8.536  0.8185  0.3567  0.4556
34121SOL    HW1 5955   4.209  10.685   8.482 -0.0461 -0.4576 -0.8043
34121SOL    HW2 5956   4.136  10.623   8.599  0.4888  0.4846  0.0515
34122SOL     OW 5957   5.847   6.086   3.163 -0.0531  0.8541 -0.1157
34122SOL    HW1 5958   5.791   6.045   3.230 -0.2692  1.1587 -0.1087
34122SOL    HW2 5959   5.858   6.176   3.193 -0.4687  1.1007 -0.6828
34123SOL     OW 5960  10.477   3.110   1.185  0.3535  0.0543 -0.7238
34123SOL    HW1 5961  10.433   3.181   1.138 -1.0542  0.2329  0.7461
34123SOL    HW2 5962  10.570   3.126   1.172  0.0227  0.8106 -2.3386
34124SOL     OW 5963   5.372   8.122   1.697 -0.2691  0.3040 -0.7660
34124SOL    HW1 5964   5.335   8.190   1.640 -0.4527  0.6051 -0.2918
34124SOL    HW2 5965   5.327   8.134   1.781  0.8210  0.6205 -0.2060
34125SOL     OW 5966   5.330  10.841   3.623 -0.2044 -0.6977  0.1712
34125SOL    HW1 5967   5.377  10.758   3.634  0.2474 -0.5394 -0.4827
34125SOL    HW2 5968   5.334  10.858   3.529  0.7701  0.6769  0.4411
34126SOL     OW 5969   0.346   0.267   2.269  0.2156  0.0867  0.1561
34126SOL    HW1 5970   0.310   0.298   2.352  2.1307 -0.5140  1.2555
34126SOL    HW2 5971   0.439   0.256   2.285  0.6980  0.1673 -2.1597
34127SOL     OW 5972   1.806   6.723   1.366 -0.3456  0.1383  0.6264
34127SOL    HW1 5973   1.777   6.808   1.399  2.6522  1.0775  1.0945
34127SOL    HW2 5974   1.864   6.743   1.293  2.7086 -1.1954  2.4598
34128SOL     OW 5975   3.506   8.873  10.558 -0.2289 -0.1652  0.2477
34128SOL    HW1 5976   3.488   8.924  10.480 -0.5492 -0.1235  0.3483
34128SOL    HW2 5977   3.591   8.832  10.541 -0.2062 -0.0006 -0.0387
34129SOL     OW 5978   2.847   6.539   4.897  0.4064  0.0314 -0.3267
34129SOL    HW1 5979   2.886   6.452   4.889  0.1569 -0.0379 -0.8448
34129SOL    HW2 5980   2.753   6.523   4.902  0.2106  0.3471 -2.3049
34130SOL     OW 5981   0.594   8.270   9.620  0.0225  0.7768 -0.1736
34130SOL    HW1 5982   0.553   8.356   9.630  1.0944  1.1904  0.9109
34130SOL    HW2 5983   0.530   8.209   9.656 -1.2233  0.9579 -1.9501
34131SOL     OW 5984  10.178   0.027   1.055 -0.1493  0.3504  0.5387
34131SOL    HW1 5985  10.165  -0.067   1.072  1.4874 -0.0811 -0.3668
34131SOL    HW2 5986  10.175   0.068   1.141  0.4642 -0.7362  1.1058
34132SOL     OW 5987   4.453   8.733   5.302  0.1952  0.0779 -0.3025
34132SOL    HW1 5988   4.451   8.637   5.303  0.0795  0.0661  1.3318
34132SOL    HW2 5989   4.545   8.754   5.287  0.3383 -0.3012  0.0110
34133SOL     OW 5990   2.675   5.519   5.819  0.1249 -0.1567 -0.2380
34133SOL    HW1 5991   2.676   5.520   5.723 -0.0431  2.3040 -0.2993
34133SOL    HW2 5992   2.596   5.568   5.842  1.3667  1.3344  1.0760
34134SOL     OW 5993   0.597   4.598   6.215 -0.2964  0.5509 -0.1325
34134SOL    HW1 5994   0.508   4.565   6.208 -0.0679 -0.2075  0.4172
34134SOL    HW2 5995   0.627   4.607   6.125 -0.4902 -0.4044 -0.3000
34135SOL     OW 5996   2.954   1.257   1.799 -0.1469  0.4033  0.2669
34135SOL    HW1 5997   3.044   1.285   1.812  0.3883 -1.5612  1.1327
34135SOL    HW2 5998   2.912   1.267   1.885 -0.6191  0.7953 -0.0004
34136SOL     OW 5999   0.816   8.829   6.206 -0.1309  0.4421 -0.5098
34136SOL    HW1 6000   0.805   8.892   6.278  2.5869  1.1188 -0.5818
34136SOL    HW2 6001   0.829   8.745   6.251  2.1704  0.9583 -0.1077
34137SOL     OW 6002   4.541   6.221   8.116  0.0887  0.2831 -0.0589
34137SOL    HW1 6003   4.604   6.158   8.079 -0.1174  0.7859 -1.3066
34137SOL    HW2 6004   4.463   6.169   8.135 -0.0821  0.1389 -1.0879
34138SOL     OW 6005   1.817   3.239   8.929  0.1821  0.8033 -0.1956
34138SOL    HW1 6006   1.722   3.230   8.935  0.3515 -1.2765  0.1051
34138SOL    HW2 6007   1.833   3.270   8.840 -0.7457  0.6088 -0.4420
34139SOL     OW 6008   1.379   0.086   5.838  0.9717 -0.2253  0.6441
34139SOL    HW1 6009   1.472   0.106   5.830  0.6910  0.5644 -0.9825
34139SOL    HW2 6010   1.354   0.049   5.754  0.0090 -1.4267  1.4074
34140SOL     OW 6011   7.932   1.632   3.889  0.1659 -0.6344 -0.0037
34140SOL    HW1 6012   7.934   1.604   3.980 -1.6842  1.9400  0.9347
34140SOL    HW2 6013   7.848   1.602   3.856 -0.3684  0.8018  0.0044
34141SOL     OW 6014   7.377   2.862   4.718 -0.5415  0.0568 -0.4939
34141SOL    HW1 6015   7.435   2.875   4.793 -0.9093  0.5966 -0.2982
34141SOL    HW2 6016   7.294   2.834   4.757 -0.9615  1.0664 -0.6412
34142SOL     OW 6017   6.183   7.191   8.038 -0.1422  0.5910  0.6871
34142SOL    HW1 6018   6.218   7.260   7.981  1.6017  0.2242  1.2400
34142SOL    HW2 6019   6.233   7.113   8.015 -3.5795 -1.2219 -1.5408
34143SOL     OW 6020   6.612   5.989   5.087  0.0672  0.1354 -0.0312
34143SOL    HW1 6021   6.543   5.972   5.152  1.3280  1.6281  1.7724
34143SOL    HW2 6022   6.611   6.083   5.075  0.9872  0.0463 -0.9130
34144SOL     OW 6023   2.279   0.606   9.879  0.7649 -0.1381 -0.5103
34144SOL    HW1 6024   2.277   0.568   9.967 -0.4958 -0.1366 -0.5166
34144SOL    HW2 6025   2.296   0.532   9.821 -1.1071 -0.6387 -0.4751
34145SOL     OW 6026   1.230  10.399   7.966 -0.3410  0.4816  0.0516
34145SOL    HW1 6027   1.195  10.470   7.911 -2.1770 -0.8724 -0.6160
34145SOL    HW2 6028   1.156  10.341   7.980  0.9048 -0.8734  1.3387
34146SOL     OW 6029   6.546   5.944   3.271  0.0761  0.8369  0.4092
34146SOL    HW1 6030   6.628   5.950   3.320 -0.0572  0.1140  0.7214
34146SOL    HW2 6031   6.477   5.940   3.338 -0.0442 -1.1992  0.2182
34147SOL     OW 6032   9.068   5.461   4.127  0.0007  0.4170  0.4799
34147SOL    HW1 6033   9.049   5.458   4.221  0.5433  0.0919  0.5798
34147SOL    HW2 6034   8.992   5.419   4.087 -0.3931  0.8565  0.7438
34148SOL     OW 6035   9.064   1.923   4.578 -0.8120 -0.8319 -0.4756
34148SOL    HW1 6036   9.109   1.875   4.647  0.9636 -0.7795 -1.5375
34148SOL    HW2 6037   9.061   2.014   4.609  1.1350 -0.5597 -0.9521
34149SOL     OW 6038   5.253   6.993  10.501  0.0495  0.5391  0.2668
34149SOL    HW1 6039   5.236   6.899  10.490 -2.5156  0.9115  0.4575
34149SOL    HW2 6040   5.256   7.028  10.412  0.2911  0.4064  0.2201
34150SOL     OW 6041   4.032   4.546   8.184  0.2531  0.0535  0.1394
34150SOL    HW1 6042   3.993   4.464   8.214  0.4573  0.1671  0.7396
34150SOL    HW2 6043   4.124   4.539   8.211  0.0729  0.8523  1.0053
34151SOL     OW 6044   8.026  10.299   6.892  0.1859 -0.2292  0.0692
34151SOL    HW1 6045   7.944  10.330   6.930  0.7922  1.1280  0.3253
34151SOL    HW2 6046   8.081  10.377   6.887  0.6626 -0.6396 -2.2584
34152SOL     OW 6047   1.317   7.729  10.839  0.2998  0.0376  0.0046
34152SOL    HW1 6048   1.282   7.701  10.923  0.3634  1.8595  0.6852
34152SOL    HW2 6049   1.410   7.710  10.844  0.2940  0.0937  0.3285
34153SOL     OW 6050   4.964   7.699   3.587 -0.1562 -0.0685 -0.0264
34153SOL    HW1 6051   4.928   7.655   3.510 -0.7768  1.4322 -0.6473
34153SOL    HW2 6052   4.961   7.792   3.565  0.2790  0.3616  1.5582
34154SOL     OW 6053   7.811   8.656   1.439 -0.0267  0.4924  0.4894
34154SOL    HW1 6054   7.875   8.727   1.441  2.4685 -1.5092 -1.0557
34154SOL    HW2 6055   7.856   8.582   1.480 -1.5191 -0.8904 -0.2246
34155SOL     OW 6056   1.852  11.072   5.619  0.0676 -0.2061 -0.1162
34155SOL    HW1 6057   1.785  11.077   5.551 -1.7545  2.2152  1.6684
34155SOL    HW2 6058   1.850  10.981   5.648  1.1336 -1.4082 -3.3597
34156SOL     OW 6059   7.877   0.346   2.559  0.1240 -0.8927 -0.2648
34156SOL    HW1 6060   7.821   0.300   2.496 -2.0746  1.2205  0.0120
34156SOL    HW2 6061   7.885   0.285   2.633 -1.0880 -1.5972 -0.6862
34157SOL     OW 6062   2.667   2.673   4.207 -0.4248  0.4373  0.4752
34157SOL    HW1 6063   2.704   2.607   4.266  0.1920  1.8989  1.7699
34157SOL    HW2 6064   2.655   2.751   4.261 -3.3347  0.7576 -0.4173
34158SOL     OW 6065   5.119   9.881   7.309  0.1967 -0.6162  0.8729
34158SOL    HW1 6066   5.158   9.936   7.377  0.0507 -0.7427  1.0586
34158SOL    HW2 6067   5.043   9.841   7.351 -1.2241  1.0380  0.0061
34159SOL     OW 6068   4.600   6.939   1.115 -0.0893  0.0541  0.0544
34159SOL    HW1 6069   4.592   6.844   1.113  0.9688 -0.0438 -1.2615
34159SOL    HW2 6070   4.517   6.971   1.081 -0.2311 -0.4253 -0.0618
34160SOL     OW 6071   1.479   3.507   8.349  0.3434 -0.3616 -0.0245
34160SOL    HW1 6072   1.572   3.487   8.343  0.7989  1.2803  0.8986
34160SOL    HW2 6073   1.466   3.537   8.439 -1.1695 -0.9401 -0.0170
34161SOL     OW 6074   8.377   1.861   5.920 -0.4451  0.5739 -0.4380
34161SOL    HW1 6075   8.380   1.864   5.824 -2.8884  0.8843 -0.5758
34161SOL    HW2 6076   8.284   1.865   5.941 -0.1264 -1.4891  1.9018
34162SOL     OW 6077   8.829   2.375   3.556  0.4092 -0.3333 -0.1488
34162SOL    HW1 6078   8.745   2.409   3.524 -0.1685 -2.1552 -0.7053
34162SOL    HW2 6079   8.864   2.326   3.482  0.9286 -1.3951  0.7726
34163SOL     OW 6080   8.634   7.628   8.742 -0.8791  0.1325 -0.7165
34163SOL    HW1 6081   8.550   7.621   8.698 -0.9417  0.7373 -0.6996
34163SOL    HW2 6082   8.616   7.680   8.821 -0.9037 -1.4819  0.3796
34164SOL     OW 6083   8.115   1.811   6.017 -0.4364 -0.3096  0.1146
34164SOL    HW1 6084   8.156   1.866   6.083  1.3988 -0.7492 -0.5986
34164SOL    HW2 6085   8.029   1.789   6.053  0.4434 -0.3920  2.2589
34165SOL     OW 6086   5.555   7.794   0.061  0.1402 -0.0159 -0.2290
34165SOL    HW1 6087   5.577   7.702   0.076  2.0763  0.5452  0.7056
34165SOL    HW2 6088   5.571   7.808  -0.032 -2.0172 -1.0511 -0.8050
34166SOL     OW 6089   0.172  10.709   5.352  0.0587 -0.2349 -0.2390
34166SOL    HW1 6090   0.190  10.712   5.258  1.7313  0.2023  0.0692
34166SOL    HW2 6091   0.248  10.666   5.390  0.0625  0.8517  1.0610
34167SOL     OW 6092   5.920  10.629  10.419  0.4103 -0.2366  0.0686
34167SOL    HW1 6093   5.869  10.557  10.456 -0.5604  1.6040  2.6264
34167SOL    HW2 6094   5.854  10.687  10.380  1.0278 -0.0743 -0.7580
34168SOL     OW 6095   4.945   2.352   5.617 -0.1996 -0.4397 -0.3861
34168SOL    HW1 6096   4.985   2.315   5.538 -1.9248 -1.3323 -0.8909
34168SOL    HW2 6097   4.881   2.287   5.645  0.1548 -0.0002  1.6052
34169SOL     OW 6098   5.818   5.544   4.705 -0.0476 -0.1597 -0.0913
34169SOL    HW1 6099   5.898   5.595   4.721  0.7584 -1.0573 -1.1348
34169SOL    HW2 6100   5.750   5.610   4.692  1.1120  0.7153 -2.1686
34170SOL     OW 6101   4.058   0.807  10.530  0.3236 -0.0848 -0.0438
34170SOL    HW1 6102   4.041   0.754  10.608  0.1984  1.2065  0.8415
34170SOL    HW2 6103   4.151   0.827  10.535  0.5932 -1.0604 -0.9334
34171SOL     OW 6104  10.347   2.320   6.273 -0.2648  0.6517  0.1845
34171SOL    HW1 6105  10.313   2.329   6.362  1.1646 -1.0739  0.9810
34171SOL    HW2 6106  10.363   2.226   6.263  0.0428  0.8666 -1.7342
34172SOL     OW 6107   4.774  10.152  10.508  0.2012 -0.0037  0.8232
34172SOL    HW1 6108   4.812  10.125  10.591  1.5214 -1.6730 -0.2449
34172SOL    HW2 6109   4.830  10.112  10.442 -2.7103 -1.6116 -0.8902
34173SOL     OW 6110   5.392   5.791   1.276 -0.5107 -0.2594  0.0174
34173SOL    HW1 6111   5.394   5.700   1.247  0.9592 -1.4371  3.2905
34173SOL    HW2 6112   5.471   5.830   1.239  1.5965 -1.8571  2.4676
34174SOL     OW 6113   9.450   3.189   1.456 -0.4189  0.0979  0.1801
34174SOL    HW1 6114   9.429   3.098   1.474  1.6514 -0.8506 -1.7335
34174SOL    HW2 6115   9.524   3.209   1.513  1.3475 -0.5858 -1.7468
34175SOL     OW 6116   4.475   1.094   8.684  0.4029 -0.4974 -0.1530
34175SOL    HW1 6117   4.479   1.141   8.767 -0.7379  0.4494 -0.5950
34175SOL    HW2 6118   4.558   1.115   8.641 -0.2438  1.5388 -0.5149
34176SOL     OW 6119   4.722   6.876   4.622  0.0523 -0.3037 -0.1227
34176SOL    HW1 6120   4.692   6.860   4.533 -0.2559  0.9788 -0.2678
34176SOL    HW2 6121   4.642   6.897   4.671  0.3735  0.4689  0.1025
34177SOL     OW 6122   1.918   6.976   9.908  0.2441  0.1816 -0.4419
34177SOL    HW1 6123   1.852   6.982   9.839 -0.7787  1.7651  0.5913
34177SOL    HW2 6124   1.966   7.059   9.903  0.4829  0.1086  0.4236
34178SOL     OW 6125  10.599   8.983   2.780 -0.7299 -0.6742 -0.3227
34178SOL    HW1 6126  10.613   8.925   2.706 -1.0859 -0.9670 -0.1618
34178SOL    HW2 6127  10.651   8.946   2.851  1.1301  0.6307 -0.9213
34179SOL     OW 6128   9.200   7.043   5.878  0.1391 -0.4998 -0.2973
34179SOL    HW1 6129   9.225   7.110   5.815  0.4300  0.0337  0.3825
34179SOL    HW2 6130   9.152   7.090   5.946 -0.6502 -1.1520 -0.3803
34180SOL     OW 6131   5.582   6.446   3.326  0.1893  0.4647  0.0113
34180SOL    HW1 6132   5.667   6.419   3.289  0.0193 -0.0859  0.0122
34180SOL    HW2 6133   5.554   6.370   3.377 -0.2457  0.6974  0.1151
34181SOL     OW 6134   1.702   9.973   5.657 -0.1424  0.3323  0.1810
34181SOL    HW1 6135   1.736   9.884   5.673 -0.3977 -0.4041 -2.8013
34181SOL    HW2 6136   1.779  10.029   5.663  0.4704 -0.4439 -0.2224
34182SOL     OW 6137   5.931   8.098   2.998  0.6903 -0.0515  0.5693
34182SOL    HW1 6138   5.895   8.017   3.033  2.4537 -0.8835  0.5551
34182SOL    HW2 6139   5.929   8.159   3.072 -1.2303  0.1398  0.4095
34183SOL     OW 6140  10.404  10.012   5.050 -0.7614 -0.1504 -0.3455
34183SOL    HW1 6141  10.476  10.015   4.987  0.4893 -0.6955  0.9865
34183SOL    HW2 6142  10.421   9.932   5.101 -1.8748  0.1312  0.5021
34184SOL     OW 6143   6.667   4.109   3.264  0.2040 -0.7040  0.1365
34184SOL    HW1 6144   6.647   4.030   3.213  1.1480 -0.2205 -1.0472
34184SOL    HW2 6145   6.634   4.181   3.210  3.0277 -0.0321 -0.8780
34185SOL     OW 6146   2.636   0.552  10.597 -0.1190  0.7933  0.6790
34185SOL    HW1 6147   2.619   0.644  10.581  1.0764  0.7308 -1.1282
34185SOL    HW2 6148   2.698   0.526  10.529  0.5481 -1.0397  1.9040
34186SOL     OW 6149   6.908   1.202   5.891  0.1942  0.4925  0.4561
34186SOL    HW1 6150   7.002   1.202   5.910  0.3843  0.2364 -0.4651
34186SOL    HW2 6151   6.879   1.291   5.913  0.5683  0.4581  1.1146
34187SOL     OW 6152   7.148   3.529   2.451  0.1516  0.5691  0.2439
34187SOL    HW1 6153   7.162   3.578   2.531  0.2448 -0.2655  0.7482
34187SOL    HW2 6154   7.213   3.562   2.390 -0.4110  1.7426  0.2581
34188SOL     OW 6155   1.475   0.302   8.579 -0.1873 -0.3673  0.1339
34188SOL    HW1 6156   1.404   0.258   8.532  0.8328 -0.3302 -1.5370
34188SOL    HW2 6157   1.544   0.237   8.586  0.1456  0.0146  0.4609
34189SOL     OW 6158   1.223   5.947   1.340  0.0167 -0.2020  0.1583
34189SOL    HW1 6159   1.214   5.951   1.245 -1.4305 -0.3425  0.2677
34189SOL    HW2 6160   1.221   6.038   1.368 -1.6417 -0.2350  0.2030
34190SOL     OW 6161  10.842   1.129   4.563  0.0660 -0.2290  0.3879
34190SOL    HW1 6162  10.856   1.146   4.470  1.0070 -2.2136  0.1029
34190SOL    HW2 6163  10.747   1.121   4.572 -0.1138  1.0696 -0.1656
34191SOL     OW 6164   7.073   7.738   6.140 -0.0758 -0.0830 -0.1100
34191SOL    HW1 6165   7.056   7.647   6.117 -0.7096 -0.8096  2.8039
34191SOL    HW2 6166   7.074   7.739   6.236  4.5815  2.1059  0.1135
34192SOL     OW 6167   8.307   9.983   9.548  0.2320 -0.4800  0.4798
34192SOL    HW1 6168   8.294   9.900   9.502 -0.4079 -0.3832  0.4823
34192SOL    HW2 6169   8.360  10.035   9.488 -1.3086 -0.0280 -0.5564
34193SOL     OW 6170   0.325   6.094   0.340 -0.6585 -0.2994  0.1244
34193SOL    HW1 6171   0.377   6.171   0.319 -1.0046 -0.4031 -1.1848
34193SOL    HW2 6172   0.279   6.118   0.421  1.2520 -0.1586  1.2415
34194SOL     OW 6173   1.818   0.385   0.437  0.2378 -0.3707 -0.5432
34194SOL    HW1 6174   1.867   0.453   0.391  0.5187  0.4563  0.9237
34194SOL    HW2 6175   1.754   0.433   0.490  1.3393 -1.1166  1.5692
34195SOL     OW 6176   8.435   3.430   3.506 -0.5812 -0.3195 -0.4304
34195SOL    HW1 6177   8.374   3.448   3.435 -0.4273 -0.4186 -0.5899
34195SOL    HW2 6178   8.397   3.474   3.582 -1.8334 -1.9250 -0.0705
34196SOL     OW 6179   0.397   3.409   8.972 -0.1731  0.2487  0.1461
34196SOL    HW1 6180   0.367   3.441   8.887 -0.9829  0.1751  0.3935
34196SOL    HW2 6181   0.489   3.434   8.976  0.4800 -1.6318 -1.6332
34197SOL     OW 6182  10.454   4.002   1.434  0.5902 -0.4320  0.0508
34197SOL    HW1 6183  10.488   3.995   1.345 -0.5827  1.1174 -0.5601
34197SOL    HW2 6184  10.371   3.953   1.432 -0.2248  0.9080 -0.1768
34198SOL     OW 6185   2.460   5.562   1.670 -0.3720 -0.0493  0.8376
34198SOL    HW1 6186   2.382   5.543   1.723 -1.3090 -0.7000 -0.7185
34198SOL    HW2 6187   2.496   5.476   1.648 -0.6213  0.1547 -0.4518
34199SOL     OW 6188   3.986   2.468   1.909  0.3000  0.3060  0.2739
34199SOL    HW1 6189   3.909   2.413   1.898  0.5835 -0.4801  1.9042
34199SOL    HW2 6190   3.951   2.555   1.930 -0.1336  0.2520 -0.2169
34200SOL     OW 6191  10.318  11.004   2.692  0.5969  0.3642  0.4026
34200SOL    HW1 6192  10.235  11.023   2.734 -1.8539 -1.8274 -2.9576
34200SOL    HW2 6193  10.355  10.932   2.743  0.7027  1.6219  2.1641
34201SOL     OW 6194   4.049   8.100   6.982  0.2175  0.6320 -0.0690
34201SOL    HW1 6195   3.982   8.135   6.924  0.9859  1.1867 -0.6569
34201SOL    HW2 6196   4.002   8.067   7.058 -0.6832  1.3111 -0.3251
34202SOL     OW 6197   1.261   3.633   9.595  1.0226 -0.6149  0.0008
34202SOL    HW1 6198   1.314   3.713   9.588  0.1767 -0.0334  0.0424
34202SOL    HW2 6199   1.181   3.661   9.640  1.1535 -1.7126  0.9464
34203SOL     OW 6200   6.384   7.039  11.106 -0.1135  0.7586 -0.6348
34203SOL    HW1 6201   6.414   6.966  11.054 -1.4352  2.3262 -3.8673
34203SOL    HW2 6202   6.298   7.011  11.140  0.3180  0.0900 -0.0685
34204SOL     OW 6203   5.665   8.412   6.002  0.4485  0.0818 -0.6703
34204SOL    HW1 6204   5.607   8.463   5.946 -0.2402  0.5596  0.4439
34204SOL    HW2 6205   5.650   8.321   5.975 -1.7950  0.0571  0.3888
34205SOL     OW 6206   5.028   1.066   1.654 -0.0392 -0.4131  0.1151
34205SOL    HW1 6207   5.123   1.053   1.651 -0.1068 -1.0690 -2.5837
34205SOL    HW2 6208   5.004   1.081   1.562 -2.3223  1.7150  0.9501
34206SOL     OW 6209   4.217   5.161   0.855  0.1858 -0.2579  0.2911
34206SOL    HW1 6210   4.235   5.068   0.856  0.0910 -0.2870 -0.2755
34206SOL    HW2 6211   4.121   5.167   0.863 -0.0295 -0.3027 -1.7710
34207SOL     OW 6212   6.537   0.184   0.777 -0.1134  0.1120  0.1231
34207SOL    HW1 6213   6.539   0.101   0.729  1.2630  0.6755 -0.8496
34207SOL    HW2 6214   6.451   0.184   0.819 -0.3866 -1.5318 -0.3314
34208SOL     OW 6215   5.529   6.914   1.180  0.2651  0.3578  0.3485
34208SOL    HW1 6216   5.591   6.844   1.201 -1.2418 -1.0346  0.2977
34208SOL    HW2 6217   5.521   6.911   1.085 -1.7795 -1.2373  0.4989
34209SOL     OW 6218  10.150   9.625   4.609  0.3039  0.3057 -0.0425
34209SOL    HW1 6219  10.057   9.606   4.601  0.3374 -0.1215  0.5000
34209SOL    HW2 6220  10.188   9.600   4.525  0.1202 -0.7402  0.1726
34210SOL     OW 6221   2.627   3.651   3.804  0.3085 -0.3160 -0.4575
34210SOL    HW1 6222   2.620   3.604   3.721  0.8969 -1.7143  0.2541
34210SOL    HW2 6223   2.586   3.593   3.868 -0.4727  0.9044  0.1993
34211SOL     OW 6224  10.060   9.818   4.207 -0.2636  0.3621 -0.2384
34211SOL    HW1 6225  10.056   9.825   4.302  0.1625 -1.5534 -0.0459
34211SOL    HW2 6226  10.071   9.909   4.177 -0.6663  1.0268  1.5024
34212SOL     OW 6227   0.088   0.279   9.536 -0.2979  0.2819 -0.3804
34212SOL    HW1 6228   0.147   0.354   9.543  1.8875 -1.3947  0.2255
34212SOL    HW2 6229   0.053   0.285   9.447  2.8392  0.0115 -1.7856
34213SOL     OW 6230   5.388   2.725   7.091 -0.3805 -0.3392 -0.0101
34213SOL    HW1 6231   5.405   2.819   7.093 -0.7156 -0.2746  1.9498
34213SOL    HW2 6232   5.295   2.718   7.069 -0.1156 -0.2774 -1.2016
34214SOL     OW 6233   5.784   8.612   0.198  0.0184  0.3064  0.1288
34214SOL    HW1 6234   5.858   8.582   0.251 -0.1987  0.6631  0.6445
34214SOL    HW2 6235   5.812   8.599   0.107  1.5853  2.4335  0.2484
34215SOL     OW 6236   9.152   5.011   3.984 -0.7965 -0.1120  0.1492
34215SOL    HW1 6237   9.247   5.009   3.987 -0.7881 -2.0237 -0.1962
34215SOL    HW2 6238   9.129   4.966   3.903 -2.0017 -0.4714  0.6607
34216SOL     OW 6239   7.065   9.925   6.844 -0.6161  0.7618 -0.5164
34216SOL    HW1 6240   7.100   9.935   6.932 -0.2005 -0.0652 -0.5772
34216SOL    HW2 6241   7.035   9.834   6.840 -0.5950  0.7789 -1.2328
34217SOL     OW 6242   5.933   5.108   8.141 -0.2432  0.3593 -0.0881
34217SOL    HW1 6243   5.883   5.185   8.167  0.4698  1.1958 -1.0934
34217SOL    HW2 6244   5.897   5.036   8.194 -2.2062  0.9914 -0.4801
34218SOL     OW 6245  10.751   8.445   9.471 -0.4039  0.7126  0.2861
34218SOL    HW1 6246  10.681   8.423   9.533 -0.8926 -1.3203 -0.8787
34218SOL    HW2 6247  10.750   8.541   9.466 -1.4905  0.8355  2.0974
34219SOL     OW 6248   5.408   4.750  10.257 -0.6056  0.0291  0.0744
34219SOL    HW1 6249   5.406   4.709  10.344 -0.4490 -1.1142 -0.4393
34219SOL    HW2 6250   5.376   4.682  10.198 -1.4334  1.0515 -0.6738
34220SOL     OW 6251   2.589   4.462  10.127  0.8033  0.5406 -0.3950
34220SOL    HW1 6252   2.546   4.522  10.066  3.1003  2.0395 -0.6597
34220SOL    HW2 6253   2.517   4.412  10.167 -0.9102  0.7286 -3.0026
34221SOL     OW 6254   4.261   2.733   2.198  0.0520  0.3864 -0.4484
34221SOL    HW1 6255   4.345   2.779   2.201 -0.1294  0.8575 -1.7400
34221SOL    HW2 6256   4.271   2.671   2.125 -0.3976 -0.2351  0.0044
34222SOL     OW 6257   3.857   3.069   9.074 -0.4186  0.0802 -0.2345
34222SOL    HW1 6258   3.809   2.986   9.071  0.8562 -0.6879 -0.3539
34222SOL    HW2 6259   3.799   3.129   9.120 -1.1638 -1.0352  0.3309
34223SOL     OW 6260   0.689   1.798  10.446 -0.3402  0.1684  0.5118
34223SOL    HW1 6261   0.691   1.863  10.376  0.7057 -1.0572 -0.6723
34223SOL    HW2 6262   0.781   1.778  10.463 -0.6130 -0.2401  1.5684
34224SOL     OW 6263   1.586   2.375   4.964 -0.0430  0.4820  0.7664
34224SOL    HW1 6264   1.680   2.394   4.970  0.1975 -0.5881  0.5179
34224SOL    HW2 6265   1.574   2.297   5.017 -0.8581  0.7812  1.0360
34225SOL     OW 6266   2.085   2.924   8.133 -0.1367 -0.1457  0.1191
34225SOL    HW1 6267   2.143   2.849   8.144 -1.0865 -1.0578 -0.7887
34225SOL    HW2 6268   1.997   2.889   8.147 -0.6539  0.6178 -0.9963
34226SOL     OW 6269   7.107   2.925   1.843 -0.1907 -0.3195  0.3844
34226SOL    HW1 6270   7.066   2.985   1.781 -0.5198  0.1650  1.0589
34226SOL    HW2 6271   7.126   2.846   1.791  0.9745  0.6451 -0.7146
34227SOL     OW 6272   3.263   5.211  10.097 -0.0992  0.0079 -0.1420
34227SOL    HW1 6273   3.200   5.178  10.033  0.5650  2.1456 -2.0390
34227SOL    HW2 6274   3.251   5.306  10.095  0.4732  0.2043  2.4234
34228SOL     OW 6275  11.008   6.415   0.378  0.3046 -0.5593  0.2585
34228SOL    HW1 6276  10.919   6.385   0.362 -0.4626  0.9944  1.3021
34228SOL    HW2 6277  11.021   6.485   0.313  1.0395 -1.2442 -0.3494
34229SOL     OW 6278   7.460   6.403   7.320 -0.2395 -0.0142  0.0864
34229SOL    HW1 6279   7.414   6.457   7.385  0.2421 -0.7684  1.0811
34229SOL    HW2 6280   7.442   6.313   7.347 -1.4555 -0.4049 -1.8435
34230SOL     OW 6281   9.110   3.175   7.532 -0.0814  0.3027  0.1284
34230SOL    HW1 6282   9.058   3.238   7.583 -0.7833  0.5677 -0.8689
34230SOL    HW2 6283   9.176   3.228   7.488  0.6641  0.0459  0.9018
34231SOL     OW 6284  10.952   4.084   6.566  0.0618 -0.0642  0.0024
34231SOL    HW1 6285  10.957   4.151   6.498  0.0651  0.4988  0.5451
34231SOL    HW2 6286  10.889   4.020   6.532  1.2409 -0.6062 -1.2037
34232SOL     OW 6287   0.336   7.757   9.228 -0.0662 -0.0439  0.2542
34232SOL    HW1 6288   0.371   7.690   9.169  0.7055  1.2457 -0.8087
34232SOL    HW2 6289   0.403   7.766   9.296 -0.4093 -0.6953  0.6892
34233SOL     OW 6290  10.389   6.066   9.042 -0.2345 -0.1668  0.3222
34233SOL    HW1 6291  10.359   6.112   9.120  1.4041  0.3110  0.7106
34233SOL    HW2 6292  10.484   6.082   9.040 -0.1668 -0.6199 -1.4670
34234SOL     OW 6293   9.327   6.837   0.672 -0.0498  0.1690 -0.8844
34234SOL    HW1 6294   9.360   6.752   0.645 -0.3560 -0.2941  0.1539
34234SOL    HW2 6295   9.401   6.896   0.662  1.1703 -0.8495  1.3855
34235SOL     OW 6296   9.716   5.110   5.748 -0.3366 -0.4272 -0.0858
34235SOL    HW1 6297   9.782   5.115   5.817 -0.6618  0.4511  0.1761
34235SOL    HW2 6298   9.646   5.056   5.785  0.3180 -1.5209 -0.4380
34236SOL     OW 6299   8.651   1.433   5.566 -0.3909  0.4104 -0.1193
34236SOL    HW1 6300   8.703   1.434   5.646  0.2019 -2.6424 -0.3532
34236SOL    HW2 6301   8.570   1.479   5.589  0.4119  0.9793  1.7415
34237SOL     OW 6302   4.937   7.299   8.496  0.2378 -0.4756  0.0391
34237SOL    HW1 6303   4.858   7.304   8.443  1.3543 -0.8127 -1.7437
34237SOL    HW2 6304   4.993   7.369   8.463  1.1322 -0.9628  0.4769
34238SOL     OW 6305   6.870   5.425   5.407 -0.2451  0.3221 -0.3733
34238SOL    HW1 6306   6.890   5.490   5.340  2.3321 -0.2707 -0.2811
34238SOL    HW2 6307   6.925   5.350   5.384 -1.7081 -1.1132  0.6127
34239SOL     OW 6308   5.319   6.575   6.257  0.1900  0.1548 -0.1891
34239SOL    HW1 6309   5.240   6.613   6.296 -0.2021  0.3092 -1.1062
34239SOL    HW2 6310   5.289   6.497   6.211  0.5332  0.3046 -0.6839
34240SOL     OW 6311   3.734  10.413  10.833  0.3433  0.1254 -0.4661
34240SOL    HW1 6312   3.716  10.430  10.741  1.4738 -1.1595 -0.9469
34240SOL    HW2 6313   3.648  10.406  10.874 -0.1666  1.6865 -1.2094
34241SOL     OW 6314   8.755   3.863   3.309  0.0570 -0.1043  0.4193
34241SOL    HW1 6315   8.820   3.887   3.375 -1.2694  1.1868  1.3112
34241SOL    HW2 6316   8.708   3.789   3.348  0.8410 -0.9496 -0.1700
34242SOL     OW 6317   5.045   3.553   1.575  0.3065 -0.2291 -0.8167
34242SOL    HW1 6318   5.045   3.467   1.533 -0.0637 -2.0071  2.4522
34242SOL    HW2 6319   4.969   3.551   1.634  1.9645  1.1233  1.5304
34243SOL     OW 6320   7.458   9.669   2.403  0.1381  0.6426  0.3844
34243SOL    HW1 6321   7.411   9.734   2.456 -1.3913 -0.4418  0.4247
34243SOL    HW2 6322   7.419   9.676   2.316 -0.0101 -0.1859  0.3816
34244SOL     OW 6323   6.128  10.040   1.531  0.2474  0.3442 -0.0798
34244SOL    HW1 6324   6.194   9.972   1.525  1.2427  1.1114  1.4351
34244SOL    HW2 6325   6.129  10.083   1.446 -0.0388 -1.1628 -0.8834
34245SOL     OW 6326   4.844   1.220   7.043  0.4225  0.2072 -0.0345
34245SOL    HW1 6327   4.914   1.220   6.978  0.1189 -2.7129 -0.5020
34245SOL    HW2 6328   4.871   1.156   7.109 -1.5164 -0.6766  0.0004
34246SOL     OW 6329  10.361   7.465   9.965  0.5681  0.8012 -0.2188
34246SOL    HW1 6330  10.291   7.507   9.916  0.6442  0.1665 -0.8962
34246SOL    HW2 6331  10.440   7.480   9.912  1.1447  2.3133  0.9868
34247SOL     OW 6332   2.973   7.496   2.651  0.1352  0.9804 -0.1172
34247SOL    HW1 6333   2.967   7.462   2.740 -1.6303  0.6003 -0.3435
34247SOL    HW2 6334   3.063   7.526   2.643  0.3027  1.1436  1.8396
34248SOL     OW 6335   2.667   2.897  10.509 -0.1824 -0.1659 -0.3092
34248SOL    HW1 6336   2.626   2.860  10.431 -0.3778 -1.8569  0.5378
34248SOL    HW2 6337   2.732   2.959  10.476 -0.2959 -0.8161 -1.8131
34249SOL     OW 6338   0.229   8.210   9.775  0.1589 -0.3607  0.2701
34249SOL    HW1 6339   0.180   8.162   9.842 -0.7935 -1.4668 -1.1726
34249SOL    HW2 6340   0.162   8.239   9.713  0.9143  1.4415  0.2447
34250SOL     OW 6341   7.429   7.854   6.808 -0.4120  0.3610  0.1685
34250SOL    HW1 6342   7.442   7.851   6.713 -0.2780  0.2910  0.1883
34250SOL    HW2 6343   7.517   7.859   6.844 -0.4288 -0.3143  0.3145
34251SOL     OW 6344   6.798   6.768  10.021 -0.2278  0.1360 -0.3650
34251SOL    HW1 6345   6.769   6.846  10.069  1.1532 -0.0138  0.7690
34251SOL    HW2 6346   6.764   6.694  10.072 -0.2404 -0.0157 -0.5919
34252SOL     OW 6347   8.548   1.158   7.130  0.3317  0.4539 -0.7561
34252SOL    HW1 6348   8.483   1.212   7.085  2.1192  2.3322 -1.1955
34252SOL    HW2 6349   8.607   1.128   7.060  0.2532 -0.8299 -0.3044
34253SOL     OW 6350   8.998   2.258   2.049 -0.4237  0.2378 -0.4105
34253SOL    HW1 6351   8.979   2.247   1.956  1.8317 -0.4747 -0.8504
34253SOL    HW2 6352   8.937   2.326   2.078 -0.0675  1.6827 -2.8010
34254SOL     OW 6353  10.533   6.071   5.166 -0.0749 -0.2968 -0.4684
34254SOL    HW1 6354  10.580   6.137   5.113  1.6678 -1.9990 -1.1681
34254SOL    HW2 6355  10.446   6.109   5.180  1.2052  2.6659  0.1897
34255SOL     OW 6356   3.198   5.536   9.658  0.2258  0.3251  0.1228
34255SOL    HW1 6357   3.197   5.514   9.565 -1.6201 -0.5918  0.3038
34255SOL    HW2 6358   3.115   5.583   9.672 -0.4512 -1.2378  1.6444
34256SOL     OW 6359   8.924   8.014   9.809  0.1908  0.0668  0.4225
34256SOL    HW1 6360   8.866   7.949   9.850 -0.0677  0.3200  0.4571
34256SOL    HW2 6361   9.009   7.969   9.804 -0.2505 -0.6812 -0.5757
34257SOL     OW 6362   3.312   0.055   1.328 -0.3605 -0.3124 -0.3384
34257SOL    HW1 6363   3.389   0.034   1.380  1.2535  0.5167 -2.2511
34257SOL    HW2 6364   3.260   0.113   1.384  0.6797 -0.4317  0.7922
34258SOL     OW 6365   0.779   5.512   4.768 -0.1544  0.0843 -0.0368
34258SOL    HW1 6366   0.716   5.566   4.815  0.2260  0.1891  0.3567
34258SOL    HW2 6367   0.859   5.564   4.766  0.2062 -0.4373  0.3151
34259SOL     OW 6368   9.945   1.194   8.193  0.4896  0.1946  0.0923
34259SOL    HW1 6369   9.934   1.125   8.128  0.7494  0.6987 -0.4954
34259SOL    HW2 6370   9.878   1.176   8.259  0.3265 -0.4141 -0.2350
34260SOL     OW 6371   6.862   3.386   2.836 -0.0055 -0.5447  0.6276
34260SOL    HW1 6372   6.888   3.323   2.768 -0.0336  1.0490 -0.9392
34260SOL    HW2 6373   6.857   3.334   2.916 -0.8300 -2.7188 -0.7271
34261SOL     OW 6374  10.319   1.457   8.836 -0.5636  0.5136  0.2930
34261SOL    HW1 6375  10.270   1.376   8.820  0.0273  0.3497 -0.7788
34261SOL    HW2 6376  10.309   1.473   8.929  0.7478 -1.7516  0.8909
34262SOL     OW 6377   4.784   4.147   9.591 -0.0425  0.5536 -0.0383
34262SOL    HW1 6378   4.747   4.233   9.611  0.1227  0.3834  1.0585
34262SOL    HW2 6379   4.870   4.166   9.553  0.3435  0.8706  0.9586
34263SOL     OW 6380  10.545   0.142  10.866 -0.0815 -0.3330  0.1055
34263SOL    HW1 6381  10.539   0.202  10.791 -0.1949  1.4790  1.4834
34263SOL    HW2 6382  10.594   0.191  10.932 -2.4991 -0.6232  2.3047
34264SOL     OW 6383   8.044  10.015   3.494 -0.8584 -0.0267  0.4315
34264SOL    HW1 6384   8.096   9.935   3.489 -0.9164 -0.0341 -3.7634
34264SOL    HW2 6385   7.954   9.984   3.505 -0.6579 -0.3903  1.0856
34265SOL     OW 6386   6.726   6.716   5.041  0.0149  0.0524  0.4165
34265SOL    HW1 6387   6.800   6.773   5.020  0.3376 -0.8014 -0.8961
34265SOL    HW2 6388   6.766   6.631   5.059 -0.6048 -0.2691  0.2943
34266SOL     OW 6389  10.067   5.364   8.794 -0.1132 -0.0855  0.0534
34266SOL    HW1 6390  10.004   5.428   8.763  0.4793  1.5790  2.0677
34266SOL    HW2 6391  10.015   5.286   8.813 -1.5854  1.1847  1.4939
34267SOL     OW 6392   4.381   0.996   4.723  0.1133 -0.2560  0.1685
34267SOL    HW1 6393   4.432   1.075   4.701  1.5780 -1.1186  0.3100
34267SOL    HW2 6394   4.380   0.994   4.819 -0.5654 -0.0163  0.1681
34268SOL     OW 6395   7.254   9.258   3.090  0.2198  0.2152  0.4292
34268SOL    HW1 6396   7.345   9.258   3.061 -0.0215 -0.9653 -0.4205
34268SOL    HW2 6397   7.210   9.195   3.032 -1.8325  2.9411 -1.1945
34269SOL     OW 6398   2.537   6.258   8.998 -0.1331  0.4180  0.6817
34269SOL    HW1 6399   2.580   6.173   8.994 -1.0774 -0.1015  1.3030
34269SOL    HW2 6400   2.508   6.267   9.088 -0.8603  0.9822  0.4073
34270SOL     OW 6401   9.169   2.524   0.354 -0.1730 -0.6541  0.7861
34270SOL    HW1 6402   9.159   2.464   0.280  2.4041  0.5265 -0.6622
34270SOL    HW2 6403   9.155   2.611   0.317 -0.5947 -0.1205  2.1190
34271SOL     OW 6404   1.571   7.201   1.352  0.3765  0.0550  0.2958
34271SOL    HW1 6405   1.584   7.248   1.434  1.6475 -1.0488  0.7631
34271SOL    HW2 6406   1.589   7.267   1.284  1.4059  0.4538  0.9252
34272SOL     OW 6407   8.953   5.279   7.564  0.1698 -0.4778  0.0081
34272SOL    HW1 6408   9.030   5.335   7.549 -0.0406  0.3391  1.6514
34272SOL    HW2 6409   8.883   5.319   7.513  0.1068  0.6285  0.9045
34273SOL     OW 6410   7.257   3.092   5.903  0.2862 -0.0720  0.5233
34273SOL    HW1 6411   7.353   3.097   5.900  0.2608  1.3508  1.1139
34273SOL    HW2 6412   7.228   3.163   5.847 -0.4700 -1.3356 -0.7382
34274SOL     OW 6413   8.398   3.091   7.706  0.5037 -0.0817  0.1586
34274SOL    HW1 6414   8.459   3.021   7.727 -0.2605 -0.4488  1.2577
34274SOL    HW2 6415   8.402   3.099   7.611  2.1833 -0.1488  0.1968
34275SOL     OW 6416  10.642   2.418   2.914 -0.0068  0.0759 -0.2485
34275SOL    HW1 6417  10.594   2.346   2.956 -1.1729 -0.4827 -2.3534
34275SOL    HW2 6418  10.717   2.434   2.970  0.6528 -3.2528  0.0065
34276SOL     OW 6419   9.423   2.210   2.359  0.6744 -0.1112  0.0588
34276SOL    HW1 6420   9.448   2.190   2.449  0.5440  0.2826  0.1847
34276SOL    HW2 6421   9.502   2.194   2.307  1.1743  1.0212  0.4376
34277SOL     OW 6422   4.903   7.233   6.231 -0.1152 -0.5098 -0.1016
34277SOL    HW1 6423   4.899   7.138   6.216 -2.2146 -0.5944  0.7223
34277SOL    HW2 6424   4.913   7.270   6.144  2.8026 -1.4921 -0.3090
34278SOL     OW 6425   0.403   5.096   8.271  0.2520 -0.6196  0.1216
34278SOL    HW1 6426   0.359   5.019   8.306 -0.3777 -0.0161  0.6989
34278SOL    HW2 6427   0.481   5.107   8.325  0.6502 -1.1747 -0.3292
34279SOL     OW 6428  10.434   8.196   6.628 -0.0151 -0.0861  0.1291
34279SOL    HW1 6429  10.341   8.185   6.608  0.7747 -2.5187 -2.9895
34279SOL    HW2 6430  10.446   8.152   6.712 -1.6776  0.5204  0.7295
34280SOL     OW 6431   9.323   6.729   4.927 -0.3462 -0.5459  0.0595
34280SOL    HW1 6432   9.387   6.775   4.874 -0.1327 -1.2250 -0.2907
34280SOL    HW2 6433   9.251   6.711   4.868 -0.6805 -0.1565  0.3442
34281SOL     OW 6434   4.445  11.025   8.313 -0.1085 -0.0635 -0.2289
34281SOL    HW1 6435   4.420  10.992   8.227 -3.5961 -2.6980  1.5540
34281SOL    HW2 6436   4.484  10.950   8.358 -2.4304 -0.1740  1.8508
34282SOL     OW 6437   6.891  10.211   3.580  1.0138 -0.2544 -0.1213
34282SOL    HW1 6438   6.895  10.280   3.514  0.5698 -0.5329 -0.4494
34282SOL    HW2 6439   6.970  10.158   3.565  0.2990 -1.0442 -1.2582
34283SOL     OW 6440   7.313   3.611   0.186  0.5105  0.5164 -0.3571
34283SOL    HW1 6441   7.263   3.637   0.108  0.8964 -0.5909 -0.9954
34283SOL    HW2 6442   7.393   3.573   0.151 -0.1486 -1.8219  0.4864
34284SOL     OW 6443   0.663   5.366   2.611  0.0995 -0.3690 -0.2223
34284SOL    HW1 6444   0.631   5.432   2.548 -0.6228  0.0925  0.6020
34284SOL    HW2 6445   0.744   5.403   2.645 -0.0281 -0.1455 -0.1539
34285SOL     OW 6446   1.762   6.993   5.966 -0.1898  0.3933 -0.9027
34285SOL    HW1 6447   1.832   6.934   5.939  0.3227  0.7804 -0.4383
34285SOL    HW2 6448   1.705   6.939   6.021  0.0351  0.2137 -0.8432
34286SOL     OW 6449   8.808   2.130   0.996  0.4211 -0.4009 -0.4080
34286SOL    HW1 6450   8.886   2.076   1.000  1.5995  1.2802  0.0080
34286SOL    HW2 6451   8.810   2.184   1.075 -0.5770  0.4459 -0.9228
34287SOL     OW 6452   2.645   5.351   0.317 -0.4623  0.2907 -0.3020
34287SOL    HW1 6453   2.683   5.294   0.384 -1.9197 -1.5644 -0.9785
34287SOL    HW2 6454   2.696   5.333   0.238 -2.2783 -1.8274 -1.0819
34288SOL     OW 6455   0.518   8.690   6.096  0.4112 -0.1597  0.2255
34288SOL    HW1 6456   0.592   8.751   6.090 -1.4499  2.2547  0.5848
34288SOL    HW2 6457   0.537   8.638   6.175  1.5305  0.6919  0.5409
34289SOL     OW 6458   7.492   2.962  10.259  0.0973  0.4453  0.0027
34289SOL    HW1 6459   7.533   2.876  10.266 -0.4103  0.2178  0.2559
34289SOL    HW2 6460   7.520   3.008  10.339  1.0852  0.8393 -0.5543
34290SOL     OW 6461   1.095   5.077   7.514  0.1905  0.0012  0.2210
34290SOL    HW1 6462   1.065   5.010   7.451 -1.1691 -1.0657  1.8997
34290SOL    HW2 6463   1.110   5.028   7.595 -1.3133  1.7725  1.6465
34291SOL     OW 6464   7.162   6.509   5.950  0.5796  0.1782 -0.1228
34291SOL    HW1 6465   7.163   6.427   5.901 -1.1044 -0.2468  0.4869
34291SOL    HW2 6466   7.235   6.559   5.914 -0.5463 -0.0869 -3.0938
34292SOL     OW 6467   6.549  10.436   1.258 -0.3913 -0.4971  0.5674
34292SOL    HW1 6468   6.459  10.411   1.237 -0.1719 -0.5874 -0.3011
34292SOL    HW2 6469   6.582  10.477   1.178 -0.0008  0.5249  1.2292
34293SOL     OW 6470   3.084   4.652  10.210 -0.3732  0.4773 -0.3330
34293SOL    HW1 6471   3.117   4.563  10.225  0.3080  0.4966 -1.5613
34293SOL    HW2 6472   2.991   4.641  10.192 -0.0330 -0.1842 -1.8822
34294SOL     OW 6473   2.165   9.992   2.082  0.1577 -0.4784  0.1965
34294SOL    HW1 6474   2.181   9.963   2.172  0.2410  1.1663  0.7567
34294SOL    HW2 6475   2.104  10.065   2.091  1.3665  0.7362 -0.9200
34295SOL     OW 6476   0.406   7.506   2.949  0.3156 -0.1620  0.1880
34295SOL    HW1 6477   0.409   7.449   3.025  0.3305 -0.5724 -0.1210
34295SOL    HW2 6478   0.359   7.584   2.980  0.3886 -0.2953  0.6358
34296SOL     OW 6479   8.794  10.294   0.096  0.2805  0.1252 -0.4448
34296SOL    HW1 6480   8.854  10.364   0.072 -2.1798  1.6691 -2.5585
34296SOL    HW2 6481   8.772  10.251   0.014  0.5657 -2.2374  0.6262
34297SOL     OW 6482  10.258   7.011   5.004 -0.0787  0.4360  0.1000
34297SOL    HW1 6483  10.201   7.018   5.081 -1.6267  0.5366 -1.0200
34297SOL    HW2 6484  10.322   7.081   5.016 -0.3170  0.4810  1.2763
34298SOL     OW 6485  10.213  10.310  10.563 -0.2873  0.4373 -0.1467
34298SOL    HW1 6486  10.233  10.340  10.652 -2.6407 -1.7065  1.2275
34298SOL    HW2 6487  10.138  10.362  10.536  1.3120  2.1291 -1.5891
34299SOL     OW 6488   2.728   9.683   6.270  0.2457  0.0076  0.1737
34299SOL    HW1 6489   2.803   9.712   6.322  2.5816 -1.4888 -2.1291
34299SOL    HW2 6490   2.655   9.736   6.302  2.4934  2.3992  1.7479
34300SOL     OW 6491  11.025   0.745   6.635  0.3340  0.1558  0.8114
34300SOL    HW1 6492  10.942   0.751   6.587  0.2737  0.4896  0.9529
34300SOL    HW2 6493  11.081   0.810   6.593  1.0431 -1.1024 -0.2791
34301SOL     OW 6494   2.289   0.978   3.973 -0.2302 -0.2129 -0.1910
34301SOL    HW1 6495   2.278   0.934   4.057 -1.5413 -0.8409 -0.6579
34301SOL    HW2 6496   2.347   0.920   3.923 -1.9722 -1.5223 -0.8146
34302SOL     OW 6497   8.040   0.519   6.753 -0.1306  0.1278 -0.4036
34302SOL    HW1 6498   8.107   0.467   6.709 -0.8764  0.1860 -1.6750
34302SOL    HW2 6499   8.041   0.603   6.707 -1.7731 -0.2343 -1.1582
34303SOL     OW 6500   5.458   9.613   3.485 -0.4036  0.0575 -0.1534
34303SOL    HW1 6501   5.471   9.568   3.401 -1.5809 -1.7537  0.5764
34303SOL    HW2 6502   5.370   9.589   3.512  0.3399 -0.3354  2.1471
34304SOL     OW 6503   6.902   2.785   8.992  0.1982  0.0999  0.7684
34304SOL    HW1 6504   6.920   2.751   9.080  1.3102 -1.3637  0.0165
34304SOL    HW2 6505   6.914   2.880   9.001  1.1688 -0.1037  2.0100
34305SOL     OW 6506   3.290   7.881   6.553  0.3092 -0.0749 -0.3273
34305SOL    HW1 6507   3.199   7.905   6.538  0.7002  0.7611 -1.5685
34305SOL    HW2 6508   3.297   7.869   6.647 -1.1967 -0.6693 -0.2560
34306SOL     OW 6509   1.449   1.252   1.295  0.2003 -0.6935 -0.2661
34306SOL    HW1 6510   1.454   1.180   1.231 -0.0805 -0.0298 -1.0522
34306SOL    HW2 6511   1.377   1.228   1.352 -1.3212 -0.0411 -1.8242
34307SOL     OW 6512  11.057   3.054   1.940  0.0760  0.2066 -0.1863
34307SOL    HW1 6513  11.034   2.964   1.920  0.3640  0.1124 -0.1042
34307SOL    HW2 6514  11.137   3.047   1.993 -0.6504  0.4520  0.9798
34308SOL     OW 6515   7.926   9.825   1.310  0.3206 -0.7653  0.5166
34308SOL    HW1 6516   7.921   9.915   1.278  0.6364 -0.9300 -0.0146
34308SOL    HW2 6517   7.848   9.814   1.364 -1.1637 -0.9710 -1.5347
34309SOL     OW 6518   7.671   6.396   5.291 -0.0996  0.1029  0.5279
34309SOL    HW1 6519   7.657   6.429   5.379 -0.0832 -0.2401  0.6626
34309SOL    HW2 6520   7.583   6.386   5.255 -0.1853 -1.0164  0.9859
34310SOL     OW 6521   3.706   8.187   1.052 -0.2425 -0.0442 -0.3222
34310SOL    HW1 6522   3.750   8.235   1.123  0.5815  0.0319 -0.8720
34310SOL    HW2 6523   3.648   8.251   1.012 -0.4650  0.0046  0.0724
34311SOL     OW 6524   4.629   0.022   5.257  0.2335 -0.4545 -0.5729
34311SOL    HW1 6525   4.711   0.051   5.298  0.4372 -1.1102 -0.5003
34311SOL    HW2 6526   4.581  -0.019   5.329 -0.5304  0.6536 -0.4252
34312SOL     OW 6527   9.809   4.319   9.878  0.1641 -0.3649 -0.9633
34312SOL    HW1 6528   9.842   4.329   9.967 -0.5019 -0.8189 -0.6578
34312SOL    HW2 6529   9.840   4.397   9.832  0.6800 -0.2237 -0.3890
34313SOL     OW 6530   1.426   0.527   0.433 -0.0842  0.1982  0.4278
34313SOL    HW1 6531   1.447   0.460   0.498 -0.1603  0.5888  0.8639
34313SOL    HW2 6532   1.488   0.513   0.362  0.5834  0.3140  0.9816
34314SOL     OW 6533   1.299   3.369   6.139  0.4696  0.0434 -0.4540
34314SOL    HW1 6534   1.308   3.392   6.232  0.5573  0.7000 -0.6214
34314SOL    HW2 6535   1.382   3.327   6.117  0.4875 -0.0256 -0.2585
34315SOL     OW 6536  10.643   2.179  10.500  0.2437 -0.2080 -0.1579
34315SOL    HW1 6537  10.611   2.165  10.589  0.9487 -1.0425 -0.0263
34315SOL    HW2 6538  10.579   2.134  10.445 -2.1247  3.0615 -0.4217
34316SOL     OW 6539   5.096   4.504   3.489  0.6703  0.2488  0.1029
34316SOL    HW1 6540   5.062   4.587   3.456  0.0783  0.7836  1.9630
34316SOL    HW2 6541   5.177   4.490   3.440  1.2671  2.4020  0.3952
34317SOL     OW 6542   4.901   5.010   5.502  0.2700 -0.2214 -0.7584
34317SOL    HW1 6543   4.853   5.092   5.490 -1.6922 -1.2596 -0.3313
34317SOL    HW2 6544   4.968   5.012   5.434 -1.9273  0.2022 -3.0796
34318SOL     OW 6545   0.064   5.409   6.039 -0.3040  0.2421  0.7111
34318SOL    HW1 6546  -0.001   5.457   6.089 -1.2647  0.8660 -1.0713
34318SOL    HW2 6547   0.016   5.371   5.965  1.1499 -0.1758 -0.0791
34319SOL     OW 6548   8.450   7.037   0.524 -0.3950  0.8849  0.2784
34319SOL    HW1 6549   8.399   7.051   0.444 -2.3395  0.4765  1.3833
34319SOL    HW2 6550   8.443   7.120   0.572  0.9616  1.2120 -0.0447
34320SOL     OW 6551   8.555  10.753   0.914 -0.1036 -0.4841 -0.2970
34320SOL    HW1 6552   8.553  10.810   0.991  0.8063 -1.5807  0.5752
34320SOL    HW2 6553   8.644  10.764   0.880  0.1832 -1.5879  0.0643
34321SOL     OW 6554   6.502   2.763  11.005  0.0054 -0.6381  0.6545
34321SOL    HW1 6555   6.569   2.729  10.946  1.3089  2.7316 -0.0001
34321SOL    HW2 6556   6.419   2.744  10.960  0.8380 -0.2973 -1.1316
34322SOL     OW 6557   2.746   8.213   5.946 -0.1071 -0.8474  0.1293
34322SOL    HW1 6558   2.699   8.284   5.902 -0.7622 -1.8905 -0.9010
34322SOL    HW2 6559   2.838   8.229   5.925 -0.2240 -0.1734  0.1090
34323SOL     OW 6560   7.454   3.317   9.637  0.3572 -0.1820 -0.4276
34323SOL    HW1 6561   7.512   3.330   9.562  0.0475 -0.9933 -0.8078
34323SOL    HW2 6562   7.402   3.398   9.641 -0.5789 -0.6634 -1.9311
34324SOL     OW 6563   2.502   7.951   8.903 -0.8961  0.4160  0.3075
34324SOL    HW1 6564   2.413   7.986   8.906 -0.3350  1.8493  1.2223
34324SOL    HW2 6565   2.535   7.963   8.992 -0.1510 -1.1222  0.2696
34325SOL     OW 6566   3.180   8.271   2.176  0.3741 -0.1799 -0.2153
34325SOL    HW1 6567   3.104   8.304   2.223  0.7693 -1.8124  1.6680
34325SOL    HW2 6568   3.245   8.341   2.182  0.4822 -0.4189  1.9063
34326SOL     OW 6569   4.497   0.428   4.938  0.0299  0.3164  0.4197
34326SOL    HW1 6570   4.465   0.485   4.868  1.0015 -1.3691 -1.5065
34326SOL    HW2 6571   4.589   0.412   4.916  0.3299 -0.3781  2.0208
34327SOL     OW 6572   3.722   7.835   6.133 -0.1757 -0.3672 -0.1470
34327SOL    HW1 6573   3.652   7.774   6.154  0.0321 -0.7481 -0.5439
34327SOL    HW2 6574   3.796   7.807   6.187 -0.5498  0.5084  0.8529
34328SOL     OW 6575   8.127   3.095   4.324 -0.4985  0.0253  0.4422
34328SOL    HW1 6576   8.202   3.154   4.326 -0.1915 -0.1419 -2.5021
34328SOL    HW2 6577   8.063   3.138   4.268 -2.3483 -0.2286  2.2261
34329SOL     OW 6578   5.169  10.348   9.039 -0.0266 -0.1903 -0.1951
34329SOL    HW1 6579   5.222  10.427   9.051 -0.9640  0.2014  1.9514
34329SOL    HW2 6580   5.228  10.275   9.056  0.5198  0.0886 -0.8545
34330SOL     OW 6581   9.086   9.200   8.251 -0.3745 -0.1853  0.3780
34330SOL    HW1 6582   9.073   9.208   8.156 -0.7540 -0.3447  0.4148
34330SOL    HW2 6583   9.016   9.141   8.280  0.5877 -1.2699  0.5475
34331SOL     OW 6584   7.508   0.911   2.438  0.2473  0.2974  0.1126
34331SOL    HW1 6585   7.594   0.870   2.443  0.3802  0.7101  1.5672
34331SOL    HW2 6586   7.447   0.837   2.426  0.5737 -0.2770  1.7217
34332SOL     OW 6587   4.522  10.552  10.676 -0.4857 -0.0706 -0.4193
34332SOL    HW1 6588   4.454  10.492  10.707  0.4496 -1.4701 -0.9659
34332SOL    HW2 6589   4.524  10.539  10.581 -0.4909  1.0932 -0.5936
34333SOL     OW 6590   0.001   0.407   4.494  0.3788 -0.3295  0.1217
34333SOL    HW1 6591  -0.039   0.324   4.520  0.0908  0.4549  2.3715
34333SOL    HW2 6592   0.091   0.403   4.528 -0.1205  0.8713  1.7402
34334SOL     OW 6593   4.839   2.111   2.185 -0.2312 -0.0630  0.1995
34334SOL    HW1 6594   4.829   2.191   2.134  0.8316 -0.0636 -0.0337
34334SOL    HW2 6595   4.868   2.141   2.272  0.5725 -0.2070 -0.0115
34335SOL     OW 6596   7.140   2.584   7.568 -0.1940 -0.3739 -0.4143
34335SOL    HW1 6597   7.138   2.488   7.569 -0.4952 -0.3692  0.7713
34335SOL    HW2 6598   7.133   2.609   7.660 -1.0810  0.8105 -0.7787
34336SOL     OW 6599  10.468   3.935  10.039 -0.5977 -0.1229 -0.5045
34336SOL    HW1 6600  10.423   3.997   9.981 -0.2028 -1.1895 -2.0075
34336SOL    HW2 6601  10.558   3.967  10.042 -0.2031 -1.0041 -1.9163
34337SOL     OW 6602   5.120  11.028   3.642  0.4391  0.1811 -0.0069
34337SOL    HW1 6603   5.050  10.979   3.685  0.2048  0.2707 -0.2876
34337SOL    HW2 6604   5.196  10.969   3.648  0.1724 -0.1986 -0.2976
34338SOL     OW 6605   5.342   6.313   5.077  0.6962  0.1034 -0.8580
34338SOL    HW1 6606   5.396   6.332   5.000  1.2081  0.1605 -0.4867
34338SOL    HW2 6607   5.319   6.399   5.113  0.2064  0.0844 -1.1139
34339SOL     OW 6608   0.077   7.154   6.660 -0.6402  0.1782  0.0914
34339SOL    HW1 6609  -0.011   7.162   6.698 -0.9648  2.3054 -0.9266
34339SOL    HW2 6610   0.131   7.213   6.713  0.3300 -1.4556  0.9941
34340SOL     OW 6611   3.343   4.393   5.003  0.4233  0.1539  0.0091
34340SOL    HW1 6612   3.386   4.311   4.978 -3.8737 -1.5614 -3.0459
34340SOL    HW2 6613   3.265   4.364   5.052 -0.6112  2.5030 -0.1337
34341SOL     OW 6614   9.516   9.632   2.409  0.6895 -0.2758  0.1908
34341SOL    HW1 6615   9.573   9.580   2.353  0.0905 -0.9236  0.1795
34341SOL    HW2 6616   9.433   9.636   2.363  0.2334 -0.6974  0.9615
34342SOL     OW 6617   3.181   4.955   7.680 -0.3564 -0.5667  0.3147
34342SOL    HW1 6618   3.269   4.931   7.710 -0.5908 -0.6447  0.9756
34342SOL    HW2 6619   3.167   5.043   7.714 -1.4791 -1.4858  2.4341
34343SOL     OW 6620   7.280   7.416   3.873  0.1956 -0.3806 -0.4630
34343SOL    HW1 6621   7.292   7.322   3.859 -1.6651 -0.5561 -1.1062
34343SOL    HW2 6622   7.191   7.434   3.842  0.2092  1.4447  0.4263
34344SOL     OW 6623   0.479   7.324   1.156  0.1744 -0.4874  0.2914
34344SOL    HW1 6624   0.568   7.352   1.173 -0.5087  0.5557  2.4658
34344SOL    HW2 6625   0.471   7.240   1.201 -0.0466 -0.4159  0.3875
34345SOL     OW 6626   7.568  10.527   8.642 -0.4098  0.1182 -0.1678
34345SOL    HW1 6627   7.612  10.467   8.582  0.2757  0.8637 -0.4231
34345SOL    HW2 6628   7.475  10.522   8.617 -0.0857  0.7433 -1.5904
34346SOL     OW 6629   2.529   8.866   1.299 -0.5521  0.6757 -0.7717
34346SOL    HW1 6630   2.479   8.941   1.266 -1.0567 -0.6520 -3.2332
34346SOL    HW2 6631   2.467   8.820   1.355 -0.6950  1.3073 -0.3952
34347SOL     OW 6632   6.699   7.154   1.586 -0.5636  0.5290  0.0305
34347SOL    HW1 6633   6.701   7.173   1.680 -1.0568  1.1921 -0.0850
34347SOL    HW2 6634   6.724   7.236   1.544 -0.5167  0.2868 -0.4248
34348SOL     OW 6635   9.717   6.385   5.942 -0.4032  0.1464  0.3018
34348SOL    HW1 6636   9.687   6.322   5.877 -1.4647 -1.7815  2.5008
34348SOL    HW2 6637   9.809   6.363   5.957  0.0026  0.9541 -0.8606
34349SOL     OW 6638   7.084   2.035   1.404 -0.0104  0.3559 -0.1919
34349SOL    HW1 6639   7.024   2.107   1.385 -0.2904  0.4116  0.8240
34349SOL    HW2 6640   7.028   1.958   1.406  0.1836  0.2006 -0.6276
34350SOL     OW 6641   2.117   9.683   7.304 -0.2418 -0.5956 -0.4570
34350SOL    HW1 6642   2.035   9.666   7.350 -0.4287  0.3720 -0.4148
34350SOL    HW2 6643   2.182   9.633   7.353 -0.3081  0.9412  1.3485
34351SOL     OW 6644   3.991   6.824   1.013 -0.3291  0.1806 -0.4645
34351SOL    HW1 6645   3.925   6.786   1.072 -0.7842  1.1179 -0.3581
34351SOL    HW2 6646   4.037   6.748   0.978 -1.9977 -0.5725 -1.1761
34352SOL     OW 6647  10.668   4.934   8.054 -0.6819  0.5635 -0.0502
34352SOL    HW1 6648  10.633   4.846   8.044  0.2827  0.2628 -0.8818
34352SOL    HW2 6649  10.702   4.936   8.144  1.1040 -0.5970 -0.6524
34353SOL     OW 6650   9.448   4.062   9.412 -0.3130  0.3905  0.2140
34353SOL    HW1 6651   9.437   4.127   9.342 -2.6003 -0.8335 -0.6692
34353SOL    HW2 6652   9.415   3.981   9.374  1.4170 -1.0820  1.6798
34354SOL     OW 6653   8.447   4.122   6.188  0.3786 -0.1738 -1.1665
34354SOL    HW1 6654   8.391   4.126   6.111 -0.6687  0.2986 -0.4125
34354SOL    HW2 6655   8.415   4.192   6.245  2.2100  0.5583 -0.9936
34355SOL     OW 6656   7.874   2.878   1.080  0.2681  0.2976  0.7482
34355SOL    HW1 6657   7.872   2.950   1.017  2.1585  0.5670  0.9306
34355SOL    HW2 6658   7.949   2.898   1.136  1.1200 -2.0316  0.5452
34356SOL     OW 6659   1.863   3.753   4.644 -0.2498 -0.3671  0.2953
34356SOL    HW1 6660   1.873   3.668   4.686  0.4876 -0.4052  0.0524
34356SOL    HW2 6661   1.788   3.742   4.585  0.1105 -0.9815 -0.0546
34357SOL     OW 6662   5.516   9.109   2.977  0.4866  0.3230  0.0851
34357SOL    HW1 6663   5.549   9.122   2.888 -0.0926 -0.5201 -0.2705
34357SOL    HW2 6664   5.503   9.014   2.983  2.0727  0.1596  1.6360
34358SOL     OW 6665   7.580   8.645   5.508 -0.0554 -0.5783 -0.0662
34358SOL    HW1 6666   7.537   8.590   5.572 -0.4139 -1.5118 -1.0805
34358SOL    HW2 6667   7.509   8.684   5.457  0.1776  0.9743  0.7211
34359SOL     OW 6668   7.159   5.088   3.670  0.0291  0.3318  0.0646
34359SOL    HW1 6669   7.089   5.133   3.624 -0.1204  0.2235  0.1860
34359SOL    HW2 6670   7.114   5.032   3.734  0.2186  0.1486  0.0397
34360SOL     OW 6671   3.942   5.415   8.340 -0.2890 -0.3155 -0.4194
34360SOL    HW1 6672   3.856   5.452   8.362 -0.3542  0.7699 -2.2850
34360SOL    HW2 6673   3.925   5.321   8.331 -0.7401 -0.4651  1.5684
34361SOL     OW 6674   5.079   7.787  10.356  0.2674 -0.3115  0.1201
34361SOL    HW1 6675   5.034   7.870  10.339  0.5818 -0.1868 -0.1090
34361SOL    HW2 6676   5.021   7.721  10.318  0.9322 -0.0376 -1.4271
34362SOL     OW 6677   0.333   9.600   7.238 -0.5211  0.4198  0.1829
34362SOL    HW1 6678   0.264   9.663   7.262 -2.9835 -1.6254 -1.0260
34362SOL    HW2 6679   0.326   9.591   7.143  0.9351 -0.4397  0.1296
34363SOL     OW 6680   4.355   2.054   5.840  0.1624 -0.0696 -0.2704
34363SOL    HW1 6681   4.428   2.035   5.898 -0.6224 -1.0075  0.4549
34363SOL    HW2 6682   4.367   1.993   5.766 -0.0606 -0.4729  0.0188
34364SOL     OW 6683   7.132   9.071   4.083 -0.7564  0.0933 -0.3835
34364SOL    HW1 6684   7.041   9.069   4.115 -0.0011 -1.9518  1.9148
34364SOL    HW2 6685   7.162   8.981   4.091  1.3828  0.6421 -1.5357
34365SOL     OW 6686  11.028   7.354   6.231  0.4267 -0.2373  0.1958
34365SOL    HW1 6687  11.045   7.318   6.144  2.5793 -0.7674  0.7613
34365SOL    HW2 6688  10.935   7.377   6.231  0.5654  0.6739 -2.5689
34366SOL     OW 6689   5.993   5.102   0.625 -0.8220  0.2457 -0.1698
34366SOL    HW1 6690   6.065   5.042   0.606 -1.5818 -1.2933  1.4489
34366SOL    HW2 6691   6.020   5.186   0.588  0.2224 -1.0913 -2.6836
34367SOL     OW 6692   5.030   6.589   2.895  0.1100 -0.3321  0.1770
34367SOL    HW1 6693   5.099   6.537   2.854  0.9806  1.0044 -0.0970
34367SOL    HW2 6694   4.955   6.578   2.837  0.8608  0.2573 -0.9473
34368SOL     OW 6695   3.946   5.647   7.791 -0.1496 -0.1834 -0.1634
34368SOL    HW1 6696   3.927   5.733   7.755 -0.6011  0.3565  1.3049
34368SOL    HW2 6697   3.874   5.628   7.851  0.3899 -1.1910  0.2080
34369SOL     OW 6698   9.223   7.368   8.478  0.0373 -0.3023 -0.5290
34369SOL    HW1 6699   9.240   7.396   8.388 -0.3227  1.3125 -0.1331
34369SOL    HW2 6700   9.128   7.380   8.490 -0.1813 -1.9672 -0.3902
34370SOL     OW 6701   5.318   5.719   0.885  0.2320 -0.0492  0.3504
34370SOL    HW1 6702   5.298   5.782   0.954 -0.8620  0.7713 -0.6725
34370SOL    HW2 6703   5.243   5.723   0.826  1.4906 -0.1246 -1.3346
34371SOL     OW 6704   9.882   1.688  10.093  0.2181 -0.0146 -0.1581
34371SOL    HW1 6705   9.941   1.731  10.154  0.5006  0.9307 -1.0719
34371SOL    HW2 6706   9.800   1.678  10.142  0.3586  0.9685  0.2892
34372SOL     OW 6707   5.426   8.520   0.378  0.0083  0.3047 -0.0881
34372SOL    HW1 6708   5.450   8.438   0.422  0.0798 -0.1051 -0.8725
34372SOL    HW2 6709   5.504   8.575   0.386  0.2820 -0.0393 -0.3252
34373SOL     OW 6710   2.813   4.959   0.402  0.1096  0.0920 -0.2951
34373SOL    HW1 6711   2.823   4.869   0.370  0.0517  0.7165 -2.2410
34373SOL    HW2 6712   2.739   4.994   0.353  0.4030  1.3352  0.0992
34374SOL     OW 6713   0.961   6.749   6.199 -0.1369 -0.3724 -0.0866
34374SOL    HW1 6714   1.019   6.673   6.196 -0.1488 -0.4215  0.7847
34374SOL    HW2 6715   1.008   6.818   6.152 -0.4023 -1.0879 -1.4681
34375SOL     OW 6716   4.383   3.882   3.587  0.0798 -0.3250 -1.0099
34375SOL    HW1 6717   4.413   3.922   3.505 -0.0146 -1.9297 -1.8718
34375SOL    HW2 6718   4.463   3.867   3.637  0.1522  0.5378 -0.8599
34376SOL     OW 6719   7.105   7.522   0.235 -0.2475  0.2702 -0.0588
34376SOL    HW1 6720   7.029   7.465   0.227 -0.3944  0.3916  0.4912
34376SOL    HW2 6721   7.107   7.570   0.152  0.9903 -1.8827 -1.3710
34377SOL     OW 6722   8.880   4.004   6.213  0.0585  0.0325  0.4396
34377SOL    HW1 6723   8.808   3.998   6.276 -1.2655  0.5898 -0.9643
34377SOL    HW2 6724   8.886   4.097   6.193  0.7571 -0.0922  0.0442
34378SOL     OW 6725  10.845   5.899   6.989 -0.7689  0.1141  0.3482
34378SOL    HW1 6726  10.827   5.806   7.004 -2.1332  0.0738 -1.1813
34378SOL    HW2 6727  10.908   5.900   6.917 -0.6432  0.3698  0.4606
34379SOL     OW 6728   7.482  11.109   0.753  0.0804 -0.1405  0.0412
34379SOL    HW1 6729   7.401  11.061   0.771  0.4657 -0.6764  0.3767
34379SOL    HW2 6730   7.455  11.201   0.750 -0.4895 -0.2857  0.4861
34380SOL     OW 6731   4.080   5.980   2.654  0.4632 -0.3559 -0.7212
34380SOL    HW1 6732   3.996   5.945   2.625  0.2559 -1.0605  0.6494
34380SOL    HW2 6733   4.061   6.069   2.682  0.5377  0.1005 -2.0630
34381SOL     OW 6734   8.038   2.085   2.924 -0.3834 -0.3568  0.5138
34381SOL    HW1 6735   8.074   2.147   2.861 -1.3823  0.5232  0.7539
34381SOL    HW2 6736   7.955   2.126   2.951  0.5084 -0.1189  3.2138
34382SOL     OW 6737   0.139   9.212   1.986  0.0660 -0.1257  0.2518
34382SOL    HW1 6738   0.140   9.133   1.932  0.4781 -0.3943  0.6376
34382SOL    HW2 6739   0.096   9.278   1.932  0.2868 -0.4433 -0.3198
34383SOL     OW 6740   9.705   5.857  11.034 -0.2501 -0.0612 -0.1083
34383SOL    HW1 6741   9.794   5.850  11.001  0.1540  2.1276  0.3698
34383SOL    HW2 6742   9.659   5.909  10.969 -1.1403 -0.9862 -0.2437
34384SOL     OW 6743   1.661   7.977  10.908  0.3425 -0.0951 -0.0175
34384SOL    HW1 6744   1.660   7.996  10.814  0.7733 -0.5915 -0.1290
34384SOL    HW2 6745   1.580   7.928  10.923 -0.9237  1.9696  0.3259
34385SOL     OW 6746   1.165   1.988   9.591 -0.0016 -0.3715  0.1697
34385SOL    HW1 6747   1.214   1.906   9.599 -2.8009 -2.1874  0.3838
34385SOL    HW2 6748   1.090   1.965   9.535 -1.4399  1.7564  1.1046
34386SOL     OW 6749  10.159   4.947   9.021 -0.2014 -0.3033  0.2878
34386SOL    HW1 6750  10.243   4.993   9.021 -0.0106 -0.5141 -2.2453
34386SOL    HW2 6751  10.178   4.863   8.981 -1.6613 -0.2642 -0.5386
34387SOL     OW 6752   1.653   7.435   9.485 -1.2337  0.1295  0.5375
34387SOL    HW1 6753   1.655   7.346   9.450 -1.4758  1.0464 -2.0360
34387SOL    HW2 6754   1.741   7.469   9.470 -0.6328 -0.1343  3.0363
34388SOL     OW 6755   0.636   3.989   3.815  0.2687  0.1187 -0.2087
34388SOL    HW1 6756   0.578   4.062   3.836 -0.7517 -0.7260  0.0018
34388SOL    HW2 6757   0.697   4.025   3.751  0.3436  1.3855  0.5327
34389SOL     OW 6758   3.407   8.593   5.819 -0.0993 -0.0508 -0.3175
34389SOL    HW1 6759   3.390   8.553   5.905  0.4714 -0.7303 -0.5095
34389SOL    HW2 6760   3.410   8.687   5.837 -0.6922 -0.1426  0.2827
34390SOL     OW 6761   3.891   5.029   4.309 -0.4165  0.4718 -0.0849
34390SOL    HW1 6762   3.958   4.962   4.317 -1.5449 -1.0065 -1.9877
34390SOL    HW2 6763   3.939   5.111   4.306  1.0787 -0.2896  1.4443
34391SOL     OW 6764   3.871   7.442   4.754 -0.3520  0.3189 -0.4592
34391SOL    HW1 6765   3.902   7.483   4.835  1.6232  0.4790 -1.2524
34391SOL    HW2 6766   3.929   7.476   4.686 -2.0671  0.3077 -1.9956
34392SOL     OW 6767   7.031   6.773   6.440 -0.1308  0.4518  0.4750
34392SOL    HW1 6768   6.948   6.728   6.425  0.4501 -0.5520  0.1884
34392SOL    HW2 6769   7.082   6.756   6.361  0.1035  1.6556  0.3447
34393SOL     OW 6770   7.672   0.239   5.144 -0.2086  0.0079 -0.3930
34393SOL    HW1 6771   7.751   0.184   5.138 -0.2323 -0.2517  1.2647
34393SOL    HW2 6772   7.627   0.225   5.061  0.6597 -1.1577 -0.6958
34394SOL     OW 6773   8.733   4.854   6.205 -0.0852 -0.7158  0.2287
34394SOL    HW1 6774   8.653   4.854   6.257  1.4882 -1.6307  2.8583
34394SOL    HW2 6775   8.747   4.945   6.180 -1.2351 -0.3570  0.8518
34395SOL     OW 6776   6.940   2.296   1.056  0.3654 -0.3623  0.5384
34395SOL    HW1 6777   6.884   2.225   1.088 -2.9193  1.6361 -0.3316
34395SOL    HW2 6778   6.972   2.339   1.135 -1.6675  0.1077  1.1536
34396SOL     OW 6779   7.366   6.176  10.365 -0.2966 -0.5360  0.4614
34396SOL    HW1 6780   7.294   6.113  10.362 -0.6223 -0.1928  0.8662
34396SOL    HW2 6781   7.322   6.261  10.370  0.1391 -0.2698 -0.2755
34397SOL     OW 6782   5.885   6.517  10.702  0.1592 -0.5163 -0.5817
34397SOL    HW1 6783   5.859   6.477  10.785 -1.7735 -0.2725 -1.0245
34397SOL    HW2 6784   5.876   6.447  10.638  0.6075 -0.4264 -0.7420
34398SOL     OW 6785  10.309   0.284   0.718  0.0822 -0.0356 -0.6056
34398SOL    HW1 6786  10.322   0.198   0.758 -0.4124  0.6551  1.1500
34398SOL    HW2 6787  10.245   0.328   0.775 -0.1137  1.2851 -1.7830
34399SOL     OW 6788   4.402   8.709   3.389  0.7887  0.4075  0.8087
34399SOL    HW1 6789   4.381   8.688   3.298 -1.2250  0.7474  1.1439
34399SOL    HW2 6790   4.364   8.637   3.440  0.8548  0.8118  1.4485
34400SOL     OW 6791   8.891   0.320   4.461 -0.1020 -0.2994  0.0223
34400SOL    HW1 6792   8.961   0.269   4.503 -0.7452 -0.7754  0.5352
34400SOL    HW2 6793   8.908   0.310   4.367  0.8036  0.0033  0.1433
34401SOL     OW 6794   5.674   5.032   4.086 -0.2995 -0.0097  0.4915
34401SOL    HW1 6795   5.759   5.046   4.045  0.7874  1.0508  2.9174
34401SOL    HW2 6796   5.611   5.057   4.019  1.3709  1.5122 -0.6100
34402SOL     OW 6797   8.303   8.989   5.908 -0.1558  0.0594  0.0053
34402SOL    HW1 6798   8.253   8.924   5.957  1.6875 -0.9043  0.7063
34402SOL    HW2 6799   8.316   9.061   5.969  0.0256 -0.0565  0.1035
34403SOL     OW 6800  10.889   7.908   7.238  0.0022  0.5073  0.4596
34403SOL    HW1 6801  10.823   7.957   7.285 -0.4328 -0.7435  1.2104
34403SOL    HW2 6802  10.965   7.966   7.235 -0.9710  1.7899 -0.0312
34404SOL     OW 6803   8.054   1.199   5.985  0.1874 -0.2052  0.5373
34404SOL    HW1 6804   7.968   1.179   6.022 -0.0491 -1.3400 -0.5833
34404SOL    HW2 6805   8.055   1.155   5.900  1.3859  0.8748 -0.0489
34405SOL     OW 6806   1.953   1.739   9.048 -0.7880 -0.7554 -0.1067
34405SOL    HW1 6807   1.883   1.679   9.075 -0.7536 -0.0003  1.7787
34405SOL    HW2 6808   2.019   1.732   9.117 -0.3640  0.7693 -0.3242
34406SOL     OW 6809   8.860   2.643   2.520  0.4581  0.6509  0.1862
34406SOL    HW1 6810   8.843   2.549   2.515 -0.4947  0.6956  1.8789
34406SOL    HW2 6811   8.921   2.652   2.594 -0.1336  1.4201  0.5907
34407SOL     OW 6812   1.858  10.582   5.539  0.6114 -0.4407 -0.4650
34407SOL    HW1 6813   1.882  10.595   5.448  0.5508  2.3427 -0.1699
34407SOL    HW2 6814   1.763  10.595   5.541  0.5268 -1.0327 -0.0574
34408SOL     OW 6815   0.921  10.931   3.021  0.1275  0.2782  0.7009
34408SOL    HW1 6816   0.965  10.931   3.107 -1.0508 -0.0982  1.3292
34408SOL    HW2 6817   0.828  10.928   3.043 -0.1867  0.2110 -0.6111
34409SOL     OW 6818   4.773   4.607   1.565 -0.2678 -0.0815 -1.0855
34409SOL    HW1 6819   4.775   4.529   1.621  0.4500  0.8376  0.2443
34409SOL    HW2 6820   4.796   4.576   1.478  0.0587 -1.3415 -0.5611
34410SOL     OW 6821   7.609   2.800   9.731  0.0236 -0.0092  0.1251
34410SOL    HW1 6822   7.667   2.874   9.750 -0.4449  0.5766 -0.6451
34410SOL    HW2 6823   7.530   2.841   9.694 -0.2133 -0.8931 -0.3660
34411SOL     OW 6824  10.243  11.048   6.652 -0.0726  0.1234 -0.3354
34411SOL    HW1 6825  10.218  11.073   6.740  1.1707  0.1203  0.0392
34411SOL    HW2 6826  10.163  11.011   6.613 -1.0131  1.4740  0.2676
34412SOL     OW 6827   8.481   8.758   4.792  0.3273  0.4518 -0.7321
34412SOL    HW1 6828   8.436   8.759   4.707  1.9784 -0.8449 -1.6744
34412SOL    HW2 6829   8.444   8.683   4.838  0.0726  0.6241 -0.6494
34413SOL     OW 6830   7.974   5.513   2.871  0.1143  0.3872  0.5256
34413SOL    HW1 6831   8.022   5.559   2.803  2.0461  0.2992  1.7579
34413SOL    HW2 6832   7.890   5.490   2.831  0.6121  1.6324 -1.3065
34414SOL     OW 6833   6.650   2.295  10.486 -0.1202 -0.5990  0.2194
34414SOL    HW1 6834   6.705   2.261  10.415  0.8531 -0.2700  0.7851
34414SOL    HW2 6835   6.678   2.387  10.495 -0.7556 -0.4311  0.5333
34415SOL     OW 6836   7.258   7.418   7.038 -0.1649  0.0116  0.2080
34415SOL    HW1 6837   7.311   7.490   7.004  1.3433 -0.3921  1.5740
34415SOL    HW2 6838   7.308   7.386   7.113 -1.5467 -1.4992  0.5166
34416SOL     OW 6839   8.314   2.792   7.488 -0.2045 -0.1496  0.4783
34416SOL    HW1 6840   8.252   2.795   7.560 -1.0352  0.4096 -0.2289
34416SOL    HW2 6841   8.315   2.882   7.453  0.0397 -0.4432 -0.3130
34417SOL     OW 6842   2.030  10.485   9.354  0.4784  0.2970  0.0720
34417SOL    HW1 6843   1.970  10.500   9.426  0.1536 -0.6147  0.0056
34417SOL    HW2 6844   1.987  10.419   9.300  0.1704  1.7747 -1.6029
34418SOL     OW 6845   9.923   0.561   5.180  0.1641 -0.2057 -0.2527
34418SOL    HW1 6846   9.968   0.629   5.130  1.1963 -0.9243 -0.3097
34418SOL    HW2 6847   9.901   0.604   5.263  0.6460  0.2460 -0.3527
34419SOL     OW 6848   2.286  10.404   5.188  0.1162  0.3664 -0.2349
34419SOL    HW1 6849   2.307  10.431   5.278  0.0019  0.9233 -0.3718
34419SOL    HW2 6850   2.239  10.478   5.151 -0.0038  0.0643 -0.6975
34420SOL     OW 6851   2.669   0.571   9.135  0.3429  0.5319  0.1791
34420SOL    HW1 6852   2.668   0.658   9.095 -1.8414  0.8480  0.7935
34420SOL    HW2 6853   2.581   0.560   9.172  1.1392 -1.1991  1.7354
34421SOL     OW 6854  10.796   7.906   7.642 -0.0988 -0.0354  0.1653
34421SOL    HW1 6855  10.876   7.957   7.632 -0.3220 -0.0396 -1.9600
34421SOL    HW2 6856  10.814   7.824   7.595 -1.4910  0.1398 -0.7009
34422SOL     OW 6857   0.187   4.671   2.796 -0.0043 -0.3962  0.5159
34422SOL    HW1 6858   0.181   4.595   2.855 -2.6392 -0.1276  0.7180
34422SOL    HW2 6859   0.160   4.745   2.851 -1.3194  0.0456 -0.6815
34423SOL     OW 6860  10.308   4.712   2.247 -0.2597  0.4331  0.0970
34423SOL    HW1 6861  10.334   4.623   2.223  0.7014  0.3427  1.3778
34423SOL    HW2 6862  10.280   4.705   2.338  1.1993  1.6741  0.6833
34424SOL     OW 6863   8.087   1.307  10.731 -0.7502  0.1878 -0.7160
34424SOL    HW1 6864   8.062   1.221  10.695 -4.8395 -0.6559  3.1660
34424SOL    HW2 6865   8.146   1.286  10.803 -1.8612  0.5008  0.3267
34425SOL     OW 6866   5.962   5.565   2.107  0.3580  0.7809 -0.8337
34425SOL    HW1 6867   6.008   5.483   2.124  2.2730  1.8828 -0.4421
34425SOL    HW2 6868   6.029   5.633   2.115 -1.3275  2.4823 -0.3157
34426SOL     OW 6869   9.700   2.189   4.240  0.1299  0.1552 -0.3842
34426SOL    HW1 6870   9.768   2.168   4.176 -0.7324  0.0913 -1.2975
34426SOL    HW2 6871   9.749   2.212   4.320  1.2100 -0.1074 -0.9501
34427SOL     OW 6872   1.833   8.653  10.070  0.3540 -0.4128 -0.0851
34427SOL    HW1 6873   1.755   8.640  10.125 -0.2564 -0.1954 -0.8844
34427SOL    HW2 6874   1.904   8.612  10.120  0.0638  0.8547  1.4718
34428SOL     OW 6875   7.826   2.406   4.676  0.5751  0.2617  0.5961
34428SOL    HW1 6876   7.818   2.470   4.746  0.9289  0.5207  0.3972
34428SOL    HW2 6877   7.736   2.389   4.649  0.4880  0.7715  0.5604
34429SOL     OW 6878   0.153   3.586   6.092 -0.6280  0.1687 -0.1826
34429SOL    HW1 6879   0.143   3.509   6.149  2.7883  0.0225  0.4032
34429SOL    HW2 6880   0.175   3.657   6.152 -0.3335  0.8151 -1.0504
34430SOL     OW 6881   3.698   6.571   6.182  0.1373  0.3144  0.3676
34430SOL    HW1 6882   3.685   6.488   6.228 -0.4061  0.8694  1.2539
34430SOL    HW2 6883   3.692   6.637   6.251  1.2252  1.0562 -0.2135
34431SOL     OW 6884   6.563   2.290   3.317  0.0148 -0.7056 -0.5401
34431SOL    HW1 6885   6.610   2.369   3.344 -0.8304  0.3335 -1.9403
34431SOL    HW2 6886   6.521   2.257   3.396 -1.0307  1.2580 -0.2293
34432SOL     OW 6887   3.345   3.231   9.784 -0.2149  0.0108  1.0000
34432SOL    HW1 6888   3.263   3.184   9.770  1.0017 -1.4888 -1.6842
34432SOL    HW2 6889   3.354   3.287   9.707  1.5337 -0.2804  0.9591
34433SOL     OW 6890   6.508   3.564   2.614  0.1482 -0.3423  0.5236
34433SOL    HW1 6891   6.433   3.612   2.650  0.7797  0.9908  0.1340
34433SOL    HW2 6892   6.555   3.533   2.691 -0.2568 -0.3146  0.7870
34434SOL     OW 6893   9.565   0.960   8.517  0.1113  0.3749 -0.1606
34434SOL    HW1 6894   9.642   0.958   8.574 -0.8813  0.8254  1.2554
34434SOL    HW2 6895   9.597   0.931   8.432  1.5155 -1.0554  0.7977
34435SOL     OW 6896   0.631  10.954   3.073  0.3382 -0.9753  0.1878
34435SOL    HW1 6897   0.609  10.864   3.097  0.8971 -1.1766 -0.0096
34435SOL    HW2 6898   0.584  11.009   3.135 -0.7229 -1.3726 -0.2440
34436SOL     OW 6899   2.066   8.219   9.450 -0.1021 -0.0338  0.0300
34436SOL    HW1 6900   2.107   8.208   9.536  0.3103  1.7454  0.0964
34436SOL    HW2 6901   1.978   8.252   9.469  0.2824  1.1877 -0.2153
34437SOL     OW 6902   0.729   6.471   4.260 -0.1384 -0.3440  0.4889
34437SOL    HW1 6903   0.722   6.538   4.328  1.4320 -0.9859  1.3433
34437SOL    HW2 6904   0.667   6.498   4.192 -2.4154 -0.1473  2.5261
34438SOL     OW 6905   8.414   8.799   6.908 -0.0499 -0.1228 -0.2579
34438SOL    HW1 6906   8.450   8.739   6.974 -1.6650  1.3399  2.0845
34438SOL    HW2 6907   8.488   8.855   6.885  0.2720  0.1806  1.3577
34439SOL     OW 6908   5.671   3.727   3.143  1.0763 -0.0214 -0.6283
34439SOL    HW1 6909   5.611   3.779   3.196 -0.5132 -2.4873  0.1707
34439SOL    HW2 6910   5.737   3.789   3.113 -0.9701  2.5163 -0.2212
34440SOL     OW 6911   5.498   3.442   0.619 -0.0215 -0.1316 -0.0335
34440SOL    HW1 6912   5.545   3.397   0.549  0.6398 -0.4163  0.5810
34440SOL    HW2 6913   5.479   3.373   0.684 -0.6925  0.1103  0.0381
34441SOL     OW 6914  10.095   2.971   9.557  0.0308  0.1487 -0.0122
34441SOL    HW1 6915  10.017   3.020   9.581  0.2568  0.3818  0.2460
34441SOL    HW2 6916  10.062   2.894   9.510 -0.3967 -0.1422  0.7523
34442SOL     OW 6917   8.121   0.867   7.147 -0.0628  0.3033  0.7054
34442SOL    HW1 6918   8.090   0.846   7.235 -1.0998 -0.9897  0.0633
34442SOL    HW2 6919   8.042   0.884   7.097  0.3235 -1.4909 -0.5850
34443SOL     OW 6920   0.745   7.985   6.179  0.7590 -0.3844  0.1029
34443SOL    HW1 6921   0.727   8.074   6.149 -0.9071 -0.9084 -0.5369
34443SOL    HW2 6922   0.841   7.977   6.175  0.8914  1.2091 -0.2825
34444SOL     OW 6923   0.498  10.490   6.522  0.5899 -0.5789 -0.6437
34444SOL    HW1 6924   0.468  10.530   6.604  1.4808 -0.4449 -0.3786
34444SOL    HW2 6925   0.529  10.403   6.547 -1.1974 -1.4447 -1.1947
34445SOL     OW 6926   3.167   1.916   1.018  0.5152 -0.1847  0.4474
34445SOL    HW1 6927   3.135   1.998   0.979 -0.8437 -0.5228  0.7830
34445SOL    HW2 6928   3.195   1.941   1.106  0.1349 -0.0701  0.5374
34446SOL     OW 6929   1.224   4.457   2.827  0.0980  0.0221  0.8580
34446SOL    HW1 6930   1.207   4.425   2.738  1.0695 -1.2653  1.1081
34446SOL    HW2 6931   1.263   4.543   2.815 -0.7286  0.2968  0.0784
34447SOL     OW 6932   7.263   4.198  10.968 -0.2109  0.3519  0.2931
34447SOL    HW1 6933   7.234   4.285  10.996 -0.5357  0.1658  0.5283
34447SOL    HW2 6934   7.246   4.197  10.874  0.7956  0.9422  0.0895
34448SOL     OW 6935   2.026   2.124   0.698  0.4775  0.2418 -0.7949
34448SOL    HW1 6936   2.078   2.044   0.699 -0.2355 -0.3379  2.5300
34448SOL    HW2 6937   2.071   2.183   0.758 -0.8150  1.0338 -0.5695
34449SOL     OW 6938   6.063   7.608   0.080  0.3144 -0.0532  0.0620
34449SOL    HW1 6939   6.058   7.536   0.143 -1.7539 -0.0665 -0.0406
34449SOL    HW2 6940   6.096   7.568  -0.000 -0.8312 -0.9107  0.0032
34450SOL     OW 6941   6.380   5.072   8.672  0.2743  0.4710  0.1392
34450SOL    HW1 6942   6.463   5.088   8.625  0.8640 -2.2198  0.1128
34450SOL    HW2 6943   6.403   5.081   8.764  0.1922  1.2531  0.0936
34451SOL     OW 6944   9.399   5.088   2.669  0.2845  0.6190  0.4050
34451SOL    HW1 6945   9.429   5.153   2.605 -0.2404  0.9042  0.4448
34451SOL    HW2 6946   9.305   5.083   2.655  0.5231 -1.4945 -0.8668
34452SOL     OW 6947   3.139   0.123   6.628 -0.4426  0.3390 -0.2243
34452SOL    HW1 6948   3.197   0.193   6.598  0.1817 -0.2014 -0.3217
34452SOL    HW2 6949   3.103   0.155   6.710 -1.2325  1.3357 -0.9324
34453SOL     OW 6950   7.330   3.968   0.535 -0.9320  0.1484 -0.9054
34453SOL    HW1 6951   7.270   3.927   0.597 -0.0723 -1.4987 -1.0861
34453SOL    HW2 6952   7.282   3.968   0.452 -1.0449 -0.2911 -0.8461
34454SOL     OW 6953   4.183   1.108   7.869 -0.5029  0.3293 -0.0381
34454SOL    HW1 6954   4.201   1.173   7.801 -0.7099  0.1385 -0.2780
34454SOL    HW2 6955   4.263   1.106   7.922  0.6246 -1.2472 -1.6910
34455SOL     OW 6956   3.978   5.395   0.574  0.2406  0.4717 -0.3919
34455SOL    HW1 6957   3.947   5.484   0.590 -0.3058  0.2887 -0.4089
34455SOL    HW2 6958   3.917   5.339   0.622 -0.2687  0.0259 -1.5130
34456SOL     OW 6959   9.671  10.061   9.735  0.3251 -0.5228  0.4175
34456SOL    HW1 6960   9.737  10.022   9.677 -0.5892 -1.5944  0.0526
34456SOL    HW2 6961   9.618   9.987   9.763 -1.4406  0.4375 -0.2278
34457SOL     OW 6962   6.822   7.151  11.112  0.5082 -0.7034 -0.0009
34457SOL    HW1 6963   6.818   7.238  11.073  0.7113  0.5614  2.6292
34457SOL    HW2 6964   6.805   7.092  11.039  0.0202  1.5229 -1.8056
34458SOL     OW 6965   6.434   2.110   2.451 -0.6512  0.0321  0.2551
34458SOL    HW1 6966   6.371   2.090   2.520  0.7633 -0.8504  1.3352
34458SOL    HW2 6967   6.497   2.169   2.492  1.0718 -1.7106  0.2536
34459SOL     OW 6968   4.302   2.237   4.213  0.5544  0.0682  0.6252
34459SOL    HW1 6969   4.346   2.277   4.287 -0.8979  2.2682  0.3799
34459SOL    HW2 6970   4.287   2.309   4.152  0.2218 -1.3706 -1.0871
34460SOL     OW 6971   4.576   4.373   3.087 -0.0886  0.0763  0.6273
34460SOL    HW1 6972   4.576   4.294   3.140  0.2337 -0.4795 -0.1882
34460SOL    HW2 6973   4.662   4.412   3.101  0.4956 -0.7552 -0.4593
34461SOL     OW 6974   4.267   9.943   5.057 -0.2983 -0.0421  0.5625
34461SOL    HW1 6975   4.281  10.027   5.101  0.3081 -0.3633  0.9978
34461SOL    HW2 6976   4.346   9.892   5.077 -0.1178 -0.2842 -0.7125
34462SOL     OW 6977   8.203   6.220   8.036 -0.0823  0.0529 -0.2959
34462SOL    HW1 6978   8.161   6.147   7.991 -1.1333  0.4587  0.0019
34462SOL    HW2 6979   8.169   6.217   8.125 -0.6302  1.2751 -0.4449
34463SOL     OW 6980   9.190   5.601   4.865 -0.4528  0.4039  0.0791
34463SOL    HW1 6981   9.251   5.637   4.799 -0.0426 -0.1503  0.1456
34463SOL    HW2 6982   9.203   5.657   4.941  0.7497 -0.3194  0.4418
34464SOL     OW 6983   7.030   4.033   7.544 -0.1162 -0.2158 -0.1460
34464SOL    HW1 6984   7.030   3.988   7.628  0.2116 -0.3647 -0.2245
34464SOL    HW2 6985   6.967   3.984   7.490  0.1796 -0.5267 -0.2053
34465SOL     OW 6986  10.597   8.709   0.523  0.5446 -0.2593  0.6473
34465SOL    HW1 6987  10.542   8.635   0.495 -0.2639  0.6817 -0.3592
34465SOL    HW2 6988  10.553   8.744   0.600 -1.7160  1.9028 -1.4276
34466SOL     OW 6989   5.193   0.482   1.472  0.4139 -0.7390 -0.3418
34466SOL    HW1 6990   5.265   0.461   1.413  1.0533  0.6895 -0.1187
34466SOL    HW2 6991   5.115   0.484   1.417  0.8299 -0.5091 -0.9215
34467SOL     OW 6992   3.074   2.996   3.166 -0.5615 -0.5526 -0.6127
34467SOL    HW1 6993   3.123   3.061   3.216 -2.5245  0.1630  0.4956
34467SOL    HW2 6994   3.083   3.024   3.075 -2.6212  2.3121 -0.0782
34468SOL     OW 6995   8.093  10.518   7.252 -0.0084  0.1720 -0.0712
34468SOL    HW1 6996   8.035  10.589   7.280 -0.9076 -1.1321  1.5385
34468SOL    HW2 6997   8.163  10.518   7.317 -0.9182 -1.4498  0.9712
34469SOL     OW 6998  10.558   5.882   2.275 -0.2716 -0.3103  0.0878
34469SOL    HW1 6999  10.600   5.908   2.193 -0.3260 -1.5072 -0.3293
34469SOL    HW2 7000  10.599   5.938   2.341  1.9971 -1.4050 -0.3023
34470SOL     OW 7001   0.068   4.466   6.237  0.0996  0.5111 -0.6394
34470SOL    HW1 7002  -0.003   4.527   6.256  0.6501  0.9789 -0.0533
34470SOL    HW2 7003   0.073   4.465   6.142 -0.7879  0.3558 -0.6969
34471SOL     OW 7004   1.423  10.554   1.986 -0.1767  0.0612 -0.3663
34471SOL    HW1 7005   1.393  10.586   1.901  0.6664 -0.0999 -0.7296
34471SOL    HW2 7006   1.409  10.459   1.982 -1.3164  0.1853  0.1649
34472SOL     OW 7007   1.832   6.056   3.132 -0.3125 -0.0410  0.4714
34472SOL    HW1 7008   1.898   6.107   3.179 -0.2620  0.8658 -0.5475
34472SOL    HW2 7009   1.765   6.037   3.198  0.1096  0.5524  1.0880
34473SOL     OW 7010   5.381   9.868  10.869  0.2123 -0.1514  0.5729
34473SOL    HW1 7011   5.376   9.776  10.893 -1.6355  0.6419  3.9201
34473SOL    HW2 7012   5.436   9.908  10.937 -0.8825  1.5184  0.5527
34474SOL     OW 7013   7.356   1.212   4.462 -0.5154  0.1568 -0.0859
34474SOL    HW1 7014   7.408   1.256   4.395 -1.6087  2.7033  0.6146
34474SOL    HW2 7015   7.407   1.222   4.542  0.5509 -2.4425 -0.3450
34475SOL     OW 7016   0.142   5.837   5.968 -0.5287  0.5156 -0.0705
34475SOL    HW1 7017   0.169   5.915   5.919 -0.9177  0.5292 -0.2690
34475SOL    HW2 7018   0.127   5.869   6.057 -0.1055  0.5479 -0.0059
34476SOL     OW 7019   5.043   6.282   8.066  0.1075 -0.2189  0.6672
34476SOL    HW1 7020   5.122   6.233   8.043 -0.4774 -0.5254 -0.8278
34476SOL    HW2 7021   5.059   6.313   8.154  1.6333 -0.8150  0.6352
34477SOL     OW 7022   6.131  10.320  10.880  0.9998 -0.4888  0.3688
34477SOL    HW1 7023   6.067  10.281  10.939  0.0852  0.4754  0.0435
34477SOL    HW2 7024   6.177  10.385  10.933  2.4347 -1.8587  0.8760
34478SOL     OW 7025   2.691   6.600   2.313 -0.0167  0.0508 -0.5096
34478SOL    HW1 7026   2.619   6.538   2.299  0.1250  0.0175 -1.1508
34478SOL    HW2 7027   2.766   6.545   2.335 -0.4515  0.1604  1.3398
34479SOL     OW 7028   7.349   5.565   0.716 -0.3077 -0.0508 -0.8344
34479SOL    HW1 7029   7.343   5.533   0.806 -0.4920  3.0649  0.4046
34479SOL    HW2 7030   7.269   5.536   0.674 -1.2581  0.2498  0.7033
34480SOL     OW 7031   0.950   6.197   8.908  0.3310  0.5906  0.8517
34480SOL    HW1 7032   0.933   6.184   8.815 -0.0046 -0.1779  1.0109
34480SOL    HW2 7033   1.044   6.180   8.918 -0.0568 -1.8656  1.0348
34481SOL     OW 7034   1.271   3.845   3.162 -0.3934 -0.0298 -0.5317
34481SOL    HW1 7035   1.228   3.903   3.099  0.5737  1.5729  0.2237
34481SOL    HW2 7036   1.343   3.898   3.198 -0.2639 -1.2657  1.1278
34482SOL     OW 7037   9.804   6.753   6.309 -0.3916 -0.2341  0.7045
34482SOL    HW1 7038   9.847   6.680   6.353 -1.2572 -0.4455  1.2249
34482SOL    HW2 7039   9.872   6.821   6.303 -0.0425 -0.4734  1.6932
34483SOL     OW 7040   4.225   3.802   0.721  0.0245  0.7071  0.1944
34483SOL    HW1 7041   4.287   3.797   0.794  2.0602  1.4007 -1.3860
34483SOL    HW2 7042   4.208   3.895   0.711  1.1215  0.7794 -1.2423
34484SOL     OW 7043   4.366   5.196   2.635 -0.1276 -0.0470  0.0624
34484SOL    HW1 7044   4.458   5.178   2.653 -0.1144  0.3891  0.4474
34484SOL    HW2 7045   4.365   5.234   2.547  0.0105 -0.4222 -0.1065
34485SOL     OW 7046   5.120   9.600  10.366  0.1578 -0.0101 -0.1006
34485SOL    HW1 7047   5.145   9.510  10.347  0.9055 -0.6279  3.1984
34485SOL    HW2 7048   5.198   9.652  10.344 -0.4807  0.0158 -2.5906
34486SOL     OW 7049  10.501   7.134   0.961 -0.1365 -0.2888  0.3081
34486SOL    HW1 7050  10.557   7.105   0.890 -0.3478  0.5222 -0.2123
34486SOL    HW2 7051  10.438   7.063   0.974 -1.5485  0.4647 -1.9023
34487SOL     OW 7052   6.468   6.079   8.442  0.2236 -0.4233  0.5048
34487SOL    HW1 7053   6.489   6.041   8.357  0.8467  1.5917 -0.3005
34487SOL    HW2 7054   6.471   6.005   8.503 -2.2612 -2.3039 -1.4611
34488SOL     OW 7055   9.311   7.805   0.339 -0.3170 -0.6375 -0.3651
34488SOL    HW1 7056   9.335   7.713   0.354 -0.3052 -0.5859 -0.0786
34488SOL    HW2 7057   9.226   7.814   0.381 -1.2123 -1.0188 -1.9877
34489SOL     OW 7058  10.865   6.188   7.088 -0.3310 -0.2438 -0.3921
34489SOL    HW1 7059  10.827   6.110   7.128  0.1841 -0.7259 -0.8136
34489SOL    HW2 7060  10.959   6.169   7.084 -0.2355  0.2815 -0.7601
34490SOL     OW 7061   4.134   1.789  11.098 -0.4638 -0.9498 -0.1565
34490SOL    HW1 7062   4.141   1.840  11.018  0.2845  0.0694  0.5417
34490SOL    HW2 7063   4.224   1.780  11.130 -0.9193  3.2651  3.3311
34491SOL     OW 7064   7.114   9.580   1.186 -0.4465 -0.3554  0.1040
34491SOL    HW1 7065   7.043   9.530   1.225 -0.6644  2.0825  3.2271
34491SOL    HW2 7066   7.072   9.633   1.118 -0.9316 -1.4566 -0.4688
34492SOL     OW 7067   5.176   8.978   0.139  0.1740  0.2493  0.0935
34492SOL    HW1 7068   5.186   9.064   0.099  1.2849 -0.2977 -0.8599
34492SOL    HW2 7069   5.149   8.921   0.066 -3.7027  0.3016  1.2372
34493SOL     OW 7070   4.443   0.150   8.127  0.3614  0.5127  0.2097
34493SOL    HW1 7071   4.387   0.094   8.181 -1.8927  1.9469 -0.4783
34493SOL    HW2 7072   4.457   0.100   8.047  0.3973 -0.0236  0.5499
34494SOL     OW 7073  10.268   9.901   2.975 -0.1247  0.7883  0.6663
34494SOL    HW1 7074  10.271   9.932   2.884 -1.5478  0.0700  0.3556
34494SOL    HW2 7075  10.266   9.806   2.968 -0.9045  0.7400  1.4201
34495SOL     OW 7076   6.306   0.405   8.581  0.2940  0.8821  0.1826
34495SOL    HW1 7077   6.275   0.494   8.597  1.2115  0.9371  1.8348
34495SOL    HW2 7078   6.266   0.352   8.650 -0.3916 -0.0599 -0.8856
34496SOL     OW 7079   4.876   0.095   3.080 -0.2857  0.6165  0.5399
34496SOL    HW1 7080   4.781   0.099   3.077 -0.2470  1.3694 -0.6016
34496SOL    HW2 7081   4.900   0.028   3.016 -0.0367  0.7877  0.4484
34497SOL     OW 7082   6.838   1.174   2.953 -0.4806 -0.0867  0.2689
34497SOL    HW1 7083   6.875   1.262   2.940  1.8778 -1.0179  0.2046
34497SOL    HW2 7084   6.869   1.124   2.877 -2.4329 -0.8285 -0.1025
34498SOL     OW 7085   7.679   0.519   2.867 -0.1314 -0.6428 -0.5135
34498SOL    HW1 7086   7.597   0.470   2.872 -0.2344 -0.4071  0.1647
34498SOL    HW2 7087   7.684   0.548   2.776 -1.4660  0.4966 -0.2544
34499SOL     OW 7088   4.248   6.219   4.424 -0.1943  0.2161 -0.2895
34499SOL    HW1 7089   4.260   6.264   4.340 -0.3408 -0.1438 -0.5064
34499SOL    HW2 7090   4.285   6.131   4.409  2.0234  0.8903  0.7490
34500SOL     OW 7091   7.978   3.429   6.058 -0.3716  0.0311 -0.1489
34500SOL    HW1 7092   8.036   3.403   6.129  1.1582  0.4467 -1.1944
34500SOL    HW2 7093   8.033   3.429   5.980 -2.2243 -1.4622 -1.5843
34501SOL     OW 7094   3.202   5.164   4.445  0.0036  0.4045  0.4089
34501SOL    HW1 7095   3.199   5.242   4.390 -0.1126 -0.1974 -0.4667
34501SOL    HW2 7096   3.209   5.198   4.534  0.0972  1.4070  0.0392
34502SOL     OW 7097   6.307   6.140   9.058  0.3454 -0.4297  0.6604
34502SOL    HW1 7098   6.399   6.164   9.060  0.2472 -0.0603  0.6715
34502SOL    HW2 7099   6.304   6.059   9.006  0.5079  0.2918 -0.5139
34503SOL     OW 7100   8.883   2.289   8.049  0.3757 -0.1982 -0.4200
34503SOL    HW1 7101   8.978   2.283   8.044  0.6128  2.3966 -0.0796
34503SOL    HW2 7102   8.862   2.267   8.140  0.6010 -0.9878 -0.5503
34504SOL     OW 7103  10.194   1.188   1.932  0.0462  0.0290  0.0145
34504SOL    HW1 7104  10.133   1.159   1.864  1.7469  0.4275 -1.7831
34504SOL    HW2 7105  10.270   1.130   1.921  0.7410  0.7470  0.9238
34505SOL     OW 7106   1.926   2.842   0.672  0.0210  0.0026 -0.8536
34505SOL    HW1 7107   1.837   2.871   0.693  0.4186  0.9477 -0.4142
34505SOL    HW2 7108   1.931   2.753   0.706 -1.0871 -0.4504 -1.8240
34506SOL     OW 7109  10.141   7.886   9.924 -0.1599  0.4761  0.1034
34506SOL    HW1 7110  10.199   7.934   9.982 -1.1556  1.7449  0.0993
34506SOL    HW2 7111  10.132   7.943   9.847 -1.7815  0.5710  0.3222
34507SOL     OW 7112   8.332   4.319   1.233  0.0920 -0.0356  0.4869
34507SOL    HW1 7113   8.406   4.275   1.190 -1.4080 -1.5591 -0.6748
34507SOL    HW2 7114   8.321   4.272   1.316  1.3274  1.1790  1.3750
34508SOL     OW 7115   0.051   9.832   5.510 -0.0831  0.2544 -0.1909
34508SOL    HW1 7116   0.117   9.833   5.579  1.1714 -0.3555 -1.3374
34508SOL    HW2 7117   0.033   9.739   5.495  0.4036  0.3311 -1.3488
34509SOL     OW 7118   7.951   0.480   8.766  0.7051 -0.6026 -0.8747
34509SOL    HW1 7119   7.990   0.568   8.771  0.2146 -0.4043 -0.4212
34509SOL    HW2 7120   7.861   0.496   8.738 -0.0240 -0.7595  1.2062
34510SOL     OW 7121   0.434   4.564   5.500  0.3606  0.1527 -0.1629
34510SOL    HW1 7122   0.506   4.543   5.559  1.1567 -0.5628 -1.3304
34510SOL    HW2 7123   0.455   4.651   5.466  0.1876  0.3303  0.1785
34511SOL     OW 7124   2.884   6.202   2.577  0.4342  0.2011 -0.3353
34511SOL    HW1 7125   2.963   6.152   2.555 -0.0298  0.0699 -1.8241
34511SOL    HW2 7126   2.916   6.278   2.627  1.2214 -1.1235  1.2595
34512SOL     OW 7127   6.061   0.539   5.018  0.0836 -0.0102  0.1227
34512SOL    HW1 7128   6.062   0.501   4.930 -1.2616 -1.1820  0.5737
34512SOL    HW2 7129   6.076   0.632   5.004  3.6047 -0.5836 -1.0262
34513SOL     OW 7130   3.553   2.317   0.210 -0.2267  0.2132  0.1384
34513SOL    HW1 7131   3.544   2.317   0.115 -0.6024 -1.0959  0.1615
34513SOL    HW2 7132   3.525   2.405   0.236 -2.1696 -0.0747 -0.7738
34514SOL     OW 7133  10.297   5.922   0.163  0.1192 -0.1825  0.0640
34514SOL    HW1 7134  10.265   5.894   0.249 -0.5703  1.8097  0.5161
34514SOL    HW2 7135  10.287   6.017   0.164  1.9398  0.0787 -1.5059
34515SOL     OW 7136   6.725   9.269   7.455 -0.4446 -0.5885 -0.3246
34515SOL    HW1 7137   6.726   9.345   7.514  0.3953 -2.3781  2.1521
34515SOL    HW2 7138   6.741   9.306   7.368  1.7470  1.9220  0.9844
34516SOL     OW 7139   5.917   6.060   2.685  0.4499  0.2958  0.0080
34516SOL    HW1 7140   5.846   6.119   2.660  0.7840  0.8720  0.3986
34516SOL    HW2 7141   5.903   6.044   2.778 -1.3382 -2.5922 -0.6339
34517SOL     OW 7142   7.064   7.686   5.395 -0.0697  0.0286 -0.3667
34517SOL    HW1 7143   7.072   7.728   5.309  0.1322 -0.3954 -0.5576
34517SOL    HW2 7144   6.977   7.709   5.425 -0.4638 -0.5217 -1.0605
34518SOL     OW 7145   5.057   6.618   5.043 -0.0980  0.5902  0.0844
34518SOL    HW1 7146   5.030   6.595   4.954 -0.0218  0.6206  0.0529
34518SOL    HW2 7147   4.976   6.618   5.094 -0.2905  1.5378 -0.1931
34519SOL     OW 7148   7.826   9.094  10.702 -0.4456  0.2568 -0.2540
34519SOL    HW1 7149   7.852   9.186  10.697  0.0846  0.1389  0.3095
34519SOL    HW2 7150   7.859   9.056  10.620 -1.0426  0.6470 -0.6933
34520SOL     OW 7151   6.187  10.147   1.266 -0.6310 -0.6790  0.0089
34520SOL    HW1 7152   6.114  10.140   1.205 -0.7157 -0.0959  0.0393
34520SOL    HW2 7153   6.253  10.087   1.232  0.5603  1.8358 -2.3974
34521SOL     OW 7154   4.673   9.196   2.607 -0.1245  0.3319 -0.2906
34521SOL    HW1 7155   4.692   9.216   2.699 -1.1753 -0.2613  0.0798
34521SOL    HW2 7156   4.608   9.126   2.611  0.7692 -0.6065 -1.5077
34522SOL     OW 7157   4.449   6.561   4.580  0.8034 -0.2607  0.7884
34522SOL    HW1 7158   4.453   6.608   4.663 -1.9031  0.9701  0.3279
34522SOL    HW2 7159   4.434   6.470   4.604 -0.7250  0.1994  1.6773
34523SOL     OW 7160   1.510   3.255  10.475 -0.0968 -0.1521  0.0600
34523SOL    HW1 7161   1.429   3.218  10.507 -0.5269 -0.3168 -1.1634
34523SOL    HW2 7162   1.567   3.179  10.459 -0.5441 -0.2192 -1.2888
34524SOL     OW 7163  10.040   9.054   6.509  0.8298 -0.0224 -0.1806
34524SOL    HW1 7164  10.022   9.141   6.544 -1.1886 -0.7686  0.8424
34524SOL    HW2 7165  10.132   9.056   6.485  1.1961  1.9376  1.1410
34525SOL     OW 7166   6.239   9.995   4.703 -0.1377  0.4887  0.0160
34525SOL    HW1 7167   6.221  10.086   4.681 -2.7131  0.1462  0.2901
34525SOL    HW2 7168   6.325   9.996   4.744 -0.6842  3.0322  1.3118
34526SOL     OW 7169   5.843   6.415   7.299  0.1092  0.3088 -0.1814
34526SOL    HW1 7170   5.921   6.400   7.246  0.3506  0.5818  0.0925
34526SOL    HW2 7171   5.865   6.378   7.385 -0.9253 -1.7475 -0.7370
34527SOL     OW 7172   5.000   9.667   0.354  0.3567 -0.3814  0.4733
34527SOL    HW1 7173   4.955   9.744   0.320 -0.5719 -1.7375 -1.5804
34527SOL    HW2 7174   4.930   9.603   0.367  1.2857 -1.4032  0.5757
34528SOL     OW 7175   4.216   4.432  10.597  0.5883  0.0175 -0.1887
34528SOL    HW1 7176   4.253   4.347  10.620 -1.7829 -0.5347  2.1926
34528SOL    HW2 7177   4.205   4.477  10.681 -0.4280  1.6692 -1.1441
34529SOL     OW 7178   3.189   5.508   7.899 -0.1877  0.4914 -0.2034
34529SOL    HW1 7179   3.093   5.516   7.901 -0.3969 -1.5570  1.1860
34529SOL    HW2 7180   3.220   5.577   7.957 -0.9845 -0.1108  0.9791
34530SOL     OW 7181   2.579   1.168   7.179  0.2992 -0.4311  0.4096
34530SOL    HW1 7182   2.610   1.119   7.255 -0.1055 -0.9750  0.2315
34530SOL    HW2 7183   2.500   1.213   7.209  0.0018 -0.8389  0.2537
34531SOL     OW 7184   5.768  10.095   8.907 -0.3405  0.6286  0.0965
34531SOL    HW1 7185   5.705  10.145   8.854 -0.2644  0.1122 -0.4814
34531SOL    HW2 7186   5.808  10.161   8.963  0.9042  1.5456 -1.7504
34532SOL     OW 7187   5.788   2.894   4.278 -0.3031  0.1688  0.1278
34532SOL    HW1 7188   5.780   2.959   4.208 -0.5101 -0.5796 -0.5664
34532SOL    HW2 7189   5.774   2.810   4.234 -3.7293 -0.1799  1.5910
34533SOL     OW 7190   9.683   6.889   9.657 -0.1371 -0.1074 -0.4083
34533SOL    HW1 7191   9.764   6.902   9.608  0.8550  1.1884  1.4152
34533SOL    HW2 7192   9.699   6.811   9.710 -1.5176 -2.0008 -2.6194
34534SOL     OW 7193   5.076   9.287   8.643 -0.1916 -0.1033 -0.3848
34534SOL    HW1 7194   5.023   9.299   8.722  1.5685 -0.8434  0.9655
34534SOL    HW2 7195   5.123   9.369   8.632  1.2668 -0.7579  0.6943
34535SOL     OW 7196   2.290   2.444  10.713 -0.2374  0.2693  0.5635
34535SOL    HW1 7197   2.219   2.380  10.717  0.0221 -0.1764 -1.1172
34535SOL    HW2 7198   2.282   2.483  10.626  0.8056  1.1109  0.8345
34536SOL     OW 7199   3.437   5.453   7.779  0.2194  0.3587  0.2855
34536SOL    HW1 7200   3.351   5.452   7.821  0.2044 -0.0612  0.2465
34536SOL    HW2 7201   3.474   5.367   7.796 -0.6433 -0.6166 -2.3048
34537SOL     OW 7202   9.291   8.712   8.685  0.3910  0.2628  0.4753
34537SOL    HW1 7203   9.296   8.796   8.732  0.0201  0.3769  0.3130
34537SOL    HW2 7204   9.214   8.721   8.629 -1.2918 -1.1990  2.4217
34538SOL     OW 7205   9.364  10.633   0.713 -0.0317 -0.3373 -0.4069
34538SOL    HW1 7206   9.445  10.608   0.667 -0.7735  0.2129 -2.0941
34538SOL    HW2 7207   9.385  10.622   0.805  2.9389  2.4718 -0.5595
34539SOL     OW 7208   9.635   9.438   2.268 -0.1015 -0.0595  0.1703
34539SOL    HW1 7209   9.715   9.462   2.221 -0.8206 -0.2487 -1.2119
34539SOL    HW2 7210   9.584   9.389   2.203 -2.7350  2.7002 -0.0486
34540SOL     OW 7211   6.206   5.204   0.855 -0.3662  0.5207  0.0903
34540SOL    HW1 7212   6.188   5.134   0.793 -1.2172  1.9981 -1.4230
34540SOL    HW2 7213   6.180   5.169   0.940  0.7106 -1.5147 -0.3666
34541SOL     OW 7214   1.816   0.607   0.862  0.7198  0.1223  0.4421
34541SOL    HW1 7215   1.753   0.669   0.899  0.4526  0.1679 -0.0765
34541SOL    HW2 7216   1.795   0.604   0.769  0.5811 -0.9192  0.4897
34542SOL     OW 7217  10.109   9.070   5.151 -0.0927 -0.0625 -0.1223
34542SOL    HW1 7218  10.036   9.131   5.136 -0.2428 -0.4765 -1.2374
34542SOL    HW2 7219  10.136   9.086   5.241 -1.2440  0.4496  0.1545
34543SOL     OW 7220   2.819   5.562   4.963  0.0593 -0.1804 -0.4011
34543SOL    HW1 7221   2.894   5.531   4.912 -0.0546 -0.4728 -0.3980
34543SOL    HW2 7222   2.761   5.486   4.967  0.3497 -0.3657  0.6973
34544SOL     OW 7223   3.818   0.648   8.145 -0.1528  0.1577  0.0119
34544SOL    HW1 7224   3.855   0.624   8.230  1.2242  2.7031  0.2387
34544SOL    HW2 7225   3.726   0.665   8.162  0.1373  0.7744  1.0574
34545SOL     OW 7226   3.383  10.617   8.408 -0.0224  0.0622 -0.9857
34545SOL    HW1 7227   3.454  10.553   8.409  1.1130  1.2578 -1.2614
34545SOL    HW2 7228   3.418  10.690   8.357 -1.9482  0.1670 -2.2880
34546SOL     OW 7229   8.461   9.163   1.376 -0.0050 -0.3584 -0.3489
34546SOL    HW1 7230   8.535   9.176   1.317 -0.5006 -0.7314 -1.0606
34546SOL    HW2 7231   8.431   9.251   1.398 -1.4400 -0.1987 -2.7110
34547SOL     OW 7232   9.086   4.639   2.522 -0.1526  0.6439 -0.1326
34547SOL    HW1 7233   9.035   4.720   2.513  0.1499  0.8512  0.0039
34547SOL    HW2 7234   9.036   4.574   2.472 -0.1454  1.0300 -0.6599
34548SOL     OW 7235   3.391   2.557   8.431 -0.1668 -0.7330 -0.3208
34548SOL    HW1 7236   3.333   2.487   8.401 -1.4310 -0.1981  0.7458
34548SOL    HW2 7237   3.475   2.538   8.390 -1.5315 -0.4645 -3.5165
34549SOL     OW 7238   1.798   0.588   7.258  0.4272 -0.2343  0.1189
34549SOL    HW1 7239   1.846   0.643   7.320  0.1715 -0.2672  0.3532
34549SOL    HW2 7240   1.783   0.644   7.182  0.3395 -0.0402  0.2783
34550SOL     OW 7241   0.638   7.796   1.218  0.3760  0.0844  0.2819
34550SOL    HW1 7242   0.544   7.813   1.218 -0.1388 -2.3826 -0.3341
34550SOL    HW2 7243   0.647   7.709   1.256  2.4757  0.4384  0.7281
34551SOL     OW 7244   5.053   2.401   1.593 -0.4547  0.0657 -0.0426
34551SOL    HW1 7245   5.025   2.349   1.668  1.3010  1.1455  1.4613
34551SOL    HW2 7246   4.972   2.435   1.555 -1.3969 -0.5101  1.3665
34552SOL     OW 7247   9.488   8.455  10.896 -0.3867  0.3709  0.2217
34552SOL    HW1 7248   9.454   8.527  10.842  0.4580  0.3521 -0.3607
34552SOL    HW2 7249   9.442   8.377  10.864 -1.1318  0.6046  0.6955
34553SOL     OW 7250   9.962   3.820   2.549  0.0868  0.1600 -0.6292
34553SOL    HW1 7251   9.929   3.910   2.561  0.8779  0.4609 -0.6812
34553SOL    HW2 7252  10.046   3.819   2.593  0.2140 -0.4839 -0.8747
34554SOL     OW 7253   2.386   4.192   9.117  0.0787 -0.1283 -0.1777
34554SOL    HW1 7254   2.332   4.113   9.120 -2.1410  1.3198  1.0783
34554SOL    HW2 7255   2.417   4.197   9.026 -2.5191 -0.7201 -1.1850
34555SOL     OW 7256   0.602   9.541   7.300 -0.0235  0.1891 -0.3609
34555SOL    HW1 7257   0.608   9.616   7.240 -1.0566  1.4795  1.0902
34555SOL    HW2 7258   0.510   9.516   7.299  0.1627 -0.5427 -0.1882
34556SOL     OW 7259   6.540   3.854   3.182  0.0025  0.2025  0.1222
34556SOL    HW1 7260   6.554   3.762   3.205 -0.2265  0.2845  0.6205
34556SOL    HW2 7261   6.544   3.856   3.087 -2.1185 -0.7024 -0.0366
34557SOL     OW 7262   4.487   4.098   0.642  0.1528 -0.2301 -0.0513
34557SOL    HW1 7263   4.396   4.078   0.666  0.1423 -0.1594 -0.0316
34557SOL    HW2 7264   4.480   4.162   0.571  0.1818 -0.5078 -0.3055
34558SOL     OW 7265   9.636   9.924   9.463 -0.6370  0.1327 -0.5905
34558SOL    HW1 7266   9.701   9.917   9.533  2.9223 -3.6699 -3.7283
34558SOL    HW2 7267   9.570   9.858   9.485  0.3542 -0.9079 -0.6759
34559SOL     OW 7268   2.758   7.683  10.436 -0.0488 -0.0386  0.5625
34559SOL    HW1 7269   2.746   7.752  10.502  2.0078  1.0729 -0.1057
34559SOL    HW2 7270   2.844   7.703  10.397 -0.5651 -1.4789 -1.4648
34560SOL     OW 7271   5.528   1.710   3.562  0.4454  0.0015 -0.3017
34560SOL    HW1 7272   5.461   1.721   3.629 -2.7556 -0.4850 -3.1408
34560SOL    HW2 7273   5.583   1.638   3.594 -2.4606 -1.9026  0.7982
34561SOL     OW 7274   8.209   5.176   4.408  0.1717 -0.2355 -0.5778
34561SOL    HW1 7275   8.127   5.222   4.391 -0.1360 -0.4792  0.2078
34561SOL    HW2 7276   8.187   5.114   4.478  0.5192 -1.7048 -1.7044
34562SOL     OW 7277   9.492   9.816   9.802 -0.3162 -0.6400  0.0898
34562SOL    HW1 7278   9.399   9.817   9.826 -0.5124 -1.7630 -0.5651
34562SOL    HW2 7279   9.529   9.743   9.852 -0.1513 -1.2512 -0.8894
34563SOL     OW 7280   9.069   9.977   0.795  0.2574 -0.5857 -0.0321
34563SOL    HW1 7281   9.159   9.976   0.825  0.2720  0.9855  0.0490
34563SOL    HW2 7282   9.075   9.973   0.699  0.4401  0.1767 -0.0526
34564SOL     OW 7283   5.469   5.313   0.490  0.2181 -0.0848 -0.4073
34564SOL    HW1 7284   5.385   5.279   0.522  1.2749  0.5553  3.6843
34564SOL    HW2 7285   5.445   5.386   0.434 -1.9919 -0.3232  0.1071
34565SOL     OW 7286   4.448   7.628   1.651 -0.4154 -0.0602 -0.7918
34565SOL    HW1 7287   4.503   7.664   1.582  0.5371 -0.5919 -0.3155
34565SOL    HW2 7288   4.440   7.699   1.715  1.4689 -0.6534  0.1510
34566SOL     OW 7289   9.976   0.842   2.110 -0.1529  0.4738  0.3854
34566SOL    HW1 7290   9.910   0.848   2.042 -1.0439 -2.6759  0.8177
34566SOL    HW2 7291  10.059   0.845   2.063 -0.6231  2.0340 -0.4124
34567SOL     OW 7292   5.236   4.786   6.205 -0.6219 -0.0896 -0.6145
34567SOL    HW1 7293   5.198   4.825   6.126 -1.2845 -0.2323 -0.3748
34567SOL    HW2 7294   5.187   4.704   6.216  0.9470 -1.1643 -1.2883
34568SOL     OW 7295   9.874   7.316   6.642 -0.5102 -0.4833 -0.0238
34568SOL    HW1 7296   9.945   7.350   6.587 -0.2225 -2.6222 -1.0661
34568SOL    HW2 7297   9.853   7.388   6.700 -0.6028  1.8236 -2.6908
34569SOL     OW 7298   4.870   1.726   0.200  0.5967  0.2145  0.3852
34569SOL    HW1 7299   4.850   1.766   0.285 -2.3951  0.6525 -0.3925
34569SOL    HW2 7300   4.808   1.652   0.194  1.1567 -0.1718 -1.1641
34570SOL     OW 7301   6.728   2.931   2.118 -0.5363  0.5916 -0.6733
34570SOL    HW1 7302   6.771   3.015   2.107 -1.0881  0.7019 -2.0824
34570SOL    HW2 7303   6.656   2.931   2.055 -1.7964 -0.1281  0.6924
34571SOL     OW 7304   5.668   7.080   2.773  0.5066  0.1549  0.0974
34571SOL    HW1 7305   5.588   7.112   2.814  0.3900 -0.2999  0.2341
34571SOL    HW2 7306   5.739   7.124   2.819  0.3303  0.6421 -0.0961
34572SOL     OW 7307   3.877   1.739  11.061 -0.1129 -0.7417  0.1352
34572SOL    HW1 7308   3.853   1.731  11.153 -0.3832  2.1391  0.3912
34572SOL    HW2 7309   3.972   1.752  11.062 -0.2996  0.8145  0.1819
34573SOL     OW 7310   8.589   2.884   1.983 -0.3186  0.2926 -0.3023
34573SOL    HW1 7311   8.627   2.971   1.971 -3.1339  1.5649 -0.8571
34573SOL    HW2 7312   8.495   2.897   1.971 -1.0073 -2.5882  1.0383
34574SOL     OW 7313   4.964   0.443  11.105  0.1495 -0.3192 -0.0109
34574SOL    HW1 7314   4.952   0.496  11.184  2.1256  1.0320 -0.5435
34574SOL    HW2 7315   5.039   0.482  11.061  0.9689 -2.8733 -1.0602
34575SOL     OW 7316   5.995   3.776   3.485  0.1766 -0.2385  0.5712
34575SOL    HW1 7317   6.072   3.822   3.518  1.2172 -2.0808  0.8571
34575SOL    HW2 7318   5.999   3.786   3.390  1.3252 -1.0626  0.5015
34576SOL     OW 7319  10.452   1.091   6.765 -0.0722 -0.1712 -0.2690
34576SOL    HW1 7320  10.428   1.002   6.794  0.6102 -0.3383 -0.2125
34576SOL    HW2 7321  10.499   1.077   6.683  0.8018  0.0780  0.1883
34577SOL     OW 7322   4.836   8.862   0.150 -0.1694  0.5725  0.0462
34577SOL    HW1 7323   4.805   8.948   0.178 -1.0536 -0.1259  1.3300
34577SOL    HW2 7324   4.913   8.846   0.204 -1.0183 -0.1527  1.0850
34578SOL     OW 7325   2.528   1.558   7.475 -0.3254  0.2191  0.1778
34578SOL    HW1 7326   2.537   1.599   7.561  0.6882  0.8001 -0.1944
34578SOL    HW2 7327   2.452   1.601   7.436 -0.9585 -0.2335  0.8647
34579SOL     OW 7328   2.145   8.350   8.114 -0.0339 -0.4480 -0.0814
34579SOL    HW1 7329   2.120   8.374   8.203  1.2783  1.2353 -0.1025
34579SOL    HW2 7330   2.070   8.375   8.061 -0.9374 -1.7202  0.5537
34580SOL     OW 7331   9.003   8.463   7.298  0.7774 -0.2277 -0.4891
34580SOL    HW1 7332   8.997   8.375   7.262 -0.7608  0.1374 -1.1777
34580SOL    HW2 7333   8.974   8.454   7.389 -1.3485 -0.1285 -1.1161
34581SOL     OW 7334   3.190   3.598   3.117  0.1288 -0.1731  0.4064
34581SOL    HW1 7335   3.164   3.514   3.079  0.7964 -0.5756  0.8176
34581SOL    HW2 7336   3.134   3.608   3.194 -0.5569  0.1885 -0.1179
34582SOL     OW 7337   7.848   1.220   8.547 -0.1488  0.3135 -0.1156
34582SOL    HW1 7338   7.908   1.146   8.544 -2.6989 -1.8729 -0.9973
34582SOL    HW2 7339   7.837   1.246   8.456 -1.3836 -0.1094 -0.1102
34583SOL     OW 7340   9.359   7.575   2.527 -0.3087 -0.6238  0.0908
34583SOL    HW1 7341   9.347   7.666   2.554 -0.6053 -1.0324  1.3685
34583SOL    HW2 7342   9.432   7.578   2.465 -0.0957  0.4277  0.3760
34584SOL     OW 7343   7.744  10.757   5.050  0.2518  0.1124  0.0385
34584SOL    HW1 7344   7.805  10.716   5.111 -1.4065 -0.7337  1.1927
34584SOL    HW2 7345   7.740  10.848   5.077  1.6055  0.3816 -0.5841
34585SOL     OW 7346   0.015   8.033   8.452  0.1243 -0.2170 -0.1753
34585SOL    HW1 7347  -0.012   8.025   8.360  0.1692 -1.4828 -0.0886
34585SOL    HW2 7348   0.049   7.947   8.475  0.8202  0.3064  0.8183
34586SOL     OW 7349   9.594   1.508   3.476 -0.0748 -0.3518  0.4677
34586SOL    HW1 7350   9.588   1.449   3.401  2.4060  1.4830 -1.3959
34586SOL    HW2 7351   9.641   1.459   3.542  0.6885 -0.9520 -0.4936
34587SOL     OW 7352   4.729   5.022   7.685  0.3838  0.0032 -0.5773
34587SOL    HW1 7353   4.681   4.946   7.719 -1.1694  1.1041 -0.2381
34587SOL    HW2 7354   4.757   4.995   7.598  1.0810 -1.4496  0.0499
34588SOL     OW 7355   7.957   9.804   4.892  0.6857 -0.3809  0.4935
34588SOL    HW1 7356   7.896   9.791   4.819 -0.6159 -1.5002  1.7443
34588SOL    HW2 7357   7.930   9.888   4.930 -0.4094 -1.0783  1.3127
34589SOL     OW 7358   7.278   9.296   6.714 -0.7986 -0.1950  0.0540
34589SOL    HW1 7359   7.199   9.333   6.674 -0.2844 -0.6923 -1.4450
34589SOL    HW2 7360   7.267   9.201   6.707  0.2296 -0.2676 -0.7774
34590SOL     OW 7361   4.438   3.464   5.480 -0.0296  0.5339  0.0769
34590SOL    HW1 7362   4.528   3.438   5.459  0.6305  3.0501 -0.4800
34590SOL    HW2 7363   4.435   3.464   5.576  0.2946 -0.3129  0.0981
34591SOL     OW 7364  10.828   5.614   1.633  0.6950 -0.0298 -0.3159
34591SOL    HW1 7365  10.831   5.519   1.623  0.3458 -0.1142  0.3437
34591SOL    HW2 7366  10.805   5.646   1.546  0.6314 -0.5617 -0.4982
34592SOL     OW 7367   2.773   4.589   9.516  0.2456  0.3264 -0.1765
34592SOL    HW1 7368   2.802   4.655   9.578 -0.5640 -0.2776  0.8803
34592SOL    HW2 7369   2.686   4.564   9.546  0.6899 -1.5276 -0.2950
34593SOL     OW 7370   7.131   6.799   2.628 -0.0254  0.8077 -0.4570
34593SOL    HW1 7371   7.216   6.776   2.590 -0.2218 -0.3953 -0.2046
34593SOL    HW2 7372   7.144   6.796   2.723 -0.7405 -1.0516 -0.3823
34594SOL     OW 7373   1.331   0.376   9.735 -0.7046  0.1715  0.4640
34594SOL    HW1 7374   1.400   0.443   9.735 -0.0138 -0.5142  1.2146
34594SOL    HW2 7375   1.375   0.297   9.700 -1.2636 -0.1270  0.4291
34595SOL     OW 7376   9.309   0.197   6.783 -0.3937  0.0813 -0.3264
34595SOL    HW1 7377   9.257   0.138   6.838 -1.2444  0.1310 -1.0564
34595SOL    HW2 7378   9.245   0.240   6.726  0.4606  0.1019 -1.2965
34596SOL     OW 7379   1.468   2.881   8.116  0.1087  0.0353 -0.6525
34596SOL    HW1 7380   1.392   2.898   8.061  0.1065 -0.8274 -0.9330
34596SOL    HW2 7381   1.506   2.800   8.081 -0.2281 -0.8762  0.9562
34597SOL     OW 7382   8.658   3.921   9.406  0.1854  0.8591 -0.1232
34597SOL    HW1 7383   8.641   4.008   9.443  3.5224  1.0454  1.3638
34597SOL    HW2 7384   8.668   3.937   9.312  1.3587  2.2575  0.1983
34598SOL     OW 7385   7.593   3.118   2.264 -0.2256 -0.5500  0.5169
34598SOL    HW1 7386   7.677   3.074   2.254 -1.0608 -2.3444  1.0713
34598SOL    HW2 7387   7.538   3.056   2.312 -1.4506  1.1364  1.4143
34599SOL     OW 7388   4.539   4.060   3.873  0.0099 -0.3616  0.2245
34599SOL    HW1 7389   4.585   3.985   3.836 -1.2031 -0.7154 -0.6127
34599SOL    HW2 7390   4.578   4.136   3.829  1.2883 -0.4665  1.1274
34600SOL     OW 7391   7.047   2.484   8.820  0.0206  0.1555 -0.6869
34600SOL    HW1 7392   6.977   2.436   8.775  0.0636 -0.0508 -0.5374
34600SOL    HW2 7393   7.009   2.506   8.906  0.6791 -1.3870  0.0493
34601SOL     OW 7394   6.406   5.382   6.485 -0.1088 -0.3226  0.5030
34601SOL    HW1 7395   6.442   5.469   6.503 -1.0191  0.2145 -0.1447
34601SOL    HW2 7396   6.457   5.349   6.411 -0.2505 -0.0004  0.2551
34602SOL     OW 7397  10.339   7.162  10.831 -0.5385 -0.1093 -0.2837
34602SOL    HW1 7398  10.318   7.076  10.795  0.6081 -0.4757 -0.1228
34602SOL    HW2 7399  10.268   7.181  10.892 -1.3042 -0.5002 -1.0280
34603SOL     OW 7400   2.496   4.447   7.794  0.1097 -0.0042 -0.1260
34603SOL    HW1 7401   2.505   4.367   7.846  2.5169 -0.8125 -1.6179
34603SOL    HW2 7402   2.402   4.463   7.790 -0.3215 -1.6227  1.8552
34604SOL     OW 7403   6.139   6.633   8.529 -0.1840 -0.4843 -0.0154
34604SOL    HW1 7404   6.142   6.715   8.480 -3.0009  0.8333  1.7722
34604SOL    HW2 7405   6.223   6.591   8.509  1.2138  2.5840 -1.3517
34605SOL     OW 7406   1.910   1.892   5.141  0.0884  0.1920 -0.0082
34605SOL    HW1 7407   1.921   1.811   5.191 -1.2036  0.5143  0.8550
34605SOL    HW2 7408   1.886   1.863   5.053 -3.2231 -0.4525  0.9697
34606SOL     OW 7409   6.157   6.759   1.869  0.0538 -0.1297  0.0692
34606SOL    HW1 7410   6.148   6.801   1.783  2.1167  2.3393  0.9311
34606SOL    HW2 7411   6.072   6.719   1.885 -0.5146 -0.3884 -2.9444
34607SOL     OW 7412   1.089  10.316   2.100  0.5972  0.1144  0.2012
34607SOL    HW1 7413   1.069  10.383   2.036  0.4474 -1.0373 -1.0019
34607SOL    HW2 7414   1.101  10.364   2.182 -0.2828  1.5097 -0.4513
34608SOL     OW 7415   9.965   2.986   3.425  0.5335  0.0653  0.3900
34608SOL    HW1 7416   9.917   3.066   3.404  1.6029  0.8819  0.9866
34608SOL    HW2 7417  10.053   3.015   3.446  2.0464 -1.5720 -2.9145
34609SOL     OW 7418   8.899   5.551   6.123  0.0701  0.2191  0.4244
34609SOL    HW1 7419   8.897   5.487   6.194 -1.1823 -0.0259  0.1973
34609SOL    HW2 7420   8.861   5.630   6.161 -0.4810  0.1267  0.0781
34610SOL     OW 7421   5.606   6.941   4.910  0.3840  0.2951 -1.0990
34610SOL    HW1 7422   5.621   6.914   5.000  1.2743  1.1488 -0.9768
34610SOL    HW2 7423   5.609   7.037   4.912 -1.3397  0.4060 -1.7481
34611SOL     OW 7424   9.146   1.163   8.805 -0.3167  0.2898 -0.4157
34611SOL    HW1 7425   9.171   1.195   8.891  2.0706  0.2861 -1.0213
34611SOL    HW2 7426   9.096   1.083   8.822  0.1694  0.2615  0.9624
34612SOL     OW 7427   3.398   6.874   8.533 -0.2940  0.4895  0.1453
34612SOL    HW1 7428   3.444   6.815   8.473 -1.0166 -2.2384  2.0867
34612SOL    HW2 7429   3.381   6.953   8.481  2.3595 -0.2357 -2.0365
34613SOL     OW 7430   1.954   2.533   7.585  0.2350 -0.7778 -0.6765
34613SOL    HW1 7431   2.011   2.594   7.538  0.3809 -0.3379  0.0579
34613SOL    HW2 7432   1.871   2.581   7.594  1.1249  0.4026  2.1784
34614SOL     OW 7433   0.889   8.808   7.493 -0.0447  1.1941 -0.3166
34614SOL    HW1 7434   0.819   8.822   7.557 -0.5428  1.5044 -0.9225
34614SOL    HW2 7435   0.969   8.801   7.546 -0.7066 -0.7543  0.5317
34615SOL     OW 7436   7.921   4.112   1.282 -0.4577 -0.1140 -0.2398
34615SOL    HW1 7437   7.841   4.165   1.273 -0.7477 -0.7091 -1.3725
34615SOL    HW2 7438   7.974   4.138   1.207  0.6222  0.5800  0.7281
34616SOL     OW 7439   8.377   7.671  10.115  0.4993 -0.2130 -0.0994
34616SOL    HW1 7440   8.439   7.735  10.080  0.1775  0.3778  0.3800
34616SOL    HW2 7441   8.346   7.711  10.197  0.2549 -0.9636  0.1787
34617SOL     OW 7442  10.263   9.964   7.087  0.1778 -0.4528 -0.3434
34617SOL    HW1 7443  10.327  10.033   7.105 -0.6128  0.2328 -0.1561
34617SOL    HW2 7444  10.211   9.958   7.167 -2.2278  1.3899 -1.6720
34618SOL     OW 7445   6.162   2.500   9.124  0.6217  0.1306  0.0555
34618SOL    HW1 7446   6.141   2.534   9.037 -0.0023  0.3585  0.2834
34618SOL    HW2 7447   6.254   2.477   9.120 -0.0073 -2.5430 -1.5519
34619SOL     OW 7448   7.462   7.791   4.096  0.0509  0.0967  0.0258
34619SOL    HW1 7449   7.443   7.702   4.128 -2.1349  0.3441 -0.4375
34619SOL    HW2 7450   7.520   7.828   4.162 -0.7702 -0.9380  1.3779
34620SOL     OW 7451   2.966   6.935  10.230 -0.2373 -0.2241  0.2667
34620SOL    HW1 7452   2.907   6.986  10.284 -1.7934 -1.0475 -0.5844
34620SOL    HW2 7453   2.945   6.960  10.140 -0.1521 -1.3914 -0.1068
34621SOL     OW 7454   6.034   8.603   8.247  0.1373 -0.3886  0.1995
34621SOL    HW1 7455   5.948   8.636   8.218 -0.1626 -2.2814 -1.2771
34621SOL    HW2 7456   6.097   8.654   8.197 -0.1595  0.3307  0.5469
34622SOL     OW 7457  10.440   1.040   5.028 -0.1927  0.5724 -0.4716
34622SOL    HW1 7458  10.462   0.981   4.955  0.5219 -0.0303  0.2130
34622SOL    HW2 7459  10.369   0.996   5.074  0.0512  0.4605 -0.2056
34623SOL     OW 7460   1.878   7.894   6.286  0.2966 -0.9247  0.1127
34623SOL    HW1 7461   1.852   7.817   6.236  4.4013 -1.8313 -1.0004
34623SOL    HW2 7462   1.872   7.866   6.378 -0.2751 -1.8077 -0.1769
34624SOL     OW 7463   7.772   1.393   7.918  0.3302  0.0219  0.1233
34624SOL    HW1 7464   7.804   1.370   7.830  0.5449 -1.7837  0.6214
34624SOL    HW2 7465   7.680   1.416   7.905  0.0057 -1.4752 -0.4383
34625SOL     OW 7466   4.509   0.427   6.201 -0.5940 -0.0988 -0.2715
34625SOL    HW1 7467   4.447   0.500   6.190  0.8221  1.2035  0.0345
34625SOL    HW2 7468   4.480   0.384   6.281 -2.1624 -0.6470 -1.0727
34626SOL     OW 7469   6.006   3.950   8.229  0.9405  0.0305 -0.3448
34626SOL    HW1 7470   6.077   3.956   8.166  0.8840 -1.1359 -0.5423
34626SOL    HW2 7471   5.958   4.033   8.220  1.6841  0.4068 -0.9128
34627SOL     OW 7472   1.087   7.067   0.952  0.0761 -0.0957  0.5363
34627SOL    HW1 7473   1.059   7.148   0.994  0.7501  0.4405 -0.0162
34627SOL    HW2 7474   1.006   7.022   0.930 -0.7269  2.8823 -4.0191
34628SOL     OW 7475   2.830   3.302   0.557  0.3424  0.4422  0.2314
34628SOL    HW1 7476   2.877   3.300   0.640  0.3570 -0.0052  0.2139
34628SOL    HW2 7477   2.859   3.223   0.511  0.0804  0.5118 -0.0580
34629SOL     OW 7478   9.304  10.185   0.880  0.6301 -0.0360 -0.1221
34629SOL    HW1 7479   9.269  10.183   0.969 -0.5936 -2.0354 -0.5575
34629SOL    HW2 7480   9.247  10.246   0.833 -1.6477 -2.2909 -0.5089
34630SOL     OW 7481   6.262   9.638   8.344  0.6741  0.2198 -0.6894
34630SOL    HW1 7482   6.309   9.670   8.421  1.4285  1.1771 -1.5223
34630SOL    HW2 7483   6.331   9.623   8.278 -0.1001  0.9281 -1.6853
34631SOL     OW 7484   0.436   1.891   8.744  0.0444 -0.2285  0.0071
34631SOL    HW1 7485   0.426   1.959   8.811  2.4097 -1.6664  1.9735
34631SOL    HW2 7486   0.493   1.931   8.677  0.7389  0.0175  0.7313
34632SOL     OW 7487   0.039   4.478   5.373  0.1412  0.1428 -0.3908
34632SOL    HW1 7488   0.081   4.559   5.343 -0.1793  0.1528 -0.8101
34632SOL    HW2 7489   0.066   4.470   5.465 -0.7697  1.3512  0.0061
34633SOL     OW 7490   8.445   5.239   1.185 -0.9163 -0.1246 -0.1631
34633SOL    HW1 7491   8.377   5.283   1.235 -0.3870  1.5927 -0.8960
34633SOL    HW2 7492   8.399   5.205   1.108 -1.0972  0.3055 -0.2491
34634SOL     OW 7493   1.921   4.461   1.966 -0.3963  0.3592  0.2568
34634SOL    HW1 7494   1.891   4.552   1.976  0.9724  0.9801 -1.0108
34634SOL    HW2 7495   1.858   4.422   1.905 -0.2953  0.8248 -0.1530
34635SOL     OW 7496   2.777   8.542   0.415 -0.5526 -0.4443 -0.0635
34635SOL    HW1 7497   2.849   8.533   0.477 -0.1524  2.2334 -0.0546
34635SOL    HW2 7498   2.817   8.527   0.329 -0.6002 -1.6958  0.1153
34636SOL     OW 7499  10.568   6.876   8.106  0.1399 -0.2847 -0.3489
34636SOL    HW1 7500  10.487   6.865   8.156  0.2681 -0.6708 -0.2230
34636SOL    HW2 7501  10.637   6.877   8.173  0.1756  0.9911 -0.3640
34637SOL     OW 7502   7.297   8.823   4.071 -0.3928  0.4102  0.0396
34637SOL    HW1 7503   7.369   8.780   4.026 -1.5155 -1.8970  0.2964
34637SOL    HW2 7504   7.292   8.779   4.156 -1.4612  1.2146  0.4189
34638SOL     OW 7505   9.705   9.137   0.588 -0.5061  0.2027  0.4511
34638SOL    HW1 7506   9.687   9.217   0.538  1.2234 -0.0567 -0.6938
34638SOL    HW2 7507   9.800   9.138   0.601 -0.5068 -1.4364  0.8181
34639SOL     OW 7508   3.230  11.006   2.803 -0.3858 -0.0468 -0.1080
34639SOL    HW1 7509   3.221  10.981   2.895 -1.9358  1.8672  0.3128
34639SOL    HW2 7510   3.191  10.934   2.754  0.5153 -1.1155  0.6921
34640SOL     OW 7511   7.280   6.739   6.283  0.3706 -0.4230  0.5091
34640SOL    HW1 7512   7.296   6.821   6.329  0.3782 -0.1361  0.0018
34640SOL    HW2 7513   7.277   6.763   6.191  0.2872 -0.9804  0.3606
34641SOL     OW 7514   9.477   2.790   0.116 -0.2611 -0.1437  0.1647
34641SOL    HW1 7515   9.492   2.701   0.084 -1.2546 -0.6647  1.1116
34641SOL    HW2 7516   9.443   2.837   0.039 -0.9996 -0.9314 -0.0018
34642SOL     OW 7517   6.679   5.770   3.948 -0.1220 -0.7956 -0.5726
34642SOL    HW1 7518   6.604   5.816   3.985 -0.9660 -2.3436 -0.2624
34642SOL    HW2 7519   6.741   5.761   4.020  0.1940  0.1147 -0.7204
34643SOL     OW 7520   7.915  10.632   6.829  0.2240  0.3271  0.3129
34643SOL    HW1 7521   7.949  10.634   6.739  1.5576 -0.4863  0.7641
34643SOL    HW2 7522   7.909  10.724   6.855 -0.0513  0.5651 -0.5553
34644SOL     OW 7523   5.097   0.590   9.424  0.8659  0.1705  0.0029
34644SOL    HW1 7524   5.089   0.596   9.519 -0.1377 -0.3575 -0.0317
34644SOL    HW2 7525   5.050   0.509   9.401  0.9761  0.3616 -0.9499
34645SOL     OW 7526   5.284   9.275   8.166 -0.4023  0.2916 -0.2545
34645SOL    HW1 7527   5.331   9.215   8.109  0.4475 -0.7825  1.4704
34645SOL    HW2 7528   5.192   9.249   8.158 -0.0496 -1.3100  0.4736
34646SOL     OW 7529   1.861   8.850   4.953 -0.3697  0.1787 -0.1396
34646SOL    HW1 7530   1.871   8.760   4.922  1.8730  0.0796  0.6716
34646SOL    HW2 7531   1.809   8.843   5.033 -0.9951 -0.2855 -0.5854
34647SOL     OW 7532   5.185   4.256   0.065 -0.3742 -0.1220 -0.1566
34647SOL    HW1 7533   5.174   4.161   0.073  0.0889 -0.2241 -0.6872
34647SOL    HW2 7534   5.233   4.281   0.143 -0.3818 -0.3436 -0.0797
34648SOL     OW 7535   1.390   3.468   5.434  0.0155  0.1933 -0.0917
34648SOL    HW1 7536   1.325   3.482   5.365 -0.0478 -0.2789 -0.1328
34648SOL    HW2 7537   1.463   3.524   5.409  0.4681 -0.8234 -1.1778
34649SOL     OW 7538   7.297   1.522   0.908 -0.1736  0.3546 -0.5363
34649SOL    HW1 7539   7.314   1.432   0.882  1.7870  0.6019 -0.2145
34649SOL    HW2 7540   7.226   1.515   0.973 -0.1349 -0.9205 -0.6053
34650SOL     OW 7541   4.243   7.846   9.826 -0.2200  0.2655 -0.1077
34650SOL    HW1 7542   4.319   7.803   9.786  0.6442  1.2308  0.4319
34650SOL    HW2 7543   4.189   7.775   9.858  0.3147 -0.4560 -0.7632
34651SOL     OW 7544   0.373   9.684   8.011  0.0774 -0.1338 -0.2915
34651SOL    HW1 7545   0.321   9.605   7.997 -0.3089 -0.1789  1.2348
34651SOL    HW2 7546   0.385   9.688   8.106  0.3045  1.5135 -0.3654
34652SOL     OW 7547   6.591   9.189   2.040  0.0146  0.1760  0.1048
34652SOL    HW1 7548   6.625   9.104   2.011 -1.3134 -0.7423  1.1389
34652SOL    HW2 7549   6.503   9.194   2.003  0.1871  1.2515 -0.1911
34653SOL     OW 7550   9.430   1.954   9.488 -0.1089 -0.0585 -0.0181
34653SOL    HW1 7551   9.396   1.864   9.489  1.2213 -0.5808  0.4902
34653SOL    HW2 7552   9.401   1.991   9.572  1.2746 -0.8030  0.8325
34654SOL     OW 7553   0.368   4.459   3.463  0.3066 -0.1791 -0.4457
34654SOL    HW1 7554   0.360   4.372   3.502  0.5516 -0.2457 -0.5370
34654SOL    HW2 7555   0.456   4.459   3.424  1.5257  1.1097  2.0825
34655SOL     OW 7556   3.089   2.898   1.389 -0.4569 -0.8115 -0.1181
34655SOL    HW1 7557   3.163   2.849   1.424 -0.0513 -0.6061 -0.6766
34655SOL    HW2 7558   3.068   2.853   1.307 -0.2337 -0.1968 -0.5179
34656SOL     OW 7559   2.768   9.076   7.370  0.2842  0.1003  0.4548
34656SOL    HW1 7560   2.750   9.168   7.349  1.5436  0.1428 -0.5479
34656SOL    HW2 7561   2.681   9.036   7.376 -0.2733  0.7414 -2.0747
34657SOL     OW 7562   8.364   9.296  10.655  0.2191  0.1196  0.4246
34657SOL    HW1 7563   8.440   9.349  10.681 -0.0646  0.9218 -0.2992
34657SOL    HW2 7564   8.293   9.326  10.712  0.2939 -0.1899  0.6820
34658SOL     OW 7565   8.603   5.865   5.005 -0.1044  0.2369  0.3910
34658SOL    HW1 7566   8.593   5.898   5.095  1.4505  0.7933  0.3824
34658SOL    HW2 7567   8.553   5.783   5.004  1.3296 -0.7441  2.3155
34659SOL     OW 7568   9.853   0.427   7.325 -0.1414 -0.6375  0.0383
34659SOL    HW1 7569   9.875   0.460   7.412  1.7219 -1.0659 -0.2282
34659SOL    HW2 7570   9.805   0.346   7.341 -1.0273 -0.0077  0.6554
34660SOL     OW 7571  10.895   4.914   9.202  0.3549 -0.3550  0.0767
34660SOL    HW1 7572  10.962   4.866   9.251 -0.2789 -0.7265  0.5910
34660SOL    HW2 7573  10.938   4.997   9.178  0.4158  0.2047  1.9899
34661SOL     OW 7574   8.920   2.027   5.619 -0.2072 -0.1321 -0.1839
34661SOL    HW1 7575   8.921   2.044   5.525  0.1598 -1.0308 -0.3539
34661SOL    HW2 7576   9.006   1.989   5.638 -0.3944 -0.2568  0.4493
34662SOL     OW 7577   9.166   7.809   4.128  0.3102  0.6772 -0.1816
34662SOL    HW1 7578   9.209   7.883   4.172  0.4642  0.7674 -0.4772
34662SOL    HW2 7579   9.238   7.762   4.086 -0.0235  1.7995 -2.1242
34663SOL     OW 7580   4.981   1.919   8.511 -0.6336 -0.1261  1.0527
34663SOL    HW1 7581   4.945   1.991   8.563  0.4445 -0.7709  2.7726
34663SOL    HW2 7582   4.926   1.844   8.532 -0.9133 -0.1308  0.3273
34664SOL     OW 7583  11.068   2.158   5.597  0.6466  0.0406  0.2668
34664SOL    HW1 7584  11.083   2.069   5.629  1.4836 -0.0361 -0.3297
34664SOL    HW2 7585  11.125   2.167   5.521 -1.3511  0.2013 -1.2973
34665SOL     OW 7586   2.268   2.418   1.318 -0.0071  0.7588 -0.1713
34665SOL    HW1 7587   2.234   2.328   1.317  0.2332  0.6676 -0.1763
34665SOL    HW2 7588   2.282   2.438   1.410  0.0088  0.7663 -0.1755
34666SOL     OW 7589   7.829   1.868   8.991  0.6969 -0.1026  0.3164
34666SOL    HW1 7590   7.882   1.792   8.968  1.3517  0.4584 -0.0927
34666SOL    HW2 7591   7.870   1.902   9.071  0.7718  0.1615  0.1663
34667SOL     OW 7592   1.561   9.821   7.794  0.4728 -0.0359  0.5370
34667SOL    HW1 7593   1.570   9.914   7.770  2.3359 -0.2315  0.3594
34667SOL    HW2 7594   1.475   9.816   7.837  0.1738  1.6923  0.2197
34668SOL     OW 7595   5.874   7.189   2.899  0.1315  0.0389  0.6248
34668SOL    HW1 7596   5.966   7.213   2.912  0.3290 -0.7289  0.7212
34668SOL    HW2 7597   5.831   7.214   2.981 -0.2063  2.4461 -0.2397
34669SOL     OW 7598   9.247  10.039   3.227  0.3645  0.1229  0.0631
34669SOL    HW1 7599   9.327  10.060   3.180 -0.3394  3.2704  0.0339
34669SOL    HW2 7600   9.176  10.068   3.168 -0.7482 -1.1706  0.7130
34670SOL     OW 7601   5.614   1.583   9.361 -0.7340 -0.2176  0.2086
34670SOL    HW1 7602   5.590   1.490   9.366 -1.6984  0.0211  0.2029
34670SOL    HW2 7603   5.572   1.614   9.281  0.3173  0.0292 -0.2632
34671SOL     OW 7604   1.249   6.734  10.484  0.3433 -0.1307 -0.3255
34671SOL    HW1 7605   1.280   6.791  10.413 -2.5299 -0.0935 -1.6762
34671SOL    HW2 7606   1.154   6.743  10.482 -0.0679 -3.0344  1.1085
34672SOL     OW 7607  11.069   4.540   3.268 -0.0263 -0.4148  0.2631
34672SOL    HW1 7608  11.110   4.456   3.289  0.8001 -0.3766 -1.0592
34672SOL    HW2 7609  11.061   4.584   3.352 -0.0939 -1.6510  0.9315
34673SOL     OW 7610   6.015   6.771   6.481  0.2946  0.3655  0.0636
34673SOL    HW1 7611   6.091   6.715   6.467  2.5513  2.8985  1.1880
34673SOL    HW2 7612   6.030   6.810   6.568 -3.4527 -0.6400  1.3584
34674SOL     OW 7613   3.344   2.383   7.920 -0.0857 -0.0734  0.2106
34674SOL    HW1 7614   3.340   2.444   7.994 -0.2802 -0.5856  0.6274
34674SOL    HW2 7615   3.331   2.297   7.959  0.7534 -0.4448 -0.3047
34675SOL     OW 7616   4.658   3.768   9.499  0.3137  0.0847  0.1254
34675SOL    HW1 7617   4.581   3.743   9.449 -0.4273  0.4345  1.0463
34675SOL    HW2 7618   4.673   3.860   9.477 -0.5331  0.4933  1.1485
34676SOL     OW 7619   5.100   5.670   5.663 -0.5826  0.1810 -0.1611
34676SOL    HW1 7620   5.062   5.721   5.735 -1.8662 -3.1453  1.7465
34676SOL    HW2 7621   5.136   5.592   5.706 -0.0996 -1.2864 -3.0024
34677SOL     OW 7622   1.191   8.264   0.859 -0.1051 -0.7382 -0.4079
34677SOL    HW1 7623   1.159   8.201   0.795  0.2099 -0.8833 -0.4256
34677SOL    HW2 7624   1.203   8.345   0.809 -0.4601 -0.6758 -0.3959
34678SOL     OW 7625   9.831   1.564  10.755 -0.2339 -0.1168  0.5303
34678SOL    HW1 7626   9.832   1.474  10.725  3.5621 -0.0937  0.0968
34678SOL    HW2 7627   9.776   1.563  10.834 -1.5034 -2.4262 -0.2993
34679SOL     OW 7628   8.023   6.268   2.066  0.2261 -0.3875 -0.4106
34679SOL    HW1 7629   7.966   6.342   2.046  0.8710  0.4332  0.6880
34679SOL    HW2 7630   7.986   6.230   2.146  0.4930 -0.6247 -0.3977
34680SOL     OW 7631   0.202   3.278   8.563 -0.5931 -0.2970  0.1121
34680SOL    HW1 7632   0.122   3.319   8.595  0.0565  0.6554  0.5687
34680SOL    HW2 7633   0.239   3.234   8.640 -0.3484 -0.1868  0.0587
34681SOL     OW 7634  10.919   9.746   4.498 -0.6065 -0.0470  0.2562
34681SOL    HW1 7635  10.864   9.819   4.469  1.3868  0.6389 -2.1155
34681SOL    HW2 7636  10.947   9.703   4.418 -0.4174 -2.5120  1.5417
34682SOL     OW 7637   3.949   1.892   9.542  0.4660 -0.5772  0.4200
34682SOL    HW1 7638   3.921   1.854   9.459  2.0289 -1.5292  0.2797
34682SOL    HW2 7639   3.905   1.976   9.547  0.4129 -0.4676 -1.4152
34683SOL     OW 7640   3.952   6.913   2.206  0.1771  0.2173 -0.2696
34683SOL    HW1 7641   3.895   6.930   2.281 -0.4836 -0.3215 -0.6390
34683SOL    HW2 7642   4.014   6.987   2.205 -1.3434  1.5398 -0.6388
34684SOL     OW 7643   8.313   6.756  10.061  0.0109 -0.5603  0.1034
34684SOL    HW1 7644   8.251   6.761   9.989  0.9007 -0.3841 -0.6795
34684SOL    HW2 7645   8.386   6.704  10.027  2.2311  2.6733 -0.5575
34685SOL     OW 7646   1.291   9.073   2.406  0.3363  0.1542  0.1932
34685SOL    HW1 7647   1.359   9.014   2.438  0.2777  0.4434  0.8801
34685SOL    HW2 7648   1.281   9.051   2.314  0.1079 -1.0965  0.5080
34686SOL     OW 7649  10.504   1.287   5.109 -0.0092  0.4007 -0.7111
34686SOL    HW1 7650  10.458   1.350   5.053 -0.6495  0.2334 -0.3702
34686SOL    HW2 7651  10.479   1.201   5.074 -1.7265  0.2336  0.8323
34687SOL     OW 7652   1.608   7.494   3.054 -0.1750 -0.1441 -0.5336
34687SOL    HW1 7653   1.699   7.472   3.074 -0.4330 -0.2540  0.5909
34687SOL    HW2 7654   1.556   7.439   3.112 -0.9284  0.6235 -0.4483
34688SOL     OW 7655   5.833   7.623  10.545  0.0090 -0.2616  0.2146
34688SOL    HW1 7656   5.830   7.680  10.469  2.6007 -1.1327 -0.6647
34688SOL    HW2 7657   5.743   7.594  10.558 -0.6903  0.9076 -1.7231
34689SOL     OW 7658   6.602   7.869   1.735  0.0001 -0.2156  0.1413
34689SOL    HW1 7659   6.676   7.880   1.794 -0.5072  0.0315  0.7403
34689SOL    HW2 7660   6.534   7.927   1.770 -0.5264 -0.5404 -0.3151
34690SOL     OW 7661   1.107   1.521   9.166  0.1552  0.1628 -1.1136
34690SOL    HW1 7662   1.184   1.463   9.167 -0.6111 -0.9111 -2.0698
34690SOL    HW2 7663   1.070   1.511   9.078 -1.1814  0.5177 -0.6156
34691SOL     OW 7664   4.090  10.210   5.633 -0.3248  0.1208 -0.2140
34691SOL    HW1 7665   4.166  10.266   5.644 -1.2480  2.0190 -2.6423
34691SOL    HW2 7666   4.118  10.144   5.569  0.3064 -1.4171  1.5601
34692SOL     OW 7667   1.747   8.643  10.716  0.3753 -0.1327  0.1860
34692SOL    HW1 7668   1.713   8.594  10.791  1.5612 -0.7128  0.3701
34692SOL    HW2 7669   1.681   8.633  10.648 -1.9404  2.3538  1.8213
34693SOL     OW 7670   6.739  10.702   6.915 -0.0082  0.5335  0.1114
34693SOL    HW1 7671   6.820  10.668   6.877 -0.5943 -1.6567  0.6739
34693SOL    HW2 7672   6.761  10.791   6.943  2.7048 -0.5442  1.7703
34694SOL     OW 7673   5.949   6.833   4.906  0.3780 -0.2172 -0.3819
34694SOL    HW1 7674   5.937   6.897   4.977  2.8783  0.4503 -0.4716
34694SOL    HW2 7675   5.980   6.754   4.950 -1.7510 -1.1289 -0.3874
34695SOL     OW 7676   0.702   2.137   8.884 -0.3952 -0.0273  0.0633
34695SOL    HW1 7677   0.659   2.191   8.817  1.4936  0.7482 -0.5966
34695SOL    HW2 7678   0.730   2.199   8.951  1.0758 -0.2652 -0.2983
34696SOL     OW 7679   8.616   2.808   4.507 -0.5063 -0.0979  0.4828
34696SOL    HW1 7680   8.557   2.744   4.548  1.2409 -1.0279  1.6873
34696SOL    HW2 7681   8.647   2.763   4.428  0.7726 -0.8368  1.3632
34697SOL     OW 7682   7.179   1.077   8.519  0.2345 -0.7031  0.2056
34697SOL    HW1 7683   7.144   1.134   8.450  2.3149 -0.1612 -0.4750
34697SOL    HW2 7684   7.198   1.136   8.591  1.5818 -0.6406 -0.1781
34698SOL     OW 7685  10.603   6.262   8.177  0.0925 -0.9353  0.2119
34698SOL    HW1 7686  10.559   6.293   8.257  0.1318  0.7495 -0.3691
34698SOL    HW2 7687  10.531   6.235   8.120 -0.2381  1.2840 -0.5189
34699SOL     OW 7688   9.087   4.196   2.573  0.0147 -0.1992 -0.4414
34699SOL    HW1 7689   9.004   4.234   2.544  0.2803  0.6992 -0.0420
34699SOL    HW2 7690   9.062   4.124   2.631 -0.5148  1.7724  1.8994
34700SOL     OW 7691   7.038   5.822   0.851 -0.0889  0.0380 -0.3069
34700SOL    HW1 7692   7.074   5.733   0.843 -0.7807 -0.4256  1.2319
34700SOL    HW2 7693   6.976   5.829   0.779 -0.0972 -0.7809 -0.3961
34701SOL     OW 7694   1.654   0.937   6.700 -0.2384  0.1944  0.1078
34701SOL    HW1 7695   1.663   0.859   6.755  0.6073 -0.3143 -0.7164
34701SOL    HW2 7696   1.660   0.903   6.610 -0.2452  1.1709 -0.2697
34702SOL     OW 7697   6.273  10.941   7.807  0.5179  0.6002 -0.1881
34702SOL    HW1 7698   6.248  10.892   7.728 -0.1534  0.8852 -0.1557
34702SOL    HW2 7699   6.260  11.032   7.783  1.0112  0.7290  0.0181
34703SOL     OW 7700   7.094   2.171   3.683  0.0681 -0.0739  0.2494
34703SOL    HW1 7701   7.047   2.217   3.753 -1.0534  0.4200 -0.7842
34703SOL    HW2 7702   7.029   2.112   3.645  0.3821  0.3156 -0.9450
34704SOL     OW 7703   1.101   2.186   8.547  0.1821 -0.1710  0.8056
34704SOL    HW1 7704   1.072   2.201   8.637  1.2465 -2.2469  1.5666
34704SOL    HW2 7705   1.133   2.096   8.547  0.8881  0.0134 -1.4944
34705SOL     OW 7706   1.399   9.435   0.391  0.0588  0.8830 -0.0265
34705SOL    HW1 7707   1.356   9.519   0.410  0.5543  1.1683 -0.1595
34705SOL    HW2 7708   1.472   9.432   0.451 -1.8041 -0.9624  2.3255
34706SOL     OW 7709   9.418   4.458  10.202 -0.0797  0.1522 -1.2077
34706SOL    HW1 7710   9.477   4.505  10.260 -1.7389  0.3049  0.4251
34706SOL    HW2 7711   9.394   4.380  10.250 -0.4879 -0.3864 -2.2491
34707SOL     OW 7712   6.110   1.067   3.302  0.4716  0.1338  0.1607
34707SOL    HW1 7713   6.101   1.028   3.215 -0.9564  2.1526 -0.6799
34707SOL    HW2 7714   6.161   1.004   3.352  1.3374 -1.0907 -2.1372
34708SOL     OW 7715   2.138   8.914   9.088 -0.5422  0.3176 -0.3005
34708SOL    HW1 7716   2.084   8.953   9.020 -0.1765  1.1850 -0.1036
34708SOL    HW2 7717   2.090   8.930   9.169 -0.2731  0.5739 -0.1910
34709SOL     OW 7718   6.444   9.590   8.141  0.3484 -0.0870 -0.5501
34709SOL    HW1 7719   6.380   9.564   8.075  1.5001 -0.5448 -1.5330
34709SOL    HW2 7720   6.510   9.521   8.138  1.0289  0.5132  0.2410
34710SOL     OW 7721   8.350   4.602   9.965 -0.4875 -0.1283  0.1220
34710SOL    HW1 7722   8.279   4.546   9.997 -0.4461 -1.3919 -1.8013
34710SOL    HW2 7723   8.430   4.554   9.987 -0.3276  0.3159  0.5149
34711SOL     OW 7724   8.420   0.079   1.561  0.6796  0.4932  0.0709
34711SOL    HW1 7725   8.419   0.143   1.632  1.4537 -0.7562  1.2865
34711SOL    HW2 7726   8.497   0.025   1.580 -1.0938 -2.1121  0.3541
34712SOL     OW 7727   4.791   1.796   3.070 -0.2522  0.6491  0.5698
34712SOL    HW1 7728   4.866   1.737   3.077 -1.4776 -1.5123 -2.4379
34712SOL    HW2 7729   4.783   1.813   2.976 -3.6150  0.6268  0.7486
34713SOL     OW 7730   4.959   2.344   6.866  0.5409  0.9961  0.1476
34713SOL    HW1 7731   4.914   2.383   6.941 -1.8082  0.1413 -0.7174
34713SOL    HW2 7732   4.971   2.252   6.891  0.4577  0.8808 -0.2370
34714SOL     OW 7733   9.569   9.322   4.036 -0.0219  0.2153 -0.0739
34714SOL    HW1 7734   9.663   9.331   4.051 -0.1374 -0.2966  1.1581
34714SOL    HW2 7735   9.552   9.371   3.956  1.1865  0.8625  0.0401
34715SOL     OW 7736   1.792   5.020  10.997  0.6967 -0.3704 -0.1090
34715SOL    HW1 7737   1.727   5.010  11.066 -0.1864 -1.4014 -1.0486
34715SOL    HW2 7738   1.867   5.062  11.040  0.4355 -1.5835  1.6337
34716SOL     OW 7739   3.576   2.401   1.370 -0.4438 -0.1821 -0.0675
34716SOL    HW1 7740   3.671   2.388   1.367 -0.5662 -1.0299 -0.8294
34716SOL    HW2 7741   3.565   2.488   1.409  0.5617 -1.0391  2.3389
34717SOL     OW 7742   5.652   2.808   9.063  0.1666  0.4213  0.3450
34717SOL    HW1 7743   5.608   2.882   9.022  0.5442  1.0703  1.0749
34717SOL    HW2 7744   5.641   2.822   9.157  1.1861  0.1556  0.5264
34718SOL     OW 7745   7.745   0.572   3.593  0.4852  0.5156 -0.2592
34718SOL    HW1 7746   7.836   0.543   3.594  0.4754  0.3661 -1.8810
34718SOL    HW2 7747   7.749   0.662   3.560  0.2009  1.2338  1.5448
34719SOL     OW 7748   3.137   6.734   3.055  0.5108  0.0913  0.3222
34719SOL    HW1 7749   3.133   6.663   2.990  0.1153 -1.2968  1.8027
34719SOL    HW2 7750   3.101   6.695   3.135  1.2838  1.6494  1.4733
34720SOL     OW 7751   6.717   2.302   5.222 -0.7252  0.5383 -0.5347
34720SOL    HW1 7752   6.781   2.243   5.182  2.3177  2.5528  0.9449
34720SOL    HW2 7753   6.721   2.282   5.315 -2.5152  0.5498 -0.4309
34721SOL     OW 7754   5.533   8.435   1.522  0.3804  0.3944 -0.0709
34721SOL    HW1 7755   5.525   8.351   1.476  1.5470  0.4344 -0.3774
34721SOL    HW2 7756   5.585   8.489   1.463  1.3805  0.6567  1.0108
34722SOL     OW 7757   6.306   1.596   6.800  0.0745  0.2831 -0.1419
34722SOL    HW1 7758   6.240   1.615   6.867  1.5697  0.7672  1.2433
34722SOL    HW2 7759   6.352   1.679   6.787  0.6906 -0.1452 -0.7590
34723SOL     OW 7760   1.857  10.252  10.445  0.3736  0.9205  0.3603
34723SOL    HW1 7761   1.792  10.216  10.385  1.7686  1.3934 -1.5524
34723SOL    HW2 7762   1.863  10.344  10.421 -0.0818  1.4854  2.2824
34724SOL     OW 7763   1.423   9.508   3.120 -0.1311 -0.1733 -0.0229
34724SOL    HW1 7764   1.425   9.517   3.215  0.4416 -0.9093  0.0431
34724SOL    HW2 7765   1.330   9.506   3.098 -0.2652 -0.2598  0.5463
34725SOL     OW 7766   6.663   9.692   9.157  0.3038 -0.4644 -0.2489
34725SOL    HW1 7767   6.722   9.766   9.153  0.4462 -0.5760 -0.2062
34725SOL    HW2 7768   6.678   9.653   9.243  0.2316 -0.5425 -0.2716
34726SOL     OW 7769   1.655  10.160   5.308  0.0454  0.0820  0.7822
34726SOL    HW1 7770   1.618  10.087   5.359 -2.6796  1.1296  0.4546
34726SOL    HW2 7771   1.636  10.137   5.217  0.3097  0.6101  0.5933
34727SOL     OW 7772   6.122   1.219   9.386  0.2228 -0.4670  0.0389
34727SOL    HW1 7773   6.162   1.293   9.340  3.8797 -1.4919  1.2703
34727SOL    HW2 7774   6.134   1.240   9.479 -1.2288 -1.4046  0.4810
34728SOL     OW 7775   8.075   3.968   8.627 -0.1814 -0.4291 -0.5556
34728SOL    HW1 7776   8.112   4.027   8.560 -0.3713 -0.5776 -0.7930
34728SOL    HW2 7777   8.129   3.983   8.704 -1.0443  1.0102 -0.2134
34729SOL     OW 7778   4.821   7.104   1.625  0.2122  0.5341  0.3109
34729SOL    HW1 7779   4.838   7.195   1.602  0.6904  0.5837  0.8496
34729SOL    HW2 7780   4.743   7.108   1.681  0.8243  0.7138  1.1548
34730SOL     OW 7781   5.414   2.739   6.328 -0.6742  0.1331  0.6734
34730SOL    HW1 7782   5.333   2.788   6.315 -0.6132 -0.5172 -3.7812
34730SOL    HW2 7783   5.387   2.647   6.332 -0.2401  0.0121  1.0242
34731SOL     OW 7784   6.980   6.055   4.556  0.1994  0.7740 -0.0720
34731SOL    HW1 7785   7.005   5.994   4.625  0.0837  2.6020  1.6730
34731SOL    HW2 7786   7.061   6.068   4.506  0.3779 -0.2989 -0.0785
34732SOL     OW 7787   0.958   7.266   8.904 -0.1360 -0.8668 -0.6274
34732SOL    HW1 7788   0.885   7.204   8.906 -1.7098  0.8975 -0.6700
34732SOL    HW2 7789   0.982   7.270   8.811 -0.0370 -1.3818 -0.6286
34733SOL     OW 7790   8.108   7.448   6.102  0.1300 -0.1056 -0.1887
34733SOL    HW1 7791   8.121   7.538   6.131  1.3532 -0.2284 -0.3066
34733SOL    HW2 7792   8.156   7.442   6.020 -1.7765 -0.2753 -1.3537
34734SOL     OW 7793   1.920   4.154   1.174 -0.0031  0.1868  0.0281
34734SOL    HW1 7794   1.840   4.187   1.134  1.1451 -0.2189 -2.8140
34734SOL    HW2 7795   1.898   4.066   1.205 -1.1238  0.8075  1.0845
34735SOL     OW 7796   7.776   0.862   3.496  0.1088 -0.2684  0.1613
34735SOL    HW1 7797   7.695   0.913   3.505 -1.3191 -2.5030  0.5238
34735SOL    HW2 7798   7.833   0.918   3.443 -1.9583  1.0468 -0.7848
34736SOL     OW 7799  10.282   9.921   5.527 -0.3718  0.1602  0.1596
34736SOL    HW1 7800  10.281  10.015   5.514  0.8139  0.0496 -0.9354
34736SOL    HW2 7801  10.219   9.887   5.463  0.2029  0.1236 -0.3945
34737SOL     OW 7802  10.990   6.152   1.154 -0.2298  0.2457  0.1242
34737SOL    HW1 7803  10.998   6.107   1.070 -1.3405  0.1364  0.0534
34737SOL    HW2 7804  11.001   6.083   1.219 -0.4068  0.1408  0.0446
34738SOL     OW 7805   1.587   5.253   8.402 -0.0073 -0.1537  0.8908
34738SOL    HW1 7806   1.659   5.207   8.446 -0.7418 -1.0005  1.2413
34738SOL    HW2 7807   1.517   5.189   8.399 -1.5057  1.3019  2.4916
34739SOL     OW 7808   1.058   5.111   9.465 -0.0713  0.4544  0.2262
34739SOL    HW1 7809   1.023   5.153   9.387 -0.4357  0.4941  0.4117
34739SOL    HW2 7810   1.080   5.022   9.437 -1.3391  0.0733  0.3719
34740SOL     OW 7811   3.823   8.001   7.536  0.1070  0.0219  0.0295
34740SOL    HW1 7812   3.885   7.928   7.523 -1.3811 -1.1710 -0.7513
34740SOL    HW2 7813   3.848   8.065   7.470  0.4447 -0.5024 -0.3629
34741SOL     OW 7814   4.452  10.764   4.016  0.4097  0.0555 -0.1559
34741SOL    HW1 7815   4.441  10.731   4.105 -1.9687 -0.4144 -0.5546
34741SOL    HW2 7816   4.544  10.748   3.996  0.8412 -0.4409  1.9645
34742SOL     OW 7817   4.744   0.120   6.239  0.1391 -0.2393  0.0491
34742SOL    HW1 7818   4.829   0.153   6.269  1.3858 -2.6429 -0.5305
34742SOL    HW2 7819   4.688   0.197   6.235  1.7245  1.1593  2.2870
34743SOL     OW 7820   3.145  10.450  10.545  0.0543  0.2997  0.5861
34743SOL    HW1 7821   3.217  10.452  10.607  1.7680  1.6456 -1.3014
34743SOL    HW2 7822   3.117  10.541  10.537 -0.8350  0.0061  0.1429
34744SOL     OW 7823  10.577  10.850   2.184  0.0598 -0.0921 -0.2151
34744SOL    HW1 7824  10.625  10.862   2.266  0.3325 -0.4948 -0.3128
34744SOL    HW2 7825  10.534  10.765   2.194  0.4773 -0.3567 -0.6808
34745SOL     OW 7826   7.267   3.213   0.513  0.2995  0.0840  0.5009
34745SOL    HW1 7827   7.229   3.125   0.522 -1.0696  0.6042  0.0637
34745SOL    HW2 7828   7.255   3.235   0.420  1.3067  0.4496  0.4428
34746SOL     OW 7829   3.560   8.560   1.948 -0.0121 -0.3436 -0.2645
34746SOL    HW1 7830   3.571   8.511   2.030 -3.0723  0.0545  0.5035
34746SOL    HW2 7831   3.569   8.494   1.879 -0.9864 -1.4296  0.6099
34747SOL     OW 7832   2.470   3.458   1.510 -0.0679  0.2943  0.4573
34747SOL    HW1 7833   2.444   3.550   1.514  0.2129  0.3842  0.2449
34747SOL    HW2 7834   2.510   3.441   1.595 -3.0440 -0.5391  1.8160
34748SOL     OW 7835  10.472   7.478   4.471  0.0426 -0.4437 -0.1920
34748SOL    HW1 7836  10.418   7.411   4.514 -0.7196  0.6768  0.6523
34748SOL    HW2 7837  10.521   7.430   4.404 -2.4718 -1.4179 -1.4637
34749SOL     OW 7838  10.119   7.069  10.424 -0.4728 -0.2460  0.2762
34749SOL    HW1 7839  10.181   7.048  10.354 -2.2264 -1.3636 -1.0356
34749SOL    HW2 7840  10.142   7.157  10.451  0.4346  0.1369 -1.5785
34750SOL     OW 7841   9.604  10.088   1.065  0.4592 -0.9889 -0.2355
34750SOL    HW1 7842   9.647  10.048   1.140  0.1562 -3.2178 -1.1829
34750SOL    HW2 7843   9.629  10.035   0.990  0.0355  0.6336 -1.6143
34751SOL     OW 7844   0.251   3.183   9.744  0.0257  0.0044  0.0298
34751SOL    HW1 7845   0.230   3.276   9.733  0.2365  0.0758  0.2170
34751SOL    HW2 7846   0.296   3.179   9.829 -0.4500 -0.3450  0.2704
34752SOL     OW 7847   9.061  10.035   9.133 -0.3998 -0.3194  0.5031
34752SOL    HW1 7848   9.030  10.017   9.222  0.7555 -0.7971  0.8271
34752SOL    HW2 7849   8.982  10.036   9.080 -1.0099 -1.1622  1.3585
34753SOL     OW 7850   1.026   5.738   5.967  0.1154 -0.6659  0.4877
34753SOL    HW1 7851   0.956   5.706   5.911  0.1752 -0.5761  0.3605
34753SOL    HW2 7852   1.106   5.721   5.918  0.3019 -2.0376  1.2158
34754SOL     OW 7853   5.701   1.313   5.218  0.3294  0.2736  0.3198
34754SOL    HW1 7854   5.670   1.231   5.256  2.5450 -1.1433 -0.7194
34754SOL    HW2 7855   5.773   1.340   5.274  1.1587  0.1986 -0.6756
34755SOL     OW 7856   0.285   0.663   0.777 -0.1056  0.6308 -0.2558
34755SOL    HW1 7857   0.278   0.615   0.695 -1.8393  1.2029 -0.4774
34755SOL    HW2 7858   0.234   0.743   0.763  0.7900  1.4440  0.8892
34756SOL     OW 7859   5.250   0.435  10.585  0.4431  0.3559  0.2822
34756SOL    HW1 7860   5.296   0.354  10.564 -1.1277 -0.0189 -2.1226
34756SOL    HW2 7861   5.163   0.407  10.613 -0.3466  1.1572 -1.2327
34757SOL     OW 7862   1.752   0.495  10.860  0.1983 -0.0269 -0.3502
34757SOL    HW1 7863   1.774   0.539  10.942 -1.9115  0.3565  0.0712
34757SOL    HW2 7864   1.788   0.553  10.792  1.7479 -0.2264  0.2620
34758SOL     OW 7865   0.908   0.140   5.038  0.1147 -0.2855 -0.2111
34758SOL    HW1 7866   0.883   0.220   4.991  0.0418  0.8193  1.5927
34758SOL    HW2 7867   0.830   0.084   5.033 -0.5531  0.5850  0.1500
34759SOL     OW 7868   5.391   6.472   8.178  0.2229  0.0862 -0.0297
34759SOL    HW1 7869   5.350   6.386   8.168  0.6061 -0.2205  0.9710
34759SOL    HW2 7870   5.471   6.455   8.227  0.7665  0.8943 -0.6141
34760SOL     OW 7871   9.082   7.970  10.828  0.2338  0.7140 -0.0977
34760SOL    HW1 7872   9.010   8.028  10.853  2.8366  3.2359  2.2170
34760SOL    HW2 7873   9.110   8.001  10.742 -0.8786  0.2348 -0.6509
34761SOL     OW 7874   9.499   8.692  10.416  0.2617  0.2662  0.3019
34761SOL    HW1 7875   9.567   8.755  10.440 -0.2477  1.8153 -2.0765
34761SOL    HW2 7876   9.519   8.666  10.327 -1.6003 -0.1427 -0.0550
34762SOL     OW 7877   2.686   7.202   8.119  0.2071 -0.4441 -0.4807
34762SOL    HW1 7878   2.769   7.247   8.101  0.7208 -1.2874 -0.2805
34762SOL    HW2 7879   2.710   7.131   8.179 -0.8449 -0.0332  0.4485
34763SOL     OW 7880   4.584   2.204   4.963  0.0443 -0.2333  0.2331
34763SOL    HW1 7881   4.537   2.287   4.963 -0.4902 -0.5341  0.1574
34763SOL    HW2 7882   4.537   2.150   4.899  0.1818 -0.7129  0.5356
34764SOL     OW 7883   2.596   8.492   5.297  0.5667  0.0771  0.1593
34764SOL    HW1 7884   2.587   8.557   5.368  0.9703 -1.9906  2.2117
34764SOL    HW2 7885   2.506   8.479   5.266  0.0421 -0.5364  1.8167
34765SOL     OW 7886   6.748   3.985   2.704 -0.2740  0.2282 -0.2003
34765SOL    HW1 7887   6.761   4.065   2.653  0.6782  1.0143  1.2256
34765SOL    HW2 7888   6.741   3.916   2.638  0.0452  1.3184 -1.4247
34766SOL     OW 7889   2.465   0.943   5.510  0.6883 -0.0306  0.2467
34766SOL    HW1 7890   2.505   0.907   5.588  1.7596 -0.1363 -0.3370
34766SOL    HW2 7891   2.538   0.968   5.454 -0.0419 -0.6218 -1.0240
34767SOL     OW 7892   8.765   1.320   9.299 -0.2718 -0.1459  0.1640
34767SOL    HW1 7893   8.810   1.377   9.236 -1.3297 -0.8098 -1.2620
34767SOL    HW2 7894   8.680   1.303   9.258 -0.4814 -1.6733  1.1799
34768SOL     OW 7895   7.757   2.910  10.040  0.1265 -0.2283 -0.1241
34768SOL    HW1 7896   7.735   2.883  10.129  2.8113  0.4564  0.8590
34768SOL    HW2 7897   7.771   3.005  10.047  2.0831 -0.4266 -0.8366
34769SOL     OW 7898  10.455   6.184   4.437  0.1010 -0.0680 -0.1581
34769SOL    HW1 7899  10.371   6.174   4.392  0.9831 -1.2046 -1.6660
34769SOL    HW2 7900  10.435   6.167   4.529 -1.1441 -1.4794 -0.6450
34770SOL     OW 7901   1.671   7.793   9.200 -0.3043  0.1421 -0.6820
34770SOL    HW1 7902   1.717   7.733   9.141 -0.5861 -0.8171  0.0337
34770SOL    HW2 7903   1.703   7.768   9.287 -0.4021  1.0667 -0.3786
34771SOL     OW 7904   8.361   2.915   6.687 -0.1756  0.0961  0.3448
34771SOL    HW1 7905   8.447   2.951   6.665 -0.6770  0.7998 -0.5535
34771SOL    HW2 7906   8.318   2.985   6.736 -0.9969  0.5962 -1.0363
34772SOL     OW 7907   4.688   5.079   3.447 -0.2311  0.0064  0.3773
34772SOL    HW1 7908   4.775   5.089   3.408 -0.9713 -2.4623 -2.2637
34772SOL    HW2 7909   4.648   5.166   3.439  1.8677  1.1711  1.5894
34773SOL     OW 7910   1.595   1.437   5.676  0.4987 -0.0751 -0.4333
34773SOL    HW1 7911   1.624   1.406   5.590  1.1624 -1.3345  0.2088
34773SOL    HW2 7912   1.675   1.458   5.722  0.0872  1.8479 -0.5335
34774SOL     OW 7913   5.009   8.296   4.021  0.1054 -0.4826  0.3997
34774SOL    HW1 7914   5.079   8.257   4.073  0.0288  1.3839  2.0036
34774SOL    HW2 7915   4.931   8.288   4.075 -0.3557 -0.0791 -0.1822
34775SOL     OW 7916   4.414  10.795  11.017  0.2620 -0.0169  0.2514
34775SOL    HW1 7917   4.455  10.866  10.968 -0.6326  1.1427  1.1333
34775SOL    HW2 7918   4.373  10.740  10.950 -0.8209  1.4571 -0.3458
34776SOL     OW 7919   9.678  11.026   5.271 -1.1829 -0.1823  0.2133
34776SOL    HW1 7920   9.598  11.042   5.320 -1.6047 -0.1673 -0.4706
34776SOL    HW2 7921   9.677  11.091   5.201 -0.2570  0.2300  0.5639
34777SOL     OW 7922   1.323   1.079   8.756  0.2872  0.1974  0.3785
34777SOL    HW1 7923   1.372   1.060   8.676  0.0601 -0.7959  0.4723
34777SOL    HW2 7924   1.383   1.055   8.827  0.4760  1.0446  0.5220
34778SOL     OW 7925   7.474   1.922   8.189  0.1080 -0.1510 -0.2627
34778SOL    HW1 7926   7.494   2.014   8.175 -1.0770  0.0407 -0.8141
34778SOL    HW2 7927   7.487   1.908   8.283 -0.0262  0.6646 -0.1192
34779SOL     OW 7928   4.109   7.075   2.752 -0.1585  0.1490  0.2009
34779SOL    HW1 7929   4.079   7.121   2.674 -0.3977  0.2502  0.3498
34779SOL    HW2 7930   4.089   6.983   2.735  2.8577 -0.3372 -1.2974
34780SOL     OW 7931   7.748   4.228   6.589  0.2143 -0.1995 -0.3093
34780SOL    HW1 7932   7.680   4.271   6.639 -0.4584 -0.0049 -1.3573
34780SOL    HW2 7933   7.702   4.158   6.541  1.1677 -1.7216  0.8833
34781SOL     OW 7934   8.658   6.249   9.072 -0.3111 -0.1771  0.4066
34781SOL    HW1 7935   8.683   6.222   8.984  1.4384  1.3123  0.3833
34781SOL    HW2 7936   8.590   6.315   9.058 -2.1811 -2.0139  0.3481
34782SOL     OW 7937   8.665   2.880   7.588 -0.0466  0.6728  0.5219
34782SOL    HW1 7938   8.760   2.882   7.595  0.0165 -0.3722  0.0601
34782SOL    HW2 7939   8.641   2.789   7.602 -0.7636  0.4043 -2.0316
34783SOL     OW 7940   9.111   6.629   5.482 -1.0126 -0.0167  0.7505
34783SOL    HW1 7941   9.156   6.582   5.552  1.1482 -0.5146 -0.8594
34783SOL    HW2 7942   9.023   6.591   5.480  0.0800 -2.7765  0.6948
34784SOL     OW 7943   2.458   3.805   9.903  0.1315  0.0807  0.5518
34784SOL    HW1 7944   2.550   3.818   9.924  0.0742  0.2679  0.6925
34784SOL    HW2 7945   2.458   3.752   9.824  0.3623  0.2367  0.4455
34785SOL     OW 7946   5.264   3.827   7.099  0.0629 -0.3573 -0.4563
34785SOL    HW1 7947   5.298   3.818   7.010  1.1887 -0.6911 -0.0105
34785SOL    HW2 7948   5.316   3.766   7.151 -0.1748  0.2670  0.5387
34786SOL     OW 7949   1.825   2.122   7.207  0.4678 -0.5307 -0.0733
34786SOL    HW1 7950   1.861   2.072   7.134 -0.5350 -1.3851 -0.0126
34786SOL    HW2 7951   1.731   2.105   7.203  0.0560  1.5514 -0.1817
34787SOL     OW 7952   3.920  10.933   7.269 -0.0924 -0.3320 -0.3971
34787SOL    HW1 7953   3.992  10.870   7.273  0.1527 -0.0046  0.9183
34787SOL    HW2 7954   3.842  10.881   7.286  0.2026 -0.1849  1.7043
34788SOL     OW 7955   7.799   4.199   3.035  0.5754  0.1127  0.3689
34788SOL    HW1 7956   7.721   4.251   3.053  0.5324  0.1507  0.0860
34788SOL    HW2 7957   7.789   4.120   3.089  0.9108  0.6446  1.2181
34789SOL     OW 7958   1.540   6.548   1.374 -0.2744 -0.1999 -0.0539
34789SOL    HW1 7959   1.630   6.515   1.367 -0.6613 -1.0110 -1.4690
34789SOL    HW2 7960   1.545   6.638   1.344  0.0241 -0.3138 -0.3455
34790SOL     OW 7961  10.321   2.048  10.561 -0.6084 -0.3202 -0.4381
34790SOL    HW1 7962  10.266   2.070  10.486 -1.3219  0.0781  0.1912
34790SOL    HW2 7963  10.329   1.953  10.559 -1.0664 -0.3508 -0.7066
34791SOL     OW 7964   5.362   7.805   7.917  0.2787  0.0085  0.4208
34791SOL    HW1 7965   5.399   7.741   7.978  2.5418 -0.4290 -1.2553
34791SOL    HW2 7966   5.438   7.857   7.888 -0.7190  0.3477 -1.8025
34792SOL     OW 7967   9.134   5.574   8.429 -0.2363  0.1985 -0.2725
34792SOL    HW1 7968   9.098   5.662   8.430  0.5058  0.5151  1.1316
34792SOL    HW2 7969   9.205   5.576   8.493 -0.6557 -1.5999  0.3296
34793SOL     OW 7970   5.029   6.114   4.699 -0.4513 -0.4721  0.7171
34793SOL    HW1 7971   4.974   6.162   4.761 -0.2467 -0.5916  0.9918
34793SOL    HW2 7972   5.039   6.027   4.737  0.1804 -0.3579  0.8304
34794SOL     OW 7973   3.073   0.079   1.091 -0.2156 -0.0696 -0.3217
34794SOL    HW1 7974   3.070   0.174   1.078 -1.1020  0.1372  1.1221
34794SOL    HW2 7975   3.133   0.067   1.165  0.4038 -0.7030 -0.9135
34795SOL     OW 7976   3.677   4.593   2.111  0.1958  0.3817 -0.0706
34795SOL    HW1 7977   3.739   4.520   2.105  0.5956  0.7298 -0.2479
34795SOL    HW2 7978   3.678   4.617   2.204  1.9053  1.7093 -0.3776
34796SOL     OW 7979   4.516   4.090   7.974  0.5020 -0.0718  0.0172
34796SOL    HW1 7980   4.449   4.157   7.968 -1.3576 -1.9054 -2.7767
34796SOL    HW2 7981   4.581   4.115   7.908  0.1225 -0.6546 -0.5899
34797SOL     OW 7982  10.613   4.645   8.072  0.0955  0.2688 -0.4967
34797SOL    HW1 7983  10.561   4.568   8.094  0.1225  0.9359  2.1717
34797SOL    HW2 7984  10.650   4.625   7.986 -0.4383 -2.3838 -0.1871
34798SOL     OW 7985   7.513   9.408  10.378  0.4299  0.0511 -0.1333
34798SOL    HW1 7986   7.485   9.499  10.386 -0.2805 -0.1513 -0.2381
34798SOL    HW2 7987   7.606   9.413  10.359  0.3605  0.7640 -0.3048
34799SOL     OW 7988   2.990   7.387   6.438  0.1923  0.2207 -0.4115
34799SOL    HW1 7989   3.037   7.458   6.481  0.5143  0.0988 -0.5586
34799SOL    HW2 7990   3.040   7.308   6.460  1.7505  0.3927 -2.8762
34800SOL     OW 7991   6.828   9.524  10.287  0.0624 -0.3792  0.0724
34800SOL    HW1 7992   6.907   9.478  10.259 -0.7804 -0.1163 -3.0527
34800SOL    HW2 7993   6.860   9.608  10.320  1.1575 -0.6685 -0.2046
34801SOL     OW 7994   1.958   7.630   9.881  0.0344  0.0958 -0.3910
34801SOL    HW1 7995   1.940   7.575   9.805 -0.4453 -0.9683  0.4620
34801SOL    HW2 7996   2.012   7.701   9.847  0.2793 -0.6474 -1.6219
34802SOL     OW 7997  10.756   7.136   2.028 -0.1596  0.6062 -0.0334
34802SOL    HW1 7998  10.774   7.057   2.080 -1.0240  0.3379 -0.1262
34802SOL    HW2 7999  10.815   7.129   1.953 -0.5676 -0.1976 -0.2835
34803SOL     OW 8000   1.506  10.945   5.975 -0.5916 -0.1871  0.6724
34803SOL    HW1 8001   1.545  11.016   6.026 -1.4188 -0.3404  1.5489
34803SOL    HW2 8002   1.563  10.936   5.899 -0.5463  1.5160  0.4622
34804SOL     OW 8003   6.918   2.786   2.942  0.4617 -0.3753  0.2285
34804SOL    HW1 8004   6.921   2.748   2.854  0.3127 -0.8666  0.4352
34804SOL    HW2 8005   6.975   2.863   2.936 -1.6131  1.1686 -1.0434
34805SOL     OW 8006   0.998   3.694  10.546  0.6540  0.7625 -0.0874
34805SOL    HW1 8007   0.952   3.621  10.587  2.9296  0.1004  1.4689
34805SOL    HW2 8008   1.052   3.654  10.478  0.4706  1.2682 -0.5413
34806SOL     OW 8009   3.688   9.819   8.299  0.1136 -0.3879 -0.3085
34806SOL    HW1 8010   3.735   9.899   8.323 -0.1202 -0.7195  1.4155
34806SOL    HW2 8011   3.754   9.750   8.309 -0.3956 -0.7199  1.0418
34807SOL     OW 8012   7.519   3.546   2.571 -0.6106 -0.0111  0.0264
34807SOL    HW1 8013   7.437   3.508   2.540 -2.2325  1.3541  2.2518
34807SOL    HW2 8014   7.525   3.630   2.527 -1.2211  0.5232  0.9262
34808SOL     OW 8015  10.631   5.942   2.753  0.1542  0.1239  0.1141
34808SOL    HW1 8016  10.576   5.863   2.748  0.6760 -0.3230  1.1530
34808SOL    HW2 8017  10.609   5.981   2.837  0.5046  0.6440 -0.0329
34809SOL     OW 8018   9.883   7.581   0.006  0.9031  0.0332  0.1636
34809SOL    HW1 8019   9.975   7.588   0.032  1.5221  0.5814 -1.9463
34809SOL    HW2 8020   9.860   7.669  -0.024 -0.2434 -0.1684  0.4048
34810SOL     OW 8021  10.107   3.560   8.548 -0.0818  0.0675 -0.7345
34810SOL    HW1 8022  10.067   3.493   8.492  0.3483 -0.0916 -0.8592
34810SOL    HW2 8023  10.199   3.562   8.520 -0.1554  0.9208 -0.9377
34811SOL     OW 8024   4.967   2.197   2.399 -0.1853  0.5838 -0.1290
34811SOL    HW1 8025   5.061   2.195   2.420 -0.3497 -2.9495  0.8959
34811SOL    HW2 8026   4.928   2.247   2.471  0.7495  0.9063  0.1785
34812SOL     OW 8027   6.478   0.923   6.262  0.2927  0.0188 -0.5242
34812SOL    HW1 8028   6.497   0.955   6.350  0.9409 -1.9057  0.0864
34812SOL    HW2 8029   6.512   0.833   6.261 -0.8493 -0.4517 -2.3270
34813SOL     OW 8030   4.918   2.679   1.205 -0.7730  0.6179  0.3496
34813SOL    HW1 8031   4.875   2.594   1.217 -1.6071  1.1457  1.1770
34813SOL    HW2 8032   4.921   2.690   1.110 -0.4353 -0.4385  0.2226
34814SOL     OW 8033   4.980   2.098   6.979  0.6235 -0.5898  0.5263
34814SOL    HW1 8034   4.940   2.098   7.065 -0.5272  1.4869  0.0569
34814SOL    HW2 8035   4.908   2.079   6.918  1.2735 -1.3069 -0.0540
34815SOL     OW 8036   3.474   0.343   0.217  0.0376 -0.7823 -0.3940
34815SOL    HW1 8037   3.409   0.410   0.197  0.1516 -0.1190  1.2703
34815SOL    HW2 8038   3.522   0.331   0.135 -1.0694 -0.0411 -1.1761
34816SOL     OW 8039   2.170   3.595   8.411 -0.1363 -0.0301  0.0941
34816SOL    HW1 8040   2.163   3.505   8.380  0.4113 -0.7729  2.0219
34816SOL    HW2 8041   2.188   3.588   8.505  1.1168  2.0546  0.0897
34817SOL     OW 8042   1.045   0.371   9.715 -0.1106  0.1952 -0.2911
34817SOL    HW1 8043   1.009   0.395   9.630 -0.5221  0.3314 -0.0800
34817SOL    HW2 8044   1.135   0.344   9.696  0.7725  2.9582 -0.4107
34818SOL     OW 8045   7.143   4.516   2.091  0.4991 -0.5599  0.2288
34818SOL    HW1 8046   7.202   4.589   2.074  1.2046 -0.7384  1.7899
34818SOL    HW2 8047   7.142   4.466   2.009 -1.0552  1.8684 -1.3616
34819SOL     OW 8048   2.231   3.916   2.113 -0.0951 -0.3673  0.1656
34819SOL    HW1 8049   2.239   3.821   2.124 -1.0509 -0.2723  2.2161
34819SOL    HW2 8050   2.298   3.952   2.172 -0.1805  0.2424 -0.1072
34820SOL     OW 8051   6.339   2.192   5.894 -0.4393  0.2005  0.3760
34820SOL    HW1 8052   6.317   2.250   5.821 -0.4905 -0.8665 -0.4890
34820SOL    HW2 8053   6.383   2.248   5.957 -0.8825  1.2656 -0.2393
34821SOL     OW 8054   0.848   5.772  10.170 -0.1390 -0.3282 -0.3304
34821SOL    HW1 8055   0.909   5.844  10.157 -1.4206  1.0485  0.8413
34821SOL    HW2 8056   0.797   5.769  10.089  0.3916 -0.3776 -0.6617
34822SOL     OW 8057   1.766   2.134   4.213 -0.0560  0.6660  0.0798
34822SOL    HW1 8058   1.830   2.159   4.147 -1.4580 -0.3665 -1.7649
34822SOL    HW2 8059   1.757   2.212   4.269  1.7342  1.2961 -0.4400
34823SOL     OW 8060   8.091   4.478   8.473  0.2062  0.2497 -0.1692
34823SOL    HW1 8061   8.156   4.432   8.419  0.2167  0.8419 -0.6740
34823SOL    HW2 8062   8.018   4.495   8.413  0.8699  2.3380 -0.4581
34824SOL     OW 8063   0.635   2.549   0.636 -0.3954 -0.0483 -0.8562
34824SOL    HW1 8064   0.707   2.489   0.658  1.4701  1.5128 -2.3526
34824SOL    HW2 8065   0.650   2.625   0.691 -2.4054 -0.6022  0.5903
34825SOL     OW 8066   2.394   6.486  10.403  0.9131 -0.1268 -0.2746
34825SOL    HW1 8067   2.445   6.454  10.329  0.6778 -0.6775 -0.2012
34825SOL    HW2 8068   2.323   6.537  10.363  0.2841 -1.1320 -0.4832
34826SOL     OW 8069   5.673   4.399   3.453  0.3323  1.2284  0.8022
34826SOL    HW1 8070   5.744   4.455   3.485  2.1294 -0.3324 -0.2441
34826SOL    HW2 8071   5.674   4.412   3.358  0.6299 -0.3252  0.5624
34827SOL     OW 8072   2.274   4.582   5.903 -0.1738 -0.6101  0.2169
34827SOL    HW1 8073   2.363   4.611   5.883 -0.2743 -0.5786 -0.1977
34827SOL    HW2 8074   2.227   4.661   5.926 -0.0176 -0.6659  0.7422
34828SOL     OW 8075   7.922   6.206   5.609  0.5289 -0.4987  0.0442
34828SOL    HW1 8076   7.924   6.190   5.515 -0.9784  0.2903 -0.1536
34828SOL    HW2 8077   7.915   6.119   5.649 -0.9991 -0.7419 -0.6901
34829SOL     OW 8078   1.104   7.906   2.140 -0.1826  0.1133  0.8383
34829SOL    HW1 8079   1.112   7.859   2.057 -0.7057  0.5369  0.5454
34829SOL    HW2 8080   1.011   7.928   2.147 -0.1813 -0.0969  1.6363
34830SOL     OW 8081   9.064   5.844  10.359 -0.0498  0.1918  0.0214
34830SOL    HW1 8082   9.050   5.927  10.405  0.9550 -0.0086  0.7314
34830SOL    HW2 8083   9.159   5.840  10.344 -0.2991  0.0748 -1.7778
34831SOL     OW 8084   9.345  10.955   9.162 -0.4080 -0.1159 -0.5753
34831SOL    HW1 8085   9.433  10.983   9.134 -1.3972  2.0674 -1.8001
34831SOL    HW2 8086   9.361  10.894   9.234  2.1102  0.2255 -0.7426
34832SOL     OW 8087   3.840  11.061  10.423  0.3390  1.2969  0.5502
34832SOL    HW1 8088   3.803  10.995  10.481 -0.3954 -0.2147 -1.4944
34832SOL    HW2 8089   3.818  11.144  10.464  0.1909  0.3062  2.5904
34833SOL     OW 8090   2.584   2.849   9.036 -0.7949  0.7552  0.1268
34833SOL    HW1 8091   2.578   2.922   9.097 -1.8801  0.8307 -0.0342
34833SOL    HW2 8092   2.497   2.808   9.040  0.0169 -0.9890  0.7670
34834SOL     OW 8093   3.253   9.276   7.451  0.2011  0.7411 -0.4935
34834SOL    HW1 8094   3.211   9.361   7.467  0.0349  0.5001  0.3742
34834SOL    HW2 8095   3.250   9.266   7.355 -1.4928  0.8503 -0.4782
34835SOL     OW 8096   1.184   5.087   4.436  0.0516 -0.1910  0.2508
34835SOL    HW1 8097   1.238   5.113   4.361  0.5766 -0.5965  0.4804
34835SOL    HW2 8098   1.102   5.056   4.396 -0.1663  0.7776 -0.0777
34836SOL     OW 8099   9.072   0.387   8.755 -0.1540  0.0687  0.4609
34836SOL    HW1 8100   9.065   0.297   8.722 -0.8944  1.2931 -3.1247
34836SOL    HW2 8101   9.167   0.402   8.762 -0.0186 -0.8782  0.8088
34837SOL     OW 8102   3.543   7.682   7.909  0.3144  0.2763  0.6212
34837SOL    HW1 8103   3.489   7.680   7.830 -0.4666 -0.7385  1.1621
34837SOL    HW2 8104   3.598   7.759   7.898  1.4374 -0.7770 -1.7080
34838SOL     OW 8105   5.111   2.085   9.697  0.5698 -0.4566 -0.0917
34838SOL    HW1 8106   5.090   2.006   9.748  1.4178 -1.1106 -0.7248
34838SOL    HW2 8107   5.153   2.144   9.760  1.5445 -1.2313  0.0093
34839SOL     OW 8108   3.261   2.409  10.608  0.2623 -0.9670 -0.3628
34839SOL    HW1 8109   3.192   2.472  10.588 -0.0998 -0.6336  1.6608
34839SOL    HW2 8110   3.253   2.341  10.542  0.8759  1.2130 -2.8636
34840SOL     OW 8111  10.921   3.507   9.908  0.3825 -0.1541  0.0420
34840SOL    HW1 8112  10.908   3.565   9.983 -2.3299 -0.6693  0.0947
34840SOL    HW2 8113  10.982   3.441   9.938  0.9112  0.7931  1.0999
34841SOL     OW 8114   0.632   4.511   8.199  0.1669  0.0915 -0.2197
34841SOL    HW1 8115   0.552   4.565   8.196  0.6672  0.8448 -0.1254
34841SOL    HW2 8116   0.610   4.439   8.259 -0.6146  0.0021 -0.5945
34842SOL     OW 8117   5.260   4.932   9.771 -0.6693  0.2379 -0.1299
34842SOL    HW1 8118   5.216   4.928   9.686  1.5191 -3.0314 -1.2615
34842SOL    HW2 8119   5.225   4.858   9.820  0.2415  0.3260  0.6806
34843SOL     OW 8120   5.503   9.648   0.035  0.0406  0.0310 -0.0799
34843SOL    HW1 8121   5.598   9.641   0.036  0.1688  0.9038 -1.7267
34843SOL    HW2 8122   5.474   9.605   0.115  1.7470 -1.3463 -0.1505
34844SOL     OW 8123   1.452   2.934   5.835  0.0296  0.2325 -0.0606
34844SOL    HW1 8124   1.389   2.871   5.799  0.1387  0.3488 -0.4610
34844SOL    HW2 8125   1.449   2.919   5.929 -0.4168  0.0662 -0.0974
34845SOL     OW 8126   9.027   1.962   1.046  0.3183  0.1613 -0.0645
34845SOL    HW1 8127   9.119   1.968   1.068  0.9257  1.2947 -2.5216
34845SOL    HW2 8128   9.016   1.875   1.009  1.2081  1.0360 -2.6134
34846SOL     OW 8129   0.700   1.025   6.599 -0.0878 -0.3352  0.8161
34846SOL    HW1 8130   0.784   1.004   6.559 -0.4006 -0.4690  0.2115
34846SOL    HW2 8131   0.635   0.991   6.538 -0.5834 -0.3419  1.3363
34847SOL     OW 8132   9.416   0.624   0.817  0.1419 -0.2567 -0.2817
34847SOL    HW1 8133   9.467   0.705   0.819 -1.2012  0.6608 -1.0653
34847SOL    HW2 8134   9.360   0.629   0.895  0.0055 -0.3904 -0.3700
34848SOL     OW 8135   1.188   7.817   4.683 -0.0064 -0.2504 -0.1362
34848SOL    HW1 8136   1.158   7.907   4.693 -0.0077 -0.3195  0.5392
34848SOL    HW2 8137   1.283   7.821   4.700  0.0600 -0.3157 -0.4860
34849SOL     OW 8138   2.802   2.465   4.342  0.4474  0.0720  0.1076
34849SOL    HW1 8139   2.825   2.421   4.424 -0.6852  0.4100  0.6313
34849SOL    HW2 8140   2.873   2.528   4.328  1.0328 -0.5017  0.4201
34850SOL     OW 8141   7.924   2.615   3.157 -0.1295  0.0465 -0.1214
34850SOL    HW1 8142   7.971   2.698   3.148  0.4736 -0.0424  1.7251
34850SOL    HW2 8143   7.863   2.614   3.084  0.5844  1.6291 -0.7898
34851SOL     OW 8144   2.622   0.065  10.821  0.2219  0.4772 -0.0027
34851SOL    HW1 8145   2.528   0.047  10.817 -0.1117  2.1161 -0.2189
34851SOL    HW2 8146   2.638   0.092  10.911  1.0209 -2.2324  0.7695
34852SOL     OW 8147   5.203   8.275   5.643 -0.0353  0.0409  0.2129
34852SOL    HW1 8148   5.286   8.250   5.604  1.5659  0.4066  3.1128
34852SOL    HW2 8149   5.223   8.353   5.695 -2.1464  0.0592  1.1150
34853SOL     OW 8150   4.494   1.277   1.546  0.6810  0.2294  0.6933
34853SOL    HW1 8151   4.417   1.333   1.539 -0.3288 -1.1045  0.7746
34853SOL    HW2 8152   4.470   1.212   1.611  1.8098 -0.3319  0.5672
34854SOL     OW 8153  10.711   5.250   0.003 -0.4064  0.4792 -0.4008
34854SOL    HW1 8154  10.615   5.244   0.009 -0.4976 -1.2209 -2.5130
34854SOL    HW2 8155  10.731   5.336   0.041 -2.7285  0.7697  0.3504
34855SOL     OW 8156   5.997   9.299   2.313 -0.2977  0.5856 -0.1202
34855SOL    HW1 8157   6.022   9.208   2.300 -1.0135  0.2568  0.7578
34855SOL    HW2 8158   5.945   9.320   2.235  0.3513  0.4349 -0.6064
34856SOL     OW 8159   8.675  10.613   5.744  0.1752  0.4549  0.1237
34856SOL    HW1 8160   8.761  10.627   5.785  1.2168 -0.8083 -1.5092
34856SOL    HW2 8161   8.663  10.518   5.747 -1.2261  0.6202  0.3919
34857SOL     OW 8162   2.862   0.914   7.686 -0.0346 -0.0075  0.3596
34857SOL    HW1 8163   2.807   0.848   7.728 -0.4396  0.2174  0.1811
34857SOL    HW2 8164   2.825   0.998   7.713  0.3625  0.1480  0.4300
34858SOL     OW 8165   4.067  10.704   7.490 -0.2355  0.1750  0.2192
34858SOL    HW1 8166   4.092  10.702   7.397  1.0933  0.5936  0.5442
34858SOL    HW2 8167   4.027  10.618   7.505  0.0692 -0.1232 -0.5972
34859SOL     OW 8168   5.158   6.151   6.294 -0.2014  0.1437 -0.0045
34859SOL    HW1 8169   5.240   6.188   6.261  0.6436 -0.7342  1.0390
34859SOL    HW2 8170   5.170   6.148   6.389 -0.7317 -1.6199  0.0350
34860SOL     OW 8171   7.452   6.436   4.326 -0.1850 -0.0141 -0.2752
34860SOL    HW1 8172   7.364   6.473   4.332 -0.1998 -0.2164  0.8284
34860SOL    HW2 8173   7.470   6.402   4.413  1.9616  2.2155  0.2515
34861SOL     OW 8174   0.831   1.956   1.671 -1.1155 -0.2536  0.1179
34861SOL    HW1 8175   0.881   1.892   1.621  1.0985  0.8313  0.7979
34861SOL    HW2 8176   0.796   1.907   1.745 -0.4939 -0.9441 -0.0379
34862SOL     OW 8177   4.554  10.372   7.450  0.5437  0.1892  0.1960
34862SOL    HW1 8178   4.650  10.366   7.456  0.4990 -0.3067  0.6031
34862SOL    HW2 8179   4.523  10.319   7.524 -0.0457  0.2797  0.0180
34863SOL     OW 8180  10.833  10.649   4.972  0.2797  0.3550  0.3878
34863SOL    HW1 8181  10.801  10.564   5.000  1.6138 -0.6819 -1.0432
34863SOL    HW2 8182  10.757  10.706   4.976 -0.6174 -0.8548  1.4990
34864SOL     OW 8183   5.320   2.592   4.140  0.7485  0.4423  0.0792
34864SOL    HW1 8184   5.379   2.630   4.205 -0.9500  0.8561  1.4674
34864SOL    HW2 8185   5.333   2.498   4.147  0.7656  0.4928  0.8859
34865SOL     OW 8186   1.606   2.269   0.532  0.4467  0.2224 -0.0504
34865SOL    HW1 8187   1.636   2.253   0.443  0.8658 -2.7652  0.5161
34865SOL    HW2 8188   1.521   2.312   0.521  0.3732 -0.3185 -1.9082
34866SOL     OW 8189   5.898   7.416   6.414 -0.1514  0.4964 -0.2351
34866SOL    HW1 8190   5.881   7.351   6.345 -1.8449 -0.3461  0.9054
34866SOL    HW2 8191   5.853   7.495   6.384  1.5375  1.0830 -1.4116
34867SOL     OW 8192   9.697   0.854   4.514  0.2305  0.1924 -0.1564
34867SOL    HW1 8193   9.702   0.926   4.576 -0.0381  1.1341 -1.1796
34867SOL    HW2 8194   9.611   0.815   4.529  1.4857 -1.8710  2.4097
34868SOL     OW 8195   1.838  10.248   3.302  0.3106 -0.4345  0.7187
34868SOL    HW1 8196   1.853  10.343   3.304  0.3446 -0.4111 -0.2079
34868SOL    HW2 8197   1.799  10.228   3.387 -0.8617  0.6079  0.4545
34869SOL     OW 8198   8.395   9.538   5.354 -0.2949 -0.2876 -0.2015
34869SOL    HW1 8199   8.304   9.570   5.354 -0.3252 -0.2911 -1.8319
34869SOL    HW2 8200   8.395   9.467   5.419 -1.6559 -0.7812 -0.6923
34870SOL     OW 8201   5.195   1.079   9.864 -0.3803  0.1237  0.6186
34870SOL    HW1 8202   5.155   1.128   9.792 -1.6027  1.5941  2.1936
34870SOL    HW2 8203   5.285   1.111   9.867 -0.1762 -0.3022 -0.5282
34871SOL     OW 8204   3.989   7.565   4.980  0.4911  0.0664  0.3857
34871SOL    HW1 8205   4.042   7.626   4.928  0.3531  0.1518  0.3442
34871SOL    HW2 8206   4.042   7.547   5.058  0.6629  0.0038  0.2548
34872SOL     OW 8207   9.249   8.420   0.449  0.2571 -0.1367  0.0981
34872SOL    HW1 8208   9.306   8.410   0.525  0.4232 -1.9658 -0.2323
34872SOL    HW2 8209   9.162   8.436   0.486  0.4092 -0.5854  0.6660
34873SOL     OW 8210   5.813   2.543   0.884  0.0349  0.5879 -0.2054
34873SOL    HW1 8211   5.822   2.538   0.979  1.3415  1.8132 -0.2194
34873SOL    HW2 8212   5.899   2.571   0.853  0.7659 -3.0967 -2.1123
34874SOL     OW 8213   4.922  10.103   6.928 -0.1529  0.3878 -0.5179
34874SOL    HW1 8214   4.834  10.116   6.891  0.0691  0.1967 -1.1376
34874SOL    HW2 8215   4.940  10.010   6.915 -0.2680  0.2069  0.5510
34875SOL     OW 8216   6.386   2.182   0.300  0.0565 -0.6232  0.1614
34875SOL    HW1 8217   6.329   2.214   0.370 -0.9042  1.2206 -1.3790
34875SOL    HW2 8218   6.331   2.122   0.250  0.3009 -0.8257  0.1286
34876SOL     OW 8219   3.482   1.294   7.185 -0.0721  0.3392 -0.0531
34876SOL    HW1 8220   3.528   1.221   7.226  1.6553 -0.3002 -2.8769
34876SOL    HW2 8221   3.550   1.345   7.142 -1.7017  0.7331 -2.3791
34877SOL     OW 8222  10.763  10.350  10.645 -0.7107  0.2291 -0.1510
34877SOL    HW1 8223  10.708  10.284  10.602  0.1059  0.1513 -1.1259
34877SOL    HW2 8224  10.812  10.302  10.711 -1.9746  0.3446  0.8950
34878SOL     OW 8225   8.234   2.496   2.193 -0.2373  0.1277  0.1446
34878SOL    HW1 8226   8.203   2.540   2.272  1.4956  0.7015  0.5541
34878SOL    HW2 8227   8.197   2.547   2.121  1.4922  2.1962  0.6137
34879SOL     OW 8228   9.211   2.763   2.305  0.2430 -0.8026  0.0989
34879SOL    HW1 8229   9.134   2.709   2.320  0.0898 -0.3969  0.8189
34879SOL    HW2 8230   9.207   2.786   2.212 -0.2858 -1.1145  0.0419
34880SOL     OW 8231   4.655   4.803   0.577 -0.3524  0.5098  0.1067
34880SOL    HW1 8232   4.748   4.805   0.554 -0.8143 -2.1026 -2.6266
34880SOL    HW2 8233   4.646   4.726   0.633 -1.1387 -0.9668 -1.8966
34881SOL     OW 8234   9.469   3.601  10.985 -0.1444 -0.0202  0.4971
34881SOL    HW1 8235   9.450   3.581  10.893 -0.1176 -2.5641  0.9660
34881SOL    HW2 8236   9.402   3.664  11.010 -1.3019 -0.6761 -0.8037
34882SOL     OW 8237  10.707   7.857   0.937  1.0302  0.0762  0.4148
34882SOL    HW1 8238  10.639   7.921   0.959  1.8636  1.2413 -0.2717
34882SOL    HW2 8239  10.729   7.817   1.020 -0.5178 -0.3692  0.6507
34883SOL     OW 8240  10.922   8.313   4.716  0.3110 -0.8268 -0.0347
34883SOL    HW1 8241  10.878   8.241   4.670  0.4064 -0.3745 -0.8481
34883SOL    HW2 8242  11.013   8.307   4.687  0.0118  0.6175 -1.4157
34884SOL     OW 8243   3.499   8.219   8.685  0.1884 -0.0502 -0.2342
34884SOL    HW1 8244   3.426   8.247   8.631 -1.6131 -2.7815  0.5859
34884SOL    HW2 8245   3.558   8.173   8.625 -0.2391 -0.3564 -0.4198
34885SOL     OW 8246   4.019   7.644   2.516  0.2916 -0.5568 -0.4567
34885SOL    HW1 8247   4.083   7.705   2.479  2.5459 -2.8154 -0.5392
34885SOL    HW2 8248   3.995   7.683   2.600  2.2733  0.0705 -0.1279
34886SOL     OW 8249   9.951   7.085   6.792 -0.9275  0.0495 -0.4383
34886SOL    HW1 8250   9.879   7.045   6.743  0.1518 -0.3863 -1.7557
34886SOL    HW2 8251   9.955   7.175   6.760 -0.6658 -0.0331 -0.6436
34887SOL     OW 8252   6.842   5.073   8.339  0.0585 -0.2950 -0.1933
34887SOL    HW1 8253   6.861   5.163   8.365 -1.5584 -0.0313  0.1680
34887SOL    HW2 8254   6.919   5.046   8.290  1.1219  0.8439  0.7872
34888SOL     OW 8255   6.631   7.880  11.099 -0.1036 -0.2819  0.4111
34888SOL    HW1 8256   6.663   7.808  11.044 -0.6046  0.7049 -1.2244
34888SOL    HW2 8257   6.564   7.840  11.154  1.4299 -1.6139  1.4237
34889SOL     OW 8258   1.319   8.511   0.727  0.1929 -0.4535  0.9833
34889SOL    HW1 8259   1.307   8.590   0.675 -1.0666 -2.2873 -1.7231
34889SOL    HW2 8260   1.406   8.479   0.704 -0.4652 -1.4046 -0.3108
34890SOL     OW 8261   3.261   3.061   7.162 -0.4720  0.2574 -0.2391
34890SOL    HW1 8262   3.264   3.133   7.224 -0.9135 -1.3157  1.6793
34890SOL    HW2 8263   3.318   2.994   7.200 -0.8843 -0.8236 -1.4490
34891SOL     OW 8264   7.935   9.844   9.821  0.2439 -0.5040 -0.6504
34891SOL    HW1 8265   7.895   9.869   9.737  0.7992 -0.9221 -1.0498
34891SOL    HW2 8266   7.905   9.754   9.836  1.7292 -1.1659 -1.4177
34892SOL     OW 8267   2.835   0.516  10.402  0.4352 -0.2532 -0.0645
34892SOL    HW1 8268   2.779   0.578  10.355 -0.9978 -0.1662  1.6792
34892SOL    HW2 8269   2.792   0.431  10.391  2.1294 -0.9538 -2.0290
34893SOL     OW 8270   7.179   9.057   7.804 -0.1146  0.0938 -0.3127
34893SOL    HW1 8271   7.086   9.034   7.810 -0.6639  1.9020 -1.0989
34893SOL    HW2 8272   7.217   9.024   7.886 -1.2269 -1.4907 -0.3883
34894SOL     OW 8273   5.322   0.349   8.210  0.2335  0.3762  0.3969
34894SOL    HW1 8274   5.409   0.368   8.245  0.8223  0.4070 -1.0187
34894SOL    HW2 8275   5.273   0.315   8.285  2.0172 -1.4063  0.8614
34895SOL     OW 8276  10.538   5.923   6.510  0.0635 -0.2311  0.0263
34895SOL    HW1 8277  10.504   6.003   6.549  0.8015 -0.1348  0.4856
34895SOL    HW2 8278  10.572   5.873   6.584  0.0911 -0.7331 -0.3224
34896SOL     OW 8279   3.707   9.528   5.888 -0.5956  0.0387  0.1291
34896SOL    HW1 8280   3.655   9.464   5.935 -0.2390 -0.2840  0.0896
34896SOL    HW2 8281   3.715   9.493   5.799 -0.5243  0.2078  0.0682
34897SOL     OW 8282   5.792   5.740   5.593 -0.1274  0.0082 -0.0903
34897SOL    HW1 8283   5.859   5.774   5.651 -0.0835  1.2228 -0.8247
34897SOL    HW2 8284   5.838   5.675   5.539 -0.4535 -2.1106  2.0293
34898SOL     OW 8285   1.303   9.793  10.720 -0.1676 -0.9542  0.1779
34898SOL    HW1 8286   1.318   9.804  10.626 -1.7048  1.3536  0.1305
34898SOL    HW2 8287   1.369   9.850  10.761 -1.5579  0.6505  0.3153
34899SOL     OW 8288   7.728   2.401   8.353 -0.0591 -0.3446  0.8466
34899SOL    HW1 8289   7.771   2.467   8.299 -1.3980  0.9304  1.2794
34899SOL    HW2 8290   7.798   2.365   8.407  0.7963  0.3033  0.1946
34900SOL     OW 8291   4.498   3.982   3.364 -0.4636 -0.1987 -0.3378
34900SOL    HW1 8292   4.538   4.067   3.346  1.7559 -0.7896  1.2474
34900SOL    HW2 8293   4.423   3.977   3.306  0.3655  2.1033 -1.7236
34901SOL     OW 8294  10.480   9.940   7.622  0.3576 -0.0122 -0.2533
34901SOL    HW1 8295  10.475   9.957   7.716 -1.0789 -0.5404 -0.1974
34901SOL    HW2 8296  10.444   9.851   7.612  1.4457 -0.3733 -1.2027
34902SOL     OW 8297   6.035   6.916   4.660  0.2451 -0.1057 -0.0610
34902SOL    HW1 8298   6.017   6.892   4.751  0.5434  0.6688  0.2119
34902SOL    HW2 8299   5.956   6.960   4.630  1.2945  2.6324  0.9035
34903SOL     OW 8300   3.954   1.288   2.298 -0.1155  0.2478 -0.1407
34903SOL    HW1 8301   4.030   1.343   2.317  0.5476 -0.7186  0.0247
34903SOL    HW2 8302   3.886   1.322   2.356  0.3940  0.6596  0.2258
34904SOL     OW 8303   5.126   0.665  10.678 -0.1740  0.3361 -0.0617
34904SOL    HW1 8304   5.162   0.588  10.634  0.6228  0.7038 -0.0599
34904SOL    HW2 8305   5.065   0.703  10.615  0.6981  0.6660 -0.7180
34905SOL     OW 8306  10.325   2.791   6.078 -0.2964  0.1571 -0.1367
34905SOL    HW1 8307  10.246   2.796   6.132 -0.4775  1.3491 -0.4831
34905SOL    HW2 8308  10.297   2.744   6.000 -1.0637  1.7666 -0.8782
34906SOL     OW 8309   4.685   4.891   9.950  0.6762 -0.1845  0.4413
34906SOL    HW1 8310   4.614   4.955   9.944  0.3344 -0.6218 -0.3413
34906SOL    HW2 8311   4.679   4.855  10.038  0.6511  0.5986  0.7678
34907SOL     OW 8312   5.176   2.845   1.559  0.3066 -0.1695 -0.3054
34907SOL    HW1 8313   5.084   2.862   1.540  0.1735  1.1019  1.3211
34907SOL    HW2 8314   5.192   2.758   1.521 -2.1571 -1.4095  1.2650
34908SOL     OW 8315   4.316   2.137   4.589  0.1734 -0.1248 -0.7878
34908SOL    HW1 8316   4.227   2.107   4.569 -0.3692  0.0237  1.2070
34908SOL    HW2 8317   4.335   2.100   4.675  0.9460  2.1035  0.0832
34909SOL     OW 8318   5.444  10.698  10.823 -0.1993  0.0100 -0.4293
34909SOL    HW1 8319   5.489  10.709  10.739  1.3477 -0.8376  0.2433
34909SOL    HW2 8320   5.410  10.608  10.820 -0.2841  0.0362 -0.2222
34910SOL     OW 8321   6.915   0.938   1.180  0.1144 -0.4152  0.6778
34910SOL    HW1 8322   7.002   0.957   1.145  0.6057 -2.1880  0.8576
34910SOL    HW2 8323   6.887   1.021   1.219  1.2717  0.4724 -0.2742
34911SOL     OW 8324   7.611   0.993   9.427  0.7272 -0.1501 -0.9074
34911SOL    HW1 8325   7.573   1.025   9.509 -0.7620 -2.3123 -0.6765
34911SOL    HW2 8326   7.695   1.039   9.421  1.3079 -0.5334  2.2905
34912SOL     OW 8327   6.911  10.834   2.878 -0.1984 -0.2528  0.5707
34912SOL    HW1 8328   6.971  10.901   2.912 -1.9221  1.0774  1.1269
34912SOL    HW2 8329   6.947  10.751   2.911  2.7486  0.1501 -1.2167
34913SOL     OW 8330   2.757   1.326   7.062 -0.4491  0.2503 -0.5262
34913SOL    HW1 8331   2.752   1.384   7.139 -0.3031  0.6949 -0.8507
34913SOL    HW2 8332   2.683   1.266   7.073 -0.7324  0.6343 -0.2972
34914SOL     OW 8333   6.152   6.810   1.321  0.3972  0.3791 -0.2337
34914SOL    HW1 8334   6.230   6.866   1.327  1.8641 -1.4914 -0.8645
34914SOL    HW2 8335   6.186   6.724   1.297 -1.5598 -1.2611  2.3064
34915SOL     OW 8336  10.956  10.980   3.031 -0.2830 -0.1563  0.1594
34915SOL    HW1 8337  10.917  10.909   2.980 -0.4407 -0.7742  1.0898
34915SOL    HW2 8338  10.984  11.044   2.967 -1.1018 -0.5816 -0.6507
34916SOL     OW 8339  10.049   8.170   5.609 -0.3327  0.1918 -0.2488
34916SOL    HW1 8340   9.974   8.189   5.553  0.2717 -0.2370 -1.2299
34916SOL    HW2 8341  10.101   8.251   5.608 -0.9266  0.6084  0.7066
34917SOL     OW 8342   3.461   8.251   4.813 -0.3211  0.0323  0.4650
34917SOL    HW1 8343   3.469   8.259   4.718  1.5851  0.9533  0.6557
34917SOL    HW2 8344   3.476   8.158   4.831  0.0322 -0.0172 -0.0824
34918SOL     OW 8345   7.442   3.275   4.795  0.3215  0.2668 -0.4929
34918SOL    HW1 8346   7.380   3.232   4.737  0.7764  0.3488 -1.0455
34918SOL    HW2 8347   7.424   3.237   4.881  0.8892 -1.2680 -1.0040
34919SOL     OW 8348   2.076   2.462   8.502 -0.2673  0.1686 -0.6522
34919SOL    HW1 8349   2.163   2.423   8.502 -1.5718 -3.1334  1.2582
34919SOL    HW2 8350   2.059   2.484   8.410  0.9066 -3.3305 -1.8536
34920SOL     OW 8351   9.846   6.528   3.671  0.0902 -0.5776  0.2297
34920SOL    HW1 8352   9.872   6.580   3.747  0.0114  0.1340 -0.2189
34920SOL    HW2 8353   9.758   6.497   3.692 -0.0696 -0.0947  0.2853
34921SOL     OW 8354   2.920   1.449  10.120  0.0014 -0.0165  0.1266
34921SOL    HW1 8355   2.827   1.468  10.109  0.3981  1.3951 -1.0590
34921SOL    HW2 8356   2.940   1.384  10.053 -0.2575 -0.8920  0.8696
34922SOL     OW 8357   7.395   4.189   9.290 -0.1966 -0.0318  0.1626
34922SOL    HW1 8358   7.428   4.278   9.275 -1.7010  0.5646  0.1350
34922SOL    HW2 8359   7.455   4.132   9.243  0.2089  1.0655 -0.6759
34923SOL     OW 8360   9.496   2.384   7.848  0.0250  0.2811  0.3068
34923SOL    HW1 8361   9.494   2.410   7.940 -0.7225 -1.1999  0.7330
34923SOL    HW2 8362   9.527   2.294   7.849 -1.9798 -0.4751 -0.6879
34924SOL     OW 8363   8.584   4.526   9.649  0.0772  0.0716 -0.4703
34924SOL    HW1 8364   8.636   4.540   9.728 -0.2448  3.3338 -0.7076
34924SOL    HW2 8365   8.498   4.563   9.670 -0.6444 -0.7856 -1.7356
34925SOL     OW 8366   9.318   1.358   4.352  0.3818 -0.3586 -0.6433
34925SOL    HW1 8367   9.351   1.317   4.432 -0.4596 -3.7287 -1.8539
34925SOL    HW2 8368   9.326   1.452   4.368  1.1289 -0.9022  2.9801
34926SOL     OW 8369   5.144  10.027  10.116 -0.2529  0.0112 -0.6986
34926SOL    HW1 8370   5.232   9.995  10.100 -0.7514 -1.0056 -1.4723
34926SOL    HW2 8371   5.152  10.081  10.195  0.7633 -1.3018  0.1197
34927SOL     OW 8372   9.387   6.787   9.619  0.0478 -0.0850  0.1523
34927SOL    HW1 8373   9.376   6.725   9.691 -0.7910  0.5317  0.5753
34927SOL    HW2 8374   9.480   6.806   9.617  0.2092 -0.8074  0.4866
34928SOL     OW 8375   3.282   0.515   6.011  0.3153  0.2390 -0.3489
34928SOL    HW1 8376   3.263   0.602   5.976  3.7338  1.3871  0.2616
34928SOL    HW2 8377   3.312   0.465   5.935  0.7972  0.4273 -0.2863
34929SOL     OW 8378   1.110   8.822   8.745 -0.3074 -0.4377 -0.4082
34929SOL    HW1 8379   1.127   8.729   8.739 -1.1353 -0.5607 -1.1110
34929SOL    HW2 8380   1.152   8.850   8.826  0.8258 -1.2093 -0.7243
34930SOL     OW 8381   3.582   3.366   2.607  0.8201 -0.2628  0.0799
34930SOL    HW1 8382   3.602   3.384   2.515  0.2473 -0.7987 -0.1546
34930SOL    HW2 8383   3.649   3.414   2.656  2.2814 -1.4753 -0.6510
34931SOL     OW 8384   2.317   2.906   0.827  0.0056 -0.6003  0.3923
34931SOL    HW1 8385   2.258   2.981   0.818  0.1416 -0.5168  0.1684
34931SOL    HW2 8386   2.403   2.941   0.806  0.3477 -0.4224  1.9895
34932SOL     OW 8387   2.582   0.803  10.482 -0.4367  0.3411 -0.0385
34932SOL    HW1 8388   2.558   0.894  10.499 -0.8514  0.3241 -0.5083
34932SOL    HW2 8389   2.633   0.807  10.401 -2.6795 -0.1208 -1.5578
34933SOL     OW 8390   9.780   3.578   4.966 -0.3173  0.5654  0.1708
34933SOL    HW1 8391   9.860   3.629   4.980  0.4405 -0.5681  0.1717
34933SOL    HW2 8392   9.718   3.612   5.030  0.6894  0.4378  1.2507
34934SOL     OW 8393   2.640   7.072   0.247 -0.1946  0.2439 -0.3351
34934SOL    HW1 8394   2.597   6.987   0.242 -0.4770  0.4403 -1.5337
34934SOL    HW2 8395   2.678   7.085   0.160  1.2293  0.6424  0.3162
34935SOL     OW 8396   2.857   2.817   2.719  0.1143 -0.2679 -0.6824
34935SOL    HW1 8397   2.815   2.886   2.770 -0.6281 -1.8414  0.9385
34935SOL    HW2 8398   2.806   2.814   2.637  1.0901  2.0328 -1.4520
34936SOL     OW 8399   0.522   2.297   1.685 -0.1692 -0.1231  0.2821
34936SOL    HW1 8400   0.604   2.268   1.726 -1.0174  0.1794  2.2750
34936SOL    HW2 8401   0.539   2.288   1.591  2.1065 -0.1883  0.6298
34937SOL     OW 8402   2.412   4.447   6.988 -0.0809 -0.1164 -0.5232
34937SOL    HW1 8403   2.376   4.510   7.050 -1.3257 -1.7972  0.5492
34937SOL    HW2 8404   2.483   4.494   6.945  0.0403  1.5156  1.3108
34938SOL     OW 8405   3.541   3.567   2.247 -0.4155 -0.0295 -0.3897
34938SOL    HW1 8406   3.525   3.496   2.184  1.6941  0.2180 -1.3072
34938SOL    HW2 8407   3.532   3.647   2.196  1.4125  0.1716 -0.4804
34939SOL     OW 8408   7.169   3.761   0.369  0.7661  0.1735 -0.2591
34939SOL    HW1 8409   7.205   3.732   0.285  1.5614 -1.0565  0.4763
34939SOL    HW2 8410   7.168   3.682   0.423 -0.1571  0.8523  0.7564
34940SOL     OW 8411  10.098   1.276   6.760 -0.1794 -0.5359 -0.0591
34940SOL    HW1 8412  10.169   1.224   6.798  0.8123  1.0961  0.4501
34940SOL    HW2 8413  10.096   1.249   6.668 -2.2003 -4.0915  0.8483
34941SOL     OW 8414   9.360   7.615   2.815  0.5256 -0.4019  0.9121
34941SOL    HW1 8415   9.303   7.557   2.763  1.4301 -0.7574  0.2910
34941SOL    HW2 8416   9.448   7.599   2.781  0.8127  1.3643  0.6914
34942SOL     OW 8417   9.978  10.770   9.838 -0.5044  0.3880 -0.0100
34942SOL    HW1 8418  10.035  10.786   9.914  0.0307  0.4198 -0.4143
34942SOL    HW2 8419   9.935  10.687   9.857 -1.3267  0.9931  0.9022
34943SOL     OW 8420   3.751   9.935   3.278  0.1602  0.5339  0.0624
34943SOL    HW1 8421   3.831   9.901   3.317 -0.6294  0.0196  1.2757
34943SOL    HW2 8422   3.689   9.862   3.283 -0.4669  0.9950 -0.6564
34944SOL     OW 8423   0.882   8.098   6.824  0.0184  0.2855  0.5490
34944SOL    HW1 8424   0.829   8.143   6.890  1.6581  1.7305  0.9406
34944SOL    HW2 8425   0.818   8.047   6.773 -1.9025  2.6207  0.4264
34945SOL     OW 8426   3.089   2.762   4.851  0.3635  0.4083  0.2407
34945SOL    HW1 8427   3.176   2.722   4.858  0.9018  1.7623  1.8563
34945SOL    HW2 8428   3.104   2.843   4.803 -0.3726 -0.2723 -1.1957
34946SOL     OW 8429   3.331   1.134  10.885  0.5106 -0.1123  0.2077
34946SOL    HW1 8430   3.316   1.213  10.937 -2.6048 -0.0591 -0.5975
34946SOL    HW2 8431   3.308   1.158  10.796  2.8954 -1.0345 -0.7400
34947SOL     OW 8432   9.242   6.030   2.214 -0.4778 -0.3429  0.3366
34947SOL    HW1 8433   9.240   5.981   2.132 -0.6199 -0.0346  0.1546
34947SOL    HW2 8434   9.150   6.031   2.243 -0.2549 -1.5318  1.1476
34948SOL     OW 8435   1.263   9.036  10.814  0.1495  0.8529 -0.6459
34948SOL    HW1 8436   1.254   8.965  10.750  0.7686 -0.6521  0.8446
34948SOL    HW2 8437   1.316   9.102  10.769  0.5449 -0.1408 -1.6963
34949SOL     OW 8438   5.355   4.300   6.374 -0.1031  0.4138  0.3623
34949SOL    HW1 8439   5.388   4.210   6.368  0.4155  0.7026 -1.6682
34949SOL    HW2 8440   5.354   4.318   6.468  4.8725  0.0774  0.7850
34950SOL     OW 8441   7.296   7.372   9.668 -0.1055  0.1706 -0.1663
34950SOL    HW1 8442   7.388   7.366   9.644 -0.0552 -0.0618  0.0799
34950SOL    HW2 8443   7.280   7.295   9.722 -0.1595  0.7884  0.7265
34951SOL     OW 8444  10.672   9.872   2.798 -0.1393 -0.2110 -0.3920
34951SOL    HW1 8445  10.690   9.963   2.772 -0.4928 -0.2452 -0.7741
34951SOL    HW2 8446  10.596   9.878   2.855 -0.5630 -0.3246 -0.9339
34952SOL     OW 8447   3.464   9.481   6.236  0.0640  0.3773  0.3303
34952SOL    HW1 8448   3.375   9.492   6.271 -0.1644  0.9662 -0.4088
34952SOL    HW2 8449   3.462   9.396   6.192 -1.2760  1.9176 -2.8807
34953SOL     OW 8450   8.441   7.129   2.535 -1.3205  0.0228  0.0014
34953SOL    HW1 8451   8.404   7.209   2.498 -0.0766  0.9713  0.6937
34953SOL    HW2 8452   8.382   7.104   2.605 -2.8371 -0.8898 -1.5197
34954SOL     OW 8453   7.550   6.010   5.025 -0.3757  0.2410 -0.0038
34954SOL    HW1 8454   7.601   5.931   5.043  1.7851  1.4993 -0.2800
34954SOL    HW2 8455   7.542   6.053   5.110  2.1044  1.7278 -0.4096
34955SOL     OW 8456   9.913   5.109   6.687 -0.7906  0.2551  0.0728
34955SOL    HW1 8457  10.005   5.131   6.673 -0.2769 -1.5249  0.3675
34955SOL    HW2 8458   9.881   5.177   6.747  0.7609  0.0411  1.2248
34956SOL     OW 8459   3.664   9.894  10.649  0.2753 -0.0927 -0.4291
34956SOL    HW1 8460   3.719   9.873  10.724 -0.4794 -0.8135 -0.0566
34956SOL    HW2 8461   3.707   9.969  10.608  0.2086  0.9450  1.2618
34957SOL     OW 8462   5.301   5.523  10.641  0.3830 -0.0661 -0.0513
34957SOL    HW1 8463   5.388   5.483  10.643  1.3578  1.9021 -0.9049
34957SOL    HW2 8464   5.267   5.510  10.730  1.5221 -0.9003  0.2832
34958SOL     OW 8465   9.241   1.876   7.688 -0.1942  0.2024 -0.1330
34958SOL    HW1 8466   9.316   1.866   7.629 -0.0365 -0.6606  0.2037
34958SOL    HW2 8467   9.256   1.962   7.730 -0.0380  0.5855 -0.9510
34959SOL     OW 8468   5.037   6.482   0.153  0.7101  0.4991  0.5421
34959SOL    HW1 8469   5.054   6.540   0.228  3.9171  0.9202 -0.3829
34959SOL    HW2 8470   5.123   6.461   0.118 -0.5281 -1.9497 -1.4116
34960SOL     OW 8471   8.851  10.238   7.855  1.0518 -0.3963  0.2513
34960SOL    HW1 8472   8.899  10.302   7.907  0.5260 -0.0890  0.3624
34960SOL    HW2 8473   8.898  10.156   7.867  1.5865 -0.0813  0.3034
34961SOL     OW 8474   0.014  10.167   3.185 -0.5018  0.4058 -0.4663
34961SOL    HW1 8475  -0.003  10.260   3.169 -0.3894  0.3315 -1.0443
34961SOL    HW2 8476   0.110  10.160   3.184 -0.4304  0.6105  1.5203
34962SOL     OW 8477   8.413   0.425   7.174  0.0420  0.0981 -0.2873
34962SOL    HW1 8478   8.383   0.514   7.157  0.6101  0.3452 -0.0072
34962SOL    HW2 8479   8.470   0.432   7.250 -0.9477 -0.7107  0.5586
34963SOL     OW 8480   2.539   8.874   2.771  0.3191 -0.4396 -0.5149
34963SOL    HW1 8481   2.534   8.924   2.689  1.0442 -1.7789 -1.4272
34963SOL    HW2 8482   2.485   8.922   2.833  0.9916  1.4515 -1.3386
34964SOL     OW 8483   7.647   1.913  10.909 -0.6136  0.4867 -0.2301
34964SOL    HW1 8484   7.625   2.002  10.939 -1.2074  0.2111  0.1877
34964SOL    HW2 8485   7.586   1.896  10.837 -0.2562  0.5511 -0.5496
34965SOL     OW 8486   5.721   0.822   7.169  0.0313  0.6740 -0.0792
34965SOL    HW1 8487   5.701   0.792   7.080  0.3393 -1.3774  0.4880
34965SOL    HW2 8488   5.649   0.881   7.190 -0.5259  0.5022 -1.3721
34966SOL     OW 8489   3.116   6.333  10.395 -1.0249  0.2714 -0.5822
34966SOL    HW1 8490   3.154   6.405  10.345 -2.7390  0.0332 -2.3620
34966SOL    HW2 8491   3.070   6.376  10.468 -2.1753  1.0375 -1.7164
34967SOL     OW 8492   2.918   5.539   7.875  0.0525  0.4838  0.1558
34967SOL    HW1 8493   2.892   5.598   7.804 -1.7833 -1.2448 -0.7167
34967SOL    HW2 8494   2.844   5.479   7.883  1.8306 -1.6840  1.0033
34968SOL     OW 8495   1.701   2.127   9.196 -0.3580  0.6884  0.2101
34968SOL    HW1 8496   1.662   2.095   9.277  0.9953  2.1950  1.5080
34968SOL    HW2 8497   1.703   2.050   9.139 -5.0038  0.4205  0.0135
34969SOL     OW 8498   1.524   5.452   8.743  0.6523 -0.1739  0.5821
34969SOL    HW1 8499   1.563   5.509   8.808 -2.4834  2.1556  0.6211
34969SOL    HW2 8500   1.434   5.440   8.771  0.0110 -1.6288 -1.7424
34970SOL     OW 8501   1.421   5.775   1.040 -0.4001 -0.3118 -0.3595
34970SOL    HW1 8502   1.392   5.860   1.074  0.4565  0.3438 -1.2316
34970SOL    HW2 8503   1.434   5.790   0.946  1.5398 -0.9106 -0.2168
34971SOL     OW 8504   9.084   6.388   0.034 -0.3597 -0.3058  0.0535
34971SOL    HW1 8505   9.162   6.442   0.035 -0.9544  0.6594  2.7018
34971SOL    HW2 8506   9.098   6.327  -0.038  2.0303  0.9302 -0.6348
34972SOL     OW 8507   2.862   0.588   5.972  0.4121 -0.3126  0.0314
34972SOL    HW1 8508   2.787   0.642   5.996  1.8666  1.5272  0.6707
34972SOL    HW2 8509   2.897   0.556   6.055  0.4435 -1.0472 -0.2511
34973SOL     OW 8510   9.512   1.663   5.261 -0.3391 -0.5157  0.1679
34973SOL    HW1 8511   9.494   1.671   5.168  2.1862 -0.4826 -0.4035
34973SOL    HW2 8512   9.426   1.667   5.303 -1.3957  1.8811 -1.9554
34974SOL     OW 8513   3.087   0.343   4.315  0.4543 -0.2285 -0.0105
34974SOL    HW1 8514   3.111   0.362   4.406 -0.5044  0.5855  0.0867
34974SOL    HW2 8515   3.094   0.427   4.270 -0.5024 -0.3229 -0.3500
34975SOL     OW 8516   2.433   0.818   9.452  0.5753  0.1078 -0.3622
34975SOL    HW1 8517   2.345   0.804   9.486  1.0783 -0.9275  0.5947
34975SOL    HW2 8518   2.472   0.881   9.513  0.0527  1.7418 -1.6312
34976SOL     OW 8519   1.708   3.599   9.002 -0.8342  0.2284 -0.1113
34976SOL    HW1 8520   1.744   3.636   8.921 -1.0893 -0.1404 -0.3995
34976SOL    HW2 8521   1.745   3.653   9.072 -0.7080  0.6276 -0.4830
34977SOL     OW 8522   9.479   9.786   2.634 -0.2832 -0.3291  0.1549
34977SOL    HW1 8523   9.476   9.721   2.564 -0.5188  0.5888 -0.7133
34977SOL    HW2 8524   9.554   9.842   2.612 -0.5705  0.1799  0.4275
34978SOL     OW 8525  10.322   6.389   5.774 -0.2596 -0.6077  0.4291
34978SOL    HW1 8526  10.296   6.404   5.683 -0.8578 -0.1237  0.6734
34978SOL    HW2 8527  10.256   6.434   5.826  1.8366  2.0861  1.0477
34979SOL     OW 8528   9.476   1.621   1.711  0.3297  0.5246 -0.0568
34979SOL    HW1 8529   9.481   1.529   1.735  0.3746  0.4924 -0.1937
34979SOL    HW2 8530   9.563   1.656   1.730 -0.2523  1.0368  2.0581
34980SOL     OW 8531   7.997   3.891   5.990 -0.4373  0.5240 -0.6299
34980SOL    HW1 8532   7.935   3.857   5.925 -0.8256  0.9459 -0.4802
34980SOL    HW2 8533   8.066   3.825   5.992 -1.7869 -0.9400  0.5797
34981SOL     OW 8534   1.636   1.683   6.424  0.1367  0.2860 -0.3691
34981SOL    HW1 8535   1.554   1.708   6.381 -0.9219 -1.8106  0.2687
34981SOL    HW2 8536   1.685   1.637   6.357 -0.4292 -0.8151 -0.0549
34982SOL     OW 8537   2.954   1.759   3.532  0.5229  0.1445  0.0260
34982SOL    HW1 8538   2.881   1.793   3.480  1.5760  1.5988 -0.5874
34982SOL    HW2 8539   2.983   1.681   3.485 -0.0581  0.0861 -0.2378
34983SOL     OW 8540  10.738   7.490   4.655 -0.1624 -0.5040 -0.0677
34983SOL    HW1 8541  10.718   7.406   4.696  1.6599 -1.4277 -0.9496
34983SOL    HW2 8542  10.758   7.467   4.564  1.8854  0.6310  0.0403
34984SOL     OW 8543   7.587   3.403   2.134 -0.1759 -0.1686  0.4180
34984SOL    HW1 8544   7.621   3.400   2.223 -0.9107 -0.6507  0.6834
34984SOL    HW2 8545   7.567   3.312   2.112 -1.4189  0.1062  0.3253
34985SOL     OW 8546   3.254   2.915   9.756  0.1259  0.0005 -0.0656
34985SOL    HW1 8547   3.273   2.822   9.743 -0.0140 -0.2148  1.2239
34985SOL    HW2 8548   3.276   2.932   9.847 -0.5129  1.0713 -0.0944
34986SOL     OW 8549  10.585   7.357   8.992  0.3990 -0.5705 -0.3321
34986SOL    HW1 8550  10.600   7.449   9.013 -0.3466 -0.8467  1.5065
34986SOL    HW2 8551  10.498   7.338   9.026  0.4831 -1.9404 -0.8248
34987SOL     OW 8552   3.307   5.293  11.112  0.2194 -0.6677 -0.0577
34987SOL    HW1 8553   3.366   5.239  11.165  1.4387 -0.7034 -1.3741
34987SOL    HW2 8554   3.257   5.230  11.061  3.3331 -0.7464 -3.4140
34988SOL     OW 8555  10.316   5.229   6.928  0.2433  0.1686 -0.6343
34988SOL    HW1 8556  10.387   5.231   6.993  0.0707 -0.3212 -0.4274
34988SOL    HW2 8557  10.274   5.144   6.940 -0.8921  0.7645 -0.2119
34989SOL     OW 8558   1.598   9.011   6.213  0.2351  0.0403  0.3741
34989SOL    HW1 8559   1.504   9.030   6.214  0.6909  2.6004  0.8997
34989SOL    HW2 8560   1.615   8.969   6.297 -0.4149 -0.2667  0.3561
34990SOL     OW 8561   2.293  11.035   2.214 -0.3080  0.1314 -0.0837
34990SOL    HW1 8562   2.317  10.959   2.268 -0.7204  1.7846  2.6562
34990SOL    HW2 8563   2.199  11.025   2.199 -0.1747 -0.3846 -0.5997
34991SOL     OW 8564   8.714   1.435   4.821 -0.6390 -0.3583 -0.4883
34991SOL    HW1 8565   8.638   1.410   4.768 -1.2839  0.2218  0.1313
34991SOL    HW2 8566   8.747   1.514   4.779 -1.1775  0.1277 -0.0118
34992SOL     OW 8567   3.909   7.160   4.863  0.3589  0.2924 -0.5382
34992SOL    HW1 8568   3.978   7.114   4.814 -0.1000 -0.6388 -0.3326
34992SOL    HW2 8569   3.869   7.218   4.798  0.6444  0.0649 -0.9247
34993SOL     OW 8570   5.456  10.467   8.364  0.5555  0.1311  0.0887
34993SOL    HW1 8571   5.392  10.437   8.300  0.7695  3.1801 -1.7749
34993SOL    HW2 8572   5.424  10.435   8.448 -2.7791  0.5555 -0.8963
34994SOL     OW 8573   0.238  10.129   0.694  0.3502 -0.0984  0.1814
34994SOL    HW1 8574   0.274  10.041   0.703  0.6101  0.2398  3.4959
34994SOL    HW2 8575   0.174  10.136   0.764  0.1935  2.3140 -0.1205
34995SOL     OW 8576  10.825   2.811  10.172 -0.0056  0.8024  0.2876
34995SOL    HW1 8577  10.758   2.791  10.107  0.9362 -0.6301 -0.2834
34995SOL    HW2 8578  10.883   2.735  10.171  1.1532  1.6332  1.3770
34996SOL     OW 8579   0.040   1.330   7.535 -0.7727 -0.0949 -0.1356
34996SOL    HW1 8580   0.040   1.301   7.626 -0.1454  1.4041  0.3782
34996SOL    HW2 8581  -0.041   1.381   7.526 -1.6502 -1.5302 -0.9082
34997SOL     OW 8582   7.229   7.330  10.323  0.1679  0.1727  0.8869
34997SOL    HW1 8583   7.308   7.334  10.269  0.9106  1.3149  2.0301
34997SOL    HW2 8584   7.163   7.291  10.265  1.6404 -1.1601  0.0297
34998SOL     OW 8585   6.719   2.428   0.944 -0.0310 -0.0937 -0.8779
34998SOL    HW1 8586   6.697   2.501   1.002 -0.7029 -1.1439  0.2278
34998SOL    HW2 8587   6.804   2.396   0.977 -0.7508 -1.1452  0.0309
34999SOL     OW 8588   8.410   2.100   2.591  0.0125 -0.3182 -0.1976
34999SOL    HW1 8589   8.431   2.070   2.680  1.5671  0.7538 -0.1513
34999SOL    HW2 8590   8.466   2.177   2.579 -0.4991 -0.1928 -1.9548
35000SOL     OW 8591   3.694  10.301   2.796 -0.4406  0.0676 -0.0196
35000SOL    HW1 8592   3.698  10.213   2.758  0.1639 -0.0288  0.2605
35000SOL    HW2 8593   3.649  10.289   2.880  2.0627 -0.4729  1.3444
35001SOL     OW 8594   2.202   7.282   6.113  0.3890 -0.3135 -0.4039
35001SOL    HW1 8595   2.112   7.314   6.104  0.5256  0.7159  1.4883
35001SOL    HW2 8596   2.247   7.316   6.035 -0.5096  0.3776 -0.6383
35002SOL     OW 8597   3.381   7.538   6.350  0.2964 -0.3539  0.0304
35002SOL    HW1 8598   3.341   7.459   6.387 -0.4742 -0.5916 -1.2204
35002SOL    HW2 8599   3.475   7.522   6.354  0.2572 -0.2960  1.9549
35003SOL     OW 8600   6.816   3.660   5.783 -0.6418  0.1704 -0.6681
35003SOL    HW1 8601   6.773   3.637   5.865  1.7949 -4.1961 -0.2573
35003SOL    HW2 8602   6.775   3.603   5.718  0.5108  0.2094 -1.4639
35004SOL     OW 8603   2.384   2.897   8.650  0.0824  0.5438 -0.0670
35004SOL    HW1 8604   2.390   2.804   8.631  1.3643  0.7764 -0.8986
35004SOL    HW2 8605   2.360   2.937   8.567 -2.1606  0.8367  0.6369
35005SOL     OW 8606   3.305   2.662   1.425  0.2924 -0.6006  0.1901
35005SOL    HW1 8607   3.353   2.738   1.391  0.1503 -1.0745 -1.1033
35005SOL    HW2 8608   3.308   2.598   1.354 -2.1606 -0.6831  0.0818
35006SOL     OW 8609  10.738   8.475   1.532 -0.2107 -0.6457 -0.2484
35006SOL    HW1 8610  10.830   8.457   1.514  0.8778  1.1594  2.7363
35006SOL    HW2 8611  10.713   8.412   1.599 -1.5618 -1.8502 -1.8111
35007SOL     OW 8612   6.225   4.342   8.399  0.0696 -0.3024 -0.4954
35007SOL    HW1 8613   6.146   4.358   8.450  0.5609 -0.7974  0.4564
35007SOL    HW2 8614   6.238   4.247   8.404  1.0939 -0.1530 -0.0592
35008SOL     OW 8615   8.988  10.966  10.428 -0.2614  0.0084 -0.4808
35008SOL    HW1 8616   8.917  11.008  10.476  1.5373  0.6194  1.8253
35008SOL    HW2 8617   9.060  10.961  10.491  2.1426  0.4435 -2.9925
35009SOL     OW 8618   3.359   6.036   2.937 -0.2410 -0.7427  0.3739
35009SOL    HW1 8619   3.345   6.066   2.847  0.1526 -0.6828  0.3342
35009SOL    HW2 8620   3.421   6.099   2.975  1.7606 -2.2934 -0.1603
35010SOL     OW 8621   7.866   1.010   8.320 -0.0320 -0.2542  0.4768
35010SOL    HW1 8622   7.958   0.989   8.334  0.5953  2.6610  1.3283
35010SOL    HW2 8623   7.863   1.046   8.231 -0.3687 -0.3751  0.4371
35011SOL     OW 8624   2.039   0.313   6.943  0.0038  0.3650 -0.2424
35011SOL    HW1 8625   1.962   0.343   6.895 -0.6492 -0.2653  0.3722
35011SOL    HW2 8626   2.038   0.365   7.024  0.4985  0.6885 -0.4416
35012SOL     OW 8627   0.068   5.419   7.986 -0.2135 -0.2137  0.1025
35012SOL    HW1 8628   0.149   5.457   7.952 -0.6407  0.6078 -0.0096
35012SOL    HW2 8629   0.044   5.476   8.059  0.9189 -2.1811  2.1237
35013SOL     OW 8630   5.025  10.760   7.065  0.0605  0.4043 -0.7560
35013SOL    HW1 8631   5.066  10.847   7.070 -0.6515  0.7639 -1.0263
35013SOL    HW2 8632   5.097  10.702   7.039  0.5665  0.8912 -0.4823
35014SOL     OW 8633   6.423   5.140   5.192  0.2280 -0.8029  0.2879
35014SOL    HW1 8634   6.415   5.062   5.246  0.1428  0.0137  1.4901
35014SOL    HW2 8635   6.345   5.140   5.136  0.4543 -1.7962 -0.0456
35015SOL     OW 8636   5.112   5.574   4.133 -0.4794  0.3596  0.4182
35015SOL    HW1 8637   5.122   5.479   4.119  1.7319  0.8869 -2.8207
35015SOL    HW2 8638   5.156   5.591   4.216  1.6091 -1.1767 -0.2816
35016SOL     OW 8639   2.917   1.042   5.211 -0.3444  0.5726  0.0341
35016SOL    HW1 8640   2.913   0.960   5.160 -3.2571  0.3072  0.5236
35016SOL    HW2 8641   3.008   1.070   5.203  0.2229 -1.5005 -2.0703
35017SOL     OW 8642   6.861  10.309   8.909 -0.2403  0.4229 -0.2014
35017SOL    HW1 8643   6.944  10.278   8.946 -0.0393  0.5944 -0.5038
35017SOL    HW2 8644   6.837  10.385   8.963 -0.3318  0.2233  0.0445
35018SOL     OW 8645   0.624   1.546   8.101  0.1673  0.0180 -0.3198
35018SOL    HW1 8646   0.641   1.505   8.016 -0.0494 -0.1825 -0.2681
35018SOL    HW2 8647   0.539   1.512   8.128  0.4229 -0.2484  0.1731
35019SOL     OW 8648   6.014   8.217   0.908 -0.4217 -0.0524 -0.3541
35019SOL    HW1 8649   6.062   8.238   0.988 -2.5291 -0.5075  1.1253
35019SOL    HW2 8650   6.022   8.122   0.900  0.1180  0.0392 -0.9222
35020SOL     OW 8651   0.199   3.154   6.535  0.1307  0.2966 -0.2280
35020SOL    HW1 8652   0.292   3.150   6.557  0.0766  0.7759  0.1017
35020SOL    HW2 8653   0.154   3.152   6.620 -0.1235  1.0216 -0.3382
35021SOL     OW 8654   1.005   5.705   4.704  0.3236 -0.6713 -0.5920
35021SOL    HW1 8655   0.989   5.730   4.795  1.3156 -0.8587 -0.3521
35021SOL    HW2 8656   1.063   5.773   4.670  0.8970 -1.2237 -0.7334
35022SOL     OW 8657   1.523   3.117  11.020 -0.5181  0.0192  0.5517
35022SOL    HW1 8658   1.560   3.177  10.955  0.7410 -2.0997 -0.8089
35022SOL    HW2 8659   1.442   3.086  10.980 -0.8009  0.2460  0.9402
35023SOL     OW 8660  10.660  10.204   7.280 -0.8208  0.1478 -0.1337
35023SOL    HW1 8661  10.661  10.131   7.342 -0.1648  0.2211 -0.0527
35023SOL    HW2 8662  10.597  10.177   7.213  0.2801 -1.0115 -0.7256
35024SOL     OW 8663   2.260   9.480  10.662  0.2912  0.1385  0.5130
35024SOL    HW1 8664   2.184   9.516  10.708  0.9445 -0.0085  1.7295
35024SOL    HW2 8665   2.325   9.467  10.730 -0.2308 -4.3647  0.4242
35025SOL     OW 8666  10.733   8.099   0.191  0.9717 -0.4699  0.0714
35025SOL    HW1 8667  10.804   8.074   0.132 -1.4122  0.0442 -3.3045
35025SOL    HW2 8668  10.686   8.168   0.144 -0.6310  0.6540  3.0378
35026SOL     OW 8669   6.360   0.297   3.090 -0.0594  0.0905  0.3828
35026SOL    HW1 8670   6.347   0.390   3.069 -1.0001  0.1132  0.9958
35026SOL    HW2 8671   6.287   0.275   3.148 -0.3425 -1.2581 -0.4380
35027SOL     OW 8672   0.793   9.993   1.397  0.5041 -0.8165  0.9660
35027SOL    HW1 8673   0.772   9.934   1.325 -0.6070  0.7050 -0.0076
35027SOL    HW2 8674   0.842  10.065   1.357 -1.4135  0.8133  1.3798
35028SOL     OW 8675   4.012   2.547   5.645  0.5845 -0.2462  0.0215
35028SOL    HW1 8676   4.107   2.559   5.646  0.5678  0.0054 -0.6351
35028SOL    HW2 8677   3.998   2.471   5.589  0.3883 -0.1510 -0.0603
35029SOL     OW 8678   1.637   6.129   5.432 -0.2803 -0.2886  0.1323
35029SOL    HW1 8679   1.673   6.146   5.345  1.5748  1.9890  1.2419
35029SOL    HW2 8680   1.706   6.155   5.493 -1.8656 -0.8930  2.3405
35030SOL     OW 8681  10.296   9.406   1.356 -0.0119  0.0727  0.3499
35030SOL    HW1 8682  10.324   9.320   1.324 -1.5545 -0.1332 -0.5388
35030SOL    HW2 8683  10.302   9.464   1.280  0.4124  0.6154  0.7837
35031SOL     OW 8684  10.565   8.765   5.560  0.0686 -0.0739  0.2920
35031SOL    HW1 8685  10.618   8.837   5.525 -0.5245 -0.0787 -0.6475
35031SOL    HW2 8686  10.617   8.686   5.542 -0.4507 -0.1278 -1.0766
35032SOL     OW 8687   7.830   5.162   8.654 -0.4276 -0.2954  0.0574
35032SOL    HW1 8688   7.866   5.104   8.587 -0.4365  1.2946 -1.4000
35032SOL    HW2 8689   7.810   5.243   8.607 -0.8466  0.7351  1.9164
35033SOL     OW 8690   8.508   1.999   5.414  0.7781  0.3656 -0.6299
35033SOL    HW1 8691   8.456   2.043   5.347 -0.1108  2.1922  1.1333
35033SOL    HW2 8692   8.446   1.983   5.486  1.5350 -2.1442 -0.4329
35034SOL     OW 8693  10.170   9.908   6.487 -0.1337 -0.0874  0.9140
35034SOL    HW1 8694  10.240   9.842   6.484 -0.0923 -0.1671  2.7948
35034SOL    HW2 8695  10.155   9.923   6.580  0.8652  3.6770  0.5997
35035SOL     OW 8696   2.539   7.754   2.019  0.1843 -0.2082 -0.4109
35035SOL    HW1 8697   2.474   7.804   1.969  0.6080  1.2871  0.4752
35035SOL    HW2 8698   2.489   7.719   2.093 -0.0105 -0.7340 -0.7806
35036SOL     OW 8699   2.153   1.076   9.446  0.0027 -0.0260  0.0716
35036SOL    HW1 8700   2.144   1.055   9.539  0.0955 -2.4763 -0.4122
35036SOL    HW2 8701   2.068   1.053   9.408 -0.3796  1.8782 -0.3449
35037SOL     OW 8702   7.564   3.281   3.941 -0.3120 -0.1850 -0.3621
35037SOL    HW1 8703   7.489   3.320   3.896 -2.0047 -1.0562  1.5280
35037SOL    HW2 8704   7.584   3.202   3.890  0.5767  1.0150 -1.9440
35038SOL     OW 8705   5.946   6.788  10.075 -0.3309 -0.2192  0.2761
35038SOL    HW1 8706   5.937   6.756   9.985  0.5466 -1.5059  0.6268
35038SOL    HW2 8707   5.943   6.884  10.066  1.6370 -0.2326 -1.3765
35039SOL     OW 8708   5.837   9.349   9.364  0.6588 -0.0012  0.2604
35039SOL    HW1 8709   5.847   9.339   9.269 -1.3631  1.1295 -0.1233
35039SOL    HW2 8710   5.919   9.391   9.391  0.2107  2.2519 -1.4835
35040SOL     OW 8711   4.975   1.431   1.813  0.3496  0.3427  0.4918
35040SOL    HW1 8712   4.949   1.523   1.816  0.1937  0.4571 -2.3277
35040SOL    HW2 8713   4.893   1.383   1.825  0.3880  0.5368  1.6604
35041SOL     OW 8714   8.348   1.195   2.457  0.2728 -0.0454 -0.2777
35041SOL    HW1 8715   8.399   1.276   2.449 -0.3297  0.4297  0.5052
35041SOL    HW2 8716   8.396   1.144   2.523  0.3470 -0.0915 -0.3664
35042SOL     OW 8717   0.492   9.429   9.022 -0.6660 -0.2520 -0.2407
35042SOL    HW1 8718   0.581   9.457   9.002 -0.8398  0.1863 -0.4312
35042SOL    HW2 8719   0.497   9.334   9.030  0.0769 -0.1311  1.0743
35043SOL     OW 8720   1.313   6.571   6.864 -0.0552 -0.4548  0.0686
35043SOL    HW1 8721   1.286   6.572   6.772  0.8290  1.2099 -0.2050
35043SOL    HW2 8722   1.318   6.478   6.885  1.7160 -0.9757 -2.1957
35044SOL     OW 8723   0.216   2.400   8.495 -0.3828 -0.2891 -0.0955
35044SOL    HW1 8724   0.243   2.488   8.523  0.2393 -0.7210  0.6793
35044SOL    HW2 8725   0.283   2.374   8.431 -0.4329 -0.2971 -0.1447
35045SOL     OW 8726   1.396   9.465   5.209  0.2093  0.2576  0.3995
35045SOL    HW1 8727   1.460   9.537   5.201 -0.6075  0.9311 -0.2716
35045SOL    HW2 8728   1.371   9.466   5.301  1.1861 -0.0464  0.6844
35046SOL     OW 8729   9.147   9.194   5.936 -0.1523 -0.2527 -0.2912
35046SOL    HW1 8730   9.110   9.206   6.023 -1.1869 -1.0195 -0.5983
35046SOL    HW2 8731   9.241   9.210   5.947 -0.1863 -0.8546  1.0778
35047SOL     OW 8732   2.891   4.092   0.618 -0.1104  0.2780  0.3852
35047SOL    HW1 8733   2.986   4.081   0.608  0.2799  3.4976 -0.7079
35047SOL    HW2 8734   2.856   4.004   0.611  2.7941 -1.0516  0.9753
35048SOL     OW 8735   9.918   8.522   7.535  0.1659 -0.0818  0.2544
35048SOL    HW1 8736   9.949   8.436   7.508 -0.7536 -0.2388 -0.3410
35048SOL    HW2 8737   9.881   8.507   7.623 -0.9391 -0.5271 -0.2703
35049SOL     OW 8738   9.840   8.190   3.002  0.1477  0.5444  0.0647
35049SOL    HW1 8739   9.864   8.275   2.966  0.2871  1.2150  1.6630
35049SOL    HW2 8740   9.791   8.147   2.932  0.3510  1.7968 -0.8798
35050SOL     OW 8741   2.521  10.276   8.695  0.1576 -0.2834  0.1791
35050SOL    HW1 8742   2.523  10.335   8.620 -0.6914 -1.5453 -0.8880
35050SOL    HW2 8743   2.443  10.303   8.744 -0.6974 -1.0248 -0.7524
35051SOL     OW 8744   3.770   1.278   4.059  0.1267 -0.2701 -0.2289
35051SOL    HW1 8745   3.810   1.354   4.018 -0.3888 -1.2560 -2.7444
35051SOL    HW2 8746   3.800   1.204   4.006  0.1811 -1.7805  1.8017
35052SOL     OW 8747   3.890   7.772  10.076 -0.3224  0.4885  0.6305
35052SOL    HW1 8748   3.893   7.719  10.156  2.8268  0.4584  0.6257
35052SOL    HW2 8749   3.918   7.712  10.007  1.1234  1.5109  0.2653
35053SOL     OW 8750   1.599   4.638   3.078 -0.1914 -0.4397  0.0451
35053SOL    HW1 8751   1.552   4.689   3.012 -0.7152 -0.6926  0.2215
35053SOL    HW2 8752   1.617   4.702   3.148 -0.0787 -0.2918 -0.1179
35054SOL     OW 8753  10.203   0.371   5.594 -0.1182 -0.0379 -0.3780
35054SOL    HW1 8754  10.146   0.407   5.526 -0.2377 -0.2237 -0.3785
35054SOL    HW2 8755  10.184   0.423   5.671 -0.5630 -0.3377 -0.2807
35055SOL     OW 8756   0.845  10.537   2.613  0.8188 -0.0385 -0.3283
35055SOL    HW1 8757   0.846  10.576   2.700  0.5293 -0.7329 -0.0060
35055SOL    HW2 8758   0.761  10.563   2.576  0.0718 -1.3405  0.3638
35056SOL     OW 8759   3.867   0.371   5.507  0.0720  0.2063  0.4928
35056SOL    HW1 8760   3.944   0.315   5.493 -0.6135 -0.7290  0.4109
35056SOL    HW2 8761   3.841   0.396   5.418 -0.6092 -0.7200  0.4147
35057SOL     OW 8762   1.533   7.418   7.339 -0.4304  0.0674  0.0047
35057SOL    HW1 8763   1.555   7.445   7.250  0.2572 -2.1787 -0.5821
35057SOL    HW2 8764   1.599   7.460   7.394 -1.7209  2.6683 -0.2764
35058SOL     OW 8765   4.002   0.652   5.809 -0.2836  0.5195 -0.0476
35058SOL    HW1 8766   4.041   0.670   5.895 -0.9567  0.0029  0.3707
35058SOL    HW2 8767   4.004   0.736   5.764  1.8658  0.4116 -0.2733
35059SOL     OW 8768   5.840   9.054  10.353  0.2644 -0.7993 -0.3343
35059SOL    HW1 8769   5.798   8.986  10.300 -0.0758 -0.2302 -0.8051
35059SOL    HW2 8770   5.805   9.136  10.320  0.2362 -0.4131  0.6103
35060SOL     OW 8771   7.122   9.742   0.568 -0.1617  1.3854 -0.2441
35060SOL    HW1 8772   7.051   9.738   0.633  0.4875  0.3164  0.4381
35060SOL    HW2 8773   7.091   9.690   0.495  0.6246 -0.7015  0.8274
35061SOL     OW 8774   4.449   4.180   9.574 -0.1582 -0.0364 -0.1809
35061SOL    HW1 8775   4.379   4.219   9.627 -0.0655  1.9105 -1.4089
35061SOL    HW2 8776   4.521   4.242   9.580  1.0435 -1.3910  0.0038
35062SOL     OW 8777   0.582   2.470   5.673 -0.0865  0.1334  0.2837
35062SOL    HW1 8778   0.677   2.462   5.686  0.0735 -0.5083 -1.1162
35062SOL    HW2 8779   0.544   2.404   5.731  0.3282  0.2649  0.7154
35063SOL     OW 8780   3.754   7.782   4.764 -0.1958 -0.3955 -0.0073
35063SOL    HW1 8781   3.698   7.731   4.705  1.2124 -1.1660 -0.7340
35063SOL    HW2 8782   3.839   7.783   4.720  0.4549  0.4330  1.2401
35064SOL     OW 8783   3.437   8.543   1.467  0.2761 -0.4136  0.0690
35064SOL    HW1 8784   3.471   8.618   1.418  1.0714 -0.6665  0.2248
35064SOL    HW2 8785   3.381   8.583   1.534  0.2120  0.0069 -0.2309
35065SOL     OW 8786   7.006  10.603   8.594 -0.3964 -0.4390  0.5919
35065SOL    HW1 8787   7.098  10.609   8.569  0.5207 -0.3522  3.5169
35065SOL    HW2 8788   6.979  10.693   8.612 -1.6025 -0.2743 -1.7290
35066SOL     OW 8789   7.985   1.478  10.980 -0.4752 -0.1160 -0.2123
35066SOL    HW1 8790   8.035   1.402  11.009  0.0941  0.7669  1.2931
35066SOL    HW2 8791   8.050   1.536  10.941 -0.5406  0.4166  0.4398
35067SOL     OW 8792   5.511   1.735   4.129  0.7505  0.4395  0.2623
35067SOL    HW1 8793   5.584   1.706   4.183  0.1552 -0.1002  0.7903
35067SOL    HW2 8794   5.483   1.656   4.082  1.6687  1.0213 -1.3548
35068SOL     OW 8795   2.208   8.597   9.077  0.4436 -0.1919 -0.0643
35068SOL    HW1 8796   2.113   8.586   9.090  0.4243  0.0018 -0.0321
35068SOL    HW2 8797   2.248   8.547   9.147  0.3283  1.6100  1.3651
35069SOL     OW 8798   6.584   9.912   6.842  0.7246 -0.5820 -0.8812
35069SOL    HW1 8799   6.635   9.878   6.915 -0.4251  2.1463  1.3777
35069SOL    HW2 8800   6.626   9.996   6.821 -1.0029  0.2948 -0.9828
35070SOL     OW 8801   8.647  10.373   8.901  0.0463 -0.0420 -0.3110
35070SOL    HW1 8802   8.598  10.291   8.896 -1.1759  0.7230 -2.9584
35070SOL    HW2 8803   8.659  10.399   8.809  0.7543  2.5245  0.4243
35071SOL     OW 8804   8.668   1.382   7.218 -0.1988  0.0357  0.0544
35071SOL    HW1 8805   8.623   1.308   7.176 -0.4026 -0.0350  0.3959
35071SOL    HW2 8806   8.607   1.412   7.285 -0.1665  0.5893 -0.1584
35072SOL     OW 8807  10.247   4.750   2.503  0.3804  0.4492 -0.5397
35072SOL    HW1 8808  10.322   4.762   2.562  1.4338 -1.6173 -1.3779
35072SOL    HW2 8809  10.171   4.777   2.556  1.5751  1.6517  0.6621
35073SOL     OW 8810   2.396   9.697   2.997  0.6815  0.1215 -0.4439
35073SOL    HW1 8811   2.446   9.779   3.005  0.9974 -0.0476 -0.6549
35073SOL    HW2 8812   2.401   9.657   3.084 -1.5774  1.5090  0.3979
35074SOL     OW 8813   4.068   9.132   7.614 -0.0285  0.1153 -0.2971
35074SOL    HW1 8814   4.053   9.223   7.640  3.5269  0.1885  2.1861
35074SOL    HW2 8815   3.983   9.088   7.629 -0.7952  2.2425  2.3268
35075SOL     OW 8816   2.256   9.515   8.916 -0.2833  0.5927  0.1224
35075SOL    HW1 8817   2.201   9.451   8.961  0.5430  0.4237  0.9393
35075SOL    HW2 8818   2.325   9.535   8.979  0.3355  1.1391 -0.7054
35076SOL     OW 8819   4.510   3.943   2.670 -0.2712 -0.6845 -0.2716
35076SOL    HW1 8820   4.553   4.017   2.714 -1.3109  0.6332 -1.3804
35076SOL    HW2 8821   4.460   3.900   2.740  0.1568 -0.1999  0.3512
35077SOL     OW 8822   8.866   9.893   4.685  0.2841  0.1218  0.2462
35077SOL    HW1 8823   8.794   9.880   4.747 -0.8172 -1.7656 -1.2907
35077SOL    HW2 8824   8.931   9.827   4.709  0.9532  0.9875  0.8532
35078SOL     OW 8825   0.286   3.259   2.253  0.0343 -0.5119 -0.4514
35078SOL    HW1 8826   0.301   3.243   2.160  2.7699  0.5807 -0.2897
35078SOL    HW2 8827   0.338   3.193   2.298 -0.2738 -0.2641  0.2938
35079SOL     OW 8828   4.570   6.213   8.810 -0.2662 -0.4340  0.3520
35079SOL    HW1 8829   4.539   6.125   8.829  0.9890 -0.8636  0.5025
35079SOL    HW2 8830   4.615   6.240   8.890  2.2812 -1.0098 -0.7864
35080SOL     OW 8831   8.901   2.369   1.644  0.1553  0.1443  0.3425
35080SOL    HW1 8832   8.956   2.293   1.662 -1.0564 -0.7702  0.2303
35080SOL    HW2 8833   8.900   2.375   1.548  1.7114  1.4183  0.3573
35081SOL     OW 8834   1.476  10.051   2.126  0.4232 -0.3526 -0.5683
35081SOL    HW1 8835   1.423  10.085   2.198 -0.6438 -0.0421 -1.4712
35081SOL    HW2 8836   1.428   9.975   2.094 -0.9585  1.4412 -3.0927
35082SOL     OW 8837   4.256   9.091   9.883  0.7319  0.1602 -0.2266
35082SOL    HW1 8838   4.261   9.003   9.848 -0.7767  0.3447 -1.0248
35082SOL    HW2 8839   4.288   9.148   9.813 -1.8723  0.4949 -1.2629
35083SOL     OW 8840   4.568   7.892   2.622  0.0252  0.5613  0.0199
35083SOL    HW1 8841   4.512   7.818   2.645 -2.5740  1.8052 -1.8028
35083SOL    HW2 8842   4.598   7.926   2.706 -0.7221 -1.0528  0.9996
35084SOL     OW 8843   0.200   2.421   7.626  0.2853  0.4036 -0.4821
35084SOL    HW1 8844   0.261   2.444   7.557  1.4000 -3.1623 -0.9173
35084SOL    HW2 8845   0.114   2.420   7.583  0.8480 -0.9145 -1.6606
35085SOL     OW 8846   2.929   2.699   3.039  0.4161 -0.1086  0.2095
35085SOL    HW1 8847   2.838   2.724   3.025  0.2694 -0.4685  0.5013
35085SOL    HW2 8848   2.945   2.630   2.976  0.4904 -0.0350  0.1483
35086SOL     OW 8849  10.222   2.339   0.475  0.1282 -0.3365  0.2471
35086SOL    HW1 8850  10.313   2.359   0.453 -0.4775  0.8596 -1.3370
35086SOL    HW2 8851  10.170   2.403   0.427 -1.6615 -2.0889 -0.3386
35087SOL     OW 8852   6.557   0.474   2.773  0.4292  0.1453  0.1484
35087SOL    HW1 8853   6.627   0.526   2.811  0.7139 -0.2803  0.2120
35087SOL    HW2 8854   6.483   0.535   2.765  0.6048  0.4296  0.6725
35088SOL     OW 8855   7.800   4.488   0.177  0.5630  0.0648 -0.2627
35088SOL    HW1 8856   7.721   4.493   0.122  0.8380 -1.4933 -0.8504
35088SOL    HW2 8857   7.807   4.396   0.201  1.7857  0.3130  0.4303
35089SOL     OW 8858   3.347   8.974   2.276  0.1559  0.1855 -0.1724
35089SOL    HW1 8859   3.398   9.031   2.219 -1.3801  1.1893 -0.5950
35089SOL    HW2 8860   3.257   9.008   2.270 -0.1265  0.1798  2.6090
35090SOL     OW 8861   4.169   0.706   7.819  0.5954 -0.5452 -0.0638
35090SOL    HW1 8862   4.185   0.680   7.729  1.2436 -1.5784  0.3324
35090SOL    HW2 8863   4.250   0.686   7.865 -0.0841 -1.0255  0.9603
35091SOL     OW 8864   9.048   2.650   3.552  0.0559  0.1009  0.2892
35091SOL    HW1 8865   9.033   2.616   3.464 -1.3932  1.0120  0.1483
35091SOL    HW2 8866   9.120   2.597   3.587  0.5751 -0.3436 -1.3891
35092SOL     OW 8867   5.701   5.993   6.379 -0.3726  0.3967 -0.2506
35092SOL    HW1 8868   5.651   5.992   6.297 -1.0073  0.1416  0.1378
35092SOL    HW2 8869   5.678   6.077   6.420 -0.1420  0.4727 -0.2702
35093SOL     OW 8870   5.180   3.635   4.642  0.2191 -0.1470 -0.1855
35093SOL    HW1 8871   5.108   3.680   4.597 -0.1883  0.1731  0.7587
35093SOL    HW2 8872   5.194   3.556   4.590 -0.0537  0.3346 -1.0230
35094SOL     OW 8873   2.243   8.468   5.885  0.1823 -0.0334  0.2443
35094SOL    HW1 8874   2.277   8.482   5.796 -0.5429  0.3546  0.0232
35094SOL    HW2 8875   2.154   8.503   5.883  0.4245  0.6988  1.3500
35095SOL     OW 8876   3.856   7.591   5.948  0.4403  0.6866  0.1492
35095SOL    HW1 8877   3.945   7.591   5.914  0.2041 -0.4515 -0.5183
35095SOL    HW2 8878   3.862   7.637   6.032  1.6414  0.6763  0.0793
35096SOL     OW 8879   0.930   2.540   4.862 -0.0466 -0.0775  0.1672
35096SOL    HW1 8880   0.845   2.511   4.895 -0.0922 -1.8615 -1.3167
35096SOL    HW2 8881   0.994   2.494   4.915  0.0620  1.5553  1.5358
35097SOL     OW 8882   4.562   8.885   7.035 -0.1827 -0.0607 -0.8603
35097SOL    HW1 8883   4.499   8.813   7.034 -2.7267  1.8968  1.9562
35097SOL    HW2 8884   4.634   8.853   7.090 -1.1897 -0.5200  0.2174
35098SOL     OW 8885   9.265   3.918   9.930 -0.1836 -0.1784 -0.1605
35098SOL    HW1 8886   9.241   3.950  10.017  0.2054 -1.2410  0.3507
35098SOL    HW2 8887   9.334   3.854   9.946  1.8646  1.5580 -1.4328
35099SOL     OW 8888   3.038   2.443   0.197 -0.1660 -0.5497 -0.7226
35099SOL    HW1 8889   3.004   2.531   0.210 -1.4583 -0.9448 -1.2808
35099SOL    HW2 8890   2.964   2.394   0.161 -0.2862 -2.5638  2.0168
35100SOL     OW 8891   4.756  10.771   5.139 -0.3571  0.1935 -0.2728
35100SOL    HW1 8892   4.677  10.825   5.144 -1.2268 -1.1302  1.0339
35100SOL    HW2 8893   4.789  10.768   5.229 -1.5478 -3.1309  0.1600
35101SOL     OW 8894   0.940   7.397   0.303 -0.3074 -0.1628  0.8117
35101SOL    HW1 8895   0.991   7.346   0.367 -0.7039  0.7703  1.9150
35101SOL    HW2 8896   0.985   7.481   0.299  0.2354 -0.4983 -0.8614
35102SOL     OW 8897   6.982   6.994   1.530 -0.3665  0.8436  0.7830
35102SOL    HW1 8898   6.974   7.059   1.600 -0.2600  0.4370  1.1752
35102SOL    HW2 8899   6.969   7.044   1.449 -3.2020  0.8968  1.1787
35103SOL     OW 8900   7.888   8.300   7.068  0.0044  0.1254  0.4895
35103SOL    HW1 8901   7.925   8.223   7.026  0.5718 -0.4041  1.9311
35103SOL    HW2 8902   7.957   8.366   7.062 -0.3733  0.4637 -0.4764
35104SOL     OW 8903   3.930   5.747   5.838  0.0665 -0.6180 -0.5366
35104SOL    HW1 8904   4.008   5.780   5.793  0.1407  0.0042  0.0313
35104SOL    HW2 8905   3.961   5.726   5.926 -0.3544 -0.6178 -0.3895
35105SOL     OW 8906   1.372   6.855   2.068  0.3997 -0.5460 -0.8546
35105SOL    HW1 8907   1.456   6.897   2.087 -0.2498 -0.2813  1.8359
35105SOL    HW2 8908   1.315   6.927   2.040  0.3804 -0.2884 -0.1616
35106SOL     OW 8909   2.516  10.034   3.963  0.4174  0.6165  0.1343
35106SOL    HW1 8910   2.522   9.987   3.880  0.1777  1.8691 -0.6205
35106SOL    HW2 8911   2.430  10.076   3.961 -0.3864 -0.7910  1.8542
35107SOL     OW 8912   1.289   8.125   4.862  0.2679 -0.2195  0.2997
35107SOL    HW1 8913   1.275   8.220   4.866  0.1178 -0.1373 -1.2714
35107SOL    HW2 8914   1.265   8.102   4.772 -2.6436 -2.2520  1.4468
35108SOL     OW 8915   9.297   6.630   4.553 -0.4965  0.1329  0.3956
35108SOL    HW1 8916   9.367   6.693   4.570 -0.9477  0.3647  1.4930
35108SOL    HW2 8917   9.224   6.660   4.608 -1.9612  0.7227 -1.7560
35109SOL     OW 8918  10.620   6.987   7.849 -0.1654  0.2431 -0.4069
35109SOL    HW1 8919  10.633   6.992   7.943 -0.5812  0.9573 -0.3784
35109SOL    HW2 8920  10.661   7.067   7.815 -1.9536  1.1328 -0.5875
35110SOL     OW 8921   5.112   4.802  10.915  0.3314 -0.5383 -0.4098
35110SOL    HW1 8922   5.106   4.708  10.896 -0.5686 -0.7105  0.6112
35110SOL    HW2 8923   5.158   4.806  10.999  0.2305 -0.0749 -0.3764
35111SOL     OW 8924   7.583   0.732   0.844  0.4428 -0.2186 -0.1986
35111SOL    HW1 8925   7.559   0.645   0.813  0.0881 -0.6887  1.2789
35111SOL    HW2 8926   7.655   0.759   0.788 -0.0332 -1.0791 -1.2581
35112SOL     OW 8927   6.535  10.950   9.874  0.1112  0.0214 -0.4047
35112SOL    HW1 8928   6.549  11.045   9.865 -0.2791  0.3999  2.1848
35112SOL    HW2 8929   6.443  10.942   9.901  0.4539 -0.9566  0.5642
35113SOL     OW 8930   4.926   4.989   5.954  0.3797  0.3254 -0.2507
35113SOL    HW1 8931   4.867   5.058   5.925 -0.1845 -0.1743 -0.3162
35113SOL    HW2 8932   4.880   4.947   6.027  0.0421 -0.9221 -1.1498
35114SOL     OW 8933   0.758   7.579   0.211  0.7317 -0.0395 -0.3299
35114SOL    HW1 8934   0.741   7.635   0.286 -0.6253  0.6016 -1.0732
35114SOL    HW2 8935   0.823   7.516   0.242  1.5934  1.3509  0.8014
35115SOL     OW 8936   2.032   9.458   0.419  0.3599 -0.3203 -0.5792
35115SOL    HW1 8937   1.960   9.395   0.428 -0.2482  0.5394  1.1509
35115SOL    HW2 8938   2.098   9.426   0.481  0.8553 -0.2862 -1.0846
35116SOL     OW 8939   3.181   1.836   1.707 -0.0875  0.1537 -0.6317
35116SOL    HW1 8940   3.171   1.909   1.647 -0.0893  0.4884 -0.2278
35116SOL    HW2 8941   3.230   1.770   1.658 -0.1163  0.4115 -1.0055
35117SOL     OW 8942   2.413   9.275  10.184 -0.7890 -0.2405  0.4401
35117SOL    HW1 8943   2.463   9.355  10.202 -0.7771 -0.1322 -0.0553
35117SOL    HW2 8944   2.321   9.302  10.195 -0.7980 -0.0794 -0.0298
35118SOL     OW 8945   8.928   4.938   8.026  0.2081 -0.2218 -0.2137
35118SOL    HW1 8946   8.975   4.944   8.110 -0.5904  1.2945  0.1571
35118SOL    HW2 8947   8.923   4.844   8.008  1.4203 -0.5188  0.8453
35119SOL     OW 8948   4.610  10.076   2.221 -0.0465 -0.3049 -0.5327
35119SOL    HW1 8949   4.695  10.111   2.250 -1.7442  2.4132  1.7509
35119SOL    HW2 8950   4.578  10.142   2.159 -1.2752 -0.2639  0.1276
35120SOL     OW 8951   3.637   1.080   7.278  0.2753 -0.2467 -0.8770
35120SOL    HW1 8952   3.731   1.078   7.293  0.3760  0.9631 -1.2156
35120SOL    HW2 8953   3.615   0.991   7.250  1.0610 -0.9367  0.5994
35121SOL     OW 8954   6.116   4.594   8.968 -0.1193 -0.2278  0.1441
35121SOL    HW1 8955   6.114   4.613   9.062  1.0231  0.6643  0.0123
35121SOL    HW2 8956   6.057   4.519   8.957 -2.2183  1.1510  1.2008
35122SOL     OW 8957   8.923   2.982  10.526 -0.0301  0.2048  0.2078
35122SOL    HW1 8958   8.876   2.998  10.608 -0.0067 -0.7212  0.4190
35122SOL    HW2 8959   8.948   3.069  10.494 -0.4440  0.5990  0.9428
35123SOL     OW 8960   0.542   9.903   7.523  0.1738 -0.4435 -0.0686
35123SOL    HW1 8961   0.514   9.935   7.609  0.0516  1.7587 -0.8719
35123SOL    HW2 8962   0.615   9.960   7.499  0.8545 -1.6756 -1.0006
35124SOL     OW 8963   3.157   4.227   4.655 -0.1591  0.2321  0.2411
35124SOL    HW1 8964   3.244   4.211   4.693  0.9163  1.3143 -1.6158
35124SOL    HW2 8965   3.102   4.158   4.691  1.2899 -0.0473  2.0405
35125SOL     OW 8966   0.109   0.712  10.569 -0.0818 -0.0670 -0.5848
35125SOL    HW1 8967   0.069   0.630  10.541 -1.0102  0.2794 -0.3471
35125SOL    HW2 8968   0.129   0.759  10.488  0.5951 -0.5884 -0.7235
35126SOL     OW 8969   8.775   8.477   4.401 -0.0995  0.5592 -0.0189
35126SOL    HW1 8970   8.803   8.438   4.484 -0.0108  1.2253  0.2773
35126SOL    HW2 8971   8.831   8.554   4.392 -0.2240  0.5796 -0.6171
35127SOL     OW 8972   8.320   0.767   5.802 -0.2465 -0.6594  0.0438
35127SOL    HW1 8973   8.296   0.859   5.801  0.7425 -0.3467  1.6717
35127SOL    HW2 8974   8.260   0.726   5.739  1.0128  1.4601 -2.7359
35128SOL     OW 8975   2.674   6.962   7.629 -0.4894  0.3294 -0.4677
35128SOL    HW1 8976   2.694   6.918   7.712 -1.0644  0.6805 -0.1394
35128SOL    HW2 8977   2.695   7.054   7.645 -2.0027  0.6594 -0.2161
35129SOL     OW 8978   0.098   0.295  10.052 -0.8106  0.0252  0.2701
35129SOL    HW1 8979   0.007   0.286  10.081 -1.0443  0.9385 -0.1621
35129SOL    HW2 8980   0.093   0.313   9.958 -0.3645  2.9817  0.7118
35130SOL     OW 8981   3.914   0.425   1.002  0.1353 -0.1132 -0.5988
35130SOL    HW1 8982   3.929   0.330   1.006 -0.6841 -0.2174  2.0231
35130SOL    HW2 8983   3.826   0.434   0.965 -0.7100 -0.5546  1.2044
35131SOL     OW 8984  11.082  10.781   4.672 -0.3666  0.2842  0.1569
35131SOL    HW1 8985  11.104  10.840   4.744 -0.4985 -0.8730  1.1853
35131SOL    HW2 8986  11.062  10.697   4.715 -0.9157 -0.3064 -1.1941
35132SOL     OW 8987  10.740   6.063  10.872 -0.1151  0.0380 -0.8424
35132SOL    HW1 8988  10.795   5.989  10.899 -2.1902 -2.0301 -1.9500
35132SOL    HW2 8989  10.673   6.068  10.940  1.7758  3.1518  1.0137
35133SOL     OW 8990   4.028   2.565   6.608 -0.0665  0.1536  0.5397
35133SOL    HW1 8991   4.035   2.638   6.547 -1.0474 -0.8145 -0.8021
35133SOL    HW2 8992   3.941   2.575   6.647  0.9132  1.3208  2.6044
35134SOL     OW 8993   7.298   7.025   2.482  0.1519 -0.0035  0.2532
35134SOL    HW1 8994   7.278   7.109   2.524  0.1007 -0.1455  0.5162
35134SOL    HW2 8995   7.242   6.962   2.527  0.4334 -0.2338  0.2893
35135SOL     OW 8996  10.578  10.018   0.175 -0.2647  0.0354 -0.2173
35135SOL    HW1 8997  10.489   9.984   0.180 -0.0654 -0.6745 -1.2562
35135SOL    HW2 8998  10.609   9.993   0.088 -0.5335  3.9360 -1.6542
35136SOL     OW 8999   7.453   0.211   7.354  0.1095 -0.0553 -0.1222
35136SOL    HW1 9000   7.405   0.293   7.359 -2.9218 -1.6934  0.2028
35136SOL    HW2 9001   7.450   0.176   7.443 -0.6002 -1.4815 -0.6677
35137SOL     OW 9002   0.206   7.955   7.602  0.5276 -0.2101  0.5594
35137SOL    HW1 9003   0.142   7.888   7.580  0.2054  0.9202 -2.4349
35137SOL    HW2 9004   0.176   7.991   7.685 -3.0005  0.4698 -0.8300
35138SOL     OW 9005  10.869   3.467   2.355 -0.0412  0.0912 -0.6166
35138SOL    HW1 9006  10.805   3.537   2.345  0.3303  0.2440 -2.1872
35138SOL    HW2 9007  10.855   3.411   2.279  0.1934 -1.1214  0.2062
35139SOL     OW 9008   0.826   0.229   0.876  0.1521 -0.6899 -0.0002
35139SOL    HW1 9009   0.781   0.253   0.795 -2.0849 -1.4316  0.9468
35139SOL    HW2 9010   0.774   0.158   0.912  1.2048 -0.5021  2.0030
35140SOL     OW 9011   1.649   3.106   1.108  0.2301 -0.1685  0.2341
35140SOL    HW1 9012   1.595   3.149   1.042 -0.1027  0.3440  0.8314
35140SOL    HW2 9013   1.588   3.050   1.157  0.7147 -1.6432 -0.7638
35141SOL     OW 9014   5.194   0.566   8.142  0.3781 -0.3824  0.6483
35141SOL    HW1 9015   5.251   0.490   8.157  1.1184  0.2819  1.3419
35141SOL    HW2 9016   5.154   0.582   8.227 -0.4305 -0.5010  0.2948
35142SOL     OW 9017   2.356   6.150  10.353  0.2086 -0.3744 -0.4546
35142SOL    HW1 9018   2.316   6.081  10.406  0.6361 -0.0006  0.3717
35142SOL    HW2 9019   2.406   6.102  10.287  2.2517 -0.9578  1.3929
35143SOL     OW 9020   3.443   7.854   2.514 -0.2865 -0.3557 -0.2678
35143SOL    HW1 9021   3.533   7.835   2.488 -0.0296  2.1475 -1.5770
35143SOL    HW2 9022   3.389   7.813   2.446 -0.0080 -0.0944 -0.6509
35144SOL     OW 9023   2.228   4.792   1.999  0.2027  0.1376  0.7533
35144SOL    HW1 9024   2.219   4.885   1.978  1.3951  0.1287  0.0830
35144SOL    HW2 9025   2.300   4.789   2.062  1.2656 -0.4409 -0.4339
35145SOL     OW 9026   9.191   6.546   8.256  0.2073  0.1618  0.0276
35145SOL    HW1 9027   9.105   6.505   8.246  0.4865 -0.1698 -1.1648
35145SOL    HW2 9028   9.182   6.631   8.212  0.7670 -0.3147 -1.0667
35146SOL     OW 9029   7.815   6.113   0.889 -0.2289 -0.1876 -0.5184
35146SOL    HW1 9030   7.785   6.062   0.964 -0.5450 -2.9694 -2.3655
35146SOL    HW2 9031   7.743   6.106   0.825  1.2128 -0.5061 -2.1832
35147SOL     OW 9032   5.295   9.908   1.143 -0.2230  0.1032 -0.1022
35147SOL    HW1 9033   5.225   9.860   1.098  0.2405 -0.7645  0.0682
35147SOL    HW2 9034   5.254   9.989   1.173 -0.5766  0.6616 -1.9898
35148SOL     OW 9035   1.542   1.035   9.523  0.3167 -0.1968 -0.1706
35148SOL    HW1 9036   1.600   1.099   9.564  1.3500 -0.2382 -1.5081
35148SOL    HW2 9037   1.509   0.983   9.596  1.1723  0.4641  0.7182
35149SOL     OW 9038   3.116   8.799   8.468 -0.5241  0.0606  0.2225
35149SOL    HW1 9039   3.169   8.821   8.545 -2.3385  0.2822  1.4633
35149SOL    HW2 9040   3.132   8.706   8.454 -0.2994 -0.0241  0.9911
35150SOL     OW 9041   6.934   7.330   0.911  0.4727 -0.0831  0.3458
35150SOL    HW1 9042   6.982   7.249   0.897  0.1990 -0.3482  0.8840
35150SOL    HW2 9043   6.844   7.309   0.884 -0.1542 -0.7235  2.6642
35151SOL     OW 9044   2.505   6.254   8.657 -0.2783  0.2552 -0.0612
35151SOL    HW1 9045   2.579   6.314   8.663 -0.1546 -0.0149  1.2349
35151SOL    HW2 9046   2.440   6.288   8.718 -1.1472  0.3526 -1.0053
35152SOL     OW 9047   8.491   3.421   1.511 -0.2666  0.2614  0.0161
35152SOL    HW1 9048   8.433   3.362   1.560  2.0846 -0.7776  1.7264
35152SOL    HW2 9049   8.490   3.503   1.562  0.6081 -0.1452  0.7168
35153SOL     OW 9050   2.572   6.260   1.399 -0.2109  0.3806  0.0104
35153SOL    HW1 9051   2.552   6.190   1.461  2.2984 -0.6103 -0.1979
35153SOL    HW2 9052   2.593   6.336   1.453 -2.7369  1.0273  0.2377
35154SOL     OW 9053   7.381   1.982   6.340  0.2855 -0.7700 -0.2986
35154SOL    HW1 9054   7.402   1.902   6.292  0.4343 -1.1287  0.3638
35154SOL    HW2 9055   7.445   1.986   6.410  0.3115 -0.0415 -0.3468
35155SOL     OW 9056   6.610   4.714   4.742  0.3020 -0.3475  0.2437
35155SOL    HW1 9057   6.696   4.716   4.702  0.5626  2.2406  0.7498
35155SOL    HW2 9058   6.615   4.644   4.808  1.6197 -0.9717 -0.4886
35156SOL     OW 9059   5.115   3.086  10.552 -0.1237  0.1098 -0.3458
35156SOL    HW1 9060   5.055   3.037  10.495 -0.9537  0.8328 -0.1093
35156SOL    HW2 9061   5.180   3.123  10.491  0.8744 -1.7114 -0.4794
35157SOL     OW 9062   2.636   9.480  11.041 -0.2204 -0.3818  0.0992
35157SOL    HW1 9063   2.707   9.544  11.050 -0.7449  0.5107 -1.5940
35157SOL    HW2 9064   2.603   9.468  11.130  0.2838  1.2597  0.5443
35158SOL     OW 9065   0.760   1.898   9.969 -0.0109  0.1568 -0.1546
35158SOL    HW1 9066   0.777   1.804   9.978 -0.3078  0.0762 -0.4142
35158SOL    HW2 9067   0.812   1.924   9.893 -1.5962 -0.2438 -1.4170
35159SOL     OW 9068   5.964  10.408   0.447  0.3105 -0.5169  0.2323
35159SOL    HW1 9069   5.919  10.351   0.385  1.3309 -1.9372  0.7443
35159SOL    HW2 9070   6.043  10.435   0.402 -0.5627  1.2202 -0.3198
35160SOL     OW 9071  10.171  10.340   6.043 -0.0028 -0.4269  0.5284
35160SOL    HW1 9072  10.188  10.433   6.028 -0.7579 -0.3359  0.1408
35160SOL    HW2 9073  10.131  10.336   6.130 -0.1065 -0.3667  0.4840
35161SOL     OW 9074   7.076   9.319   6.124  0.3489 -0.0414  0.0103
35161SOL    HW1 9075   7.125   9.240   6.104  1.5330  0.3141  1.2865
35161SOL    HW2 9076   6.988   9.303   6.091  0.6769 -1.7201 -0.1005
35162SOL     OW 9077   4.217   1.615   8.091 -0.3810 -0.2898 -0.0883
35162SOL    HW1 9078   4.189   1.584   8.177  0.2275 -1.0672 -0.1632
35162SOL    HW2 9079   4.178   1.555   8.029  0.6562 -0.8169 -0.2446
35163SOL     OW 9080   1.601   6.737   5.465 -0.6575  0.4272 -0.6107
35163SOL    HW1 9081   1.643   6.672   5.522  0.0397 -1.0857 -2.7103
35163SOL    HW2 9082   1.645   6.820   5.486 -0.8336  0.0572  1.4052
35164SOL     OW 9083   4.487   8.915   7.724  0.8916 -0.3600  0.0731
35164SOL    HW1 9084   4.535   8.845   7.768  2.1307  0.8978  0.7669
35164SOL    HW2 9085   4.506   8.994   7.774  0.3775  0.6877 -1.2962
35165SOL     OW 9086   1.921   5.031   6.494 -0.5110  0.7534 -0.0349
35165SOL    HW1 9087   1.841   5.058   6.449 -0.3821  1.4182  0.1257
35165SOL    HW2 9088   1.896   4.952   6.542 -0.4341 -0.4691 -1.9028
35166SOL     OW 9089   6.560   0.925  10.334  0.6909 -0.0618  0.0340
35166SOL    HW1 9090   6.494   0.903  10.400  0.6260 -0.2325 -0.0843
35166SOL    HW2 9091   6.628   0.858  10.345  1.5051  0.8888  1.0514
35167SOL     OW 9092   3.291   9.919   2.941  0.0563 -0.6443 -0.4277
35167SOL    HW1 9093   3.228   9.871   2.888 -1.1681  1.6831 -1.2520
35167SOL    HW2 9094   3.273  10.011   2.921  3.3021  0.1488 -0.1692
35168SOL     OW 9095   5.396   9.924   1.472  0.0321  0.3616  0.0001
35168SOL    HW1 9096   5.411  10.005   1.424 -1.6256  0.5681 -0.2143
35168SOL    HW2 9097   5.303   9.906   1.461  0.5430 -2.1591 -0.8762
35169SOL     OW 9098   8.583   3.457   3.176  1.0315 -0.8258  0.2778
35169SOL    HW1 9099   8.655   3.405   3.212 -1.2092 -3.2217  1.6924
35169SOL    HW2 9100   8.514   3.392   3.158 -1.8449  1.5952  1.7436
35170SOL     OW 9101   3.826   4.053   1.114 -0.0278  0.6627  0.3754
35170SOL    HW1 9102   3.786   4.103   1.043 -1.8043 -0.5618  0.4531
35170SOL    HW2 9103   3.920   4.060   1.098 -0.3691  0.2562 -2.2436
35171SOL     OW 9104   6.344   3.002   7.939 -0.0530 -0.3411 -0.5935
35171SOL    HW1 9105   6.328   3.025   8.031  0.4142  1.9968 -1.0351
35171SOL    HW2 9106   6.273   2.942   7.917 -0.7860 -0.1211  0.9973
35172SOL     OW 9107   7.964   8.751   4.077 -0.3777  0.0624 -0.0087
35172SOL    HW1 9108   7.902   8.788   4.140 -0.2631  1.5960 -0.7489
35172SOL    HW2 9109   8.049   8.756   4.122 -0.6050 -0.9930  0.5731
35173SOL     OW 9110   9.370   4.953   2.902  0.3600 -0.3498 -0.0903
35173SOL    HW1 9111   9.382   5.009   2.826 -0.2075 -0.3481 -0.1811
35173SOL    HW2 9112   9.288   4.982   2.941  0.0084 -1.1828 -0.1927
35174SOL     OW 9113   5.835  10.096  10.620 -0.0123 -0.5859  0.4659
35174SOL    HW1 9114   5.836  10.148  10.540  0.1177 -2.8137 -1.0778
35174SOL    HW2 9115   5.811  10.008  10.591  0.0309 -1.4747  2.8935
35175SOL     OW 9116   2.586   2.591   3.023  0.2735 -0.6042 -0.5323
35175SOL    HW1 9117   2.600   2.686   3.032  0.9875 -0.7382 -0.1363
35175SOL    HW2 9118   2.531   2.568   3.098  0.3592 -0.5559 -0.4549
35176SOL     OW 9119   3.622   2.188   5.022  0.0428 -0.3674  0.0926
35176SOL    HW1 9120   3.598   2.234   5.103  0.2333 -0.6791  0.3249
35176SOL    HW2 9121   3.717   2.191   5.020  0.0169  0.2915 -0.4997
35177SOL     OW 9122   1.165   4.495   5.821  0.1822  0.1225  0.2273
35177SOL    HW1 9123   1.124   4.581   5.808 -0.7328 -0.1477  1.2184
35177SOL    HW2 9124   1.252   4.504   5.781  0.0742  1.4809  0.2383
35178SOL     OW 9125   6.630   9.713  10.086 -0.2065  0.0379  0.8134
35178SOL    HW1 9126   6.583   9.707  10.169 -0.5025  0.3687  0.6699
35178SOL    HW2 9127   6.666   9.801  10.084 -1.3463  0.5219 -0.0068
35179SOL     OW 9128  10.029   4.121   9.841  0.1697 -0.0650 -0.3911
35179SOL    HW1 9129  10.079   4.202   9.838  0.2418 -0.0886  0.1456
35179SOL    HW2 9130   9.937   4.148   9.842  0.2014  0.0933  1.8485
35180SOL     OW 9131   4.158   7.332   9.010 -0.0384  0.4892 -0.0638
35180SOL    HW1 9132   4.081   7.306   9.062  0.5282 -2.4905 -0.4946
35180SOL    HW2 9133   4.212   7.382   9.070 -1.9532  2.0782  0.4561
35181SOL     OW 9134   3.813   0.021   4.178 -0.2614  0.9231 -0.3603
35181SOL    HW1 9135   3.866  -0.058   4.168 -1.6588  0.1047 -1.5640
35181SOL    HW2 9136   3.791   0.023   4.271 -0.4687 -0.2835 -0.3704
35182SOL     OW 9137   3.008   4.830   9.964 -0.1255  0.1127  0.4980
35182SOL    HW1 9138   3.074   4.894   9.939  0.7749 -0.9520  0.0704
35182SOL    HW2 9139   3.050   4.777  10.032 -0.5284 -0.5715  0.2317
35183SOL     OW 9140   2.762   8.506   2.008 -0.0004 -0.2949 -0.0783
35183SOL    HW1 9141   2.833   8.442   2.021 -0.8445 -1.2190  0.0692
35183SOL    HW2 9142   2.772   8.534   1.917  0.1035 -0.9755 -0.2802
35184SOL     OW 9143   7.811   7.397   6.630 -0.0305  0.5630  0.1784
35184SOL    HW1 9144   7.899   7.434   6.626  0.5046 -0.6314  0.3302
35184SOL    HW2 9145   7.786   7.404   6.722  0.4412 -0.2427  0.3803
35185SOL     OW 9146   4.191   4.771   3.444  0.2895 -0.1616  0.2929
35185SOL    HW1 9147   4.143   4.774   3.362  0.6308  0.3251  0.1108
35185SOL    HW2 9148   4.281   4.752   3.419  0.2482 -0.8342  0.6174
35186SOL     OW 9149   0.419   3.774   5.637  0.5033 -0.0185 -0.1793
35186SOL    HW1 9150   0.464   3.838   5.692 -0.8687 -0.8945  2.1060
35186SOL    HW2 9151   0.381   3.712   5.699 -0.6408 -1.4195 -2.1770
35187SOL     OW 9152   9.845   9.433  10.389 -0.1906  0.4510  0.2684
35187SOL    HW1 9153   9.781   9.446  10.319  1.6329 -1.2402 -1.8914
35187SOL    HW2 9154   9.912   9.501  10.372  0.7258 -0.5556 -0.2739
35188SOL     OW 9155   8.633   9.596  10.422  0.7443  0.3986  0.1418
35188SOL    HW1 9156   8.615   9.689  10.412  3.6765  0.9683 -0.6283
35188SOL    HW2 9157   8.572   9.553  10.361  0.5706  1.9471 -0.8196
35189SOL     OW 9158   2.719   0.333   9.301  1.0653 -0.0579  0.2434
35189SOL    HW1 9159   2.800   0.362   9.259  1.1278 -0.0595  0.3629
35189SOL    HW2 9160   2.663   0.410   9.302  0.3832 -0.4798 -1.4454
35190SOL     OW 9161   2.388   3.670   6.200  0.1662 -0.4869 -0.3825
35190SOL    HW1 9162   2.408   3.612   6.274 -2.3803  0.3731  1.1078
35190SOL    HW2 9163   2.371   3.611   6.127  0.4210 -1.4953  0.3573
35191SOL     OW 9164   1.873   1.967   5.989 -0.3524 -0.1506 -0.0217
35191SOL    HW1 9165   1.790   1.993   6.029 -1.1980 -2.6111 -0.0656
35191SOL    HW2 9166   1.933   1.955   6.063  0.1018  1.8550 -0.0032
35192SOL     OW 9167  11.087   1.689   2.783 -0.4297 -0.5547 -0.3779
35192SOL    HW1 9168  11.010   1.633   2.774 -2.0969  1.4463  0.5799
35192SOL    HW2 9169  11.070   1.762   2.724 -0.3093  0.9542  1.3788
35193SOL     OW 9170   8.535   7.059   4.032  0.1529  0.2505  0.5422
35193SOL    HW1 9171   8.615   7.103   4.058  0.7612 -0.7596  0.4447
35193SOL    HW2 9172   8.528   6.985   4.092 -1.1613  0.7826  1.0879
35194SOL     OW 9173   4.065   0.207   5.493  0.0346 -0.1586 -0.4682
35194SOL    HW1 9174   4.160   0.220   5.488  0.3835 -2.6765 -1.5933
35194SOL    HW2 9175   4.053   0.133   5.552 -1.3682  0.9721  0.7399
35195SOL     OW 9176   6.616  10.792   3.614 -0.5645  0.5855  0.5715
35195SOL    HW1 9177   6.567  10.750   3.543 -0.3607  0.2048  0.6517
35195SOL    HW2 9178   6.705  10.802   3.580 -0.3798  0.0859  0.8910
35196SOL     OW 9179   4.784   1.557   3.975 -0.0030 -0.3227 -0.3122
35196SOL    HW1 9180   4.704   1.606   3.991 -0.5793 -0.7341 -1.7975
35196SOL    HW2 9181   4.837   1.571   4.054 -0.1827  2.5964 -0.6190
35197SOL     OW 9182   8.899   2.996  10.177 -0.1247 -0.2702  0.2051
35197SOL    HW1 9183   8.913   2.987  10.272  0.3573  0.6062  0.2277
35197SOL    HW2 9184   8.952   3.072  10.152 -0.6228 -0.2031 -0.6891
35198SOL     OW 9185   7.380   3.216  10.809  0.4013  0.1012  0.3758
35198SOL    HW1 9186   7.386   3.121  10.821  1.3800  0.0888 -0.1377
35198SOL    HW2 9187   7.410   3.231  10.720 -1.1200  0.7721 -0.0521
35199SOL     OW 9188   4.467   9.508   8.030  0.2484  0.3081  0.3623
35199SOL    HW1 9189   4.394   9.461   8.071  1.3778 -0.5425  1.4833
35199SOL    HW2 9190   4.467   9.478   7.939  0.8378 -1.8077  1.0001
35200SOL     OW 9191   5.236   1.453   7.390 -0.0328 -0.1534 -0.1606
35200SOL    HW1 9192   5.152   1.424   7.356 -0.4708 -1.7253  2.0501
35200SOL    HW2 9193   5.234   1.548   7.381 -2.0234 -0.1616 -0.2444
35201SOL     OW 9194  10.120   5.626   6.549 -0.1266 -0.0744  0.3194
35201SOL    HW1 9195  10.102   5.703   6.603 -0.7219  1.3892 -1.7936
35201SOL    HW2 9196  10.216   5.622   6.543 -0.0648 -0.1402  1.2948
35202SOL     OW 9197   4.992   0.118   4.180 -0.1937  0.5795 -0.1920
35202SOL    HW1 9198   5.044   0.191   4.214  0.2372  0.7611 -1.2126
35202SOL    HW2 9199   5.056   0.055   4.148 -0.5781  0.6173 -1.0754
35203SOL     OW 9200   6.798   0.907   9.102  0.7693 -0.6920  0.3842
35203SOL    HW1 9201   6.861   0.888   9.172  2.1835 -0.6735 -0.8265
35203SOL    HW2 9202   6.836   0.981   9.055 -0.5946 -0.1409  0.1179
35204SOL     OW 9203   1.228   2.933   6.576 -0.6760 -0.6978 -0.0550
35204SOL    HW1 9204   1.234   2.980   6.493  2.2194  1.0530  1.0219
35204SOL    HW2 9205   1.170   2.986   6.630 -2.6718 -1.9074 -0.8843
35205SOL     OW 9206   6.219   3.901   3.557  0.5688  0.3071  0.2082
35205SOL    HW1 9207   6.272   3.968   3.515  1.9587 -2.9534 -3.9948
35205SOL    HW2 9208   6.282   3.835   3.587 -0.8045 -1.9072 -1.4567
35206SOL     OW 9209   0.856  10.666  10.409 -0.0117  0.6469 -0.2073
35206SOL    HW1 9210   0.946  10.684  10.382  0.1563 -0.9656 -0.9081
35206SOL    HW2 9211   0.852  10.691  10.501  1.5652 -0.5094  0.2167
35207SOL     OW 9212   6.465   0.306   9.612 -0.1020 -0.5503 -0.0595
35207SOL    HW1 9213   6.522   0.316   9.536 -1.2421 -1.0025 -0.9992
35207SOL    HW2 9214   6.445   0.396   9.638 -0.7796 -0.3622 -1.1495
35208SOL     OW 9215   8.096   7.099   2.946  0.5817  0.2683 -0.0409
35208SOL    HW1 9216   8.126   7.142   3.026 -0.4728 -0.8707  1.0169
35208SOL    HW2 9217   8.095   7.006   2.968 -2.9948  0.1388 -0.1543
35209SOL     OW 9218   9.814   8.454   7.772  0.4725 -0.4312 -0.4476
35209SOL    HW1 9219   9.865   8.478   7.849  0.1031 -0.1700 -0.2875
35209SOL    HW2 9220   9.745   8.396   7.805 -0.4616  0.6893 -0.3843
35210SOL     OW 9221   7.104   8.985   9.774  0.2181 -0.7487  0.3152
35210SOL    HW1 9222   7.144   8.903   9.805  1.4449  0.1781  1.3032
35210SOL    HW2 9223   7.120   8.985   9.679  0.3148 -1.5852  0.3234
35211SOL     OW 9224   8.478   3.317   9.735 -0.5184 -0.0021  0.4728
35211SOL    HW1 9225   8.385   3.337   9.726 -0.5079  0.5878  1.5011
35211SOL    HW2 9226   8.495   3.251   9.667 -1.2488  1.2530 -0.9833
35212SOL     OW 9227   1.531   0.351   2.603 -0.7054 -0.1503 -0.6583
35212SOL    HW1 9228   1.584   0.410   2.549 -2.3350  2.1659  0.1302
35212SOL    HW2 9229   1.444   0.354   2.564 -1.5053  0.2310  1.0671
35213SOL     OW 9230   2.938   2.713   7.362 -0.4678  0.0210 -0.3988
35213SOL    HW1 9231   2.944   2.794   7.412 -0.6630  1.1663 -2.1395
35213SOL    HW2 9232   3.003   2.723   7.292 -0.3589 -1.4168 -0.5524
35214SOL     OW 9233   4.793  11.024   2.548 -0.4448  0.3249  0.1544
35214SOL    HW1 9234   4.881  11.035   2.512 -0.5265 -0.6475 -0.3731
35214SOL    HW2 9235   4.776  11.106   2.595  0.6665  0.5962  0.1166
35215SOL     OW 9236  10.203   8.756   1.774  0.2614 -0.1239 -0.5390
35215SOL    HW1 9237  10.214   8.837   1.725 -0.1363 -1.4472 -2.9745
35215SOL    HW2 9238  10.254   8.769   1.854 -0.4396  2.7860 -0.4648
35216SOL     OW 9239   7.160   6.980   9.640 -0.4028 -0.1202  0.2713
35216SOL    HW1 9240   7.120   6.895   9.620 -1.3763  0.0260  1.4300
35216SOL    HW2 9241   7.118   7.040   9.579 -0.2741 -0.3506 -0.0467
35217SOL     OW 9242   7.479   1.343   2.638 -0.0896 -1.1726  0.0979
35217SOL    HW1 9243   7.519   1.278   2.580  1.2974 -0.7665  0.5740
35217SOL    HW2 9244   7.550   1.371   2.696 -0.7830  0.3970  0.2391
35218SOL     OW 9245   4.704   1.613   9.571 -0.0480 -0.3143 -0.1616
35218SOL    HW1 9246   4.766   1.683   9.554  0.2372 -0.3418  0.7436
35218SOL    HW2 9247   4.629   1.633   9.514 -0.0452  0.8192  0.2149
35219SOL     OW 9248   8.665   8.464   2.785  0.2286  0.2037  0.0801
35219SOL    HW1 9249   8.758   8.453   2.804  0.2125 -0.7822 -0.3920
35219SOL    HW2 9250   8.658   8.555   2.756  1.0404  0.2820  0.1035
35220SOL     OW 9251   0.812   2.471   8.629 -0.2239  0.3688 -0.3485
35220SOL    HW1 9252   0.740   2.475   8.693  1.7628  0.5700  2.0350
35220SOL    HW2 9253   0.783   2.407   8.564 -2.2332 -0.0992  0.9259
35221SOL     OW 9254   8.421   7.425   1.250  0.0751 -0.6657 -0.1453
35221SOL    HW1 9255   8.392   7.440   1.340 -0.0517 -0.1697 -0.2667
35221SOL    HW2 9256   8.344   7.387   1.207  0.0860 -0.7579 -0.0830
35222SOL     OW 9257   2.424   8.314   6.250 -0.0855 -0.2352  0.7841
35222SOL    HW1 9258   2.461   8.231   6.281  1.2054  0.4223  1.0621
35222SOL    HW2 9259   2.450   8.378   6.316  1.1206  0.8495 -0.6857
35223SOL     OW 9260   6.962   8.505   7.453  0.1762  0.2914  0.4402
35223SOL    HW1 9261   6.900   8.491   7.380 -0.5076 -0.1567  1.0937
35223SOL    HW2 9262   6.912   8.556   7.517  1.0650  1.4770  0.2241
35224SOL     OW 9263   7.290   7.835   0.357 -0.5211 -0.1422 -0.2213
35224SOL    HW1 9264   7.265   7.883   0.278 -0.4390  0.8789  0.3614
35224SOL    HW2 9265   7.385   7.827   0.351 -0.5194 -0.1034 -0.2450
35225SOL     OW 9266   0.018   7.948   9.212  0.1148 -0.5572  0.1037
35225SOL    HW1 9267   0.013   7.979   9.303  0.8894 -0.3997  0.1001
35225SOL    HW2 9268  -0.018   7.860   9.215 -0.1542 -0.4368  0.5050
35226SOL     OW 9269   8.245   1.817   9.104  0.5788 -0.3437 -0.4533
35226SOL    HW1 9270   8.241   1.912   9.090  1.9982  0.1928  2.0969
35226SOL    HW2 9271   8.296   1.785   9.030  0.6242  0.9739 -1.0324
35227SOL     OW 9272   6.575   2.623   7.614 -0.2456  0.1585 -0.0542
35227SOL    HW1 9273   6.630   2.562   7.662 -2.0847  0.9878  3.3939
35227SOL    HW2 9274   6.500   2.570   7.587 -1.3580  0.5539  2.0612
35228SOL     OW 9275   5.152   4.328   1.964  0.0999  0.2042 -0.0973
35228SOL    HW1 9276   5.186   4.334   1.874  1.4008  2.7124  0.4733
35228SOL    HW2 9277   5.058   4.344   1.956  0.2928  0.9712 -0.9850
35229SOL     OW 9278   7.534   5.364   9.657  0.2120 -0.0971  0.2477
35229SOL    HW1 9279   7.561   5.436   9.714 -0.3188 -0.1677  0.5920
35229SOL    HW2 9280   7.446   5.342   9.687  0.3523 -0.8561  0.1064
35230SOL     OW 9281   8.374  10.157   8.419 -0.8633  0.0250  0.4086
35230SOL    HW1 9282   8.395  10.208   8.340  0.5450 -1.3607 -0.1526
35230SOL    HW2 9283   8.296  10.107   8.395 -0.4509 -0.3767 -0.1071
35231SOL     OW 9284   2.535   9.199   8.725  0.5512  0.0163 -0.3255
35231SOL    HW1 9285   2.620   9.182   8.766 -0.6560 -0.1456  2.2485
35231SOL    HW2 9286   2.545   9.284   8.683  2.1171 -0.2356 -0.5261
35232SOL     OW 9287   0.802   2.146   5.053 -0.0184 -0.4084 -0.1767
35232SOL    HW1 9288   0.759   2.219   5.009 -0.3833  0.2116  1.1911
35232SOL    HW2 9289   0.894   2.155   5.030  0.3684  1.9468  1.8911
35233SOL     OW 9290   6.791   6.896   7.782 -0.1783 -0.2010  0.4489
35233SOL    HW1 9291   6.792   6.803   7.757 -0.1592 -0.4497  1.3241
35233SOL    HW2 9292   6.877   6.928   7.757 -0.2265 -0.3958  0.0322
35234SOL     OW 9293   3.968   6.596   8.622 -0.1110 -0.7238  0.6221
35234SOL    HW1 9294   4.020   6.607   8.701 -1.4099  0.5082  1.3531
35234SOL    HW2 9295   3.997   6.666   8.564 -1.3975  0.4305  1.3169
35235SOL     OW 9296   4.741   8.397   7.153 -0.6237 -0.0740 -0.5859
35235SOL    HW1 9297   4.758   8.450   7.231  0.2273  0.5741 -1.1893
35235SOL    HW2 9298   4.647   8.380   7.156 -0.7497  0.6667  0.1239
35236SOL     OW 9299   3.211   2.236   2.573 -0.4700  0.3575 -0.1753
35236SOL    HW1 9300   3.237   2.159   2.623 -1.9687 -0.2202 -0.2349
35236SOL    HW2 9301   3.144   2.204   2.513 -0.5057  1.5517 -0.7975
35237SOL     OW 9302   4.875   3.275   8.673  0.7151 -0.0863 -0.2204
35237SOL    HW1 9303   4.825   3.331   8.733  0.9244  0.9133 -0.9678
35237SOL    HW2 9304   4.947   3.241   8.727  0.3189 -0.0193  0.3616
35238SOL     OW 9305   0.019   1.053   6.922  0.1906 -0.5020  0.3051
35238SOL    HW1 9306   0.051   0.968   6.893 -0.3137 -0.3791 -0.6301
35238SOL    HW2 9307   0.068   1.070   7.003  2.2358 -0.4622 -0.8898
35239SOL     OW 9308   8.453   0.376  10.215  0.0785  0.3370 -0.6678
35239SOL    HW1 9309   8.489   0.382  10.303  0.2791  1.2379 -0.7965
35239SOL    HW2 9310   8.459   0.283  10.192 -2.5196 -0.4054  1.2899
35240SOL     OW 9311   7.526   8.871   6.769  0.4312 -0.1395 -0.6603
35240SOL    HW1 9312   7.521   8.917   6.853  1.4767 -2.0329  0.4992
35240SOL    HW2 9313   7.586   8.799   6.784  0.3023 -0.8154 -2.9399
35241SOL     OW 9314   6.623   1.296   3.893  0.3712 -0.2755 -0.6884
35241SOL    HW1 9315   6.615   1.200   3.892 -2.7816 -0.1238 -2.1066
35241SOL    HW2 9316   6.648   1.317   3.983  2.5246 -2.4367 -0.6607
35242SOL     OW 9317   5.403   3.092   3.603  0.3535  0.8053  0.3241
35242SOL    HW1 9318   5.333   3.052   3.655  0.3333  0.2635 -0.1042
35242SOL    HW2 9319   5.439   3.019   3.552  0.1800  1.3821 -0.6334
35243SOL     OW 9320   0.433   7.175   7.545  0.1474  0.5374  0.0631
35243SOL    HW1 9321   0.389   7.133   7.618 -0.2942  1.0528  0.0991
35243SOL    HW2 9322   0.439   7.267   7.570  1.4172  0.4531  0.1418
35244SOL     OW 9323   6.101   3.848  10.653 -0.3329 -0.1048  0.3639
35244SOL    HW1 9324   6.160   3.839  10.578 -1.3506  0.2465 -0.5094
35244SOL    HW2 9325   6.027   3.792  10.631 -0.8294  0.3191  0.9289
35245SOL     OW 9326   1.965  10.346  10.755  0.0776 -0.7194  0.3555
35245SOL    HW1 9327   1.998  10.354  10.845 -0.6450 -0.1070  0.5820
35245SOL    HW2 9328   1.897  10.412  10.749 -1.2966 -2.1035 -0.0002
35246SOL     OW 9329   9.818   7.109   0.024  0.0990  0.1427  0.2407
35246SOL    HW1 9330   9.798   7.149  -0.061 -0.5378  0.6923  0.6407
35246SOL    HW2 9331   9.834   7.017   0.004  1.6800  0.5902 -0.7102
35247SOL     OW 9332   7.706  10.039   7.901  0.4047 -0.1221  0.3374
35247SOL    HW1 9333   7.728  10.002   7.816  1.2068 -1.9510  1.3055
35247SOL    HW2 9334   7.683  10.130   7.881  2.2773  0.0108 -1.5980
35248SOL     OW 9335   4.857   3.954   4.009  0.6486 -0.6524 -0.2786
35248SOL    HW1 9336   4.918   3.963   3.936  2.4265 -0.2160  1.1872
35248SOL    HW2 9337   4.815   4.040   4.017 -0.2730 -0.9824 -1.3481
35249SOL     OW 9338   6.443   9.169   7.318 -0.1218  0.4231  0.0118
35249SOL    HW1 9339   6.455   9.264   7.327 -0.3930  0.3684  1.0919
35249SOL    HW2 9340   6.521   9.130   7.357 -0.4673  0.1859  0.4704
35250SOL     OW 9341   2.382   1.907   9.097 -0.4694  0.4685 -0.1030
35250SOL    HW1 9342   2.329   1.833   9.128  0.5540 -0.6536 -0.9132
35250SOL    HW2 9343   2.380   1.970   9.169 -0.5788 -0.7783  1.0215
35251SOL     OW 9344   5.198   4.594   4.311 -0.3079 -0.4784 -0.0676
35251SOL    HW1 9345   5.273   4.536   4.323  0.2203 -0.0408 -1.0811
35251SOL    HW2 9346   5.210   4.664   4.375  0.0384 -0.5217 -0.0848
35252SOL     OW 9347   9.913   4.273   1.152  0.1659 -0.5527 -0.0778
35252SOL    HW1 9348   9.919   4.254   1.058 -0.5144 -1.6604  0.0847
35252SOL    HW2 9349   9.987   4.330   1.170  0.4957 -0.5969 -1.2260
35253SOL     OW 9350   1.858  10.650   6.651  0.2717  0.1094  0.0220
35253SOL    HW1 9351   1.770  10.684   6.638 -0.0424 -0.4105  0.7364
35253SOL    HW2 9352   1.851  10.556   6.635  0.9532  0.2313 -1.0920
35254SOL     OW 9353   2.962   1.286   1.518  0.1647 -0.0418  0.1044
35254SOL    HW1 9354   3.048   1.328   1.514 -0.3715  1.2846  1.4893
35254SOL    HW2 9355   2.937   1.293   1.610 -0.5906 -2.1835  0.1043
35255SOL     OW 9356   8.392   6.139   4.825  0.0941 -0.0428  0.0701
35255SOL    HW1 9357   8.343   6.221   4.825  1.4274  0.7801  0.1589
35255SOL    HW2 9358   8.436   6.137   4.910  0.5826 -0.5208 -0.1856
35256SOL     OW 9359   1.199   4.705   9.698 -0.0502  0.1350 -0.3857
35256SOL    HW1 9360   1.278   4.757   9.714 -0.1103  1.2839 -3.2239
35256SOL    HW2 9361   1.130   4.770   9.683 -0.9152 -0.8164 -0.6733
35257SOL     OW 9362   5.260   6.161   4.344  0.7666 -0.1263 -0.2943
35257SOL    HW1 9363   5.294   6.155   4.434 -0.3731 -1.9861  0.0858
35257SOL    HW2 9364   5.305   6.235   4.306  3.8035 -1.2880  0.7418
35258SOL     OW 9365   3.019   3.680   7.748 -0.3976 -0.2315  0.3125
35258SOL    HW1 9366   2.928   3.702   7.727 -0.2747 -1.5169 -1.7872
35258SOL    HW2 9367   3.014   3.640   7.835 -1.7387  0.3103  0.5137
35259SOL     OW 9368   5.292   5.017   4.088  0.0284  0.3515 -0.0389
35259SOL    HW1 9369   5.300   5.029   3.994  0.4951 -0.8567 -0.1743
35259SOL    HW2 9370   5.198   5.010   4.104 -0.0134 -0.3086 -0.5446
35260SOL     OW 9371   9.471   7.267   6.200  0.4448 -0.1532  0.0586
35260SOL    HW1 9372   9.413   7.337   6.171  1.8980  1.4450  0.7834
35260SOL    HW2 9373   9.479   7.281   6.295  0.9092 -1.2018  0.1887
35261SOL     OW 9374   9.510   2.700   1.349 -0.6449  0.0767 -0.2545
35261SOL    HW1 9375   9.522   2.658   1.264 -0.7389  0.8468 -0.6505
35261SOL    HW2 9376   9.421   2.734   1.347 -2.0714 -3.0731  1.5596
35262SOL     OW 9377   2.979   0.668   1.807  0.2423 -0.2697 -0.1841
35262SOL    HW1 9378   2.957   0.761   1.819 -1.2321 -0.5621 -0.3449
35262SOL    HW2 9379   2.917   0.638   1.741 -0.1829 -1.6787  0.8204
35263SOL     OW 9380   7.401   8.488   5.785 -0.1585  0.1681  0.1631
35263SOL    HW1 9381   7.392   8.517   5.876 -1.2958 -1.1849  0.5216
35263SOL    HW2 9382   7.311   8.481   5.754  0.1342 -1.3275 -0.4135
35264SOL     OW 9383   2.111   5.001   2.824 -0.4938 -0.3106  0.0600
35264SOL    HW1 9384   2.046   4.938   2.856 -0.6962  0.0698  0.4092
35264SOL    HW2 9385   2.195   4.961   2.845 -0.6232 -0.2182  0.7880
35265SOL     OW 9386   9.375   9.846   3.590 -0.1855 -0.0245  0.4248
35265SOL    HW1 9387   9.432   9.891   3.653 -0.1655 -1.3500  1.4050
35265SOL    HW2 9388   9.301   9.816   3.643 -0.8912  0.0850 -0.4806
35266SOL     OW 9389   0.849   9.866   5.684  0.2458  0.1595 -0.2113
35266SOL    HW1 9390   0.841   9.901   5.772 -0.7785  0.7071 -0.5038
35266SOL    HW2 9391   0.768   9.816   5.670 -0.3955  1.4211 -1.3893
35267SOL     OW 9392   9.669   1.862   2.526  0.1535  0.4354 -0.0511
35267SOL    HW1 9393   9.743   1.858   2.467  0.2691  0.3305  0.0991
35267SOL    HW2 9394   9.666   1.953   2.556  1.5211  0.0025  1.5718
35268SOL     OW 9395   0.583   3.090   0.273  0.1729  0.2316 -0.3098
35268SOL    HW1 9396   0.581   2.996   0.259 -0.3377  0.3352 -0.9539
35268SOL    HW2 9397   0.663   3.105   0.325 -0.3974 -0.6888  0.8796
35269SOL     OW 9398   7.991   2.634   8.964  0.2209 -0.6616  0.2165
35269SOL    HW1 9399   7.917   2.579   8.991  0.2402 -1.0252 -0.4488
35269SOL    HW2 9400   7.953   2.695   8.901  0.4108 -0.5906  0.1726
35270SOL     OW 9401   4.645   9.732   9.576 -0.4833 -0.1806  0.1771
35270SOL    HW1 9402   4.721   9.784   9.550 -0.3783 -0.8580 -0.9577
35270SOL    HW2 9403   4.587   9.735   9.499 -1.3800 -0.0779  0.8426
35271SOL     OW 9404   5.018   7.138   0.187  0.5937 -0.0171 -0.3493
35271SOL    HW1 9405   5.041   7.224   0.222 -0.0164 -0.5814  1.5690
35271SOL    HW2 9406   4.955   7.157   0.117 -0.9989  1.0849  1.2786
35272SOL     OW 9407   5.050   5.414   8.200 -0.0904 -0.0245  0.6943
35272SOL    HW1 9408   5.012   5.482   8.145 -0.4947 -0.3630  0.5521
35272SOL    HW2 9409   4.977   5.357   8.222  0.0874  0.0346  1.4839
35273SOL     OW 9410   5.228   1.314  10.240  0.2875  0.3468  0.4919
35273SOL    HW1 9411   5.312   1.344  10.205  0.3208 -0.3105 -0.0085
35273SOL    HW2 9412   5.215   1.366  10.319  0.9414  0.7817  0.3220
35274SOL     OW 9413  10.749  10.091   4.677 -0.4662  0.5792  0.4982
35274SOL    HW1 9414  10.662  10.061   4.701 -0.0365  0.4494  1.9587
35274SOL    HW2 9415  10.754  10.076   4.582 -2.5826  2.0615  0.0983
35275SOL     OW 9416   9.844   3.343   7.433 -0.3262  0.2440 -0.0366
35275SOL    HW1 9417   9.834   3.248   7.421 -0.1466  0.2925 -0.6073
35275SOL    HW2 9418   9.789   3.382   7.365 -1.2220  0.5691  0.8468
35276SOL     OW 9419   1.453   4.343   1.627 -0.3697  0.4025 -0.2655
35276SOL    HW1 9420   1.385   4.401   1.594  0.3110  0.7233 -1.1631
35276SOL    HW2 9421   1.409   4.260   1.645 -1.1990  0.9487  0.2779
35277SOL     OW 9422   8.556   4.444  10.057  0.2724 -0.0835 -0.2260
35277SOL    HW1 9423   8.621   4.454   9.987 -0.5364  1.2081 -0.8482
35277SOL    HW2 9424   8.579   4.512  10.121 -0.3633  0.3099 -0.3988
35278SOL     OW 9425   1.798   4.177  10.764  0.1052 -0.1539 -0.0780
35278SOL    HW1 9426   1.843   4.261  10.773 -0.3703  0.1644 -0.5774
35278SOL    HW2 9427   1.823   4.146  10.676 -0.0153 -0.3624 -0.0389
35279SOL     OW 9428   9.224   2.815   1.033  0.2459  0.5144 -0.0504
35279SOL    HW1 9429   9.166   2.767   0.973  1.2661 -0.9122  0.0393
35279SOL    HW2 9430   9.299   2.840   0.979  1.3243 -1.0606  0.6279
35280SOL     OW 9431   8.666   3.556   1.315  0.0831 -0.0037 -0.1907
35280SOL    HW1 9432   8.668   3.532   1.222 -0.2253 -2.3343  0.3493
35280SOL    HW2 9433   8.602   3.496   1.354  3.2985 -2.1316  2.2697
35281SOL     OW 9434  10.223   2.308   2.650 -0.3875 -0.6061 -0.1706
35281SOL    HW1 9435  10.266   2.231   2.614  0.3756  0.2340 -1.1090
35281SOL    HW2 9436  10.213   2.289   2.743  1.1039 -1.2571 -0.1194
35282SOL     OW 9437   3.629   4.271  10.824 -0.0254  0.1445 -0.0336
35282SOL    HW1 9438   3.699   4.295  10.885 -1.9036 -0.9328  2.6889
35282SOL    HW2 9439   3.634   4.338  10.756  3.4422  0.2563  0.1462
35283SOL     OW 9440   9.065  10.408   8.981 -0.4840 -0.6578  0.5112
35283SOL    HW1 9441   9.154  10.393   9.013 -0.7418 -2.0770  0.6154
35283SOL    HW2 9442   9.065  10.374   8.892 -0.1972  1.8762 -0.5599
35284SOL     OW 9443   4.683   3.999   2.428  0.1194  0.2414  0.0868
35284SOL    HW1 9444   4.768   4.011   2.385 -0.4772 -0.5193 -1.3736
35284SOL    HW2 9445   4.706   3.978   2.519  1.4642  0.8313 -0.0847
35285SOL     OW 9446   0.993   9.987  10.236  0.2631  0.1858  0.5412
35285SOL    HW1 9447   0.988   9.895  10.210 -1.1591 -0.1066  1.7168
35285SOL    HW2 9448   0.922   9.998  10.300 -0.0347  2.2779 -0.0802
35286SOL     OW 9449   7.832   2.134   1.391  0.2346  0.4508 -0.1758
35286SOL    HW1 9450   7.804   2.057   1.340  0.7780 -0.4447  0.8263
35286SOL    HW2 9451   7.868   2.097   1.471  1.1486  1.7413  0.0360
35287SOL     OW 9452   0.827   5.048   8.289 -0.3431 -0.4694  0.7181
35287SOL    HW1 9453   0.860   5.094   8.212  0.8096 -0.3099  1.2817
35287SOL    HW2 9454   0.761   5.107   8.326 -1.9324 -1.1499 -0.8853
35288SOL     OW 9455   4.398   3.896   6.223 -0.3190  0.2715  0.1277
35288SOL    HW1 9456   4.393   3.801   6.223 -0.1514  0.1462  3.1915
35288SOL    HW2 9457   4.489   3.915   6.247 -0.6383  1.1382  0.7185
35289SOL     OW 9458   0.209   1.072   2.899  0.1113 -0.1281 -0.1554
35289SOL    HW1 9459   0.254   1.143   2.945 -1.5831 -0.2650  1.8403
35289SOL    HW2 9460   0.116   1.089   2.913 -0.4141 -1.2047 -2.0637
35290SOL     OW 9461   1.402   7.104   5.785 -0.0281  0.0838 -0.3460
35290SOL    HW1 9462   1.497   7.108   5.771 -0.2701  0.7889 -2.1079
35290SOL    HW2 9463   1.375   7.195   5.795 -0.5959 -0.0592 -0.5281
35291SOL     OW 9464   6.705   8.528  11.030 -0.3052 -0.1273 -0.1718
35291SOL    HW1 9465   6.766   8.594  10.998 -1.3398  0.9105 -0.0431
35291SOL    HW2 9466   6.620   8.553  10.993 -0.5708 -1.8840 -0.8453
35292SOL     OW 9467   9.324   2.041   9.728  0.3373 -0.2310 -0.3839
35292SOL    HW1 9468   9.254   2.019   9.789  0.6554  1.5694  0.7091
35292SOL    HW2 9469   9.317   2.136   9.717  1.4039 -0.2862 -1.7723
35293SOL     OW 9470   1.656   8.108   5.472 -0.0961  0.5977 -0.3961
35293SOL    HW1 9471   1.609   8.128   5.391 -0.5323  0.1769 -0.2476
35293SOL    HW2 9472   1.612   8.031   5.507  0.3194  0.5647  0.0599
35294SOL     OW 9473  10.514   0.561   4.839 -0.3637 -0.0297  0.6421
35294SOL    HW1 9474  10.464   0.562   4.758 -0.6231  1.3699  0.7922
35294SOL    HW2 9475  10.557   0.475   4.840  0.2031  0.1953 -1.2973
35295SOL     OW 9476   8.131   7.300   0.422  0.3693  0.1288 -0.4619
35295SOL    HW1 9477   8.131   7.204   0.426  2.3546  0.0103 -1.6073
35295SOL    HW2 9478   8.199   7.321   0.358  1.5868  2.3527  1.3998
35296SOL     OW 9479   3.547   4.213   2.433  0.2275  0.6391 -0.1044
35296SOL    HW1 9480   3.630   4.259   2.445  1.0605 -0.5458 -1.0611
35296SOL    HW2 9481   3.484   4.282   2.412  1.1534  1.4748 -0.2127
35297SOL     OW 9482   4.882   5.340   3.835 -0.4254  0.2620  0.0394
35297SOL    HW1 9483   4.825   5.417   3.846  0.8001  1.2035 -0.0058
35297SOL    HW2 9484   4.955   5.372   3.782  0.1136 -0.9468  0.0292
35298SOL     OW 9485   4.260   7.399   6.066  0.1583  0.3923  0.2460
35298SOL    HW1 9486   4.323   7.408   5.994  0.4992  1.7782  0.6802
35298SOL    HW2 9487   4.207   7.479   6.061  0.1127  0.4558  1.4722
35299SOL     OW 9488   5.218   8.260   8.963  0.3590  0.6000 -0.0549
35299SOL    HW1 9489   5.136   8.307   8.947  0.3622  0.8953  0.7569
35299SOL    HW2 9490   5.287   8.326   8.949  0.5043  0.1997 -1.3319
35300SOL     OW 9491  10.250   3.797   0.649  0.0180 -0.0885  0.0013
35300SOL    HW1 9492  10.299   3.787   0.568 -1.6974  1.0597 -1.2352
35300SOL    HW2 9493  10.223   3.707   0.672 -0.1014 -0.3468 -1.1063
35301SOL     OW 9494   7.776   0.382   0.220  0.1096  0.0813  0.1724
35301SOL    HW1 9495   7.803   0.298   0.256 -1.9683 -1.5430 -1.7851
35301SOL    HW2 9496   7.800   0.377   0.127  1.9272  2.6174  0.3970
35302SOL     OW 9497   3.872   8.905  10.863  0.0697  0.1847 -0.2819
35302SOL    HW1 9498   3.885   8.905  10.769  0.2056  0.9486 -0.2640
35302SOL    HW2 9499   3.928   8.976  10.896  0.1440 -0.1688  0.3899
35303SOL     OW 9500   1.255   2.762   1.933 -0.4462  0.1826 -0.2925
35303SOL    HW1 9501   1.283   2.850   1.908  0.5073  0.6168  2.0507
35303SOL    HW2 9502   1.304   2.704   1.875  0.7983  1.1463 -0.2493
35304SOL     OW 9503   8.217  10.488   0.690 -0.3116  0.2068 -0.4393
35304SOL    HW1 9504   8.238  10.506   0.599 -0.6234  0.2043 -0.5135
35304SOL    HW2 9505   8.298  10.453   0.727  0.1981  1.3882 -0.3838
35305SOL     OW 9506   7.540   1.411   4.315  0.3923 -0.5750 -0.0714
35305SOL    HW1 9507   7.512   1.487   4.365  0.3956 -0.1635 -0.6814
35305SOL    HW2 9508   7.514   1.430   4.225  2.3812 -0.2715 -0.6354
35306SOL     OW 9509   4.417   3.556   0.485  0.3102 -0.1519  0.1400
35306SOL    HW1 9510   4.461   3.639   0.469  1.9384 -1.1047 -0.5797
35306SOL    HW2 9511   4.443   3.531   0.573  0.1100 -0.0841  0.2203
35307SOL     OW 9512   5.575   2.654   3.929  0.3659  0.1707 -0.6623
35307SOL    HW1 9513   5.558   2.628   3.838  0.7417 -0.7419 -0.4837
35307SOL    HW2 9514   5.511   2.604   3.980  0.3006  0.5156 -0.4076
35308SOL     OW 9515   2.327   3.716   1.579 -0.2341  0.1937 -0.7743
35308SOL    HW1 9516   2.293   3.715   1.669 -0.8384 -2.0813 -0.9907
35308SOL    HW2 9517   2.264   3.769   1.531  0.2507  1.6937  0.1625
35309SOL     OW 9518   9.159   6.595   7.645  0.2904 -0.0551  1.0093
35309SOL    HW1 9519   9.203   6.646   7.712  2.4467  1.4582 -1.3886
35309SOL    HW2 9520   9.229   6.553   7.595 -1.1455 -0.6229 -0.6756
35310SOL     OW 9521   3.411   4.921   5.430 -0.0734 -0.0324 -0.4202
35310SOL    HW1 9522   3.413   4.928   5.335  0.5811  1.0687 -0.3396
35310SOL    HW2 9523   3.499   4.893   5.455  0.1173  0.8414 -0.0714
35311SOL     OW 9524   1.463   9.987   4.025 -0.2280  0.5940 -0.2042
35311SOL    HW1 9525   1.469   9.915   4.089  0.0601  0.5853 -0.2422
35311SOL    HW2 9526   1.553  10.008   4.004 -0.3270 -0.2351 -1.5353
35312SOL     OW 9527   5.523   8.096   4.048 -0.3554  0.1143  0.2614
35312SOL    HW1 9528   5.552   8.077   3.959 -0.1162 -1.3219  0.6107
35312SOL    HW2 9529   5.429   8.082   4.046 -0.4519  0.7900  0.0666
35313SOL     OW 9530   6.029   8.087   7.894  0.4978  0.3622 -0.1194
35313SOL    HW1 9531   6.078   8.164   7.867  0.0495  0.2941 -1.1546
35313SOL    HW2 9532   5.957   8.080   7.831 -0.1808 -0.1992  0.6917
35314SOL     OW 9533   1.895   0.076   9.167  0.2352  0.1922 -0.0879
35314SOL    HW1 9534   1.911   0.120   9.251  2.1828 -1.3789  0.4218
35314SOL    HW2 9535   1.883  -0.016   9.190  0.4477 -0.2157 -1.5127
35315SOL     OW 9536  10.488   3.410   6.920  0.5243  0.1335  0.6506
35315SOL    HW1 9537  10.544   3.337   6.949 -0.6139 -1.7445 -1.5960
35315SOL    HW2 9538  10.409   3.368   6.888 -0.4752  2.4557 -0.0896
35316SOL     OW 9539   5.704   3.667   1.998 -0.2990 -0.1700 -0.1496
35316SOL    HW1 9540   5.634   3.653   2.061  0.1806 -0.4626  0.3337
35316SOL    HW2 9541   5.735   3.756   2.016 -0.1381 -0.2665  0.0601
35317SOL     OW 9542  10.513  10.290   5.370 -0.0479  0.6384 -0.2105
35317SOL    HW1 9543  10.579  10.234   5.328  1.3303  3.8799 -2.8083
35317SOL    HW2 9544  10.552  10.315   5.453 -0.2548 -1.3188  0.5286
35318SOL     OW 9545   9.926   2.559   4.800  0.1788 -0.2389  0.6437
35318SOL    HW1 9546   9.908   2.469   4.772 -0.4909  0.1160 -0.0988
35318SOL    HW2 9547   9.909   2.559   4.894 -2.2596 -0.3222  0.2715
35319SOL     OW 9548   3.206   7.150   4.760 -0.2969  0.3770  0.0423
35319SOL    HW1 9549   3.272   7.205   4.718 -0.4190  0.2781 -0.2877
35319SOL    HW2 9550   3.256   7.077   4.796 -0.3075 -0.1522 -0.9652
35320SOL     OW 9551  10.063   1.112   9.458  0.0921  0.3263  0.0434
35320SOL    HW1 9552  10.144   1.066   9.433 -0.4738  0.5612 -2.4854
35320SOL    HW2 9553  10.066   1.194   9.409 -0.9530  1.0496  1.1473
35321SOL     OW 9554   7.203   1.425   5.966 -0.0442  0.0476 -0.3076
35321SOL    HW1 9555   7.222   1.517   5.948  0.9569 -0.2179 -0.6946
35321SOL    HW2 9556   7.144   1.427   6.042  0.3778  0.9785  0.0143
35322SOL     OW 9557   8.926   8.841   8.312 -0.3503 -0.6451 -0.4713
35322SOL    HW1 9558   8.957   8.781   8.244  1.1206 -1.0672  0.5033
35322SOL    HW2 9559   8.869   8.787   8.367 -0.9901 -0.4877 -0.9790
35323SOL     OW 9560   2.946   8.711   6.954 -0.3982 -0.1971 -0.2991
35323SOL    HW1 9561   2.997   8.764   7.015 -1.0832  1.5194 -1.1511
35323SOL    HW2 9562   3.010   8.679   6.891  0.0625 -0.6287  0.3759
35324SOL     OW 9563  10.985   5.613   5.546 -0.2910 -0.3305  0.2570
35324SOL    HW1 9564  10.998   5.547   5.614 -0.2866  0.7614  1.3648
35324SOL    HW2 9565  11.054   5.596   5.482  0.0421 -1.0589  0.7982
35325SOL     OW 9566   8.090   6.293   3.383  0.1037  0.2190 -0.1655
35325SOL    HW1 9567   8.024   6.225   3.395  2.5318 -2.1484  0.5331
35325SOL    HW2 9568   8.121   6.280   3.293 -0.8041  1.8298 -0.7692
35326SOL     OW 9569   4.082   4.411   6.592 -0.3574  0.3441  0.0268
35326SOL    HW1 9570   4.059   4.442   6.680  1.1332  0.8220  0.2757
35326SOL    HW2 9571   4.046   4.478   6.533 -1.9777 -0.3298  0.1794
35327SOL     OW 9572   4.526   0.346   0.036 -0.3733  0.2169  0.1504
35327SOL    HW1 9573   4.518   0.431  -0.008 -0.8353  0.0856 -0.0276
35327SOL    HW2 9574   4.610   0.311   0.005 -0.5400  0.2702 -0.3786
35328SOL     OW 9575   4.745   5.237   5.433  0.2438  0.8630  0.5301
35328SOL    HW1 9576   4.789   5.318   5.460  1.8679  0.4774 -0.7327
35328SOL    HW2 9577   4.655   5.247   5.462  1.0892  1.8042  3.1274
35329SOL     OW 9578   6.580   7.760   8.388  0.4394  0.3332  0.0992
35329SOL    HW1 9579   6.652   7.727   8.334 -0.4912  0.9609 -1.5800
35329SOL    HW2 9580   6.529   7.682   8.411  0.9588  0.0405  0.2688
35330SOL     OW 9581   7.516   6.460   9.463  0.1241  0.7461  0.1683
35330SOL    HW1 9582   7.527   6.447   9.368  0.4067  1.4965  0.0913
35330SOL    HW2 9583   7.426   6.434   9.480  0.4196 -0.5167 -0.0994
35331SOL     OW 9584   6.919   1.276  10.201  0.4365  0.5520  0.3226
35331SOL    HW1 9585   6.933   1.367  10.226 -0.6798  1.5953 -2.5006
35331SOL    HW2 9586   6.850   1.245  10.259 -1.4000  2.5365 -0.6773
35332SOL     OW 9587   5.293   6.737   7.133  0.6798  0.0498  0.6782
35332SOL    HW1 9588   5.298   6.688   7.051 -0.4494 -0.0740  0.6655
35332SOL    HW2 9589   5.348   6.688   7.194 -0.2132 -1.0924  0.5862
35333SOL     OW 9590   2.933   0.789   8.227  0.1714  0.0016  0.6479
35333SOL    HW1 9591   2.986   0.717   8.192 -0.6366 -0.9604  1.3302
35333SOL    HW2 9592   2.890   0.752   8.304 -0.7541  1.0257  0.6534
35334SOL     OW 9593   4.824   4.245   4.869  0.2071 -0.0017  0.4765
35334SOL    HW1 9594   4.820   4.196   4.951 -1.5698  0.6530  0.8262
35334SOL    HW2 9595   4.910   4.224   4.833  0.8589 -0.6544  2.2823
35335SOL     OW 9596   9.968   2.179   1.853 -0.3625 -0.2400  0.0002
35335SOL    HW1 9597   9.995   2.223   1.772 -1.1896 -0.4106 -0.3783
35335SOL    HW2 9598   9.997   2.238   1.922  2.3843 -1.1480 -0.2727
35336SOL     OW 9599   6.546  10.306   2.148  0.4502  0.1080  0.2280
35336SOL    HW1 9600   6.499  10.354   2.217 -0.6488  0.1956 -0.5512
35336SOL    HW2 9601   6.614  10.366   2.120  0.6312  0.2460  0.9275
35337SOL     OW 9602   7.948   5.514   0.667  0.0531  0.4992 -0.2480
35337SOL    HW1 9603   7.857   5.486   0.657  0.1589  0.7267 -2.2513
35337SOL    HW2 9604   7.942   5.600   0.708 -0.7093  0.8732 -1.1066
35338SOL     OW 9605   2.221   4.137   1.564 -0.0710 -0.2619 -0.1780
35338SOL    HW1 9606   2.267   4.202   1.617  1.3459 -1.3210 -0.0400
35338SOL    HW2 9607   2.128   4.155   1.579  0.2328  2.3901 -1.0085
35339SOL     OW 9608   9.857   2.490   6.090  0.3241  0.4379 -0.1304
35339SOL    HW1 9609   9.811   2.406   6.083  2.8783 -1.0036 -1.6321
35339SOL    HW2 9610   9.810   2.548   6.031 -1.6266  0.2041  1.0948
35340SOL     OW 9611   2.769   2.259  10.357  0.6915 -0.0507  0.0539
35340SOL    HW1 9612   2.799   2.182  10.406 -1.4889 -1.3821 -0.5380
35340SOL    HW2 9613   2.676   2.243  10.342  0.5622  1.8597 -1.6823
35341SOL     OW 9614   7.367   7.799   8.375 -0.1786  0.3136  0.1757
35341SOL    HW1 9615   7.372   7.864   8.306 -0.2465  0.5772  0.4163
35341SOL    HW2 9616   7.277   7.804   8.407 -0.6066 -0.8956 -0.7506
35342SOL     OW 9617   9.537   6.765   5.502  0.1229 -0.4216  0.2706
35342SOL    HW1 9618   9.479   6.826   5.548  1.5238  1.1571  0.0526
35342SOL    HW2 9619   9.510   6.769   5.411  0.8817  0.7735  0.0652
35343SOL     OW 9620   5.162   0.525   3.964 -0.5592  0.1700  0.1716
35343SOL    HW1 9621   5.071   0.522   3.991  0.0925  1.4144  2.8967
35343SOL    HW2 9622   5.192   0.613   3.989  1.6300 -0.5436  0.3375
35344SOL     OW 9623   6.040   4.724   4.236 -0.3988 -0.2623 -0.6679
35344SOL    HW1 9624   6.016   4.636   4.207 -0.4989  0.1590 -1.9357
35344SOL    HW2 9625   6.084   4.711   4.320 -0.9747 -1.4574 -0.5413
35345SOL     OW 9626  10.017   7.309   6.037  0.3038 -0.0684 -0.1825
35345SOL    HW1 9627  10.075   7.352   5.974 -0.4632 -0.7254 -1.3829
35345SOL    HW2 9628   9.975   7.239   5.987  0.9429 -1.7405  1.5148
35346SOL     OW 9629   9.777   3.085   8.681 -0.3160  0.2562  0.0341
35346SOL    HW1 9630   9.773   3.009   8.622  0.6148  1.2269 -1.3499
35346SOL    HW2 9631   9.781   3.047   8.769  1.3745 -1.3596 -0.6683
35347SOL     OW 9632   1.111   3.041  10.717 -0.4419  0.8677  0.1582
35347SOL    HW1 9633   1.154   2.967  10.674  1.0432  1.5261  0.4315
35347SOL    HW2 9634   1.137   3.117  10.665 -0.8829  1.3404  0.6219
35348SOL     OW 9635  10.984   1.393   4.861 -0.0691 -0.2309  0.7806
35348SOL    HW1 9636  10.977   1.488   4.852  0.6484 -0.2137  0.3115
35348SOL    HW2 9637  10.894   1.363   4.878 -0.3399  0.4981  0.6488
35349SOL     OW 9638   5.422   6.311   1.254 -0.0953 -0.2450 -0.1836
35349SOL    HW1 9639   5.512   6.325   1.223  0.8187 -2.1124  1.4091
35349SOL    HW2 9640   5.418   6.359   1.336 -0.8264  0.4452 -0.6132
35350SOL     OW 9641   4.171   6.236   4.120  0.1103 -0.3362 -0.0240
35350SOL    HW1 9642   4.255   6.198   4.144  1.1132  0.9039 -1.4350
35350SOL    HW2 9643   4.174   6.326   4.153  0.1163  0.2938 -1.6199
35351SOL     OW 9644   5.462   5.259   0.139 -0.0841 -0.1398 -0.1037
35351SOL    HW1 9645   5.418   5.287   0.219 -0.6566 -0.2879 -0.3571
35351SOL    HW2 9646   5.488   5.340   0.096  3.5454 -0.0163  1.9606
35352SOL     OW 9647   4.939   1.429   6.108  0.1610  0.0930 -0.4116
35352SOL    HW1 9648   5.020   1.426   6.158  0.1689  1.9383 -0.2313
35352SOL    HW2 9649   4.881   1.368   6.152  1.4035 -1.1715 -0.4818
35353SOL     OW 9650   0.509   5.708  10.647  0.3510  0.2772 -0.0056
35353SOL    HW1 9651   0.434   5.767  10.638  0.3171  0.5845  1.8884
35353SOL    HW2 9652   0.514   5.690  10.741  1.6601 -1.0545 -0.3003
35354SOL     OW 9653   8.584   8.192   3.515  0.1045  0.2644 -0.6654
35354SOL    HW1 9654   8.555   8.282   3.531  1.2544  0.4736  0.3634
35354SOL    HW2 9655   8.518   8.156   3.456  0.3051  2.1635 -2.1242
35355SOL     OW 9656   4.478   0.793   9.648 -0.2104  0.3099  0.8394
35355SOL    HW1 9657   4.542   0.849   9.604 -0.2958 -0.0167  0.2891
35355SOL    HW2 9658   4.530   0.720   9.682 -0.1505  0.5406  1.2376
35356SOL     OW 9659  10.636   3.672   1.998 -0.0076 -0.2304  0.2343
35356SOL    HW1 9660  10.634   3.674   2.094 -0.4799 -1.6251  0.2851
35356SOL    HW2 9661  10.589   3.592   1.975  1.1339 -0.5615 -1.1266
35357SOL     OW 9662   2.872   0.346   0.067 -0.0010  0.3739  0.4828
35357SOL    HW1 9663   2.934   0.390   0.009 -0.7154  1.6836  0.6613
35357SOL    HW2 9664   2.882   0.253   0.047 -0.4578  0.7841 -2.0202
35358SOL     OW 9665   6.675   9.952   5.868 -0.4221  0.3601 -0.1711
35358SOL    HW1 9666   6.748  10.007   5.840  0.7887 -0.3039  1.4942
35358SOL    HW2 9667   6.665   9.972   5.961 -1.0969 -0.9518  0.0547
35359SOL     OW 9668   3.933   7.318   9.142  0.1118 -0.1095 -0.2222
35359SOL    HW1 9669   3.895   7.258   9.206  2.8231 -1.4246  0.3013
35359SOL    HW2 9670   3.871   7.316   9.068 -0.1790 -3.2404 -0.0375
35360SOL     OW 9671   4.567   8.550   0.564  0.3244  0.3203  0.3818
35360SOL    HW1 9672   4.630   8.612   0.603 -0.1810 -0.0231  1.8241
35360SOL    HW2 9673   4.491   8.604   0.542  1.8128  1.1734 -3.4547
35361SOL     OW 9674   7.116   6.257   4.949  0.1955  0.5210 -0.1089
35361SOL    HW1 9675   7.079   6.325   4.893 -0.9351 -1.0900 -1.4271
35361SOL    HW2 9676   7.204   6.242   4.915  0.3024  1.0337 -0.0603
35362SOL     OW 9677   8.720   4.654   4.541 -0.0237  0.3496  0.7173
35362SOL    HW1 9678   8.733   4.749   4.535  1.9817  0.1807  1.4729
35362SOL    HW2 9679   8.691   4.640   4.631  1.0512  0.1590  1.0522
35363SOL     OW 9680   9.319   7.630  10.664 -0.3872  0.0121 -0.7803
35363SOL    HW1 9681   9.227   7.646  10.645 -0.9068 -0.4504  1.1314
35363SOL    HW2 9682   9.358   7.717  10.673 -1.6274  0.3857  2.5047
35364SOL     OW 9683   7.079   7.922   5.910  0.3172  0.8563  0.3238
35364SOL    HW1 9684   6.988   7.938   5.885  0.3871  0.0417 -0.4827
35364SOL    HW2 9685   7.074   7.877   5.994 -0.0531  0.0616 -0.1209
35365SOL     OW 9686   9.215   0.045   3.241  0.2304 -1.1348 -0.6096
35365SOL    HW1 9687   9.201  -0.045   3.212  1.0936 -2.6928  3.2473
35365SOL    HW2 9688   9.146   0.060   3.305  2.2859 -0.5296  1.5981
35366SOL     OW 9689   4.112   8.044   7.307 -0.5228  0.2440 -0.1722
35366SOL    HW1 9690   4.143   7.954   7.306  0.4796  0.5715 -1.0923
35366SOL    HW2 9691   4.023   8.039   7.273 -0.3708 -0.3735 -0.4963
35367SOL     OW 9692   8.939   8.671   6.846 -0.2094  0.0937 -0.1170
35367SOL    HW1 9693   8.952   8.630   6.761 -3.9286 -0.1649 -0.7688
35367SOL    HW2 9694   9.025   8.673   6.886  1.4508 -1.0655 -3.2967
35368SOL     OW 9695   5.352   4.232  10.955 -0.1452 -0.6617 -0.2523
35368SOL    HW1 9696   5.307   4.222  11.039 -0.2832  1.0995 -0.0823
35368SOL    HW2 9697   5.431   4.282  10.975 -0.3008 -0.0057 -1.1992
35369SOL     OW 9698   2.724   6.555   2.627 -0.9722 -0.5050  0.1998
35369SOL    HW1 9699   2.630   6.538   2.634 -1.2193  1.0152  1.0447
35369SOL    HW2 9700   2.739   6.569   2.533 -1.5713 -0.8245  0.0539
35370SOL     OW 9701   8.322  10.288   7.666 -0.5174  0.8725  0.0516
35370SOL    HW1 9702   8.396  10.232   7.689  0.5608  1.2752 -2.1983
35370SOL    HW2 9703   8.252  10.259   7.724  0.4789 -1.6583  0.1154
35371SOL     OW 9704   2.557   1.699   4.917  0.1491 -0.0968  0.1964
35371SOL    HW1 9705   2.536   1.791   4.932 -1.3916  0.0336 -2.2002
35371SOL    HW2 9706   2.652   1.697   4.908  0.3991  0.9054  2.0083
35372SOL     OW 9707   6.932   9.654   3.242 -0.3950  0.1830  0.4113
35372SOL    HW1 9708   6.980   9.655   3.325  1.3207  0.9837 -0.5343
35372SOL    HW2 9709   6.971   9.581   3.194 -1.9587 -0.8200  0.5667
35373SOL     OW 9710   0.268  10.141   2.239 -0.5498  0.1290 -0.1962
35373SOL    HW1 9711   0.223  10.207   2.292 -2.6891 -0.8452 -0.6944
35373SOL    HW2 9712   0.292  10.072   2.301 -2.1175 -0.5333 -0.2937
35374SOL     OW 9713   3.323   8.849   3.484 -0.1561 -0.6112  0.1606
35374SOL    HW1 9714   3.261   8.777   3.498  0.3615 -1.4217 -1.4937
35374SOL    HW2 9715   3.405   8.805   3.459  0.3684  0.5402 -0.1946
35375SOL     OW 9716  10.281   4.113   0.420 -0.1551 -0.4099 -0.3220
35375SOL    HW1 9717  10.240   4.167   0.487  1.2189 -1.2074  1.2508
35375SOL    HW2 9718  10.222   4.118   0.345 -1.6464  0.6972  0.8626
35376SOL     OW 9719   9.885   7.444   9.674  0.0409 -0.1805 -0.6924
35376SOL    HW1 9720   9.889   7.485   9.588 -0.7581  1.3501 -0.0345
35376SOL    HW2 9721   9.854   7.513   9.733  3.6395 -0.1703  1.4764
35377SOL     OW 9722   8.860   5.057   1.503  0.3276 -0.1203  0.4500
35377SOL    HW1 9723   8.838   4.965   1.511 -1.4344  0.3355  1.6317
35377SOL    HW2 9724   8.808   5.088   1.429  0.4453  0.0467  0.4368
35378SOL     OW 9725   7.685  10.812   3.326  0.8411 -0.0407  0.0892
35378SOL    HW1 9726   7.671  10.719   3.345 -0.2258  0.3575  1.4617
35378SOL    HW2 9727   7.644  10.826   3.241  0.5703 -0.7267  0.1038
35379SOL     OW 9728   0.490   0.819   9.337  0.7650  0.7798  0.0541
35379SOL    HW1 9729   0.462   0.779   9.420  0.8105 -1.3335 -0.9012
35379SOL    HW2 9730   0.408   0.840   9.293  0.7242  2.7731  0.9614
35380SOL     OW 9731   8.687   2.979   0.424  0.4182 -0.3183  0.1217
35380SOL    HW1 9732   8.592   2.986   0.435  0.4253  0.4256 -0.2418
35380SOL    HW2 9733   8.698   2.951   0.333  0.5919  1.7312 -0.5371
35381SOL     OW 9734   9.665   4.946  10.116  0.0216  0.5109  0.0741
35381SOL    HW1 9735   9.609   4.997  10.056 -0.6553  0.5441  0.7119
35381SOL    HW2 9736   9.751   4.947  10.075  0.0565  2.2757  0.1183
35382SOL     OW 9737   7.103   1.561   1.098  0.3754  0.0077 -0.1744
35382SOL    HW1 9738   7.178   1.557   1.158 -0.8248 -1.3465  1.3215
35382SOL    HW2 9739   7.046   1.628   1.135  0.6156  0.7283 -1.0717
35383SOL     OW 9740   4.133   8.245   0.481 -0.6873 -0.4417  0.8199
35383SOL    HW1 9741   4.046   8.218   0.451 -0.6601  0.0671  0.2607
35383SOL    HW2 9742   4.125   8.339   0.496 -0.1691 -0.3472  0.5307
35384SOL     OW 9743   6.195   5.403   7.142  0.0726  0.1215  0.0686
35384SOL    HW1 9744   6.181   5.329   7.084  1.1887  0.1972 -0.3290
35384SOL    HW2 9745   6.185   5.366   7.230 -0.2052 -0.3125 -0.1401
35385SOL     OW 9746   3.447   5.214   5.975  0.0729  0.6495  0.1780
35385SOL    HW1 9747   3.395   5.190   5.898 -2.1266  1.9082  1.1771
35385SOL    HW2 9748   3.398   5.179   6.049  1.4292  0.6495  1.1132
35386SOL     OW 9749   4.381   7.609   2.447  0.6387  0.4805 -0.2604
35386SOL    HW1 9750   4.334   7.691   2.463 -0.0007  0.1617 -0.4898
35386SOL    HW2 9751   4.448   7.631   2.382  0.1998  0.7260 -0.6305
35387SOL     OW 9752   1.131   9.436   6.290  0.0024  0.2466  0.0882
35387SOL    HW1 9753   1.084   9.497   6.233 -0.6132 -0.5204 -0.2537
35387SOL    HW2 9754   1.218   9.474   6.301 -0.0495  0.6725 -0.9362
35388SOL     OW 9755   8.737   4.464   6.656  0.2659  0.2100  0.0145
35388SOL    HW1 9756   8.647   4.495   6.668  0.5606  0.9773  0.2783
35388SOL    HW2 9757   8.777   4.530   6.600  0.6654 -0.1470 -0.1237
35389SOL     OW 9758   9.802   4.766   6.094 -0.5621  0.5126 -0.1142
35389SOL    HW1 9759   9.810   4.859   6.118 -1.4629  1.5867 -3.4851
35389SOL    HW2 9760   9.713   4.742   6.121 -0.6704  0.9211 -0.1035
35390SOL     OW 9761   2.206   8.994   7.872 -0.1804  0.1815  0.5476
35390SOL    HW1 9762   2.122   9.025   7.839 -0.7436 -0.1520  1.6205
35390SOL    HW2 9763   2.271   9.049   7.828 -0.7589 -1.0784 -2.1284
35391SOL     OW 9764   7.459   8.375   0.018  0.1165  0.5837  0.3410
35391SOL    HW1 9765   7.409   8.445   0.060 -0.0326 -0.1073  1.3357
35391SOL    HW2 9766   7.504   8.330   0.090 -0.0402 -0.5401 -0.2363
35392SOL     OW 9767   3.016   5.920   5.084  0.7167 -0.2472  0.1499
35392SOL    HW1 9768   3.067   5.845   5.054  0.0846 -0.6001 -0.0732
35392SOL    HW2 9769   3.051   5.994   5.035 -0.8313 -0.9216 -2.1926
35393SOL     OW 9770  10.681   0.866   8.884 -0.2585  0.1255  0.6437
35393SOL    HW1 9771  10.763   0.819   8.872 -0.4389  0.2572 -1.5876
35393SOL    HW2 9772  10.705   0.945   8.932  0.4787 -0.9368  2.1163
35394SOL     OW 9773   5.725   4.947   6.789 -0.8554  0.3488  0.3559
35394SOL    HW1 9774   5.656   4.936   6.854 -1.3969 -2.1952 -0.5239
35394SOL    HW2 9775   5.715   5.037   6.758 -1.8568  0.9738  2.3040
35395SOL     OW 9776   7.746  11.013   0.569  0.5129  0.5495 -0.1917
35395SOL    HW1 9777   7.652  11.033   0.574  0.1354 -0.3545 -2.3526
35395SOL    HW2 9778   7.780  11.035   0.655 -1.8794 -0.0325  0.9906
35396SOL     OW 9779   2.742   2.300   7.619  0.3189  0.2700 -0.3908
35396SOL    HW1 9780   2.794   2.233   7.576  1.0639 -0.0341  0.9305
35396SOL    HW2 9781   2.664   2.254   7.650  0.0105  0.3877 -0.9873
35397SOL     OW 9782  10.316   1.716   0.219  0.1133 -0.1084  0.4907
35397SOL    HW1 9783  10.368   1.644   0.256 -0.2119  0.4991  2.2196
35397SOL    HW2 9784  10.226   1.685   0.225  0.0209  0.1935  0.6680
35398SOL     OW 9785   8.091   5.903   4.272  0.4179  0.2483 -0.0495
35398SOL    HW1 9786   8.031   5.830   4.264  0.0202  0.6510 -0.8082
35398SOL    HW2 9787   8.055   5.971   4.216  1.9368  0.2605 -1.0757
35399SOL     OW 9788   3.370   4.102   9.163 -0.5543 -0.5530 -0.6415
35399SOL    HW1 9789   3.299   4.059   9.115 -1.3480 -1.0753  0.9165
35399SOL    HW2 9790   3.331   4.122   9.248  0.4548  1.3487 -0.5873
35400SOL     OW 9791   0.304   1.561   0.311  0.4027  0.0342  0.2935
35400SOL    HW1 9792   0.261   1.583   0.393  0.3523 -0.0271  0.2827
35400SOL    HW2 9793   0.329   1.646   0.274  0.9314  0.0345  0.6459
35401SOL     OW 9794   5.834  10.168   5.384  0.6002 -0.4825 -0.3088
35401SOL    HW1 9795   5.844  10.073   5.395  0.9891 -0.4442 -0.3102
35401SOL    HW2 9796   5.899  10.206   5.443  0.4250 -0.2153 -0.2862
35402SOL     OW 9797   9.378   7.317   2.589  0.1415 -0.4887 -0.7779
35402SOL    HW1 9798   9.291   7.280   2.602 -0.5886  0.1311 -3.3558
35402SOL    HW2 9799   9.362   7.410   2.570  1.4608 -0.1267 -0.2108
35403SOL     OW 9800   9.583  10.389   7.406  0.0692 -0.4659 -0.6586
35403SOL    HW1 9801   9.673  10.359   7.394  0.6609  0.4410  1.2267
35403SOL    HW2 9802   9.543  10.378   7.319  2.3575  0.3470 -1.9078
35404SOL     OW 9803  10.771   5.773   4.822 -0.1845  0.0756 -0.8099
35404SOL    HW1 9804  10.809   5.767   4.910 -1.0755 -2.8470 -0.5366
35404SOL    HW2 9805  10.846   5.784   4.764  0.5646  0.1798  0.1455
35405SOL     OW 9806   9.194   0.155   8.053  0.0949 -0.8004  0.4585
35405SOL    HW1 9807   9.232   0.165   8.141 -0.4580 -1.1443  0.7422
35405SOL    HW2 9808   9.265   0.117   8.001  0.4778 -0.4463  0.7158
35406SOL     OW 9809   3.231   8.618   1.628  0.2813 -0.3635 -0.5189
35406SOL    HW1 9810   3.139   8.645   1.635  0.6996  0.7298  1.8279
35406SOL    HW2 9811   3.277   8.697   1.600  0.9599  0.3505  2.2682
35407SOL     OW 9812   2.003  10.898   1.278 -0.7319 -0.3387  0.3683
35407SOL    HW1 9813   1.919  10.935   1.304 -0.4140  0.8931 -0.3092
35407SOL    HW2 9814   1.983  10.841   1.204 -0.8345  0.9417 -0.6293
35408SOL     OW 9815  10.466   2.495   6.092 -0.3313 -0.0662 -0.5104
35408SOL    HW1 9816  10.437   2.437   6.161 -0.7790 -1.9633 -2.2023
35408SOL    HW2 9817  10.399   2.488   6.024 -0.7649  2.9765 -0.5715
35409SOL     OW 9818   8.557   8.044   7.364  0.0749 -0.0007 -0.3375
35409SOL    HW1 9819   8.622   8.090   7.311 -0.3033  1.7735  0.6294
35409SOL    HW2 9820   8.475   8.089   7.344 -0.4428 -0.7436  0.1091
35410SOL     OW 9821   0.171  10.916   1.184  0.0448  0.1458  0.1715
35410SOL    HW1 9822   0.195  10.846   1.122 -2.2116  1.2877 -2.1853
35410SOL    HW2 9823   0.255  10.954   1.211  1.2304 -2.1455 -0.0329
35411SOL     OW 9824   8.915   5.048   1.977 -0.2523  0.3803 -0.4439
35411SOL    HW1 9825   8.921   4.981   1.909  1.7127  0.0153  0.0221
35411SOL    HW2 9826   8.959   5.124   1.940  0.2548  0.3892  0.1514
35412SOL     OW 9827   7.238   1.168   2.769 -0.1831 -0.1840  0.0149
35412SOL    HW1 9828   7.188   1.245   2.742  0.4146  0.5980  1.0664
35412SOL    HW2 9829   7.326   1.183   2.734  0.4620  0.5951  1.8709
35413SOL     OW 9830   7.382   9.814   6.296  0.4414 -0.6065  0.2957
35413SOL    HW1 9831   7.342   9.730   6.320 -1.1908  0.0737  0.0834
35413SOL    HW2 9832   7.413   9.850   6.379 -2.9323  0.5901  1.2101
35414SOL     OW 9833   4.859   0.135   5.018 -0.5493 -0.1945  0.4088
35414SOL    HW1 9834   4.873   0.145   4.924  1.1291  0.8899  0.7383
35414SOL    HW2 9835   4.776   0.087   5.025 -1.1429  0.4449 -1.6005
35415SOL     OW 9836   8.009   1.971   9.947 -0.2018 -0.0471 -0.1763
35415SOL    HW1 9837   8.007   1.930  10.033  1.3694 -1.4141 -0.7283
35415SOL    HW2 9838   8.052   2.056   9.961 -0.2714 -0.1085  0.4312
35416SOL     OW 9839   0.865   4.483   8.732 -0.1585  0.5784 -0.1043
35416SOL    HW1 9840   0.778   4.452   8.708 -0.5175  1.0994  0.4920
35416SOL    HW2 9841   0.922   4.406   8.722 -0.5186  0.4379 -1.3055
35417SOL     OW 9842   8.602   6.820   5.871  0.2623  0.0182  0.2465
35417SOL    HW1 9843   8.636   6.903   5.838  0.0354 -0.0770 -0.2276
35417SOL    HW2 9844   8.622   6.822   5.965 -0.0234  0.7431  0.2972
35418SOL     OW 9845   4.873   6.204   1.686 -0.3375  0.7176  0.7219
35418SOL    HW1 9846   4.875   6.214   1.590 -0.8211 -0.7697  0.5360
35418SOL    HW2 9847   4.951   6.152   1.706 -0.0138  1.3653  1.2051
35419SOL     OW 9848   5.906   5.232   5.332  0.0347 -0.2371 -0.2332
35419SOL    HW1 9849   5.874   5.314   5.371 -0.5295 -0.8459  0.6272
35419SOL    HW2 9850   5.860   5.226   5.248  1.1911  1.0414 -1.0034
35420SOL     OW 9851   2.714   2.401   9.024  0.9315 -0.2918 -0.2730
35420SOL    HW1 9852   2.656   2.325   9.027 -1.0683  1.1168  3.7575
35420SOL    HW2 9853   2.671   2.461   8.963 -0.6043 -0.2512  0.7969
35421SOL     OW 9854   9.824   6.286   5.346  0.1020  0.2519  0.2802
35421SOL    HW1 9855   9.852   6.202   5.381  0.3262 -0.2679 -1.0747
35421SOL    HW2 9856   9.731   6.292   5.370  0.3151  0.0666  1.1910
35422SOL     OW 9857   6.012   8.161   5.904 -0.5246  0.1059 -0.1831
35422SOL    HW1 9858   6.099   8.177   5.867 -0.3240 -0.3539  0.0789
35422SOL    HW2 9859   5.964   8.114   5.836 -0.2541 -0.4728  0.0169
35423SOL     OW 9860   5.294   5.191   2.432  0.5048 -0.0493  0.6701
35423SOL    HW1 9861   5.292   5.274   2.480 -1.2907 -0.3313  1.1989
35423SOL    HW2 9862   5.380   5.187   2.392  1.6420  0.8001  2.8730
35424SOL     OW 9863   8.130   8.994  10.756  0.1094  0.7144 -0.0287
35424SOL    HW1 9864   8.071   9.054  10.802 -0.1576 -0.0862  0.7064
35424SOL    HW2 9865   8.079   8.914  10.746  1.7454 -0.8695  2.7528
35425SOL     OW 9866   1.353   3.935  11.092 -0.3127 -0.1022 -0.5931
35425SOL    HW1 9867   1.291   3.999  11.055  0.5128  1.1832  0.1766
35425SOL    HW2 9868   1.374   3.969  11.179  0.8800 -0.9219 -0.5388
35426SOL     OW 9869   6.585   5.972   4.554 -0.9505  0.1807 -0.3056
35426SOL    HW1 9870   6.672   6.009   4.570 -1.1849  0.4580  0.3617
35426SOL    HW2 9871   6.562   5.930   4.637 -1.1832 -0.4556 -0.6880
35427SOL     OW 9872   2.363   5.075   5.752 -0.3448 -0.2796  0.4422
35427SOL    HW1 9873   2.411   4.993   5.768  0.2489 -0.0552 -0.1608
35427SOL    HW2 9874   2.427   5.132   5.709 -0.9615  0.2611  0.2370
35428SOL     OW 9875   3.330   2.034   6.880 -0.0582 -0.2761  0.1911
35428SOL    HW1 9876   3.410   1.983   6.887 -0.4414 -0.7984  0.8454
35428SOL    HW2 9877   3.305   2.053   6.970  0.5942  1.9308 -0.0187
35429SOL     OW 9878   8.674   8.924   4.889 -0.3755 -0.1209  0.1945
35429SOL    HW1 9879   8.609   8.857   4.868 -0.4791  0.0908 -0.1543
35429SOL    HW2 9880   8.730   8.882   4.955 -0.0884 -0.7589 -0.4397
35430SOL     OW 9881   7.475   1.401   6.526  0.5402 -0.8296  0.6700
35430SOL    HW1 9882   7.421   1.354   6.463 -0.5260  0.2808  0.7034
35430SOL    HW2 9883   7.429   1.391   6.609  0.3337  0.1767  0.6890
35431SOL     OW 9884   7.687   0.429  10.904 -0.2603  0.3055 -0.4200
35431SOL    HW1 9885   7.729   0.401  10.823 -0.9873  0.9553 -1.0493
35431SOL    HW2 9886   7.628   0.357  10.927  1.1563 -0.6229  0.4852
35432SOL     OW 9887  10.446  10.668   3.997 -0.1325  0.3061  0.2981
35432SOL    HW1 9888  10.530  10.713   3.995 -0.6885  1.4044  0.7986
35432SOL    HW2 9889  10.466  10.581   4.033  0.8075  0.4855  0.2316
35433SOL     OW 9890   3.070   5.102   0.317 -0.6144 -0.1389  0.0721
35433SOL    HW1 9891   3.128   5.077   0.246  0.6758 -3.3941  2.0371
35433SOL    HW2 9892   2.998   5.040   0.313 -1.2879  0.5743  0.7146
35434SOL     OW 9893   3.464  10.043   5.479  0.2912 -0.7124  0.2046
35434SOL    HW1 9894   3.523   9.988   5.427 -0.0146 -0.6673 -0.2008
35434SOL    HW2 9895   3.381   9.996   5.479  0.5800 -1.2489  1.5839
35435SOL     OW 9896   9.374   8.715   5.679  0.0515 -0.0916  0.1394
35435SOL    HW1 9897   9.308   8.757   5.734 -0.4526  0.2922 -0.7374
35435SOL    HW2 9898   9.329   8.641   5.639  0.6882 -0.9492  0.9761
35436SOL     OW 9899   6.860   1.549   2.553  0.5892 -0.2601  0.3330
35436SOL    HW1 9900   6.827   1.613   2.490  2.3397  0.8945  0.5138
35436SOL    HW2 9901   6.949   1.530   2.524  0.6343 -1.4515  1.1716
35437SOL     OW 9902  10.157  10.947   9.424  0.7943 -0.8527 -0.3321
35437SOL    HW1 9903  10.167  10.872   9.483  1.6491 -1.3162 -1.0365
35437SOL    HW2 9904  10.063  10.950   9.406  0.2431  0.2500  2.2266
35438SOL     OW 9905   8.673   3.707   1.645 -0.0765  0.2537  0.2824
35438SOL    HW1 9906   8.590   3.661   1.636  0.4061 -0.2292 -2.4297
35438SOL    HW2 9907   8.735   3.640   1.674  0.1877 -0.4113 -1.6843
35439SOL     OW 9908   6.468   0.047   7.632  0.1577  0.0471  0.0525
35439SOL    HW1 9909   6.448   0.046   7.726  2.0323  0.0786  0.4909
35439SOL    HW2 9910   6.438   0.133   7.602 -1.5916 -0.4324  0.3154
35440SOL     OW 9911   2.904   4.324  10.321  0.0193 -0.0713 -0.0331
35440SOL    HW1 9912   2.873   4.393  10.380  1.6125 -0.2805  1.0883
35440SOL    HW2 9913   2.939   4.257  10.379  2.1715 -0.0317 -1.1870
35441SOL     OW 9914   0.747  10.327   9.644 -0.5857  0.3088  0.2773
35441SOL    HW1 9915   0.734  10.360   9.733 -1.1370 -0.1166  0.3593
35441SOL    HW2 9916   0.766  10.234   9.655  2.2643  0.7776  0.1383
35442SOL     OW 9917   4.771   8.847  10.203 -0.3026 -0.5357  0.0413
35442SOL    HW1 9918   4.712   8.797  10.146 -2.7400  0.3316  1.6290
35442SOL    HW2 9919   4.767   8.937  10.169  1.4653 -0.7461 -0.8178
35443SOL     OW 9920   8.098   4.728   0.441  0.4938 -0.1471  0.2981
35443SOL    HW1 9921   8.163   4.759   0.378  1.5355  0.1955  1.5092
35443SOL    HW2 9922   8.027   4.792   0.436  0.2720 -0.4713 -0.9623
35444SOL     OW 9923   7.475   2.604   0.585 -0.4652 -0.1527  0.5141
35444SOL    HW1 9924   7.419   2.616   0.508  0.8199  0.1444 -0.4102
35444SOL    HW2 9925   7.420   2.628   0.659 -0.8362  2.5191 -0.5253
35445SOL     OW 9926   3.175  11.032   2.481 -0.0204 -0.4123  0.0899
35445SOL    HW1 9927   3.235  10.958   2.480 -0.6949 -0.9769  0.6079
35445SOL    HW2 9928   3.230  11.107   2.505  0.9719 -0.4401 -1.9049
35446SOL     OW 9929   0.887   8.683   2.391 -0.0208  0.3483 -0.9022
35446SOL    HW1 9930   0.915   8.686   2.483  0.1424  0.9352 -0.9664
35446SOL    HW2 9931   0.965   8.654   2.343  0.0372  0.5133 -0.9089
35447SOL     OW 9932   3.973   6.502   0.051 -0.2389  0.1861 -0.2239
35447SOL    HW1 9933   3.884   6.500   0.086 -1.0075  2.2076 -1.8372
35447SOL    HW2 9934   4.028   6.528   0.126 -0.9941 -0.9229  0.7485
35448SOL     OW 9935   0.536   9.556   9.315 -1.0711  0.2403 -0.6019
35448SOL    HW1 9936   0.620   9.513   9.305 -2.3800 -2.5461 -0.6684
35448SOL    HW2 9937   0.533   9.621   9.244  1.5528  1.5304  0.3471
35449SOL     OW 9938   3.547   6.659  10.277  0.0040 -0.7373  0.0667
35449SOL    HW1 9939   3.609   6.588  10.295  3.0006  1.1284 -2.1198
35449SOL    HW2 9940   3.560   6.722  10.348 -0.1013 -0.7681  0.1141
35450SOL     OW 9941   8.861   2.634   9.614 -0.1089  0.5911  0.0907
35450SOL    HW1 9942   8.815   2.553   9.595 -0.1909  0.8291 -0.7641
35450SOL    HW2 9943   8.932   2.637   9.551  0.5787  0.6414  0.8518
35451SOL     OW 9944   7.241   5.822   4.263 -0.1139 -0.1965  0.3860
35451SOL    HW1 9945   7.293   5.811   4.342  1.0387  0.2637 -0.2828
35451SOL    HW2 9946   7.153   5.840   4.294  0.1392 -0.8528  1.5494
35452SOL     OW 9947   3.947   0.588   9.759 -0.1712 -0.3124 -0.0606
35452SOL    HW1 9948   3.913   0.674   9.785 -0.3451 -0.8520  1.6156
35452SOL    HW2 9949   4.001   0.606   9.682  0.9523  1.5168  1.0735
35453SOL     OW 9950  11.099  11.085   3.780  0.3321  0.8938  0.1294
35453SOL    HW1 9951  11.116  11.150   3.848  3.0643  2.2912 -1.6760
35453SOL    HW2 9952  11.137  11.004   3.813  0.4456  1.2222  0.8093
35454SOL     OW 9953   9.769  11.027   1.330  0.4870  0.1661 -0.2359
35454SOL    HW1 9954   9.734  11.116   1.337  0.8166  0.2284  1.0256
35454SOL    HW2 9955   9.738  10.994   1.246 -1.9586  0.4773  0.4776
35455SOL     OW 9956   7.405   5.119   9.761 -0.2181  0.6111 -0.0936
35455SOL    HW1 9957   7.458   5.096   9.837 -1.5639 -2.8677 -0.0341
35455SOL    HW2 9958   7.440   5.066   9.690 -0.8398  1.6201 -1.1963
35456SOL     OW 9959   1.277   2.713   8.472  0.1276  0.5744  0.4320
35456SOL    HW1 9960   1.316   2.626   8.457 -0.9576  0.1697 -0.1766
35456SOL    HW2 9961   1.192   2.694   8.511 -0.2903  1.3536 -0.0889
35457SOL     OW 9962   3.856   2.095   1.664  0.2402 -0.5210 -0.2811
35457SOL    HW1 9963   3.906   2.015   1.651 -0.2766 -1.0627  0.9194
35457SOL    HW2 9964   3.765   2.071   1.646  0.1514 -0.0594 -0.4785
35458SOL     OW 9965   5.756   9.688   7.906 -0.3351 -0.0067 -0.8859
35458SOL    HW1 9966   5.850   9.683   7.891 -0.2608  1.4262 -1.0218
35458SOL    HW2 9967   5.727   9.597   7.909  1.1986 -0.4992  0.0985
35459SOL     OW 9968   5.884   3.977   5.575 -0.9086  0.5688 -0.2986
35459SOL    HW1 9969   5.971   3.943   5.556 -1.6784 -2.2836  0.7805
35459SOL    HW2 9970   5.898   4.042   5.643  0.4045  0.5060 -0.4753
35460SOL     OW 9971   3.827  10.738   1.982  0.4673  0.0208  0.0794
35460SOL    HW1 9972   3.785  10.655   1.959 -0.8435  0.5139  0.5714
35460SOL    HW2 9973   3.766  10.779   2.044  0.8221  1.5836 -0.5432
35461SOL     OW 9974  10.303   1.130   1.318  0.1156 -0.1344  0.2231
35461SOL    HW1 9975  10.338   1.219   1.324  0.9346 -0.4764  0.6495
35461SOL    HW2 9976  10.373   1.074   1.351 -0.3189 -0.9599 -0.2209
35462SOL     OW 9977   2.004   6.684   4.164  0.5814  0.0527 -0.3405
35462SOL    HW1 9978   1.931   6.660   4.107 -0.2917  1.0328  0.3261
35462SOL    HW2 9979   1.962   6.720   4.242  1.7832  0.2114  0.2502
35463SOL     OW 9980   9.071   1.989  10.334  0.0895  0.5176  0.0715
35463SOL    HW1 9981   9.047   1.901  10.305  1.7866  0.1841 -0.4413
35463SOL    HW2 9982   9.030   2.047  10.270  0.5398 -0.0236 -0.7345
35464SOL     OW 9983   8.644   8.627  10.804  0.2302 -0.3751  0.7962
35464SOL    HW1 9984   8.584   8.700  10.824  1.5478  0.6947  0.9680
35464SOL    HW2 9985   8.629   8.609  10.711 -0.2642 -0.0431  0.8039
35465SOL     OW 9986   8.076   2.793   7.117 -0.2423  0.0856  0.2412
35465SOL    HW1 9987   8.156   2.741   7.127  0.3885  0.9069 -0.4138
35465SOL    HW2 9988   8.107   2.882   7.100 -1.2812  0.1434 -1.5157
35466SOL     OW 9989   0.163   2.259   2.839  0.2359  0.9022  0.1560
35466SOL    HW1 9990   0.233   2.205   2.803  0.3172  1.2289 -0.1932
35466SOL    HW2 9991   0.127   2.208   2.911  0.2737  0.3612 -0.2005
35467SOL     OW 9992   0.328  10.788   2.342  0.1558  0.2657 -0.0427
35467SOL    HW1 9993   0.258  10.756   2.399  0.5144  1.2289  0.9721
35467SOL    HW2 9994   0.375  10.852   2.396 -1.4635  3.7669 -2.4088
35468SOL     OW 9995   6.895   0.099  10.589  0.3139 -0.1145  0.0619
35468SOL    HW1 9996   6.857   0.122  10.504  0.6815 -1.1015 -0.3810
35468SOL    HW2 9997   6.959   0.031  10.569 -0.0372 -0.8062  1.1991
35469SOL     OW 9998   9.218   9.589   9.590  0.5141  0.0722 -0.5889
35469SOL    HW1 9999   9.152   9.528   9.557  0.5999  0.1100 -0.8315
35469SOL    HW210000   9.186   9.613   9.677  1.7587 -2.2527  0.5804
35470SOL     OW10001   3.997   9.629   4.486  0.1398 -0.3048 -0.8663
35470SOL    HW110002   4.026   9.551   4.438  2.5251  1.2605 -2.2232
35470SOL    HW210003   4.077   9.661   4.529 -0.6923  1.5526 -0.6147
35471SOL     OW10004   2.183   4.390  10.271 -0.5730 -0.0836  0.1478
35471SOL    HW110005   2.208   4.377  10.180 -0.5946  0.2019  0.1017
35471SOL    HW210006   2.208   4.308  10.314 -1.4224 -0.5887 -0.2968
35472SOL     OW10007  10.750   8.279   9.799 -0.2070  1.3360  0.4874
35472SOL    HW110008  10.693   8.256   9.726 -0.3537  1.7490  0.4723
35472SOL    HW210009  10.764   8.196   9.845  1.2989  0.7154 -0.9823
35473SOL     OW10010   6.494   1.190   4.421 -0.2362 -0.2971  0.3620
35473SOL    HW110011   6.565   1.127   4.422 -0.2696 -0.3289  0.8017
35473SOL    HW210012   6.451   1.180   4.506  0.0253  0.6243  0.6107
35474SOL     OW10013   4.343   6.812   1.260 -0.7436  0.2275 -0.1578
35474SOL    HW110014   4.325   6.901   1.288  0.1031  0.0359  1.1079
35474SOL    HW210015   4.416   6.784   1.316 -1.8240 -1.6864  0.4041
35475SOL     OW10016   0.586   1.923  10.913 -0.2401  0.1649 -0.0682
35475SOL    HW110017   0.552   1.919  10.823 -0.2046  0.3022 -0.0879
35475SOL    HW210018   0.531   1.862  10.962  1.0066 -1.4367 -0.5833
35476SOL     OW10019   9.366   0.473  10.086  0.4030  0.6441  0.2455
35476SOL    HW110020   9.293   0.435  10.037  0.3700  1.2378 -0.1732
35476SOL    HW210021   9.342   0.565  10.098  0.4919  0.5584  1.2234
35477SOL     OW10022   2.516   0.508   3.188 -0.5833  0.6234 -0.2821
35477SOL    HW110023   2.526   0.436   3.126 -0.4131 -0.8235  1.3488
35477SOL    HW210024   2.437   0.486   3.238 -0.2788  1.3184  0.5384
35478SOL     OW10025   1.507   5.478   5.200  0.0735 -0.3533  0.1256
35478SOL    HW110026   1.600   5.464   5.187  0.0588  1.4993 -2.9986
35478SOL    HW210027   1.466   5.393   5.184  0.9567 -0.2450 -3.3143
35479SOL     OW10028   5.003   4.967   0.769  0.2242  0.4820  0.1274
35479SOL    HW110029   5.056   4.968   0.849 -0.3482 -0.0899  0.5256
35479SOL    HW210030   4.943   5.040   0.779  1.6957  1.9045 -0.8791
35480SOL     OW10031   9.033   5.727  10.769 -0.2057 -0.0891 -0.3365
35480SOL    HW110032   9.125   5.720  10.794 -0.2632  2.6565  1.1080
35480SOL    HW210033   9.034   5.730  10.674  1.4708  1.7769 -0.3355
35481SOL     OW10034   1.790   1.174   1.467 -0.3527  0.2831  0.1385
35481SOL    HW110035   1.814   1.083   1.485 -1.2589  0.0380  0.1536
35481SOL    HW210036   1.696   1.177   1.481 -0.7557  0.6437 -2.2616
35482SOL     OW10037   2.954   8.605   0.931 -0.1425 -0.1889 -0.0780
35482SOL    HW110038   2.913   8.647   1.006 -2.1955 -2.0499 -0.0559
35482SOL    HW210039   2.987   8.522   0.966  1.0398 -0.0366 -0.7598
35483SOL     OW10040   1.014   4.835   2.892  0.5547 -0.2758 -0.1499
35483SOL    HW110041   0.989   4.763   2.834 -0.1593 -1.2863  1.3541
35483SOL    HW210042   1.092   4.804   2.936  1.8248  0.9851 -1.3907
35484SOL     OW10043   5.799   9.641   0.369  0.1231 -0.4045 -0.0662
35484SOL    HW110044   5.795   9.729   0.406  2.3769 -1.0294  1.8782
35484SOL    HW210045   5.716   9.601   0.394  0.1031  0.3701  1.1722
35485SOL     OW10046   9.576   1.354   6.106  0.9221 -0.1148  0.1806
35485SOL    HW110047   9.486   1.380   6.124  0.8272 -0.6193  0.4636
35485SOL    HW210048   9.570   1.260   6.089  1.4679 -0.2491  0.7100
35486SOL     OW10049   9.971   7.158   3.669  0.2416  0.7052  0.0645
35486SOL    HW110050   9.878   7.143   3.654  0.4806  0.3979 -1.2807
35486SOL    HW210051   9.997   7.091   3.732 -0.3915  0.6289  0.2496
35487SOL     OW10052   4.247   7.830   8.514  0.3023 -0.2018  0.2473
35487SOL    HW110053   4.193   7.751   8.512 -1.5670  1.0122 -1.8227
35487SOL    HW210054   4.331   7.802   8.479  0.0187 -1.4858  0.5315
35488SOL     OW10055   4.028   3.037   0.766 -0.1634 -0.2954 -0.1027
35488SOL    HW110056   3.944   3.036   0.813  0.6673  0.5325  1.4878
35488SOL    HW210057   4.091   3.066   0.832  1.3635 -0.8061 -1.3030
35489SOL     OW10058   4.209   9.395   2.582 -0.1623  0.0653  0.3559
35489SOL    HW110059   4.164   9.322   2.540 -0.6654 -0.5041  1.8161
35489SOL    HW210060   4.183   9.472   2.531 -2.0796 -0.3717  0.5842
35490SOL     OW10061   6.147   8.539   7.175  0.5380 -0.1041 -0.3867
35490SOL    HW110062   6.242   8.535   7.184  0.5949  2.6572  1.5695
35490SOL    HW210063   6.113   8.508   7.258 -0.1000  1.4607 -0.0189
35491SOL     OW10064   9.582   1.691   8.989  0.2123  0.0744 -0.0331
35491SOL    HW110065   9.588   1.709   9.083  1.1260  2.1381 -0.4319
35491SOL    HW210066   9.672   1.695   8.958 -0.2163  1.0262 -1.2328
35492SOL     OW10067   2.460   4.899   6.320  0.2214 -0.3917 -0.3430
35492SOL    HW110068   2.486   4.810   6.295  2.0710 -0.1745  0.6870
35492SOL    HW210069   2.386   4.887   6.379 -0.2519 -1.1806 -1.0808
35493SOL     OW10070   2.569   2.518  10.744  0.1487 -0.4069 -0.6363
35493SOL    HW110071   2.549   2.611  10.736  0.0275 -0.3032  0.7403
35493SOL    HW210072   2.484   2.475  10.736 -0.2133 -0.1958  1.5137
35494SOL     OW10073   0.274  11.003   6.816 -0.0928 -0.3998 -0.4964
35494SOL    HW110074   0.361  11.017   6.855  0.3235  0.0992 -1.5607
35494SOL    HW210075   0.287  10.928   6.757 -0.4488 -0.4740 -0.4784
35495SOL     OW10076  10.583   1.246   8.285  0.1208 -0.2234 -0.4920
35495SOL    HW110077  10.587   1.181   8.356  1.2435  0.6943  0.3133
35495SOL    HW210078  10.526   1.315   8.319 -1.8391 -1.1506 -1.7100
35496SOL     OW10079   3.547   3.588   1.544 -0.1635 -0.3295  0.6250
35496SOL    HW110080   3.494   3.595   1.464 -0.7525  0.2102  1.0435
35496SOL    HW210081   3.637   3.598   1.514 -0.4820  2.1582  0.2339
35497SOL     OW10082   4.252   2.970   3.566 -0.2722  0.7928  0.5915
35497SOL    HW110083   4.324   2.965   3.503 -0.8738  1.4782 -0.1760
35497SOL    HW210084   4.285   3.028   3.635 -0.7025  2.6465 -0.6679
35498SOL     OW10085   8.095   6.145   4.567  0.4829  0.8099  0.4388
35498SOL    HW110086   8.080   6.084   4.640  0.9920 -0.6128 -0.6049
35498SOL    HW210087   8.188   6.136   4.548  0.2097  0.6159 -0.8507
35499SOL     OW10088   7.553   1.179   0.480 -0.1950 -0.1523 -0.3040
35499SOL    HW110089   7.573   1.099   0.529 -0.8208 -0.3723 -0.4006
35499SOL    HW210090   7.580   1.160   0.390  0.0533 -0.0986 -0.2416
35500SOL     OW10091   8.294   4.865   4.204 -0.0498  0.0306 -0.2611
35500SOL    HW110092   8.213   4.834   4.245  0.5274 -1.3603 -0.1403
35500SOL    HW210093   8.288   4.835   4.113  0.4995 -0.4358 -0.1505
35501SOL     OW10094   8.139  10.052   8.380 -0.2689 -0.9458  0.4892
35501SOL    HW110095   8.070  10.009   8.329 -0.8614  0.2092  0.2838
35501SOL    HW210096   8.107  10.047   8.470 -0.6555 -0.3785  0.3901
35502SOL     OW10097  10.543   9.558   1.011  0.2795 -0.2981  0.0021
35502SOL    HW110098  10.638   9.572   1.014  0.5003 -1.8113  1.3936
35502SOL    HW210099  10.533   9.470   0.975 -0.4421 -1.0531  1.8954
35503SOL     OW10100   3.029   0.299   7.133  0.1864 -0.8914  0.3635
35503SOL    HW110101   2.987   0.283   7.217 -2.3389  0.7952 -0.4531
35503SOL    HW210102   3.107   0.350   7.154 -2.0011  2.2366  1.6466
35504SOL     OW10103   3.622   9.910   1.155 -0.3455 -0.0576  0.5217
35504SOL    HW110104   3.551   9.877   1.100 -1.0044  1.1862  0.5962
35504SOL    HW210105   3.701   9.877   1.113 -0.9633 -2.6106  1.1924
35505SOL     OW10106   0.944   8.162   7.490  0.2132  0.1581 -0.2924
35505SOL    HW110107   0.962   8.247   7.449  2.9673 -0.5875 -0.8424
35505SOL    HW210108   0.990   8.165   7.574  1.7869 -1.2971 -1.0250
35506SOL     OW10109   8.653   2.445   7.754  0.1330  0.3359 -0.1669
35506SOL    HW110110   8.622   2.496   7.679 -0.0505  1.2008  0.4909
35506SOL    HW210111   8.718   2.501   7.796  0.8375 -0.4805 -0.1346
35507SOL     OW10112   2.102  10.638   2.545  0.0200 -0.1508 -0.5075
35507SOL    HW110113   2.068  10.574   2.484  0.7346  0.0887 -1.1770
35507SOL    HW210114   2.028  10.659   2.602 -1.1700  0.8496 -2.3118
35508SOL     OW10115   5.565  10.237   9.186 -0.3952  0.2133 -1.5138
35508SOL    HW110116   5.513  10.231   9.266 -1.2626  1.1108 -1.9800
35508SOL    HW210117   5.642  10.182   9.202 -0.9821 -0.3050 -0.4077
35509SOL     OW10118  10.013  10.966   7.857  0.1896  0.7280 -0.2263
35509SOL    HW110119   9.946  11.020   7.899  1.2604  1.1460  1.0227
35509SOL    HW210120  10.021  11.003   7.769  0.4007  2.1897  0.3730
35510SOL     OW10121   2.628   4.943   3.917 -0.2316  0.2804 -0.0754
35510SOL    HW110122   2.693   4.961   3.849 -0.2769  0.0278 -0.1839
35510SOL    HW210123   2.660   4.864   3.961 -0.5155  0.1018 -0.1894
35511SOL     OW10124   9.086   7.504   5.999  0.0103  0.0534  0.1402
35511SOL    HW110125   9.058   7.536   5.913  0.1946 -0.0220  0.0500
35511SOL    HW210126   9.009   7.513   6.055  0.2665  1.3314  0.3067
35512SOL     OW10127   6.220  10.598   8.445 -0.0106 -0.5332 -0.0457
35512SOL    HW110128   6.176  10.680   8.423 -0.4345 -0.6426  0.3738
35512SOL    HW210129   6.182  10.533   8.385  0.0851 -0.4854 -0.1564
35513SOL     OW10130   8.658   9.833   1.027 -0.4797 -0.2856  0.5107
35513SOL    HW110131   8.609   9.903   0.984  0.2310  0.4472  0.8565
35513SOL    HW210132   8.629   9.753   0.985 -2.0208  0.1208  0.7574
35514SOL     OW10133   9.634   2.589   2.941  0.4683 -0.1724 -0.5649
35514SOL    HW110134   9.698   2.642   2.990  1.0155 -0.6955 -0.6952
35514SOL    HW210135   9.593   2.651   2.881 -0.7395  0.6317  1.0414
35515SOL     OW10136   4.695   3.265   6.539  0.4155  0.3738 -0.6733
35515SOL    HW110137   4.745   3.223   6.469 -0.0508 -0.6934 -0.3879
35515SOL    HW210138   4.723   3.219   6.619 -0.1339  0.5915 -0.3550
35516SOL     OW10139  10.197   4.302   3.028  0.4722  0.6209 -0.4070
35516SOL    HW110140  10.242   4.222   3.056 -1.6901 -0.2600  0.7930
35516SOL    HW210141  10.200   4.358   3.105 -0.2954  0.6170 -0.3698
35517SOL     OW10142   7.623   5.371   7.924  0.2126  0.0561  0.1976
35517SOL    HW110143   7.617   5.332   7.836  1.2626  1.3209 -0.4670
35517SOL    HW210144   7.650   5.298   7.980 -2.1330 -1.1940 -0.1563
35518SOL     OW10145   0.432   6.822   9.891  0.3211 -0.2516 -0.3200
35518SOL    HW110146   0.457   6.838   9.800 -1.3447  0.1827 -0.7279
35518SOL    HW210147   0.397   6.733   9.891 -1.5422  0.4473 -0.5511
35519SOL     OW10148  11.087   8.896   0.659 -0.2229 -0.8203 -0.1742
35519SOL    HW110149  11.116   8.987   0.653  2.0915 -1.3914  1.1311
35519SOL    HW210150  11.033   8.883   0.581 -0.8304  1.7046 -0.2757
35520SOL     OW10151   9.122  10.282   2.667 -0.5835  0.5180 -0.3327
35520SOL    HW110152   9.119  10.197   2.623 -1.0899 -1.3645  2.9857
35520SOL    HW210153   9.036  10.321   2.650 -0.7611 -0.1459 -1.0136
35521SOL     OW10154   6.996   4.623   0.194  0.4913 -0.7560  0.4354
35521SOL    HW110155   6.911   4.591   0.165  1.0426 -1.2134 -0.7411
35521SOL    HW210156   7.018   4.693   0.132  0.6090 -0.0766  1.2252
35522SOL     OW10157   8.719   4.527  10.504 -0.4096 -0.0326 -0.0833
35522SOL    HW110158   8.700   4.512  10.412 -0.4941  2.1970 -0.4916
35522SOL    HW210159   8.637   4.506  10.549 -0.6560 -0.2635 -0.6276
35523SOL     OW10160   4.303   7.764   9.099 -0.3260  0.4277  0.4008
35523SOL    HW110161   4.290   7.762   9.005 -0.6663 -1.4358  0.4576
35523SOL    HW210162   4.247   7.836   9.130  0.1839  1.3902 -0.8372
35524SOL     OW10163   5.680   2.644   2.078  0.2288  0.4228  0.1302
35524SOL    HW110164   5.692   2.657   2.172  2.5438  1.3310 -0.2118
35524SOL    HW210165   5.595   2.600   2.070 -0.4809  1.1939  2.5498
35525SOL     OW10166   4.378   6.204   3.917  0.5524  0.5413 -0.1074
35525SOL    HW110167   4.409   6.189   4.006 -0.2778  0.0453  0.1083
35525SOL    HW210168   4.410   6.129   3.867  0.4039  0.4507 -0.0669
35526SOL     OW10169   9.299   8.952   2.284 -0.0481 -0.1198 -0.6869
35526SOL    HW110170   9.317   8.884   2.348  1.1646 -0.0270 -0.9192
35526SOL    HW210171   9.349   9.028   2.314 -4.0417  1.9640  1.5916
35527SOL     OW10172   4.004   2.111   8.730  0.2106 -0.5635 -0.6772
35527SOL    HW110173   4.047   2.081   8.810 -0.2005  0.8792  0.1209
35527SOL    HW210174   4.063   2.178   8.695 -1.0075  0.9301  0.0504
35528SOL     OW10175   5.053  11.039   7.049  0.1575  1.0762 -0.0476
35528SOL    HW110176   4.964  11.026   7.080  0.4660 -1.4703  0.0341
35528SOL    HW210177   5.079  11.124   7.083 -1.9862  1.5627  0.5010
35529SOL     OW10178   7.303   1.924   4.703 -0.1504  0.1574 -0.2200
35529SOL    HW110179   7.362   1.849   4.707 -1.8027 -1.2003  0.3137
35529SOL    HW210180   7.323   1.966   4.620  3.0918  1.1493  0.9271
35530SOL     OW10181   2.224   8.129   0.514  0.1839 -0.0163  0.0519
35530SOL    HW110182   2.309   8.088   0.532 -0.4586 -1.2213  0.4715
35530SOL    HW210183   2.168   8.057   0.485 -0.8059  0.6877  0.1648
35531SOL     OW10184   2.188   2.933   7.235  0.1837  0.2570 -0.0442
35531SOL    HW110185   2.121   2.942   7.167 -1.0050  1.5498  1.2228
35531SOL    HW210186   2.208   2.839   7.237 -2.4270 -0.3741  0.2627
35532SOL     OW10187   6.477   6.767   5.391  0.3269  0.8360  0.2326
35532SOL    HW110188   6.484   6.781   5.296 -2.5078  1.7510  0.0791
35532SOL    HW210189   6.524   6.841   5.430  1.0623  0.7411 -0.4570
35533SOL     OW10190   7.684  10.266   3.546 -0.3558  0.4226 -0.2407
35533SOL    HW110191   7.747  10.285   3.615 -0.7965  2.4577 -0.3125
35533SOL    HW210192   7.605  10.239   3.592  0.0586 -0.5432 -0.0782
35534SOL     OW10193  10.567   9.796   9.778  0.0450 -0.2556  0.2352
35534SOL    HW110194  10.517   9.876   9.761 -1.4147 -1.3024 -0.6345
35534SOL    HW210195  10.582   9.797   9.873 -0.9978  0.4514  0.4078
35535SOL     OW10196   1.481   3.164   5.339 -0.0229  0.0960  0.2859
35535SOL    HW110197   1.440   3.184   5.423 -3.2783 -0.8263 -0.9229
35535SOL    HW210198   1.483   3.069   5.336 -0.1261  0.1174 -0.7346
35536SOL     OW10199  10.731   4.872   8.484 -0.0665  0.4896 -0.3824
35536SOL    HW110200  10.726   4.787   8.440  0.6275 -0.8833  1.9719
35536SOL    HW210201  10.825   4.889   8.494 -0.2029  1.2262 -0.2767
35537SOL     OW10202   3.975  10.652   8.738 -0.1108 -0.1976 -0.5089
35537SOL    HW110203   3.920  10.729   8.725  1.7403  1.7047  2.0220
35537SOL    HW210204   3.925  10.597   8.798  0.0088  0.7059  0.4349
35538SOL     OW10205   2.989   8.957   8.981  0.1718 -0.7601 -0.4367
35538SOL    HW110206   2.917   8.996   8.931  0.9074 -0.4572 -1.2974
35538SOL    HW210207   2.956   8.871   9.007 -0.1396 -1.0459 -1.7078
35539SOL     OW10208   2.798   8.799   4.107 -0.5314  0.0559  0.2143
35539SOL    HW110209   2.781   8.711   4.141 -0.3320  0.0475  0.2898
35539SOL    HW210210   2.712   8.830   4.078 -0.6989  0.0578  0.7155
35540SOL     OW10211  10.621   8.090   2.776 -0.4521  0.1636  0.1216
35540SOL    HW110212  10.615   8.182   2.750  0.7721 -0.2235 -1.7635
35540SOL    HW210213  10.532   8.066   2.802 -0.8875  1.7437  0.1854
35541SOL     OW10214   3.796   6.248   7.136 -0.2191  0.8840  0.1616
35541SOL    HW110215   3.877   6.287   7.105  0.2403 -0.4821 -0.4074
35541SOL    HW210216   3.728   6.288   7.082  0.2212  0.9936 -0.3169
35542SOL     OW10217   8.149   6.183   8.911 -0.3434 -0.2469 -0.2850
35542SOL    HW110218   8.069   6.236   8.906  0.1460  0.3914 -2.9699
35542SOL    HW210219   8.125   6.101   8.869  0.0476 -0.5774  0.1371
35543SOL     OW10220   1.681   9.253   7.915 -0.1506  0.4424  0.8145
35543SOL    HW110221   1.644   9.333   7.953 -0.3052  0.4853  0.5765
35543SOL    HW210222   1.627   9.183   7.952 -1.9567  0.6548 -1.2464
35544SOL     OW10223   2.568   3.321   2.875 -0.0049  0.2781  0.3862
35544SOL    HW110224   2.549   3.338   2.968 -2.5529 -0.4593  0.0854
35544SOL    HW210225   2.609   3.234   2.875  1.9828  1.1547  0.9318
35545SOL     OW10226   0.069   6.657   1.924 -0.1156  0.5349 -0.1361
35545SOL    HW110227   0.140   6.713   1.892  0.0654  0.9914  1.0199
35545SOL    HW210228  -0.004   6.676   1.865 -0.5546  3.1673  1.0902
35546SOL     OW10229   5.948   0.653   1.074 -0.0980  0.3005 -0.2542
35546SOL    HW110230   6.036   0.691   1.078  0.2542 -0.5578  0.3960
35546SOL    HW210231   5.920   0.649   1.166  0.6071 -2.6422 -0.0694
35547SOL     OW10232   8.438   5.730   1.584 -0.2012  0.3055 -0.1367
35547SOL    HW110233   8.468   5.733   1.493 -0.3943 -0.7201 -0.2479
35547SOL    HW210234   8.500   5.785   1.632  0.8512 -0.4220 -0.6351
35548SOL     OW10235   9.020   7.965   8.847 -0.1302  0.2190 -0.3740
35548SOL    HW110236   8.963   8.026   8.799 -0.5007 -0.6307 -1.0381
35548SOL    HW210237   8.965   7.932   8.918 -0.4921 -0.5900 -1.0065
35549SOL     OW10238   3.441   2.218   3.748 -0.7990  0.4400  0.0863
35549SOL    HW110239   3.465   2.307   3.722 -2.0806  0.3931 -1.3898
35549SOL    HW210240   3.501   2.198   3.819 -1.7217  3.2040  1.8154
35550SOL     OW10241   0.926  10.385   2.397 -0.7478  0.4342 -0.2123
35550SOL    HW110242   1.019  10.372   2.417  0.1700  2.2885 -2.6823
35550SOL    HW210243   0.891  10.430   2.474  0.5080  0.1322  0.5700
35551SOL     OW10244   8.637   4.828   1.231  0.0090  0.1305  0.4723
35551SOL    HW110245   8.600   4.739   1.230  2.3156 -0.8946  0.5194
35551SOL    HW210246   8.677   4.838   1.145  0.8350  0.6383  0.9080
35552SOL     OW10247   9.782   3.853   6.749 -0.0671 -0.6880 -0.0837
35552SOL    HW110248   9.877   3.844   6.739 -0.1795 -2.4453  0.0294
35552SOL    HW210249   9.756   3.774   6.796 -1.7646 -0.8959 -1.2931
35553SOL     OW10250   8.654  10.206   0.320 -0.1545 -0.3697 -0.0916
35553SOL    HW110251   8.610  10.267   0.379 -0.8160 -2.6313  1.9192
35553SOL    HW210252   8.696  10.262   0.254 -2.4009  2.1113  0.4022
35554SOL     OW10253   6.944   6.223   5.952 -0.3937  0.6250 -0.5484
35554SOL    HW110254   7.032   6.204   5.919 -0.7123 -0.3429 -0.8794
35554SOL    HW210255   6.947   6.196   6.044 -1.1508 -2.2862 -1.2662
35555SOL     OW10256   0.915   2.329   3.696  0.0895  0.0571 -0.3405
35555SOL    HW110257   0.987   2.376   3.737 -0.6865  0.4766  0.5780
35555SOL    HW210258   0.947   2.308   3.608  1.0794  0.8051 -0.1764
35556SOL     OW10259   8.978   6.668   5.226 -0.2050 -0.2573  0.1759
35556SOL    HW110260   8.947   6.745   5.272  0.8989  1.3569 -1.6207
35556SOL    HW210261   9.060   6.644   5.270  0.2316  0.5518 -0.1680
35557SOL     OW10262   6.834   6.356  10.212  0.2119 -0.1574 -0.7514
35557SOL    HW110263   6.846   6.262  10.198 -0.4370 -0.2576 -0.6720
35557SOL    HW210264   6.833   6.393  10.124  0.6173 -0.2011 -0.7779
35558SOL     OW10265   1.626   6.084  10.543 -0.1059  0.0454  0.6359
35558SOL    HW110266   1.580   6.010  10.501  0.1345  0.4664 -0.3887
35558SOL    HW210267   1.565   6.157  10.535 -0.2256  0.0418  1.4055
35559SOL     OW10268   1.323   2.195   1.045 -0.0899 -0.1515 -0.0474
35559SOL    HW110269   1.304   2.281   1.080 -0.1999  0.2791 -1.1299
35559SOL    HW210270   1.279   2.134   1.104 -1.7337  0.6309 -0.4268
35560SOL     OW10271   2.270   0.598   5.533  0.4681 -0.3073  0.5062
35560SOL    HW110272   2.292   0.630   5.445  0.9433  0.2658  0.8276
35560SOL    HW210273   2.355   0.581   5.574  0.2588 -0.0676  1.0422
35561SOL     OW10274   5.073   5.429   6.730  0.4191  0.0147  0.0553
35561SOL    HW110275   5.101   5.521   6.721 -4.3610  1.5552 -1.8642
35561SOL    HW210276   5.088   5.391   6.644 -0.2182 -0.1092 -0.0061
35562SOL     OW10277   7.088   6.241  10.599 -0.5023 -0.3761  0.3412
35562SOL    HW110278   7.127   6.321  10.633  1.9018 -0.8185 -1.1628
35562SOL    HW210279   7.133   6.170  10.646  0.3398 -0.8932 -1.1693
35563SOL     OW10280   2.024  11.012   2.092 -0.1152  0.7858  0.0685
35563SOL    HW110281   2.014  11.074   2.165 -0.3424  0.0232  0.7075
35563SOL    HW210282   2.015  11.065   2.013  1.4974  1.8826  0.5656
35564SOL     OW10283   5.783   8.276   3.562 -0.4426  0.2299 -0.3533
35564SOL    HW110284   5.792   8.370   3.544 -0.1786  0.0351 -1.2774
35564SOL    HW210285   5.871   8.241   3.550 -0.3426  0.0065  0.9199
35565SOL     OW10286   3.538   6.364   3.867  0.1480  0.1411  0.0166
35565SOL    HW110287   3.575   6.286   3.825  0.2978  0.1223  0.1799
35565SOL    HW210288   3.588   6.372   3.948  0.3286  0.5733 -0.1363
35566SOL     OW10289   7.710  11.051   2.076 -0.0979 -0.4424  0.1935
35566SOL    HW110290   7.726  10.974   2.021 -0.9634  0.7115 -1.8169
35566SOL    HW210291   7.619  11.074   2.058  0.3408  1.4521  0.1818
35567SOL     OW10292   6.333   4.829   9.801 -0.3018  0.5057  0.0976
35567SOL    HW110293   6.376   4.840   9.716 -1.2355 -0.7977 -0.5730
35567SOL    HW210294   6.267   4.761   9.787  0.0186 -0.2894  2.0472
35568SOL     OW10295   5.056   4.568   1.100 -0.6442 -0.2905 -0.2462
35568SOL    HW110296   5.003   4.555   1.021 -1.1881 -0.1775  0.0877
35568SOL    HW210297   4.996   4.547   1.172 -1.1088  2.3921  0.2652
35569SOL     OW10298  10.656   4.407   0.032 -0.0162 -0.2510  0.2749
35569SOL    HW110299  10.740   4.451   0.018  0.6737 -1.4725  0.3982
35569SOL    HW210300  10.605   4.426  -0.047  1.0594 -0.9646 -0.6183
35570SOL     OW10301   1.048   6.927  10.536 -0.7880 -0.5769  0.1653
35570SOL    HW110302   1.026   6.897  10.448 -2.9334  1.5654 -0.1216
35570SOL    HW210303   0.965   6.924  10.584 -0.1976  0.7977  1.3400
35571SOL     OW10304   8.401   4.168   7.371  0.7649  0.9870 -0.1536
35571SOL    HW110305   8.443   4.083   7.361 -0.1614  0.6823 -1.7256
35571SOL    HW210306   8.328   4.152   7.431 -0.5103  0.2086 -1.8247
35572SOL     OW10307   3.850   2.995   5.680  0.3135 -0.4030 -0.4185
35572SOL    HW110308   3.932   3.021   5.722 -0.0754  1.4248 -0.7230
35572SOL    HW210309   3.788   2.985   5.752  0.3015  0.1456 -0.3557
35573SOL     OW10310   5.820   8.797   5.593  0.1490  0.4942  0.1941
35573SOL    HW110311   5.801   8.721   5.648  1.2178  0.8443  1.0730
35573SOL    HW210312   5.915   8.798   5.585  0.1345  1.5921 -0.0273
35574SOL     OW10313   2.323   4.651   3.638 -0.2805  0.2221 -0.7293
35574SOL    HW110314   2.295   4.614   3.722  1.5244 -0.8874 -0.5533
35574SOL    HW210315   2.297   4.585   3.573  0.9037 -0.2979 -0.6874
35575SOL     OW10316   4.470   2.082   1.723  0.3564 -0.4543  0.1502
35575SOL    HW110317   4.521   2.022   1.668 -0.0816 -1.0642  0.3994
35575SOL    HW210318   4.520   2.089   1.804  1.0467  0.5120 -0.3287
35576SOL     OW10319   9.688   0.664   8.694  0.2956  0.2331 -0.1402
35576SOL    HW110320   9.774   0.633   8.667 -0.1536 -1.1524 -0.0503
35576SOL    HW210321   9.696   0.759   8.697  1.5771  0.1619 -0.9389
35577SOL     OW10322   8.256   7.633   1.718  0.3235 -0.0605  0.0786
35577SOL    HW110323   8.331   7.691   1.732 -0.3561  1.2847 -1.5789
35577SOL    HW210324   8.198   7.652   1.791 -0.1246  1.8064 -0.7042
35578SOL     OW10325   7.281   4.371   9.041  0.0951 -0.0007  0.4415
35578SOL    HW110326   7.270   4.277   9.025 -1.0604  0.1168  0.4130
35578SOL    HW210327   7.358   4.378   9.097 -0.5020 -1.0740  1.4290
35579SOL     OW10328   9.426   2.533   6.978  0.0065 -0.0742  0.3080
35579SOL    HW110329   9.457   2.520   6.888  1.6339  3.0506  0.3073
35579SOL    HW210330   9.445   2.450   7.022 -0.2421 -1.4557 -2.0225
35580SOL     OW10331   0.112   7.870   6.824  0.1307 -0.0255  0.1108
35580SOL    HW110332   0.148   7.934   6.886 -0.7566  0.7943 -0.1784
35580SOL    HW210333   0.042   7.826   6.872  1.4930 -1.6575  0.6931
35581SOL     OW10334   0.148   3.651   1.081 -0.3052  0.1833  0.0740
35581SOL    HW110335   0.154   3.661   1.176 -1.0253  0.7313  0.0766
35581SOL    HW210336   0.192   3.729   1.047 -0.6565  0.3471 -0.0181
35582SOL     OW10337   4.760   1.468   7.115  0.2519 -0.1980  0.1559
35582SOL    HW110338   4.739   1.404   7.047 -0.2873  1.0940 -0.9421
35582SOL    HW210339   4.721   1.550   7.083  0.9788  0.6907  1.4816
35583SOL     OW10340   5.139   8.102   0.490 -0.1020 -0.1277  0.2840
35583SOL    HW110341   5.150   8.081   0.398 -0.4966 -0.8723  0.3941
35583SOL    HW210342   5.228   8.098   0.527  0.2108  1.2903 -0.2706
35584SOL     OW10343   9.360   2.649   7.240 -0.5662  0.2383 -0.0893
35584SOL    HW110344   9.346   2.639   7.145  1.8972 -0.2017 -0.4819
35584SOL    HW210345   9.455   2.651   7.249 -0.6575 -2.0882  2.6313
35585SOL     OW10346   2.249   2.455   0.483  0.0949 -0.1867 -0.2633
35585SOL    HW110347   2.243   2.424   0.392  1.0248  0.1580 -0.4554
35585SOL    HW210348   2.257   2.550   0.475  0.6536 -0.1948  0.1586
35586SOL     OW10349   5.877   6.824   1.348  0.5142 -0.2037 -0.5251
35586SOL    HW110350   5.851   6.769   1.274  1.1464 -1.0194 -0.1566
35586SOL    HW210351   5.969   6.802   1.363 -0.2043 -1.7917  1.9710
35587SOL     OW10352   8.403  10.735  10.769 -0.3713  0.3640  0.2668
35587SOL    HW110353   8.429  10.679  10.696  0.3942  0.2826  0.5914
35587SOL    HW210354   8.485  10.774  10.799 -0.4437 -0.7892  2.0626
35588SOL     OW10355   8.518   0.998   2.947  0.1567  0.3693  0.6358
35588SOL    HW110356   8.520   0.924   2.886  2.2172  0.4247  0.5791
35588SOL    HW210357   8.603   0.995   2.991 -0.6549  1.3001  2.3555
35589SOL     OW10358   5.297   6.315   9.085 -0.1403  0.2723 -0.2101
35589SOL    HW110359   5.225   6.350   9.138 -1.8898  0.7238 -2.7346
35589SOL    HW210360   5.329   6.390   9.036  1.0407 -0.2521 -0.2730
35590SOL     OW10361   9.130   4.594   0.031  0.2777 -0.4079  0.4022
35590SOL    HW110362   9.225   4.591   0.020  0.1113 -0.3615 -1.4971
35590SOL    HW210363   9.108   4.687   0.025  0.0835 -0.4482  0.4735
35591SOL     OW10364   2.317   1.160   1.643  0.4152  0.2493 -0.4153
35591SOL    HW110365   2.295   1.225   1.576  1.3532  0.3866 -0.5965
35591SOL    HW210366   2.232   1.128   1.673 -0.0496 -1.3462 -3.1306
35592SOL     OW10367   8.305   2.510   3.327 -0.5560 -0.0091 -0.1602
35592SOL    HW110368   8.317   2.486   3.419  0.9508  2.8966  0.5322
35592SOL    HW210369   8.211   2.510   3.314 -0.8342  0.2476  1.6186
35593SOL     OW10370   0.364   2.472   7.416 -0.6363 -0.0933 -0.1424
35593SOL    HW110371   0.450   2.513   7.422 -1.7395  2.2309  1.0510
35593SOL    HW210372   0.339   2.481   7.325 -0.1147  0.3130 -0.2517
35594SOL     OW10373   1.549   6.877   6.950 -0.1123 -0.1531  1.0147
35594SOL    HW110374   1.530   6.912   7.037 -1.0963  0.6095  0.5113
35594SOL    HW210375   1.507   6.938   6.890 -0.1937 -1.1506  0.0330
35595SOL     OW10376   2.911  10.241   8.745  0.6653 -0.0079 -0.5854
35595SOL    HW110377   2.910  10.171   8.810 -0.6166  1.2194  0.7957
35595SOL    HW210378   2.838  10.220   8.687 -1.0901  1.1763  1.0505
35596SOL     OW10379   9.069   9.193   1.714 -0.2530  0.4877  0.1039
35596SOL    HW110380   9.139   9.246   1.751 -1.3540  1.2440  1.1907
35596SOL    HW210381   9.112   9.138   1.649  1.2453  1.3121  0.3566
35597SOL     OW10382   1.344  10.419   6.415 -0.0152 -0.1899  0.2434
35597SOL    HW110383   1.282  10.419   6.488 -0.5423  0.6570 -0.1862
35597SOL    HW210384   1.315  10.492   6.360  0.3839 -0.8086 -0.7977
35598SOL     OW10385  10.562   5.255   2.497  0.6965  0.0688  0.3423
35598SOL    HW110386  10.504   5.253   2.421 -1.8017  0.2915  2.0971
35598SOL    HW210387  10.528   5.326   2.551  0.8656 -1.5462  2.7303
35599SOL     OW10388   3.472   6.343   6.113 -0.0852  0.1291  0.5872
35599SOL    HW110389   3.550   6.321   6.165 -1.6468 -1.2301  2.4890
35599SOL    HW210390   3.418   6.395   6.172 -1.3691 -0.3924 -0.1039
35600SOL     OW10391   7.794   1.714   2.779  0.5477 -0.2298  0.0891
35600SOL    HW110392   7.776   1.799   2.819 -1.5786 -1.2535  1.4947
35600SOL    HW210393   7.766   1.725   2.688  0.0823  0.4969  0.3068
35601SOL     OW10394  11.034   4.912  10.115 -0.1240  0.2519 -0.4227
35601SOL    HW110395  11.104   4.953  10.063 -0.1021  0.8926  0.1041
35601SOL    HW210396  11.075   4.892  10.199 -0.2692 -0.4280 -0.5079
35602SOL     OW10397   4.508  10.893   8.798  0.1467 -0.0708  0.0934
35602SOL    HW110398   4.533  10.897   8.891 -1.0114  0.2863  0.3980
35602SOL    HW210399   4.507  10.800   8.778 -1.0329 -0.2353  0.8463
35603SOL     OW10400   3.448   1.082  10.054  0.4873  0.5284 -0.6727
35603SOL    HW110401   3.429   1.084   9.960  1.8201 -0.9419 -1.0351
35603SOL    HW210402   3.538   1.049  10.058  0.0503 -0.5370  1.1677
35604SOL     OW10403   3.215   1.044   1.929  0.2968 -0.1987 -0.3318
35604SOL    HW110404   3.227   1.139   1.919  0.9474  0.0893  2.3450
35604SOL    HW210405   3.125   1.035   1.961  0.8231 -0.2284  1.2718
35605SOL     OW10406   9.477  10.987   3.107 -0.0612  0.5870  0.0652
35605SOL    HW110407   9.546  11.036   3.062  1.3486 -0.0421  1.4210
35605SOL    HW210408   9.477  11.023   3.196  0.4910 -1.2906  0.8731
35606SOL     OW10409   8.595   8.841   4.042 -0.3219  0.4110  0.7179
35606SOL    HW110410   8.639   8.926   4.036 -0.2650  0.3348 -0.1174
35606SOL    HW210411   8.666   8.779   4.057  0.0386  0.1612 -1.6431
35607SOL     OW10412   1.088   6.473   0.436 -0.0540  0.0426 -0.0865
35607SOL    HW110413   1.119   6.405   0.496  2.3065 -0.5741 -1.8324
35607SOL    HW210414   0.998   6.448   0.414  0.8263 -2.7534 -0.8817
35608SOL     OW10415   7.347   0.843   5.974  0.3014 -0.3558  0.4167
35608SOL    HW110416   7.273   0.890   6.013  0.9308  0.3940  0.7258
35608SOL    HW210417   7.326   0.838   5.880  0.1814  0.4522  0.4005
35609SOL     OW10418   3.113   6.663   7.991  0.3999  0.0188 -0.4275
35609SOL    HW110419   3.159   6.631   7.913  0.5555 -1.4422  0.2351
35609SOL    HW210420   3.022   6.642   7.975  0.2653  0.7795 -0.7081
35610SOL     OW10421   2.529   3.867   3.393  0.2620 -0.0053 -0.3637
35610SOL    HW110422   2.482   3.873   3.476  1.4505  1.6432  0.2452
35610SOL    HW210423   2.491   3.791   3.349  0.9379 -2.1878  2.5017
35611SOL     OW10424   2.997   3.552   3.354  0.1913 -0.3711  0.3180
35611SOL    HW110425   2.984   3.500   3.434  2.2365 -0.6229  0.5388
35611SOL    HW210426   2.913   3.547   3.308 -0.4168 -1.8503  1.5116
35612SOL     OW10427   6.524   9.847   6.479  0.3317  0.3320 -0.3317
35612SOL    HW110428   6.617   9.852   6.456  0.1193 -0.0095 -1.3210
35612SOL    HW210429   6.496   9.939   6.484  0.2576  0.4547 -2.1142
35613SOL     OW10430   6.906   2.947   8.088  0.1289  0.2343 -0.1153
35613SOL    HW110431   6.822   2.911   8.115  0.7417  1.2605  3.7639
35613SOL    HW210432   6.968   2.876   8.100  0.4059  0.6907  1.2281
35614SOL     OW10433   6.329   2.833   8.363 -0.0205  0.3324  0.1021
35614SOL    HW110434   6.350   2.753   8.316  0.5051 -0.1467  1.1255
35614SOL    HW210435   6.353   2.815   8.454 -1.1497  1.1729  0.5937
35615SOL     OW10436   8.221   2.907   5.734 -0.1809 -0.4222 -0.3753
35615SOL    HW110437   8.303   2.956   5.730  0.9893 -2.2849 -0.0613
35615SOL    HW210438   8.239   2.833   5.792 -2.2430 -0.6142  0.1274
35616SOL     OW10439   4.325   1.580   2.894  1.0814 -0.5871 -0.6133
35616SOL    HW110440   4.231   1.596   2.893  0.9211 -0.4845  3.0045
35616SOL    HW210441   4.364   1.667   2.894  0.8878 -0.4040  2.3370
35617SOL     OW10442   0.604   4.419   9.138  0.4132 -0.5388 -0.0737
35617SOL    HW110443   0.573   4.420   9.047  1.4033  0.5908 -0.4194
35617SOL    HW210444   0.524   4.429   9.190 -0.1188 -0.7540 -0.8259
35618SOL     OW10445   1.867   1.872   4.595  0.1184  0.0276  0.3135
35618SOL    HW110446   1.884   1.964   4.616  2.7276  0.1788 -1.8910
35618SOL    HW210447   1.818   1.875   4.513  0.4068 -0.5534  0.1157
35619SOL     OW10448   8.952   5.316   6.833  0.4589 -0.2179  0.0894
35619SOL    HW110449   8.906   5.385   6.880  1.4244  0.3803  0.1872
35619SOL    HW210450   9.042   5.320   6.865  0.3225 -2.2374  0.8757
35620SOL     OW10451   8.163   0.915   8.340  0.0883  0.2779 -0.0679
35620SOL    HW110452   8.242   0.964   8.318  1.0408 -0.4991  1.4830
35620SOL    HW210453   8.194   0.834   8.378 -1.4301  0.4041  1.5784
35621SOL     OW10454   2.987   0.886   7.109  0.2786  0.0109 -0.1738
35621SOL    HW110455   2.947   0.923   7.031 -1.6876 -0.4943  0.5267
35621SOL    HW210456   3.054   0.949   7.135  0.3540  0.6130 -1.7498
35622SOL     OW10457   7.271   5.896   8.795  0.1863  0.3158  0.1129
35622SOL    HW110458   7.196   5.839   8.776  1.4697 -1.6642  0.6081
35622SOL    HW210459   7.246   5.942   8.875 -0.6067 -0.1170  0.1292
35623SOL     OW10460   4.718   7.159   4.082  0.5394 -0.2421  0.3790
35623SOL    HW110461   4.725   7.091   4.149 -0.0479 -1.9550 -1.2047
35623SOL    HW210462   4.765   7.123   4.006 -2.1981 -0.2061 -1.4615
35624SOL     OW10463   4.188   6.920   4.130 -0.2816 -0.0157  0.8193
35624SOL    HW110464   4.195   6.877   4.044 -1.4184  1.1162  0.1260
35624SOL    HW210465   4.268   6.972   4.138 -0.7965  0.9821 -0.2178
35625SOL     OW10466   3.794   0.180   3.801 -0.7131  0.6533 -0.1661
35625SOL    HW110467   3.858   0.188   3.732 -1.3061  0.8680 -0.7005
35625SOL    HW210468   3.753   0.095   3.786  0.5275 -0.2270  1.1293
35626SOL     OW10469   5.043  10.410   8.515  0.4094 -0.3830  0.5412
35626SOL    HW110470   5.137  10.394   8.505  0.2628 -2.8328  2.0760
35626SOL    HW210471   5.034  10.444   8.604 -0.1465  0.1434  0.2909
35627SOL     OW10472   8.482   6.503   2.235  0.7316 -0.4028  0.1438
35627SOL    HW110473   8.399   6.464   2.209  0.3420  0.2086  0.4532
35627SOL    HW210474   8.531   6.513   2.153 -0.2310  0.9274 -0.2927
35628SOL     OW10475   6.254   4.487   8.748 -0.2518 -0.0626  0.3194
35628SOL    HW110476   6.203   4.488   8.667  1.3173  2.8075 -0.7965
35628SOL    HW210477   6.195   4.526   8.814 -0.5186  0.4613 -0.2202
35629SOL     OW10478  10.781   1.435   4.565  0.3847  0.5976  0.3250
35629SOL    HW110479  10.760   1.344   4.543  1.3620  0.5415 -0.4679
35629SOL    HW210480  10.756   1.444   4.657  0.8106 -0.6577  0.5929
35630SOL     OW10481   3.419   4.487   9.986  0.5405 -0.2332 -0.8505
35630SOL    HW110482   3.393   4.576  10.008  0.9027 -0.4345  0.4967
35630SOL    HW210483   3.338   4.445   9.956 -0.5803 -0.5199  2.1784
35631SOL     OW10484   7.065   4.621   4.080 -0.5051 -0.1251  0.0298
35631SOL    HW110485   7.159   4.632   4.095 -0.9140  0.8901  2.0982
35631SOL    HW210486   7.047   4.530   4.103 -0.0270 -0.3736 -0.5445
35632SOL     OW10487   8.158   0.467   0.943  0.0230  0.5640 -0.4312
35632SOL    HW110488   8.252   0.448   0.932  0.0999  1.0092 -0.5465
35632SOL    HW210489   8.114   0.387   0.914  0.3185  0.7934 -1.5571
35633SOL     OW10490   4.906   3.601   0.620 -0.1239  0.6734  0.0566
35633SOL    HW110491   4.825   3.565   0.583 -0.1115 -0.1741  0.8223
35633SOL    HW210492   4.920   3.552   0.701  2.1524 -0.5305 -0.9646
35634SOL     OW10493   4.572  10.891  10.031  0.0599 -0.7118 -0.1883
35634SOL    HW110494   4.579  10.968  10.087  0.3079  0.7368 -2.1011
35634SOL    HW210495   4.661  10.858  10.023 -0.1832 -1.8942  1.4752
35635SOL     OW10496   3.125   8.603   2.708 -0.0552  0.0703  0.1786
35635SOL    HW110497   3.040   8.645   2.720 -0.4411 -0.5169 -0.4274
35635SOL    HW210498   3.110   8.511   2.730  0.4050 -0.0470  0.0177
35636SOL     OW10499   0.687   2.408   4.925 -0.3003 -0.0620 -0.1447
35636SOL    HW110500   0.663   2.412   5.018 -0.0810  2.0857 -0.1196
35636SOL    HW210501   0.621   2.462   4.881 -0.4221 -1.0836 -1.2584
35637SOL     OW10502   8.598  10.252   1.580  0.0670 -0.0498 -0.1500
35637SOL    HW110503   8.671  10.280   1.524  0.3289 -0.1438  0.1351
35637SOL    HW210504   8.622  10.284   1.667  0.9062 -2.0396  0.4026
35638SOL     OW10505   8.150   0.542   6.262  0.7991  0.4331  0.5385
35638SOL    HW110506   8.092   0.604   6.218 -0.5203  0.0961  1.7493
35638SOL    HW210507   8.218   0.523   6.197 -0.5204  0.7241 -0.9807
35639SOL     OW10508   5.860   8.034   1.698  0.1166 -0.4849  0.7775
35639SOL    HW110509   5.844   8.049   1.605 -4.0431 -3.2772  0.7710
35639SOL    HW210510   5.935   7.975   1.701 -0.2288 -1.0495 -0.8956
35640SOL     OW10511   1.374   7.607   0.030 -0.3575  0.4904  0.4134
35640SOL    HW110512   1.416   7.557  -0.040 -0.2453 -0.1217  0.9140
35640SOL    HW210513   1.287   7.568   0.039  0.3753 -0.8664  2.0541
35641SOL     OW10514   8.171  10.708   7.714  0.7152  0.2259  0.2610
35641SOL    HW110515   8.128  10.675   7.793  0.6261 -0.1379  0.0618
35641SOL    HW210516   8.170  10.634   7.653  1.8641  0.1355  0.3463
35642SOL     OW10517   2.269   8.639   7.572 -0.2834 -0.5623 -0.1895
35642SOL    HW110518   2.237   8.642   7.662 -1.6063  2.5876 -0.6490
35642SOL    HW210519   2.190   8.643   7.518  0.5488  1.6662 -1.3858
35643SOL     OW10520   6.624   0.338   5.989 -0.5787 -0.3375 -0.1155
35643SOL    HW110521   6.547   0.329   5.934 -1.4775 -0.9132  1.1805
35643SOL    HW210522   6.686   0.390   5.937 -2.4957  1.6992 -0.5077
35644SOL     OW10523   5.560   8.447   2.526  0.3092 -0.1193 -0.5468
35644SOL    HW110524   5.534   8.515   2.587  2.4743  0.6719 -0.4232
35644SOL    HW210525   5.569   8.492   2.442 -0.2184 -0.6874 -0.9170
35645SOL     OW10526   9.592   6.448   5.386 -0.1267 -0.3043  0.1737
35645SOL    HW110527   9.542   6.451   5.304 -0.1366  0.5278  0.1956
35645SOL    HW210528   9.581   6.536   5.423  0.3386 -0.5020  0.7917
35646SOL     OW10529   7.128   1.650   2.722 -0.2726  0.1016 -0.1528
35646SOL    HW110530   7.063   1.667   2.654  0.7941  0.6834 -1.0484
35646SOL    HW210531   7.167   1.736   2.740 -0.2749 -0.1031  0.9363
35647SOL     OW10532   6.094   5.802   7.570 -0.8189 -0.3281  0.4732
35647SOL    HW110533   6.024   5.811   7.634 -1.4021  0.0058 -0.2002
35647SOL    HW210534   6.162   5.753   7.616 -2.3554 -2.6502  0.4710
35648SOL     OW10535   3.529   0.840   6.613  0.2421  0.1403  0.2900
35648SOL    HW110536   3.610   0.871   6.652  0.8587 -1.0827  0.0417
35648SOL    HW210537   3.465   0.845   6.683  1.0705 -0.9670  1.1579
35649SOL     OW10538   7.117   4.735   6.140  0.2400  0.3071  0.9318
35649SOL    HW110539   7.048   4.740   6.207 -0.3254 -1.3253  0.5086
35649SOL    HW210540   7.070   4.746   6.057  0.7645  1.0764  0.7297
35650SOL     OW10541   4.521   8.391   8.503  0.9948 -0.7853  0.2192
35650SOL    HW110542   4.441   8.443   8.515  0.3248 -1.9394  0.9101
35650SOL    HW210543   4.585   8.454   8.471 -0.5032 -0.0448 -1.5539
35651SOL     OW10544   5.000   5.996   7.510 -0.1657 -0.0098 -0.4681
35651SOL    HW110545   4.917   5.951   7.518 -0.0794 -0.0617  0.1444
35651SOL    HW210546   5.025   6.019   7.600  1.4699 -1.7717 -0.4132
35652SOL     OW10547   2.404   8.778   9.241 -0.4018  0.5923  0.4592
35652SOL    HW110548   2.368   8.733   9.318 -1.5445  1.8481  0.6823
35652SOL    HW210549   2.480   8.825   9.275 -1.6668  2.2373  1.1747
35653SOL     OW10550  10.428   6.490   1.750 -0.3138  0.3532 -0.1330
35653SOL    HW110551  10.464   6.425   1.811  1.2202  0.8330 -0.4822
35653SOL    HW210552  10.400   6.439   1.674  0.1752  0.0138 -0.0880
35654SOL     OW10553   0.945   5.318   3.803 -0.2996 -0.4534  0.3956
35654SOL    HW110554   1.025   5.343   3.757  0.5190 -0.1140  1.9405
35654SOL    HW210555   0.946   5.223   3.804  0.0768 -0.4491  0.3831
35655SOL     OW10556   4.283   9.863   0.740 -0.6125  0.0993  0.4471
35655SOL    HW110557   4.256   9.930   0.677  0.2061  2.0157  2.0120
35655SOL    HW210558   4.308   9.913   0.818  0.9302 -1.9935  1.3837
35656SOL     OW10559   6.567   8.471   4.409  0.6252  0.1596 -0.1846
35656SOL    HW110560   6.603   8.541   4.355  0.1126  0.4742 -0.1254
35656SOL    HW210561   6.521   8.414   4.347  1.9088 -0.7094 -0.3824
35657SOL     OW10562   0.590   2.018   6.550  0.3425 -0.3575  0.0538
35657SOL    HW110563   0.530   2.068   6.495 -0.8591 -1.6940  0.1095
35657SOL    HW210564   0.568   2.045   6.639 -0.1970 -0.8623  0.0754
35658SOL     OW10565   1.487   8.157   2.776 -0.4717 -0.0930  0.2393
35658SOL    HW110566   1.457   8.067   2.792  0.3545 -0.5041 -0.4258
35658SOL    HW210567   1.568   8.146   2.726 -0.1941  1.0236  0.4315
35659SOL     OW10568   1.918   0.630   6.234 -0.2670  0.2343 -0.1233
35659SOL    HW110569   1.926   0.718   6.196  0.9078  0.4037  0.4775
35659SOL    HW210570   1.996   0.620   6.288 -0.1226 -1.3885 -0.5721
35660SOL     OW10571   3.265   8.605  10.909  0.1125 -0.2927 -0.7663
35660SOL    HW110572   3.292   8.689  10.870  0.5111 -0.2517 -0.4045
35660SOL    HW210573   3.313   8.539  10.859  0.8588 -0.2219 -0.1561
35661SOL     OW10574   4.890   2.829   6.473  0.7710  0.4154  0.0777
35661SOL    HW110575   4.929   2.787   6.396  0.6082 -0.9516  0.7188
35661SOL    HW210576   4.805   2.786   6.483  0.6312  0.8486  0.8020
35662SOL     OW10577   8.127   0.458   9.712 -0.2954  0.0366  0.0108
35662SOL    HW110578   8.152   0.370   9.739 -2.8771 -0.4595  1.0881
35662SOL    HW210579   8.145   0.513   9.789  1.7427  0.6123 -0.8109
35663SOL     OW10580   0.828   3.950  10.511  0.4955  0.0888 -0.3943
35663SOL    HW110581   0.743   3.913  10.488  1.1929 -0.0735 -3.0066
35663SOL    HW210582   0.873   3.880  10.558 -0.3272 -0.3068 -0.1936
35664SOL     OW10583   3.446   0.205   8.007 -0.1093 -0.5001 -0.0750
35664SOL    HW110584   3.497   0.255   8.070 -2.5437  2.3750 -0.2033
35664SOL    HW210585   3.506   0.190   7.933  0.8244  2.1062  0.0635
35665SOL     OW10586   8.653   8.164   2.304 -0.0752  0.5615  0.7615
35665SOL    HW110587   8.558   8.168   2.292 -0.3617 -0.6192  2.3571
35665SOL    HW210588   8.671   8.225   2.376  0.3293  0.5432  0.6824
35666SOL     OW10589  10.071   2.266   3.879 -0.4645  0.0081  0.0537
35666SOL    HW110590  10.134   2.338   3.890 -0.0842 -0.2603 -0.3501
35666SOL    HW210591  10.036   2.278   3.791  0.9535 -1.3515 -0.7425
35667SOL     OW10592   2.674   5.558   9.125 -0.1492  0.4993 -0.0458
35667SOL    HW110593   2.663   5.619   9.053 -2.1510 -1.0033 -1.0959
35667SOL    HW210594   2.624   5.481   9.100  0.1119 -0.5707  2.4100
35668SOL     OW10595   0.407   8.064   6.660 -0.0883  0.0713  0.3244
35668SOL    HW110596   0.320   8.023   6.659 -0.3701  0.5276 -2.2395
35668SOL    HW210597   0.398   8.136   6.723 -2.0567  0.9692 -0.8719
35669SOL     OW10598   2.072  10.692   2.095  0.1982  0.3527 -0.5636
35669SOL    HW110599   2.161  10.685   2.131  0.2975 -0.7277 -0.9768
35669SOL    HW210600   2.086  10.718   2.004 -0.0611  3.3981  0.1656
35670SOL     OW10601   4.701   3.826   4.915 -0.3283  0.2478  1.0373
35670SOL    HW110602   4.739   3.786   4.993  0.2427 -1.8180 -0.2361
35670SOL    HW210603   4.761   3.802   4.844 -1.3391  1.2568 -0.2058
35671SOL     OW10604   6.060   3.816   7.322  0.2672  0.2373  0.2826
35671SOL    HW110605   6.067   3.911   7.328  0.0170  0.2772 -0.0525
35671SOL    HW210606   6.069   3.797   7.229 -0.3528 -0.0135  0.2706
35672SOL     OW10607   5.714   4.626   1.515  0.2192  0.3829 -0.3114
35672SOL    HW110608   5.630   4.609   1.558 -0.0348  0.6242 -0.7047
35672SOL    HW210609   5.699   4.705   1.463  0.0988 -0.6670 -1.9495
35673SOL     OW10610   4.370   9.480   5.590  0.0844 -0.0531  0.1897
35673SOL    HW110611   4.442   9.417   5.601  1.3248  1.4514  1.0936
35673SOL    HW210612   4.343   9.501   5.680 -0.3596  0.6458 -0.1053
35674SOL     OW10613   2.291   0.028   0.459 -0.8497 -0.0572  0.3906
35674SOL    HW110614   2.239   0.097   0.500 -0.9975  0.0601  0.0068
35674SOL    HW210615   2.352   0.075   0.401  0.5220 -0.0975  1.7313
35675SOL     OW10616   1.350   9.772   2.635 -0.1666  0.1172 -0.2801
35675SOL    HW110617   1.424   9.736   2.586 -0.7244  0.6547 -1.5390
35675SOL    HW210618   1.304   9.828   2.573 -1.4240  0.0960  0.5925
35676SOL     OW10619   6.283   8.817   3.692  0.4562  0.0950  0.0117
35676SOL    HW110620   6.366   8.841   3.652  1.8036 -2.8610  0.8144
35676SOL    HW210621   6.289   8.853   3.781  1.7492 -1.5916  0.6699
35677SOL     OW10622   9.394   8.598   5.231  0.1786  0.3881 -0.3462
35677SOL    HW110623   9.351   8.569   5.151  0.3862 -0.7904 -0.0418
35677SOL    HW210624   9.344   8.675   5.258 -0.7110  0.0207 -0.8954
35678SOL     OW10625   1.665   1.921   7.418 -0.4514  0.9014 -0.0465
35678SOL    HW110626   1.663   1.924   7.322  2.3240  0.0697 -0.2213
35678SOL    HW210627   1.740   1.976   7.442 -0.6916  0.5480  1.5976
35679SOL     OW10628   4.776  10.875   1.240  0.2839 -0.0516 -0.0608
35679SOL    HW110629   4.784  10.937   1.313  0.0891  0.6672 -0.6363
35679SOL    HW210630   4.819  10.795   1.271  1.0409  0.5576  0.4790
35680SOL     OW10631   3.078   1.400   2.164 -0.2289 -0.1064  0.1935
35680SOL    HW110632   3.066   1.318   2.211  1.8850  0.1554  1.2577
35680SOL    HW210633   3.145   1.381   2.098  0.0166  0.6796  0.2081
35681SOL     OW10634   9.088   3.532   5.032 -0.5053  0.2699  0.3865
35681SOL    HW110635   9.029   3.531   4.956 -1.2106 -0.5805  0.9299
35681SOL    HW210636   9.161   3.475   5.007 -0.0644  1.0486 -0.1525
35682SOL     OW10637   0.798   9.799   6.466  0.4376  0.6467 -0.2549
35682SOL    HW110638   0.794   9.884   6.509  2.8117  1.2703 -1.0995
35682SOL    HW210639   0.866   9.752   6.512 -0.1419 -0.4220 -0.4571
35683SOL     OW10640   4.922   7.916   6.005  0.2510  0.9223  0.1117
35683SOL    HW110641   5.000   7.939   6.055  0.8083  1.0716 -0.8021
35683SOL    HW210642   4.852   7.967   6.046  0.8055  1.5198  0.3431
35684SOL     OW10643   7.171  10.384  10.678 -0.1899 -0.6957  0.5239
35684SOL    HW110644   7.157  10.353  10.589 -2.1976  0.9012  0.1937
35684SOL    HW210645   7.093  10.355  10.726 -0.1463  0.2464  1.2008
35685SOL     OW10646   7.004   5.330   8.938 -0.1879  0.2341 -0.0432
35685SOL    HW110647   7.075   5.283   8.983  1.7657  1.1407 -2.0302
35685SOL    HW210648   7.037   5.347   8.850 -3.4661 -0.5573 -1.5905
35686SOL     OW10649   3.361   2.429   1.229 -0.4368  0.0586  0.2181
35686SOL    HW110650   3.443   2.413   1.277 -0.7048 -2.1807  0.0371
35686SOL    HW210651   3.351   2.352   1.173 -2.6936  0.2480  0.2746
35687SOL     OW10652   0.501   1.268   7.122  0.1807 -0.0542 -0.0848
35687SOL    HW110653   0.592   1.295   7.116  0.7936 -2.0692 -0.2135
35687SOL    HW210654   0.486   1.213   7.045 -0.7991 -0.7090  0.5491
35688SOL     OW10655   0.572   2.831   0.264 -0.5073  0.0742 -0.3387
35688SOL    HW110656   0.664   2.803   0.264 -0.7948 -0.9091  0.2937
35688SOL    HW210657   0.523   2.754   0.290 -1.3697  1.0816  1.1485
35689SOL     OW10658   6.219   7.518   5.299 -0.2187 -0.0704  0.5089
35689SOL    HW110659   6.260   7.519   5.385 -2.1015  0.0071  1.4437
35689SOL    HW210660   6.205   7.610   5.277  1.6995 -0.0016 -0.6486
35690SOL     OW10661   1.061   2.202   9.745  0.4728  0.0791  0.0049
35690SOL    HW110662   1.104   2.118   9.730 -2.2707 -1.6806  1.1999
35690SOL    HW210663   1.019   2.223   9.662 -0.5586 -0.8340  0.2833
35691SOL     OW10664   7.325   0.433   9.050 -0.1758 -0.7731  0.0281
35691SOL    HW110665   7.371   0.358   9.086 -0.3312 -1.8067 -1.7884
35691SOL    HW210666   7.334   0.423   8.955  0.8828  2.2082 -0.2685
35692SOL     OW10667   9.507   9.748   8.662  0.2556  0.1046  0.3690
35692SOL    HW110668   9.530   9.799   8.739  1.2340 -2.0904  1.6088
35692SOL    HW210669   9.591   9.728   8.620  0.2215 -2.5735  1.3699
35693SOL     OW10670   1.858   2.985   3.980  0.5683  0.0069 -0.4858
35693SOL    HW110671   1.842   3.032   4.062  1.0568  0.0122 -0.3856
35693SOL    HW210672   1.799   3.024   3.917  0.8211  0.6143 -0.3536
35694SOL     OW10673   0.399   0.310   0.886 -0.3258 -0.4393  0.1165
35694SOL    HW110674   0.427   0.371   0.818 -0.8483 -0.4477 -0.1113
35694SOL    HW210675   0.436   0.226   0.860 -1.5926 -0.7249 -0.8781
35695SOL     OW10676   3.286   4.852   6.217  0.3322  0.1116 -0.3940
35695SOL    HW110677   3.270   4.946   6.201  1.6241  0.6877  1.3724
35695SOL    HW210678   3.380   4.846   6.229  0.5366 -1.7878 -2.3386
35696SOL     OW10679   4.106   7.908   3.401 -0.4470  0.7885 -0.2573
35696SOL    HW110680   4.073   7.858   3.327  1.4353  0.2662 -0.7877
35696SOL    HW210681   4.186   7.949   3.369 -0.3196  1.6641  1.1003
35697SOL     OW10682   9.778   5.280   3.255 -0.4660  0.3830 -0.3400
35697SOL    HW110683   9.870   5.292   3.278 -0.3298 -1.0827 -0.0049
35697SOL    HW210684   9.756   5.356   3.200  0.2837  1.9562  1.4264
35698SOL     OW10685   2.164   8.498   6.357 -0.1517  0.0985  0.5347
35698SOL    HW110686   2.223   8.464   6.290  0.7884  0.9555  0.9096
35698SOL    HW210687   2.195   8.587   6.374  0.5867 -0.5970  3.1974
35699SOL     OW10688   1.124   1.738   7.805  0.1720 -0.1605  0.1782
35699SOL    HW110689   1.159   1.825   7.823  1.8464 -1.1128  1.9035
35699SOL    HW210690   1.202   1.682   7.796 -0.8511 -1.8161  1.0028
35700SOL     OW10691   7.944   8.625   5.985  0.0972  0.7180 -0.0401
35700SOL    HW110692   7.945   8.535   5.952 -1.0099  1.6187 -2.8678
35700SOL    HW210693   7.862   8.632   6.034  0.9709 -0.2013  1.6341
35701SOL     OW10694   6.914   8.986   0.851  0.4850  0.7565  0.1846
35701SOL    HW110695   6.917   8.924   0.778  1.1712  1.6419 -0.5472
35701SOL    HW210696   6.959   8.941   0.923 -0.3785 -0.2019  0.1456
35702SOL     OW10697   1.822   2.896   5.480 -0.0211  0.2576 -0.2028
35702SOL    HW110698   1.765   2.832   5.439 -0.4006 -0.0253  0.7303
35702SOL    HW210699   1.803   2.888   5.574 -1.2782  2.8723 -0.1575
35703SOL     OW10700   9.348   0.062  10.617  0.1990 -0.4674 -0.5516
35703SOL    HW110701   9.335  -0.020  10.570 -1.3553 -0.5074 -0.1033
35703SOL    HW210702   9.278   0.119  10.585 -0.3688 -0.2149  1.0315
35704SOL     OW10703   6.708   7.311   5.099  0.0079 -0.5347 -0.4700
35704SOL    HW110704   6.663   7.282   5.178  0.7023  0.7629  0.4442
35704SOL    HW210705   6.789   7.351   5.131  1.9522 -2.9604 -2.0709
35705SOL     OW10706   4.170   1.122   6.757 -0.1197  0.6686 -0.0860
35705SOL    HW110707   4.099   1.174   6.722  0.1436  0.6334 -0.6825
35705SOL    HW210708   4.208   1.078   6.681  2.5428  3.0736 -0.3282
35706SOL     OW10709   3.140   0.855   0.737 -0.0120  0.3285 -0.1816
35706SOL    HW110710   3.222   0.835   0.690 -0.7428  0.0873 -1.4151
35706SOL    HW210711   3.168   0.885   0.823  1.3597 -0.2624 -0.3927
35707SOL     OW10712   7.922   8.015   6.927  0.4112  0.0420  0.0015
35707SOL    HW110713   7.864   7.951   6.969 -0.2493  1.0576  0.6874
35707SOL    HW210714   8.005   8.006   6.974 -0.1007  0.6434  1.0578
35708SOL     OW10715   7.941  11.099   2.491  0.1435  0.9770  0.1834
35708SOL    HW110716   7.923  11.051   2.410  0.6900 -0.6335  0.9638
35708SOL    HW210717   8.023  11.145   2.474  1.5532 -1.2578  0.5376
35709SOL     OW10718   6.558   2.185  10.899 -0.2206  0.0078 -0.1060
35709SOL    HW110719   6.600   2.232  10.971 -0.6838 -2.5464  1.9763
35709SOL    HW210720   6.465   2.184  10.922 -0.5550  0.1234 -1.3735
35710SOL     OW10721   1.813   2.930   0.998  0.1614  0.4154 -0.0389
35710SOL    HW110722   1.762   2.949   0.919 -1.5682 -2.2280  0.3428
35710SOL    HW210723   1.759   2.964   1.070 -0.2690 -0.8480  0.2522
35711SOL     OW10724  10.809  10.745   2.921 -0.4199  0.1818 -0.0359
35711SOL    HW110725  10.845  10.701   2.998 -1.7133  0.6088  0.8341
35711SOL    HW210726  10.750  10.681   2.882  0.9669 -0.4098 -1.3027
35712SOL     OW10727   5.599   6.429   6.342  0.0117 -0.2264  0.1395
35712SOL    HW110728   5.670   6.493   6.335 -0.4946  0.4821  1.2534
35712SOL    HW210729   5.519   6.480   6.326 -0.5910 -0.0643  3.0985
35713SOL     OW10730   2.239   7.885   2.292  0.1925 -0.4133 -0.1986
35713SOL    HW110731   2.285   7.809   2.326  1.1183  0.4728  0.5558
35713SOL    HW210732   2.307   7.938   2.250 -0.1411  0.7891  0.7106
35714SOL     OW10733   3.873   0.831   2.184 -0.9355 -0.8739  0.0224
35714SOL    HW110734   3.873   0.910   2.238 -0.3081  0.2435 -1.5326
35714SOL    HW210735   3.793   0.838   2.132 -0.4065 -0.7406 -0.7980
35715SOL     OW10736   2.153   3.335   2.677  0.4389  0.5755  0.1470
35715SOL    HW110737   2.122   3.365   2.762  0.4022  2.9035 -0.6117
35715SOL    HW210738   2.215   3.265   2.697 -0.6124  0.1037  1.9884
35716SOL     OW10739  10.697   1.073   5.544 -1.0004  0.7051  0.6081
35716SOL    HW110740  10.787   1.102   5.561  0.3479 -1.5926 -1.7910
35716SOL    HW210741  10.681   1.100   5.453 -1.0452 -2.4842 -0.4394
35717SOL     OW10742  10.056   7.527   6.242  0.2411 -0.2188 -0.9670
35717SOL    HW110743  10.090   7.482   6.319  1.7315  0.9024 -0.9471
35717SOL    HW210744  10.012   7.458   6.192  0.8213 -1.3137 -0.0087
35718SOL     OW10745   6.064   6.370   4.903 -0.2105  0.2296  0.0389
35718SOL    HW110746   6.030   6.282   4.891  0.5229  0.1267 -1.6408
35718SOL    HW210747   6.023   6.422   4.833  2.4020  0.2427 -1.6407
35719SOL     OW10748   3.607  10.059   6.333  0.1103 -0.0367 -0.0033
35719SOL    HW110749   3.649   9.977   6.358  0.8421  0.8017  1.7237
35719SOL    HW210750   3.517  10.051   6.365  0.1287 -0.2478 -0.0069
35720SOL     OW10751   3.280   4.543   7.530  0.0694 -0.1945 -0.3275
35720SOL    HW110752   3.298   4.566   7.621  0.9770  1.4657 -0.8905
35720SOL    HW210753   3.286   4.448   7.527  1.4896 -0.1696  1.0438
35721SOL     OW10754   3.081  10.598   2.976 -0.5707  0.1846  0.4755
35721SOL    HW110755   3.051  10.620   2.888  0.7532  0.9078  0.1808
35721SOL    HW210756   3.001  10.574   3.023 -1.2189 -0.9379 -1.1001
35722SOL     OW10757   8.940   0.069   1.629 -0.1758  0.2688  0.5191
35722SOL    HW110758   8.850   0.039   1.617  0.5528 -2.2532  0.8341
35722SOL    HW210759   8.994  -0.003   1.597  1.7789  2.1771 -0.7583
35723SOL     OW10760   2.540   6.987  10.597  0.1229 -0.6534 -0.4410
35723SOL    HW110761   2.548   7.005  10.691  0.5487  2.7662 -1.0047
35723SOL    HW210762   2.621   7.019  10.559 -0.5640 -0.7986 -2.1332
35724SOL     OW10763   8.551   2.815   1.510  0.4018  0.1489  0.7010
35724SOL    HW110764   8.594   2.835   1.593  0.1411 -0.5486  1.0087
35724SOL    HW210765   8.588   2.731   1.483 -1.5588 -1.0685  1.5539
35725SOL     OW10766   6.852   4.301   9.311 -0.1512 -0.3483 -0.2781
35725SOL    HW110767   6.813   4.260   9.389 -0.9982 -1.8701 -1.4490
35725SOL    HW210768   6.946   4.287   9.321 -0.2542 -0.5861  0.4395
35726SOL     OW10769  10.726   2.436   5.575 -0.0291  0.2963 -0.3560
35726SOL    HW110770  10.703   2.344   5.583 -0.6888  0.4285 -0.7076
35726SOL    HW210771  10.814   2.442   5.612 -0.4910 -0.2436  0.8642
35727SOL     OW10772  10.764  10.994   3.698  0.1598 -0.2298 -0.5835
35727SOL    HW110773  10.808  11.061   3.646  0.6618  0.4417  0.6577
35727SOL    HW210774  10.827  10.973   3.767 -0.8148 -0.4757  0.2462
35728SOL     OW10775   4.155   4.446  10.189  0.3763 -0.1340  0.3727
35728SOL    HW110776   4.177   4.370  10.243  0.2036 -1.4377 -1.3294
35728SOL    HW210777   4.060   4.440  10.177  0.5045 -0.3179 -0.6819
35729SOL     OW10778   0.251   9.143   4.672 -0.1874 -0.1720  0.8213
35729SOL    HW110779   0.300   9.161   4.592 -0.5701 -0.2059  0.5728
35729SOL    HW210780   0.305   9.081   4.720  0.7489  0.9671  1.2867
35730SOL     OW10781   5.829  10.592   2.030 -0.1632  0.3757  0.1393
35730SOL    HW110782   5.854  10.505   1.999 -0.0130  0.5478 -0.2180
35730SOL    HW210783   5.802  10.639   1.951  0.7402  0.9931  0.1863
35731SOL     OW10784   4.207   5.273   5.080  0.0105  0.3499 -0.5563
35731SOL    HW110785   4.285   5.312   5.119 -0.5324  1.6134 -0.6875
35731SOL    HW210786   4.143   5.344   5.078 -1.2266 -0.7118 -0.2639
35732SOL     OW10787   5.414   1.652   1.239  0.1258  0.2018 -0.1412
35732SOL    HW110788   5.492   1.596   1.231  0.5519  0.7790 -0.0833
35732SOL    HW210789   5.372   1.623   1.320 -0.0762 -0.5536 -0.5120
35733SOL     OW10790   6.881   7.199   8.416 -0.0533  0.0417 -0.1345
35733SOL    HW110791   6.788   7.180   8.402 -0.3922  0.6314  1.1622
35733SOL    HW210792   6.892   7.287   8.381  0.0519 -0.0737 -0.3950
35734SOL     OW10793   3.853   2.220   2.281  0.2613  0.2078 -0.0461
35734SOL    HW110794   3.773   2.258   2.316 -0.3987  0.3662 -1.6238
35734SOL    HW210795   3.823   2.153   2.220  1.2685  0.9400 -1.4191
35735SOL     OW10796  10.056   0.659   4.391  0.0514 -0.5608 -0.0208
35735SOL    HW110797   9.999   0.604   4.337 -1.0551  0.6907 -0.1861
35735SOL    HW210798  10.009   0.667   4.474  0.7006 -0.6957  0.3618
35736SOL     OW10799   2.795   5.306   3.870  0.1180 -0.9441 -0.0446
35736SOL    HW110800   2.816   5.372   3.804 -0.5115 -1.0023 -0.3182
35736SOL    HW210801   2.707   5.330   3.901 -0.2431 -1.8134 -0.3645
35737SOL     OW10802   9.850   2.842  10.108 -0.3015 -0.3560 -0.0021
35737SOL    HW110803   9.849   2.801  10.195  0.2522  0.6774  0.5087
35737SOL    HW210804   9.927   2.898  10.109 -0.0363 -0.6621 -1.3387
35738SOL     OW10805   6.345   3.713   1.147 -0.0826  0.5302  0.3157
35738SOL    HW110806   6.402   3.754   1.081 -0.8697  0.8982 -0.1577
35738SOL    HW210807   6.404   3.689   1.218  0.4389  2.4687  0.5987
35739SOL     OW10808   2.928   1.036  10.981 -0.3780  0.1888 -0.5016
35739SOL    HW110809   2.835   1.011  10.977 -1.1792  2.9465 -1.9754
35739SOL    HW210810   2.957   1.033  10.890  0.9699 -0.4244 -0.0807
35740SOL     OW10811   9.638   5.176   3.904 -0.1078 -0.1445 -0.3079
35740SOL    HW110812   9.715   5.150   3.855  0.3737 -0.0236  0.3679
35740SOL    HW210813   9.655   5.267   3.931 -1.1343  0.3999 -1.4040
35741SOL     OW10814   1.911   6.418   8.137  0.5233  0.5390 -0.5055
35741SOL    HW110815   1.950   6.336   8.165 -0.9433  0.0601  0.2460
35741SOL    HW210816   1.821   6.395   8.112 -0.6539  2.2121  1.8111
35742SOL     OW10817   6.896   6.425   7.823  0.0318 -0.5359 -0.1091
35742SOL    HW110818   6.855   6.370   7.757 -0.8440 -0.4053  0.3105
35742SOL    HW210819   6.861   6.513   7.806 -0.2731 -0.5201  0.5747
35743SOL     OW10820   7.889   5.130   9.761 -0.2105  0.1375 -0.1867
35743SOL    HW110821   7.922   5.145   9.850 -0.6556  1.5202 -0.2285
35743SOL    HW210822   7.933   5.050   9.732  0.6923  0.2153  0.9114
35744SOL     OW10823   8.753   3.428   4.857  0.4655 -0.4534  0.4516
35744SOL    HW110824   8.710   3.368   4.918  0.8178 -3.6318 -2.1102
35744SOL    HW210825   8.846   3.409   4.867  0.5866 -0.3053 -0.3400
35745SOL     OW10826   5.025   2.189   3.301  0.1313 -0.5754 -0.3238
35745SOL    HW110827   4.961   2.136   3.255  1.5069 -0.4482 -2.5371
35745SOL    HW210828   5.088   2.215   3.233  1.5253  0.7923  1.3928
35746SOL     OW10829   3.185   2.667   0.538 -0.1033  0.5186  0.2424
35746SOL    HW110830   3.115   2.728   0.560 -1.6663 -0.8086 -0.8026
35746SOL    HW210831   3.180   2.658   0.443 -1.4004 -2.8094  0.4998
35747SOL     OW10832  10.908   1.159   4.024  0.0152  0.3829 -0.6795
35747SOL    HW110833  10.988   1.108   4.030  0.0692  0.5698  0.3805
35747SOL    HW210834  10.935   1.240   3.980  1.0318  1.5408  1.8078
35748SOL     OW10835   6.696  10.342   9.790 -0.3394  0.0132  0.1704
35748SOL    HW110836   6.720  10.398   9.717 -2.4196 -2.8763 -3.0868
35748SOL    HW210837   6.778  10.304   9.820  0.3881 -1.7550 -3.5295
35749SOL     OW10838   2.694   8.777   6.869  0.5445 -0.0270  0.0872
35749SOL    HW110839   2.626   8.734   6.921  0.3921 -0.1328 -0.2012
35749SOL    HW210840   2.776   8.737   6.900  0.8807  2.4881  2.8955
35750SOL     OW10841   2.532   4.843   0.885  0.0039 -0.4566  0.1052
35750SOL    HW110842   2.607   4.784   0.870  1.0267  1.1267 -1.4618
35750SOL    HW210843   2.482   4.801   0.955  1.7428 -2.1640  0.4182
35751SOL     OW10844   0.948   0.061   2.391  0.0342  0.1018  0.6195
35751SOL    HW110845   0.953  -0.027   2.355 -0.9819 -0.3464  1.5188
35751SOL    HW210846   0.989   0.055   2.478  0.8645  0.7622  0.2948
35752SOL     OW10847   4.966  10.634   8.367 -0.0644 -0.6702 -0.4270
35752SOL    HW110848   4.960  10.544   8.398  1.1575 -0.2773  1.0450
35752SOL    HW210849   5.021  10.678   8.431 -1.3523  1.3530 -0.6184
35753SOL     OW10850   6.833   0.371   9.825  0.0350 -0.3772  0.1195
35753SOL    HW110851   6.787   0.305   9.773  0.2820 -0.6044  0.1890
35753SOL    HW210852   6.925   0.345   9.821  0.4710  1.2514 -1.7790
35754SOL     OW10853   4.112  10.769  10.601 -0.5160 -0.2742  0.8956
35754SOL    HW110854   4.047  10.834  10.628 -1.2951 -0.5004 -0.3436
35754SOL    HW210855   4.148  10.804  10.520  1.1096 -0.0439  1.6826
35755SOL     OW10856   8.075   6.745   1.342 -0.0309  0.1119  0.4364
35755SOL    HW110857   8.122   6.772   1.263 -0.6400 -0.1103 -0.0139
35755SOL    HW210858   7.986   6.779   1.329  0.3859  2.0529  2.0508
35756SOL     OW10859   2.063   6.178   2.087 -0.3518  0.1581 -0.4983
35756SOL    HW110860   2.060   6.134   2.172 -1.0918 -0.7981 -1.0127
35756SOL    HW210861   2.129   6.130   2.037 -0.3082  0.3837 -0.6615
35757SOL     OW10862   2.745   2.693   3.922  0.2962  0.2102  0.0433
35757SOL    HW110863   2.691   2.651   3.989  1.3629 -1.0433  0.1446
35757SOL    HW210864   2.790   2.763   3.969  0.5809 -0.2749  0.4959
35758SOL     OW10865   0.758   8.745   3.073 -1.0705  0.6695 -0.4308
35758SOL    HW110866   0.731   8.689   3.145 -0.6655  1.9348  0.7373
35758SOL    HW210867   0.853   8.755   3.083 -0.7561 -0.2871 -2.0004
35759SOL     OW10868   8.277  10.549   3.073 -0.3532 -0.1671  0.3122
35759SOL    HW110869   8.198  10.563   3.020 -0.4798  2.0384  0.9934
35759SOL    HW210870   8.342  10.608   3.035 -0.3856  1.3260  2.3954
35760SOL     OW10871   1.364   2.774   9.325  0.7479 -0.1615  0.2212
35760SOL    HW110872   1.356   2.740   9.414 -0.5975 -0.7713 -0.1131
35760SOL    HW210873   1.276   2.768   9.289  1.6334 -1.8844 -1.8610
35761SOL     OW10874   5.166   9.868   0.525 -0.6150 -0.4592 -0.6034
35761SOL    HW110875   5.111   9.820   0.464  0.7030 -1.2212 -1.2315
35761SOL    HW210876   5.196   9.803   0.588  0.3471 -0.2745 -0.8487
35762SOL     OW10877   7.917   6.398   9.549 -0.0484  0.3330 -0.2587
35762SOL    HW110878   7.901   6.491   9.565  0.8767  0.5161 -0.3711
35762SOL    HW210879   8.005   6.382   9.583 -1.5005 -1.3461  3.1519
35763SOL     OW10880  10.211   1.016  10.788  0.3414 -0.5582  0.4736
35763SOL    HW110881  10.150   1.033  10.716  1.7133  0.1680 -0.5708
35763SOL    HW210882  10.214   1.097  10.837  1.8015  0.0795 -0.5709
35764SOL     OW10883   2.457   1.426   8.373 -0.2045  0.7367  0.4626
35764SOL    HW110884   2.442   1.497   8.436  1.7799 -0.5332  2.4803
35764SOL    HW210885   2.499   1.469   8.298 -0.5545  1.9336  0.9255
35765SOL     OW10886   2.646   3.025   7.275  0.2423 -0.0237  0.6012
35765SOL    HW110887   2.652   2.988   7.187 -1.1241  0.8475  0.1002
35765SOL    HW210888   2.734   3.054   7.296  1.1611 -2.6214  0.6223
35766SOL     OW10889   2.037   8.073   1.277  0.4811  0.0081  0.7017
35766SOL    HW110890   2.081   8.152   1.247  0.9563 -0.5375 -0.0936
35766SOL    HW210891   1.944   8.088   1.258  0.4195  0.8057  1.5675
35767SOL     OW10892   4.519   7.920   9.256  0.2321  0.1317  0.2986
35767SOL    HW110893   4.608   7.956   9.261  0.4187 -0.4523  1.5019
35767SOL    HW210894   4.526   7.834   9.297 -0.9408  0.1858  0.6400
35768SOL     OW10895   9.415  10.558   6.314 -0.0105  0.2470  0.8827
35768SOL    HW110896   9.491  10.501   6.303 -0.9303 -0.6850 -1.0222
35768SOL    HW210897   9.444  10.643   6.281 -0.2216 -0.4948 -1.3653
35769SOL     OW10898   2.730   9.513   4.259 -0.6050  0.1234  0.8625
35769SOL    HW110899   2.771   9.427   4.254 -0.1414  0.3310  1.0241
35769SOL    HW210900   2.636   9.495   4.260 -0.6849 -0.2757 -2.1934
35770SOL     OW10901   7.665   3.386   2.398  0.3895 -0.3630  0.1089
35770SOL    HW110902   7.620   3.313   2.357  0.3019  0.5336 -1.4623
35770SOL    HW210903   7.608   3.412   2.471  0.4808 -1.8891  0.7532
35771SOL     OW10904   5.701   5.512   3.885 -0.3336  0.0733 -0.1310
35771SOL    HW110905   5.626   5.476   3.932 -1.7547  1.1367 -1.4994
35771SOL    HW210906   5.671   5.597   3.853  1.0105 -0.0301 -1.7880
35772SOL     OW10907   0.982  10.225   2.725 -0.2188 -0.1058 -0.0430
35772SOL    HW110908   0.902  10.251   2.771 -0.1423 -1.2394  0.7751
35772SOL    HW210909   1.036  10.304   2.726  0.0014 -0.2037  2.3348
35773SOL     OW10910   6.169   5.752   4.485 -0.1712 -0.4190 -0.2112
35773SOL    HW110911   6.164   5.733   4.391 -2.7322 -1.4339  0.0315
35773SOL    HW210912   6.181   5.847   4.490 -0.9690 -0.2067 -1.6093
35774SOL     OW10913   7.050   3.076   2.283 -0.6903  0.0113  0.5021
35774SOL    HW110914   7.000   3.011   2.332 -0.4317 -0.1392  0.5709
35774SOL    HW210915   7.009   3.159   2.305 -1.9518 -0.2525 -0.7259
35775SOL     OW10916   1.898   8.957   5.807  1.0945 -0.4468  0.5372
35775SOL    HW110917   1.946   9.019   5.753 -1.6776  1.6987  0.3613
35775SOL    HW210918   1.945   8.958   5.891  1.5994  1.2520  0.2720
35776SOL     OW10919   9.930  10.742   1.550 -0.2243 -0.1259 -0.2244
35776SOL    HW110920   9.964  10.722   1.637  0.3923 -0.0355 -0.4376
35776SOL    HW210921   9.969  10.676   1.492  0.9580  0.9831 -0.7485
35777SOL     OW10922   3.981  10.938   7.620  0.1120  0.0175 -0.2052
35777SOL    HW110923   3.919  10.931   7.693  0.1231 -1.2048 -0.2892
35777SOL    HW210924   3.973  10.854   7.574  1.0589  0.2606 -0.8363
35778SOL     OW10925   8.580   3.970   0.146 -0.0649  0.9753 -0.2665
35778SOL    HW110926   8.600   4.062   0.159  0.7061  0.5773  1.5511
35778SOL    HW210927   8.635   3.923   0.208 -2.0226 -0.5815  0.4323
35779SOL     OW10928   8.498   0.031   8.836 -0.4402 -0.6620  0.1995
35779SOL    HW110929   8.483   0.029   8.741 -0.4013  0.1346  0.1703
35779SOL    HW210930   8.590   0.005   8.846  0.0331  0.8007 -0.1128
35780SOL     OW10931   7.425   1.952   2.691 -0.5254  0.3031 -0.1955
35780SOL    HW110932   7.355   1.944   2.625 -2.2189  0.4582  1.4940
35780SOL    HW210933   7.394   1.900   2.765 -1.0386  3.8189  2.3136
35781SOL     OW10934   9.784  10.888   8.858 -0.7873 -0.1305  0.4553
35781SOL    HW110935   9.842  10.834   8.910 -1.9390 -0.0383  1.8958
35781SOL    HW210936   9.838  10.917   8.784  0.4541 -1.4729  0.7933
35782SOL     OW10937   9.031   2.393   4.852  0.0922  0.1666 -0.0000
35782SOL    HW110938   9.108   2.440   4.821  1.1902 -1.4937  0.1492
35782SOL    HW210939   9.054   2.365   4.941 -0.7567 -0.2257  0.1057
35783SOL     OW10940   1.413   6.486   0.455  0.0708  0.1510 -0.5035
35783SOL    HW110941   1.502   6.477   0.420  0.6783  0.7809  0.8187
35783SOL    HW210942   1.362   6.522   0.382  0.9168 -0.1295 -1.2473
35784SOL     OW10943   7.567   1.540   6.110  0.7854 -0.2202 -0.3409
35784SOL    HW110944   7.643   1.547   6.052  1.7534 -2.7938  0.4739
35784SOL    HW210945   7.601   1.499   6.190 -0.8786  1.4507  1.3383
35785SOL     OW10946   9.105   1.699   6.375  0.0575 -0.0301 -1.2160
35785SOL    HW110947   9.173   1.668   6.315  0.2807  3.9043 -3.3671
35785SOL    HW210948   9.028   1.711   6.320 -0.7039  0.7257 -0.0308
35786SOL     OW10949   5.776   8.179   8.982 -0.1819 -0.2945 -0.0671
35786SOL    HW110950   5.706   8.115   8.971 -0.0675 -0.4183 -0.0718
35786SOL    HW210951   5.767   8.238   8.907 -0.7955  0.1752  0.3653
35787SOL     OW10952  11.027   9.875   2.868  0.5117 -0.1394  0.1103
35787SOL    HW110953  10.993   9.958   2.900  1.3226  0.1413  0.2530
35787SOL    HW210954  10.949   9.829   2.834 -0.0013  0.4942  0.4048
35788SOL     OW10955   5.549   1.339  10.432  0.0740 -0.8113  0.0992
35788SOL    HW110956   5.634   1.375  10.455  0.0387 -1.1965  0.8930
35788SOL    HW210957   5.526   1.381  10.349  1.4104 -1.3317 -0.5582
35789SOL     OW10958  10.821   1.426   8.897 -0.6840 -0.3247  0.3311
35789SOL    HW110959  10.797   1.489   8.966  3.0003  0.2480  1.3051
35789SOL    HW210960  10.781   1.344   8.925 -0.9881  0.3588  2.0502
35790SOL     OW10961   0.080   1.199   9.741 -0.4184 -0.5695  0.0914
35790SOL    HW110962   0.094   1.116   9.694  2.7030 -0.4963  0.7228
35790SOL    HW210963   0.136   1.193   9.818 -1.0482  1.6827  0.7940
35791SOL     OW10964   9.743   7.464   0.654 -0.7523  0.3986  0.5533
35791SOL    HW110965   9.729   7.559   0.662  1.0276  0.6999  0.6064
35791SOL    HW210966   9.715   7.443   0.565 -3.2509  0.5121  1.2193
35792SOL     OW10967   9.507   0.654   4.663 -0.5988  0.4436 -0.2072
35792SOL    HW110968   9.567   0.714   4.708  0.9754 -1.5317  0.4382
35792SOL    HW210969   9.446   0.626   4.731 -0.9476  0.8246 -0.3612
35793SOL     OW10970   2.383   2.213   2.185 -0.5162  0.4537  0.5765
35793SOL    HW110971   2.473   2.192   2.163 -0.8638 -0.0532 -0.4171
35793SOL    HW210972   2.386   2.306   2.209  0.0340  0.8502 -0.9125
35794SOL     OW10973   1.946   6.880   0.680  0.3853  0.0902 -0.3066
35794SOL    HW110974   1.912   6.938   0.612  0.1627 -1.1254 -1.2659
35794SOL    HW210975   1.984   6.940   0.745  0.6233  1.2902 -1.4946
35795SOL     OW10976  10.485   1.636   9.990 -0.3375  0.5511 -0.1938
35795SOL    HW110977  10.507   1.543   9.989  3.6166  1.2854  1.3615
35795SOL    HW210978  10.517   1.669   9.906  0.7627  0.9158  0.3523
35796SOL     OW10979   4.621   1.841   1.951  0.5150  0.8255  0.0745
35796SOL    HW110980   4.689   1.906   1.935  0.6988  0.6953  0.3125
35796SOL    HW210981   4.583   1.866   2.035  0.2716  0.8967 -0.0582
35797SOL     OW10982   2.852   2.051  10.501 -0.6783 -0.6895  0.0584
35797SOL    HW110983   2.835   1.988  10.431 -0.4070  0.7819 -1.3844
35797SOL    HW210984   2.925   2.013  10.550 -1.1058 -1.9163 -0.2069
35798SOL     OW10985   3.002   4.813   1.066  0.1860 -0.1619 -0.5944
35798SOL    HW110986   3.078   4.778   1.113  0.0529  0.6485  0.2531
35798SOL    HW210987   3.013   4.908   1.069 -1.3723  0.0269  0.4524
35799SOL     OW10988   0.517   6.740   6.932  0.0222  0.0339  0.1752
35799SOL    HW110989   0.542   6.791   6.855 -0.8431  1.3606  0.7485
35799SOL    HW210990   0.423   6.729   6.925 -0.1252  0.5102  1.2398
35800SOL     OW10991   9.559   8.581   1.017 -0.2399 -0.0294  0.4664
35800SOL    HW110992   9.617   8.566   0.942 -1.0912  0.2417 -0.2598
35800SOL    HW210993   9.602   8.651   1.067  0.7848 -0.8244  0.7252
35801SOL     OW10994   6.922   8.477   8.604 -0.2046 -0.0055  0.2229
35801SOL    HW110995   6.843   8.530   8.614  0.3421  1.5243 -2.6613
35801SOL    HW210996   6.902   8.417   8.533  1.2745  0.6136 -0.7682
35802SOL     OW10997   1.682   4.000   0.064 -0.0621  0.3388  0.6425
35802SOL    HW110998   1.649   3.912   0.044 -0.6800  0.7662 -0.3434
35802SOL    HW210999   1.753   3.986   0.126  0.5552 -0.9423 -0.3121
35803SOL     OW11000   4.667   9.812   1.909  0.2297  0.3274  0.1485
35803SOL    HW111001   4.726   9.752   1.864  0.3587 -0.0253  0.7773
35803SOL    HW211002   4.606   9.756   1.957 -0.6493  0.6922 -0.5230
35804SOL     OW11003   9.182   8.148   5.951 -0.1708 -0.4931 -0.4861
35804SOL    HW111004   9.267   8.106   5.963  1.0933  0.6608 -4.1208
35804SOL    HW211005   9.200   8.241   5.950 -2.1051  0.0264  1.9093
35805SOL     OW11006   1.747   0.140   7.155 -0.0798 -0.5444  0.1024
35805SOL    HW111007   1.766   0.114   7.064  1.4979 -0.2474  0.3325
35805SOL    HW211008   1.822   0.110   7.205  0.4895  1.9194  0.8536
35806SOL     OW11009   7.877   1.726   6.123  0.2309  0.0568 -0.2044
35806SOL    HW111010   7.852   1.704   6.213  0.2511  2.3900  0.4549
35806SOL    HW211011   7.804   1.696   6.069  0.2210 -1.3761  0.5803
35807SOL     OW11012  10.074   9.891   5.311  0.1281  0.4885 -0.3940
35807SOL    HW111013  10.025   9.973   5.315 -2.6145 -1.0703  0.5641
35807SOL    HW211014  10.101   9.884   5.220 -2.1316  1.1152 -1.1750
35808SOL     OW11015  10.175  10.534   8.446 -0.2320  0.1138 -0.3864
35808SOL    HW111016  10.154  10.453   8.401 -2.0350  1.7199 -2.6953
35808SOL    HW211017  10.126  10.529   8.528 -0.7257 -0.9188 -0.7360
35809SOL     OW11018  10.101   4.508   7.897  0.0450 -0.2097 -0.2149
35809SOL    HW111019  10.108   4.591   7.851  1.6278  0.2113  0.7347
35809SOL    HW211020  10.053   4.451   7.836 -3.7343  2.1443  0.2429
35810SOL     OW11021   9.200   1.922   7.333 -0.2696  0.3088 -0.2299
35810SOL    HW111022   9.255   1.963   7.266 -1.6851  2.5589 -0.1258
35810SOL    HW211023   9.148   1.994   7.369 -1.0874 -1.2020  1.8096
35811SOL     OW11024   1.794   1.246  10.211 -0.2799  0.2416 -0.0228
35811SOL    HW111025   1.740   1.167  10.205 -1.4823  1.1012 -3.9865
35811SOL    HW211026   1.736   1.311  10.251 -0.2795 -0.1492  0.6327
35812SOL     OW11027   8.663   6.476   0.454 -0.1316 -0.0463  0.0642
35812SOL    HW111028   8.629   6.548   0.400  1.3783  0.3366 -0.4350
35812SOL    HW211029   8.755   6.468   0.427 -0.1084 -1.7457  0.5813
35813SOL     OW11030   7.294   4.501   5.670  0.1662  0.3545 -0.3085
35813SOL    HW111031   7.258   4.507   5.758 -2.0838 -1.6254 -0.9936
35813SOL    HW211032   7.381   4.461   5.682  0.9917  2.4185  1.1282
35814SOL     OW11033   4.286   0.049   6.277  0.0341  0.6019  0.3540
35814SOL    HW111034   4.213  -0.000   6.238  1.0280  0.6191 -1.6502
35814SOL    HW211035   4.281   0.028   6.371 -2.2954  0.3089  0.2291
35815SOL     OW11036   7.505   8.784   5.982 -0.1664 -0.4927  0.0614
35815SOL    HW111037   7.468   8.870   6.004  1.5186  0.3093 -0.0525
35815SOL    HW211038   7.430   8.729   5.964 -1.3538  0.6131  1.4078
35816SOL     OW11039   9.837   5.773   6.197 -1.0002  0.1279 -0.1642
35816SOL    HW111040   9.848   5.840   6.264  0.3776 -0.4716  0.2378
35816SOL    HW211041   9.806   5.696   6.244 -0.4166 -0.1763 -0.2715
35817SOL     OW11042   8.416   4.343   6.894 -0.6382 -0.1611  0.3592
35817SOL    HW111043   8.451   4.312   6.977 -0.2180  0.4214  0.4044
35817SOL    HW211044   8.327   4.372   6.914 -1.3526 -2.0718  0.1549
35818SOL     OW11045   9.699   1.571   0.806 -0.3237 -0.1164 -0.0583
35818SOL    HW111046   9.755   1.647   0.788 -0.5745 -0.0164 -0.4335
35818SOL    HW211047   9.727   1.505   0.742 -0.2992 -0.2438  0.0819
35819SOL     OW11048  10.289   2.047   8.446 -0.3957  0.1034  0.8742
35819SOL    HW111049  10.330   1.980   8.501 -0.5931 -0.3969  0.4213
35819SOL    HW211050  10.207   2.007   8.417  0.1807 -0.0482 -0.6216
35820SOL     OW11051   0.542   1.779   7.841  0.2709 -0.4166  0.2067
35820SOL    HW111052   0.564   1.685   7.840  0.8904 -0.3414 -2.6065
35820SOL    HW211053   0.462   1.786   7.788 -0.5830  0.5207  1.5691
35821SOL     OW11054   2.349   1.569   1.045  0.1774  0.1080  0.7792
35821SOL    HW111055   2.343   1.475   1.028 -1.4139 -0.1127  2.2744
35821SOL    HW211056   2.404   1.602   0.975 -0.4164 -1.7143 -0.6368
35822SOL     OW11057   5.421   0.084   2.166 -0.5994  0.5343 -0.4347
35822SOL    HW111058   5.390   0.108   2.253 -1.1523  1.7675 -0.9394
35822SOL    HW211059   5.506   0.127   2.159 -1.2283  1.7417 -1.0384
35823SOL     OW11060   2.867   6.487   1.017  0.0831 -0.5785  0.0418
35823SOL    HW111061   2.901   6.456   1.100 -0.5666 -0.1691  0.4713
35823SOL    HW211062   2.942   6.525   0.972  0.6088 -1.5435  0.0785
35824SOL     OW11063   8.821   1.647   4.704 -0.2141  0.4693 -0.0469
35824SOL    HW111064   8.779   1.683   4.626  0.8506  0.2234 -0.7454
35824SOL    HW211065   8.833   1.723   4.761  0.2273  0.8873 -0.6872
35825SOL     OW11066   9.651   6.756   8.154  0.3742 -0.0669 -0.0988
35825SOL    HW111067   9.619   6.768   8.064 -3.5365 -1.5720  0.8740
35825SOL    HW211068   9.650   6.843   8.192  0.7628  0.3981 -1.1274
35826SOL     OW11069   8.972   0.227   8.996 -0.3555  0.7898  0.0240
35826SOL    HW111070   9.023   0.253   9.073 -0.2695  0.8979 -0.0684
35826SOL    HW211071   9.015   0.272   8.923  0.2383 -0.1900 -0.2438
35827SOL     OW11072   0.740   3.489   8.271 -0.1270 -0.4531  0.4629
35827SOL    HW111073   0.761   3.395   8.269  0.6267 -0.2969 -2.0634
35827SOL    HW211074   0.803   3.529   8.211 -3.0387  1.0717 -1.8234
35828SOL     OW11075   9.089   7.392   6.270 -0.2670 -0.0277 -0.3427
35828SOL    HW111076   9.027   7.434   6.330  0.1307 -0.0143  0.0606
35828SOL    HW211077   9.124   7.464   6.218  0.2702  0.1216  0.2165
35829SOL     OW11078   4.431   2.938   3.174  0.1032 -0.5924 -1.0101
35829SOL    HW111079   4.419   2.845   3.154  0.2786 -0.8252 -0.0762
35829SOL    HW211080   4.511   2.942   3.227  1.3888  0.3750 -2.9331
35830SOL     OW11081   2.440   8.084   1.076 -0.0623 -0.0446 -0.2650
35830SOL    HW111082   2.528   8.047   1.090 -1.5566 -3.8856  0.2541
35830SOL    HW211083   2.406   8.096   1.165  0.1938  2.4194 -0.4398
35831SOL     OW11084   4.558   8.708   7.269  0.5135 -0.6119  0.0253
35831SOL    HW111085   4.525   8.647   7.336  0.2612  0.4773  0.9235
35831SOL    HW211086   4.491   8.706   7.200  0.1094 -0.7549  0.4136
35832SOL     OW11087   2.097   4.588   2.849  0.1251  0.3828 -0.0092
35832SOL    HW111088   2.037   4.662   2.852 -0.3847 -0.0458  0.9130
35832SOL    HW211089   2.040   4.512   2.834  0.1691 -0.2517  2.5925
35833SOL     OW11090   3.037   3.835   7.329  0.6097  0.2483  0.1521
35833SOL    HW111091   2.988   3.868   7.253 -0.6380 -0.4029  0.6488
35833SOL    HW211092   3.098   3.772   7.292  0.3807  0.3304 -0.3826
35834SOL     OW11093   4.359   3.729   5.475 -0.1176 -0.2265 -0.0972
35834SOL    HW111094   4.382   3.638   5.461  0.4374 -0.0240 -0.5293
35834SOL    HW211095   4.381   3.746   5.567 -1.1646 -0.7904  0.2801
35835SOL     OW11096   4.417   8.150   5.934  0.3326  0.1551  0.1606
35835SOL    HW111097   4.511   8.136   5.925  0.1158 -0.8633 -0.8571
35835SOL    HW211098   4.379   8.099   5.862 -1.0306 -0.0498  0.9952
35836SOL     OW11099   0.814   8.108   5.687 -0.2598 -0.3647  0.0713
35836SOL    HW111100   0.858   8.187   5.655 -1.2082  0.3146  0.3960
35836SOL    HW211101   0.871   8.074   5.756  0.5801 -0.4553 -0.6533
35837SOL     OW11102   1.755   2.188   8.622 -0.2415 -0.1018 -0.5239
35837SOL    HW111103   1.805   2.156   8.697 -0.1135  0.1412 -0.5059
35837SOL    HW211104   1.676   2.134   8.621 -0.2404 -0.1109 -0.2188
35838SOL     OW11105   7.876   6.334   9.246 -0.1444 -0.4805 -0.0519
35838SOL    HW111106   7.909   6.346   9.335  0.7600  0.4157 -0.4871
35838SOL    HW211107   7.827   6.252   9.249  1.7950 -1.6535  0.7324
35839SOL     OW11108   6.688   4.343   3.546 -0.3860  0.4203  0.0591
35839SOL    HW111109   6.669   4.359   3.453  0.6427  1.1542 -0.0370
35839SOL    HW211110   6.717   4.251   3.549  1.7026  0.9999 -0.7205
35840SOL     OW11111  10.473   5.403   7.900 -0.3560 -0.2705 -0.3852
35840SOL    HW111112  10.508   5.388   7.813 -0.5945 -1.9552 -0.2163
35840SOL    HW211113  10.436   5.491   7.897 -2.4362 -1.1299 -2.6823
35841SOL     OW11114   7.422  10.490   8.223  0.1813 -0.6981  0.3519
35841SOL    HW111115   7.491  10.424   8.224  1.6545  0.7812 -0.0410
35841SOL    HW211116   7.350  10.448   8.176  0.9651 -2.1236  0.3655
35842SOL     OW11117   8.872  10.523  10.555  0.1648  0.5094 -0.1389
35842SOL    HW111118   8.862  10.481  10.470 -1.4362  0.2238  0.1433
35842SOL    HW211119   8.965  10.518  10.575  0.5337  0.4586 -1.7986
35843SOL     OW11120  10.273   1.566   4.299  0.5877  0.0298 -0.0277
35843SOL    HW111121  10.318   1.579   4.383  1.4226 -0.9703 -0.2975
35843SOL    HW211122  10.183   1.545   4.324  0.6689  0.3833  0.5965
35844SOL     OW11123   9.683   8.301   5.419  0.1082 -0.2349  0.1120
35844SOL    HW111124   9.720   8.299   5.508  0.8545 -0.4104 -0.1957
35844SOL    HW211125   9.685   8.393   5.394  1.9389 -0.4121 -0.5414
35845SOL     OW11126   8.250   1.535  10.263 -0.8187  0.2487 -0.2290
35845SOL    HW111127   8.225   1.456  10.311 -0.5857  0.9985  1.1900
35845SOL    HW211128   8.340   1.519  10.236 -1.3507 -0.6806 -1.5225
35846SOL     OW11129   5.791   8.436   4.107 -0.1190 -0.4498 -0.1376
35846SOL    HW111130   5.761   8.356   4.149  2.4281 -2.3240 -1.5744
35846SOL    HW211131   5.767   8.426   4.015  3.0378 -1.2265 -0.9879
35847SOL     OW11132   9.205   9.453   4.770  0.2620 -0.3101  0.3146
35847SOL    HW111133   9.287   9.444   4.819 -0.0596  0.8862  1.1108
35847SOL    HW211134   9.234   9.477   4.682  0.7938  1.6998  0.9657
35848SOL     OW11135   9.776   1.814   0.549  0.1720  0.5346 -0.3786
35848SOL    HW111136   9.852   1.782   0.598  0.6289  0.2803 -1.2428
35848SOL    HW211137   9.701   1.770   0.590  0.2750  2.0260  1.5640
35849SOL     OW11138   8.241   1.466   4.458 -0.5053 -0.8545 -0.3775
35849SOL    HW111139   8.308   1.485   4.525  0.4399  3.4190 -2.2044
35849SOL    HW211140   8.290   1.450   4.378 -1.5512  0.5920 -1.3747
35850SOL     OW11141   3.498   9.636   0.492  0.4721 -0.0004  0.1558
35850SOL    HW111142   3.564   9.578   0.530  1.0069 -0.8594 -1.9541
35850SOL    HW211143   3.518   9.637   0.398 -1.5977  0.9387 -0.3252
35851SOL     OW11144   2.069   0.983  10.276 -0.6934 -0.2947  0.1374
35851SOL    HW111145   2.150   0.931  10.273 -1.2428 -1.1716  0.2365
35851SOL    HW211146   2.033   0.976  10.188 -0.6956  0.0397  0.1130
35852SOL     OW11147   6.510   2.795   0.750 -0.5490  0.0680  0.0262
35852SOL    HW111148   6.458   2.876   0.755 -0.3967  0.1139  0.9895
35852SOL    HW211149   6.585   2.811   0.807 -0.3709 -0.6509  0.0012
35853SOL     OW11150   1.691   3.179   8.350  0.4422  0.1471  0.2377
35853SOL    HW111151   1.699   3.134   8.266  0.4098 -0.4559  0.5539
35853SOL    HW211152   1.598   3.180   8.369  0.5887 -1.4674  1.1913
35854SOL     OW11153   9.711   5.583   2.794  0.4427  0.6359  0.0353
35854SOL    HW111154   9.682   5.663   2.839  0.4038  1.5510 -1.5500
35854SOL    HW211155   9.646   5.569   2.725  0.6137 -0.6161  0.0986
35855SOL     OW11156   3.241   7.342   1.131  0.2651  0.4151  0.8495
35855SOL    HW111157   3.190   7.317   1.208  0.3172 -0.8985  0.4899
35855SOL    HW211158   3.179   7.389   1.075 -0.5218 -0.9415  0.5314
35856SOL     OW11159   0.757   7.806   6.497  0.4037  0.0874 -0.3122
35856SOL    HW111160   0.724   7.779   6.412  0.8854  1.9307 -1.1284
35856SOL    HW211161   0.851   7.817   6.484  0.1820  2.5391 -0.1871
35857SOL     OW11162   8.597   0.689   5.222  0.4066 -0.4557 -0.0123
35857SOL    HW111163   8.531   0.754   5.199  1.8773  1.1542  0.0778
35857SOL    HW211164   8.627   0.715   5.309  0.9571 -1.3242  0.0695
35858SOL     OW11165   5.916   7.806   0.344 -0.2046 -0.5435  0.1172
35858SOL    HW111166   5.840   7.814   0.285 -0.1630  1.0096  0.2373
35858SOL    HW211167   5.976   7.875   0.314  0.4689 -0.7288  1.0252
35859SOL     OW11168   0.180  10.213   9.769 -0.6000  0.2390  0.0177
35859SOL    HW111169   0.162  10.210   9.675  2.5270  2.3359 -0.8340
35859SOL    HW211170   0.187  10.306   9.789 -1.7352 -0.1325  2.5266
35860SOL     OW11171   7.826   5.582   9.563  0.1590 -0.0158  0.2214
35860SOL    HW111172   7.843   5.543   9.648  0.6551 -0.6467 -0.1576
35860SOL    HW211173   7.803   5.508   9.507 -3.0395  0.6482  0.4488
35861SOL     OW11174   6.384   3.357   9.771  0.6968  0.3296 -0.4654
35861SOL    HW111175   6.305   3.396   9.733  1.4409  1.4240 -0.9402
35861SOL    HW211176   6.423   3.427   9.823  0.0937 -0.9207  1.7987
35862SOL     OW11177   1.368   7.465   8.223  0.0667 -0.3575 -0.6439
35862SOL    HW111178   1.431   7.407   8.182  0.1104 -0.7527 -0.0243
35862SOL    HW211179   1.403   7.553   8.207  1.0177 -0.5912  0.0965
35863SOL     OW11180   5.903   3.704  10.552  0.1989 -0.1475 -0.3259
35863SOL    HW111181   5.885   3.658  10.471 -0.9108  1.5698 -1.1167
35863SOL    HW211182   5.849   3.660  10.618  1.5068 -1.8856 -0.3572
35864SOL     OW11183   2.353   4.290   0.412 -0.0274 -0.3508 -0.2128
35864SOL    HW111184   2.378   4.335   0.331 -0.8549  1.0227  0.2624
35864SOL    HW211185   2.257   4.288   0.409 -0.0666 -0.1593  0.8006
35865SOL     OW11186   8.580   9.639   7.043  0.1121 -0.3772  0.7892
35865SOL    HW111187   8.585   9.630   7.138  1.1288  3.1176  1.2199
35865SOL    HW211188   8.501   9.690   7.027  0.8406  0.5423 -0.0465
35866SOL     OW11189   3.397   9.406   4.226 -0.1163  0.2419 -0.2775
35866SOL    HW111190   3.357   9.342   4.285  2.5230 -0.9927  0.3295
35866SOL    HW211191   3.376   9.491   4.265 -0.1978 -0.4532  1.2763
35867SOL     OW11192  10.431   0.983   2.880 -0.5449  0.5478  0.8018
35867SOL    HW111193  10.504   0.923   2.864  1.5671  2.5461  2.2262
35867SOL    HW211194  10.385   0.946   2.954  1.8786  1.4524  2.9270
35868SOL     OW11195   2.896   8.463   9.738 -0.2808  0.0630  0.3256
35868SOL    HW111196   2.928   8.486   9.825  3.5669 -1.9215 -0.3716
35868SOL    HW211197   2.836   8.390   9.753 -0.1645  0.1615  1.3360
35869SOL     OW11198   1.656   7.312  10.837  0.2963  0.2128 -0.3825
35869SOL    HW111199   1.737   7.328  10.885 -0.8740  1.3243  1.3166
35869SOL    HW211200   1.668   7.226  10.797  2.0722  0.1120  0.2912
35870SOL     OW11201   4.599   5.792   4.871  0.2880  0.0800  0.0082
35870SOL    HW111202   4.549   5.710   4.867 -1.5988  1.1534  0.4526
35870SOL    HW211203   4.680   5.772   4.824 -0.4265 -1.8299 -0.5309
35871SOL     OW11204   4.509   8.371   2.730 -0.1744  0.0972  0.4668
35871SOL    HW111205   4.541   8.357   2.819  2.0687  2.4957  0.1511
35871SOL    HW211206   4.517   8.465   2.715  0.0121 -0.2748 -2.4261
35872SOL     OW11207   1.816   4.789   9.089 -0.0164  0.8693 -0.0511
35872SOL    HW111208   1.805   4.750   9.175 -1.0198 -1.7768 -1.2759
35872SOL    HW211209   1.907   4.819   9.087  0.7154 -1.1187  1.1512
35873SOL     OW11210   5.703   0.046   5.086  0.1415  0.7031 -0.8815
35873SOL    HW111211   5.654   0.095   5.152 -0.3417  0.1695 -0.8319
35873SOL    HW211212   5.676   0.085   5.003 -1.8538 -0.7797 -1.0123
35874SOL     OW11213   1.494   1.722   2.755  0.3910  0.0363 -0.2628
35874SOL    HW111214   1.543   1.646   2.725  1.2767  0.7237 -0.5949
35874SOL    HW211215   1.468   1.700   2.844  0.0465 -0.9275 -0.5813
35875SOL     OW11216   8.369   2.692   6.819 -0.1977 -0.1338 -0.5086
35875SOL    HW111217   8.432   2.700   6.891  0.1031 -0.5092 -0.7240
35875SOL    HW211218   8.363   2.780   6.783 -1.7484  0.4854  1.1171
35876SOL     OW11219   9.758   5.432   8.472 -0.3238  0.2985  0.7658
35876SOL    HW111220   9.796   5.475   8.549  1.1890  0.4344 -0.0338
35876SOL    HW211221   9.674   5.399   8.503  0.2384  0.3759  2.4800
35877SOL     OW11222   5.947   6.039   1.126  0.6292  0.1518  0.2050
35877SOL    HW111223   6.017   5.976   1.108  0.6720 -0.1576  1.3769
35877SOL    HW211224   5.871   6.004   1.079  1.2604  0.5234 -1.1294
35878SOL     OW11225   8.844   8.072   4.717 -0.1070 -0.0767 -0.5821
35878SOL    HW111226   8.879   8.011   4.652  1.9799  0.8464 -0.4065
35878SOL    HW211227   8.801   8.140   4.666 -0.3823 -0.4676 -0.8787
35879SOL     OW11228  10.403   2.321   7.421 -0.3222 -0.2232 -0.3139
35879SOL    HW111229  10.492   2.351   7.436 -0.2114 -0.6043 -0.2015
35879SOL    HW211230  10.371   2.374   7.348 -0.0795  0.0613 -0.2119
35880SOL     OW11231   1.488   6.420   1.645 -0.4040 -0.5229  0.0996
35880SOL    HW111232   1.584   6.412   1.643 -0.1946  1.4214  0.4892
35880SOL    HW211233   1.457   6.332   1.623  1.4642 -1.0915 -0.5205
35881SOL     OW11234   9.224   4.000   3.485 -0.1154  0.2006 -0.3348
35881SOL    HW111235   9.285   4.063   3.523  1.7762 -1.7614  0.1044
35881SOL    HW211236   9.140   4.020   3.526  0.7953  1.3545  1.0771
35882SOL     OW11237   9.590   1.823   0.930  0.8266 -0.0841 -0.4932
35882SOL    HW111238   9.566   1.765   0.858 -0.3831 -1.2478  0.7906
35882SOL    HW211239   9.663   1.780   0.974  0.3758 -0.3051  0.0517
35883SOL     OW11240   7.729   5.996   7.408 -0.3120  0.4333  0.3550
35883SOL    HW111241   7.787   5.928   7.375 -1.3285  0.6535 -2.1550
35883SOL    HW211242   7.763   6.077   7.370 -0.6583  0.9469  1.1167
35884SOL     OW11243   8.244   9.937   0.343 -1.1081  0.2276  0.2819
35884SOL    HW111244   8.224   9.929   0.250 -0.3581 -0.1183  0.1463
35884SOL    HW211245   8.184   9.876   0.386 -0.5009 -0.6525 -0.0985
35885SOL     OW11246   7.538   1.307   3.213  0.1950  0.1673  0.0408
35885SOL    HW111247   7.458   1.256   3.201 -0.2798  0.9930 -0.4321
35885SOL    HW211248   7.596   1.279   3.142 -0.3827  0.8677 -0.7239
35886SOL     OW11249   2.940   2.168   9.515 -0.6434 -0.2658 -0.3043
35886SOL    HW111250   3.020   2.117   9.526  0.3567  0.8767 -1.7738
35886SOL    HW211251   2.886   2.115   9.456  0.0306 -0.0460 -1.1503
35887SOL     OW11252   1.291   4.272   1.919 -0.5762  0.0901 -0.4197
35887SOL    HW111253   1.222   4.241   1.860 -2.4501  1.7454  0.7815
35887SOL    HW211254   1.276   4.366   1.926  1.0803  0.3043  0.8380
35888SOL     OW11255   4.288   1.781   1.540  0.2937  0.1275 -0.2898
35888SOL    HW111256   4.235   1.856   1.568  0.1917 -0.5772  1.4773
35888SOL    HW211257   4.378   1.809   1.554  0.2265 -0.8492  2.6313
35889SOL     OW11258   9.197   5.333   6.945 -0.0666  0.0154 -0.2046
35889SOL    HW111259   9.206   5.238   6.959  0.1553 -0.0254 -0.6365
35889SOL    HW211260   9.276   5.371   6.985 -0.4354  0.0734  0.4947
35890SOL     OW11261   3.156   1.962   3.152  0.0507 -0.5008 -0.1956
35890SOL    HW111262   3.215   2.005   3.090  0.1811 -1.1884 -0.5652
35890SOL    HW211263   3.069   1.998   3.132  0.3211  0.4416  0.2847
35891SOL     OW11264  10.275  10.356   4.965  0.7902 -0.0409 -0.0120
35891SOL    HW111265  10.363  10.350   4.929  0.9386  0.1884  0.3026
35891SOL    HW211266  10.260  10.449   4.976 -0.5323  0.1181 -2.5431
35892SOL     OW11267   2.464   1.824   7.850  0.6478  0.3121 -0.5445
35892SOL    HW111268   2.544   1.774   7.865  0.3974  0.3922  1.3407
35892SOL    HW211269   2.393   1.764   7.873  0.1818  0.4434 -1.5915
35893SOL     OW11270   4.890   2.168   3.615  0.1274  0.3200  0.1444
35893SOL    HW111271   4.937   2.142   3.536 -0.1871  0.8191 -0.2181
35893SOL    HW211272   4.809   2.208   3.582  0.7905  2.1490  0.6472
35894SOL     OW11273   5.621   3.637   9.586 -0.5999  0.2263 -0.3354
35894SOL    HW111274   5.637   3.611   9.495 -1.0244  1.7692 -0.8804
35894SOL    HW211275   5.573   3.563   9.624  0.4566 -0.8675 -1.0524
35895SOL     OW11276   4.670   2.587   4.581 -0.7098  0.1711  0.4456
35895SOL    HW111277   4.727   2.533   4.636 -0.0214 -0.4597 -0.8248
35895SOL    HW211278   4.707   2.577   4.493 -1.8879  0.9875 -0.1569
35896SOL     OW11279   8.815   3.693   7.030 -0.0898  0.4753  0.7546
35896SOL    HW111280   8.802   3.776   6.986  1.7445  0.2435 -0.2892
35896SOL    HW211281   8.807   3.627   6.961 -3.0124 -0.4286  1.7859
35897SOL     OW11282   1.090   8.584   1.278  0.7447  0.1253 -0.1002
35897SOL    HW111283   1.049   8.540   1.352  4.8319 -3.5071  0.3698
35897SOL    HW211284   1.027   8.574   1.206 -1.7590  0.5264  1.8992
35898SOL     OW11285   7.857  10.714   0.448 -0.6471  0.3899 -0.0131
35898SOL    HW111286   7.864  10.801   0.487 -2.2348 -0.2288  1.8630
35898SOL    HW211287   7.862  10.654   0.523 -0.2743 -1.1112 -1.1808
35899SOL     OW11288   5.778   3.649   8.953 -0.1861 -0.3097 -0.2980
35899SOL    HW111289   5.834   3.678   9.024 -0.8524 -0.6763  0.3890
35899SOL    HW211290   5.730   3.727   8.927  0.6320  0.0092 -0.8987
35900SOL     OW11291   2.001   9.159  10.897  0.1408  0.8695  0.0537
35900SOL    HW111292   2.086   9.117  10.910  0.4703  0.9681 -1.5639
35900SOL    HW211293   1.941   9.110  10.954  0.8139 -0.8385 -0.6178
35901SOL     OW11294   4.759   4.851  10.439  0.1622 -0.7194 -0.2273
35901SOL    HW111295   4.745   4.944  10.456 -1.6133 -1.0485  0.2467
35901SOL    HW211296   4.734   4.808  10.520 -0.1408 -1.7035 -0.8284
35902SOL     OW11297   3.894   9.431   8.972 -0.0575  0.0207  0.2011
35902SOL    HW111298   3.927   9.379   8.898 -0.9584 -0.4864  0.1286
35902SOL    HW211299   3.828   9.374   9.012 -0.4012  0.7571  0.6881
35903SOL     OW11300   2.412   6.726   2.393  0.2196 -0.0106 -0.3018
35903SOL    HW111301   2.440   6.815   2.412  1.4607 -0.2005 -1.1175
35903SOL    HW211302   2.337   6.711   2.451 -0.5305  1.8318 -0.7342
35904SOL     OW11303   0.903   9.329   2.414 -0.3067  0.0131 -0.2463
35904SOL    HW111304   0.858   9.245   2.404 -0.7353  0.2297 -0.1467
35904SOL    HW211305   0.983   9.307   2.461 -0.0450 -0.4528 -0.8885
35905SOL     OW11306   2.550   1.339   5.855  0.3318  0.2948  0.0637
35905SOL    HW111307   2.599   1.298   5.926  0.1998 -0.7373 -0.4188
35905SOL    HW211308   2.615   1.391   5.808  0.7986 -0.4328 -0.1070
35906SOL     OW11309   8.986   5.590  10.346 -0.1193 -0.2368  0.1001
35906SOL    HW111310   9.018   5.680  10.346  0.7136 -0.4714 -2.0713
35906SOL    HW211311   9.064   5.537  10.356 -0.6673 -0.7445  1.9354
35907SOL     OW11312  10.007   9.623   9.490 -0.2873 -0.0834 -0.0609
35907SOL    HW111313  10.012   9.674   9.570 -1.6655  3.1281 -1.8263
35907SOL    HW211314   9.920   9.582   9.493 -0.1621 -0.3239  0.2722
35908SOL     OW11315   5.767   0.113   0.299  0.2341  0.4277 -0.2450
35908SOL    HW111316   5.765   0.019   0.281  0.7814  0.5048 -0.7279
35908SOL    HW211317   5.675   0.140   0.293  0.2255  0.1728 -1.4801
35909SOL     OW11318   2.117   1.777   4.571 -0.0210 -0.2606  0.0140
35909SOL    HW111319   2.163   1.817   4.645  0.2783 -1.9123  0.7717
35909SOL    HW211320   2.025   1.801   4.583  0.0940 -0.1398  0.6622
35910SOL     OW11321  10.423   2.098   7.207  0.0506 -0.4205 -0.4241
35910SOL    HW111322  10.362   2.171   7.218  2.9081  1.9519  0.9565
35910SOL    HW211323  10.498   2.121   7.261  1.6128 -3.9109 -0.8286
35911SOL     OW11324   3.859   9.942   5.174 -0.6582 -0.9628  0.1352
35911SOL    HW111325   3.933   9.967   5.229 -1.7347 -1.1239  1.7116
35911SOL    HW211326   3.895   9.941   5.085  1.0092 -0.2245  0.7578
35912SOL     OW11327   0.588   8.239   3.926 -0.1911 -0.2335 -0.7001
35912SOL    HW111328   0.506   8.284   3.944  0.5299  1.1218 -0.6172
35912SOL    HW211329   0.631   8.293   3.859  1.1418 -0.2428  0.1046
35913SOL     OW11330   5.372   4.326   8.610  0.0140 -0.1513 -0.4507
35913SOL    HW111331   5.318   4.378   8.551  0.6450 -0.6809 -1.5324
35913SOL    HW211332   5.326   4.242   8.617 -0.2258  0.0194  0.0855
35914SOL     OW11333   2.549   4.647   8.265 -0.5258  0.2477  0.2744
35914SOL    HW111334   2.583   4.620   8.350  1.4309 -0.0434 -0.5381
35914SOL    HW211335   2.506   4.569   8.229  0.8869 -0.4248 -0.0385
35915SOL     OW11336   6.440   2.132   4.882 -0.2753 -0.2245 -0.3877
35915SOL    HW111337   6.462   2.138   4.975  1.2077 -0.4245 -0.7023
35915SOL    HW211338   6.366   2.191   4.871  1.6018  2.4495  0.3204
35916SOL     OW11339   1.334   0.276  10.699 -0.0058  0.4364 -0.7926
35916SOL    HW111340   1.395   0.296  10.628  1.4861 -3.0738 -0.7114
35916SOL    HW211341   1.370   0.322  10.775  1.7670 -0.3944 -1.0794
35917SOL     OW11342   7.315   6.389   1.540 -0.3076 -0.1663  0.1117
35917SOL    HW111343   7.373   6.428   1.475 -0.7041  0.2821  0.0285
35917SOL    HW211344   7.318   6.450   1.614  0.4161 -0.8450  0.6637
35918SOL     OW11345   6.206   0.147   3.325 -0.1621  0.7504 -0.3588
35918SOL    HW111346   6.251   0.201   3.390 -0.0601  0.7408 -0.4228
35918SOL    HW211347   6.134   0.106   3.374  0.6591 -0.2414  0.0436
35919SOL     OW11348   8.878   2.427   8.870 -0.0510 -0.1753 -0.4851
35919SOL    HW111349   8.791   2.445   8.906 -0.3441 -0.5701 -0.9939
35919SOL    HW211350   8.919   2.368   8.934 -0.3420 -0.3845 -0.4930
35920SOL     OW11351   9.387  10.467   9.499  0.1563  0.1332  0.8079
35920SOL    HW111352   9.354  10.413   9.428 -1.3228 -0.0076  1.5490
35920SOL    HW211353   9.481  10.450   9.502  0.0367 -0.7792 -0.3151
35921SOL     OW11354  10.283   7.694   4.636 -0.2659 -0.1100 -0.1449
35921SOL    HW111355  10.270   7.718   4.727  1.7941 -0.4148  0.2924
35921SOL    HW211356  10.215   7.630   4.617 -0.6338 -0.1423  1.2285
35922SOL     OW11357   1.567   5.324   9.671 -0.0242  0.1193  0.3106
35922SOL    HW111358   1.617   5.285   9.598 -2.4927  2.2921 -2.8277
35922SOL    HW211359   1.491   5.267   9.682 -0.0705  0.2373  0.6228
35923SOL     OW11360   3.922   8.522   2.372 -0.0264  0.6433 -0.2340
35923SOL    HW111361   3.845   8.533   2.427  1.1518 -0.3865  1.7540
35923SOL    HW211362   3.913   8.433   2.335  0.6905  0.0833  0.8849
35924SOL     OW11363   5.846   0.886  10.395 -0.0248 -0.0471 -0.2554
35924SOL    HW111364   5.838   0.966  10.342  1.6852 -1.3232 -2.6684
35924SOL    HW211365   5.913   0.908  10.460  2.3444 -0.1612 -2.5006
35925SOL     OW11366   1.073  10.283   5.164  0.1072 -0.3764 -0.4791
35925SOL    HW111367   1.143  10.224   5.190 -0.8056 -1.1881  0.2255
35925SOL    HW211368   1.071  10.349   5.234  0.2469 -0.2871 -0.5596
35926SOL     OW11369   9.250   7.434   8.212 -0.1069 -0.5865 -0.2700
35926SOL    HW111370   9.219   7.369   8.148  1.6209 -1.1022 -0.6313
35926SOL    HW211371   9.232   7.518   8.171 -0.9386 -0.8554 -0.4914
35927SOL     OW11372   2.276   2.618   6.295 -0.1480 -0.1742 -0.6129
35927SOL    HW111373   2.349   2.562   6.269 -0.1189 -0.8455  0.8125
35927SOL    HW211374   2.198   2.564   6.282 -0.4439  0.5857 -2.2557
35928SOL     OW11375   7.488   6.478   9.750  0.5734 -0.0986 -0.1866
35928SOL    HW111376   7.400   6.467   9.786  0.5738 -1.5664 -0.5541
35928SOL    HW211377   7.485   6.431   9.666  1.0186  1.9056 -1.3954
35929SOL     OW11378   4.460   1.098   0.380 -0.2934 -0.4989 -0.2987
35929SOL    HW111379   4.507   1.056   0.309  0.8526  0.6225 -0.2268
35929SOL    HW211380   4.504   1.182   0.392 -0.7631 -0.4628  1.4124
35930SOL     OW11381   9.145   9.860   0.224  0.5220  0.3597 -0.2045
35930SOL    HW111382   9.120   9.913   0.148  0.6625  0.8200  0.0648
35930SOL    HW211383   9.106   9.774   0.208  1.9495 -0.0806 -1.6227
35931SOL     OW11384   3.807  10.643   0.584  0.0709  0.1394  0.9854
35931SOL    HW111385   3.805  10.738   0.570  2.6922  0.2155  0.7139
35931SOL    HW211386   3.773  10.606   0.502 -1.3214  0.8117  1.2310
35932SOL     OW11387   4.960  10.884   4.982  0.0804 -0.1516 -0.6319
35932SOL    HW111388   4.886  10.869   5.041  0.9960 -1.3231  0.2724
35932SOL    HW211389   5.016  10.808   4.994  0.8026  0.0736 -2.2831
35933SOL     OW11390   6.583   9.818   8.933 -0.3025 -0.1431  0.6411
35933SOL    HW111391   6.665   9.862   8.951 -0.1394 -0.8726  1.7490
35933SOL    HW211392   6.569   9.760   9.008 -0.2287 -2.3780 -0.9843
35934SOL     OW11393   6.930   9.358   0.368 -0.0081 -0.1488 -0.6125
35934SOL    HW111394   6.976   9.317   0.296 -1.9946 -0.1123 -1.9832
35934SOL    HW211395   6.895   9.285   0.420 -0.3011 -0.1917 -0.8672
35935SOL     OW11396   8.145  10.944  10.340 -0.1906 -0.5278 -0.6023
35935SOL    HW111397   8.178  10.945  10.430  0.4250 -1.5470 -0.8017
35935SOL    HW211398   8.084  10.871  10.337 -0.9726  0.1092 -0.7724
35936SOL     OW11399  11.003   6.988   1.593 -0.1042 -0.1350 -0.4454
35936SOL    HW111400  11.076   7.029   1.547  0.1643 -1.6852 -1.4988
35936SOL    HW211401  10.949   6.951   1.523 -1.4471  0.2204  0.3562
35937SOL     OW11402   3.172   1.902   2.218  0.6076  0.1417  0.0640
35937SOL    HW111403   3.097   1.912   2.276 -0.0981  1.9101 -1.0667
35937SOL    HW211404   3.146   1.835   2.156 -0.2048  0.9729 -0.5197
35938SOL     OW11405   9.200   2.791   6.118 -0.1258 -0.3869 -0.4694
35938SOL    HW111406   9.226   2.721   6.178 -1.0676 -0.0219  0.4097
35938SOL    HW211407   9.113   2.765   6.088 -0.2510  0.1332 -0.5588
35939SOL     OW11408   7.801   5.195   9.330 -0.0577 -0.0367  0.0402
35939SOL    HW111409   7.717   5.241   9.335 -0.7955 -1.1849 -1.1672
35939SOL    HW211410   7.864   5.262   9.304 -0.7820  0.6451  0.0022
35940SOL     OW11411   9.219   3.946   2.005  0.9679 -0.5177  0.2904
35940SOL    HW111412   9.201   4.005   2.077  0.4459  0.1741 -0.3956
35940SOL    HW211413   9.313   3.956   1.988  0.8379  0.3062  0.0192
35941SOL     OW11414   8.480   7.388   7.486  0.3063 -0.1234 -0.5443
35941SOL    HW111415   8.551   7.452   7.482  0.8443 -0.7738 -3.1521
35941SOL    HW211416   8.512   7.313   7.436 -1.3281 -1.3949  0.2118
35942SOL     OW11417   4.882   2.784   9.655 -0.6796 -0.0371  0.6287
35942SOL    HW111418   4.796   2.794   9.615  0.1099 -0.9300 -1.4653
35942SOL    HW211419   4.879   2.700   9.701 -0.3110 -1.1780 -1.3214
35943SOL     OW11420   6.005  10.469   9.039  0.1703 -0.5106 -0.2488
35943SOL    HW111421   5.953  10.529   8.985 -0.6950 -0.1049  0.9807
35943SOL    HW211422   5.945  10.443   9.109  1.3736 -0.7014  0.7437
35944SOL     OW11423   5.101   2.237   4.252  0.3182  0.2983 -0.2484
35944SOL    HW111424   5.015   2.263   4.218  0.6607 -0.7905 -2.0876
35944SOL    HW211425   5.086   2.149   4.288  0.8973 -0.5006 -1.8550
35945SOL     OW11426   6.209   8.931   3.420  0.0248 -0.3899 -0.3029
35945SOL    HW111427   6.237   8.972   3.502  0.5832 -1.8084  0.2362
35945SOL    HW211428   6.115   8.948   3.416  0.1827  0.6436  0.0641
35946SOL     OW11429   5.956   8.362   2.405  0.7027  0.6265 -0.7534
35946SOL    HW111430   5.897   8.303   2.453  0.9398  1.7036  0.9455
35946SOL    HW211431   6.042   8.320   2.410  0.6697  0.5875 -0.5145
35947SOL     OW11432   3.164   5.404   4.327  0.5587 -0.0085  0.1110
35947SOL    HW111433   3.163   5.414   4.231  0.4824 -0.7941  0.0227
35947SOL    HW211434   3.255   5.419   4.352  0.5815  0.1873 -0.0870
35948SOL     OW11435   5.133  10.018   6.218 -0.4419 -0.2227 -0.2558
35948SOL    HW111436   5.212  10.072   6.216 -0.3503 -0.3769 -0.7544
35948SOL    HW211437   5.061  10.080   6.212 -0.4099  0.0228  1.3771
35949SOL     OW11438   3.614   3.533   4.661 -0.5277  0.2471  0.5298
35949SOL    HW111439   3.694   3.522   4.610 -0.3847 -0.7079  0.9310
35949SOL    HW211440   3.553   3.575   4.601  0.7215  2.4099  0.6775
35950SOL     OW11441   3.334   1.796   8.922 -0.5744  1.0208  0.3084
35950SOL    HW111442   3.252   1.757   8.890  0.6069 -0.6930 -0.8062
35950SOL    HW211443   3.402   1.749   8.874  1.0745  2.3505  1.2799
35951SOL     OW11444   5.540   7.018  10.249  0.5126  0.1526  0.3862
35951SOL    HW111445   5.574   7.084  10.189  0.3856 -1.1600 -1.2256
35951SOL    HW211446   5.446   7.013  10.228  0.1288  0.7823  1.8397
35952SOL     OW11447   2.638   4.708   0.398 -0.3596  0.6642  0.4743
35952SOL    HW111448   2.671   4.621   0.419 -3.0298 -0.6384 -0.1883
35952SOL    HW211449   2.669   4.725   0.310 -0.6553 -0.1111  0.2084
35953SOL     OW11450   8.533   2.269   3.836  0.9738  0.7245  0.1898
35953SOL    HW111451   8.516   2.357   3.871 -1.9158  0.3436  0.0396
35953SOL    HW211452   8.447   2.239   3.806  1.8260 -2.2765  0.4518
35954SOL     OW11453   6.681   3.380   4.752 -0.2410 -0.0634  0.2041
35954SOL    HW111454   6.746   3.342   4.693  0.2663  0.8412  0.1665
35954SOL    HW211455   6.629   3.305   4.782  1.9096 -1.1112  1.5970
35955SOL     OW11456  10.844   6.663   5.733 -0.6371  0.0888  0.3700
35955SOL    HW111457  10.823   6.570   5.745 -0.5240  0.1467  1.0143
35955SOL    HW211458  10.770   6.697   5.681  0.2987 -0.7930 -1.6560
35956SOL     OW11459   1.415   4.874   5.856  0.2805  0.0657  0.4082
35956SOL    HW111460   1.320   4.882   5.862  0.2995  0.0921  0.6613
35956SOL    HW211461   1.433   4.782   5.877  0.3645  0.2138  0.9902
35957SOL     OW11462   1.776   4.508   6.111  0.0181 -0.3836  0.5307
35957SOL    HW111463   1.818   4.592   6.094  1.7844 -1.3396 -0.1624
35957SOL    HW211464   1.846   4.452   6.144  0.2297 -2.9785 -3.5188
35958SOL     OW11465   2.368   2.420   2.596 -0.4680 -0.2082 -0.0201
35958SOL    HW111466   2.326   2.342   2.558  0.2658 -0.4011 -0.4697
35958SOL    HW211467   2.341   2.420   2.687 -1.3245 -0.4030 -0.2646
35959SOL     OW11468   6.912   9.624   9.989  0.6174  0.4001 -0.7805
35959SOL    HW111469   6.858   9.627  10.067 -0.2091  0.8856 -1.3511
35959SOL    HW211470   6.851   9.637   9.917  1.4206  0.4173 -1.4835
35960SOL     OW11471   0.373   7.748   1.155  0.2802  0.3433  0.7173
35960SOL    HW111472   0.330   7.663   1.167  1.4618 -0.1019  1.9776
35960SOL    HW211473   0.312   7.811   1.195 -0.2621  0.0166  0.4267
35961SOL     OW11474   2.971   1.003   2.077 -0.3786  0.2787  0.3109
35961SOL    HW111475   2.895   0.969   2.030 -0.4149  0.6665  0.0874
35961SOL    HW211476   2.937   1.024   2.165 -0.4931  0.2947  0.2635
35962SOL     OW11477   8.267   7.721   8.882  0.7893 -0.2867 -0.0907
35962SOL    HW111478   8.175   7.697   8.891  0.3538  1.0703 -0.6372
35962SOL    HW211479   8.315   7.650   8.925 -0.5276 -0.7180  0.7260
35963SOL     OW11480   4.083   0.267   7.790 -0.0644  0.2232 -0.4992
35963SOL    HW111481   4.044   0.222   7.866  1.3305  1.3555  0.9452
35963SOL    HW211482   4.106   0.196   7.730  1.0270 -0.9374  1.2029
35964SOL     OW11483   3.926   4.553   0.038  0.1694 -0.5728 -0.2977
35964SOL    HW111484   3.986   4.528  -0.033  2.3473  1.9202  0.5169
35964SOL    HW211485   3.891   4.637   0.011 -0.0469 -0.2489  0.9491
35965SOL     OW11486   7.371   2.361  10.433  0.0440 -0.3377  0.0090
35965SOL    HW111487   7.325   2.280  10.456  0.0699 -0.4966 -0.4780
35965SOL    HW211488   7.441   2.333  10.375  0.1680  0.0142 -0.0134
35966SOL     OW11489   0.069   3.034   7.956 -0.6859  0.0639 -0.0403
35966SOL    HW111490   0.052   3.068   8.044  1.4708  0.2869  0.3338
35966SOL    HW211491   0.161   3.009   7.957 -0.8618 -0.8400 -1.9634
35967SOL     OW11492   3.783   3.768   7.661 -0.0295 -0.0138 -0.2580
35967SOL    HW111493   3.828   3.842   7.620  0.6494  0.6380  1.5983
35967SOL    HW211494   3.711   3.808   7.710 -0.1788 -0.6638  0.0610
35968SOL     OW11495  10.938   6.494   4.939 -0.3757 -0.7548  0.3665
35968SOL    HW111496  10.908   6.446   5.017 -1.2039 -1.8975 -0.6209
35968SOL    HW211497  11.019   6.451   4.914  0.0309 -0.2184  0.7175
35969SOL     OW11498  10.648   2.481  11.043 -0.5721 -0.0103  0.4265
35969SOL    HW111499  10.571   2.433  11.074 -0.8901 -0.8152 -1.4247
35969SOL    HW211500  10.616   2.531  10.968  0.6779 -0.3440 -0.3633
35970SOL     OW11501   0.231   4.829   8.078 -0.0506  0.7504 -0.5639
35970SOL    HW111502   0.257   4.853   8.167  2.6462  1.5123 -1.4590
35970SOL    HW211503   0.260   4.903   8.025 -0.7307 -0.1290 -2.2097
35971SOL     OW11504   0.011   6.482   8.274 -0.1517 -0.6047  0.4575
35971SOL    HW111505   0.106   6.469   8.278 -0.1503 -0.8913 -0.3551
35971SOL    HW211506  -0.024   6.397   8.247 -0.4714  0.0175 -1.1727
35972SOL     OW11507   9.914   0.465   6.517  0.5577 -0.4874 -0.3894
35972SOL    HW111508   9.857   0.540   6.537  1.6025 -0.4127  2.8554
35972SOL    HW211509   9.853   0.391   6.507 -0.2878 -0.0787  1.2893
35973SOL     OW11510   4.172   2.324  10.887 -0.2858 -0.0263 -0.0871
35973SOL    HW111511   4.108   2.394  10.879  0.2027  0.4102 -0.2812
35973SOL    HW211512   4.204   2.330  10.977 -1.5229 -1.1479  0.4462
35974SOL     OW11513   0.239  10.623   0.640  0.0246 -0.4042 -0.2517
35974SOL    HW111514   0.282  10.685   0.581  0.6078 -0.2635  0.3186
35974SOL    HW211515   0.299  10.549   0.645 -0.6336 -1.0036 -0.8705
35975SOL     OW11516   2.877   7.465  10.146 -0.4165 -0.3492  0.1388
35975SOL    HW111517   2.970   7.459  10.125 -0.5224 -0.3756 -0.3288
35975SOL    HW211518   2.863   7.400  10.215 -0.3161 -1.1594 -0.5847
35976SOL     OW11519   4.200   6.092   9.373  0.0589 -0.2164  0.2729
35976SOL    HW111520   4.213   6.024   9.307 -1.6378 -0.6392  0.3177
35976SOL    HW211521   4.188   6.173   9.323 -0.8775 -0.4767  0.0623
35977SOL     OW11522   5.972   1.100   3.601  0.1794 -0.8883  0.0628
35977SOL    HW111523   5.920   1.095   3.682  1.3467  0.9575  0.9888
35977SOL    HW211524   6.051   1.050   3.620  1.3350  1.1263  0.8408
35978SOL     OW11525   2.661   1.269   0.143  0.0882 -0.0567  0.1198
35978SOL    HW111526   2.721   1.337   0.113  0.2479 -0.4130 -0.3889
35978SOL    HW211527   2.694   1.244   0.229  0.1894  0.3180  0.1905
35979SOL     OW11528   8.577   9.741   4.565 -0.1209 -0.4398  0.4076
35979SOL    HW111529   8.657   9.773   4.524  0.2841 -0.6084  1.0560
35979SOL    HW211530   8.517   9.727   4.492 -0.1470  1.3030  0.0437
35980SOL     OW11531   4.889   9.437   9.068  0.1980  0.7586 -0.0927
35980SOL    HW111532   4.879   9.474   9.155  0.5978 -0.2116  0.3779
35980SOL    HW211533   4.809   9.462   9.022 -0.2273  0.8751  0.7014
35981SOL     OW11534   1.091   3.371   6.565  0.3324  0.4411  0.0845
35981SOL    HW111535   1.078   3.290   6.614 -0.0351 -1.5788 -3.0054
35981SOL    HW211536   1.003   3.395   6.534  0.6169  1.2767 -0.1003
35982SOL     OW11537   1.762   0.372   9.087  0.3631  0.0066  0.3502
35982SOL    HW111538   1.828   0.427   9.129  0.3595  0.9987 -0.8926
35982SOL    HW211539   1.805   0.337   9.010 -0.2533 -0.1506  0.0687
35983SOL     OW11540   7.820   6.397   4.654  0.7333  0.5016 -0.0294
35983SOL    HW111541   7.865   6.423   4.734 -0.0888 -0.0258  0.6278
35983SOL    HW211542   7.764   6.472   4.633  0.7459  0.5361  0.0571
35984SOL     OW11543   6.464   3.337   1.614  0.5077 -0.1393  0.2105
35984SOL    HW111544   6.475   3.411   1.553 -2.6323 -0.1088 -0.5098
35984SOL    HW211545   6.506   3.263   1.570  0.6271  0.4766 -0.7456
35985SOL     OW11546   5.563   3.856   0.361 -0.1589 -0.5675  0.0785
35985SOL    HW111547   5.503   3.790   0.326 -1.0866  0.7001 -0.8264
35985SOL    HW211548   5.619   3.879   0.287 -0.6668  0.5415  0.0191
35986SOL     OW11549  10.052   0.537   1.097  0.0240 -0.6383 -0.5962
35986SOL    HW111550   9.958   0.536   1.078  0.1293 -0.8033 -1.1218
35986SOL    HW211551  10.062   0.604   1.165 -0.6252 -1.3921  0.2690
35987SOL     OW11552   8.094   6.355   1.102  0.0008  0.5957 -0.7909
35987SOL    HW111553   8.171   6.370   1.158 -0.3687  0.3135 -0.1983
35987SOL    HW211554   8.053   6.440   1.093 -0.4122  0.5063  0.0853
35988SOL     OW11555   8.399   0.157   3.828  0.4286  0.0681  0.4198
35988SOL    HW111556   8.353   0.082   3.866 -0.6379  0.7425  0.5047
35988SOL    HW211557   8.393   0.225   3.895  3.0438 -0.2950  1.1640
35989SOL     OW11558  10.579   0.389   2.054  0.5262  0.2292 -0.9981
35989SOL    HW111559  10.616   0.312   2.096 -0.2200 -0.1927 -1.0842
35989SOL    HW211560  10.516   0.423   2.118 -0.3194 -0.1809 -1.5904
35990SOL     OW11561   8.614  10.016   3.462  1.2181  0.3200 -0.2430
35990SOL    HW111562   8.563  10.045   3.537  1.1191  1.9066 -0.8850
35990SOL    HW211563   8.654  10.096   3.428  1.6908 -0.4461 -1.5568
35991SOL     OW11564   3.360   7.581   8.887 -0.5135 -0.3221  0.1113
35991SOL    HW111565   3.438   7.541   8.851  0.5814 -0.2721  2.2681
35991SOL    HW211566   3.356   7.667   8.846  0.4962 -0.3803 -0.1323
35992SOL     OW11567   1.075   4.751   8.350 -0.8030 -0.0017 -0.0965
35992SOL    HW111568   1.078   4.781   8.441  0.5519  1.0218 -0.4558
35992SOL    HW211569   1.021   4.672   8.353  0.2457 -0.6986  1.7932
35993SOL     OW11570   0.554   5.920  10.326 -0.0459 -0.0960  0.5373
35993SOL    HW111571   0.615   5.855  10.359 -0.8781 -0.7340  0.8437
35993SOL    HW211572   0.501   5.944  10.402  0.0892  0.7693  0.3736
35994SOL     OW11573  10.643   3.296   9.928 -0.4174 -0.0527 -0.1935
35994SOL    HW111574  10.606   3.380   9.901  2.9470  1.1520 -1.6367
35994SOL    HW211575  10.679   3.259   9.847  1.2697 -1.1570  0.9899
35995SOL     OW11576   6.080   1.315   9.650  0.0968  0.1650 -0.2632
35995SOL    HW111577   6.069   1.410   9.644  1.7974  0.3159 -1.8973
35995SOL    HW211578   6.107   1.300   9.741 -0.3642  1.2017  0.0599
35996SOL     OW11579  10.176   1.962   2.373 -0.2385 -0.2329  0.1554
35996SOL    HW111580  10.164   2.050   2.407  1.3628  1.0763 -2.3822
35996SOL    HW211581  10.266   1.939   2.398 -0.8804 -1.5306  1.4541
35997SOL     OW11582   0.165   3.071   6.028  0.1614  0.7314 -0.2725
35997SOL    HW111583   0.249   3.060   5.985 -0.4907 -1.7678 -1.0734
35997SOL    HW211584   0.186   3.079   6.121  1.3152  0.9115 -0.5380
35998SOL     OW11585   6.488   4.893   5.363 -0.1509 -0.2633  0.3708
35998SOL    HW111586   6.549   4.851   5.301 -0.1564 -1.4663  1.1484
35998SOL    HW211587   6.539   4.965   5.400 -0.5126  1.2051 -1.8193
35999SOL     OW11588   4.350   2.144   8.116 -0.3812 -0.2076 -0.2618
35999SOL    HW111589   4.429   2.112   8.160 -0.4186  0.6887  0.4872
35999SOL    HW211590   4.296   2.065   8.103  0.8316 -0.9026 -1.2358
36000SOL     OW11591   0.542  10.131   4.125 -0.5875 -0.2732 -0.0610
36000SOL    HW111592   0.624  10.145   4.077  0.0011  2.2149  1.4492
36000SOL    HW211593   0.475  10.170   4.070 -0.2445  0.5398  0.0721
36001SOL     OW11594   8.513   5.497   8.637  0.7964  0.2916 -0.3537
36001SOL    HW111595   8.457   5.433   8.591 -0.2256  1.5685 -0.9622
36001SOL    HW211596   8.582   5.444   8.677 -0.3238 -1.2545 -0.3610
36002SOL     OW11597   7.400   8.043   1.770 -0.2245 -0.2348 -0.4667
36002SOL    HW111598   7.365   7.965   1.813  0.6440 -0.8982 -0.9416
36002SOL    HW211599   7.324   8.083   1.728 -0.4735 -1.5221 -1.2977
36003SOL     OW11600   3.226   0.629   6.256  0.0310 -0.1182 -0.0219
36003SOL    HW111601   3.255   0.719   6.242  0.0847  0.1295  1.4960
36003SOL    HW211602   3.255   0.581   6.178  0.6433  1.0265 -0.5086
36004SOL     OW11603  10.893   8.774   5.964  0.0277 -0.0180  0.2967
36004SOL    HW111604  10.812   8.756   5.916  0.1832 -4.0532  1.1426
36004SOL    HW211605  10.958   8.715   5.925  1.9735  1.4282  1.1706
36005SOL     OW11606   3.549   5.485   5.954  0.3000 -0.3684  0.5685
36005SOL    HW111607   3.486   5.414   5.969  0.0974 -0.3636 -0.2127
36005SOL    HW211608   3.508   5.540   5.887  1.4766 -0.8071 -0.5561
36006SOL     OW11609   2.161  10.960   0.754  0.6475  0.0372  0.3530
36006SOL    HW111610   2.137  10.929   0.666  1.3952 -1.2428  0.5772
36006SOL    HW211611   2.256  10.945   0.759  0.4157 -1.1427  1.8339
36007SOL     OW11612   2.547   3.638   0.481  0.0947 -0.7063 -0.1503
36007SOL    HW111613   2.523   3.666   0.393  0.8786 -0.2714 -0.2336
36007SOL    HW211614   2.640   3.619   0.476 -0.1963 -2.3498  0.1613
36008SOL     OW11615  10.975   9.246   8.458  0.1920  0.1914 -0.3672
36008SOL    HW111616  11.009   9.264   8.370  1.3369 -0.9057 -0.1830
36008SOL    HW211617  10.963   9.151   8.460  1.2904  0.0517  1.0240
36009SOL     OW11618   1.345   9.825   2.106 -0.6889 -0.4065  0.0800
36009SOL    HW111619   1.402   9.770   2.160  1.8224  1.3209 -0.6492
36009SOL    HW211620   1.266   9.772   2.094 -0.7346 -1.5375  4.0035
36010SOL     OW11621   7.842   0.336   8.523 -0.4845  0.7254 -0.2550
36010SOL    HW111622   7.787   0.279   8.470  0.8748 -0.1950 -0.7290
36010SOL    HW211623   7.886   0.278   8.584  0.8911  1.2321 -0.7103
36011SOL     OW11624   8.507   0.147   9.683  0.1863  0.5039 -0.2695
36011SOL    HW111625   8.466   0.084   9.742  2.1173 -1.2178 -0.6834
36011SOL    HW211626   8.457   0.141   9.602 -0.1496  0.1269 -0.0331
36012SOL     OW11627   0.543   1.325   0.279  0.0341  0.2013 -0.5877
36012SOL    HW111628   0.569   1.380   0.353  1.4184 -2.3046  0.9472
36012SOL    HW211629   0.623   1.278   0.256 -1.2107 -1.6481 -1.3309
36013SOL     OW11630   4.254   2.557   6.771  0.0241  0.3942  0.2360
36013SOL    HW111631   4.235   2.635   6.824  0.5560  1.0873 -0.5618
36013SOL    HW211632   4.172   2.541   6.723 -0.9787 -1.1440  2.3145
36014SOL     OW11633   1.960   2.641  10.546 -0.7145 -0.6508  0.1444
36014SOL    HW111634   2.039   2.587  10.541 -0.2273  0.0449  0.3569
36014SOL    HW211635   1.890   2.577  10.561  0.1073 -1.0769  2.6252
36015SOL     OW11636   8.462   1.292  10.518  0.2436 -0.6049 -0.1686
36015SOL    HW111637   8.461   1.218  10.578  1.3850 -0.8515 -0.4405
36015SOL    HW211638   8.553   1.302  10.493 -0.2609 -0.9871 -2.4289
36016SOL     OW11639   8.097   7.862  10.897 -0.1362 -0.5855 -0.1336
36016SOL    HW111640   8.182   7.906  10.896 -0.1276 -0.5865 -1.4863
36016SOL    HW211641   8.049   7.903  10.825 -0.8672 -1.3912 -0.1148
36017SOL     OW11642   4.559   0.885   0.168 -0.2999  0.5477  0.0668
36017SOL    HW111643   4.534   0.801   0.206  0.4073  1.2020  2.0705
36017SOL    HW211644   4.476   0.933   0.159 -0.5594  0.1003  0.0320
36018SOL     OW11645   3.938   8.607   5.266  0.2711 -0.1598  0.5077
36018SOL    HW111646   4.021   8.654   5.260  0.3124 -0.1007  1.3451
36018SOL    HW211647   3.882   8.647   5.199  0.4885  0.7168  0.8311
36019SOL     OW11648   2.009  11.077   9.750  0.9739  0.1383  0.2114
36019SOL    HW111649   1.961  11.099   9.830  1.4530  1.2581  0.2057
36019SOL    HW211650   1.941  11.068   9.683  0.5777 -0.7148  0.7082
36020SOL     OW11651   9.990   3.420   1.259  0.3809  0.2823 -0.7768
36020SOL    HW111652  10.066   3.380   1.302  1.7388  2.4244 -1.0341
36020SOL    HW211653   9.915   3.391   1.311  1.3735 -1.5692 -0.2610
36021SOL     OW11654   7.184  10.258   3.732 -0.2559  0.3191  0.1896
36021SOL    HW111655   7.157  10.171   3.705 -0.0432  0.0030  0.9794
36021SOL    HW211656   7.156  10.265   3.824 -0.1718  1.0371  0.1716
36022SOL     OW11657   9.526  10.957   7.467  0.3392 -0.4357  0.3364
36022SOL    HW111658   9.509  11.043   7.506  0.9016  0.6078 -1.6075
36022SOL    HW211659   9.442  10.911   7.476 -0.8173  1.2788 -0.8905
36023SOL     OW11660   0.452  11.106   5.040 -0.1818  0.2639  0.0317
36023SOL    HW111661   0.427  11.031   5.094  1.1176 -1.4475 -1.5928
36023SOL    HW211662   0.541  11.085   5.010  0.1598  2.4074 -0.5954
36024SOL     OW11663   1.484   2.957   1.296  0.1333 -0.0287  0.5476
36024SOL    HW111664   1.419   2.965   1.366 -0.4006  0.3684  0.0094
36024SOL    HW211665   1.543   2.888   1.327 -0.5579 -0.4229  1.0308
36025SOL     OW11666   2.409   7.996   4.910  0.2232  0.0563 -0.6776
36025SOL    HW111667   2.399   8.039   4.995  0.0488  0.6841 -1.0142
36025SOL    HW211668   2.428   7.905   4.932  2.5231  0.6621  0.0580
36026SOL     OW11669   3.204   3.877   2.208 -0.5011 -0.2582  1.0384
36026SOL    HW111670   3.112   3.867   2.182 -0.6427  1.0946  0.9214
36026SOL    HW211671   3.205   3.858   2.302 -1.0111  0.1865  1.1447
36027SOL     OW11672   1.872   3.183   9.783 -0.0220  0.0634 -0.5061
36027SOL    HW111673   1.956   3.217   9.813  0.0845  0.8464 -1.6268
36027SOL    HW211674   1.807   3.234   9.832  0.1497  1.1940 -1.4070
36028SOL     OW11675   5.446  10.030   2.467 -0.0045 -0.0434 -0.3766
36028SOL    HW111676   5.438  10.084   2.389 -1.3771  1.0624  0.4820
36028SOL    HW211677   5.399   9.949   2.445 -1.1237  0.6034 -0.4193
36029SOL     OW11678   4.867   2.437   4.706  0.1703 -0.2203  0.4088
36029SOL    HW111679   4.953   2.415   4.671 -0.3807  0.8994 -1.8114
36029SOL    HW211680   4.880   2.437   4.801  2.5507 -0.3180  0.1541
36030SOL     OW11681   8.949   9.847   5.975 -0.0326  0.3665 -0.6014
36030SOL    HW111682   8.978   9.756   5.987 -0.7299 -0.0591 -2.0075
36030SOL    HW211683   9.014   9.886   5.917  1.9565  1.7149  2.2581
36031SOL     OW11684   8.707   5.547   9.273 -0.1900  0.2984 -0.4655
36031SOL    HW111685   8.752   5.523   9.192 -0.8325 -1.4447 -0.3559
36031SOL    HW211686   8.614   5.547   9.249 -0.3070  0.9756 -0.0110
36032SOL     OW11687   8.264   5.295   2.183  0.0975  0.0332  0.3869
36032SOL    HW111688   8.242   5.248   2.103  0.3341 -0.1299  0.4175
36032SOL    HW211689   8.292   5.228   2.244  0.4739  0.2161  0.4182
36033SOL     OW11690   6.967   7.348   2.006  0.2390 -0.0932  0.0865
36033SOL    HW111691   6.991   7.417   1.945  1.2895  0.8654  1.5089
36033SOL    HW211692   6.915   7.393   2.073  1.6109 -0.4694  1.4629
36034SOL     OW11693   7.578   2.787   2.169  0.1037 -0.2215 -0.3388
36034SOL    HW111694   7.499   2.733   2.162  0.1962 -0.4501  0.2954
36034SOL    HW211695   7.547   2.877   2.172 -0.0915 -0.2743 -0.7692
36035SOL     OW11696   8.999   5.216   4.774  0.1562  0.1380  0.1030
36035SOL    HW111697   8.909   5.196   4.800 -0.6825  1.4365 -1.6042
36035SOL    HW211698   9.032   5.271   4.845 -0.3823 -0.3668  0.7588
36036SOL     OW11699  11.028   8.438   1.428  0.1602 -0.5108  0.5719
36036SOL    HW111700  11.119   8.432   1.398  0.0608 -0.9368  0.3523
36036SOL    HW211701  11.027   8.515   1.484  0.3100  0.4207 -0.6603
36037SOL     OW11702   9.809   5.962   1.332  0.0260 -0.1950 -0.3010
36037SOL    HW111703   9.832   5.884   1.383 -0.5151  0.5961  1.2413
36037SOL    HW211704   9.890   5.986   1.286  0.4228 -1.1844 -0.1334
36038SOL     OW11705   6.468   5.616   0.685  0.2441 -0.3061 -0.3620
36038SOL    HW111706   6.519   5.672   0.744  0.6819  1.4275 -2.2755
36038SOL    HW211707   6.390   5.592   0.736  0.2287  1.7431  0.6695
36039SOL     OW11708   3.300   7.409   0.777 -0.3460 -0.0144  0.1201
36039SOL    HW111709   3.278   7.465   0.851  1.8607  0.6201  0.3712
36039SOL    HW211710   3.390   7.434   0.754 -0.4847 -1.1572 -1.8907
36040SOL     OW11711   5.913   0.372   6.866 -0.2666 -0.4118 -0.0391
36040SOL    HW111712   5.923   0.337   6.955  3.2186  0.2217 -0.0313
36040SOL    HW211713   5.926   0.296   6.809 -1.4792 -0.6320 -0.0420
36041SOL     OW11714   2.599   5.250  10.221 -0.2636  0.1372 -0.5651
36041SOL    HW111715   2.609   5.176  10.281  2.5685  0.9978  0.1887
36041SOL    HW211716   2.518   5.292  10.248 -1.5199 -2.1609 -0.4709
36042SOL     OW11717   7.815   4.695   6.256  0.2085 -0.4314 -0.6270
36042SOL    HW111718   7.833   4.613   6.211  1.2480  0.6938 -2.3952
36042SOL    HW211719   7.732   4.725   6.221 -1.0793 -1.4956  1.3023
36043SOL     OW11720   9.309   2.514   8.787 -0.3960 -0.1518  0.1603
36043SOL    HW111721   9.256   2.512   8.867 -1.1512 -1.2412 -0.3364
36043SOL    HW211722   9.287   2.431   8.743  2.5458 -1.1994  0.4675
36044SOL     OW11723   2.263   7.814   8.699  0.3065  0.1529 -0.1473
36044SOL    HW111724   2.294   7.747   8.638  0.9286  1.3403 -1.1619
36044SOL    HW211725   2.228   7.883   8.644 -0.3476  0.6708  0.8881
36045SOL     OW11726   4.026   6.801   0.477  0.4018  0.0221 -0.1701
36045SOL    HW111727   4.074   6.838   0.551  1.8504 -0.2914 -0.9046
36045SOL    HW211728   3.942   6.773   0.513  1.3967 -0.8986  1.5554
36046SOL     OW11729   7.478   6.432   5.668  0.2998 -0.4890  0.7004
36046SOL    HW111730   7.518   6.363   5.721  0.3899 -0.4649  0.6635
36046SOL    HW211731   7.459   6.502   5.730  1.5169  0.0370  0.5091
36047SOL     OW11732   7.452  10.078   8.307 -0.4192 -0.1276  0.2706
36047SOL    HW111733   7.481  10.061   8.217 -0.1548  0.4646  0.2352
36047SOL    HW211734   7.516  10.033   8.362  0.2467  0.6854  0.1805
36048SOL     OW11735   9.210   7.907   6.206  0.6905  0.1951 -0.5205
36048SOL    HW111736   9.186   7.993   6.241 -0.2877  0.4844 -1.8277
36048SOL    HW211737   9.301   7.894   6.234  1.1183  2.0139 -0.9488
36049SOL     OW11738   6.069   9.443   8.401 -0.1874 -0.3860 -0.1837
36049SOL    HW111739   5.992   9.481   8.444  0.4481 -0.9242  1.5441
36049SOL    HW211740   6.126   9.518   8.383 -0.6815 -0.0958 -0.5624
36050SOL     OW11741   7.830   5.408   2.498 -0.0010  0.5646 -0.6980
36050SOL    HW111742   7.923   5.390   2.483  0.5882  3.4775 -1.0547
36050SOL    HW211743   7.820   5.408   2.593  0.9446  2.5297 -0.5587
36051SOL     OW11744   5.332   0.498   4.292  0.4725 -0.2639 -0.4249
36051SOL    HW111745   5.379   0.560   4.348  0.9638 -0.4429 -0.6331
36051SOL    HW211746   5.401   0.445   4.253 -0.0058 -1.9979  0.9743
36052SOL     OW11747   0.789   8.245   9.074 -0.4156 -0.1302 -0.1363
36052SOL    HW111748   0.819   8.334   9.061 -0.2587 -0.0119  0.8964
36052SOL    HW211749   0.862   8.190   9.046 -0.4281  0.0719 -0.5654
36053SOL     OW11750   5.905   9.871   4.584  0.2015 -0.5981  0.0276
36053SOL    HW111751   5.963   9.908   4.517 -1.1828  0.7801 -0.4641
36053SOL    HW211752   5.820   9.864   4.540 -0.5325 -0.4908  1.3947
36054SOL     OW11753   3.743   5.584   4.223 -0.1989  0.5927 -0.6470
36054SOL    HW111754   3.702   5.567   4.307  1.7682  0.3562  0.3370
36054SOL    HW211755   3.826   5.628   4.245  0.8983 -0.4908 -2.3643
36055SOL     OW11756   0.979  10.965   4.784  0.0305 -0.2749  0.1696
36055SOL    HW111757   1.004  11.057   4.785 -1.3596  0.1976 -2.0534
36055SOL    HW211758   0.899  10.962   4.836  1.0642 -0.6135  1.8056
36056SOL     OW11759  10.452   8.957   8.382 -0.0721 -0.4425  0.2747
36056SOL    HW111760  10.360   8.978   8.370 -0.0890  0.0423  1.1853
36056SOL    HW211761  10.491   8.967   8.294 -0.7949 -0.2567 -0.0277
36057SOL     OW11762   4.350   0.041   6.803 -0.3090  0.5285 -0.0767
36057SOL    HW111763   4.312   0.039   6.715  0.1484 -0.4165 -0.2637
36057SOL    HW211764   4.277   0.016   6.860  0.0660 -1.7026 -0.4743
36058SOL     OW11765  11.063  10.957   7.543 -0.2460 -0.3036 -0.0051
36058SOL    HW111766  11.021  11.015   7.607  0.1223  0.7340 -0.6742
36058SOL    HW211767  11.019  10.873   7.554  0.6516 -0.5344  2.4836
36059SOL     OW11768   9.714   9.468   0.982 -0.4836  0.0135  0.4972
36059SOL    HW111769   9.694   9.456   0.889 -0.8675  1.5669  0.3422
36059SOL    HW211770   9.631   9.496   1.020  0.0093  0.8237  1.0026
36060SOL     OW11771   5.578   8.297   7.653 -0.2212 -0.1027 -0.8592
36060SOL    HW111772   5.507   8.233   7.657 -0.7948  0.5771  0.4268
36060SOL    HW211773   5.534   8.382   7.656  0.5976  0.3424 -1.1549
36061SOL     OW11774   9.520   4.665   7.136 -0.0045  0.1614 -0.0764
36061SOL    HW111775   9.611   4.636   7.139 -0.8824 -3.0644 -0.9542
36061SOL    HW211776   9.500   4.687   7.227  1.5006  0.6306  0.1847
36062SOL     OW11777  10.610   5.312  10.768 -0.3513  0.0367  0.5758
36062SOL    HW111778  10.641   5.383  10.711  1.2878 -0.2352  1.0763
36062SOL    HW211779  10.596   5.355  10.853  0.8505 -0.2452  0.9366
36063SOL     OW11780  10.909   4.859   0.063  0.0008  0.7348 -0.3322
36063SOL    HW111781  10.901   4.914  -0.015  1.1571  0.2497 -0.8171
36063SOL    HW211782  10.998   4.874   0.094 -0.1962  0.3371  0.4627
36064SOL     OW11783   3.288   6.368   4.053 -0.2257 -0.3476 -0.0417
36064SOL    HW111784   3.288   6.457   4.018 -0.6225 -0.2694  0.1497
36064SOL    HW211785   3.374   6.333   4.030 -0.5994 -0.4220 -1.4147
36065SOL     OW11786   7.168   4.509   4.599 -0.5782  0.5761 -0.2766
36065SOL    HW111787   7.204   4.597   4.609 -0.0227  0.2232  0.9948
36065SOL    HW211788   7.136   4.486   4.686 -1.6047 -0.1083 -0.8250
36066SOL     OW11789   9.629   8.201   8.371 -0.4861 -0.1299 -0.1292
36066SOL    HW111790   9.668   8.281   8.404  0.2018 -1.6914  3.2078
36066SOL    HW211791   9.536   8.221   8.362 -0.1935  1.2607 -0.1915
36067SOL     OW11792   8.662  10.232   4.494  0.1564 -0.4725 -0.0344
36067SOL    HW111793   8.635  10.176   4.567  2.6663 -3.1661 -0.9990
36067SOL    HW211794   8.757  10.236   4.500  0.3587  0.1099 -2.5460
36068SOL     OW11795   3.356   0.569   7.402  0.0026 -0.1915  0.1094
36068SOL    HW111796   3.368   0.656   7.440  0.2343  0.3220 -1.0889
36068SOL    HW211797   3.372   0.509   7.474 -0.6898  0.7634  1.0915
36069SOL     OW11798   4.154   3.576   2.889 -0.0468 -0.0342  0.2347
36069SOL    HW111799   4.232   3.625   2.917 -1.1088  1.1524  1.2394
36069SOL    HW211800   4.175   3.485   2.909  1.3604  0.1557 -0.2120
36070SOL     OW11801   7.018   7.700   8.265 -0.5729  0.3428  0.0513
36070SOL    HW111802   7.089   7.689   8.201  0.3896 -2.5170  1.4507
36070SOL    HW211803   7.046   7.774   8.319  1.2032 -0.4381  0.2818
36071SOL     OW11804  11.058   6.089   0.425  0.0101 -0.6934 -0.9347
36071SOL    HW111805  10.966   6.088   0.400 -0.0672  0.4722 -0.7418
36071SOL    HW211806  11.102   6.132   0.351  0.5207 -1.9266 -1.3736
36072SOL     OW11807   6.524   1.931   6.053 -0.0877  0.5746 -0.3128
36072SOL    HW111808   6.508   2.024   6.069  0.0449  0.7847 -1.3369
36072SOL    HW211809   6.447   1.887   6.089  0.3678  0.9604  1.2345
36073SOL     OW11810   2.637   4.143   9.489  0.0939  0.1266 -0.4660
36073SOL    HW111811   2.712   4.201   9.478  0.4694 -0.2627 -0.0335
36073SOL    HW211812   2.574   4.173   9.424 -0.4639  2.1805  0.9554
36074SOL     OW11813  10.951   8.237   5.749 -0.3882  0.2814  0.0914
36074SOL    HW111814  10.893   8.233   5.825 -0.3349 -2.3959  0.0971
36074SOL    HW211815  11.039   8.235   5.786 -0.3469 -2.4128  0.0510
36075SOL     OW11816   1.773   7.371   5.563 -0.6046 -0.6456 -0.6138
36075SOL    HW111817   1.736   7.318   5.633 -0.8244 -1.2401 -1.1696
36075SOL    HW211818   1.779   7.311   5.488  0.6868 -0.3336 -0.7825
36076SOL     OW11819   0.784  10.776   3.919  0.3759  0.2092 -0.1746
36076SOL    HW111820   0.737  10.775   3.836  0.2097 -0.5243 -0.0786
36076SOL    HW211821   0.739  10.712   3.973  2.1179 -1.3570 -0.4620
36077SOL     OW11822   8.231   9.879   6.518  0.2249 -0.1176 -0.3754
36077SOL    HW111823   8.258   9.917   6.434  0.1317 -0.2356 -0.4592
36077SOL    HW211824   8.220   9.955   6.575  1.1442 -0.0893 -0.2132
36078SOL     OW11825   7.079   7.560  11.057 -0.4095  0.2389 -0.5184
36078SOL    HW111826   7.004   7.512  11.023  0.0743 -0.9210  0.0278
36078SOL    HW211827   7.149   7.544  10.994 -0.4756  0.9493 -0.7880
36079SOL     OW11828   1.105   2.258   6.034 -0.0886  0.4060  0.6958
36079SOL    HW111829   1.166   2.330   6.047  0.9521 -0.2961 -0.1508
36079SOL    HW211830   1.083   2.228   6.122 -0.6839  1.8538  1.0675
36080SOL     OW11831   2.294   5.079  11.056  0.3070 -0.3981 -0.4237
36080SOL    HW111832   2.286   4.993  11.098 -2.1107 -0.4980 -0.9675
36080SOL    HW211833   2.316   5.059  10.965 -0.9109 -0.5040 -0.7092
36081SOL     OW11834   0.702   1.815   7.137 -0.3146  0.3647 -0.2211
36081SOL    HW111835   0.750   1.822   7.219 -0.5343 -2.9386  0.3564
36081SOL    HW211836   0.761   1.769   7.077  0.1925  3.4845 -2.3599
36082SOL     OW11837   1.998   1.434   1.943 -0.0726  0.1176  0.2873
36082SOL    HW111838   2.014   1.437   1.848 -0.1444  3.2813  0.2468
36082SOL    HW211839   1.922   1.377   1.953 -0.4213  0.1694 -1.6283
36083SOL     OW11840   1.913   3.120   5.739 -0.0761 -0.4329 -0.4403
36083SOL    HW111841   1.978   3.147   5.674 -0.0808 -0.5643 -0.5009
36083SOL    HW211842   1.841   3.182   5.728 -0.6260 -1.2064 -1.4366
36084SOL     OW11843   2.189  10.064   3.642  0.2544 -0.1088  0.2138
36084SOL    HW111844   2.119  10.048   3.705 -1.0118 -0.2074 -1.1646
36084SOL    HW211845   2.143  10.086   3.560  1.8383  0.2833 -0.6059
36085SOL     OW11846   5.780   9.144   8.115 -0.1648 -0.0805  0.1686
36085SOL    HW111847   5.833   9.084   8.063  0.3791 -0.9738  1.7125
36085SOL    HW211848   5.840   9.214   8.139 -0.1738 -0.1348  0.3518
36086SOL     OW11849   8.225   1.594  10.877  1.2213 -0.5918 -0.2813
36086SOL    HW111850   8.213   1.689  10.873  0.6084 -0.5027  2.0104
36086SOL    HW211851   8.218   1.565  10.786  2.4395  1.6395 -1.1744
36087SOL     OW11852  10.861   3.752   0.352 -0.3802 -0.1017 -0.0852
36087SOL    HW111853  10.939   3.804   0.371 -1.7438  1.5344  1.3238
36087SOL    HW211854  10.847   3.765   0.258  1.1612 -0.6560 -0.4256
36088SOL     OW11855   2.313   9.654   8.244 -0.4203  0.1871  0.4263
36088SOL    HW111856   2.283   9.615   8.162 -2.0793  2.8631 -0.3925
36088SOL    HW211857   2.397   9.694   8.223  0.9156 -2.1241  1.0709
36089SOL     OW11858   2.466   6.647   7.345  0.6272 -0.0668 -0.2472
36089SOL    HW111859   2.458   6.650   7.250 -0.9389 -0.1591 -0.1468
36089SOL    HW211860   2.490   6.556   7.365  2.5827  0.3250 -0.6173
36090SOL     OW11861   8.795   5.155   6.274  0.0232 -0.3821 -0.4221
36090SOL    HW111862   8.801   5.246   6.305 -2.1266 -1.1218  2.7300
36090SOL    HW211863   8.853   5.106   6.333 -1.2525 -1.4106  0.0247
36091SOL     OW11864   6.387   5.319  10.202  0.3618  0.8131 -0.1203
36091SOL    HW111865   6.344   5.274  10.130 -2.2345 -0.2474  1.9489
36091SOL    HW211866   6.456   5.258  10.230 -2.5373 -1.7703  2.0729
36092SOL     OW11867   6.701   7.400   4.794  0.1735 -0.2345 -0.1335
36092SOL    HW111868   6.753   7.423   4.871 -0.4325  4.6869 -0.9005
36092SOL    HW211869   6.764   7.364   4.732  1.7584  1.0654  0.6718
36093SOL     OW11870  10.550   8.082   1.711  0.1364  0.4275 -0.0455
36093SOL    HW111871  10.465   8.039   1.698  0.8111 -0.6681 -0.9900
36093SOL    HW211872  10.528   8.175   1.720 -1.3273 -0.0127  1.6539
36094SOL     OW11873   6.947   3.898   7.114 -0.3246 -0.7876 -0.4064
36094SOL    HW111874   6.891   3.843   7.059 -0.5940 -0.8886 -0.0350
36094SOL    HW211875   6.921   3.988   7.094  0.8086 -0.7286 -1.7668
36095SOL     OW11876   3.715   5.345   9.264 -0.2558 -0.6400  0.2979
36095SOL    HW111877   3.735   5.393   9.184 -1.3347 -0.4315  0.1306
36095SOL    HW211878   3.800   5.328   9.305  0.2552 -0.1662 -0.5522
36096SOL     OW11879   0.568   6.205   6.165 -0.2858 -0.4889 -0.5010
36096SOL    HW111880   0.585   6.123   6.211  0.3306 -0.5006 -0.7386
36096SOL    HW211881   0.655   6.244   6.154 -0.7237  1.1425  1.3272
36097SOL     OW11882   2.944   4.895   1.795  0.5133 -0.4051  0.4870
36097SOL    HW111883   2.938   4.812   1.841 -0.5857 -0.9232 -0.5301
36097SOL    HW211884   2.901   4.879   1.711  0.2892  1.1770  0.2684
36098SOL     OW11885   4.075   5.384   1.040 -0.0050 -0.0409 -0.4053
36098SOL    HW111886   4.056   5.434   1.120 -0.6520  0.5566 -0.9250
36098SOL    HW211887   4.010   5.313   1.040  0.0682 -0.1087 -0.3475
36099SOL     OW11888   0.585   4.236   0.223 -0.2435 -0.6289  0.1877
36099SOL    HW111889   0.504   4.186   0.211 -0.3224 -0.4471 -0.0212
36099SOL    HW211890   0.608   4.267   0.136 -0.2267 -0.2428  0.3312
36100SOL     OW11891   9.034   3.780   8.356  0.0491  0.0528 -0.2224
36100SOL    HW111892   8.950   3.810   8.391 -0.1760  0.5260 -1.1329
36100SOL    HW211893   9.015   3.756   8.266  0.5297 -1.5332  0.0699
36101SOL     OW11894   4.928   1.858   6.380 -0.4133  0.0305 -0.2960
36101SOL    HW111895   5.018   1.827   6.391 -0.4316  0.5723  1.8590
36101SOL    HW211896   4.877   1.779   6.364  0.0772 -0.6555  1.3161
36102SOL     OW11897   9.168   4.141   3.989  0.0766 -0.2734  0.6159
36102SOL    HW111898   9.150   4.102   4.074 -1.1118  2.5317  1.7694
36102SOL    HW211899   9.212   4.223   4.008 -1.0488  0.8824 -1.3857
36103SOL     OW11900   3.710   2.088   0.232  0.6781 -0.2050 -0.0778
36103SOL    HW111901   3.661   2.171   0.239  0.7166  0.1594 -3.1258
36103SOL    HW211902   3.686   2.053   0.147  1.0628 -3.1596  0.9225
36104SOL     OW11903   5.895   1.310   3.146 -0.0172 -0.2609 -0.1563
36104SOL    HW111904   5.813   1.289   3.190  1.3876 -1.9877  1.8531
36104SOL    HW211905   5.960   1.313   3.217  1.8535 -0.1379 -1.7848
36105SOL     OW11906   8.444   9.138   7.198 -0.7459  0.2752  0.3771
36105SOL    HW111907   8.440   9.097   7.285  1.0190  1.7633  1.2237
36105SOL    HW211908   8.508   9.086   7.149 -0.9085  0.1095  0.3385
36106SOL     OW11909  10.937  10.245   3.692 -0.0625 -0.4153  0.4729
36106SOL    HW111910  11.000  10.289   3.636 -1.3896 -0.7065 -1.3264
36106SOL    HW211911  10.981  10.238   3.777  2.5586 -1.2415 -0.8690
36107SOL     OW11912   8.875   3.303  10.208 -0.1478 -0.4122  0.4127
36107SOL    HW111913   8.814   3.333  10.140 -0.5697 -1.3411  0.3554
36107SOL    HW211914   8.962   3.316  10.169 -0.3769 -0.6862 -0.2112
36108SOL     OW11915   6.635   9.205   9.616  0.0826 -0.4692 -0.4605
36108SOL    HW111916   6.557   9.160   9.649  0.4979 -0.1469  1.0370
36108SOL    HW211917   6.659   9.266   9.686  2.3113 -1.3315 -0.3768
36109SOL     OW11918   6.511   7.674   5.694 -1.0160 -0.4886  0.3762
36109SOL    HW111919   6.459   7.670   5.774  0.0034  0.1211  1.0918
36109SOL    HW211920   6.513   7.766   5.670 -0.0128 -0.4504  0.5424
36110SOL     OW11921   7.764   3.460   2.813 -0.0412  0.7642 -0.0841
36110SOL    HW111922   7.759   3.530   2.748 -0.6325  0.7556 -0.0516
36110SOL    HW211923   7.710   3.491   2.885  1.5139  1.2870  0.9001
36111SOL     OW11924   0.169   2.717  11.077  0.0648  0.1544 -0.2366
36111SOL    HW111925   0.087   2.668  11.089  1.3677 -2.7225 -1.9147
36111SOL    HW211926   0.215   2.706  11.161  1.6646 -4.6034 -1.3916
36112SOL     OW11927   1.250   1.613   9.916 -0.3431  0.1434 -0.0184
36112SOL    HW111928   1.330   1.561   9.911 -0.8797 -0.6820 -0.2819
36112SOL    HW211929   1.271   1.684   9.978 -0.6050 -2.2582  3.0926
36113SOL     OW11930   4.791   4.380   6.542  0.1129  0.0153  0.2940
36113SOL    HW111931   4.838   4.330   6.609  1.0950 -0.3108 -0.6041
36113SOL    HW211932   4.839   4.363   6.461 -1.9659 -0.8898 -0.8286
36114SOL     OW11933   9.009   4.053   3.661 -0.0129 -0.1871 -0.7515
36114SOL    HW111934   8.952   4.092   3.727  0.5496  0.7626 -0.8119
36114SOL    HW211935   9.055   4.127   3.622  0.6521 -0.8606 -1.2745
36115SOL     OW11936  10.799   5.057   2.887  0.4061  0.3531  0.1968
36115SOL    HW111937  10.759   5.064   2.973 -1.2373  0.2281 -0.5338
36115SOL    HW211938  10.893   5.063   2.904  0.1039  0.4844  1.9692
36116SOL     OW11939   0.191   3.714   7.327 -0.0545 -0.2453 -0.3745
36116SOL    HW111940   0.208   3.809   7.328  0.1279 -0.2866  0.7390
36116SOL    HW211941   0.102   3.705   7.362  0.2530 -0.5441  0.3445
36117SOL     OW11942   5.420  10.499   3.982  0.3532  0.4579 -0.6508
36117SOL    HW111943   5.354  10.433   4.003  0.8906 -0.1814 -0.9374
36117SOL    HW211944   5.402  10.571   4.043 -0.5837  0.2858 -0.7022
36118SOL     OW11945   7.221   7.835   5.560  0.0220 -0.1169 -0.3550
36118SOL    HW111946   7.168   7.775   5.507 -0.2418  0.8725 -1.2555
36118SOL    HW211947   7.282   7.875   5.497  2.3103 -1.6871  0.7552
36119SOL     OW11948  10.598   1.493   5.776  0.3004 -0.2778 -0.3543
36119SOL    HW111949  10.638   1.407   5.789 -1.5703 -1.4320 -1.7453
36119SOL    HW211950  10.515   1.475   5.730  0.2146  2.3181 -1.4188
36120SOL     OW11951   3.363   4.957   5.149 -0.3243  0.0634  0.1162
36120SOL    HW111952   3.363   5.046   5.183  0.3714  1.2974 -2.7402
36120SOL    HW211953   3.283   4.951   5.096  0.5374 -0.3090 -1.2067
36121SOL     OW11954   9.890   7.167   7.452 -0.1037  0.2195  0.2582
36121SOL    HW111955   9.862   7.152   7.362 -1.2192 -0.8085  0.7548
36121SOL    HW211956   9.954   7.239   7.446 -0.6545  0.6082 -1.2572
36122SOL     OW11957  10.468  10.223   2.800  0.0687 -0.6197  0.2375
36122SOL    HW111958  10.426  10.164   2.738  0.3348  0.3614 -0.9150
36122SOL    HW211959  10.396  10.268   2.843 -0.0969 -0.2238 -0.4477
36123SOL     OW11960   5.442   1.394   3.703  0.2362 -0.0124 -0.5847
36123SOL    HW111961   5.392   1.476   3.698  0.9721  0.4848  0.0150
36123SOL    HW211962   5.533   1.421   3.707  0.4423 -0.7852  0.9434
36124SOL     OW11963   3.816   9.940   4.503 -0.1594 -0.2181  0.6820
36124SOL    HW111964   3.834   9.867   4.562 -0.2651  1.7108  3.2902
36124SOL    HW211965   3.901   9.983   4.492 -0.2038 -0.3764 -0.3742
36125SOL     OW11966  10.761   4.594   4.065  1.0924  0.0436  0.2654
36125SOL    HW111967  10.702   4.593   4.140 -0.7913 -0.0156 -1.1255
36125SOL    HW211968  10.806   4.679   4.071  0.0210  0.5946  0.7690
36126SOL     OW11969   0.461   0.388   5.616  0.1643 -0.3181 -0.0177
36126SOL    HW111970   0.555   0.399   5.598  0.7061 -2.4262  1.2260
36126SOL    HW211971   0.452   0.406   5.709 -0.8006  0.4254 -0.2372
36127SOL     OW11972  10.219   8.422   3.811 -0.9324 -0.1085 -0.0239
36127SOL    HW111973  10.239   8.496   3.754  1.7450 -0.5668  0.2102
36127SOL    HW211974  10.193   8.352   3.751  1.6581 -0.5241 -0.7989
36128SOL     OW11975   2.488  10.379   9.707  0.3056  0.0723  0.3724
36128SOL    HW111976   2.471  10.354   9.616  0.4092  1.0004  0.0832
36128SOL    HW211977   2.531  10.303   9.746 -2.0191 -1.3415  0.3706
36129SOL     OW11978   7.643   5.787   9.554 -0.1446 -0.3255 -0.2340
36129SOL    HW111979   7.723   5.738   9.538 -0.2228 -0.6587  0.3861
36129SOL    HW211980   7.634   5.790   9.649 -0.5466  0.2394 -0.2802
36130SOL     OW11981   2.982   2.447   8.672  0.3682 -0.1426  0.2011
36130SOL    HW111982   3.002   2.487   8.587 -0.7621 -1.4592 -0.7502
36130SOL    HW211983   2.958   2.520   8.729 -2.7148  0.6004 -1.7589
36131SOL     OW11984   1.356   2.014   2.168  0.6033 -0.0416  0.5068
36131SOL    HW111985   1.337   1.938   2.114 -0.1612  0.0629  0.6166
36131SOL    HW211986   1.272   2.061   2.173  1.4221  1.7156 -0.9756
36132SOL     OW11987   5.542   9.147   9.149  0.0025  0.1602  0.5340
36132SOL    HW111988   5.612   9.098   9.192 -0.8725 -1.0559  0.5840
36132SOL    HW211989   5.461   9.110   9.183 -0.8081  3.5151  2.7922
36133SOL     OW11990  10.803   8.058   6.857 -0.3525  0.3086  0.3672
36133SOL    HW111991  10.768   8.133   6.810 -0.4652 -0.6257 -1.0837
36133SOL    HW211992  10.753   7.983   6.825 -0.3087 -0.4019  1.8487
36134SOL     OW11993   3.031   6.789   5.100  0.0888 -0.5166 -0.9134
36134SOL    HW111994   3.038   6.721   5.166 -3.7012 -1.8772 -1.6644
36134SOL    HW211995   3.056   6.870   5.145 -1.6549 -1.4955  2.0230
36135SOL     OW11996   1.640   3.916   3.502 -0.1200  0.2462  0.5278
36135SOL    HW111997   1.698   3.869   3.562  0.1408 -1.3625 -0.9110
36135SOL    HW211998   1.696   3.980   3.459  0.8493 -1.7394 -1.3420
36136SOL     OW11999   2.502   9.158   4.635  0.3880 -0.0680 -0.2546
36136SOL    HW112000   2.453   9.200   4.565  1.7587  1.5024 -0.3471
36136SOL    HW212001   2.486   9.065   4.623 -0.2720  0.2292 -2.0103
36137SOL     OW12002   5.632   6.345   9.516 -0.1205 -0.4041  0.0027
36137SOL    HW112003   5.607   6.403   9.444  1.9161  0.9451  0.2751
36137SOL    HW212004   5.623   6.257   9.480  1.9873  0.2360 -2.4009
36138SOL     OW12005   7.309   2.201   1.155 -0.4960  0.1525  0.9105
36138SOL    HW112006   7.386   2.188   1.100 -1.0436  0.0748  0.1489
36138SOL    HW212007   7.271   2.113   1.164 -1.0754  0.3452  0.4060
36139SOL     OW12008   7.628   6.667   7.548 -0.2229 -0.1521 -0.0982
36139SOL    HW112009   7.685   6.613   7.604  0.4749 -0.0813 -0.7212
36139SOL    HW212010   7.644   6.757   7.579 -1.6879 -0.3043  1.2085
36140SOL     OW12011   3.058  10.140   5.012  0.5125 -0.3144  0.3802
36140SOL    HW112012   3.112  10.089   5.073  2.0245 -0.3719 -0.9252
36140SOL    HW212013   3.023  10.075   4.951 -0.4564 -0.1798  0.7730
36141SOL     OW12014   0.816   0.259  10.323  0.0632 -0.2919 -0.4828
36141SOL    HW112015   0.892   0.314  10.342  0.9443 -1.4199 -0.5735
36141SOL    HW212016   0.772   0.303  10.251 -0.1025  1.0450  0.3929
36142SOL     OW12017  10.879   5.411   4.185  0.4450  0.6858  0.0885
36142SOL    HW112018  10.858   5.434   4.276  1.5457  0.9709  0.2759
36142SOL    HW212019  10.793   5.392   4.146 -0.5326  4.2298  0.1377
36143SOL     OW12020   4.819   1.870   2.812 -0.0467  0.7532 -0.2356
36143SOL    HW112021   4.844   1.916   2.732 -1.9348 -0.5429 -1.6699
36143SOL    HW212022   4.737   1.826   2.789  0.6069 -1.6494  1.6580
36144SOL     OW12023   1.402   5.288   4.513  0.0150 -0.1526  0.0797
36144SOL    HW112024   1.400   5.310   4.420  0.6998  1.7183  0.4665
36144SOL    HW212025   1.314   5.253   4.531  0.1413 -1.3852 -1.4150
36145SOL     OW12026   0.119   9.929  10.021 -0.3353  0.0790  0.1375
36145SOL    HW112027   0.071   9.860   9.975 -0.6283  0.1338  0.3583
36145SOL    HW212028   0.077  10.010   9.993  0.5035  0.2346 -0.7216
36146SOL     OW12029   5.272   0.639   2.305 -0.0480  0.7469  0.0855
36146SOL    HW112030   5.271   0.546   2.280  0.9906  0.7930 -0.1838
36146SOL    HW212031   5.224   0.683   2.235 -0.5063  0.4183  0.1894
36147SOL     OW12032   1.504   4.618   7.987 -0.1411  0.3881 -0.5642
36147SOL    HW112033   1.457   4.681   8.042 -0.5394  0.7115 -1.2627
36147SOL    HW212034   1.440   4.592   7.920  0.5418  0.5189 -1.2771
36148SOL     OW12035   9.110   5.606   9.905  0.1633  0.3456 -0.1800
36148SOL    HW112036   9.091   5.564   9.989  1.3803 -0.4219 -0.2570
36148SOL    HW212037   9.040   5.577   9.847 -0.3576  0.4034  0.4197
36149SOL     OW12038   5.666   4.020   0.655 -0.4817  0.6067 -0.4217
36149SOL    HW112039   5.634   4.061   0.735 -0.2629 -0.8543  0.4617
36149SOL    HW212040   5.589   3.973   0.621  0.6113 -3.6014  2.1457
36150SOL     OW12041   6.087   1.928  10.716  0.2459 -0.3744  0.1620
36150SOL    HW112042   6.030   1.997  10.751 -0.7390 -1.1782  0.1701
36150SOL    HW212043   6.053   1.847  10.753  0.8148 -0.9764 -0.5930
36151SOL     OW12044   5.795  10.206   4.033 -0.3890 -0.1302 -0.0332
36151SOL    HW112045   5.830  10.134   3.981  0.0107  1.4694 -2.1689
36151SOL    HW212046   5.700  10.201   4.020 -0.4647 -0.9096  0.7616
36152SOL     OW12047   8.917   4.011   5.919  0.3491 -0.2610 -0.2222
36152SOL    HW112048   8.833   4.017   5.964  1.2439  0.9654  1.3875
36152SOL    HW212049   8.946   3.921   5.934 -0.0776 -0.3045  0.3515
36153SOL     OW12050   7.435  10.486   1.691 -0.5321  0.0916 -0.6225
36153SOL    HW112051   7.470  10.428   1.624 -0.0377 -2.0061  1.3319
36153SOL    HW212052   7.431  10.432   1.770 -3.7368  1.5916  0.4227
36154SOL     OW12053  10.131   8.112   3.763  0.1945 -0.1381 -0.2634
36154SOL    HW112054  10.051   8.123   3.815  0.8807  0.8327  0.6326
36154SOL    HW212055  10.194   8.075   3.825  0.3323 -1.2901 -1.0753
36155SOL     OW12056   3.895   8.324   8.897 -0.1999  0.0078 -0.5113
36155SOL    HW112057   3.820   8.365   8.939  0.8702  1.3238  0.1868
36155SOL    HW212058   3.867   8.310   8.806 -0.9307  1.4738 -0.5350
36156SOL     OW12059   9.574   4.799   0.160 -0.4682 -0.0020 -0.1098
36156SOL    HW112060   9.621   4.882   0.149 -2.6271  1.4177  0.6322
36156SOL    HW212061   9.642   4.733   0.163  1.2674  1.5489 -2.2508
36157SOL     OW12062   3.271   1.612   0.026  0.0520  0.5064 -0.6929
36157SOL    HW112063   3.201   1.645   0.082  0.7363  1.0581 -0.1347
36157SOL    HW212064   3.350   1.657   0.058  0.5089  0.6137 -1.9080
36158SOL     OW12065   2.377   8.848   4.129  0.0877 -0.3509  0.1706
36158SOL    HW112066   2.317   8.812   4.194 -2.5381 -0.4924 -2.1454
36158SOL    HW212067   2.406   8.772   4.078 -0.7159  0.0838 -0.9831
36159SOL     OW12068   3.761   5.654  10.832  0.4151 -0.1998  0.2877
36159SOL    HW112069   3.754   5.571  10.878  1.2913  1.6315  4.0918
36159SOL    HW212070   3.698   5.712  10.876  0.4083  1.4156 -1.6852
36160SOL     OW12071   1.169   2.104   2.860  0.0431 -0.1428 -0.6701
36160SOL    HW112072   1.111   2.137   2.793 -0.5380  0.9075  0.3146
36160SOL    HW212073   1.112   2.058   2.922  0.4982 -0.6374 -0.5986
36161SOL     OW12074   9.224   3.752   3.623 -0.0597  0.2382 -0.3224
36161SOL    HW112075   9.227   3.833   3.571 -2.0780  0.6095  0.0876
36161SOL    HW212076   9.198   3.780   3.711  1.7453 -0.5825  0.5314
36162SOL     OW12077   8.369   5.027   6.046 -0.0751  0.1824 -0.0876
36162SOL    HW112078   8.384   5.100   6.106 -0.4524  0.0496  0.1732
36162SOL    HW212079   8.362   4.950   6.102  4.3464 -0.8139 -0.5231
36163SOL     OW12080   9.489   1.250   5.634 -0.5597  0.0933 -0.6455
36163SOL    HW112081   9.496   1.331   5.583 -1.2743  1.4200  1.2213
36163SOL    HW212082   9.413   1.206   5.599 -1.4401  1.3158 -0.3555
36164SOL     OW12083   7.637   2.850   6.897  0.0078 -0.0309  0.4042
36164SOL    HW112084   7.632   2.938   6.859 -0.2950 -0.2426 -0.0532
36164SOL    HW212085   7.585   2.796   6.838 -0.7089 -0.3175  1.2908
36165SOL     OW12086   6.878   8.606   9.997 -0.0024  0.0570  0.3885
36165SOL    HW112087   6.803   8.584  10.053 -0.9149 -1.5381 -1.3882
36165SOL    HW212088   6.938   8.532  10.007  0.0889  0.0370 -0.3125
36166SOL     OW12089   5.217   3.806   2.505 -0.2985  0.0895  0.3429
36166SOL    HW112090   5.164   3.885   2.513 -0.8793 -0.0337 -1.6730
36166SOL    HW212091   5.161   3.743   2.459  1.0988 -0.5168 -0.6250
36167SOL     OW12092   5.981  11.017   2.779 -0.5814 -0.6856  0.1993
36167SOL    HW112093   5.992  11.108   2.750 -1.6553 -0.1149  1.4832
36167SOL    HW212094   6.016  10.965   2.707  2.4170  0.7531  0.4416
36168SOL     OW12095   1.273   5.169   2.939  0.3872  0.1456 -0.4884
36168SOL    HW112096   1.333   5.117   2.993 -1.5477 -0.6109  1.0406
36168SOL    HW212097   1.285   5.258   2.970 -0.9758 -0.3288  1.5698
36169SOL     OW12098   0.167   2.137   6.755 -0.0850  0.0678  0.3867
36169SOL    HW112099   0.097   2.139   6.689  2.1447  0.2268 -2.1123
36169SOL    HW212100   0.120   2.133   6.839 -3.0616 -0.4252 -1.1668
36170SOL     OW12101   2.951   4.957   2.240 -0.0227 -0.1052 -0.9199
36170SOL    HW112102   2.899   4.960   2.320  1.3854 -0.6340  0.0515
36170SOL    HW212103   3.041   4.972   2.269  0.9000 -2.8175 -2.0152
36171SOL     OW12104   8.696   6.742   8.101 -0.1860  0.7799 -0.1460
36171SOL    HW112105   8.644   6.755   8.180 -1.8854  1.0722 -1.2596
36171SOL    HW212106   8.681   6.821   8.049 -0.4634 -0.1279 -1.4838
36172SOL     OW12107  11.101   9.005   4.764 -0.5612  0.2132 -0.2477
36172SOL    HW112108  11.086   8.918   4.802  0.3236 -0.0890 -0.5430
36172SOL    HW212109  11.196   9.009   4.753 -0.1721  2.5420  2.8460
36173SOL     OW12110   7.832   3.717   1.566 -0.1148 -0.0007  0.3451
36173SOL    HW112111   7.752   3.667   1.581 -0.4692 -0.0607 -1.5357
36173SOL    HW212112   7.856   3.749   1.653 -1.5269 -0.9438  1.1316
36174SOL     OW12113   5.813  10.576   5.803 -0.4811 -0.1511  0.3735
36174SOL    HW112114   5.855  10.537   5.727  1.4232  0.5697  0.9711
36174SOL    HW212115   5.756  10.644   5.767  0.2198  0.0307 -0.4378
36175SOL     OW12116   1.744   3.714   0.415 -0.1088  0.1344 -0.1719
36175SOL    HW112117   1.668   3.690   0.362 -0.3859  2.8580 -1.1704
36175SOL    HW212118   1.800   3.763   0.355  1.3367  0.2286  1.1773
36176SOL     OW12119   8.433  10.528   7.187  0.0424  1.1210 -0.0454
36176SOL    HW112120   8.410  10.598   7.248  2.0453  2.4788 -0.7569
36176SOL    HW212121   8.423  10.567   7.100 -0.5254 -0.0677 -0.5524
36177SOL     OW12122   0.263   1.653   7.330  0.0134 -0.3702  0.4739
36177SOL    HW112123   0.253   1.558   7.340 -2.4962 -0.3779 -1.3510
36177SOL    HW212124   0.176   1.688   7.346  0.6871  1.5561  0.1326
36178SOL     OW12125   8.021   3.955   7.341 -0.1716  0.0055 -0.0605
36178SOL    HW112126   7.957   4.023   7.364  1.0757  0.7104  1.5381
36178SOL    HW212127   7.996   3.880   7.395  0.6794  0.5034  1.0849
36179SOL     OW12128  10.847   8.668   2.198  0.0405 -0.2833 -0.2092
36179SOL    HW112129  10.881   8.586   2.233 -0.3915 -0.3237  0.1327
36179SOL    HW212130  10.817   8.716   2.275 -1.9539 -0.8394 -0.5775
36180SOL     OW12131   0.329  10.526  10.244 -0.5526  0.0008  0.1505
36180SOL    HW112132   0.347  10.617  10.265  0.1741 -0.2817  0.8157
36180SOL    HW212133   0.396  10.477  10.291 -0.7408 -0.8591 -0.4457
36181SOL     OW12134   5.785   3.544   1.751 -0.1227  0.0108  0.1616
36181SOL    HW112135   5.765   3.589   1.834 -0.7298  0.3613 -0.1661
36181SOL    HW212136   5.757   3.454   1.766 -0.8221  0.2160  0.1355
36182SOL     OW12137  10.322  10.469   4.711 -0.2929 -0.7827 -0.6911
36182SOL    HW112138  10.416  10.486   4.718 -0.0098 -2.8054  2.2916
36182SOL    HW212139  10.296  10.510   4.628  3.1460 -0.0313 -1.5471
36183SOL     OW12140   1.615   1.001   9.279 -0.6596  0.2663  0.5251
36183SOL    HW112141   1.568   0.927   9.240  0.6208 -0.6216  0.5902
36183SOL    HW212142   1.571   1.015   9.363 -1.7981  0.5097 -0.0945
36184SOL     OW12143   1.277   9.929   4.937 -0.6390 -0.7145 -0.6717
36184SOL    HW112144   1.356   9.882   4.912 -0.7009 -1.9208  1.2434
36184SOL    HW212145   1.275   9.925   5.032 -3.2976 -1.2549 -0.6712
36185SOL     OW12146   1.416   9.640   7.636 -0.5815  0.1035  0.6310
36185SOL    HW112147   1.464   9.720   7.654 -2.4278  1.6998 -1.0554
36185SOL    HW212148   1.481   9.580   7.600  0.0845  2.6185 -2.8632
36186SOL     OW12149   4.049   0.006   2.027 -0.1081 -0.1777  0.1229
36186SOL    HW112150   4.101   0.050   1.960  1.3815 -2.2091 -0.1559
36186SOL    HW212151   3.988  -0.049   1.978 -0.4841 -0.0704  0.4583
36187SOL     OW12152   3.210   8.888   4.823  0.0171 -0.3449 -0.0236
36187SOL    HW112153   3.125   8.860   4.857 -0.0783 -2.9941 -2.1241
36187SOL    HW212154   3.189   8.939   4.745  0.3695  0.8174  0.6083
36188SOL     OW12155   1.302   8.678   5.068 -0.7295  0.5114  0.1090
36188SOL    HW112156   1.332   8.661   5.158  0.3089 -0.2309 -0.3679
36188SOL    HW212157   1.287   8.591   5.031 -3.2330  0.8279  0.2103
36189SOL     OW12158  10.111   1.597   7.390  0.4868 -0.1681  0.1126
36189SOL    HW112159  10.146   1.685   7.404  0.7917 -0.2851  0.1040
36189SOL    HW212160  10.125   1.580   7.297  0.1212 -0.0952  0.0449
36190SOL     OW12161   2.033   8.965   6.473  0.6069 -0.4134 -0.1897
36190SOL    HW112162   2.040   9.057   6.498  1.9023 -0.9540  1.6941
36190SOL    HW212163   1.957   8.932   6.521  0.9455 -0.6162  0.2179
36191SOL     OW12164   6.405  10.262   0.101 -0.1379 -0.8125  0.2039
36191SOL    HW112165   6.451  10.312   0.033 -0.7973  0.5249  0.6916
36191SOL    HW212166   6.327  10.315   0.120  0.2455 -0.9386  2.3037
36192SOL     OW12167   4.275   6.153   8.131  0.2239  0.3546 -0.3150
36192SOL    HW112168   4.307   6.142   8.041 -0.7123  1.0927 -0.7551
36192SOL    HW212169   4.181   6.168   8.121 -0.2111 -1.2228  0.9032
36193SOL     OW12170   9.958   9.959   0.763 -0.1411 -0.3644 -0.0724
36193SOL    HW112171  10.015  10.035   0.763  0.9434 -1.1351 -0.9805
36193SOL    HW212172  10.013   9.889   0.800 -1.4846 -0.4826  1.8569
36194SOL     OW12173   3.412   1.599   1.908  0.3410 -0.2362  0.7844
36194SOL    HW112174   3.454   1.618   1.824  0.2367 -0.1217  0.7572
36194SOL    HW212175   3.367   1.515   1.893  2.5219 -1.6212  1.5349
36195SOL     OW12176   0.214   1.730   0.886  0.4472 -0.0170 -0.0210
36195SOL    HW112177   0.139   1.735   0.827  0.0027 -2.5064  0.2485
36195SOL    HW212178   0.175   1.721   0.973  0.9468 -2.7332  0.0006
36196SOL     OW12179   2.248   7.046  10.031 -0.1412 -0.2695 -0.3374
36196SOL    HW112180   2.236   7.059   9.937 -1.9773  1.1472  0.0367
36196SOL    HW212181   2.319   7.106  10.054 -1.7504  1.7555 -0.3651
36197SOL     OW12182   3.852   9.851  10.863  0.0422 -0.2072  0.4573
36197SOL    HW112183   3.812   9.799  10.933 -0.1379  0.0124  0.5186
36197SOL    HW212184   3.943   9.862  10.890 -0.3393  1.0176  1.3339
36198SOL     OW12185   0.071   1.344  10.469  0.0840  0.3936  0.0580
36198SOL    HW112186   0.086   1.438  10.465 -0.1707  0.4323 -0.0252
36198SOL    HW212187  -0.024   1.335  10.460  0.0592  0.1564  0.5504
36199SOL     OW12188   1.727   1.520   1.620 -0.2882  0.0508  0.1945
36199SOL    HW112189   1.681   1.603   1.631  0.1622  0.2213  0.8391
36199SOL    HW212190   1.677   1.474   1.553 -0.3091  1.0138 -0.4819
36200SOL     OW12191   3.807   9.816   0.694  0.3565  0.6636  0.2596
36200SOL    HW112192   3.788   9.758   0.621 -1.7449  0.3614  0.9751
36200SOL    HW212193   3.881   9.775   0.739  0.7917  0.1399 -0.8908
36201SOL     OW12194   4.219   5.066   6.134  0.3515  0.1994  0.3135
36201SOL    HW112195   4.275   4.997   6.170  0.4196  0.6654  1.1126
36201SOL    HW212196   4.137   5.058   6.182 -0.0627 -0.0846 -0.4282
36202SOL     OW12197   2.346   0.786   5.111  0.4895 -0.7432 -0.2831
36202SOL    HW112198   2.364   0.718   5.176  1.1054  0.5819  0.9869
36202SOL    HW212199   2.349   0.868   5.161 -1.3539  0.1496 -1.5536
36203SOL     OW12200   0.155   0.892  10.812  0.5572 -0.6146 -0.1212
36203SOL    HW112201   0.111   0.840  10.744 -0.0347 -1.0300  0.5678
36203SOL    HW212202   0.246   0.862  10.810  0.2783 -1.4895  0.0833
36204SOL     OW12203   1.250   9.439   4.558  0.1464 -0.0245  0.6670
36204SOL    HW112204   1.219   9.363   4.509  1.6121 -0.9300  1.0719
36204SOL    HW212205   1.272   9.503   4.491  0.6831 -0.6815  0.2003
36205SOL     OW12206   0.731   4.642   8.933 -0.2892 -0.7141  0.1947
36205SOL    HW112207   0.766   4.591   8.860  0.5855 -0.1271  0.1933
36205SOL    HW212208   0.636   4.631   8.925 -0.3497  0.6802 -2.0762
36206SOL     OW12209   4.998   9.332   4.499 -0.4733 -0.1038 -0.3491
36206SOL    HW112210   5.006   9.238   4.515  2.2644  0.2261  0.7594
36206SOL    HW212211   5.011   9.341   4.405 -0.3859 -0.7930 -0.4119
36207SOL     OW12212   5.802   4.843   2.832  0.0790  0.0860 -0.0650
36207SOL    HW112213   5.780   4.770   2.890 -1.4554  0.6206  0.0656
36207SOL    HW212214   5.814   4.803   2.746 -1.6413 -0.2345 -0.1780
36208SOL     OW12215   6.131   3.614   5.437  0.1936  0.1129  0.2065
36208SOL    HW112216   6.198   3.563   5.482  0.1472 -1.1467 -1.0921
36208SOL    HW212217   6.105   3.560   5.362 -1.5595  1.0163  0.1111
36209SOL     OW12218   6.713   3.443   6.371 -0.7794  1.4031 -0.2079
36209SOL    HW112219   6.676   3.402   6.293 -0.1052  2.3105 -1.0162
36209SOL    HW212220   6.666   3.526   6.379  0.5323  2.2269 -0.8183
36210SOL     OW12221  10.702   6.146   5.636 -0.4346  0.2985  0.1975
36210SOL    HW112222  10.660   6.096   5.706 -0.9080  0.5596  0.1063
36210SOL    HW212223  10.737   6.223   5.679 -1.5962  0.9609  0.0057
36211SOL     OW12224   9.996   3.054   6.978 -0.0482  0.1378  0.5725
36211SOL    HW112225   9.942   3.128   6.953 -1.1342 -0.7541  0.1734
36211SOL    HW212226   9.961   3.028   7.064 -0.4233 -0.5795  0.2128
36212SOL     OW12227   9.421   9.263   6.011  0.3921  0.3891 -0.4356
36212SOL    HW112228   9.410   9.356   6.030  0.5413 -0.1318  2.6959
36212SOL    HW212229   9.508   9.242   6.045 -0.8239 -1.4467  1.8472
36213SOL     OW12230   9.312   3.167   8.087  0.0524 -0.1804 -0.5104
36213SOL    HW112231   9.392   3.208   8.120 -1.4811  2.2809  0.4152
36213SOL    HW212232   9.275   3.122   8.163  0.7427 -1.8004 -1.0694
36214SOL     OW12233   0.691   2.704  10.288  0.1278  0.1262  0.5673
36214SOL    HW112234   0.720   2.777  10.343  1.2430  0.3208 -0.2571
36214SOL    HW212235   0.754   2.700  10.217 -1.1287 -0.3027 -0.5706
36215SOL     OW12236   0.525   3.229   1.470  0.0022  0.1936 -0.0873
36215SOL    HW112237   0.538   3.143   1.431 -2.0721  0.1252 -0.7249
36215SOL    HW212238   0.523   3.213   1.564 -1.2043 -0.6227 -0.2240
36216SOL     OW12239   6.675   5.056   6.952 -0.6658 -0.1198  0.0393
36216SOL    HW112240   6.700   4.967   6.926  2.8707  0.8996 -0.5969
36216SOL    HW212241   6.691   5.060   7.046 -0.1757 -0.0056 -0.0444
36217SOL     OW12242   8.402  11.052   4.807  0.0229 -0.1894  0.2467
36217SOL    HW112243   8.438  10.983   4.752  1.5410 -0.8018  1.8835
36217SOL    HW212244   8.308  11.050   4.791  0.3507 -0.7346 -1.8123
36218SOL     OW12245   4.700   2.942   1.915 -0.0139 -0.1044 -0.3775
36218SOL    HW112246   4.775   2.989   1.951  1.7375 -0.8893 -2.7195
36218SOL    HW212247   4.717   2.850   1.935 -0.6573 -0.2353 -0.4178
36219SOL     OW12248   8.962   3.885  10.023 -0.2029  0.2885 -0.4193
36219SOL    HW112249   9.022   3.924  10.087  0.5480 -2.1035  0.4490
36219SOL    HW212250   8.878   3.926  10.042  0.7388  2.4144 -0.4847
36220SOL     OW12251   7.365   3.204   7.271 -0.4247  0.2302 -0.5242
36220SOL    HW112252   7.320   3.254   7.203 -0.0178  0.0109 -0.9603
36220SOL    HW212253   7.404   3.131   7.224  2.7386  1.8490 -0.6849
36221SOL     OW12254   3.131   3.045   1.650 -0.0725 -0.8287 -0.6476
36221SOL    HW112255   3.078   3.009   1.580 -1.3084 -0.6601  0.1618
36221SOL    HW212256   3.182   2.971   1.683  0.1346 -1.0159 -1.3729
36222SOL     OW12257   0.134   4.764   6.286  0.1231  0.4243  0.0045
36222SOL    HW112258   0.081   4.710   6.344  1.3150 -0.0364  0.6946
36222SOL    HW212259   0.135   4.850   6.329  0.6422  0.2006  0.4510
36223SOL     OW12260   0.632   5.776   6.094 -0.9824  0.5998  0.2434
36223SOL    HW112261   0.658   5.704   6.037 -1.8312  0.9408 -0.6072
36223SOL    HW212262   0.603   5.734   6.175  1.4966  0.1721  0.9934
36224SOL     OW12263   7.849   6.975  10.679  0.3620  0.4883 -0.2530
36224SOL    HW112264   7.819   6.989  10.768  0.9329  0.4046 -0.0445
36224SOL    HW212265   7.886   7.059  10.653  2.0527 -0.0294  0.3244
36225SOL     OW12266  11.026   0.442   7.068 -0.0355  0.2086 -0.1010
36225SOL    HW112267  11.017   0.504   6.995  1.7948  1.4844  0.6552
36225SOL    HW212268  10.945   0.452   7.118 -0.3728  0.9618 -0.7712
36226SOL     OW12269   1.033   8.806  10.809 -0.0990 -0.3488  0.0794
36226SOL    HW112270   0.961   8.867  10.822  0.0281 -0.0588 -0.5148
36226SOL    HW212271   1.000   8.722  10.841  0.2971  0.3285  2.4462
36227SOL     OW12272   7.769   0.817   0.656 -0.5039  0.6705  0.1851
36227SOL    HW112273   7.859   0.786   0.644 -1.1598 -1.3921  0.2707
36227SOL    HW212274   7.736   0.831   0.568  0.1352  2.2727  0.1660
36228SOL     OW12275   2.732   7.941   2.258 -0.3476 -0.6502  0.4554
36228SOL    HW112276   2.676   7.864   2.266  1.0961 -1.7172  0.7232
36228SOL    HW212277   2.673   8.010   2.227 -1.6015 -1.9433 -0.1858
36229SOL     OW12278   8.722   6.095   1.676  0.1045 -0.1861  0.0375
36229SOL    HW112279   8.777   6.173   1.686  1.8624 -1.3861  0.2087
36229SOL    HW212280   8.778   6.032   1.631 -0.3602 -2.2445  2.1897
36230SOL     OW12281   4.189   0.977   6.069 -0.0579  0.3877  0.5042
36230SOL    HW112282   4.282   0.957   6.074 -0.2889 -2.1707 -2.3332
36230SOL    HW212283   4.184   1.069   6.042  1.8149 -0.2063 -2.1959
36231SOL     OW12284   2.438   5.919   9.762 -0.3118 -0.3369 -0.2539
36231SOL    HW112285   2.407   6.002   9.728 -0.0943 -0.0126  0.3286
36231SOL    HW212286   2.382   5.853   9.720  0.9761 -0.1186 -2.5060
36232SOL     OW12287  10.894  10.530   1.321  0.0468  0.4199  0.1914
36232SOL    HW112288  10.858  10.529   1.410  1.2741  0.3863  0.7236
36232SOL    HW212289  10.916  10.621   1.305  1.3785  0.2002  0.6164
36233SOL     OW12290   2.327   7.598   8.541 -0.2502 -0.2033  0.1589
36233SOL    HW112291   2.295   7.508   8.542 -0.6415 -0.1757 -2.3172
36233SOL    HW212292   2.394   7.599   8.473 -1.6372  1.7396 -1.3287
36234SOL     OW12293   4.005   6.398   8.999  0.4450 -0.1556  1.1130
36234SOL    HW112294   4.074   6.440   8.947 -1.3225 -1.1491 -2.3306
36234SOL    HW212295   3.927   6.453   8.984 -0.5248 -1.4620  1.2059
36235SOL     OW12296   6.849   2.253   8.323 -0.0882 -0.0438 -0.1865
36235SOL    HW112297   6.897   2.295   8.251  1.0167 -0.9027  0.0146
36235SOL    HW212298   6.906   2.182   8.351 -1.6047 -1.2682 -0.0779
36236SOL     OW12299   8.574   0.341   0.659  0.2958 -0.2051 -0.3119
36236SOL    HW112300   8.634   0.391   0.714  0.2803  1.3108 -1.5800
36236SOL    HW212301   8.631   0.295   0.597  0.2721 -1.1839  0.3815
36237SOL     OW12302   3.898   8.433   0.336  0.0869  0.7574 -0.1252
36237SOL    HW112303   3.834   8.458   0.402  0.2974  0.7708  0.0763
36237SOL    HW212304   3.851   8.372   0.278 -0.2643  1.1939 -0.3026
36238SOL     OW12305   6.631   5.938   5.833  0.0165 -0.2735  0.0073
36238SOL    HW112306   6.658   6.022   5.871 -1.2800  0.5305 -0.7583
36238SOL    HW212307   6.578   5.962   5.758 -0.0571 -1.8078 -0.4654
36239SOL     OW12308   0.835   4.851   4.226  0.3513  0.2575  0.1097
36239SOL    HW112309   0.909   4.869   4.168 -0.1153 -0.0146 -0.5916
36239SOL    HW212310   0.771   4.806   4.170  0.1144 -0.5249  0.9765
36240SOL     OW12311   5.781   7.618   2.437 -0.0258 -0.0322 -0.3299
36240SOL    HW112312   5.757   7.704   2.401  1.7495  0.5040 -0.3306
36240SOL    HW212313   5.778   7.630   2.532 -0.1729 -0.0897 -0.3271
36241SOL     OW12314   5.991   0.145   5.067  0.3968  0.6030 -0.2553
36241SOL    HW112315   5.986   0.196   5.148  0.9578  0.0567  0.1350
36241SOL    HW212316   5.904   0.109   5.055  0.7618 -0.7936  1.0984
36242SOL     OW12317   8.235   8.859   2.877  0.7764  0.1679  0.4584
36242SOL    HW112318   8.158   8.867   2.820  0.9051  1.6173  0.4533
36242SOL    HW212319   8.305   8.828   2.819  0.5491  0.2142  0.1579
36243SOL     OW12320   7.753   1.875   5.091  0.3321 -0.6543  0.1741
36243SOL    HW112321   7.758   1.968   5.112  1.5342 -0.1948 -1.8391
36243SOL    HW212322   7.675   1.843   5.137  0.8741  0.9294  2.3119
36244SOL     OW12323   2.155   8.424   4.491 -0.4335  0.1678  0.5926
36244SOL    HW112324   2.142   8.425   4.396 -1.2726 -0.1096  0.6957
36244SOL    HW212325   2.227   8.362   4.505  0.1055  0.6609  0.1043
36245SOL     OW12326   7.341   3.432   5.155  0.5925 -0.5110 -0.3534
36245SOL    HW112327   7.297   3.365   5.206  1.0283  0.7826  1.8490
36245SOL    HW212328   7.301   3.514   5.184  2.5970  0.4711 -0.2120
36246SOL     OW12329   3.068   1.557  10.934  0.1670  0.0987 -0.4913
36246SOL    HW112330   3.054   1.470  10.972  1.3682 -0.9383 -2.2402
36246SOL    HW212331   3.069   1.616  11.009 -0.5937 -1.3974  0.7611
36247SOL     OW12332   9.729   8.163   0.568  0.0158 -0.1183  0.4935
36247SOL    HW112333   9.721   8.094   0.634 -1.7961 -2.5875 -2.0536
36247SOL    HW212334   9.656   8.223   0.587 -2.6900 -2.6563 -1.0709
36248SOL     OW12335   1.004   5.471   4.557  0.0784  0.5384  0.1212
36248SOL    HW112336   0.965   5.406   4.615 -1.3573 -0.4321 -1.8285
36248SOL    HW212337   1.007   5.551   4.609 -1.8069 -0.1078  1.3139
36249SOL     OW12338   0.016   7.775   6.411 -0.0338  0.2129  0.3243
36249SOL    HW112339   0.056   7.744   6.330 -0.9415  0.5600 -0.2780
36249SOL    HW212340   0.073   7.743   6.481 -0.3703 -1.9310 -0.3156
36250SOL     OW12341   2.053   3.518  10.245 -0.0633 -0.0312  0.4125
36250SOL    HW112342   2.081   3.426  10.244  1.1661  0.3152 -0.9569
36250SOL    HW212343   2.021   3.533  10.156  0.6868  1.1271  0.3213
36251SOL     OW12344   5.423  10.867   9.217 -0.3686  0.2450  0.7496
36251SOL    HW112345   5.494  10.893   9.276  1.6651 -2.5189 -0.2421
36251SOL    HW212346   5.387  10.787   9.255 -1.6676  0.5471  0.2125
36252SOL     OW12347  10.743   4.121   1.584 -0.3741  0.6312 -0.6911
36252SOL    HW112348  10.762   4.175   1.507  1.1809  1.6484  0.3601
36252SOL    HW212349  10.804   4.047   1.577  1.8488  2.1744  0.9437
36253SOL     OW12350   1.704   1.961  11.055 -0.2348 -0.1434 -0.3709
36253SOL    HW112351   1.609   1.956  11.043 -0.3306  2.0609 -0.9537
36253SOL    HW212352   1.716   1.966  11.150 -0.6866 -0.3214 -0.3013
36254SOL     OW12353   8.692   3.623   8.734 -0.0833  0.2107 -0.6612
36254SOL    HW112354   8.602   3.654   8.738  0.3148  1.4105 -0.2055
36254SOL    HW212355   8.729   3.646   8.820  0.7506  0.0969 -0.9747
36255SOL     OW12356   5.655   6.134   2.851  0.0769 -0.0792  0.1349
36255SOL    HW112357   5.618   6.153   2.937 -1.2232 -0.5307 -0.3098
36255SOL    HW212358   5.667   6.039   2.850  0.7514 -0.0018  0.0610
36256SOL     OW12359   2.551   2.451   9.678  0.0849  0.5158 -0.4052
36256SOL    HW112360   2.585   2.376   9.728 -0.8995  0.9186  0.9114
36256SOL    HW212361   2.484   2.413   9.621  0.1659  0.2828 -0.3488
36257SOL     OW12362   8.901   0.995   0.688 -0.5590 -0.0746 -0.4047
36257SOL    HW112363   8.869   0.952   0.768  1.0755  1.7817  1.3653
36257SOL    HW212364   8.985   0.952   0.670  0.2334  1.1103  0.3413
36258SOL     OW12365   2.225   1.562  10.729 -0.1394  0.3224 -0.6726
36258SOL    HW112366   2.132   1.543  10.725 -0.2098  0.6490 -0.5360
36258SOL    HW212367   2.262   1.515  10.654  0.2532 -3.5879  1.6925
36259SOL     OW12368   3.280   9.709   6.221 -0.2003 -0.1771 -0.2698
36259SOL    HW112369   3.256   9.637   6.163  0.0201 -0.7497  0.3331
36259SOL    HW212370   3.326   9.771   6.165  0.9379 -1.2093 -0.5128
36260SOL     OW12371   1.978  10.832  10.486 -0.0896 -0.2709 -0.8579
36260SOL    HW112372   1.893  10.874  10.498  0.0535 -0.1791 -0.1279
36260SOL    HW212373   2.037  10.904  10.462 -0.0299 -0.1834 -0.4645
36261SOL     OW12374   0.575   4.171   5.623 -0.3209  0.3104  0.2070
36261SOL    HW112375   0.603   4.235   5.559 -0.1188  0.2422  0.2259
36261SOL    HW212376   0.656   4.126   5.650 -0.6909 -1.4307 -1.3977
36262SOL     OW12377   1.833   3.833   3.660  0.8937 -0.4336 -0.0458
36262SOL    HW112378   1.822   3.783   3.741  1.9899  1.4957  1.3605
36262SOL    HW212379   1.923   3.814   3.633  0.7750 -0.4734 -0.4233
36263SOL     OW12380   6.774   9.794   5.369 -0.2110  0.4241  0.5724
36263SOL    HW112381   6.839   9.734   5.406 -2.4814 -2.5641  0.0359
36263SOL    HW212382   6.735   9.837   5.445 -2.3901 -3.0510  1.6153
36264SOL     OW12383   3.809   2.085   8.438  0.2511 -0.4324 -0.2585
36264SOL    HW112384   3.858   2.104   8.359  0.5334 -0.1316 -0.0120
36264SOL    HW212385   3.770   2.168   8.464 -0.6212 -0.7234 -0.6064
36265SOL     OW12386   7.504   0.093   9.023  0.0845  0.4704  0.2738
36265SOL    HW112387   7.460   0.135   9.097  0.2048 -0.6309  0.9994
36265SOL    HW212388   7.434   0.069   8.963 -0.1987 -0.1674  0.8455
36266SOL     OW12389  10.185   3.388   5.386 -0.0437  0.3310 -0.3931
36266SOL    HW112390  10.094   3.361   5.396  0.1811 -0.1341  0.5680
36266SOL    HW212391  10.182   3.484   5.386 -0.7109  0.3470 -2.4092
36267SOL     OW12392   8.431  10.955   1.734  0.2158  0.3123 -0.4345
36267SOL    HW112393   8.495  10.922   1.671  1.0697 -0.9242  1.0209
36267SOL    HW212394   8.478  11.022   1.783  0.4271 -0.5714  0.6132
36268SOL     OW12395   3.467   1.204   1.648 -0.6346 -0.5270  0.2298
36268SOL    HW112396   3.517   1.149   1.709 -1.2255 -0.5038  0.7427
36268SOL    HW212397   3.409   1.256   1.704 -0.2550  0.4589 -0.2646
36269SOL     OW12398   2.166   0.850   8.857  0.2601  0.1786 -0.5198
36269SOL    HW112399   2.254   0.877   8.882 -0.9968  3.1093  1.1370
36269SOL    HW212400   2.117   0.846   8.939 -0.7517 -3.6564 -1.0846
36270SOL     OW12401  10.503   6.349   0.329  0.0239 -0.4524 -0.0879
36270SOL    HW112402  10.423   6.301   0.313 -0.8498  0.2669  1.7866
36270SOL    HW212403  10.572   6.282   0.331 -0.8960 -1.4115  0.6595
36271SOL     OW12404   6.184   5.042   3.429  0.3507 -0.0209  0.0768
36271SOL    HW112405   6.223   5.099   3.363  2.6649 -1.8572 -0.2710
36271SOL    HW212406   6.129   5.100   3.482  1.3598  2.1919 -1.1746
36272SOL     OW12407   9.382   8.583   2.944  0.7221 -0.2168  0.2305
36272SOL    HW112408   9.461   8.528   2.944  0.3644 -0.7416  0.6374
36272SOL    HW212409   9.411   8.666   2.981  0.9152 -0.6811  1.1470
36273SOL     OW12410   6.462   4.676   9.064  0.9941  0.0329  0.4474
36273SOL    HW112411   6.395   4.745   9.060  1.5494  0.5350 -1.3394
36273SOL    HW212412   6.482   4.658   8.972  1.8094 -1.6091  0.9135
36274SOL     OW12413   9.587   9.485   1.845 -0.8624  0.0520  0.1826
36274SOL    HW112414   9.642   9.522   1.776 -1.8886  0.7372 -0.2836
36274SOL    HW212415   9.645   9.424   1.891 -0.0936 -0.2450 -1.1207
36275SOL     OW12416   7.720   5.787   5.998 -0.7356 -0.2552 -0.3528
36275SOL    HW112417   7.645   5.810   5.942 -2.0544 -0.1787  1.3702
36275SOL    HW212418   7.702   5.697   6.026  0.5525 -0.7392 -1.0084
36276SOL     OW12419   1.415  10.969   4.786  0.3026 -0.0722 -0.2849
36276SOL    HW112420   1.399  11.003   4.874  1.9082 -0.9719  0.3971
36276SOL    HW212421   1.510  10.970   4.777  0.1863 -0.5415 -1.7971
36277SOL     OW12422   4.686   8.192   9.009 -0.0250 -0.0646  0.0645
36277SOL    HW112423   4.664   8.232   8.925 -0.0605 -1.6016 -0.6893
36277SOL    HW212424   4.706   8.266   9.066  0.7339  0.9845 -1.4957
36278SOL     OW12425   4.796   6.641   0.105 -0.4862 -0.0768  0.5601
36278SOL    HW112426   4.721   6.600   0.062  0.6642 -1.1202 -0.5686
36278SOL    HW212427   4.863   6.572   0.106  0.2493  0.6047  2.1383
36279SOL     OW12428   5.316   8.527   8.811  0.0806  0.0171  0.3991
36279SOL    HW112429   5.379   8.467   8.770  0.3841 -0.1542  1.0998
36279SOL    HW212430   5.346   8.614   8.785 -0.3592 -0.1228 -0.6197
36280SOL     OW12431   8.301   4.136   9.559 -0.2451  0.1436 -0.1639
36280SOL    HW112432   8.339   4.129   9.646  0.7282 -1.8227 -0.7018
36280SOL    HW212433   8.209   4.158   9.575 -0.4093 -1.5054  1.4283
36281SOL     OW12434   2.633   0.268   7.621 -0.3258 -0.5325  0.1389
36281SOL    HW112435   2.701   0.320   7.663  1.6817 -2.7318 -0.1662
36281SOL    HW212436   2.611   0.201   7.686 -1.7343 -0.2788 -0.0383
36282SOL     OW12437   7.385   0.558   9.412  0.1296 -0.2701  0.4795
36282SOL    HW112438   7.337   0.494   9.360 -1.5479  0.5297  0.9553
36282SOL    HW212439   7.477   0.545   9.389 -0.2983 -1.9214 -0.4173
36283SOL     OW12440   4.913   6.583   7.494 -0.3938  0.8670 -0.2255
36283SOL    HW112441   4.947   6.598   7.406 -0.5586  0.5465 -0.3437
36283SOL    HW212442   4.960   6.505   7.525 -0.9809  0.4524 -0.3703
36284SOL     OW12443  10.839   2.673   0.258  0.0022 -0.3845 -0.1606
36284SOL    HW112444  10.804   2.645   0.343 -0.2241  1.9006  0.5639
36284SOL    HW212445  10.852   2.592   0.209 -2.1701 -1.6106  1.1647
36285SOL     OW12446  10.349   9.540   8.913  0.8015 -0.1999  0.0338
36285SOL    HW112447  10.327   9.504   8.827 -1.2565  0.3657  0.2601
36285SOL    HW212448  10.438   9.573   8.903  1.3765 -1.9732 -1.2527
36286SOL     OW12449   3.098   2.429   5.181 -0.0927 -0.1994  0.1063
36286SOL    HW112450   3.006   2.452   5.172  0.2777  2.6609  2.0860
36286SOL    HW212451   3.146   2.507   5.152  1.4933 -0.0515  2.7046
36287SOL     OW12452   5.568   5.330   5.727 -0.6822  0.3909  0.0398
36287SOL    HW112453   5.557   5.405   5.786 -1.4437  0.1931  0.1489
36287SOL    HW212454   5.613   5.264   5.780  0.8144  1.0748 -0.3136
36288SOL     OW12455   9.427   0.420   8.486 -1.0002  0.4118  0.5026
36288SOL    HW112456   9.404   0.384   8.572  1.3455  1.0581  1.4982
36288SOL    HW212457   9.385   0.506   8.483 -0.2215  0.8581  1.5314
36289SOL     OW12458   2.833   4.943   5.269 -0.4304  0.6549 -0.2738
36289SOL    HW112459   2.813   5.025   5.315 -0.3786  0.8748 -0.6465
36289SOL    HW212460   2.790   4.876   5.322 -1.2822  1.0172 -0.4875
36290SOL     OW12461   0.384   0.389  10.127 -0.0897 -0.3189 -0.1148
36290SOL    HW112462   0.435   0.308  10.132 -0.3023 -0.5438 -1.3957
36290SOL    HW212463   0.293   0.362  10.137 -0.1348 -0.1891 -0.1689
36291SOL     OW12464   2.712   1.800   1.607 -0.0755 -0.2755 -0.1637
36291SOL    HW112465   2.737   1.709   1.591  2.0451  0.1090  0.6784
36291SOL    HW212466   2.741   1.848   1.529  0.3685 -0.0683  0.1248
36292SOL     OW12467   7.468   6.280   3.005  0.3300  0.2083 -0.4154
36292SOL    HW112468   7.424   6.351   2.957 -0.1722  0.1082 -0.1056
36292SOL    HW212469   7.552   6.272   2.961  0.6233  1.3705 -0.1076
36293SOL     OW12470   3.462   3.998   3.396  0.2605 -0.3215  0.1328
36293SOL    HW112471   3.525   3.934   3.363 -0.9840 -1.6300  0.1742
36293SOL    HW212472   3.384   3.983   3.343  0.4417  2.3827 -1.0494
36294SOL     OW12473   4.207   2.636   4.315 -0.2603 -0.8759  0.3325
36294SOL    HW112474   4.181   2.617   4.406 -1.5681  1.0906  0.4206
36294SOL    HW212475   4.134   2.604   4.262 -1.6124  1.8248  0.3601
36295SOL     OW12476   1.714   8.956  10.214 -0.0569  0.1664  0.8348
36295SOL    HW112477   1.741   9.027  10.271 -0.5089  1.1588 -0.1428
36295SOL    HW212478   1.718   8.878  10.269  0.7585  0.8921  1.8443
36296SOL     OW12479   9.464   4.483   1.528  0.6197 -0.1415  0.1037
36296SOL    HW112480   9.436   4.548   1.464 -1.8673 -1.1638  0.0233
36296SOL    HW212481   9.458   4.529   1.612 -1.4952 -0.2900  0.0901
36297SOL     OW12482   8.671  10.417   2.865  1.0075 -0.2051  0.0083
36297SOL    HW112483   8.658  10.511   2.858 -1.5961 -0.3829  1.1189
36297SOL    HW212484   8.590  10.379   2.831  1.2209 -1.9399  1.2805
36298SOL     OW12485  10.441   5.545   9.981 -0.0050  0.8200 -0.4728
36298SOL    HW112486  10.381   5.610  10.016  0.7221  0.3912  1.6909
36298SOL    HW212487  10.505   5.531  10.050 -0.8507 -3.1639 -0.2584
36299SOL     OW12488   1.414   3.528   8.606  0.3941 -0.3314 -0.1578
36299SOL    HW112489   1.337   3.472   8.598  1.1225 -1.3327 -0.5065
36299SOL    HW212490   1.463   3.491   8.680  1.3854 -0.8343 -1.0222
36300SOL     OW12491  11.054   3.537   0.059  0.3909  0.5313 -0.6485
36300SOL    HW112492  11.009   3.508  -0.020 -0.6591  0.8619 -0.1962
36300SOL    HW212493  11.039   3.466   0.122  1.6256  0.0492 -0.8646
36301SOL     OW12494   2.667   4.798   8.074  0.1006  0.2399 -0.0106
36301SOL    HW112495   2.756   4.820   8.102  1.7334 -3.3906 -1.7695
36301SOL    HW212496   2.627   4.755   8.149 -0.6073  2.5267  1.0405
36302SOL     OW12497   7.278   7.995   7.687  0.2673 -0.7803  0.3476
36302SOL    HW112498   7.352   8.051   7.660 -0.6029  0.6500  0.8033
36302SOL    HW212499   7.248   7.954   7.606 -0.0089  0.6091 -0.2809
36303SOL     OW12500   3.178   8.079   2.499  0.5766  0.1286  0.0997
36303SOL    HW112501   3.265   8.117   2.487 -0.0045  1.4113 -0.1875
36303SOL    HW212502   3.137   8.084   2.413 -0.5596  1.5858  0.6946
36304SOL     OW12503   3.477   5.590   7.026  0.0504 -0.0032 -0.6311
36304SOL    HW112504   3.539   5.517   7.019 -0.9324 -0.7581 -1.9386
36304SOL    HW212505   3.525   5.666   6.994  0.0899 -0.7434 -2.4450
36305SOL     OW12506   0.260   3.215   3.904 -0.0884 -0.2703  0.4370
36305SOL    HW112507   0.342   3.166   3.899  0.6459  0.7733  1.6809
36305SOL    HW212508   0.271   3.287   3.843  0.2854  0.3448  1.2073
36306SOL     OW12509   9.747   4.522   8.372  0.3213 -0.2431 -0.8177
36306SOL    HW112510   9.831   4.517   8.416 -0.2108 -1.2538  0.1262
36306SOL    HW212511   9.758   4.592   8.307  2.1427 -0.9255 -1.3006
36307SOL     OW12512   7.848   3.993   1.532 -0.3529 -0.2314  0.2898
36307SOL    HW112513   7.836   3.899   1.517 -0.5927 -0.2783  0.7358
36307SOL    HW212514   7.868   4.030   1.446  1.4537 -0.9453  0.3595
36308SOL     OW12515   0.117   8.049   7.856  0.1530 -0.3967 -0.0667
36308SOL    HW112516   0.191   8.080   7.908  0.0826 -0.4250  0.0510
36308SOL    HW212517   0.044   8.046   7.918  0.1051 -0.5777 -0.1327
36309SOL     OW12518   9.008   4.782   5.504 -0.1827 -0.3529  0.0461
36309SOL    HW112519   8.996   4.746   5.592 -2.2293 -0.3148 -0.1749
36309SOL    HW212520   8.920   4.787   5.467  0.6063 -0.2332 -1.9781
36310SOL     OW12521   9.248   0.407   3.695  0.1713 -1.1563  0.0682
36310SOL    HW112522   9.337   0.433   3.671 -0.0511 -1.9435 -1.7748
36310SOL    HW212523   9.195   0.428   3.619 -1.5814  0.7867  1.7040
36311SOL     OW12524  10.297   8.946   7.754  0.1173 -0.0430 -0.2133
36311SOL    HW112525  10.359   8.936   7.826  0.7698  1.5271 -0.4953
36311SOL    HW212526  10.352   8.951   7.676 -0.2469  2.0676 -0.4014
36312SOL     OW12527   6.753   6.101   7.061  0.6204  0.2860  0.8545
36312SOL    HW112528   6.839   6.143   7.067 -0.5456  3.0865 -0.3848
36312SOL    HW212529   6.767   6.025   7.006  2.2708  0.7987  0.5066
36313SOL     OW12530   5.513   0.344   4.161 -0.1559 -0.6446 -0.3121
36313SOL    HW112531   5.573   0.278   4.127  1.0358  0.5779 -0.6977
36313SOL    HW212532   5.565   0.424   4.163 -1.3826  0.1602  0.6974
36314SOL     OW12533   2.980   4.934   8.621  0.2883  0.2361 -0.6295
36314SOL    HW112534   3.003   4.909   8.531 -0.6172  0.2426 -0.8760
36314SOL    HW212535   3.004   5.026   8.627  0.9167  0.0841 -0.6593
36315SOL     OW12536   3.751   9.429   9.881 -0.1777 -0.1362 -0.0661
36315SOL    HW112537   3.700   9.507   9.862  0.1410  0.5193  1.5799
36315SOL    HW212538   3.702   9.357   9.840 -0.4438  0.9008 -1.6555
36316SOL     OW12539   4.019  10.813   3.009  0.2859 -0.8666  0.0129
36316SOL    HW112540   4.025  10.835   3.102 -0.1034  0.1677 -0.1940
36316SOL    HW212541   4.110  10.817   2.978  0.5701 -2.3652  0.5797
36317SOL     OW12542  10.982   9.494   3.023 -0.1871 -0.2340 -0.0626
36317SOL    HW112543  10.999   9.499   3.117  1.1344 -0.6593 -0.2506
36317SOL    HW212544  11.069   9.491   2.983 -0.5888 -3.5678 -1.0787
36318SOL     OW12545   0.025   9.535   1.452  0.1450 -0.2025  0.0339
36318SOL    HW112546  -0.011   9.456   1.493  0.1800 -0.2797 -0.0828
36318SOL    HW212547   0.120   9.525   1.459  0.2167 -1.0973 -1.6855
36319SOL     OW12548   5.262  10.752   7.602 -0.1926  0.5325  0.3087
36319SOL    HW112549   5.309  10.783   7.679 -2.1097 -1.4783  2.4468
36319SOL    HW212550   5.300  10.666   7.583 -2.8070 -1.2298  2.1991
36320SOL     OW12551   7.743   3.088   0.421  0.5673 -0.2955  0.3171
36320SOL    HW112552   7.742   3.182   0.436  1.2503 -0.0041 -1.2172
36320SOL    HW212553   7.651   3.062   0.420  0.3689  0.3860  0.5926
36321SOL     OW12554   4.111   6.135   7.815  0.4862  0.0296 -0.1480
36321SOL    HW112555   4.201   6.155   7.840 -0.1806  0.8005  1.9310
36321SOL    HW212556   4.076   6.217   7.781  0.3518 -0.0544 -0.2153
36322SOL     OW12557   0.213   9.654   5.921 -0.2435 -0.0784  0.4221
36322SOL    HW112558   0.250   9.573   5.886  0.1457  0.9131 -1.6448
36322SOL    HW212559   0.121   9.652   5.893  0.4308  1.4470 -2.2998
36323SOL     OW12560   3.271   9.859  10.437  0.1381 -0.3602  0.1645
36323SOL    HW112561   3.199   9.803  10.467  0.3399 -0.9296 -0.3947
36323SOL    HW212562   3.334   9.799  10.398  1.7546 -0.0835  2.1753
36324SOL     OW12563   0.547   2.132   6.784  0.6879 -0.5749  1.0341
36324SOL    HW112564   0.557   2.222   6.816  1.2533 -0.7492  1.3597
36324SOL    HW212565   0.525   2.081   6.862  0.3177 -0.7158  0.8408
36325SOL     OW12566  10.716  10.370   9.803 -0.2789 -0.3556  0.7745
36325SOL    HW112567  10.753  10.319   9.731 -0.5165  0.1557  0.2789
36325SOL    HW212568  10.743  10.460   9.785 -0.5005 -0.1960  1.2254
36326SOL     OW12569   4.933   6.064   0.868  0.1355 -0.4471 -0.4514
36326SOL    HW112570   5.013   6.081   0.819 -0.3146  1.8719 -0.4887
36326SOL    HW212571   4.950   6.100   0.955  0.1107 -2.5142  0.4745
36327SOL     OW12572   9.713   5.118  10.529  0.0470  0.1041 -0.1178
36327SOL    HW112573   9.772   5.098  10.602  0.6251 -0.0108 -0.6071
36327SOL    HW212574   9.766   5.103  10.450 -0.6644 -0.0962 -0.5714
36328SOL     OW12575   4.899  10.752   1.685  0.3251 -0.4851 -0.3550
36328SOL    HW112576   4.942  10.831   1.654 -1.7000  0.8481  0.0589
36328SOL    HW212577   4.901  10.758   1.781 -1.4622  0.0705 -0.3073
36329SOL     OW12578   0.923   2.462  10.478  0.0889  0.8001 -0.1679
36329SOL    HW112579   0.965   2.494  10.557 -0.5338 -0.0160  0.5148
36329SOL    HW212580   0.834   2.499  10.480 -0.6797 -0.9629  0.6933
36330SOL     OW12581   5.364   7.452   7.776  0.4391  0.4109  0.0372
36330SOL    HW112582   5.395   7.391   7.708 -1.0508 -0.3505 -0.0010
36330SOL    HW212583   5.434   7.452   7.841  0.6975 -0.9741 -0.2025
36331SOL     OW12584   8.032   1.042   8.581  0.1246 -0.1051  0.0772
36331SOL    HW112585   8.060   0.997   8.660 -0.3631 -0.4074  0.0835
36331SOL    HW212586   8.095   1.014   8.514  0.1263 -0.4003  0.1994
36332SOL     OW12587   7.256   1.835   8.435 -0.8812 -0.1405  0.2411
36332SOL    HW112588   7.249   1.861   8.343  0.4987  0.1395  0.1955
36332SOL    HW212589   7.260   1.740   8.432  0.1411 -0.0992 -0.0840
36333SOL     OW12590   5.754   0.343   6.100  0.4265 -0.2105  0.0902
36333SOL    HW112591   5.846   0.316   6.099 -0.1134 -2.1493 -0.6702
36333SOL    HW212592   5.720   0.309   6.183  0.0702 -0.6905 -0.2495
36334SOL     OW12593   1.073   8.756   0.847  0.6315 -0.0763 -0.0977
36334SOL    HW112594   1.013   8.683   0.831  2.1958 -1.2989 -0.6646
36334SOL    HW212595   1.041   8.797   0.927 -1.3246 -0.2624 -0.7328
36335SOL     OW12596  10.796   0.556   2.042 -0.7325  0.7410  0.4248
36335SOL    HW112597  10.799   0.594   2.130 -0.1906  0.4470  0.5376
36335SOL    HW212598  10.743   0.477   2.051 -1.4323  1.1938  0.2974
36336SOL     OW12599   7.225   5.363   5.864 -0.2794  0.1158  0.0717
36336SOL    HW112600   7.276   5.445   5.870  1.0040 -0.3446 -2.7251
36336SOL    HW212601   7.137   5.388   5.890  0.4500  1.9543  1.0141
36337SOL     OW12602   3.628   9.369   3.592 -0.3702 -0.0674  0.1029
36337SOL    HW112603   3.685   9.389   3.666 -0.2768 -0.3637  0.1109
36337SOL    HW212604   3.560   9.436   3.596  1.3118  1.8647 -1.3723
36338SOL     OW12605   0.578   1.010   4.384 -0.0212 -0.3905  0.8863
36338SOL    HW112606   0.661   0.963   4.383 -0.6112 -1.4598  0.7971
36338SOL    HW212607   0.575   1.051   4.471  0.5184 -0.4623  0.9457
36339SOL     OW12608   8.365   9.275   9.369 -0.2067  0.6063 -0.1771
36339SOL    HW112609   8.354   9.223   9.448 -1.5677 -1.9594 -1.9091
36339SOL    HW212610   8.460   9.281   9.357 -0.0085 -0.9006  0.4695
36340SOL     OW12611   4.408   8.393   7.673  0.4682 -0.0979  1.0852
36340SOL    HW112612   4.445   8.305   7.671 -0.7132 -0.6110  1.2902
36340SOL    HW212613   4.395   8.412   7.766  1.8856  0.8185  1.1295
36341SOL     OW12614   6.072   0.859   7.316 -0.2802 -0.3003  0.3730
36341SOL    HW112615   6.023   0.811   7.249  0.1773  0.6965 -0.7241
36341SOL    HW212616   6.143   0.799   7.341  2.6278  0.9559 -3.7353
36342SOL     OW12617  11.068   5.643   4.010  0.0643  0.0089  0.0635
36342SOL    HW112618  11.060   5.723   3.959  0.6574 -0.5388 -0.9315
36342SOL    HW212619  11.100   5.671   4.095 -1.0469  0.9600  0.1895
36343SOL     OW12620  10.514   5.593  10.616  0.1215 -0.0750 -0.0184
36343SOL    HW112621  10.450   5.631  10.676 -0.2648  1.2840 -1.2461
36343SOL    HW212622  10.463   5.532  10.562 -0.0772  0.7113 -0.7324
36344SOL     OW12623   6.131   7.843   9.748 -0.5428  0.0368 -0.2395
36344SOL    HW112624   6.149   7.836   9.841 -1.5710  0.9877  0.0502
36344SOL    HW212625   6.119   7.936   9.732 -1.1092 -0.1759 -1.1733
36345SOL     OW12626  10.356   9.704   0.396 -0.7459 -0.1649  0.2125
36345SOL    HW112627  10.341   9.610   0.404 -2.4940  0.1152  0.5285
36345SOL    HW212628  10.436   9.711   0.344 -1.2423 -1.8158 -0.8484
36346SOL     OW12629   8.101   2.348   5.207  0.6815 -0.2442  0.1611
36346SOL    HW112630   8.089   2.305   5.122  0.5145 -0.3874  0.2563
36346SOL    HW212631   8.047   2.428   5.200 -1.9684 -1.8040  1.2588
36347SOL     OW12632   8.851   4.220   0.068  0.0208  0.1113  0.4868
36347SOL    HW112633   8.834   4.310   0.041 -0.2132  0.0919  0.5639
36347SOL    HW212634   8.834   4.168  -0.011  1.3795  0.2472  0.0822
36348SOL     OW12635   1.594  10.408  10.157 -0.0385 -0.7084 -0.1136
36348SOL    HW112636   1.503  10.435  10.151 -0.4130 -1.8636  0.2840
36348SOL    HW212637   1.617  10.382  10.067  0.4293  1.1622 -0.5785
36349SOL     OW12638   1.261   2.268   1.806  0.0535 -0.1087  0.0537
36349SOL    HW112639   1.337   2.246   1.752 -0.5772  0.6124 -1.1715
36349SOL    HW212640   1.187   2.268   1.745 -0.9912 -0.9886  1.2447
36350SOL     OW12641   3.521   5.194   7.843  0.3108  0.0241 -0.0596
36350SOL    HW112642   3.589   5.194   7.775 -1.2376  0.1251 -1.6679
36350SOL    HW212643   3.568   5.172   7.923  1.9995 -1.3979 -1.3583
36351SOL     OW12644   0.847   7.694   9.202  0.0106  0.4414  0.5083
36351SOL    HW112645   0.798   7.714   9.122  0.2171 -0.1583  0.2241
36351SOL    HW212646   0.882   7.606   9.187 -1.0668 -0.2425  1.8184
36352SOL     OW12647   4.515   3.296   8.440 -0.1468  0.2674  0.1860
36352SOL    HW112648   4.502   3.232   8.370  1.6605  1.4844 -1.3387
36352SOL    HW212649   4.594   3.266   8.486 -0.9625 -0.1749  1.3491
36353SOL     OW12650   7.246   8.436   5.070 -0.5404  0.4120  0.1514
36353SOL    HW112651   7.190   8.375   5.119  1.1892 -1.2388  0.1468
36353SOL    HW212652   7.275   8.499   5.136  1.5232 -1.6171  1.2950
36354SOL     OW12653   7.508   5.579   2.673 -0.0759 -0.5629 -0.0657
36354SOL    HW112654   7.511   5.655   2.615 -0.4415 -0.5108 -0.0247
36354SOL    HW212655   7.441   5.602   2.737 -1.6528 -1.7184 -1.2219
36355SOL     OW12656   8.290   7.200   5.992 -0.2064  0.5345 -0.1603
36355SOL    HW112657   8.288   7.219   6.086 -1.3012 -0.1398 -0.0380
36355SOL    HW212658   8.199   7.186   5.968  0.1778 -0.6191 -1.0451
36356SOL     OW12659   7.788   0.784   9.506 -0.1269 -0.2146  0.0758
36356SOL    HW112660   7.855   0.778   9.574 -0.3966  1.7306  0.5581
36356SOL    HW212661   7.720   0.840   9.544 -1.9851 -1.9638 -0.4705
36357SOL     OW12662  10.128   7.391   5.791 -0.1290  0.4311  0.7658
36357SOL    HW112663  10.169   7.438   5.719 -0.6869  0.0429  0.1885
36357SOL    HW212664  10.041   7.431   5.800  0.9254  2.5377  3.1939
36358SOL     OW12665   9.222   0.900   1.504  0.0099 -0.5434  0.1600
36358SOL    HW112666   9.235   0.992   1.530  0.3461 -0.8223  1.0245
36358SOL    HW212667   9.178   0.905   1.420 -0.4478  0.4194  0.4398
36359SOL     OW12668   8.085   9.337   1.909  0.3026  0.8586 -0.2518
36359SOL    HW112669   8.166   9.316   1.862  0.2269  3.1842 -1.5675
36359SOL    HW212670   8.024   9.268   1.883  1.8170 -1.0094  0.8641
36360SOL     OW12671   2.341  10.750   9.177 -0.4504  0.1313  0.4641
36360SOL    HW112672   2.390  10.723   9.099  0.7089  0.8058  0.9317
36360SOL    HW212673   2.313  10.840   9.158 -0.7389  0.0601  0.5529
36361SOL     OW12674  10.084  10.473   3.014 -0.7132 -0.9786 -0.1479
36361SOL    HW112675  10.062  10.413   3.086  2.3335 -1.7033  0.3058
36361SOL    HW212676  10.115  10.552   3.057  0.4440 -1.1448 -0.6510
36362SOL     OW12677   5.914   5.382   8.736 -0.0216 -0.0554  0.5095
36362SOL    HW112678   5.932   5.452   8.799  0.0346  0.3433  0.0629
36362SOL    HW212679   5.819   5.371   8.740  0.0325 -0.3810  1.0183
36363SOL     OW12680   5.318   4.771   7.034 -0.0709 -0.0265  0.2245
36363SOL    HW112681   5.392   4.725   7.072 -0.0038 -0.9181 -0.9467
36363SOL    HW212682   5.257   4.783   7.107  1.4343  1.2486  1.3493
36364SOL     OW12683   8.278   6.139   0.926 -0.3564 -0.4881  0.0087
36364SOL    HW112684   8.214   6.069   0.938  0.5228 -1.2467  0.4559
36364SOL    HW212685   8.350   6.098   0.878  0.3615 -0.0228  0.6489
36365SOL     OW12686   2.276   8.475   3.106 -0.8123 -0.0709  0.6313
36365SOL    HW112687   2.338   8.416   3.151  0.7168  0.3410 -0.8408
36365SOL    HW212688   2.202   8.482   3.166  0.2966 -1.0865  2.1946
36366SOL     OW12689  10.262  10.417   5.324 -0.5956  0.0223  0.0585
36366SOL    HW112690  10.217  10.342   5.363  0.3408  0.3246  1.8688
36366SOL    HW212691  10.352  10.386   5.312 -0.8065  0.0272 -1.7118
36367SOL     OW12692   3.091   2.324   2.952  0.0949 -0.2049 -0.5166
36367SOL    HW112693   3.112   2.364   3.037 -0.4763  0.2650 -0.5910
36367SOL    HW212694   2.996   2.310   2.955 -0.0278  0.4193 -1.3340
36368SOL     OW12695   6.617   7.622   8.975  0.5744  0.1222  0.2316
36368SOL    HW112696   6.640   7.529   8.975  2.0181  0.4322  1.7805
36368SOL    HW212697   6.525   7.624   9.001  0.4718 -0.8754 -0.0070
36369SOL     OW12698  10.792   6.137   1.619 -0.2760 -0.3716  0.1219
36369SOL    HW112699  10.760   6.118   1.531 -1.6059 -1.4545  0.8120
36369SOL    HW212700  10.880   6.098   1.621  0.1924  0.5534 -1.0233
36370SOL     OW12701   6.427   3.828   8.718  0.1275 -0.2275 -0.0754
36370SOL    HW112702   6.340   3.866   8.709 -0.0546 -0.6436 -0.0978
36370SOL    HW212703   6.484   3.902   8.740  0.3449  0.6277 -3.1073
36371SOL     OW12704   4.392   1.898   9.832  0.7279  0.0423 -0.1410
36371SOL    HW112705   4.468   1.944   9.796  0.0148  2.1415  0.8397
36371SOL    HW212706   4.429   1.832   9.890  1.8466 -2.0185 -2.9892
36372SOL     OW12707   8.008   3.966   8.295 -0.5312 -0.0016  0.5964
36372SOL    HW112708   7.923   3.944   8.258 -0.7969  1.8117  0.0053
36372SOL    HW212709   7.996   4.054   8.331  0.7925 -0.1696  1.5290
36373SOL     OW12710   0.577  11.032   4.742  0.5340 -0.1952 -0.2761
36373SOL    HW112711   0.501  10.999   4.789 -0.1860  2.6317  0.7761
36373SOL    HW212712   0.647  11.032   4.806  1.0992 -1.5583 -0.8676
36374SOL     OW12713   5.719   4.327   5.783 -0.0420 -0.1666  0.1798
36374SOL    HW112714   5.674   4.245   5.762 -0.4590 -0.2487  1.3462
36374SOL    HW212715   5.802   4.299   5.822 -0.9121 -0.0910  2.1861
36375SOL     OW12716  10.304   8.435   0.981  0.2201  0.0711 -0.0619
36375SOL    HW112717  10.317   8.395   0.895 -1.9049  0.5584 -0.6752
36375SOL    HW212718  10.257   8.369   1.032  0.8079  0.0649  0.4872
36376SOL     OW12719   3.784   4.511   9.104 -0.5867 -0.6191 -0.2885
36376SOL    HW112720   3.744   4.442   9.051 -0.8198 -0.6906 -0.0217
36376SOL    HW212721   3.794   4.472   9.191  0.7519 -0.8505 -0.5285
36377SOL     OW12722   1.892  10.317   9.192 -0.1176  0.0960 -0.0083
36377SOL    HW112723   1.884  10.395   9.136  2.2696  0.1999 -0.3113
36377SOL    HW212724   1.814  10.265   9.171 -2.8871  3.2139  1.6733
36378SOL     OW12725   2.303   0.574   1.509  0.4900 -0.2527  0.3614
36378SOL    HW112726   2.242   0.643   1.536  0.9153  0.0174  0.6467
36378SOL    HW212727   2.316   0.589   1.415 -2.1316 -2.0815 -0.3810
36379SOL     OW12728   4.863  10.228   1.637  0.5650 -0.1994  0.4473
36379SOL    HW112729   4.910  10.302   1.597 -1.0718  0.2695 -0.7052
36379SOL    HW212730   4.840  10.259   1.725  2.0306 -0.2985  0.8902
36380SOL     OW12731   2.012   5.715   6.978 -0.0854 -0.3106  0.1142
36380SOL    HW112732   2.085   5.665   6.943 -0.1181  0.4284 -1.0391
36380SOL    HW212733   1.938   5.654   6.976 -0.1164 -0.2487 -1.2489
36381SOL     OW12734   9.187   8.666   2.179 -0.4048 -0.5881  0.1916
36381SOL    HW112735   9.265   8.611   2.175  0.5786  0.8210 -0.7238
36381SOL    HW212736   9.128   8.628   2.114  0.2661 -0.5704 -0.4426
36382SOL     OW12737   0.341   4.321   2.087  0.1858 -0.0870 -0.2569
36382SOL    HW112738   0.276   4.298   2.022  0.1568  1.2297 -0.7329
36382SOL    HW212739   0.291   4.361   2.159  0.4011  0.4307 -0.3860
36383SOL     OW12740   1.797   3.511   1.465 -0.1432 -0.0198 -0.3258
36383SOL    HW112741   1.851   3.573   1.514  1.0442  0.1935 -1.8281
36383SOL    HW212742   1.708   3.528   1.496  0.5670 -0.1006  1.9229
36384SOL     OW12743  10.252   1.012   4.725  0.5274 -0.1711  0.1268
36384SOL    HW112744  10.158   1.011   4.748  0.3299 -0.1833 -0.6661
36384SOL    HW212745  10.282   0.924   4.748  0.5231  0.0552  1.0644
36385SOL     OW12746   5.016  11.045   0.352 -0.2831  0.1756  0.8868
36385SOL    HW112747   5.011  10.976   0.286 -0.6175  0.9109  0.1201
36385SOL    HW212748   5.010  11.127   0.301  0.0742  0.7651  1.7720
36386SOL     OW12749   7.569   2.025   7.594  0.1702  0.1725 -0.0603
36386SOL    HW112750   7.586   1.934   7.572  0.1744  0.5265 -1.6456
36386SOL    HW212751   7.655   2.068   7.588  0.4726  0.0254  2.2543
36387SOL     OW12752   0.067   7.840   9.626  0.1046  0.2580 -0.2193
36387SOL    HW112753   0.008   7.768   9.605 -0.5379  0.4734  0.7513
36387SOL    HW212754   0.022   7.918   9.593  0.6550  0.2590 -0.9943
36388SOL     OW12755   7.626   4.941   8.162 -0.4008  1.2180  0.7394
36388SOL    HW112756   7.593   4.986   8.085  0.1493  0.2589 -0.0877
36388SOL    HW212757   7.721   4.938   8.149 -0.4025  0.0468  0.8864
36389SOL     OW12758   6.314   1.134   9.091 -0.0377 -0.1600 -0.5459
36389SOL    HW112759   6.338   1.085   9.170 -0.4749 -1.1733 -1.0106
36389SOL    HW212760   6.317   1.068   9.021  0.3230  0.7144 -1.3721
36390SOL     OW12761   0.086   2.012   1.861 -0.1188  0.4859 -0.3744
36390SOL    HW112762   0.175   2.034   1.835  0.4995 -0.8548  0.5306
36390SOL    HW212763   0.031   2.071   1.809  0.9847 -1.8475 -4.6489
36391SOL     OW12764   3.142   8.815   9.276  0.7949 -0.2950  0.5958
36391SOL    HW112765   3.108   8.733   9.241  1.3502  0.0067 -0.6934
36391SOL    HW212766   3.116   8.814   9.368  0.5696 -1.7922  0.5390
36392SOL     OW12767   5.383   9.582   2.239 -0.1277 -0.5917 -0.3441
36392SOL    HW112768   5.359   9.490   2.231  0.2404 -0.5765 -2.1338
36392SOL    HW212769   5.458   9.593   2.180  0.3278  0.6900  0.4163
36393SOL     OW12770   0.686   2.632   2.875 -0.1940  0.2028  0.2343
36393SOL    HW112771   0.658   2.691   2.945 -2.4807 -1.9159  1.2894
36393SOL    HW212772   0.671   2.544   2.911  1.1709 -1.0273 -1.9500
36394SOL     OW12773  10.148   2.336   2.039 -0.0203 -0.2998 -0.5141
36394SOL    HW112774  10.215   2.365   1.977 -0.6339  1.0832 -0.5744
36394SOL    HW212775  10.155   2.398   2.112 -1.7031  0.3673 -0.8599
36395SOL     OW12776   8.440  10.044   4.484  0.3956 -0.4064  0.1965
36395SOL    HW112777   8.418  10.002   4.401 -0.3258  0.8258 -0.2507
36395SOL    HW212778   8.526  10.008   4.506  0.7827 -0.4607 -1.2899
36396SOL     OW12779   3.918   7.671   8.163  0.3422  0.1060 -0.2049
36396SOL    HW112780   3.833   7.710   8.184  0.1075 -0.9759  0.9576
36396SOL    HW212781   3.923   7.675   8.067 -1.2767 -0.3021 -0.3429
36397SOL     OW12782   5.193   0.880   7.010 -0.3882  0.6172  0.0102
36397SOL    HW112783   5.231   0.941   7.073 -0.8096  0.2693  0.6139
36397SOL    HW212784   5.259   0.871   6.941  0.4843  0.2472  0.8872
36398SOL     OW12785   1.498   4.173   8.342 -0.1805 -0.1388  0.3956
36398SOL    HW112786   1.534   4.208   8.423  0.5601 -1.8924  0.8870
36398SOL    HW212787   1.517   4.239   8.276 -1.2395  1.5458  1.7061
36399SOL     OW12788   0.666   4.734   1.475 -0.2554 -0.1562 -0.2795
36399SOL    HW112789   0.713   4.668   1.526 -0.4418 -0.3670 -0.3770
36399SOL    HW212790   0.573   4.715   1.491 -0.3106 -0.0286 -0.4459
36400SOL     OW12791  10.679   2.901   3.027  0.0645  0.1765 -0.3194
36400SOL    HW112792  10.647   2.968   3.087 -1.3372 -0.3001 -0.4904
36400SOL    HW212793  10.640   2.820   3.060  1.3208 -0.4802 -0.4118
36401SOL     OW12794  10.076   0.423   4.113 -0.2209 -0.4848  0.6625
36401SOL    HW112795   9.982   0.440   4.107  0.1980  2.2469  0.4021
36401SOL    HW212796  10.100   0.388   4.027 -0.6318  1.1792 -0.1669
36402SOL     OW12797   7.274   6.564   3.203  0.4135 -0.1017 -0.2786
36402SOL    HW112798   7.220   6.536   3.129  0.4694  2.1597 -1.2521
36402SOL    HW212799   7.364   6.550   3.174  0.4366  0.8235 -0.6890
36403SOL     OW12800   0.840   2.677   7.168  0.6056 -0.3979  0.6089
36403SOL    HW112801   0.909   2.726   7.213  1.2240  1.7931 -2.4016
36403SOL    HW212802   0.885   2.636   7.094 -1.1904  0.8534 -1.2819
36404SOL     OW12803   6.830   0.066   0.972  0.1390  0.1036 -0.0108
36404SOL    HW112804   6.843  -0.024   1.001  1.7949 -0.1700 -1.4168
36404SOL    HW212805   6.735   0.076   0.967 -0.0864 -1.6077  0.0645
36405SOL     OW12806   9.011   4.240   1.827  0.2600 -0.3510  0.0588
36405SOL    HW112807   8.937   4.243   1.888 -0.0241 -1.4929 -0.2121
36405SOL    HW212808   8.980   4.186   1.755  1.4733 -1.1423  0.1043
36406SOL     OW12809   2.544   0.356   6.172  0.2559 -0.2497  0.1203
36406SOL    HW112810   2.559   0.439   6.217 -0.3380  0.5871 -1.1596
36406SOL    HW212811   2.498   0.301   6.236  0.5483  0.4448  0.9360
36407SOL     OW12812  10.963   5.786   0.207 -0.4033  0.1192 -0.5465
36407SOL    HW112813  10.892   5.752   0.262 -0.9677  0.0415 -1.2973
36407SOL    HW212814  11.042   5.747   0.242 -0.6263  0.8261  0.8177
36408SOL     OW12815  10.142   8.670   8.517 -0.1340  0.3035 -0.6760
36408SOL    HW112816  10.222   8.672   8.570 -0.6200 -0.0154  0.0821
36408SOL    HW212817  10.128   8.761   8.492 -0.6812  0.7079  0.9650
36409SOL     OW12818   2.170   3.350   5.783 -0.3343  0.6300  0.6648
36409SOL    HW112819   2.160   3.414   5.854  0.3243  0.9111  0.5189
36409SOL    HW212820   2.250   3.303   5.805 -0.3041  0.4968  0.2826
36410SOL     OW12821   7.721   1.588   9.388 -0.4505 -0.1645  0.7076
36410SOL    HW112822   7.724   1.533   9.466  0.7927  0.0099  0.8035
36410SOL    HW212823   7.797   1.562   9.337 -1.5238 -0.6327 -0.7161
36411SOL     OW12824   9.721   8.236   5.992 -0.1882 -0.4773  0.3970
36411SOL    HW112825   9.659   8.247   5.920 -0.8682  0.5546  1.1026
36411SOL    HW212826   9.675   8.271   6.068  1.2320  0.2647  0.9552
36412SOL     OW12827   6.269   2.259   7.173  0.2737  0.0702  0.2135
36412SOL    HW112828   6.233   2.171   7.170  1.7750 -0.5540 -0.8694
36412SOL    HW212829   6.283   2.277   7.266  0.4617 -1.0623  0.4129
36413SOL     OW12830   8.749   4.693   2.231 -0.1872  0.2761  0.4081
36413SOL    HW112831   8.814   4.714   2.298  0.2087 -1.3852  0.5945
36413SOL    HW212832   8.665   4.699   2.277  0.0628 -0.5592  1.0054
36414SOL     OW12833  10.434   6.763   8.967  0.4752 -0.7639  0.4820
36414SOL    HW112834  10.496   6.835   8.955  0.6741 -0.9042  0.6499
36414SOL    HW212835  10.430   6.751   9.062  1.4458 -1.8345  0.4122
36415SOL     OW12836   1.444   5.631   2.335  0.3604 -0.1668 -0.2993
36415SOL    HW112837   1.485   5.546   2.318 -1.7673 -1.2407 -0.4202
36415SOL    HW212838   1.408   5.624   2.423 -1.4005 -0.1186 -0.9646
36416SOL     OW12839   1.403   9.671   0.859  0.3893  0.3567  0.0790
36416SOL    HW112840   1.321   9.638   0.896  0.8981 -4.1395 -2.1298
36416SOL    HW212841   1.469   9.606   0.883  2.2675  1.1846 -2.3445
36417SOL     OW12842  10.833   2.166   0.871  0.4500  0.2132 -0.2788
36417SOL    HW112843  10.739   2.153   0.874  0.7539 -2.3097  0.7536
36417SOL    HW212844  10.861   2.163   0.963  1.6313  0.0548 -0.6263
36418SOL     OW12845   9.144   3.829   4.837 -0.2351 -0.4224  0.3957
36418SOL    HW112846   9.050   3.824   4.855 -0.4200 -3.3334 -0.7384
36418SOL    HW212847   9.151   3.885   4.760 -0.9004  0.6598  1.1014
36419SOL     OW12848   4.920   3.177   2.272  0.4291 -0.1791  0.3017
36419SOL    HW112849   4.912   3.256   2.326  0.3361  0.5338 -0.7194
36419SOL    HW212850   5.007   3.143   2.292  0.0628 -0.4349  1.5487
36420SOL     OW12851   9.104   7.941   7.442 -0.7069 -0.2556  0.3154
36420SOL    HW112852   9.195   7.952   7.416 -1.1022 -0.2508 -1.1155
36420SOL    HW212853   9.093   7.847   7.454 -1.3851 -0.7171 -3.0420
36421SOL     OW12854   2.061   0.001   6.365 -0.0504  0.6008 -0.3753
36421SOL    HW112855   2.075   0.018   6.272 -2.4107 -1.2046 -1.1677
36421SOL    HW212856   2.148  -0.024   6.398  0.4223 -1.3631 -2.7643
36422SOL     OW12857   4.052   7.904   3.658  0.6391  0.7784 -0.3196
36422SOL    HW112858   4.049   7.889   3.564 -0.3682 -0.0969 -0.1709
36422SOL    HW212859   4.143   7.927   3.676  1.3362 -1.1147 -1.2102
36423SOL     OW12860   2.271   3.254   9.620 -0.6770 -0.5974  0.4233
36423SOL    HW112861   2.312   3.314   9.683 -1.4708  1.4439 -0.9101
36423SOL    HW212862   2.185   3.291   9.603 -0.4769 -1.0169 -1.9005
36424SOL     OW12863   9.853   1.594   1.325 -0.0117 -0.1903  0.0405
36424SOL    HW112864   9.935   1.645   1.328  0.4809 -0.8526 -1.4138
36424SOL    HW212865   9.877   1.513   1.282 -1.2888 -0.7360  0.3235
36425SOL     OW12866   7.607   5.196   1.891  0.3069 -0.4319 -0.2699
36425SOL    HW112867   7.674   5.254   1.927  0.6663 -1.2985  0.4845
36425SOL    HW212868   7.548   5.179   1.963 -0.6526  0.1911 -0.8903
36426SOL     OW12869   6.927   8.389   1.547 -0.5542 -0.2337 -0.0097
36426SOL    HW112870   7.022   8.384   1.541 -0.4806  1.1225 -0.4075
36426SOL    HW212871   6.896   8.317   1.492  0.2163 -1.8288  1.5585
36427SOL     OW12872   8.198   3.529   8.717  0.1230 -0.3646 -0.0043
36427SOL    HW112873   8.140   3.578   8.775  0.0890 -0.1010 -0.2556
36427SOL    HW212874   8.278   3.581   8.714  0.3080 -0.6401  0.2065
36428SOL     OW12875   4.051   2.101   5.577 -0.4974  0.2730  0.0196
36428SOL    HW112876   3.965   2.100   5.534  0.0280  0.7492 -1.1064
36428SOL    HW212877   4.092   2.019   5.549  0.0889  0.8726 -0.9516
36429SOL     OW12878   4.526   7.286   2.388 -0.2168  0.6707  0.0852
36429SOL    HW112879   4.438   7.320   2.372 -0.1818  1.2087  0.9460
36429SOL    HW212880   4.516   7.231   2.466  0.1701  0.5925  0.0807
36430SOL     OW12881   0.810   1.386   0.679 -0.0127 -0.0355  0.2720
36430SOL    HW112882   0.905   1.377   0.690  0.0789  0.8801  0.3334
36430SOL    HW212883   0.787   1.319   0.615  0.9090  0.6380 -0.8074
36431SOL     OW12884   1.796   2.687   0.383  0.2920 -0.2563  0.1288
36431SOL    HW112885   1.775   2.645   0.466  1.2004 -0.6841  0.1535
36431SOL    HW212886   1.729   2.655   0.323  0.8571 -1.6292  0.1865
36432SOL     OW12887   8.426   2.430   5.890 -0.0213 -0.1667 -0.4272
36432SOL    HW112888   8.467   2.417   5.805  0.0314 -1.7130 -0.1806
36432SOL    HW212889   8.499   2.452   5.948 -0.0344  0.7092 -0.7276
36433SOL     OW12890   0.172   5.447   6.927 -0.2074  0.3150  0.2025
36433SOL    HW112891   0.257   5.440   6.885 -0.1836 -1.3454  0.4649
36433SOL    HW212892   0.110   5.457   6.855 -0.1372 -2.1734 -0.2902
36434SOL     OW12893   3.598   1.870   8.622 -0.0307  0.4684 -0.7185
36434SOL    HW112894   3.661   1.940   8.641  1.4924 -0.9988 -0.0439
36434SOL    HW212895   3.554   1.898   8.542  0.1773  2.3957 -0.2170
36435SOL     OW12896   4.760   4.740   8.525 -0.2607 -0.3421  0.1450
36435SOL    HW112897   4.675   4.783   8.533 -0.7670 -1.4637  1.2309
36435SOL    HW212898   4.807   4.765   8.605 -0.0322 -0.6878  0.1224
36436SOL     OW12899   6.196   7.003   5.446  0.4862  0.6803 -0.0687
36436SOL    HW112900   6.207   7.080   5.501 -1.0938  0.9755 -0.1378
36436SOL    HW212901   6.265   7.011   5.380  1.5648  0.9969  1.0527
36437SOL     OW12902   9.279   1.357   3.256  0.1014  0.2777  0.7784
36437SOL    HW112903   9.359   1.339   3.305 -0.5960 -1.3561  1.3767
36437SOL    HW212904   9.279   1.294   3.184 -0.7198  0.1347  0.8929
36438SOL     OW12905  11.033   9.251   1.512 -0.0468 -0.0215  0.1921
36438SOL    HW112906  10.986   9.186   1.460 -1.0835  1.3684 -0.6901
36438SOL    HW212907  11.125   9.234   1.493 -0.2041 -1.9367  0.8944
36439SOL     OW12908   3.172   8.186   4.914  0.2166  0.3108  0.5327
36439SOL    HW112909   3.239   8.217   4.853  1.0925 -1.7322  0.3850
36439SOL    HW212910   3.177   8.247   4.989  0.0767  2.0055 -0.7737
36440SOL     OW12911   4.266   8.321   5.148  0.2757 -0.1206  0.2470
36440SOL    HW112912   4.242   8.361   5.064 -0.1528 -0.3104  0.2729
36440SOL    HW212913   4.202   8.357   5.210  0.1224 -0.5561  0.3412
36441SOL     OW12914   4.334   0.134   2.009 -0.0153 -0.0114  0.3994
36441SOL    HW112915   4.315   0.068   1.942 -2.0471 -0.9730  1.7990
36441SOL    HW212916   4.264   0.198   2.000 -0.1555 -0.0032  1.3836
36442SOL     OW12917  10.069  10.297   5.157 -0.2936 -0.0575 -0.0537
36442SOL    HW112918  10.076  10.207   5.125 -2.3502 -0.1845 -0.2959
36442SOL    HW212919  10.140  10.343   5.113 -0.0631 -1.2721 -1.0306
36443SOL     OW12920   8.521   2.183   9.481  0.4570  0.2752 -0.1602
36443SOL    HW112921   8.535   2.099   9.523 -1.6999 -0.2862 -0.4997
36443SOL    HW212922   8.477   2.237   9.547  1.9551  1.2472  0.1149
36444SOL     OW12923   7.067   7.793   5.125  0.6615 -0.4692  0.0924
36444SOL    HW112924   7.146   7.769   5.077  0.4390  0.5858 -0.8795
36444SOL    HW212925   7.037   7.873   5.081 -0.2913 -0.1984  1.1915
36445SOL     OW12926   4.219   9.387   5.400 -0.0451  1.0422 -0.3802
36445SOL    HW112927   4.154   9.456   5.392 -0.8135  0.3233 -0.4190
36445SOL    HW212928   4.282   9.421   5.464  0.4112  2.3908 -1.4984
36446SOL     OW12929  10.963   5.766   9.444  0.1142  0.4248 -0.2516
36446SOL    HW112930  10.890   5.771   9.382  0.3795 -3.7399 -1.2092
36446SOL    HW212931  10.922   5.768   9.530 -1.4072 -2.6059 -0.7739
36447SOL     OW12932   9.912   4.804   8.384 -0.0262  1.1524 -0.3637
36447SOL    HW112933   9.904   4.729   8.444  0.8688  1.8510  0.6658
36447SOL    HW212934   9.979   4.776   8.321  0.3456  1.0962  0.0471
36448SOL     OW12935  10.037   7.400   7.399 -0.0879  0.4836 -0.7413
36448SOL    HW112936  10.084   7.437   7.325  1.9744  2.8875  1.5855
36448SOL    HW212937   9.982   7.471   7.431 -0.9169 -0.4925  0.1003
36449SOL     OW12938   8.878   7.812   7.697  0.1318 -0.2386  0.1518
36449SOL    HW112939   8.922   7.736   7.736  0.4728  1.1365  2.6286
36449SOL    HW212940   8.924   7.888   7.733  0.4697  1.2323 -3.0112
36450SOL     OW12941   3.155   0.528   2.760  0.2392 -0.0120 -0.2356
36450SOL    HW112942   3.136   0.450   2.813  0.6547 -0.7832 -1.1894
36450SOL    HW212943   3.084   0.588   2.780 -1.0533 -1.2992 -0.7717
36451SOL     OW12944   7.015   9.836   2.985 -0.3605 -0.3499  0.3366
36451SOL    HW112945   6.983   9.780   3.057  0.7522  1.2682  2.1948
36451SOL    HW212946   7.110   9.836   2.995 -0.2557  0.7608 -0.4798
36452SOL     OW12947   1.108   4.887   6.111 -0.5572  0.1248 -0.1901
36452SOL    HW112948   1.140   4.966   6.155  0.4398 -1.1115  1.4406
36452SOL    HW212949   1.020   4.874   6.145 -0.4191  0.1055  0.1680
36453SOL     OW12950   7.137   5.797   8.120 -0.4123  0.1560 -0.1875
36453SOL    HW112951   7.089   5.861   8.172  0.9253  0.9295  0.1566
36453SOL    HW212952   7.229   5.825   8.127  0.0391 -0.9924 -1.1833
36454SOL     OW12953   8.018   4.284   4.869 -0.5129  0.0226  0.3499
36454SOL    HW112954   8.082   4.243   4.810  0.5809 -0.6280  1.8857
36454SOL    HW212955   7.938   4.233   4.857 -0.0709 -0.6022 -0.0165
36455SOL     OW12956   4.683   4.282   5.948 -0.3516  0.1717  0.2767
36455SOL    HW112957   4.759   4.295   5.891 -0.5925  0.1633 -0.0518
36455SOL    HW212958   4.664   4.370   5.981 -0.3637  0.2173  0.1481
36456SOL     OW12959   0.873   5.071   4.435  0.0197  0.0147  0.2958
36456SOL    HW112960   0.842   5.044   4.522  1.3366 -0.0799  0.7519
36456SOL    HW212961   0.833   5.008   4.375 -0.4720 -0.2478  0.8825
36457SOL     OW12962   6.179   0.961   4.015 -0.3760  0.8752  0.5206
36457SOL    HW112963   6.242   0.988   4.083  0.8669  0.9309 -0.6141
36457SOL    HW212964   6.209   0.874   3.988  0.2336  1.5723 -1.1804
36458SOL     OW12965   3.302   4.480   9.206 -0.2612 -0.4382 -0.1951
36458SOL    HW112966   3.387   4.460   9.167 -0.2109 -2.1035  0.6647
36458SOL    HW212967   3.321   4.487   9.300 -0.9601 -0.0149 -0.0810
36459SOL     OW12968   5.509   0.772   5.917  0.2563 -0.2054  0.0984
36459SOL    HW112969   5.511   0.708   5.988 -0.1265 -0.7774 -0.4053
36459SOL    HW212970   5.448   0.840   5.948 -0.3469 -0.7318  0.0815
36460SOL     OW12971   6.177   3.107  10.499 -0.2323  0.0920 -0.4477
36460SOL    HW112972   6.229   3.176  10.538 -0.4167  1.1781 -2.0314
36460SOL    HW212973   6.204   3.105  10.407 -0.6965 -1.5062 -0.5921
36461SOL     OW12974   4.463   8.723   2.025  0.2054 -0.1580 -0.3823
36461SOL    HW112975   4.430   8.640   2.060 -0.0033  0.1050  0.0503
36461SOL    HW212976   4.408   8.790   2.066 -0.4989  0.1199 -1.7501
36462SOL     OW12977   5.902   4.689  10.180 -0.0592  0.6662  0.7717
36462SOL    HW112978   5.810   4.683  10.154  0.2547  0.9743 -0.5064
36462SOL    HW212979   5.912   4.778  10.213 -0.7088 -0.0573  3.0756
36463SOL     OW12980   2.851   7.905   5.945 -0.2828 -0.2461 -0.3009
36463SOL    HW112981   2.884   7.986   5.907 -0.1203 -1.2914 -2.5930
36463SOL    HW212982   2.756   7.918   5.950 -0.0849  0.7851  1.2364
36464SOL     OW12983   2.274   1.938   2.318  0.5908  0.5565  0.4438
36464SOL    HW112984   2.333   1.876   2.361 -3.0634 -2.3415  1.8502
36464SOL    HW212985   2.260   1.901   2.231  0.5151  0.9823  0.2735
36465SOL     OW12986   2.659   0.161   7.008  0.5120 -0.0189 -0.2828
36465SOL    HW112987   2.598   0.090   7.027 -0.4350  0.8853  0.1408
36465SOL    HW212988   2.743   0.131   7.043  0.2399 -1.1025 -0.5050
36466SOL     OW12989   7.710   8.363  10.977 -1.0425 -0.6086 -0.3591
36466SOL    HW112990   7.740   8.313  11.053  1.1126  0.5950 -0.3488
36466SOL    HW212991   7.620   8.389  10.999 -0.3375  0.0641  1.9824
36467SOL     OW12992   6.690   6.381   2.007  0.4745 -0.1447 -0.8923
36467SOL    HW112993   6.606   6.381   2.054  0.7746  0.0598 -0.3405
36467SOL    HW212994   6.670   6.346   1.921 -0.0888 -0.5602 -0.5970
36468SOL     OW12995  10.939   0.711   5.397 -0.3518  0.2740 -0.3272
36468SOL    HW112996  10.963   0.678   5.484  1.9725  1.0658 -0.5893
36468SOL    HW212997  10.844   0.703   5.393 -0.2730 -2.4223  1.1997
36469SOL     OW12998   5.002   4.699   8.674 -0.5418  0.2956 -0.1406
36469SOL    HW112999   4.960   4.623   8.715 -0.3910  0.4477  0.3043
36469SOL    HW213000   5.052   4.739   8.745 -0.2945  0.5779 -0.4740
36470SOL     OW13001   1.713   6.533   9.004 -0.3384 -0.0181  0.0581
36470SOL    HW113002   1.712   6.444   8.967  1.3445  0.7661 -2.0938
36470SOL    HW213003   1.754   6.523   9.090 -1.1472 -1.4415  0.3129
36471SOL     OW13004   4.817   2.881   1.359 -0.1992  0.6251  0.3935
36471SOL    HW113005   4.740   2.896   1.303  0.7655  2.0219 -0.6187
36471SOL    HW213006   4.862   2.808   1.318 -0.6958  0.1471  0.6841
36472SOL     OW13007   5.699   4.148   6.115 -0.2581 -0.3989  0.5232
36472SOL    HW113008   5.783   4.129   6.074  0.4869  0.8996  1.3892
36472SOL    HW213009   5.648   4.068   6.103  1.2666 -1.3960  0.4057
36473SOL     OW13010   5.998   3.516   8.102 -0.1290 -0.1379 -0.2729
36473SOL    HW113011   6.023   3.455   8.172 -0.2898 -0.4102 -0.4527
36473SOL    HW213012   5.943   3.464   8.043 -0.4641  0.2429 -0.3022
36474SOL     OW13013   7.899   1.215   5.532  0.0270  0.3364 -0.7277
36474SOL    HW113014   7.957   1.290   5.545 -0.0458  0.5295 -1.4769
36474SOL    HW213015   7.927   1.178   5.448 -0.4539 -0.0074 -0.7402
36475SOL     OW13016   7.936   8.900   5.876 -0.6641 -0.1901 -0.3106
36475SOL    HW113017   7.916   8.877   5.966  2.6222 -1.7988  0.1576
36475SOL    HW213018   7.937   8.816   5.829 -1.0471  0.4837 -1.5748
36476SOL     OW13019   7.277   5.614   7.904 -0.5062  0.6813  0.0968
36476SOL    HW113020   7.248   5.704   7.893 -0.1756  0.9448  1.2620
36476SOL    HW213021   7.366   5.613   7.871 -0.0513  1.1075  1.2561
36477SOL     OW13022   0.863   7.901   1.112 -0.1992  0.2772 -0.3851
36477SOL    HW113023   0.861   7.882   1.018  1.0005 -1.0704 -0.1810
36477SOL    HW213024   0.797   7.842   1.150  2.1574 -2.3327  0.0194
36478SOL     OW13025   9.166   7.280   7.947  0.2048 -0.8413 -0.3123
36478SOL    HW113026   9.212   7.364   7.949  0.9429 -1.2429  0.0776
36478SOL    HW213027   9.218   7.226   7.887 -0.4727 -0.9109 -0.8502
36479SOL     OW13028  11.023  10.538   1.061  0.7628  0.7345 -0.3927
36479SOL    HW113029  10.978  10.618   1.031 -0.3187 -0.2117 -1.4049
36479SOL    HW213030  10.999  10.530   1.153  0.6548  1.4418 -0.3548
36480SOL     OW13031   2.860   0.049   0.591  0.4680 -0.4975 -0.5876
36480SOL    HW113032   2.926   0.003   0.539  1.8327 -0.1878  0.7946
36480SOL    HW213033   2.878   0.142   0.576  2.2576 -0.3395  1.9526
36481SOL     OW13034   9.580  10.599   8.572  0.3664 -0.2545 -0.3900
36481SOL    HW113035   9.667  10.609   8.611  0.5439  0.2510 -0.8972
36481SOL    HW213036   9.530  10.550   8.637  1.1937 -1.0720 -0.3476
36482SOL     OW13037   4.847   6.601  10.747  0.2361 -0.4476  0.0865
36482SOL    HW113038   4.925   6.650  10.771  0.0492 -0.7644  1.4320
36482SOL    HW213039   4.813   6.646  10.670 -0.0520  1.6934  1.3775
36483SOL     OW13040   3.506   2.358   6.234  0.1604 -0.3850 -0.0535
36483SOL    HW113041   3.556   2.285   6.271  2.4750  1.5206  0.8001
36483SOL    HW213042   3.525   2.355   6.140  0.0149 -1.0514 -0.0634
36484SOL     OW13043   3.130   8.872  10.533 -0.0436 -0.2901 -0.1964
36484SOL    HW113044   3.078   8.825  10.597  1.6349  0.7181  2.0399
36484SOL    HW213045   3.118   8.964  10.555  0.5284  0.0894 -1.3919
36485SOL     OW13046   0.691   5.567   4.468 -0.0966 -0.3512  0.5462
36485SOL    HW113047   0.746   5.502   4.511  1.4147  1.5924  1.7188
36485SOL    HW213048   0.607   5.561   4.514  0.1216 -1.2255  0.8569
36486SOL     OW13049   2.458   6.596   8.614 -0.2277 -0.5593 -0.1796
36486SOL    HW113050   2.427   6.556   8.696  0.3781 -0.0324  0.3141
36486SOL    HW213051   2.394   6.664   8.595 -1.6804 -2.1740 -1.4140
36487SOL     OW13052   8.326   1.849  10.648  0.3794 -0.8647  0.4578
36487SOL    HW113053   8.402   1.872  10.594  0.5525  0.5952  1.2645
36487SOL    HW213054   8.267   1.804  10.589  1.1798 -0.5592 -0.5985
36488SOL     OW13055   0.608   3.924   8.171  0.8428  0.1437 -0.1247
36488SOL    HW113056   0.557   3.843   8.174  1.8497 -0.4956  1.6073
36488SOL    HW213057   0.697   3.896   8.150  0.9981  0.9246 -0.5466
36489SOL     OW13058   0.011   5.005   1.597 -0.1895  0.3048 -0.3491
36489SOL    HW113059  -0.078   5.033   1.574 -0.4363 -1.7080 -2.1705
36489SOL    HW213060   0.062   5.086   1.596 -1.4380  1.1412 -2.2228
36490SOL     OW13061   7.744   9.503   1.338 -0.0091  0.0683 -0.1746
36490SOL    HW113062   7.796   9.491   1.258 -0.1753 -0.4440 -0.2097
36490SOL    HW213063   7.768   9.590   1.369 -0.1381  0.3788 -0.9231
36491SOL     OW13064   9.996   0.115   6.604 -0.3139 -0.1912  0.6261
36491SOL    HW113065   9.920   0.100   6.659 -2.2746 -1.1889 -2.1232
36491SOL    HW213066  10.029   0.027   6.584  2.7301  0.2096  3.0450
36492SOL     OW13067   0.573   8.719   1.945 -0.5147 -0.2418 -0.0694
36492SOL    HW113068   0.610   8.808   1.945 -1.5002  0.1880 -0.5650
36492SOL    HW213069   0.648   8.662   1.934 -0.0820  0.6595 -2.3393
36493SOL     OW13070   0.217   7.264   6.856  0.5453  0.5603 -0.0964
36493SOL    HW113071   0.182   7.335   6.910  1.3072 -0.7243  2.2324
36493SOL    HW213072   0.212   7.187   6.912  0.4443 -1.1065 -2.2801
36494SOL     OW13073   3.157  10.677  11.068  0.1919 -0.0503 -0.3673
36494SOL    HW113074   3.146  10.628  11.149  0.6475  1.5989  0.7494
36494SOL    HW213075   3.135  10.767  11.091  1.8654  0.7561 -1.6522
36495SOL     OW13076   0.955   8.642   2.685 -0.0960 -0.5398  0.5988
36495SOL    HW113077   0.873   8.672   2.722 -0.3305 -1.1648  0.6011
36495SOL    HW213078   1.007   8.613   2.760 -1.3468 -3.7343  0.3974
36496SOL     OW13079   5.670   8.378   3.194 -0.0146 -0.1420  0.5121
36496SOL    HW113080   5.592   8.337   3.157 -0.2834  0.3244  0.5436
36496SOL    HW213081   5.638   8.426   3.270  0.0323  1.2919 -0.3306
36497SOL     OW13082   4.934   7.413   9.850  0.5278 -0.2480  0.6695
36497SOL    HW113083   4.995   7.416   9.777 -0.1013  0.5862  0.1480
36497SOL    HW213084   4.916   7.320   9.862  0.9623 -0.4263  0.0322
36498SOL     OW13085   9.661   9.601   5.212 -0.1387  0.1534  0.2642
36498SOL    HW113086   9.566   9.591   5.197  0.0264  0.4024 -1.1071
36498SOL    HW213087   9.690   9.513   5.236 -0.7053  0.0600  0.6435
36499SOL     OW13088   8.808  10.999   3.698  0.1865  0.0462  0.0552
36499SOL    HW113089   8.736  10.938   3.715 -0.6225  1.2687  1.2376
36499SOL    HW213090   8.789  11.035   3.611  1.3618 -2.2356 -1.2465
36500SOL     OW13091   2.056   6.817   8.379  0.0657  0.4651  0.2471
36500SOL    HW113092   2.103   6.759   8.319 -0.6590 -0.7747  0.8248
36500SOL    HW213093   1.992   6.760   8.421 -0.0079  1.4839  1.5832
36501SOL     OW13094   6.372   1.486   5.643  0.2737 -0.4449  0.0823
36501SOL    HW113095   6.297   1.546   5.637  0.0466 -0.6880  0.4341
36501SOL    HW213096   6.447   1.538   5.614  0.3902  0.5685  1.9988
36502SOL     OW13097   1.914   4.371   7.225  0.6904  0.4532 -0.0226
36502SOL    HW113098   1.873   4.458   7.230  0.6586  0.3917  0.8946
36502SOL    HW213099   1.993   4.378   7.277 -0.0811 -0.4762  1.3492
36503SOL     OW13100   1.421   6.978   8.259  0.3886  0.2994  0.6406
36503SOL    HW113101   1.435   6.892   8.220 -0.7569  0.2113  0.3895
36503SOL    HW213102   1.501   7.027   8.238 -0.4506  0.5116 -2.5422
36504SOL     OW13103   0.869   3.123  10.002  0.2831 -0.9942 -0.0658
36504SOL    HW113104   0.905   3.087  10.083 -1.1642 -1.8763  0.2230
36504SOL    HW213105   0.797   3.064   9.979 -0.0929 -0.0854 -1.3509
36505SOL     OW13106   9.493   6.253   9.300  0.4694  0.2584 -0.5794
36505SOL    HW113107   9.405   6.215   9.297 -0.3960  1.9337  1.1962
36505SOL    HW213108   9.519   6.262   9.208 -1.1071 -0.4771 -1.1258
36506SOL     OW13109   9.302  10.986   6.878 -0.0458 -0.2915  0.0992
36506SOL    HW113110   9.256  10.912   6.839  0.2997  0.4787 -1.8869
36506SOL    HW213111   9.232  11.042   6.913 -0.3326 -1.2661  1.1358
36507SOL     OW13112   1.901   7.343   7.614 -0.1981 -0.1979  0.0431
36507SOL    HW113113   1.873   7.252   7.611  1.1603 -0.6173 -0.7523
36507SOL    HW213114   1.832   7.391   7.570 -0.9760 -0.8199  0.5551
36508SOL     OW13115   6.308   1.224   6.121 -0.0136  0.0481 -0.8014
36508SOL    HW113116   6.292   1.130   6.119 -0.1018  0.0054  0.9331
36508SOL    HW213117   6.273   1.255   6.037  1.3204 -1.6234 -2.0710
36509SOL     OW13118   2.752   6.256  10.202  0.1899 -0.1339  0.1512
36509SOL    HW113119   2.682   6.321  10.196 -0.5196 -0.8313  0.5054
36509SOL    HW213120   2.705   6.173  10.217  1.0969 -0.6115  0.4205
36510SOL     OW13121   6.110   3.647   9.275  0.0398  0.7339 -0.0021
36510SOL    HW113122   6.175   3.683   9.335 -1.1995  1.0433  1.2108
36510SOL    HW213123   6.150   3.654   9.188  2.0110 -0.0495  0.8074
36511SOL     OW13124   4.607   0.482   6.898 -0.1875  0.3774 -0.1033
36511SOL    HW113125   4.597   0.390   6.873  0.7117  0.1187  0.4112
36511SOL    HW213126   4.661   0.520   6.829  0.4500  0.2066  0.2869
36512SOL     OW13127   5.692   6.680  10.912 -0.1956 -0.0210 -0.2853
36512SOL    HW113128   5.672   6.589  10.890 -1.6020  0.2678 -0.3339
36512SOL    HW213129   5.701   6.680  11.007  1.4430 -0.4817 -0.4159
36513SOL     OW13130   5.312   5.232   8.154 -0.2212 -0.4108  0.5091
36513SOL    HW113131   5.319   5.199   8.064  0.7208  1.6860 -0.2545
36513SOL    HW213132   5.242   5.297   8.150  1.3224  1.3580  0.6769
36514SOL     OW13133   5.739   2.084   1.943 -0.7413  0.3448 -0.0339
36514SOL    HW113134   5.777   2.091   1.855 -1.6721 -0.6831 -0.5408
36514SOL    HW213135   5.652   2.047   1.928 -1.0433  0.5019  1.2978
36515SOL     OW13136   0.682   7.444   4.256 -0.2769 -0.4755 -0.0910
36515SOL    HW113137   0.625   7.518   4.235  0.3549 -0.0737 -0.4282
36515SOL    HW213138   0.699   7.452   4.349  1.5655  1.1095 -0.5150
36516SOL     OW13139   0.645  10.929   8.234 -0.7994 -0.0227 -0.2759
36516SOL    HW113140   0.589  10.981   8.291  1.1551  2.1839 -0.2286
36516SOL    HW213141   0.697  10.876   8.294  0.9355  1.9648  0.0860
36517SOL     OW13142   0.065   6.248  10.349 -0.1440  0.2626 -0.3084
36517SOL    HW113143   0.043   6.338  10.372  2.4425  0.7774  0.5214
36517SOL    HW213144   0.004   6.195  10.400 -1.1791  1.5262 -0.1739
36518SOL     OW13145   3.929   5.107   6.452 -0.0962 -0.5432 -0.3678
36518SOL    HW113146   3.925   5.092   6.358 -0.2579  0.1873 -0.4813
36518SOL    HW213147   3.880   5.188   6.466  3.9241  2.1802 -0.3265
36519SOL     OW13148   1.403   0.134   9.334 -0.3948  0.1986  0.5185
36519SOL    HW113149   1.455   0.054   9.333  1.6168  1.4439  0.2428
36519SOL    HW213150   1.357   0.132   9.418 -0.1727 -1.1142  0.6160
36520SOL     OW13151   4.825   1.230   0.698 -0.0810 -0.4094 -0.5180
36520SOL    HW113152   4.876   1.263   0.773 -0.6333  1.0369 -0.7593
36520SOL    HW213153   4.813   1.137   0.718  3.1745 -1.0032 -0.7456
36521SOL     OW13154   2.736   5.939  10.364  0.2791  0.4294  0.4146
36521SOL    HW113155   2.708   5.889  10.440  0.7337  2.6399  2.1294
36521SOL    HW213156   2.823   5.904  10.344 -0.3853 -1.0842 -0.0030
36522SOL     OW13157   4.063  11.027   0.087 -0.0785  0.4076  0.4884
36522SOL    HW113158   4.151  10.989   0.093 -0.5210 -0.5934  0.8144
36522SOL    HW213159   4.077  11.121   0.099  0.9045  0.2264  0.8683
36523SOL     OW13160   4.830  11.076   4.381  0.4989 -0.0663 -0.2022
36523SOL    HW113161   4.764  11.133   4.340 -1.2022 -0.1705  2.1885
36523SOL    HW213162   4.913  11.122   4.366 -0.6541  2.4395  0.5328
36524SOL     OW13163   1.448   0.705  10.765 -0.3346  0.3826 -0.2139
36524SOL    HW113164   1.473   0.617  10.794  2.7968  0.7922 -1.3657
36524SOL    HW213165   1.387   0.689  10.692 -0.7245 -0.7906  0.3443
36525SOL     OW13166   6.086   2.881   3.412 -0.1733  0.2404 -0.0232
36525SOL    HW113167   6.033   2.960   3.423  1.2921  1.1184  1.0724
36525SOL    HW213168   6.038   2.829   3.348 -2.0234  1.2679  0.4544
36526SOL     OW13169   0.725   1.488   6.577  0.5640 -0.4871 -0.0268
36526SOL    HW113170   0.660   1.557   6.568  1.2172 -0.0063 -1.2338
36526SOL    HW213171   0.686   1.427   6.640  0.4857  1.5586  2.0316
36527SOL     OW13172   9.309   6.457   6.363 -0.4937 -0.5954 -0.3062
36527SOL    HW113173   9.312   6.377   6.312 -0.7722  0.2643 -1.7262
36527SOL    HW213174   9.220   6.491   6.350 -0.3779 -0.0518  0.2555
36528SOL     OW13175   9.963   4.764   4.761  0.3173 -0.1220 -0.0734
36528SOL    HW113176  10.054   4.743   4.785  0.6353  0.2879 -0.8967
36528SOL    HW213177   9.946   4.849   4.803  0.0701 -0.5226  0.6596
36529SOL     OW13178   1.996   1.634  10.309 -0.3979  0.0373  0.0577
36529SOL    HW113179   2.080   1.609  10.348 -0.7875 -0.6484  0.4742
36529SOL    HW213180   1.986   1.575  10.234 -1.3669 -1.2059  1.1022
36530SOL     OW13181   8.048   2.806   2.237 -0.2278 -0.5216  1.0035
36530SOL    HW113182   8.088   2.772   2.157  0.3795 -0.4463  1.2702
36530SOL    HW213183   8.076   2.745   2.306  0.3001  0.1247  1.3703
36531SOL     OW13184  10.982   8.463   2.331 -0.0865  0.2154  0.4851
36531SOL    HW113185  10.937   8.388   2.370  0.3481 -0.7673 -0.8188
36531SOL    HW213186  11.062   8.426   2.293 -0.8357  0.9183 -1.9844
36532SOL     OW13187   5.098   2.886   7.125  0.0326 -0.2373 -0.0102
36532SOL    HW113188   5.089   2.790   7.128  0.9348 -0.3185  0.3280
36532SOL    HW213189   5.026   2.914   7.068 -1.7703 -0.8946  1.8183
36533SOL     OW13190   3.268  10.492   7.475  0.1752  0.1763 -0.0590
36533SOL    HW113191   3.360  10.474   7.494  0.3411  0.7836 -0.2553
36533SOL    HW213192   3.270  10.537   7.390 -0.2874  0.3156  0.0014
36534SOL     OW13193   9.479   1.736   5.946  0.4467 -0.1016 -0.7285
36534SOL    HW113194   9.479   1.640   5.949 -0.3926 -0.0982 -0.2077
36534SOL    HW213195   9.541   1.758   5.877  1.4659 -0.9882 -0.1267
36535SOL     OW13196  10.778   3.155   9.727  0.0399 -0.4169  0.3325
36535SOL    HW113197  10.733   3.124   9.648  0.7046 -1.3500  0.3029
36535SOL    HW213198  10.808   3.243   9.704  0.7094 -0.8900 -0.6649
36536SOL     OW13199   7.215   0.769   9.020 -0.3055 -0.7650 -0.2634
36536SOL    HW113200   7.225   0.845   8.963  0.7953 -0.9442 -0.3310
36536SOL    HW213201   7.304   0.752   9.053 -0.8636 -0.8581  1.2518
36537SOL     OW13202   5.301   6.404   8.479  0.3397  0.2910 -0.8534
36537SOL    HW113203   5.299   6.393   8.574  2.1164  0.6907 -0.7355
36537SOL    HW213204   5.357   6.332   8.448  0.8953  0.9690 -1.4435
36538SOL     OW13205   0.580   6.437   5.076 -0.4658 -0.2236  0.3369
36538SOL    HW113206   0.496   6.462   5.036 -0.7652 -1.5572  0.0726
36538SOL    HW213207   0.560   6.358   5.126  0.1265  0.8142  2.3253
36539SOL     OW13208   3.502   2.573   0.213  0.0593 -0.2426 -0.1029
36539SOL    HW113209   3.586   2.570   0.167  0.5180  0.0710  0.6875
36539SOL    HW213210   3.472   2.664   0.202  0.2517 -0.1213  0.3451
36540SOL     OW13211   8.786   8.150  10.835 -0.2745 -0.1979 -0.1196
36540SOL    HW113212   8.737   8.117  10.910 -1.4233 -0.2557 -0.8609
36540SOL    HW213213   8.770   8.085  10.766  0.7728 -0.1612 -0.4073
36541SOL     OW13214   9.023   9.648   4.766  0.0632  0.0529 -0.2082
36541SOL    HW113215   9.103   9.596   4.769 -0.2561 -0.4819 -0.8762
36541SOL    HW213216   8.970   9.615   4.839  0.3444  0.2462  0.0877
36542SOL     OW13217   8.001   1.367   6.922  0.4530  0.4032 -0.1350
36542SOL    HW113218   8.073   1.403   6.870 -0.0771  0.9043 -0.5265
36542SOL    HW213219   7.966   1.442   6.969 -0.6171  0.3990 -0.9055
36543SOL     OW13220   7.949   4.155   5.348 -0.1372  0.3153 -0.4685
36543SOL    HW113221   7.905   4.228   5.391 -0.7494 -0.2722 -0.0637
36543SOL    HW213222   8.006   4.118   5.415  1.4491  1.4241 -1.1603
36544SOL     OW13223   1.372   6.520   9.659  0.1003 -0.4259 -0.1973
36544SOL    HW113224   1.409   6.480   9.739 -0.3086 -1.6322 -0.5817
36544SOL    HW213225   1.445   6.520   9.597  0.8360  1.8213  0.5614
36545SOL     OW13226   0.852   0.588   8.722 -0.5567  0.6699  0.0351
36545SOL    HW113227   0.808   0.546   8.647 -1.9295  0.6656  0.8102
36545SOL    HW213228   0.927   0.633   8.683 -1.8728  1.6522 -1.5423
36546SOL     OW13229   8.551   8.148   0.923  0.1200 -0.4889  0.0008
36546SOL    HW113230   8.635   8.112   0.950  0.0438  0.3713  1.5100
36546SOL    HW213231   8.554   8.146   0.827  1.0326 -2.2822  0.0220
36547SOL     OW13232   5.138   6.138   3.584 -0.5532 -0.0041 -0.1305
36547SOL    HW113233   5.152   6.209   3.521  0.4074  1.0042  1.1799
36547SOL    HW213234   5.068   6.086   3.545 -1.2022  1.5804 -1.1885
36548SOL     OW13235   0.513   9.864   5.530  0.1526 -0.3055 -0.4925
36548SOL    HW113236   0.497   9.787   5.585  1.2392 -0.3379 -0.1989
36548SOL    HW213237   0.563   9.831   5.456 -1.3493 -0.2676 -1.5600
36549SOL     OW13238   4.863   7.806   4.264 -0.3878  0.2357 -0.3176
36549SOL    HW113239   4.913   7.726   4.250 -1.0003 -0.2381  0.1616
36549SOL    HW213240   4.854   7.813   4.359 -0.3011  0.8943 -0.3529
36550SOL     OW13241   0.378  11.020   8.352 -0.1321 -0.7182 -0.2729
36550SOL    HW113242   0.332  11.097   8.386 -1.4278 -2.1403  1.4041
36550SOL    HW213243   0.337  11.003   8.267 -2.8317 -1.9134  1.1462
36551SOL     OW13244   0.365   1.035  10.494  0.0429 -0.1010 -0.2743
36551SOL    HW113245   0.336   1.041  10.585 -2.6863 -2.3200 -0.8450
36551SOL    HW213246   0.456   1.005  10.499 -0.1094 -0.3584  1.7281
36552SOL     OW13247  10.524  10.495   7.508  0.4230  0.1337  0.2221
36552SOL    HW113248  10.434  10.514   7.535  0.5828  0.7714  0.3284
36552SOL    HW213249  10.555  10.429   7.571 -0.2701 -0.7992 -0.3871
36553SOL     OW13250   5.343   6.206   9.373 -0.0347  0.8041  0.4350
36553SOL    HW113251   5.272   6.254   9.417 -1.2347  0.1666 -0.7135
36553SOL    HW213252   5.393   6.274   9.329 -0.9670  1.1426 -0.1464
36554SOL     OW13253   1.659   4.529   1.515 -0.6440 -0.0750  0.5801
36554SOL    HW113254   1.592   4.465   1.539 -0.2895 -0.8985 -0.5203
36554SOL    HW213255   1.638   4.553   1.425  0.0284  0.3370  0.5256
36555SOL     OW13256   2.838  10.923   3.724  0.6058  0.7664 -0.3150
36555SOL    HW113257   2.776  10.908   3.795  1.6711 -0.0737  0.4641
36555SOL    HW213258   2.785  10.962   3.654 -0.6606  0.6676  0.5560
36556SOL     OW13259   2.513  10.840   3.768  0.0544  0.2964  0.0228
36556SOL    HW113260   2.573  10.899   3.814 -0.3881  1.6134 -1.0375
36556SOL    HW213261   2.463  10.896   3.709 -2.1317 -0.7891  0.7307
36557SOL     OW13262   6.952   7.181   0.250 -0.0234 -0.7191  0.0486
36557SOL    HW113263   6.896   7.134   0.312 -2.0283 -0.4074 -1.3989
36557SOL    HW213264   6.915   7.160   0.164  0.6122  1.4224 -0.8166
36558SOL     OW13265   2.856   7.108   0.938  0.4553  0.3640  0.2340
36558SOL    HW113266   2.903   7.099   0.855  1.2211 -0.0212  0.6920
36558SOL    HW213267   2.897   7.184   0.980 -1.2162  1.7503 -0.5480
36559SOL     OW13268   4.493   5.509   6.497 -0.3755  0.0849  0.1846
36559SOL    HW113269   4.463   5.577   6.437  1.7811  0.1268 -0.9700
36559SOL    HW213270   4.507   5.555   6.580  0.0225  0.8313 -0.2847
36560SOL     OW13271   6.435   6.540  10.896  0.2712  0.6273 -0.0194
36560SOL    HW113272   6.502   6.533  10.828  1.1797 -0.0507  0.9021
36560SOL    HW213273   6.394   6.454  10.900 -1.0438  1.1844 -0.9284
36561SOL     OW13274   5.473   5.707   0.056 -0.1019  0.0013  0.1077
36561SOL    HW113275   5.471   5.750   0.141 -1.3680 -0.1498  0.1697
36561SOL    HW213276   5.547   5.646   0.061 -0.1904 -0.0251  1.0998
36562SOL     OW13277   4.789   3.733  10.681  0.1757 -0.2339 -0.1012
36562SOL    HW113278   4.765   3.811  10.731  0.7333 -0.5726  0.7324
36562SOL    HW213279   4.711   3.712  10.630  0.2257  1.2285 -0.8388
36563SOL     OW13280   0.094   6.047   9.107 -0.8190  0.6781  0.2865
36563SOL    HW113281   0.071   5.968   9.156  1.2869 -0.5550 -0.5750
36563SOL    HW213282   0.085   6.022   9.015 -1.2063  1.8182 -0.0035
36564SOL     OW13283   9.922  10.125  10.638  0.8122 -0.6452 -0.3553
36564SOL    HW113284   9.995  10.081  10.594  2.5139  0.7088  0.9307
36564SOL    HW213285   9.917  10.210  10.596  0.9021 -0.2251  0.4590
36565SOL     OW13286   6.437   0.458   6.148 -0.5068  0.3215 -0.5157
36565SOL    HW113287   6.514   0.406   6.127  0.2501  1.5342 -0.8598
36565SOL    HW213288   6.375   0.395   6.185  0.8824 -0.5835  0.3742
36566SOL     OW13289   5.078   0.930   6.761 -0.7023 -0.4748  0.2451
36566SOL    HW113290   5.067   1.008   6.816 -1.0233 -0.1377 -0.2905
36566SOL    HW213291   5.105   0.862   6.822 -1.6362 -0.2569  0.9202
36567SOL     OW13292   7.609   1.190   9.213 -0.7016  0.1786 -0.2027
36567SOL    HW113293   7.705   1.184   9.214 -0.5925  1.5479  0.1334
36567SOL    HW213294   7.579   1.106   9.245  0.4627  0.6726  2.3987
36568SOL     OW13295   8.409   8.245   5.374 -0.2639 -0.6015 -0.1546
36568SOL    HW113296   8.314   8.241   5.385 -0.1859  0.4477  1.1476
36568SOL    HW213297   8.423   8.317   5.312 -0.2949  0.2899  0.8240
36569SOL     OW13298   9.094  10.988   0.066 -0.2097  0.1288  0.2558
36569SOL    HW113299   9.155  10.965  -0.004 -2.2023 -0.7259 -1.3062
36569SOL    HW213300   9.123  10.937   0.141  1.2556  0.1202 -0.2817
36570SOL     OW13301   8.548   5.906   1.756  0.4687  0.3635  0.0590
36570SOL    HW113302   8.519   5.946   1.838  2.6218  1.0378  0.5545
36570SOL    HW213303   8.602   5.972   1.715 -0.1348 -0.1803 -1.6792
36571SOL     OW13304   9.296  10.438   1.881 -0.0108 -0.5395 -0.0052
36571SOL    HW113305   9.202  10.455   1.883  0.0886  0.0087  0.5174
36571SOL    HW213306   9.335  10.524   1.862  0.4070 -0.6502  0.3446
36572SOL     OW13307   2.665   4.148   1.169 -0.3454 -0.3587 -0.5824
36572SOL    HW113308   2.653   4.223   1.227  1.2619 -0.0119 -0.6705
36572SOL    HW213309   2.694   4.077   1.226 -2.2192 -1.0791 -0.4377
36573SOL     OW13310   6.560   2.791   7.873  0.6033  0.1395 -0.2238
36573SOL    HW113311   6.625   2.740   7.825 -0.1059 -0.9265 -0.1061
36573SOL    HW213312   6.496   2.725   7.903 -0.0385  1.0355  0.4307
36574SOL     OW13313   4.430   3.344   2.197  0.0595  0.1289  0.5372
36574SOL    HW113314   4.401   3.262   2.156  0.0916  0.9692 -1.2526
36574SOL    HW213315   4.478   3.315   2.275  2.6531 -1.8193 -1.5383
36575SOL     OW13316   7.281  10.337   2.313 -0.2481  0.1462  0.3874
36575SOL    HW113317   7.302  10.369   2.226  0.2545  1.0311  0.8219
36575SOL    HW213318   7.359  10.357   2.366 -0.2521 -1.0323  0.8768
36576SOL     OW13319   3.293   1.220   4.837  0.3009  0.1942  0.1124
36576SOL    HW113320   3.383   1.240   4.810  0.1837 -2.0909 -2.3012
36576SOL    HW213321   3.238   1.266   4.774 -0.1454 -0.3299  0.1130
36577SOL     OW13322   2.227   6.738   9.487 -0.1698  0.3039  0.1947
36577SOL    HW113323   2.274   6.676   9.542 -3.1049 -0.4099  2.1234
36577SOL    HW213324   2.296   6.788   9.443  2.3110 -1.5753  1.6861
36578SOL     OW13325   9.955   5.776  10.920 -0.1705 -0.1117  0.4110
36578SOL    HW113326   9.969   5.807  10.830  0.5201 -0.8363  0.2573
36578SOL    HW213327  10.035   5.801  10.966  1.1643 -2.9797 -0.1021
36579SOL     OW13328   1.972   4.045   2.977  0.1188 -0.5820 -0.8794
36579SOL    HW113329   1.900   3.996   2.937  0.6745 -0.8572 -1.5571
36579SOL    HW213330   2.043   3.982   2.984  0.2078 -0.3889  0.0593
36580SOL     OW13331   7.456   4.644   1.013  0.5475 -0.4319 -0.2697
36580SOL    HW113332   7.524   4.608   0.956  0.8400 -0.1730 -0.0894
36580SOL    HW213333   7.434   4.729   0.973  0.2931 -0.5378 -0.3561
36581SOL     OW13334   7.823   3.264   8.475 -0.3711 -0.1029 -0.4625
36581SOL    HW113335   7.846   3.356   8.485  2.1407 -0.5843 -1.0740
36581SOL    HW213336   7.728   3.260   8.490 -0.3006  2.3323  0.9637
36582SOL     OW13337   7.702   1.308   0.051  0.2555  0.5334 -0.4436
36582SOL    HW113338   7.635   1.354   0.101 -1.3330 -2.0630 -0.0242
36582SOL    HW213339   7.751   1.259   0.116 -0.7797 -1.5740 -1.1594
36583SOL     OW13340   4.348   7.417   3.250 -0.1154  0.4229  0.7133
36583SOL    HW113341   4.336   7.502   3.292  2.2850  1.6246 -0.8521
36583SOL    HW213342   4.280   7.413   3.184 -0.5564  0.8850  1.1326
36584SOL     OW13343   7.565   2.155   5.531  0.6566  0.8759  0.2608
36584SOL    HW113344   7.620   2.077   5.522  0.9934  1.1349  0.0405
36584SOL    HW213345   7.528   2.168   5.443 -1.5808 -0.6077  0.8899
36585SOL     OW13346   1.727   8.586   9.671  0.3650 -0.3853  0.7430
36585SOL    HW113347   1.795   8.646   9.702  0.9415 -0.5774 -0.0983
36585SOL    HW213348   1.645   8.621   9.705  0.6838  0.8932  0.2378
36586SOL     OW13349   9.959   8.831   0.698  0.4292 -0.1392 -0.3697
36586SOL    HW113350   9.977   8.925   0.705 -1.6609  0.3215 -0.7053
36586SOL    HW213351   9.939   8.816   0.606 -2.3656 -0.2456  0.1709
36587SOL     OW13352  10.190   3.648   3.509  0.2064 -0.3274  1.0238
36587SOL    HW113353  10.230   3.690   3.433 -1.5271  2.1311  1.3553
36587SOL    HW213354  10.242   3.677   3.584  0.5797 -0.9466  1.0106
36588SOL     OW13355   7.114   2.630   7.842 -0.2346 -0.1548  0.2933
36588SOL    HW113356   7.195   2.605   7.886 -0.8430 -0.7047  1.1263
36588SOL    HW213357   7.105   2.724   7.861  0.2390 -0.0762  0.1390
36589SOL     OW13358   3.178   3.679   1.620 -0.1303  0.5783 -0.3503
36589SOL    HW113359   3.155   3.701   1.530 -1.3042  0.1794 -0.1695
36589SOL    HW213360   3.096   3.648   1.658  0.6820 -0.6993  0.4217
36590SOL     OW13361   3.133   5.259   7.750  0.3394 -0.0723 -0.0739
36590SOL    HW113362   3.120   5.333   7.809  0.9970  0.8976 -1.1125
36590SOL    HW213363   3.136   5.298   7.662 -2.3630 -1.6209 -0.9791
36591SOL     OW13364   8.242   1.596   1.511 -0.4162  0.1916 -0.1865
36591SOL    HW113365   8.259   1.505   1.536 -0.6338  0.3847  0.7199
36591SOL    HW213366   8.150   1.598   1.487 -0.7454  0.4185  1.0354
36592SOL     OW13367   2.580   9.162  10.777  0.2261  0.1927 -0.3361
36592SOL    HW113368   2.491   9.146  10.745 -0.4023  0.5622  1.1490
36592SOL    HW213369   2.569   9.182  10.870  1.9138 -0.1784 -0.0226
36593SOL     OW13370   3.074   6.506   9.288 -0.2876 -0.3892 -0.2399
36593SOL    HW113371   3.028   6.429   9.256  1.8101 -1.4946 -0.8372
36593SOL    HW213372   3.137   6.526   9.218 -0.7782  1.8936 -0.0939
36594SOL     OW13373   5.974   1.200   8.440 -0.3218  0.2476  0.8476
36594SOL    HW113374   6.067   1.178   8.443  0.3379  2.1959 -1.7269
36594SOL    HW213375   5.935   1.132   8.385 -0.2221  0.0445  1.0252
36595SOL     OW13376   5.032   6.875   2.266  0.4149  0.1959 -0.0467
36595SOL    HW113377   4.987   6.950   2.306 -0.7264  0.1151 -1.1032
36595SOL    HW213378   5.027   6.893   2.172  0.0792 -1.2199 -0.3179
36596SOL     OW13379   4.539  10.429   3.919 -0.6008  0.3993  0.2146
36596SOL    HW113380   4.554  10.377   3.840 -0.6620 -0.8757  1.0024
36596SOL    HW213381   4.596  10.505   3.910  0.6725 -0.5782 -0.2747
36597SOL     OW13382  11.001   4.942   8.327  0.2535  0.3854  0.3740
36597SOL    HW113383  11.096   4.953   8.315  0.4019  0.1179  1.2683
36597SOL    HW213384  10.965   5.027   8.300  0.6756  0.2684 -0.6202
36598SOL     OW13385   8.936   2.924   1.889 -0.0862  0.0941  0.1078
36598SOL    HW113386   8.933   2.907   1.983 -0.2378  0.3021  0.1422
36598SOL    HW213387   9.029   2.939   1.871  0.0909 -1.0049  0.0250
36599SOL     OW13388   1.397   7.730   3.567  0.3331 -0.0973 -0.0630
36599SOL    HW113389   1.420   7.721   3.475  1.3121  0.1186  0.1485
36599SOL    HW213390   1.308   7.696   3.573  0.7258 -1.3059 -0.8556
36600SOL     OW13391   3.340   9.385   1.941 -0.1621  0.2271  0.0431
36600SOL    HW113392   3.322   9.303   1.895  0.1998  1.1964 -1.9120
36600SOL    HW213393   3.255   9.414   1.973 -0.4745 -0.3398 -0.2657
36601SOL     OW13394  10.349   0.750   9.948 -0.2886  0.0735  0.1228
36601SOL    HW113395  10.261   0.767   9.912  0.1185 -1.0401 -1.4980
36601SOL    HW213396  10.357   0.655   9.946  0.7527  0.1388  0.7940
36602SOL     OW13397   1.951   4.694   8.469 -0.0434 -0.1593  0.0655
36602SOL    HW113398   1.876   4.750   8.450  0.8516  0.4712 -1.9675
36602SOL    HW213399   1.927   4.646   8.548 -1.9884  1.0404  0.2582
36603SOL     OW13400   9.753   9.654   3.024 -0.7708 -0.2816 -0.1441
36603SOL    HW113401   9.769   9.569   3.066  0.5092 -0.5413 -1.0948
36603SOL    HW213402   9.798   9.647   2.940  0.8069  1.9570  0.4461
36604SOL     OW13403   1.238   7.044   2.825  0.2734  0.3858  0.3482
36604SOL    HW113404   1.162   7.035   2.883  0.6507 -0.3413  0.7443
36604SOL    HW213405   1.313   7.050   2.885  0.5136  1.2896 -0.0339
36605SOL     OW13406   3.883   9.151   5.331  0.3835 -0.0654 -0.0030
36605SOL    HW113407   3.806   9.095   5.323  0.5967 -0.6645  1.7070
36605SOL    HW213408   3.931   9.115   5.406  1.8680  0.8401 -0.4820
36606SOL     OW13409   7.467   0.821  10.265  0.2094  0.0175  0.1341
36606SOL    HW113410   7.547   0.808  10.213 -0.1498 -0.8025 -0.2349
36606SOL    HW213411   7.402   0.849  10.201  0.2477  0.9328  0.4741
36607SOL     OW13412   0.595   9.924   9.648 -0.1441 -0.0915  0.0133
36607SOL    HW113413   0.520   9.956   9.699 -1.0552  0.6095 -1.6886
36607SOL    HW213414   0.665   9.986   9.669 -0.6743  0.5438 -0.0321
36608SOL     OW13415   1.961  10.751   1.557 -0.0616  0.4085  0.4332
36608SOL    HW113416   1.889  10.689   1.547  0.0591  0.1711  0.9850
36608SOL    HW213417   1.978  10.782   1.468 -1.7829  1.5440  0.4430
36609SOL     OW13418   1.263   3.799   2.195  0.4823  0.1604  0.1909
36609SOL    HW113419   1.249   3.890   2.168  2.6925  0.7612  0.8411
36609SOL    HW213420   1.331   3.766   2.137 -1.0489 -1.4876 -0.7538
36610SOL     OW13421   0.920   2.217   7.587  0.6027 -0.3119  0.0304
36610SOL    HW113422   0.851   2.180   7.641  0.0133  1.6818  0.7562
36610SOL    HW213423   0.882   2.221   7.499  0.5664 -1.0893  0.0043
36611SOL     OW13424   2.211   3.883   8.741 -0.7444  0.5373  0.1426
36611SOL    HW113425   2.222   3.978   8.730 -0.3096  0.2515 -2.5971
36611SOL    HW213426   2.288   3.855   8.790  0.3143  1.3279 -1.0125
36612SOL     OW13427   6.449   8.235   1.448 -0.4179  0.2548 -0.4747
36612SOL    HW113428   6.489   8.149   1.458 -1.2646 -0.0395  0.4899
36612SOL    HW213429   6.450   8.272   1.536 -1.3574  0.6459 -0.6210
36613SOL     OW13430   9.272   0.745   4.267 -0.4535 -0.1391 -0.3677
36613SOL    HW113431   9.307   0.675   4.322  0.5179  0.9169  0.4200
36613SOL    HW213432   9.188   0.712   4.236 -0.1372 -1.5357  0.1904
36614SOL     OW13433   1.816   3.032  10.459  0.1567  0.0685  0.3093
36614SOL    HW113434   1.897   2.998  10.498 -0.1702 -0.3027  0.6714
36614SOL    HW213435   1.838   3.121  10.432  1.5447 -0.9058 -2.1872
36615SOL     OW13436   7.488   2.634  10.346 -0.2117 -0.5905 -0.4337
36615SOL    HW113437   7.439   2.554  10.367 -1.6098 -0.5124 -3.0173
36615SOL    HW213438   7.576   2.602  10.325  1.1112 -0.7409  4.1518
36616SOL     OW13439   5.499   9.523   8.983  0.8471  0.2929 -0.0178
36616SOL    HW113440   5.470   9.433   8.966 -0.3566  0.1977  2.1364
36616SOL    HW213441   5.430   9.578   8.945  0.5888  0.2216  0.3360
36617SOL     OW13442   9.698   0.702   6.637 -0.1151  0.9753  0.1272
36617SOL    HW113443   9.784   0.733   6.667  1.0684 -1.9765  0.0826
36617SOL    HW213444   9.659   0.662   6.714 -0.5800  0.5379 -0.3337
36618SOL     OW13445   6.827   7.072   1.276  0.2255 -0.1159 -0.2109
36618SOL    HW113446   6.751   7.014   1.288  0.1097  0.2885  1.1411
36618SOL    HW213447   6.879   7.028   1.209 -0.0965 -1.5573  0.4400
36619SOL     OW13448   6.020   5.010   6.532 -0.1219 -0.6509  0.2346
36619SOL    HW113449   5.951   4.977   6.475 -0.4414 -0.2215  0.3707
36619SOL    HW213450   6.101   4.975   6.494 -0.3717 -0.7613 -0.2009
36620SOL     OW13451   3.504   7.509   1.300 -0.8221  0.1879 -0.1851
36620SOL    HW113452   3.420   7.528   1.259 -0.3864  0.0186 -1.2001
36620SOL    HW213453   3.527   7.590   1.345 -0.8503  0.7481 -1.1391
36621SOL     OW13454  10.263   2.633   0.967  0.1175  0.4759 -0.4939
36621SOL    HW113455  10.251   2.722   0.935 -0.9540 -0.3854 -2.6987
36621SOL    HW213456  10.228   2.577   0.898 -1.3544 -1.6253  1.7664
36622SOL     OW13457  11.042  11.052   2.242  0.3536  0.1133  0.8578
36622SOL    HW113458  11.137  11.042   2.241  0.3431  0.0937 -0.0191
36622SOL    HW213459  11.010  10.981   2.186 -0.0726  1.1502 -0.2424
36623SOL     OW13460   1.160   4.480   0.320  0.3769  0.1858  0.0373
36623SOL    HW113461   1.239   4.500   0.370  0.8769  0.4144 -0.8209
36623SOL    HW213462   1.137   4.563   0.278 -0.7649  0.3205  0.8665
36624SOL     OW13463   6.618   4.616  11.068  0.3084 -0.0723  0.6786
36624SOL    HW113464   6.711   4.595  11.072  0.2373 -0.8928 -1.0140
36624SOL    HW213465   6.610   4.679  10.996 -0.1579  2.0025  2.4550
36625SOL     OW13466   9.378   5.264   9.274 -0.3392 -0.0166 -0.1519
36625SOL    HW113467   9.388   5.169   9.267 -0.4486 -0.2291  2.0224
36625SOL    HW213468   9.467   5.298   9.272 -0.3396 -0.0458 -1.9290
36626SOL     OW13469   3.402   6.469   8.093  0.1841 -0.2132 -0.0295
36626SOL    HW113470   3.491   6.447   8.067  0.1991  0.9500 -1.0714
36626SOL    HW213471   3.398   6.565   8.086 -1.3969 -0.3057 -0.9207
36627SOL     OW13472   1.523   0.113   0.759 -0.2645  0.5218  0.3469
36627SOL    HW113473   1.560   0.025   0.759 -1.0331  0.0636 -2.8961
36627SOL    HW213474   1.583   0.165   0.812  0.4191 -1.8325  2.0291
36628SOL     OW13475   1.495   8.971   2.070 -0.3332  0.1026 -0.5599
36628SOL    HW113476   1.523   9.015   2.151 -0.2530  0.6073 -0.8645
36628SOL    HW213477   1.492   9.040   2.004  0.4652 -0.4661 -1.2075
36629SOL     OW13478   5.189  10.565  10.389  0.2843  0.2828  0.0786
36629SOL    HW113479   5.217  10.518  10.311  0.0645  1.8067 -0.9463
36629SOL    HW213480   5.094  10.552  10.392  0.3976 -0.5493  0.6516
36630SOL     OW13481   0.146  10.162   9.464 -0.0465  0.3575 -0.4129
36630SOL    HW113482   0.235  10.142   9.435 -0.1370  1.3524 -1.4267
36630SOL    HW213483   0.091  10.100   9.417  0.1003 -0.3334  0.2995
36631SOL     OW13484   3.552   9.850   5.142 -0.2189  0.2905  0.6872
36631SOL    HW113485   3.619   9.918   5.152 -0.1285  0.1146  1.3619
36631SOL    HW213486   3.527   9.854   5.050 -0.3699  1.3913  0.7616
36632SOL     OW13487   6.755   3.212   9.110 -0.4730 -0.1604  0.2351
36632SOL    HW113488   6.672   3.258   9.121 -0.6414  0.1506 -1.8892
36632SOL    HW213489   6.799   3.221   9.194 -1.8016  1.2518  0.8268
36633SOL     OW13490   1.013   9.181   0.695 -0.8222  0.6267 -0.3186
36633SOL    HW113491   1.032   9.098   0.649 -1.1201  0.7443 -0.6655
36633SOL    HW213492   1.056   9.172   0.780  0.9326  0.9622 -1.1245
36634SOL     OW13493   4.952   4.400  10.570 -0.5785  0.1960 -0.0279
36634SOL    HW113494   4.857   4.395  10.573 -0.5525 -0.5462 -0.3275
36634SOL    HW213495   4.974   4.385  10.478 -0.0884 -1.4038  0.3186
36635SOL     OW13496   2.014   7.266   2.716  0.7857 -0.3482  0.3288
36635SOL    HW113497   2.066   7.337   2.753 -0.4776 -0.3702  2.2701
36635SOL    HW213498   1.924   7.298   2.720  0.3577 -1.3889 -0.4091
36636SOL     OW13499   2.321   3.608   5.421 -0.8467 -0.8435 -0.1977
36636SOL    HW113500   2.230   3.626   5.444 -1.1844  0.1865 -2.1364
36636SOL    HW213501   2.340   3.525   5.464 -1.2446  0.9487  3.8890
36637SOL     OW13502   9.002  10.466   5.743 -0.1226 -0.3854  0.2818
36637SOL    HW113503   9.084  10.512   5.724  0.0045 -0.0436  1.5630
36637SOL    HW213504   8.977  10.425   5.660  1.3392 -0.4822 -0.1290
36638SOL     OW13505   9.279   3.716   6.085 -0.4428 -0.3356  0.0208
36638SOL    HW113506   9.370   3.722   6.054 -0.6777 -1.7714 -1.0294
36638SOL    HW213507   9.262   3.802   6.124  1.1192  0.2231 -0.4270
36639SOL     OW13508   0.098   9.085   7.960 -0.6512  0.2067 -0.0170
36639SOL    HW113509   0.175   9.142   7.963 -1.5165  1.5516 -1.4753
36639SOL    HW213510   0.128   9.007   7.915  0.3434 -0.1518  1.2230
36640SOL     OW13511  10.878   0.857   5.695  0.5317 -0.4273  0.1800
36640SOL    HW113512  10.833   0.843   5.612  0.1492 -0.1538  0.3399
36640SOL    HW213513  10.906   0.769   5.722 -2.6038 -1.1513  1.6136
36641SOL     OW13514   6.895   0.702   7.224 -0.4254 -0.2972  0.1269
36641SOL    HW113515   6.980   0.744   7.234 -0.6174  0.3828 -0.9637
36641SOL    HW213516   6.832   0.774   7.226 -1.0489 -0.8392  1.4932
36642SOL     OW13517   1.946   0.891   6.148  0.2820  0.2892  0.6849
36642SOL    HW113518   1.995   0.966   6.181  0.6727  0.1224  0.4985
36642SOL    HW213519   1.855   0.918   6.150  0.5598  1.6281 -1.5425
36643SOL     OW13520   5.211   1.700   0.185  0.0372  0.5405  0.1327
36643SOL    HW113521   5.135   1.700   0.126 -1.5675 -0.8363  2.0564
36643SOL    HW213522   5.285   1.675   0.129 -1.4718 -1.1060 -1.2702
36644SOL     OW13523   0.735   0.842   4.697  0.2654  0.6152  0.0804
36644SOL    HW113524   0.683   0.766   4.673 -0.5791  1.1175  0.2762
36644SOL    HW213525   0.747   0.834   4.792  1.8014 -0.2548 -0.1466
36645SOL     OW13526  10.292   0.997   0.198 -0.0232  0.2821  0.3070
36645SOL    HW113527  10.329   1.063   0.138 -1.9247  0.9464 -0.2029
36645SOL    HW213528  10.259   0.929   0.140  1.6191 -1.0193  0.8217
36646SOL     OW13529   5.666   7.063   6.816 -0.4295 -0.7656  0.1678
36646SOL    HW113530   5.614   7.028   6.743 -0.3944  0.4131 -0.4473
36646SOL    HW213531   5.748   7.091   6.776 -1.3947  2.3253  0.0990
36647SOL     OW13532   4.669   5.808   3.766 -0.1718  0.1367  0.3484
36647SOL    HW113533   4.583   5.770   3.747  0.2640 -0.6533 -0.1234
36647SOL    HW213534   4.705   5.751   3.834  1.3701 -1.7061 -1.8372
36648SOL     OW13535   9.561   2.718   3.979  0.3781  0.2627 -0.1950
36648SOL    HW113536   9.467   2.722   3.994  0.5987  2.5181  1.1720
36648SOL    HW213537   9.599   2.734   4.066  2.0276 -0.6323 -0.7130
36649SOL     OW13538   4.054   3.299   8.405  0.4169  0.2160  0.2255
36649SOL    HW113539   4.142   3.301   8.444 -0.0121  0.5632  1.1997
36649SOL    HW213540   3.995   3.298   8.480 -0.4137 -2.9671 -0.3441
36650SOL     OW13541   5.360   5.610   3.530 -0.2434 -0.7101  0.2143
36650SOL    HW113542   5.348   5.699   3.563 -1.0147 -1.0205  0.7887
36650SOL    HW213543   5.337   5.616   3.437  2.3081  0.2517 -0.4493
36651SOL     OW13544  10.588   7.185   2.718  0.1654  0.5307  0.0649
36651SOL    HW113545  10.655   7.225   2.663  0.8202  0.8063  1.0321
36651SOL    HW213546  10.510   7.182   2.663  1.1103 -0.3318 -1.2957
36652SOL     OW13547  11.101   0.869   9.929 -0.0278 -0.2830  0.5463
36652SOL    HW113548  11.106   0.773   9.930 -1.1714 -0.4315  3.7740
36652SOL    HW213549  11.024   0.888   9.875  0.8387 -1.0478 -1.0413
36653SOL     OW13550   1.425   4.847   1.493  0.1743 -0.1515  0.1481
36653SOL    HW113551   1.352   4.879   1.546  0.1476 -1.9170  1.2574
36653SOL    HW213552   1.415   4.892   1.409 -2.8641 -1.1217 -0.1364
36654SOL     OW13553   7.086   9.598   2.749  0.5845  0.1211 -0.3851
36654SOL    HW113554   7.149   9.661   2.784  1.2476 -0.8548  0.2207
36654SOL    HW213555   7.099   9.600   2.655  1.3909  0.0632 -0.2776
36655SOL     OW13556   7.156   9.737   9.977 -0.2081 -0.3373  0.1657
36655SOL    HW113557   7.085   9.674   9.982 -1.0858  0.6583  0.5389
36655SOL    HW213558   7.135   9.803  10.043  0.8699  0.1640  0.0329
36656SOL     OW13559   6.146   7.223   0.477  0.6557  0.4342  0.2645
36656SOL    HW113560   6.121   7.230   0.570  0.9698  1.5910  0.2845
36656SOL    HW213561   6.189   7.138   0.470 -1.4311 -0.7260  0.6635
36657SOL     OW13562   1.277   4.270   6.980 -0.0104  0.0720  0.0240
36657SOL    HW113563   1.290   4.175   6.987 -1.5603 -0.5783 -3.7015
36657SOL    HW213564   1.191   4.284   7.021  0.6839  0.1223  1.5389
36658SOL     OW13565   3.384   1.155   0.893 -0.3267  0.4055 -0.0032
36658SOL    HW113566   3.446   1.155   0.820  0.1638  1.0578  0.3958
36658SOL    HW213567   3.419   1.222   0.953 -2.4528  2.2157 -0.6406
36659SOL     OW13568   4.996   1.404   4.262 -0.3150 -0.3582 -0.1911
36659SOL    HW113569   4.958   1.331   4.215 -0.7651  0.3411 -0.9409
36659SOL    HW213570   5.076   1.425   4.215 -0.2950 -0.2330 -0.1022
36660SOL     OW13571   6.405   4.433   6.433  0.6397 -0.4091  0.0869
36660SOL    HW113572   6.458   4.376   6.490 -0.5319 -1.3778  0.2660
36660SOL    HW213573   6.315   4.415   6.460  0.2549  2.5972  1.1160
36661SOL     OW13574   5.056   4.141   9.562  0.1688 -0.5872 -0.1877
36661SOL    HW113575   5.094   4.056   9.539  1.6775 -0.8937  2.9272
36661SOL    HW213576   5.113   4.205   9.519  0.7602 -1.1174 -0.2036
36662SOL     OW13577   3.831   3.231   9.855 -0.1921 -0.6667  0.0454
36662SOL    HW113578   3.752   3.182   9.878 -0.0772 -0.8088  0.1378
36662SOL    HW213579   3.800   3.301   9.798 -0.3546 -0.8523 -0.0945
36663SOL     OW13580   2.388   7.385   8.109  0.0370 -0.2489  0.1412
36663SOL    HW113581   2.405   7.445   8.181  0.1923  0.1294 -0.2080
36663SOL    HW213582   2.317   7.426   8.059  0.0919 -0.3900 -0.0555
36664SOL     OW13583   8.553   7.035   4.985  0.7336 -0.1290 -0.3541
36664SOL    HW113584   8.645   7.009   4.993  0.7525 -0.1185 -0.5383
36664SOL    HW213585   8.555   7.124   4.950  0.6350 -0.9422 -2.6177
36665SOL     OW13586  10.851   0.382   7.401  0.5577 -0.5753  0.2092
36665SOL    HW113587  10.800   0.395   7.322  1.3855 -0.0856 -0.2655
36665SOL    HW213588  10.870   0.471   7.432  0.3715 -0.7631  0.8656
36666SOL     OW13589   7.102   0.505   7.600 -0.5479  0.4134 -0.4659
36666SOL    HW113590   7.071   0.596   7.601  0.1160  0.6463  0.6456
36666SOL    HW213591   7.041   0.458   7.657 -0.0916  0.4546  0.0680
36667SOL     OW13592   2.804   8.619   0.717  0.0707  0.8814 -0.2862
36667SOL    HW113593   2.855   8.607   0.798 -1.8222 -0.6638  0.7526
36667SOL    HW213594   2.820   8.539   0.666 -1.7408  0.0508  0.3605
36668SOL     OW13595   9.763   0.007   9.255 -0.0478 -0.4193  0.7704
36668SOL    HW113596   9.722   0.069   9.314 -0.5451 -0.1358  0.1373
36668SOL    HW213597   9.691  -0.025   9.199  0.1210 -1.8160  1.2982
36669SOL     OW13598   2.585   2.271   5.190  0.1030 -0.0889 -0.1387
36669SOL    HW113599   2.604   2.233   5.276  0.7204  0.8902  0.1788
36669SOL    HW213600   2.497   2.308   5.201 -0.2270 -0.8155 -0.2467
36670SOL     OW13601   8.513   1.850   5.692  0.1322  0.8506 -0.0823
36670SOL    HW113602   8.606   1.852   5.714  0.1736  2.0531 -0.2846
36670SOL    HW213603   8.500   1.766   5.649  1.0038  0.4360  0.4275
36671SOL     OW13604   5.161   9.114   0.551 -0.8178 -0.2487  0.3443
36671SOL    HW113605   5.218   9.038   0.536  0.0608  0.6070 -0.9404
36671SOL    HW213606   5.108   9.120   0.471 -0.2235  0.9909  0.0106
36672SOL     OW13607   7.483  11.030   4.896  0.2193 -0.3831 -0.2484
36672SOL    HW113608   7.496  11.034   4.991 -1.6432 -0.7398  0.0666
36672SOL    HW213609   7.477  10.936   4.877 -0.2882 -0.2940 -0.5597
36673SOL     OW13610   9.902   0.132   6.982  0.1110  0.6153  0.5095
36673SOL    HW113611   9.875   0.204   6.926 -1.1228 -0.4371 -0.2946
36673SOL    HW213612   9.820   0.088   7.007  0.5381  1.2867  3.5355
36674SOL     OW13613   5.236  10.047   5.445  0.5486 -0.3086 -0.4779
36674SOL    HW113614   5.168  10.058   5.512  0.9903 -2.3856  0.3931
36674SOL    HW213615   5.188  10.026   5.365  0.0110  2.2635 -0.9234
36675SOL     OW13616   3.545   0.721   8.208  0.1643  0.2246  0.1903
36675SOL    HW113617   3.510   0.693   8.293  1.2203  0.1827  0.6184
36675SOL    HW213618   3.467   0.743   8.157 -0.4548  1.7207  1.6615
36676SOL     OW13619   1.200   7.694   6.106  0.5144 -0.3231 -0.0344
36676SOL    HW113620   1.138   7.644   6.054  1.7413 -2.4682  0.4321
36676SOL    HW213621   1.270   7.717   6.045 -0.6404  2.1045 -0.5647
36677SOL     OW13622   5.186  10.459   3.127 -0.2816  0.4175  0.6569
36677SOL    HW113623   5.140  10.485   3.048 -0.7646  0.5319  0.9737
36677SOL    HW213624   5.241  10.534   3.150  1.2402 -0.2498 -0.5580
36678SOL     OW13625   3.449  10.449   1.991  0.0785  0.3404  0.0807
36678SOL    HW113626   3.481  10.363   2.016  0.6491  0.3600 -0.5636
36678SOL    HW213627   3.517  10.510   2.020 -0.0189  0.5146 -0.0532
36679SOL     OW13628   9.480   4.216   6.425  0.1881  0.5203  0.4349
36679SOL    HW113629   9.522   4.297   6.398  0.5097 -0.4122 -2.0889
36679SOL    HW213630   9.549   4.150   6.420 -0.9469 -0.5935 -1.4160
36680SOL     OW13631   1.114   0.875   1.905 -0.2456 -0.2459 -0.6596
36680SOL    HW113632   1.163   0.908   1.980 -1.7567  1.3991 -0.3154
36680SOL    HW213633   1.120   0.779   1.913  1.1116 -0.1032  0.5183
36681SOL     OW13634   4.287   5.686   7.021  0.1261  0.1260  0.0606
36681SOL    HW113635   4.250   5.700   6.933  0.2390  0.3133  0.0413
36681SOL    HW213636   4.378   5.661   7.004  0.6936  1.9800  0.1674
36682SOL     OW13637   4.104   9.183   2.449  0.3260  0.2129 -0.4370
36682SOL    HW113638   4.152   9.173   2.367 -0.3992  0.4420 -0.9023
36682SOL    HW213639   4.082   9.093   2.475  0.4811  0.1457 -0.5369
36683SOL     OW13640   5.594   3.425   9.400  0.2975  0.2184 -0.0634
36683SOL    HW113641   5.630   3.361   9.339 -0.0944  0.2386 -0.3256
36683SOL    HW213642   5.655   3.427   9.473  0.0933 -0.7690  0.1485
36684SOL     OW13643   3.300   5.818   7.130  0.0057  0.3417  0.2777
36684SOL    HW113644   3.346   5.737   7.108  0.7413  0.5763  0.8938
36684SOL    HW213645   3.314   5.829   7.224 -3.5048 -0.9076  1.0863
36685SOL     OW13646   1.405   0.030  10.194  0.4456  0.0217 -0.1221
36685SOL    HW113647   1.349  -0.036  10.234  1.2834 -0.5520  0.1279
36685SOL    HW213648   1.377   0.112  10.234 -1.6813  0.0911 -1.5814
36686SOL     OW13649   3.470   7.175   3.501  0.4900 -0.2833  0.1736
36686SOL    HW113650   3.479   7.182   3.406  1.9205 -0.2259  0.2855
36686SOL    HW213651   3.422   7.094   3.515  0.5096 -0.4332 -0.5921
36687SOL     OW13652   5.089   4.983   6.399 -0.5004  0.2072  0.4576
36687SOL    HW113653   5.135   4.911   6.356  0.5940  0.6373  0.8541
36687SOL    HW213654   5.143   5.003   6.476 -1.1129  1.0539  0.6831
36688SOL     OW13655   1.814   5.190   4.815  0.2269 -0.5410  0.1052
36688SOL    HW113656   1.815   5.116   4.754  0.7390 -0.9733  0.6212
36688SOL    HW213657   1.722   5.219   4.816 -0.0217 -1.2921  0.0301
36689SOL     OW13658   4.551  10.832   4.541  0.3132 -0.2037 -0.0656
36689SOL    HW113659   4.539  10.834   4.636 -0.4752 -2.3987 -0.0743
36689SOL    HW213660   4.646  10.842   4.529  0.3050  1.4533  0.8321
36690SOL     OW13661   2.539   5.393   3.949  0.5029  0.3704 -0.5128
36690SOL    HW113662   2.446   5.398   3.927  0.4943 -1.5172 -1.1061
36690SOL    HW213663   2.550   5.453   4.022 -1.5237 -0.5376  0.6043
36691SOL     OW13664   4.611   1.638   3.329 -0.0974 -0.1639  0.5418
36691SOL    HW113665   4.530   1.596   3.300  1.9325 -3.8132 -0.4643
36691SOL    HW213666   4.626   1.603   3.417 -1.2650  3.3574  2.3734
36692SOL     OW13667   4.022   4.002   1.396 -0.2973  0.1303 -0.0260
36692SOL    HW113668   3.976   3.921   1.373 -0.6840  0.2355  0.3638
36692SOL    HW213669   4.114   3.982   1.380 -0.5807  0.5355 -2.7000
36693SOL     OW13670  10.378   7.228   4.595  0.2983 -0.4524  0.2989
36693SOL    HW113671  10.293   7.228   4.639 -0.1780  3.1248 -0.2839
36693SOL    HW213672  10.373   7.157   4.531 -3.1381  0.8246 -1.0752
36694SOL     OW13673   0.347   3.548   4.088  0.2605  0.0794  0.3295
36694SOL    HW113674   0.371   3.627   4.136 -1.1241  1.1849 -0.7172
36694SOL    HW213675   0.375   3.565   3.998 -0.2869 -0.5157  0.0342
36695SOL     OW13676  10.542   5.740   4.679 -0.0526  0.1703  0.0866
36695SOL    HW113677  10.608   5.768   4.743 -1.4576  1.1194  1.1953
36695SOL    HW213678  10.581   5.761   4.594  1.2508  0.2940  0.6894
36696SOL     OW13679   2.265   4.445   8.454 -0.6195  0.0074  0.3216
36696SOL    HW113680   2.342   4.428   8.400 -0.5528  1.6598 -0.1701
36696SOL    HW213681   2.297   4.447   8.544  0.0085  1.1064  0.0862
36697SOL     OW13682   5.783   0.521   3.104  0.0679 -0.3483 -0.0320
36697SOL    HW113683   5.729   0.560   3.173  1.1981  0.4341  0.4467
36697SOL    HW213684   5.803   0.595   3.046  1.3202 -0.4308  0.2731
36698SOL     OW13685   8.599   0.706   8.623 -0.5518  0.0172  0.4261
36698SOL    HW113686   8.582   0.693   8.530  0.7020 -1.0600  0.3060
36698SOL    HW213687   8.674   0.649   8.641  0.5504  1.7599  1.6407
36699SOL     OW13688   3.073   8.856   6.418  0.0740  0.0769 -0.3067
36699SOL    HW113689   3.146   8.797   6.438 -0.9953 -1.6220 -1.2277
36699SOL    HW213690   3.004   8.831   6.479 -0.6018 -0.0629 -1.1036
36700SOL     OW13691   4.970   2.906   0.585 -0.2401  0.0781 -0.2561
36700SOL    HW113692   5.019   2.944   0.512 -0.6577 -0.1448 -0.6518
36700SOL    HW213693   5.032   2.908   0.658  0.2028  0.2428 -0.6311
36701SOL     OW13694   4.786  11.011   7.135 -0.2739  0.0792  0.5298
36701SOL    HW113695   4.805  11.018   7.229  1.7132  1.1694  0.1021
36701SOL    HW213696   4.710  10.952   7.130 -1.2925  1.0706  2.8810
36702SOL     OW13697   1.087   6.295   8.660  0.0735 -0.2303  0.3794
36702SOL    HW113698   1.152   6.366   8.662 -0.4609  0.2576  1.1604
36702SOL    HW213699   1.003   6.340   8.663 -0.4908 -0.6912 -3.5320
36703SOL     OW13700   3.704   8.641   9.993  0.0478  0.8793 -0.3042
36703SOL    HW113701   3.612   8.661   9.975  0.1451  1.4072 -0.2469
36703SOL    HW213702   3.721   8.560   9.946 -0.1391  1.3715 -1.2432
36704SOL     OW13703   4.717   5.720   0.034 -0.3739  0.0855 -0.1205
36704SOL    HW113704   4.802   5.686   0.060 -0.5412  1.4361  2.5499
36704SOL    HW213705   4.654   5.672   0.088 -1.0769  0.8804 -0.2084
36705SOL     OW13706   1.383   5.231   0.388  0.4912 -0.3095 -0.5308
36705SOL    HW113707   1.475   5.226   0.364  0.4548 -0.9883 -0.5570
36705SOL    HW213708   1.337   5.190   0.314  0.2864 -1.3187  0.1443
36706SOL     OW13709   6.236   7.431   4.223 -0.7036 -0.7028  0.0170
36706SOL    HW113710   6.188   7.372   4.281 -2.6592 -1.2624 -2.0157
36706SOL    HW213711   6.168   7.476   4.173  0.8598  0.5282 -1.1133
36707SOL     OW13712   4.525   4.940  10.673 -0.5671 -0.1977 -0.0556
36707SOL    HW113713   4.550   5.001  10.605 -0.2011 -1.4153 -1.0546
36707SOL    HW213714   4.506   4.858  10.627  0.7794 -1.3898  1.3778
36708SOL     OW13715   4.091   5.646  10.370  0.2252  0.5779  0.4029
36708SOL    HW113716   4.010   5.656  10.420  1.2049  2.3108  1.7685
36708SOL    HW213717   4.149   5.713  10.405  1.9007  0.1005 -1.2817
36709SOL     OW13718   6.241   7.528   4.766  0.7028  0.0827  0.0926
36709SOL    HW113719   6.297   7.576   4.827 -1.2213  1.2706  1.0376
36709SOL    HW213720   6.153   7.563   4.783  0.1391  0.9958 -3.8643
36710SOL     OW13721   3.121   0.249   0.317 -0.2697 -0.3801  0.6132
36710SOL    HW113722   3.049   0.297   0.357  1.5495  1.5526  1.7682
36710SOL    HW213723   3.157   0.309   0.252  0.4232 -1.2191  0.1939
36711SOL     OW13724   4.040   2.105   4.600  0.2410  0.7664  0.3004
36711SOL    HW113725   3.993   2.166   4.657  1.4301  0.8536  1.2175
36711SOL    HW213726   4.043   2.023   4.648 -0.1097  0.3871 -0.3172
36712SOL     OW13727   9.642   8.789   2.816  0.2095 -0.1026 -0.0771
36712SOL    HW113728   9.615   8.700   2.794  1.5499 -0.7726  0.8476
36712SOL    HW213729   9.722   8.803   2.765  0.3462  0.3349  0.2496
36713SOL     OW13730   0.299   4.665   2.498  0.2823 -0.0470  0.4961
36713SOL    HW113731   0.320   4.691   2.588  0.5255  0.2362  0.3594
36713SOL    HW213732   0.332   4.575   2.491 -1.1100 -0.6289  1.1600
36714SOL     OW13733   5.882   7.841   0.053 -0.0143  0.2755 -0.4686
36714SOL    HW113734   5.915   7.752   0.067 -0.8207  0.0740  0.1705
36714SOL    HW213735   5.790   7.829   0.029 -0.5459  1.0050  1.0958
36715SOL     OW13736   1.257   5.426   8.762 -0.2815  0.0415  0.0950
36715SOL    HW113737   1.196   5.496   8.736  0.0264  0.8279  1.3868
36715SOL    HW213738   1.210   5.379   8.831  0.6006  0.7270  1.1868
36716SOL     OW13739   3.785  10.566   0.292 -0.5405  0.0001  1.0987
36716SOL    HW113740   3.833  10.639   0.254  0.2561 -0.9138  0.3053
36716SOL    HW213741   3.693  10.587   0.274 -0.2259 -0.1241 -0.8939
36717SOL     OW13742   2.004   3.608   3.900 -0.3744 -0.6196  0.3654
36717SOL    HW113743   1.974   3.528   3.856 -3.0039 -0.1953  1.2413
36717SOL    HW213744   1.924   3.655   3.922  1.0728  2.0053  0.4243
36718SOL     OW13745   0.795  10.264   0.703  0.6285  0.5384  0.6794
36718SOL    HW113746   0.824  10.332   0.641  0.9973 -0.0513  0.1936
36718SOL    HW213747   0.730  10.308   0.758  0.0670  0.9970 -0.3203
36719SOL     OW13748   1.918   2.665   3.401  0.1188 -0.9368 -0.5207
36719SOL    HW113749   1.911   2.620   3.485  1.8246 -0.5404 -0.1443
36719SOL    HW213750   1.859   2.740   3.409  0.2795 -0.8972  0.3249
36720SOL     OW13751   5.646   9.075   8.579 -0.3115 -0.8370 -0.2808
36720SOL    HW113752   5.703   9.126   8.521 -0.6908 -1.0251 -0.8224
36720SOL    HW213753   5.596   9.141   8.627  0.1500 -0.6766 -0.0137
36721SOL     OW13754   5.068   2.879   3.945  0.2349 -0.2860  0.3230
36721SOL    HW113755   5.040   2.789   3.959 -2.7806  0.2234 -1.5315
36721SOL    HW213756   5.163   2.874   3.932  0.0828 -3.2157 -0.1617
36722SOL     OW13757   2.415   5.670   4.703 -0.0718 -0.4354 -0.6377
36722SOL    HW113758   2.392   5.610   4.632 -3.0489 -1.3534  0.9148
36722SOL    HW213759   2.397   5.620   4.783  2.2140  0.8833  0.8123
36723SOL     OW13760   7.396   8.443   8.246 -0.3419 -0.5378 -0.1709
36723SOL    HW113761   7.339   8.425   8.320 -0.2664 -1.7950 -0.3941
36723SOL    HW213762   7.484   8.433   8.280 -0.3110 -1.4478 -0.4936
36724SOL     OW13763   2.630   6.167   8.280  0.1831 -0.3981  0.8807
36724SOL    HW113764   2.559   6.132   8.334 -0.5987 -0.2214 -0.0084
36724SOL    HW213765   2.683   6.218   8.341 -0.8805  0.0921  1.4338
36725SOL     OW13766   2.048   3.227   3.838 -0.4872 -0.5244  0.6174
36725SOL    HW113767   2.073   3.192   3.924 -0.3663 -0.6793  0.5187
36725SOL    HW213768   1.955   3.204   3.830 -0.0020 -2.3409 -0.1804
36726SOL     OW13769   3.674   5.962   4.738 -0.5930  0.0573 -0.3183
36726SOL    HW113770   3.694   6.055   4.723 -1.7191  0.4875  0.7288
36726SOL    HW213771   3.759   5.918   4.733 -0.0900  1.0868 -1.1958
36727SOL     OW13772   7.370   9.456   1.564  0.0227 -0.0982  0.3812
36727SOL    HW113773   7.436   9.509   1.610 -0.3573 -0.2243  1.0802
36727SOL    HW213774   7.299   9.517   1.545  0.3651  0.0562 -0.4461
36728SOL     OW13775   2.806  10.302   1.171  0.3272 -0.6046  0.2972
36728SOL    HW113776   2.849  10.283   1.088  0.8736  0.9495  0.1850
36728SOL    HW213777   2.878  10.315   1.233  0.0993  1.5914  0.2063
36729SOL     OW13778   9.711  10.118   6.534  0.4383  0.3604  0.2940
36729SOL    HW113779   9.742  10.081   6.617 -0.3174 -1.1692 -0.0553
36729SOL    HW213780   9.742  10.057   6.468 -0.3167  0.6999 -0.3912
36730SOL     OW13781   2.008   7.847   2.537 -0.0694  0.0959 -0.0670
36730SOL    HW113782   2.017   7.902   2.459 -2.2261  0.1627 -0.3295
36730SOL    HW213783   1.951   7.898   2.595  0.2395 -0.6375  0.9055
36731SOL     OW13784  10.718   0.529   6.136 -0.6421 -0.3021 -0.4866
36731SOL    HW113785  10.687   0.547   6.047 -1.6936  0.1223 -0.0577
36731SOL    HW213786  10.807   0.496   6.124  0.3634  2.4883 -1.5230
36732SOL     OW13787   1.373   3.968  10.777 -0.0130  0.1916  0.3113
36732SOL    HW113788   1.388   4.061  10.757 -0.3934  0.2324  0.2066
36732SOL    HW213789   1.418   3.954  10.861  0.3233  0.3889  0.1651
36733SOL     OW13790   9.037   2.684   0.823 -0.6894 -0.3390  0.3021
36733SOL    HW113791   8.979   2.755   0.797  1.2167  1.5741  1.0372
36733SOL    HW213792   9.051   2.634   0.742 -0.5299  1.2859 -0.7212
36734SOL     OW13793   7.158   7.861   4.165 -0.3904 -0.6420  0.2422
36734SOL    HW113794   7.246   7.835   4.192 -0.3441 -0.2502  0.4849
36734SOL    HW213795   7.128   7.790   4.109  1.8009  1.1841 -3.6199
36735SOL     OW13796   1.126   1.653   6.915  0.1331 -0.1051  0.2965
36735SOL    HW113797   1.052   1.639   6.856  0.9450  0.2320 -0.8496
36735SOL    HW213798   1.191   1.589   6.885  0.3779 -0.2718  1.1681
36736SOL     OW13799   2.083   4.115   8.206  0.5013  0.0669 -0.2572
36736SOL    HW113800   2.162   4.133   8.156  0.8246  1.2421  0.6331
36736SOL    HW213801   2.114   4.075   8.287 -0.1266 -3.8198 -1.7249
36737SOL     OW13802   9.841  10.619   5.634 -0.4996 -1.0439 -0.0399
36737SOL    HW113803   9.926  10.611   5.590  0.4405 -2.5432  1.8620
36737SOL    HW213804   9.824  10.713   5.637  1.1539 -0.7027 -0.3697
36738SOL     OW13805   8.766   3.330   9.584 -0.0384 -0.0827  0.3792
36738SOL    HW113806   8.726   3.244   9.575  0.8713 -0.7850  2.4944
36738SOL    HW213807   8.859   3.316   9.565  0.2514  0.2596  1.4960
36739SOL     OW13808   8.553   7.230   2.233  0.5217 -0.0161  0.2917
36739SOL    HW113809   8.548   7.186   2.147  2.4006  1.5684 -0.6993
36739SOL    HW213810   8.603   7.170   2.288  0.8102 -0.2778 -0.2517
36740SOL     OW13811   6.908  10.839   7.550  0.3582 -0.5826 -0.2566
36740SOL    HW113812   6.947  10.778   7.488  1.3025  0.3007 -0.5518
36740SOL    HW213813   6.814  10.836   7.531  0.3389 -2.1759 -0.0379
36741SOL     OW13814   5.198   0.525  10.910 -0.0158 -0.2625 -0.1060
36741SOL    HW113815   5.293   0.515  10.908 -0.0547 -0.5878 -0.8779
36741SOL    HW213816   5.177   0.569  10.827 -0.3733  1.4295  0.8370
36742SOL     OW13817   4.164   4.557  10.992  0.0638  0.2235  0.5474
36742SOL    HW113818   4.247   4.546  10.946  0.2214  0.4326  0.7757
36742SOL    HW213819   4.142   4.650  10.982 -0.0423  0.2111  0.6517
36743SOL     OW13820   8.464  10.565   4.461 -0.7470  0.1930 -0.2097
36743SOL    HW113821   8.441  10.495   4.400 -1.7226  1.0559 -0.8834
36743SOL    HW213822   8.560  10.566   4.462 -0.7194 -0.5116 -0.9445
36744SOL     OW13823   3.634   7.748   0.532 -0.3927  0.3883  0.0160
36744SOL    HW113824   3.714   7.797   0.512 -0.5023  0.4481 -0.2862
36744SOL    HW213825   3.575   7.812   0.570 -0.4121  0.4186 -0.0631
36745SOL     OW13826   0.552   6.120  10.766  0.1467  0.1112  0.3239
36745SOL    HW113827   0.522   6.096  10.679 -1.3817 -0.2294  0.9177
36745SOL    HW213828   0.482   6.092  10.825  1.5720 -0.6191  1.7851
36746SOL     OW13829   8.427   8.574   6.087  0.5248  0.3931 -0.3300
36746SOL    HW113830   8.378   8.557   6.168  1.1790 -0.2201 -0.0488
36746SOL    HW213831   8.503   8.516   6.093  0.7780  0.6243 -1.2117
36747SOL     OW13832   3.214   1.627   0.728  0.2400  0.1081 -0.1050
36747SOL    HW113833   3.270   1.617   0.804  0.4178  2.9467  0.2525
36747SOL    HW213834   3.128   1.597   0.757  0.6913 -0.5203  0.6140
36748SOL     OW13835   0.691   8.814   7.680  0.4057 -0.1288 -0.3413
36748SOL    HW113836   0.596   8.812   7.675  0.2957  2.4239 -0.7026
36748SOL    HW213837   0.716   8.728   7.713 -2.1323 -0.2388  1.5554
36749SOL     OW13838   8.168   3.758  10.053  0.1287  0.9362 -0.6062
36749SOL    HW113839   8.098   3.731  10.112  1.2198  1.9649  1.2425
36749SOL    HW213840   8.138   3.842  10.017  1.2040  2.4200  1.7627
36750SOL     OW13841   1.440  10.343   7.805  0.1271 -0.0091 -0.9933
36750SOL    HW113842   1.364  10.368   7.858  1.1101 -1.4376  1.2343
36750SOL    HW213843   1.432  10.396   7.725 -1.2598  2.5489  0.6893
36751SOL     OW13844   5.687   6.520   8.590  0.1965  0.2582  0.5483
36751SOL    HW113845   5.691   6.576   8.668 -1.8662 -0.4517  1.2425
36751SOL    HW213846   5.683   6.431   8.626 -0.6209 -0.0905 -0.3871
36752SOL     OW13847   4.970  10.146   4.448 -0.1462  0.2563  0.2883
36752SOL    HW113848   4.903  10.157   4.515 -1.3107  1.5816 -1.0281
36752SOL    HW213849   4.958  10.056   4.417 -0.8765  0.2667  0.5296
36753SOL     OW13850   8.836   9.024   5.229  0.1960 -0.4373  0.1418
36753SOL    HW113851   8.768   8.962   5.253  0.2620 -0.7563 -0.4637
36753SOL    HW213852   8.790   9.108   5.221  0.1590 -0.3513  1.2244
36754SOL     OW13853   5.238   7.489   9.471 -0.0541  0.5191  0.1441
36754SOL    HW113854   5.330   7.477   9.492  0.3491 -0.8537 -2.0891
36754SOL    HW213855   5.238   7.558   9.404 -0.8017  1.4167  1.0388
36755SOL     OW13856   4.478  10.753   5.281 -0.0797  0.4707 -0.3360
36755SOL    HW113857   4.396  10.799   5.295  0.2365  1.7619 -2.3287
36755SOL    HW213858   4.543  10.803   5.331 -0.0282  1.1969 -1.1181
36756SOL     OW13859   3.252   5.224   7.990 -0.2233 -0.0734  0.4590
36756SOL    HW113860   3.263   5.211   7.896  0.2806 -1.5115  0.6917
36756SOL    HW213861   3.324   5.175   8.030  0.7566  2.0932  1.5613
36757SOL     OW13862   0.073   4.098   7.695 -0.1322  0.0435 -0.6978
36757SOL    HW113863   0.065   4.183   7.650  1.2602  0.5451 -0.0658
36757SOL    HW213864   0.157   4.063   7.665 -0.0812 -0.5012  0.0468
36758SOL     OW13865   8.346   9.013   8.626 -0.1964  0.0568 -0.5100
36758SOL    HW113866   8.377   9.081   8.686 -0.6830  0.5763 -0.8337
36758SOL    HW213867   8.363   8.931   8.672  1.8397  0.2943 -0.7696
36759SOL     OW13868   0.382   4.389  11.057 -0.9052  0.5116 -0.1049
36759SOL    HW113869   0.344   4.303  11.040 -1.3885  0.6737  0.1317
36759SOL    HW213870   0.476   4.373  11.065 -1.0061 -0.0097  0.0564
36760SOL     OW13871   4.450   6.268   7.670  0.0633 -0.4568 -0.1477
36760SOL    HW113872   4.428   6.344   7.615  1.8535  0.4129  0.2491
36760SOL    HW213873   4.525   6.228   7.626  0.5531 -0.6586  0.8432
36761SOL     OW13874   2.419   7.872   8.261  0.4305  0.6398 -0.2349
36761SOL    HW113875   2.353   7.935   8.288 -1.5318 -1.8913  1.2879
36761SOL    HW213876   2.498   7.898   8.308 -0.0527  2.4581 -0.3797
36762SOL     OW13877   3.967   3.072   0.207 -0.6865  0.0159 -0.3608
36762SOL    HW113878   4.010   3.084   0.292  1.6146 -2.3777 -1.0734
36762SOL    HW213879   4.022   3.120   0.146 -0.5709 -0.8041 -0.9135
36763SOL     OW13880   5.773   4.309   4.101 -0.2981 -0.1030  0.4975
36763SOL    HW113881   5.767   4.258   4.021 -0.4720  0.0535  0.4107
36763SOL    HW213882   5.685   4.311   4.137  0.3028 -2.9555  2.4565
36764SOL     OW13883   8.678   9.845   9.062  0.2829 -0.1000 -0.3607
36764SOL    HW113884   8.589   9.821   9.036 -0.5046  2.2888 -0.1528
36764SOL    HW213885   8.732   9.823   8.985 -0.4116 -1.7803 -0.4053
36765SOL     OW13886   6.767   1.319   4.443  0.5243  0.2706 -0.2535
36765SOL    HW113887   6.720   1.260   4.502 -0.3075  3.2787  2.3798
36765SOL    HW213888   6.859   1.311   4.469  0.2320  1.1469  1.1482
36766SOL     OW13889   1.317   5.082   6.221  0.2412 -0.2053 -0.8904
36766SOL    HW113890   1.389   5.026   6.191 -0.2850 -1.0844 -0.5491
36766SOL    HW213891   1.331   5.165   6.175  1.7380 -0.1955 -0.4793
36767SOL     OW13892   1.307   2.067   5.109  0.7238  0.0828 -0.5420
36767SOL    HW113893   1.347   2.000   5.054  1.5133 -0.4789  0.6580
36767SOL    HW213894   1.380   2.121   5.139 -0.1088  3.0344 -3.3461
36768SOL     OW13895   1.694  10.362   0.753 -0.1768 -0.1385  0.1523
36768SOL    HW113896   1.685  10.454   0.777 -0.7472 -0.5320  1.5953
36768SOL    HW213897   1.612  10.340   0.709 -1.0676 -0.5072  1.8960
36769SOL     OW13898   3.104   1.664   5.871 -0.3728  0.1452 -0.5607
36769SOL    HW113899   3.167   1.663   5.942 -0.5343 -0.7420 -0.4130
36769SOL    HW213900   3.156   1.680   5.792 -0.5350  4.5979 -0.0120
36770SOL     OW13901   6.493   5.035   2.294  0.0882 -0.2860 -0.0855
36770SOL    HW113902   6.474   5.015   2.386  0.3658  0.8862  0.2465
36770SOL    HW213903   6.577   4.992   2.277  0.9916  1.0339  0.8022
36771SOL     OW13904   5.614   0.284   7.435 -0.5870 -0.4919  0.3248
36771SOL    HW113905   5.618   0.241   7.350  1.4844  1.3481 -0.6124
36771SOL    HW213906   5.540   0.344   7.428 -1.1115 -1.1336  0.2543
36772SOL     OW13907   0.626   7.681   2.846  0.2228 -0.8113  0.0337
36772SOL    HW113908   0.615   7.672   2.751 -0.4194 -1.7198  0.1782
36772SOL    HW213909   0.567   7.615   2.883  1.1218 -1.0658  1.0471
36773SOL     OW13910  11.021   0.494   2.719 -0.2602  0.0486 -0.0295
36773SOL    HW113911  11.059   0.514   2.634  1.1752  0.2249  0.6229
36773SOL    HW213912  11.056   0.562   2.777 -0.6099 -0.5157  0.8610
36774SOL     OW13913   7.932   9.861   8.289 -0.2120 -0.2670  0.7364
36774SOL    HW113914   7.914   9.873   8.196  0.0153 -0.0239  0.7240
36774SOL    HW213915   7.954   9.768   8.297 -0.0018 -0.2371  0.5114
36775SOL     OW13916   7.311   9.869   0.249  0.7721  0.0916  0.3206
36775SOL    HW113917   7.249   9.941   0.242  0.8005 -0.0245 -2.8695
36775SOL    HW213918   7.257   9.791   0.260  0.1873 -0.0116 -2.4593
36776SOL     OW13919   6.301   1.827   2.444 -0.0723  0.2123  0.4107
36776SOL    HW113920   6.233   1.761   2.427  0.5496 -0.1908 -0.5846
36776SOL    HW213921   6.303   1.836   2.540 -2.2358  0.9944  0.4382
36777SOL     OW13922   5.604   1.817  10.795 -0.1898 -0.0126  0.1288
36777SOL    HW113923   5.638   1.836  10.882  0.6474  1.8204 -0.5452
36777SOL    HW213924   5.671   1.850  10.735 -0.3041 -2.0692 -1.2438
36778SOL     OW13925   6.629   5.815   6.139 -0.3337  0.1370 -0.3561
36778SOL    HW113926   6.691   5.827   6.067 -1.2781  2.7514 -0.8605
36778SOL    HW213927   6.655   5.881   6.203 -0.7426 -0.8220  0.8332
36779SOL     OW13928   9.925   5.453   1.829 -0.0312 -0.0491 -0.1347
36779SOL    HW113929   9.900   5.504   1.906  2.3255  1.9154 -0.5509
36779SOL    HW213930   9.897   5.507   1.755  1.3856  0.0840 -0.5991
36780SOL     OW13931   5.677  10.376   7.553 -0.6330  0.7352  0.1326
36780SOL    HW113932   5.702  10.314   7.485 -1.6336 -0.1758  0.5670
36780SOL    HW213933   5.740  10.448   7.544  0.8604 -0.5433 -0.0810
36781SOL     OW13934   7.276   5.899   6.169  0.4614  0.4027  0.7567
36781SOL    HW113935   7.306   5.968   6.228 -0.4283  0.0697  1.6174
36781SOL    HW213936   7.185   5.884   6.194  0.4679 -0.6775  0.1819
36782SOL     OW13937   1.879   0.010   8.233  0.1343 -0.1714 -0.2415
36782SOL    HW113938   1.877   0.036   8.141 -2.3935  0.4704 -0.0675
36782SOL    HW213939   1.791  -0.025   8.250 -0.1422  1.5547  2.4234
36783SOL     OW13940   8.524   5.187   7.469  0.0976  0.0915  0.1214
36783SOL    HW113941   8.499   5.105   7.426  0.0871  0.0983  0.1146
36783SOL    HW213942   8.595   5.162   7.528  1.5861  0.4248 -1.4427
36784SOL     OW13943   4.548   1.552   3.603  0.0209  0.2618 -0.8706
36784SOL    HW113944   4.461   1.559   3.564 -1.8836  0.4619  2.9118
36784SOL    HW213945   4.556   1.630   3.657  0.6408 -1.7090  2.1338
36785SOL     OW13946   5.139   7.846   9.308 -0.0724  0.3264  0.6426
36785SOL    HW113947   5.101   7.863   9.222 -0.0427  1.6334  0.8683
36785SOL    HW213948   5.165   7.933   9.340  0.9890 -0.2749  1.4694
36786SOL     OW13949   9.353   6.376   4.684 -0.1006 -0.2800  0.1551
36786SOL    HW113950   9.438   6.351   4.648  0.3359  0.6338  0.5093
36786SOL    HW213951   9.347   6.470   4.666 -1.5162 -0.5349 -0.8239
36787SOL     OW13952   2.291   1.752   4.346 -0.5111  0.2581  0.3522
36787SOL    HW113953   2.246   1.762   4.430 -0.4750  1.5914  0.2382
36787SOL    HW213954   2.240   1.806   4.285  0.6081  0.9529 -0.0151
36788SOL     OW13955   4.036   3.816   2.989  0.0786  0.2475 -0.2165
36788SOL    HW113956   4.074   3.730   2.974 -0.9645 -0.1186 -0.8050
36788SOL    HW213957   4.095   3.876   2.943  0.0346 -0.2960 -0.9874
36789SOL     OW13958   4.536   3.782   5.717 -0.2421  0.4799 -0.4578
36789SOL    HW113959   4.607   3.843   5.697  0.7115 -0.7960 -1.1912
36789SOL    HW213960   4.576   3.717   5.775 -1.0990  0.3028 -0.0515
36790SOL     OW13961   1.627   6.767   5.831 -0.1733  0.3509 -0.3584
36790SOL    HW113962   1.716   6.752   5.861 -0.2607 -0.0389 -0.2949
36790SOL    HW213963   1.615   6.707   5.757  0.2265  1.6868 -1.5628
36791SOL     OW13964   7.480   3.333   2.789  0.2158  0.1967  0.0968
36791SOL    HW113965   7.518   3.400   2.731  0.1003  0.3093  0.1500
36791SOL    HW213966   7.497   3.367   2.877 -1.4970  1.0963  0.1162
36792SOL     OW13967   5.918   7.005   0.758  0.4560  0.6137  0.6765
36792SOL    HW113968   5.856   6.932   0.752 -1.0910  1.9262 -0.2487
36792SOL    HW213969   5.962   6.992   0.842 -0.0459 -1.1505  0.7227
36793SOL     OW13970   0.265   9.537   1.908 -0.1327  0.4206 -0.4307
36793SOL    HW113971   0.246   9.530   2.002  0.3140  0.1104 -0.3565
36793SOL    HW213972   0.353   9.574   1.905 -0.2750  0.7390 -0.7372
36794SOL     OW13973   6.745  10.225   0.153  0.5543  0.3592 -0.2716
36794SOL    HW113974   6.681  10.243   0.222  2.2111  0.4213  1.3352
36794SOL    HW213975   6.715  10.277   0.078 -0.4524  1.5551  0.9136
36795SOL     OW13976   2.913   6.347   9.542 -0.8135 -0.3080 -0.4765
36795SOL    HW113977   2.994   6.316   9.501  0.4879  0.5814  1.2803
36795SOL    HW213978   2.866   6.267   9.566  0.8883 -0.9254  0.9823
36796SOL     OW13979   4.044   7.264   6.957 -0.0866  0.2556 -0.1711
36796SOL    HW113980   4.027   7.337   6.897 -0.7953  1.1956  1.1161
36796SOL    HW213981   4.015   7.296   7.042 -0.2899 -1.4971  0.4628
36797SOL     OW13982   0.044   5.860   7.526 -0.1735  0.3612 -0.6209
36797SOL    HW113983   0.094   5.908   7.460 -1.4332  0.5551 -1.4661
36797SOL    HW213984  -0.017   5.806   7.476 -1.6894  1.0845  0.3824
36798SOL     OW13985   5.943   5.816   7.778  0.0878 -0.7000  0.4376
36798SOL    HW113986   6.011   5.799   7.843  0.0076 -0.3234  0.6189
36798SOL    HW213987   5.898   5.894   7.809  0.3728 -0.2213 -0.3391
36799SOL     OW13988   7.732   8.788   0.529  0.2769 -0.6639 -0.4725
36799SOL    HW113989   7.812   8.781   0.580  0.5961 -0.4681 -0.9408
36799SOL    HW213990   7.743   8.866   0.476 -0.6696 -0.0375  0.2111
36800SOL     OW13991   5.028  10.882   2.399  0.2609 -0.2196 -0.1061
36800SOL    HW113992   5.111  10.929   2.411  1.6909 -1.4003 -3.9873
36800SOL    HW213993   4.987  10.924   2.324 -2.1764 -0.4212  1.0270
36801SOL     OW13994   0.212  10.401   2.518 -0.0922  0.0145 -0.3506
36801SOL    HW113995   0.171  10.486   2.535 -1.0465 -0.5039  0.0486
36801SOL    HW213996   0.306  10.418   2.524 -0.2881  0.8598  0.6179
36802SOL     OW13997   3.520   3.254   5.728 -0.2573 -0.3897 -0.4856
36802SOL    HW113998   3.529   3.312   5.804  0.8530 -0.4814 -0.5326
36802SOL    HW213999   3.610   3.240   5.698 -0.5543 -1.6738 -0.8234
36803SOL     OW14000   4.158   0.268  10.370  0.0609  0.0913  0.2145
36803SOL    HW114001   4.063   0.269  10.371  0.0357  1.2528 -0.5214
36803SOL    HW214002   4.181   0.320  10.293  1.2841  2.3208  1.9424
36804SOL     OW14003   4.642   1.537   1.212 -0.7295  0.2144  0.7699
36804SOL    HW114004   4.613   1.454   1.249 -0.0160  0.5156  2.0639
36804SOL    HW214005   4.561   1.582   1.186 -1.1024 -1.0370 -0.3544
36805SOL     OW14006   9.270   2.641   6.315 -0.1562 -0.3508  0.7605
36805SOL    HW114007   9.265   2.625   6.409 -1.0034  1.1479  1.0016
36805SOL    HW214008   9.216   2.572   6.276  0.3463 -1.0840  1.3507
36806SOL     OW14009   6.470   7.481   0.263  0.2524  0.0809  0.1883
36806SOL    HW114010   6.550   7.454   0.218 -0.2326 -0.7684 -0.2111
36806SOL    HW214011   6.401   7.428   0.222 -0.4022  0.2503  1.0350
36807SOL     OW14012   0.108   9.147   3.074  0.3854 -0.1504  0.1254
36807SOL    HW114013   0.185   9.090   3.080 -0.6403 -1.5087  1.2188
36807SOL    HW214014   0.055   9.123   3.150  0.0218  2.5308  0.8351
36808SOL     OW14015   2.602   8.028   6.050  0.2874 -0.2385  0.0053
36808SOL    HW114016   2.648   8.102   6.012 -0.7153  0.6188  0.4169
36808SOL    HW214017   2.635   8.022   6.140 -2.7779  2.6298  1.5467
36809SOL     OW14018  10.016   4.622   4.064 -0.2949 -0.3003  0.2429
36809SOL    HW114019  10.111   4.610   4.057 -0.4263 -0.5443 -1.9338
36809SOL    HW214020   9.990   4.658   3.979 -1.8837  1.9164  1.5499
36810SOL     OW14021   9.260   7.506   7.010  0.2591 -0.0097  0.3362
36810SOL    HW114022   9.352   7.483   7.025 -0.0601 -0.7488  1.2662
36810SOL    HW214023   9.257   7.535   6.919  1.3822 -0.1541  0.2405
36811SOL     OW14024   3.974   1.008   0.845  0.6202  0.4829 -0.1693
36811SOL    HW114025   3.972   0.928   0.791 -0.6809  1.6249 -1.9558
36811SOL    HW214026   3.882   1.026   0.862  0.7552  2.5144 -1.3035
36812SOL     OW14027   7.728   2.358   4.328  0.0552  0.1578  0.3055
36812SOL    HW114028   7.720   2.345   4.233  0.2187  0.0364  0.3065
36812SOL    HW214029   7.771   2.443   4.337 -1.0279  0.7244  0.2968
36813SOL     OW14030   0.543   6.912   6.426 -0.0507  0.6218 -0.1472
36813SOL    HW114031   0.537   6.834   6.482 -0.4731 -0.1469 -1.2305
36813SOL    HW214032   0.475   6.971   6.460 -2.5527 -1.1216 -1.7313
36814SOL     OW14033   2.474   7.564   8.308 -0.2419  0.1581  0.3853
36814SOL    HW114034   2.454   7.649   8.268 -1.7902 -1.0681 -1.6310
36814SOL    HW214035   2.563   7.574   8.343  1.1264  1.5421 -3.0142
36815SOL     OW14036   5.128   2.778   9.320 -0.1316 -0.1980  0.0960
36815SOL    HW114037   5.175   2.706   9.277  2.8219  2.0071 -0.7052
36815SOL    HW214038   5.134   2.758   9.413 -0.7945 -1.7411 -0.1565
36816SOL     OW14039   0.023   2.573   4.819 -0.0536 -0.6414 -0.1744
36816SOL    HW114040   0.045   2.662   4.846  0.4329 -0.5204 -0.9293
36816SOL    HW214041   0.025   2.522   4.900 -0.9924  0.1482  0.3675
36817SOL     OW14042   2.159   3.968   8.434 -0.6847 -0.2523  0.0858
36817SOL    HW114043   2.229   3.908   8.408 -1.5043 -1.2450  0.1217
36817SOL    HW214044   2.189   4.005   8.517  0.3058  0.1998 -0.4625
36818SOL     OW14045   3.684   9.499   0.319 -0.2322  0.0731 -0.4163
36818SOL    HW114046   3.653   9.414   0.350 -1.0372  0.0847 -1.1597
36818SOL    HW214047   3.629   9.519   0.243  1.0211  0.5146 -1.2432
36819SOL     OW14048   1.186   1.890   3.547 -0.1765 -0.0311 -0.1930
36819SOL    HW114049   1.274   1.854   3.538 -0.2972  0.0578 -2.3435
36819SOL    HW214050   1.171   1.893   3.641  1.3766 -1.8362  0.1915
36820SOL     OW14051  10.168  10.762   8.314 -0.2962  0.1670 -0.2682
36820SOL    HW114052  10.132  10.830   8.372 -2.2569 -0.5286 -0.5712
36820SOL    HW214053  10.164  10.682   8.365  0.7617  0.0378 -0.3691
36821SOL     OW14054   7.372   4.995   0.065 -0.0330 -0.3327 -0.3575
36821SOL    HW114055   7.344   5.070   0.012 -0.9217  0.0209  0.5844
36821SOL    HW214056   7.394   5.032   0.150 -0.5410 -1.1471  0.1443
36822SOL     OW14057   1.552   7.577   5.359  0.1233  0.2005  0.1122
36822SOL    HW114058   1.548   7.651   5.298 -0.5119  1.0861  1.2004
36822SOL    HW214059   1.640   7.542   5.346  0.4691  1.1847 -0.3803
36823SOL     OW14060   2.667  10.486   1.341  0.4370  0.5089  0.1309
36823SOL    HW114061   2.714  10.430   1.279  0.7134  0.9486 -0.0606
36823SOL    HW214062   2.574  10.465   1.326  0.4587  1.1202 -0.9379
36824SOL     OW14063   0.867   6.124   5.932  0.3091  0.3222 -0.7105
36824SOL    HW114064   0.809   6.082   5.868 -1.3372  0.9202  0.3153
36824SOL    HW214065   0.857   6.071   6.011 -0.4886  1.6102  0.0942
36825SOL     OW14066   8.760   4.778   2.648 -0.2879 -0.4758 -0.5954
36825SOL    HW114067   8.752   4.692   2.608 -0.4978 -0.4819 -0.5438
36825SOL    HW214068   8.721   4.769   2.735  1.8553 -0.9489  0.3829
36826SOL     OW14069   5.130   1.802   1.113 -0.2818  0.2129 -0.0325
36826SOL    HW114070   5.216   1.838   1.135 -1.0141  1.0395  1.5945
36826SOL    HW214071   5.082   1.876   1.076 -0.7055  0.0731  0.2320
36827SOL     OW14072   9.190   1.251   1.225 -0.0031  0.0545 -0.3127
36827SOL    HW114073   9.222   1.272   1.138 -1.1721  0.9555 -0.5453
36827SOL    HW214074   9.187   1.335   1.271  1.3424 -0.4959  0.8839
36828SOL     OW14075  10.354   8.785   6.626 -0.5500  0.5767 -0.1954
36828SOL    HW114076  10.309   8.814   6.704 -0.1985  0.2651  0.1284
36828SOL    HW214077  10.343   8.856   6.563 -0.8492  0.8162  0.1312
36829SOL     OW14078   3.692   3.169   4.542 -0.2927  0.1345  0.0242
36829SOL    HW114079   3.636   3.101   4.506 -2.3493  1.3574  0.7633
36829SOL    HW214080   3.778   3.153   4.502 -1.1837 -1.6934 -1.2874
36830SOL     OW14081   4.153   4.091   1.056 -0.0761  0.4668  0.1900
36830SOL    HW114082   4.205   4.013   1.038 -0.2274  0.5223 -0.5368
36830SOL    HW214083   4.186   4.157   0.995 -1.4817  0.2781 -0.8182
36831SOL     OW14084   5.483  10.123  10.667 -0.1039  0.1082  0.3264
36831SOL    HW114085   5.468  10.183  10.739 -3.1605 -0.4227  0.2698
36831SOL    HW214086   5.429  10.046  10.688 -1.4444  0.0991 -2.6144
36832SOL     OW14087   2.228   0.246   7.694 -0.0499  0.2148 -0.1769
36832SOL    HW114088   2.166   0.242   7.767  0.0307 -1.4118 -0.1487
36832SOL    HW214089   2.311   0.270   7.734 -0.3949  1.2323 -0.0394
36833SOL     OW14090   3.117   7.975   1.727  0.0213  0.6955  0.6758
36833SOL    HW114091   3.151   8.002   1.642  0.6199  1.8778  1.2751
36833SOL    HW214092   3.107   8.056   1.776  1.5620 -0.0922  2.4292
36834SOL     OW14093   2.970   2.071   2.059  0.4795 -0.1483 -0.4662
36834SOL    HW114094   2.919   1.995   2.030 -1.4045  0.4200  1.1685
36834SOL    HW214095   3.053   2.062   2.013 -0.8792 -1.3897 -2.9017
36835SOL     OW14096   1.518   2.593   9.202 -0.4325  0.7337 -0.4174
36835SOL    HW114097   1.475   2.554   9.127 -0.0037 -1.3223  0.3446
36835SOL    HW214098   1.460   2.665   9.229 -1.3876  0.4756 -1.7146
36836SOL     OW14099   5.171   8.755   7.073 -0.0918  0.1877  0.3986
36836SOL    HW114100   5.096   8.792   7.120 -1.1451 -0.9581 -0.3160
36836SOL    HW214101   5.134   8.724   6.990  1.0779 -0.8635  0.2470
36837SOL     OW14102   1.505   7.924   4.303 -0.3293  0.0289 -0.4749
36837SOL    HW114103   1.595   7.915   4.271 -0.2814 -0.9789 -0.0909
36837SOL    HW214104   1.451   7.904   4.227 -0.2173 -1.0870 -0.2729
36838SOL     OW14105   9.646   7.483   9.438  0.3120 -0.3518 -0.3164
36838SOL    HW114106   9.568   7.448   9.395  0.0201 -0.5292  0.3486
36838SOL    HW214107   9.613   7.557   9.490 -0.0268 -2.3881  2.5964
36839SOL     OW14108   0.196   8.202   8.089 -0.1057  0.8323 -0.2634
36839SOL    HW114109   0.226   8.122   8.133  0.9744  1.1584 -0.3872
36839SOL    HW214110   0.165   8.258   8.160 -2.0955 -0.1589 -0.2658
36840SOL     OW14111   5.123   6.951   5.640  0.3303  0.3887  0.1702
36840SOL    HW114112   5.096   6.888   5.707  1.4323  0.5076  0.7485
36840SOL    HW214113   5.152   6.898   5.567 -2.2325  0.2404 -0.8520
36841SOL     OW14114   6.179   9.734   8.985 -0.0221  0.6459 -0.0026
36841SOL    HW114115   6.089   9.705   8.970 -0.5000  1.5459  0.9921
36841SOL    HW214116   6.202   9.699   9.071  1.4019 -1.4291 -1.1384
36842SOL     OW14117   5.796   7.778   7.441 -0.4430 -0.9711 -0.2163
36842SOL    HW114118   5.865   7.840   7.461 -1.2734  0.2346 -0.9684
36842SOL    HW214119   5.789   7.724   7.520 -0.9215  1.0686  1.2269
36843SOL     OW14120   9.052   0.196  10.097 -0.4451 -0.4187 -0.0666
36843SOL    HW114121   9.059   0.130  10.028  0.0408  0.5217 -0.9413
36843SOL    HW214122   9.125   0.176  10.156 -0.4114 -0.7712 -0.2232
36844SOL     OW14123  10.494   9.687   6.606  0.2653 -0.1035  0.3056
36844SOL    HW114124  10.495   9.616   6.671  1.1451 -1.4284 -1.1023
36844SOL    HW214125  10.418   9.668   6.552  0.4705  0.0541 -0.0386
36845SOL     OW14126   5.916   6.809  10.857  0.1466  0.3661 -0.2000
36845SOL    HW114127   5.950   6.745  10.795 -0.1392 -0.9943  0.9677
36845SOL    HW214128   5.837   6.767  10.892 -0.5449  1.7608 -0.0428
36846SOL     OW14129   6.433   0.519   1.345 -0.3182 -0.5182  0.4473
36846SOL    HW114130   6.390   0.473   1.273 -1.8239  3.0812 -1.2357
36846SOL    HW214131   6.378   0.596   1.360  1.8141  0.6540  3.1537
36847SOL     OW14132   2.613   8.958   1.937 -0.1533 -0.1785 -0.0237
36847SOL    HW114133   2.565   8.956   2.020  3.7098  0.3964  2.5062
36847SOL    HW214134   2.563   9.017   1.881 -3.3529 -1.2237  1.4830
36848SOL     OW14135   3.074   1.589   8.872  0.7861 -0.7149  0.6660
36848SOL    HW114136   3.084   1.629   8.785  0.9798 -1.2409  0.4449
36848SOL    HW214137   3.106   1.500   8.861  0.9563 -0.7337  1.3239
36849SOL     OW14138   6.650   7.142   6.664 -0.1978 -0.2946  0.1828
36849SOL    HW114139   6.682   7.058   6.631 -1.7629 -0.6200 -0.5936
36849SOL    HW214140   6.663   7.203   6.592 -1.3579 -0.4545 -0.1822
36850SOL     OW14141   6.073  10.113   9.320 -0.6951  0.5758  0.1202
36850SOL    HW114142   6.079  10.092   9.227 -0.9205  1.2146 -0.0457
36850SOL    HW214143   6.135  10.054   9.363  0.2393  1.0502 -0.5553
36851SOL     OW14144   9.690   1.576   3.825  0.7116  0.1951 -0.2698
36851SOL    HW114145   9.700   1.500   3.768  1.5268 -0.5916  0.8768
36851SOL    HW214146   9.596   1.595   3.825  0.4923 -0.8636 -0.5010
36852SOL     OW14147   4.962   5.498  10.809  0.2982  0.1300 -0.3561
36852SOL    HW114148   5.025   5.426  10.806 -1.4432 -1.8357  3.3984
36852SOL    HW214149   5.011   5.570  10.848  0.6456 -0.9839  1.3795
36853SOL     OW14150   9.301   2.999   7.647  0.0010  0.1390  0.2468
36853SOL    HW114151   9.235   3.059   7.613  0.1673 -0.3140 -0.9234
36853SOL    HW214152   9.257   2.914   7.652  0.5916 -0.2581 -0.9456
36854SOL     OW14153   7.255   1.915   7.341 -0.0290  0.2928  0.7963
36854SOL    HW114154   7.311   1.841   7.321  1.7745  1.3819  1.5624
36854SOL    HW214155   7.314   1.980   7.380 -1.2709  2.6179 -0.9279
36855SOL     OW14156   6.131   7.097   2.166  0.1977  0.4427  0.0373
36855SOL    HW114157   6.065   7.148   2.117 -1.8393 -0.0612  2.0917
36855SOL    HW214158   6.103   7.006   2.154  0.7341  0.1973  0.6510
36856SOL     OW14159   2.570   3.175   6.106  0.3594  0.2367 -0.0370
36856SOL    HW114160   2.554   3.173   6.200 -2.0587 -2.2499 -0.3641
36856SOL    HW214161   2.623   3.097   6.088  1.4326  1.0850 -0.6841
36857SOL     OW14162   0.602   1.815   9.290 -0.5932  0.1636  0.2129
36857SOL    HW114163   0.570   1.735   9.248 -0.1025 -0.7376  1.4697
36857SOL    HW214164   0.558   1.817   9.375  0.6980  0.2675  0.9129
36858SOL     OW14165  10.699   2.251  10.143 -0.1859  0.2105 -0.1376
36858SOL    HW114166  10.751   2.273  10.220 -0.9025 -2.3494  1.1783
36858SOL    HW214167  10.624   2.202  10.177 -1.0486 -0.1613 -2.3732
36859SOL     OW14168   4.952   3.303   5.268 -0.0405 -0.1252 -0.5372
36859SOL    HW114169   4.982   3.225   5.222 -0.2191 -0.0751 -0.7362
36859SOL    HW214170   4.937   3.273   5.358  1.1739 -0.0253 -0.2813
36860SOL     OW14171   5.455   0.583  10.915 -0.6758  0.6501  0.3772
36860SOL    HW114172   5.493   0.657  10.962  0.6636 -0.1359  0.5810
36860SOL    HW214173   5.530   0.530  10.889 -1.6360 -0.9411  0.7317
36861SOL     OW14174   7.161   3.570   7.783  0.9600  0.3365  0.4981
36861SOL    HW114175   7.184   3.494   7.730  1.3713  0.4583  0.4982
36861SOL    HW214176   7.097   3.537   7.846  0.9246  0.0546  0.3142
36862SOL     OW14177   5.271   8.552   3.815 -0.0714  0.9509 -0.5062
36862SOL    HW114178   5.310   8.476   3.860 -2.1048 -0.0803 -0.3874
36862SOL    HW214179   5.338   8.620   3.822  0.7554  0.0183  1.8080
36863SOL     OW14180   2.796   3.606   7.976  0.0184  0.1045  0.1167
36863SOL    HW114181   2.787   3.546   8.051  0.5077  1.4277  1.2656
36863SOL    HW214182   2.890   3.621   7.969 -0.1382  1.1357  0.1689
36864SOL     OW14183   8.887   7.303   7.602 -0.6190 -0.1653  0.4595
36864SOL    HW114184   8.981   7.297   7.616 -0.7152 -0.0864  1.1449
36864SOL    HW214185   8.876   7.287   7.508  0.1403  0.5513  0.2318
36865SOL     OW14186   3.181   7.944  11.103  0.0799  0.3364 -0.0434
36865SOL    HW114187   3.250   7.926  11.039 -0.4823  1.1580 -0.9039
36865SOL    HW214188   3.121   8.004  11.058 -0.9008  0.0808  0.8824
36866SOL     OW14189   2.691   3.886   8.147  0.1216 -0.4825  0.3878
36866SOL    HW114190   2.680   3.794   8.123 -0.5590 -0.3557  0.1906
36866SOL    HW214191   2.751   3.920   8.081  1.0758 -0.9866  0.9762
36867SOL     OW14192   9.455   5.532   1.218  0.1003 -0.2033 -0.2766
36867SOL    HW114193   9.425   5.443   1.197 -3.3853  0.8366 -0.3990
36867SOL    HW214194   9.440   5.582   1.138 -1.7245  1.2265  0.8666
36868SOL     OW14195   8.402   3.519   9.089  0.0197 -0.3271 -0.1722
36868SOL    HW114196   8.417   3.437   9.041  3.7754  0.0568  0.0429
36868SOL    HW214197   8.389   3.492   9.180  0.4249 -0.7351 -0.2333
36869SOL     OW14198   3.702   6.991   9.965  1.0688  0.1006  0.4341
36869SOL    HW114199   3.653   6.929  10.018  1.2320 -0.7632 -0.4042
36869SOL    HW214200   3.636   7.051   9.930  0.9048  0.3773  1.1911
36870SOL     OW14201   2.097   9.557   4.493  0.1587 -0.0590 -0.6384
36870SOL    HW114202   2.005   9.551   4.518  0.2358 -0.5856 -0.4632
36870SOL    HW214203   2.137   9.615   4.557  0.2769 -1.0946  0.2500
36871SOL     OW14204  10.136   7.286   8.522 -0.4826  0.2173 -0.1757
36871SOL    HW114205  10.165   7.312   8.609 -0.1221  1.2047 -0.5745
36871SOL    HW214206  10.041   7.294   8.525 -0.4653  0.3276  0.1017
36872SOL     OW14207   8.487  10.720   7.488  0.8555 -0.1685  0.0503
36872SOL    HW114208   8.409  10.719   7.432  0.1189 -1.9562  1.0126
36872SOL    HW214209   8.508  10.813   7.499 -1.2243  0.3744 -0.1279
36873SOL     OW14210   8.720   9.036   1.996  0.6135 -0.0997  0.4060
36873SOL    HW114211   8.683   8.951   1.970  1.4609 -0.5650  0.6842
36873SOL    HW214212   8.786   9.055   1.930  0.1327  0.5579  0.1068
36874SOL     OW14213  10.979   0.476   8.336  0.4665  0.2594  0.1105
36874SOL    HW114214  10.915   0.415   8.301  0.0787  1.7364 -1.9530
36874SOL    HW214215  10.927   0.542   8.382  0.6513  0.6022 -0.1732
36875SOL     OW14216   5.107   0.626   5.737 -0.4785  0.2133  0.2259
36875SOL    HW114217   5.199   0.641   5.713 -0.8593  0.9965 -0.8460
36875SOL    HW214218   5.110   0.592   5.827  0.8848 -0.3833 -0.0267
36876SOL     OW14219   9.997   2.300   3.058 -0.0201 -0.4835 -0.2204
36876SOL    HW114220   9.933   2.238   3.024  0.4987 -1.3937  0.4171
36876SOL    HW214221   9.967   2.319   3.147 -0.0292 -0.0263 -0.3202
36877SOL     OW14222   7.765   9.577   7.025  0.2947 -0.5897 -0.0725
36877SOL    HW114223   7.811   9.527   6.958 -1.2361  0.9514 -2.4459
36877SOL    HW214224   7.672   9.564   7.005 -0.1749  1.7729  0.2374
36878SOL     OW14225   6.118   1.997   7.350 -0.2782  0.4280  0.4591
36878SOL    HW114226   6.119   1.914   7.398  1.8758  0.8224  1.2093
36878SOL    HW214227   6.160   1.977   7.267  3.6565  1.3880  2.0148
36879SOL     OW14228   2.483   5.588   6.139  0.5897  0.2246  0.1497
36879SOL    HW114229   2.508   5.511   6.191 -1.4244  0.2349  1.2389
36879SOL    HW214230   2.459   5.553   6.054  0.4929 -0.2645  0.3744
36880SOL     OW14231   8.036   7.620   7.505  0.3122  0.1734 -0.6260
36880SOL    HW114232   7.959   7.594   7.455 -0.8179  1.0191  0.5769
36880SOL    HW214233   8.037   7.561   7.580  2.9378 -2.1876 -2.3206
36881SOL     OW14234  10.090   3.178   2.664  0.1424 -0.9003 -0.2057
36881SOL    HW114235  10.163   3.200   2.722 -0.2166 -2.2148  0.7949
36881SOL    HW214236  10.015   3.226   2.699  0.4096  0.0997 -0.9684
36882SOL     OW14237   0.918   6.042   0.269 -0.1638 -0.4862 -0.2073
36882SOL    HW114238   0.885   6.131   0.278 -1.5615 -1.0526  0.4834
36882SOL    HW214239   1.014   6.051   0.275 -0.2039  1.0893 -1.3969
36883SOL     OW14240   7.822   7.387  10.524 -0.2431  0.6097 -0.0802
36883SOL    HW114241   7.886   7.331  10.570 -0.9800 -2.1708 -2.1691
36883SOL    HW214242   7.737   7.353  10.551 -0.7538  1.2833 -0.8043
36884SOL     OW14243   9.728   3.382   1.396 -0.4329  0.0051 -0.0169
36884SOL    HW114244   9.757   3.449   1.458  0.7748 -0.1403 -0.3992
36884SOL    HW214245   9.697   3.310   1.451  0.9552 -0.2662  0.4435
36885SOL     OW14246   4.506  10.997   1.103 -0.3889 -0.2792 -0.0329
36885SOL    HW114247   4.474  10.910   1.129  0.2718 -1.1079 -1.7969
36885SOL    HW214248   4.601  10.993   1.120 -0.4021  0.2165  0.1628
36886SOL     OW14249   7.540   6.728   8.765  0.1821  0.0168  0.0175
36886SOL    HW114250   7.469   6.669   8.738  0.9191 -0.0054 -2.0701
36886SOL    HW214251   7.529   6.805   8.709  0.4283  1.0322  1.3237
36887SOL     OW14252   5.653  10.674   5.009  0.6179 -0.2586  0.1057
36887SOL    HW114253   5.587  10.696   5.074  1.4368  0.7210  0.6317
36887SOL    HW214254   5.693  10.758   4.985  0.8649 -0.6860 -1.0909
36888SOL     OW14255   9.740   2.016   1.782 -0.3124 -0.0975  0.0544
36888SOL    HW114256   9.662   2.048   1.735 -0.0321 -0.2627 -0.5295
36888SOL    HW214257   9.797   2.093   1.787 -1.5873  0.8049  2.8664
36889SOL     OW14258   0.466   5.498   7.992 -0.0647  0.0439  0.2042
36889SOL    HW114259   0.438   5.406   7.993 -3.1431  0.8513  0.3050
36889SOL    HW214260   0.475   5.519   7.899 -2.1561  0.2866 -0.0024
36890SOL     OW14261   7.585   4.534   2.898  0.2333 -0.0903 -0.0514
36890SOL    HW114262   7.626   4.613   2.863  0.9826 -0.6905 -0.5948
36890SOL    HW214263   7.518   4.511   2.834 -0.8739  0.8089  0.7609
36891SOL     OW14264   3.801   7.825   1.895 -0.7826 -0.6116  0.2438
36891SOL    HW114265   3.809   7.811   1.989 -0.7619 -0.0150  0.3322
36891SOL    HW214266   3.872   7.774   1.856  0.7305  1.0548  0.7147
36892SOL     OW14267  10.854   9.825   6.910  0.3661  0.2431 -0.4584
36892SOL    HW114268  10.765   9.842   6.942  1.1256  1.0824  1.3404
36892SOL    HW214269  10.886   9.911   6.883  2.1559  0.8809  3.1495
36893SOL     OW14270   0.513   6.561   2.900  0.0632 -0.0361  0.0856
36893SOL    HW114271   0.441   6.511   2.939 -0.1880 -1.1617 -1.7189
36893SOL    HW214272   0.469   6.635   2.858 -0.1341 -0.9341 -1.3532
36894SOL     OW14273  10.320   6.734  10.905 -0.2340  0.3341 -0.4753
36894SOL    HW114274  10.268   6.668  10.951 -0.2598  0.9583  0.4166
36894SOL    HW214275  10.255   6.798  10.873  0.0003  1.4195  1.1418
36895SOL     OW14276   3.812  10.748   1.642 -0.0658 -0.1964  0.0386
36895SOL    HW114277   3.794  10.692   1.567 -0.3474  1.7973 -1.4703
36895SOL    HW214278   3.908  10.751   1.647  0.0213 -2.6594  1.6870
36896SOL     OW14279  10.415  10.407   1.626 -0.2960  0.1189  0.2406
36896SOL    HW114280  10.479  10.339   1.646 -0.1020  0.4118  0.6315
36896SOL    HW214281  10.330  10.368   1.647 -0.1275  0.2704  1.2235
36897SOL     OW14282   3.816   0.332   1.809  0.0984  0.4011 -0.2824
36897SOL    HW114283   3.805   0.237   1.805 -0.2962  0.4609 -0.7809
36897SOL    HW214284   3.869   0.353   1.732  2.2582  0.3262  1.1011
36898SOL     OW14285   0.836   2.902   2.024  0.8891  0.1787 -0.5891
36898SOL    HW114286   0.889   2.981   2.027  1.7840 -0.4102  1.8793
36898SOL    HW214287   0.898   2.831   2.038  0.0000 -0.9304 -2.0235
36899SOL     OW14288   8.638   2.501   4.575  0.1785 -0.1273 -0.3949
36899SOL    HW114289   8.558   2.540   4.610 -0.2566 -0.1167 -1.3731
36899SOL    HW214290   8.623   2.496   4.481 -0.0032 -3.1188 -0.2949
36900SOL     OW14291   8.603   6.456  11.035  0.4149  0.1943  0.3838
36900SOL    HW114292   8.681   6.472  11.088 -0.1566 -0.0051  1.2992
36900SOL    HW214293   8.554   6.538  11.038  0.2977  0.1274  0.3071
36901SOL     OW14294   0.629   8.351   5.607 -0.3769 -0.4408  0.3040
36901SOL    HW114295   0.599   8.262   5.624  0.2052 -0.6800  0.1204
36901SOL    HW214296   0.688   8.370   5.680  0.9249 -0.8989 -0.5836
36902SOL     OW14297   2.137  10.000   9.754 -0.1759 -0.2375  0.2171
36902SOL    HW114298   2.193   9.994   9.832  0.5501  0.3252 -0.2409
36902SOL    HW214299   2.062   9.944   9.773 -1.0246  1.4450  2.1699
36903SOL     OW14300  10.265   0.440   2.500 -0.0671 -0.2028 -0.1300
36903SOL    HW114301  10.264   0.389   2.582 -1.2065 -0.3961 -0.2558
36903SOL    HW214302  10.250   0.530   2.528  0.4724 -0.1295 -0.0521
36904SOL     OW14303   9.743   7.696   6.643 -0.4029 -0.5297 -0.0149
36904SOL    HW114304   9.791   7.637   6.701 -0.0229 -1.6359 -1.3906
36904SOL    HW214305   9.756   7.659   6.556 -1.2692  0.8646 -0.7679
36905SOL     OW14306   7.382   4.239   8.782 -0.2105  0.3797 -0.1223
36905SOL    HW114307   7.365   4.319   8.731 -0.4132  0.6431  0.3514
36905SOL    HW214308   7.304   4.186   8.767  0.1746  0.0141 -0.9046
36906SOL     OW14309   5.022  10.614   6.618 -0.3923 -0.4434  0.0821
36906SOL    HW114310   4.955  10.680   6.600 -1.1617 -1.0030  0.8382
36906SOL    HW214311   4.983  10.557   6.684  1.1491 -0.2861  1.1718
36907SOL     OW14312   0.465   4.681   3.954 -0.2543  0.3590 -0.3263
36907SOL    HW114313   0.378   4.668   3.992  0.0934 -0.8437  0.1161
36907SOL    HW214314   0.448   4.720   3.868 -1.2033  0.4800 -0.1016
36908SOL     OW14315   6.641   2.339   8.498  0.0604  0.1459  0.1664
36908SOL    HW114316   6.718   2.325   8.443 -0.6641 -0.1439 -0.8109
36908SOL    HW214317   6.588   2.261   8.485 -0.1198  0.0740  1.3059
36909SOL     OW14318   4.119   5.979   5.982 -0.3603 -0.4436  0.7658
36909SOL    HW114319   4.107   5.905   6.043 -0.3052 -2.0126 -1.0170
36909SOL    HW214320   4.157   5.939   5.904 -0.9185  1.4019 -0.5058
36910SOL     OW14321   3.410   8.277   8.920 -0.7270 -0.4466 -0.4105
36910SOL    HW114322   3.347   8.348   8.908  0.4616  0.4595 -1.6885
36910SOL    HW214323   3.453   8.269   8.835  1.4338 -0.4621  0.6160
36911SOL     OW14324   4.712   5.924   9.876  0.1129  0.5530 -0.1661
36911SOL    HW114325   4.759   5.846   9.907  0.2845  0.9258  0.5317
36911SOL    HW214326   4.773   5.966   9.815  0.2443  0.4302 -0.1202
36912SOL     OW14327   8.985   3.123   4.652  0.0054  0.0358  0.2058
36912SOL    HW114328   8.942   3.063   4.592 -1.1928 -0.4017  1.4441
36912SOL    HW214329   9.027   3.188   4.596  0.0674 -1.1153 -1.1172
36913SOL     OW14330   5.874   6.290  10.515 -0.1841 -0.2987 -0.2879
36913SOL    HW114331   5.819   6.248  10.581 -0.6149 -1.7202 -1.4907
36913SOL    HW214332   5.842   6.255  10.432  1.8720 -0.4012 -1.0972
36914SOL     OW14333   8.805   7.805   5.358 -0.0674 -0.4997 -0.2048
36914SOL    HW114334   8.776   7.771   5.443  0.1216 -1.2118 -0.4182
36914SOL    HW214335   8.726   7.837   5.316 -0.4291 -1.6050 -0.4078
36915SOL     OW14336   1.720   3.103   3.191 -0.2281  0.2861  0.3648
36915SOL    HW114337   1.678   3.084   3.107  0.0422 -0.1987  0.3391
36915SOL    HW214338   1.649   3.140   3.244 -0.6953 -0.5371  0.3252
36916SOL     OW14339   4.464  10.159   2.880  0.3589 -0.6458  0.4341
36916SOL    HW114340   4.549  10.183   2.917  0.7949 -1.7055  0.1469
36916SOL    HW214341   4.484  10.101   2.807 -0.5560  0.4432 -0.7172
36917SOL     OW14342   9.057   1.237  10.156 -0.0932  0.0706 -0.3279
36917SOL    HW114343   9.023   1.325  10.172 -0.8268 -0.2649  0.0244
36917SOL    HW214344   8.981   1.187  10.125  0.5394 -0.1922 -1.5012
36918SOL     OW14345   1.862   0.365   6.269 -0.6484 -0.1245  0.2238
36918SOL    HW114346   1.783   0.352   6.217 -1.6713  1.2248  1.3665
36918SOL    HW214347   1.876   0.460   6.269 -0.2250 -0.1601  1.7300
36919SOL     OW14348   6.307   3.339   6.480 -0.1552  0.5211 -0.3019
36919SOL    HW114349   6.283   3.430   6.465 -1.8589 -0.0157 -1.1258
36919SOL    HW214350   6.374   3.320   6.415 -0.6560  0.8567 -0.9177
36920SOL     OW14351   0.081   6.486  10.141  0.6425 -0.2845  0.5905
36920SOL    HW114352   0.052   6.395  10.133 -0.1086  0.0926 -1.4975
36920SOL    HW214353   0.009   6.530  10.186 -0.0823 -0.2660 -0.5518
36921SOL     OW14354   4.197  10.793   4.590  0.1016  0.1419 -0.1184
36921SOL    HW114355   4.167  10.707   4.621  0.0690  0.4811  0.8459
36921SOL    HW214356   4.265  10.774   4.526  0.4587 -0.6046  0.4716
36922SOL     OW14357  10.289   3.816   7.575 -0.5081  0.5085  0.4459
36922SOL    HW114358  10.361   3.757   7.598 -0.2853 -0.4219 -2.2383
36922SOL    HW214359  10.327   3.903   7.582  0.0039  0.1929  1.8277
36923SOL     OW14360   5.125   2.256   0.570 -0.0459  0.7972 -0.0021
36923SOL    HW114361   5.162   2.309   0.640  0.9385 -0.7576  0.6933
36923SOL    HW214362   5.170   2.172   0.576 -1.6849 -0.2139 -0.9411
36924SOL     OW14363   1.415   0.429   7.059  0.6868  0.0365 -0.6973
36924SOL    HW114364   1.505   0.408   7.082  0.5807 -0.3032 -0.5916
36924SOL    HW214365   1.362   0.383   7.124  0.4251  0.0151 -0.9236
36925SOL     OW14366   1.087  10.883   1.176  0.0249 -0.0743 -0.0491
36925SOL    HW114367   0.998  10.913   1.195 -0.5422 -0.1483 -2.3023
36925SOL    HW214368   1.126  10.868   1.262 -1.3271  2.2480  1.0678
36926SOL     OW14369   4.006   0.867   2.732  0.3478  0.0558 -0.1893
36926SOL    HW114370   4.047   0.950   2.709 -0.8745  1.0102  0.9552
36926SOL    HW214371   4.062   0.801   2.692  0.5238  1.4578 -2.4385
36927SOL     OW14372   1.524   3.864   5.519  0.4085  0.2834  0.4152
36927SOL    HW114373   1.487   3.893   5.435 -0.4056 -0.7535  0.3893
36927SOL    HW214374   1.471   3.788   5.543  1.3645 -0.1216  1.3190
36928SOL     OW14375   9.724   6.607   3.168 -0.8006 -0.5187  0.3167
36928SOL    HW114376   9.768   6.569   3.243 -0.7474  2.5893  2.0144
36928SOL    HW214377   9.700   6.695   3.196  0.0502  1.1740 -3.6243
36929SOL     OW14378   6.551   8.208   7.757 -0.3125 -0.6019  0.0633
36929SOL    HW114379   6.478   8.153   7.730 -2.0547  1.8557 -0.6280
36929SOL    HW214380   6.618   8.194   7.691 -0.3992 -2.3210  0.2815
36930SOL     OW14381  10.260   7.311   7.603 -0.1578  0.2345 -0.1473
36930SOL    HW114382  10.185   7.310   7.544  1.4091 -2.0351 -2.3285
36930SOL    HW214383  10.226   7.282   7.687 -1.6250 -1.5007 -1.2782
36931SOL     OW14384   6.560   8.332   0.612  0.6722  0.5743  0.0760
36931SOL    HW114385   6.582   8.239   0.600 -1.9053  0.0594 -1.2574
36931SOL    HW214386   6.624   8.379   0.559  2.9521 -0.2431  1.9136
36932SOL     OW14387   7.582   1.452   0.459 -0.0820 -0.5584 -0.1570
36932SOL    HW114388   7.539   1.458   0.374 -0.6374 -0.5125  0.1198
36932SOL    HW214389   7.558   1.365   0.492  1.2684 -1.1415 -0.6376
36933SOL     OW14390   7.322   8.903   6.592  0.3987 -0.3158 -0.2249
36933SOL    HW114391   7.358   8.925   6.506 -0.7516  0.5062 -0.5234
36933SOL    HW214392   7.398   8.899   6.650  1.1301 -0.3276 -1.1603
36934SOL     OW14393  10.249   5.160   6.479 -0.4940  0.1618  0.0311
36934SOL    HW114394  10.219   5.203   6.559 -1.8497 -1.4470  0.4501
36934SOL    HW214395  10.214   5.215   6.408  0.2007  1.2611  0.5274
36935SOL     OW14396   5.523   4.006   4.162  0.1556  0.0942  0.1128
36935SOL    HW114397   5.458   3.986   4.094  1.1403 -1.8023 -0.3695
36935SOL    HW214398   5.474   4.001   4.244 -0.6847  0.5817 -0.3448
36936SOL     OW14399   7.817   3.428   1.768 -0.0468  0.2612  0.5430
36936SOL    HW114400   7.893   3.419   1.825  1.3604 -0.7251 -1.3710
36936SOL    HW214401   7.787   3.518   1.781  1.7067  0.8146  1.0447
36937SOL     OW14402   8.753   6.923   2.154  0.0855 -0.0882  0.0481
36937SOL    HW114403   8.689   6.949   2.088  0.9136  0.2840 -0.6320
36937SOL    HW214404   8.716   6.954   2.237 -0.3728  0.5700 -0.3929
36938SOL     OW14405   3.316   4.258   7.509  0.3936  0.3698  0.0982
36938SOL    HW114406   3.251   4.252   7.439  0.9515 -0.4096 -0.3647
36938SOL    HW214407   3.314   4.172   7.551  0.0199  0.8493  1.0925
36939SOL     OW14408   5.901   5.468  10.060 -0.6182 -0.0653  0.0799
36939SOL    HW114409   5.929   5.386  10.099  0.5899 -0.4741 -1.5442
36939SOL    HW214410   5.806   5.463  10.057 -0.5336 -1.6725 -0.5274
36940SOL     OW14411  10.291   7.179   1.414  0.4642  0.0517  0.1107
36940SOL    HW114412  10.306   7.171   1.508 -1.2556 -0.6110  0.3762
36940SOL    HW214413  10.229   7.252   1.406 -0.0543 -0.4314 -0.4108
36941SOL     OW14414   1.816   8.867   0.657  0.3466 -0.1311  0.0699
36941SOL    HW114415   1.909   8.862   0.676  0.5360  2.7379  0.2944
36941SOL    HW214416   1.807   8.824   0.572  2.0090  0.2648 -0.3360
36942SOL     OW14417   4.521   9.792   0.041 -0.2667  0.5205 -0.3212
36942SOL    HW114418   4.442   9.846   0.050 -0.4352  0.1840  0.3140
36942SOL    HW214419   4.511   9.725   0.109  0.1315 -0.0675 -0.8376
36943SOL     OW14420   1.916   0.308   1.304  0.4229  0.2320 -0.1500
36943SOL    HW114421   1.958   0.261   1.376  0.7595 -0.2514 -0.6501
36943SOL    HW214422   1.972   0.384   1.289  1.0974 -0.3652 -0.7570
36944SOL     OW14423   2.200   3.346   9.271  0.2879  0.0049  0.3118
36944SOL    HW114424   2.161   3.332   9.357 -1.9671 -0.6526 -0.7293
36944SOL    HW214425   2.125   3.361   9.213  1.5894 -1.1233 -1.8142
36945SOL     OW14426   3.103   5.667   4.346 -0.1929  0.2830 -0.4398
36945SOL    HW114427   3.184   5.694   4.389 -0.7497  0.4321  0.5443
36945SOL    HW214428   3.106   5.571   4.346  0.1822  0.2895 -0.8203
36946SOL     OW14429   9.589   7.683   1.882  0.4232 -0.7517 -0.0840
36946SOL    HW114430   9.590   7.708   1.974 -0.6227 -0.0321 -0.2399
36946SOL    HW214431   9.555   7.594   1.881  2.5849 -1.6391  0.3634
36947SOL     OW14432   4.608   4.902   3.616  0.6126  0.1906 -0.4704
36947SOL    HW114433   4.512   4.908   3.622 -0.0350 -2.8993 -3.7753
36947SOL    HW214434   4.631   4.966   3.549  0.6863  0.2193 -0.4169
36948SOL     OW14435   6.497   2.629  10.509  0.4026  0.4243  0.1519
36948SOL    HW114436   6.510   2.722  10.528  1.4187  0.0843  1.2398
36948SOL    HW214437   6.585   2.591  10.515 -0.1782 -0.8477  1.1557
36949SOL     OW14438   0.303  10.914   7.747  0.4436 -0.5431  0.4967
36949SOL    HW114439   0.264  10.999   7.769  0.1830  0.0761 -1.9917
36949SOL    HW214440   0.233  10.851   7.764  0.1157 -0.0702  0.9354
36950SOL     OW14441   5.707   7.701   2.688  0.1210 -0.1051 -0.2266
36950SOL    HW114442   5.670   7.790   2.691 -0.7535 -0.4211 -1.1811
36950SOL    HW214443   5.695   7.667   2.776  0.2586  0.6411  0.0883
36951SOL     OW14444   4.614  10.244   5.298 -0.0332 -0.1095 -0.0910
36951SOL    HW114445   4.593  10.336   5.317  2.3457  0.7725 -1.3041
36951SOL    HW214446   4.689  10.248   5.239  0.4027 -2.8768  0.1277
36952SOL     OW14447   1.263   2.759  10.957 -0.0624 -0.2027  0.1494
36952SOL    HW114448   1.349   2.756  10.914 -0.3271 -1.4359 -0.3369
36952SOL    HW214449   1.201   2.774  10.886 -0.1575  2.5055  0.7024
36953SOL     OW14450   4.757   7.492   7.748 -0.0008 -0.4982  0.2316
36953SOL    HW114451   4.834   7.534   7.711  0.0685  0.0168  0.9371
36953SOL    HW214452   4.771   7.495   7.843 -1.2255  0.2755  0.4111
36954SOL     OW14453   8.311   6.965  10.219  0.1909 -0.1506 -0.3553
36954SOL    HW114454   8.329   6.877  10.186  1.2989  0.3431 -1.1310
36954SOL    HW214455   8.316   6.956  10.314 -0.4874 -1.0753 -0.3947
36955SOL     OW14456   2.147   7.938   8.477  0.4620 -0.5363  0.3666
36955SOL    HW114457   2.065   7.944   8.526  0.0190 -0.9628 -0.3055
36955SOL    HW214458   2.120   7.918   8.388  1.2051  1.1299 -0.2724
36956SOL     OW14459   4.893   4.384   8.691 -0.2987 -0.9107 -0.0567
36956SOL    HW114460   4.880   4.380   8.596 -1.0982 -0.6613  0.0325
36956SOL    HW214461   4.978   4.343   8.706  1.4520  1.9417 -1.2321
36957SOL     OW14462   9.809   7.364   2.769  0.0571  0.3189  0.2316
36957SOL    HW114463   9.770   7.285   2.731 -0.8116  0.6839  0.3265
36957SOL    HW214464   9.852   7.408   2.695 -1.1743  0.7585 -0.2550
36958SOL     OW14465   7.195   0.609   3.677 -0.4646 -0.6556 -0.3678
36958SOL    HW114466   7.220   0.548   3.607 -0.9798  0.3697 -1.4709
36958SOL    HW214467   7.276   0.651   3.702 -0.2911 -0.9646 -0.3985
36959SOL     OW14468   1.106   0.323   0.395  0.2967 -0.7791  0.2658
36959SOL    HW114469   1.110   0.417   0.377 -0.1576 -0.5304  1.3732
36959SOL    HW214470   1.147   0.314   0.482  0.8085 -1.6779 -0.0546
36960SOL     OW14471   7.965   9.605   3.408  0.6753 -0.1348  0.2989
36960SOL    HW114472   7.895   9.633   3.468  1.3883  0.5310  0.8433
36960SOL    HW214473   7.933   9.629   3.321 -0.1472 -0.6347  0.4567
36961SOL     OW14474   6.804   0.515   8.764 -0.0558  0.3148 -0.1845
36961SOL    HW114475   6.782   0.559   8.846 -3.5604 -1.8002  0.1972
36961SOL    HW214476   6.720   0.503   8.720  1.3676 -1.2899 -2.6942
36962SOL     OW14477   1.881  11.096   6.936 -0.2594  0.3401 -0.8430
36962SOL    HW114478   1.813  11.030   6.948  0.0306 -0.0419 -1.3241
36962SOL    HW214479   1.917  11.080   6.849 -0.4433  1.3680 -1.1291
36963SOL     OW14480   6.087   1.830   1.332 -0.0356 -0.0768 -0.4432
36963SOL    HW114481   6.153   1.899   1.336 -0.2523  0.3381 -2.6842
36963SOL    HW214482   6.132   1.751   1.361  1.4170  0.2474 -1.7051
36964SOL     OW14483  11.064   1.705   3.046  0.3205  0.3612  0.1133
36964SOL    HW114484  11.140   1.687   3.102 -0.5959 -0.2488  1.1949
36964SOL    HW214485  11.101   1.717   2.959  1.6422 -0.0711  0.5914
36965SOL     OW14486   8.131   0.905   3.765 -0.6199  0.2965  0.0840
36965SOL    HW114487   8.182   0.973   3.720 -0.9770 -0.0234 -0.8332
36965SOL    HW214488   8.105   0.845   3.695 -0.1044 -0.9285  0.9110
36966SOL     OW14489   0.643   7.052   7.803  0.4281 -0.0487 -0.3646
36966SOL    HW114490   0.582   7.057   7.876 -0.9387  1.3880 -1.5263
36966SOL    HW214491   0.591   7.016   7.731  1.3729 -0.1587 -1.0149
36967SOL     OW14492   4.461   2.138   6.941 -0.5338  0.4693  0.0504
36967SOL    HW114493   4.391   2.144   6.876  2.0247  3.5910 -2.8574
36967SOL    HW214494   4.447   2.214   6.998  0.0770  0.8013 -0.2217
36968SOL     OW14495   2.480   0.884   7.359  0.2188  0.2885  0.3741
36968SOL    HW114496   2.440   0.918   7.439  1.1230  1.5122  0.3433
36968SOL    HW214497   2.545   0.821   7.390 -2.6169 -2.8528  0.3668
36969SOL     OW14498  10.632   8.505   4.412  0.2951  0.4286  0.6942
36969SOL    HW114499  10.565   8.477   4.474 -0.4867  1.4011  0.3242
36969SOL    HW214500  10.585   8.512   4.329  0.8044  1.3039  0.4702
36970SOL     OW14501   5.627   9.579   6.447  0.7291  0.5289 -0.0858
36970SOL    HW114502   5.541   9.540   6.463  0.9822 -0.5388 -1.2254
36970SOL    HW214503   5.609   9.673   6.440 -0.0037  0.6020  1.8578
36971SOL     OW14504   1.682   4.063   3.797  0.1784 -0.4747  0.6253
36971SOL    HW114505   1.771   4.034   3.778  0.3426  0.4144 -0.0068
36971SOL    HW214506   1.683   4.157   3.780 -0.8387 -0.4220  0.7934
36972SOL     OW14507   8.940   7.521  10.681 -0.0634 -0.2621 -0.2310
36972SOL    HW114508   8.990   7.598  10.653  0.3525 -0.5252 -0.2092
36972SOL    HW214509   8.892   7.494  10.602 -0.2528  0.0489 -0.2239
36973SOL     OW14510   7.282   8.773   9.163 -0.0040  0.0823 -0.6760
36973SOL    HW114511   7.317   8.816   9.085  1.9751 -0.3214 -0.0749
36973SOL    HW214512   7.356   8.768   9.223 -1.7952  1.8620  1.9367
36974SOL     OW14513   6.058   5.850   2.003  0.2882  0.1365 -0.2798
36974SOL    HW114514   6.131   5.871   2.062  0.5754  0.1273 -0.6288
36974SOL    HW214515   6.055   5.924   1.942  1.9698 -1.2818 -2.1657
36975SOL     OW14516   1.953   6.241   4.141  0.1738  0.1253 -0.2371
36975SOL    HW114517   1.915   6.265   4.226  1.6703  2.2141 -0.0830
36975SOL    HW214518   1.893   6.176   4.106 -1.2919  0.2919  1.7716
36976SOL     OW14519   0.781   3.017   9.708 -0.3100  0.2902 -0.0437
36976SOL    HW114520   0.707   2.969   9.672 -0.7460  0.7746  0.2106
36976SOL    HW214521   0.743   3.093   9.751  0.2917  0.2818  0.5195
36977SOL     OW14522   7.891   6.470   8.537 -0.0188  0.3653  0.6861
36977SOL    HW114523   7.864   6.509   8.620  1.0452  0.3674  1.0456
36977SOL    HW214524   7.951   6.399   8.562 -0.8254 -0.5898 -0.0226
36978SOL     OW14525   2.419   1.220   2.394  0.2136 -0.0285 -0.1770
36978SOL    HW114526   2.407   1.227   2.489  0.7227  0.4067 -0.1423
36978SOL    HW214527   2.452   1.131   2.381  1.8687  0.4744  0.2501
36979SOL     OW14528   0.719   2.364   2.517 -0.4108 -0.2281  0.4227
36979SOL    HW114529   0.731   2.311   2.596 -1.8705 -0.6597  0.3794
36979SOL    HW214530   0.676   2.443   2.548 -0.4471 -0.1350  0.1310
36980SOL     OW14531   2.641   7.465   7.652 -0.2315 -0.0705  0.0477
36980SOL    HW114532   2.577   7.534   7.632 -0.3176  0.2139  1.2630
36980SOL    HW214533   2.636   7.454   7.747  1.5748 -0.0010  0.1772
36981SOL     OW14534   0.363   9.248   8.758  0.3221  0.1521  0.1565
36981SOL    HW114535   0.366   9.343   8.757  0.1694  0.1533 -0.2026
36981SOL    HW214536   0.355   9.223   8.666  0.3323 -0.2047  0.2515
36982SOL     OW14537  10.538   4.722   6.637  0.0113 -0.1602 -0.7352
36982SOL    HW114538  10.566   4.808   6.668 -0.5811  0.2157 -1.2320
36982SOL    HW214539  10.619   4.679   6.609  0.3241  0.1850 -0.3717
36983SOL     OW14540   2.519   8.403   6.916  0.1785 -0.1794 -0.3151
36983SOL    HW114541   2.608   8.436   6.931  0.2211 -0.3667 -0.1510
36983SOL    HW214542   2.531   8.311   6.893 -0.0105 -0.3662  0.3017
36984SOL     OW14543   8.925   3.079   7.966 -0.1395 -0.3337  0.9089
36984SOL    HW114544   9.001   3.128   7.934  0.2508 -0.1499  2.0745
36984SOL    HW214545   8.852   3.113   7.915  0.2764  0.8085  1.0430
36985SOL     OW14546   5.330   4.906   2.429 -0.1771  0.4286  0.0305
36985SOL    HW114547   5.236   4.895   2.442  0.1140 -1.4053  0.7558
36985SOL    HW214548   5.348   4.996   2.459 -1.5506  0.5239  0.6195
36986SOL     OW14549   8.739  10.102   2.800 -0.4254 -0.6456  0.1137
36986SOL    HW114550   8.821  10.056   2.818 -1.0577 -1.8123  0.0428
36986SOL    HW214551   8.767  10.183   2.756  0.6805 -1.0554  0.0266
36987SOL     OW14552   2.909   5.978   0.610  0.0208  0.4104 -0.3113
36987SOL    HW114553   2.907   5.964   0.704 -0.0526 -2.4483 -0.6425
36987SOL    HW214554   3.002   5.980   0.588  0.0498 -0.5778 -0.3324
36988SOL     OW14555   7.011   9.442   8.536 -0.0416 -0.4415  0.9608
36988SOL    HW114556   6.971   9.529   8.535  1.3522  0.2608 -1.2860
36988SOL    HW214557   7.080   9.448   8.602 -0.8126 -0.3016  1.7736
36989SOL     OW14558   8.237   3.178   3.495 -0.4692 -0.2383  0.1655
36989SOL    HW114559   8.273   3.097   3.530 -0.6819 -0.3495  0.1226
36989SOL    HW214560   8.259   3.244   3.561  0.1854 -0.2256 -0.0492
36990SOL     OW14561   0.195   3.424   9.157 -0.0665  0.5646 -0.4954
36990SOL    HW114562   0.250   3.417   9.079 -0.3798 -1.0227 -0.5933
36990SOL    HW214563   0.108   3.398   9.128 -0.7352  2.2720 -0.1458
36991SOL     OW14564   5.615   3.191   4.281 -0.2173  0.4460 -0.5671
36991SOL    HW114565   5.544   3.128   4.293  1.4963 -1.4381  0.3662
36991SOL    HW214566   5.647   3.209   4.369  1.3101  0.1698 -1.0212
36992SOL     OW14567   3.587   8.500  11.080 -0.0352  0.4018 -0.1563
36992SOL    HW114568   3.543   8.433  11.132  2.3625 -0.9448  0.3049
36992SOL    HW214569   3.628   8.452  11.008 -0.6919  1.8186 -1.5439
36993SOL     OW14570   3.927   9.200   3.155  0.4887  0.1024  0.0610
36993SOL    HW114571   3.923   9.234   3.245 -0.0904 -1.0845  0.5109
36993SOL    HW214572   3.858   9.133   3.152  0.3689  0.2661 -1.3371
36994SOL     OW14573   0.234   9.161   7.584  0.2249 -0.3156  0.2699
36994SOL    HW114574   0.239   9.107   7.505 -0.9390  1.6119 -1.1928
36994SOL    HW214575   0.306   9.129   7.638  1.8421 -0.9183 -2.0588
36995SOL     OW14576  10.474   9.826   9.212  0.5922 -0.0091 -0.7091
36995SOL    HW114577  10.425   9.788   9.285  0.0263  0.2532 -0.9497
36995SOL    HW214578  10.427   9.906   9.190  2.5806  1.6647  0.7419
36996SOL     OW14579   1.273   5.462  10.310 -0.5444 -0.2863 -0.0630
36996SOL    HW114580   1.210   5.513  10.360 -0.4019 -0.4518  0.2873
36996SOL    HW214581   1.319   5.410  10.376 -0.6295 -0.8018 -0.4026
36997SOL     OW14582   6.708   6.268   3.303  0.4628 -0.4244 -0.2327
36997SOL    HW114583   6.716   6.336   3.370  0.2173 -0.5167 -0.1061
36997SOL    HW214584   6.690   6.188   3.352 -0.3407 -0.3786 -0.4354
36998SOL     OW14585   1.407   7.214   8.845  0.0128  0.0938  0.0805
36998SOL    HW114586   1.364   7.258   8.918  1.0429 -3.4502  3.1013
36998SOL    HW214587   1.500   7.221   8.865  0.2331 -2.9515  0.5493
36999SOL     OW14588   7.180   6.812   8.960 -0.3719 -0.2532  0.2788
36999SOL    HW114589   7.218   6.891   8.923 -1.1005 -0.3276 -0.6735
36999SOL    HW214590   7.188   6.746   8.891 -0.4118 -0.8147  0.7969
37000SOL     OW14591   5.643   7.059   5.506 -0.5682 -0.5898 -0.2772
37000SOL    HW114592   5.608   7.090   5.423 -1.2374  0.6612  0.4565
37000SOL    HW214593   5.570   7.066   5.568 -0.6129 -3.1694  0.0654
37001SOL     OW14594   2.358   7.103   0.338  0.6911 -0.3849 -0.0640
37001SOL    HW114595   2.445   7.098   0.299  1.3684 -0.6576  1.4179
37001SOL    HW214596   2.311   7.165   0.282  1.9949  0.1925 -0.5773
37002SOL     OW14597   0.550   3.760   3.904  0.3199  0.4565 -0.2818
37002SOL    HW114598   0.463   3.744   3.868 -0.3575  1.4701  0.8078
37002SOL    HW214599   0.573   3.847   3.872  0.5340  0.5615  0.1466
37003SOL     OW14600   2.189   0.258   0.559  0.2622  0.0290 -0.2830
37003SOL    HW114601   2.169   0.351   0.554  2.4990  0.5205 -1.2918
37003SOL    HW214602   2.223   0.245   0.647  1.8444  0.6524 -0.7576
37004SOL     OW14603   5.528   8.142   2.123  0.3632  0.1611 -0.5363
37004SOL    HW114604   5.455   8.080   2.121  0.7001 -0.2899  0.6234
37004SOL    HW214605   5.603   8.090   2.154  1.1786  0.6342 -1.6180
37005SOL     OW14606   0.980   4.726   1.289 -0.4706 -0.1979 -0.3638
37005SOL    HW114607   1.032   4.736   1.209 -0.1680 -2.4888 -0.5356
37005SOL    HW214608   0.936   4.810   1.300  0.2889  0.5219 -2.3546
37006SOL     OW14609  10.442   4.551   4.245 -0.0040  1.0012 -0.0978
37006SOL    HW114610  10.520   4.501   4.268 -0.6477 -1.1774 -2.2580
37006SOL    HW214611  10.370   4.502   4.285 -0.6355  0.2077 -2.1092
37007SOL     OW14612   5.474   0.615   8.529 -0.0031  0.3422  0.3111
37007SOL    HW114613   5.505   0.657   8.448  1.7897 -0.8133  0.3505
37007SOL    HW214614   5.553   0.600   8.580 -0.7202 -1.8434  0.8812
37008SOL     OW14615   2.701   5.899   8.014 -0.1848  0.2146 -0.4874
37008SOL    HW114616   2.790   5.883   8.046 -0.3577  1.8528  0.9302
37008SOL    HW214617   2.645   5.879   8.088 -1.0566 -0.9265 -1.4067
37009SOL     OW14618   0.417   4.163   8.859  0.0364  0.6545  0.3094
37009SOL    HW114619   0.448   4.127   8.941  0.5766  0.8468  0.1928
37009SOL    HW214620   0.328   4.195   8.878 -0.4276 -0.6659  0.4193
37010SOL     OW14621   1.470   0.437  10.896  0.0264  0.9109 -0.0701
37010SOL    HW114622   1.483   0.434  10.990  0.3629 -0.0053 -0.1322
37010SOL    HW214623   1.558   0.432  10.859 -0.1767 -3.3030 -0.4606
37011SOL     OW14624   0.269   5.669   7.971  0.3792  0.0476  0.1381
37011SOL    HW114625   0.340   5.608   7.989 -1.3608 -1.7560  1.2733
37011SOL    HW214626   0.241   5.648   7.882  0.4061 -0.1428  0.1747
37012SOL     OW14627   8.449   5.031   9.856  0.5910  0.0657  0.1264
37012SOL    HW114628   8.415   5.119   9.872 -0.1203 -0.0057 -0.9142
37012SOL    HW214629   8.407   5.003   9.775  1.6561 -0.8040 -0.1524
37013SOL     OW14630   3.805   9.527   2.315  0.0541 -0.0963  0.6994
37013SOL    HW114631   3.759   9.555   2.393  1.0359  0.3399  1.1401
37013SOL    HW214632   3.812   9.606   2.261  0.7646 -0.0220  0.8899
37014SOL     OW14633   0.247   2.640   8.140 -0.3424 -0.8906  0.2575
37014SOL    HW114634   0.260   2.553   8.102 -1.5745 -0.6947 -0.6797
37014SOL    HW214635   0.161   2.636   8.180  0.4900 -0.7473  2.1491
37015SOL     OW14636   8.846   1.123   9.504  0.3629 -0.1577 -0.4764
37015SOL    HW114637   8.832   1.192   9.440 -0.1955  0.3347  0.1635
37015SOL    HW214638   8.901   1.059   9.459  2.2379  1.4306 -0.5936
37016SOL     OW14639   8.867   2.075  10.855 -0.2111 -0.1939 -0.6702
37016SOL    HW114640   8.919   2.149  10.823 -0.9158  1.0027  0.7966
37016SOL    HW214641   8.923   2.034  10.920 -0.0635 -0.5860 -1.0405
37017SOL     OW14642   1.607   7.899  10.050  0.2192 -0.2942 -0.2760
37017SOL    HW114643   1.599   7.988  10.016  1.3387  0.2394  0.7832
37017SOL    HW214644   1.535   7.851  10.009 -0.9430  1.3015 -0.1773
37018SOL     OW14645   6.673   6.874   5.975 -0.7566  0.7497 -0.3042
37018SOL    HW114646   6.665   6.782   6.000  1.1118  0.6506  0.1119
37018SOL    HW214647   6.666   6.873   5.879 -0.6862  0.1578 -0.3097
37019SOL     OW14648   8.824   4.461   9.505  0.7105 -0.2065 -0.3365
37019SOL    HW114649   8.736   4.498   9.518  0.1313 -2.0828  1.4835
37019SOL    HW214650   8.810   4.385   9.449  0.8327 -1.5976  1.4338
37020SOL     OW14651   5.215   4.133   5.143 -0.0416  0.0296 -0.5254
37020SOL    HW114652   5.156   4.061   5.121 -0.3120  0.5458 -1.5666
37020SOL    HW214653   5.238   4.172   5.058  2.3281 -0.5522 -0.2418
37021SOL     OW14654   0.297   4.869   8.357  0.2217  0.0097 -0.3535
37021SOL    HW114655   0.335   4.798   8.407  0.7182 -0.0681 -0.8284
37021SOL    HW214656   0.227   4.904   8.413  0.2162 -0.6091  0.0300
37022SOL     OW14657   5.666   3.737   0.037  0.5757 -0.5844  0.2027
37022SOL    HW114658   5.581   3.766   0.005  0.3019 -0.4201  1.0417
37022SOL    HW214659   5.729   3.777  -0.023  0.0830 -0.2934 -0.1285
37023SOL     OW14660   7.870   4.760  10.968 -0.2184  0.1823 -1.1781
37023SOL    HW114661   7.830   4.797  11.047 -1.2307  1.1532 -2.1012
37023SOL    HW214662   7.960   4.792  10.970  0.8415 -2.4919  1.2217
37024SOL     OW14663   0.583   4.298   2.167 -0.0538 -0.2295  0.4456
37024SOL    HW114664   0.622   4.251   2.093 -0.0652  1.3400 -0.6163
37024SOL    HW214665   0.492   4.313   2.139 -0.2822 -0.3177  1.1351
37025SOL     OW14666   7.291   1.354   9.449 -0.7883 -0.1165  0.2293
37025SOL    HW114667   7.363   1.396   9.402 -0.0104 -0.1562  1.3577
37025SOL    HW214668   7.328   1.330   9.534 -1.7392 -1.4137  0.3100
37026SOL     OW14669   6.763   3.392   3.955 -0.1893  0.3925 -0.5524
37026SOL    HW114670   6.822   3.396   4.031  0.0711 -2.0637 -0.5386
37026SOL    HW214671   6.692   3.453   3.976  0.1512  0.1698  1.4248
37027SOL     OW14672   4.981   8.355   3.390  0.0822  0.2614 -0.0641
37027SOL    HW114673   5.029   8.360   3.473 -0.2533  2.5256  0.0534
37027SOL    HW214674   5.039   8.399   3.327  0.0473 -0.8694 -0.9192
37028SOL     OW14675   5.622   9.416   1.382  0.5050 -0.1036 -0.3990
37028SOL    HW114676   5.588   9.429   1.293  0.6818  1.2571 -0.2857
37028SOL    HW214677   5.549   9.376   1.429 -0.6893  1.8840 -0.4203
37029SOL     OW14678   3.164   9.639   9.741  0.4328 -0.0224  0.0608
37029SOL    HW114679   3.235   9.594   9.694  1.6915  0.4013  1.4822
37029SOL    HW214680   3.093   9.644   9.677  1.1650 -1.7273 -0.9654
37030SOL     OW14681   5.608   4.221  10.803 -0.1414 -0.1504 -0.2020
37030SOL    HW114682   5.553   4.166  10.747  0.6813 -0.0822 -1.0930
37030SOL    HW214683   5.676   4.162  10.835 -1.2315 -0.4772  1.6914
37031SOL     OW14684   4.079  10.528   4.988 -0.1673  0.4389 -0.0326
37031SOL    HW114685   4.069  10.543   5.082 -0.1449 -1.8719  0.3948
37031SOL    HW214686   4.161  10.480   4.980 -0.8325 -0.5576 -1.0797
37032SOL     OW14687   5.357   2.018   6.885 -0.5463 -0.1849 -0.1618
37032SOL    HW114688   5.336   2.112   6.882  0.1619 -0.0079  0.2362
37032SOL    HW214689   5.321   1.989   6.969  0.6973  0.1020  0.4860
37033SOL     OW14690   1.362   2.505   4.943  0.1396 -0.6479 -0.2352
37033SOL    HW114691   1.353   2.515   5.037 -1.8528 -1.5211 -0.2897
37033SOL    HW214692   1.449   2.467   4.931  1.1353  1.0734  1.0802
37034SOL     OW14693   6.317   4.144   1.586 -0.1043 -0.0475 -0.1279
37034SOL    HW114694   6.313   4.140   1.681 -1.9759 -0.7660 -0.1877
37034SOL    HW214695   6.264   4.219   1.562 -0.9586 -0.7950 -0.6418
37035SOL     OW14696   7.866   5.984   9.654 -0.1725 -0.1305  0.2431
37035SOL    HW114697   7.907   6.066   9.682 -2.0294  1.3996 -1.1888
37035SOL    HW214698   7.812   5.958   9.728 -0.5468  0.6540  0.2569
37036SOL     OW14699   0.746   5.502   0.683  0.0172 -0.4207  0.2568
37036SOL    HW114700   0.731   5.582   0.632  1.5029 -1.4353 -1.9288
37036SOL    HW214701   0.798   5.531   0.758  1.6267  0.5572 -1.1480
37037SOL     OW14702   2.868   7.572   8.845 -0.5561 -0.1646  0.5952
37037SOL    HW114703   2.775   7.586   8.824 -0.6346  0.1663  1.1574
37037SOL    HW214704   2.886   7.634   8.916 -0.0685 -0.6681  0.9128
37038SOL     OW14705   3.700   6.816   7.613  0.1652  0.1564  0.0342
37038SOL    HW114706   3.714   6.730   7.653  1.8837  0.6075  0.4920
37038SOL    HW214707   3.621   6.850   7.655 -0.4609 -1.1249 -0.0620
37039SOL     OW14708   5.804   2.259   5.990  0.2135  0.2074 -0.3036
37039SOL    HW114709   5.852   2.319   6.048  0.1344 -0.0763  0.0580
37039SOL    HW214710   5.741   2.315   5.944  0.4546  0.4764 -0.3055
37040SOL     OW14711   6.602   3.847   2.918  0.3478  0.2328  0.1657
37040SOL    HW114712   6.611   3.758   2.885 -0.5917  0.9577 -2.2968
37040SOL    HW214713   6.631   3.903   2.846  1.8998  1.9632  1.9963
37041SOL     OW14714   8.814   4.874  10.232 -0.1635 -0.3357 -0.0342
37041SOL    HW114715   8.845   4.808  10.294  0.3832 -1.0140 -1.0075
37041SOL    HW214716   8.881   4.876  10.164 -0.5804  0.6514 -0.4260
37042SOL     OW14717   9.758   0.616   8.160  0.4098  0.0724 -0.5080
37042SOL    HW114718   9.673   0.573   8.149  1.1422 -1.0824 -1.8718
37042SOL    HW214719   9.796   0.574   8.237  0.4793 -0.6388 -0.9302
37043SOL     OW14720   7.979   8.264   2.373  0.6204  0.6489 -0.4180
37043SOL    HW114721   7.889   8.282   2.402  0.9008  0.8313  0.3716
37043SOL    HW214722   7.986   8.168   2.377  0.8910  0.7081  0.8986
37044SOL     OW14723  10.161   7.494   8.332 -0.2586  0.0696 -0.5334
37044SOL    HW114724  10.164   7.451   8.246 -2.5951 -0.5868 -0.3740
37044SOL    HW214725  10.153   7.422   8.395  0.3530  0.5897  0.1601
37045SOL     OW14726   4.060   4.773  10.642  0.3965  0.2061 -0.2265
37045SOL    HW114727   4.122   4.847  10.650  2.4310 -1.1344 -2.3083
37045SOL    HW214728   4.087   4.729  10.562 -1.9556 -1.7604 -0.0186
37046SOL     OW14729   4.201   4.623   0.651 -0.0651 -0.3820  0.0957
37046SOL    HW114730   4.163   4.623   0.563  0.0923 -0.4810  0.0274
37046SOL    HW214731   4.173   4.706   0.689  0.2480 -0.1307 -0.2142
37047SOL     OW14732   0.923   9.442   9.925  0.6790 -0.0391  0.4045
37047SOL    HW114733   0.952   9.506   9.990 -1.7541  1.3603  0.2402
37047SOL    HW214734   0.984   9.369   9.934  3.2841  2.0355  0.9729
37048SOL     OW14735   7.738   0.282   3.620 -0.2905  0.6294  0.1949
37048SOL    HW114736   7.688   0.301   3.699 -1.2508  1.1170 -0.5033
37048SOL    HW214737   7.731   0.362   3.567 -0.3659  0.0267 -0.7366
37049SOL     OW14738   5.143   3.872   1.784  0.7968  0.5200 -0.0052
37049SOL    HW114739   5.100   3.931   1.847  0.1765 -0.0215  0.1012
37049SOL    HW214740   5.084   3.870   1.709  0.1818 -0.8891  0.4822
37050SOL     OW14741   2.471   1.906   8.295 -0.3502 -0.3650  0.2546
37050SOL    HW114742   2.544   1.967   8.306  1.5965 -2.7046  1.3071
37050SOL    HW214743   2.417   1.944   8.226  2.7444  0.7014 -1.7631
37051SOL     OW14744   7.678   1.165   9.661  0.4327  0.3072 -0.1774
37051SOL    HW114745   7.748   1.186   9.599 -0.0974  0.6564 -0.6842
37051SOL    HW214746   7.709   1.088   9.708  1.3566  0.7391 -0.0571
37052SOL     OW14747   3.432   0.954   8.999  0.3190 -0.6191  0.0075
37052SOL    HW114748   3.477   0.970   8.917  0.9247 -0.8093  0.2944
37052SOL    HW214749   3.424   0.858   9.003 -2.6113 -0.5289 -1.3553
37053SOL     OW14750   2.826  10.124   7.159  0.1989 -0.2869 -0.2495
37053SOL    HW114751   2.764  10.195   7.176  0.6871 -0.0791  0.7391
37053SOL    HW214752   2.848  10.091   7.246  0.8109 -0.9279 -0.6461
37054SOL     OW14753   6.688   9.268   1.129  0.1684  0.8134  0.1773
37054SOL    HW114754   6.617   9.205   1.115  0.4052  0.5599  0.1072
37054SOL    HW214755   6.727   9.279   1.042 -0.1936  1.4540  0.0808
37055SOL     OW14756   4.001   6.688   2.482 -0.3844  0.5220  0.1924
37055SOL    HW114757   4.067   6.730   2.427 -0.9923  0.7209 -0.4060
37055SOL    HW214758   3.919   6.734   2.460 -1.1031 -1.0362 -0.5584
37056SOL     OW14759   6.633   5.365   1.382 -0.5004 -0.0407 -0.2268
37056SOL    HW114760   6.670   5.288   1.338  3.0861  1.7787 -0.7848
37056SOL    HW214761   6.704   5.429   1.381 -2.2733  2.2524  2.9053
37057SOL     OW14762   0.331   8.864  10.654  0.5870 -0.3572  0.0843
37057SOL    HW114763   0.373   8.924  10.715  0.5309 -0.4144  0.1794
37057SOL    HW214764   0.302   8.791  10.708 -0.0733 -0.0942  0.1035
37058SOL     OW14765   3.279   7.626   3.749 -0.3430 -0.2035 -0.3746
37058SOL    HW114766   3.234   7.667   3.676 -0.3891 -0.0294 -0.2490
37058SOL    HW214767   3.319   7.547   3.712  0.8770  0.6456 -0.9360
37059SOL     OW14768   5.356  10.647   0.167 -0.8314  0.1194 -0.0508
37059SOL    HW114769   5.353  10.553   0.184 -0.6402  0.0491 -0.3944
37059SOL    HW214770   5.303  10.659   0.089  0.0876  0.1267 -0.6987
37060SOL     OW14771   8.421   0.441   1.587 -0.5108 -0.4149 -0.7904
37060SOL    HW114772   8.451   0.523   1.626  3.1311 -1.7167 -0.4266
37060SOL    HW214773   8.437   0.452   1.493  0.2382 -0.7616 -0.7108
37061SOL     OW14774  10.525   1.005   9.509 -0.5424  0.3027 -0.2013
37061SOL    HW114775  10.582   1.049   9.445 -1.5259  2.7177  0.4401
37061SOL    HW214776  10.555   1.037   9.594 -2.6327  1.5461  0.1701
37062SOL     OW14777   3.148   6.986   1.625  0.6238  0.2365  0.0972
37062SOL    HW114778   3.091   6.911   1.606 -2.1887  2.3359 -0.4767
37062SOL    HW214779   3.217   6.950   1.681 -1.1750 -2.5455  0.7627
37063SOL     OW14780   4.551   1.268  10.376 -0.2147  0.2489 -0.5893
37063SOL    HW114781   4.531   1.304  10.462  0.6339 -1.5449  0.4183
37063SOL    HW214782   4.466   1.248  10.337 -0.5927  0.2735  0.2108
37064SOL     OW14783   1.570  10.950  10.893  0.1069  0.5814 -0.4992
37064SOL    HW114784   1.529  11.017  10.838 -1.2737 -0.0343 -0.2763
37064SOL    HW214785   1.591  10.995  10.975 -1.8733  0.5416  0.0959
37065SOL     OW14786   5.999   8.225   9.122  0.0358  0.2480 -0.0313
37065SOL    HW114787   6.059   8.151   9.108 -0.1281  0.0856  0.1176
37065SOL    HW214788   5.922   8.204   9.070  0.0416  0.3783 -0.0929
37066SOL     OW14789   2.130   7.422   9.107  0.0730 -0.1314  0.3367
37066SOL    HW114790   2.179   7.502   9.125  0.9208 -0.8426  1.3605
37066SOL    HW214791   2.097   7.433   9.018  1.8528  0.5294 -0.2925
37067SOL     OW14792  10.114   0.071   9.753  0.1026 -0.1407  0.4388
37067SOL    HW114793  10.071   0.039   9.833  1.4196 -0.3146  1.1071
37067SOL    HW214794  10.171  -0.001   9.726  0.5657  0.3717  0.0205
37068SOL     OW14795   4.084   9.281   4.035 -0.0235  0.0097 -0.6361
37068SOL    HW114796   4.080   9.375   4.017  0.3282  0.2721  0.5713
37068SOL    HW214797   3.992   9.255   4.045 -0.0641  0.6661  1.0428
37069SOL     OW14798   5.704   2.553  10.992 -0.6660  0.5473 -0.4859
37069SOL    HW114799   5.722   2.500  10.915  1.4018  0.3204  0.0987
37069SOL    HW214800   5.715   2.644  10.962  0.6810  0.4414 -0.3603
37070SOL     OW14801   4.818  10.888   5.413 -0.2171 -0.8938 -0.2569
37070SOL    HW114802   4.771  10.845   5.485 -0.2090 -0.1128  0.2230
37070SOL    HW214803   4.841  10.974   5.447  0.5202 -0.8191 -0.9074
37071SOL     OW14804   8.779   7.561   9.494  0.4023  0.4177  0.0474
37071SOL    HW114805   8.691   7.558   9.532  0.6065  1.2430  0.6184
37071SOL    HW214806   8.803   7.469   9.482 -1.2566  0.1594 -1.8383
37072SOL     OW14807   6.036   9.663   3.030 -0.4362  0.2193  0.2597
37072SOL    HW114808   6.053   9.570   3.043  3.7757  0.8972  0.8706
37072SOL    HW214809   5.989   9.667   2.946  0.8830 -2.3603 -0.7189
37073SOL     OW14810   9.098   5.865   6.559  0.6065  0.1618 -0.3798
37073SOL    HW114811   9.049   5.872   6.641  0.2574 -0.9753 -0.4827
37073SOL    HW214812   9.159   5.793   6.573  0.3869 -0.1932 -1.1987
37074SOL     OW14813   2.618   3.391   2.008  0.1088  0.3914 -0.0514
37074SOL    HW114814   2.684   3.448   2.047  0.3273  0.2497 -0.2098
37074SOL    HW214815   2.658   3.304   2.007 -1.4016 -0.4971  3.2073
37075SOL     OW14816  10.154   4.211  10.853 -0.1266 -0.0493  0.7150
37075SOL    HW114817  10.243   4.176  10.854  0.5971  1.7223  0.5440
37075SOL    HW214818  10.158   4.288  10.909 -0.9242  1.4706 -1.2090
37076SOL     OW14819   9.508   8.652   7.742 -0.6151 -0.4063  0.6036
37076SOL    HW114820   9.571   8.625   7.809 -1.2147  1.8991  2.2345
37076SOL    HW214821   9.462   8.571   7.718  1.3576 -1.7331  1.0558
37077SOL     OW14822   3.107   2.422   3.720 -0.1586  0.3161  0.5773
37077SOL    HW114823   3.191   2.467   3.717 -0.7904  1.5994  1.3340
37077SOL    HW214824   3.129   2.329   3.729  1.1690  0.6604  1.0397
37078SOL     OW14825   3.576   2.154   2.388  0.1905  0.6659 -0.6130
37078SOL    HW114826   3.568   2.075   2.441 -0.7133  1.8773  1.1848
37078SOL    HW214827   3.496   2.157   2.337  0.0026  0.6505 -0.3239
37079SOL     OW14828   1.383   9.643   2.344  0.3406 -0.0810 -0.1399
37079SOL    HW114829   1.332   9.579   2.394 -0.5392  0.5796 -0.1575
37079SOL    HW214830   1.465   9.651   2.393  0.1666 -0.6697  0.2716
37080SOL     OW14831  10.857   3.796   2.497 -0.3002 -0.4717  0.1984
37080SOL    HW114832  10.798   3.759   2.431  1.4562 -0.8267 -1.2442
37080SOL    HW214833  10.884   3.720   2.549  0.1220 -0.5626 -0.1539
37081SOL     OW14834   9.309   9.397   1.766 -0.4812 -0.0009 -0.2635
37081SOL    HW114835   9.252   9.466   1.800 -0.1234 -0.0165  0.4012
37081SOL    HW214836   9.398   9.429   1.784 -0.1967  0.7759 -2.7740
37082SOL     OW14837   3.064   4.406   6.078 -0.7303  0.1468  0.2464
37082SOL    HW114838   3.126   4.352   6.128  0.6238  0.3549 -1.1606
37082SOL    HW214839   3.102   4.493   6.080 -1.4915  0.4840  0.1670
37083SOL     OW14840   6.961   5.441   3.360  0.4552 -0.4257  0.5390
37083SOL    HW114841   6.973   5.535   3.368  1.1259 -0.0318 -3.4107
37083SOL    HW214842   6.867   5.430   3.341  0.4379 -0.5461  0.6883
37084SOL     OW14843   6.974  10.795   0.330  0.1040  0.1648 -0.6253
37084SOL    HW114844   6.921  10.849   0.271 -2.0411 -0.4492  0.6267
37084SOL    HW214845   7.014  10.858   0.390 -0.0720  0.5601 -0.9158
37085SOL     OW14846   7.045   0.180   0.355 -0.1223  0.1383 -0.8044
37085SOL    HW114847   7.008   0.100   0.393 -0.9198  0.6691 -0.4410
37085SOL    HW214848   6.981   0.248   0.376  2.2916  1.6790  2.3200
37086SOL     OW14849   8.857   3.423   0.447  0.2961 -0.0161  0.4685
37086SOL    HW114850   8.881   3.485   0.517 -1.1062  0.6905  0.3482
37086SOL    HW214851   8.773   3.455   0.414  1.3796  0.2850 -2.2758
37087SOL     OW14852   5.656   6.159   7.617 -0.1817  0.9915  0.0516
37087SOL    HW114853   5.592   6.225   7.591 -0.3599  0.7021 -0.2415
37087SOL    HW214854   5.652   6.093   7.548 -1.1821 -0.1518  1.1499
37088SOL     OW14855   6.715   0.984   9.903 -0.1964 -0.2545 -0.1728
37088SOL    HW114856   6.712   0.898   9.945  0.7907 -0.2423 -0.0491
37088SOL    HW214857   6.788   0.978   9.841  0.0507  0.5774  0.0268
37089SOL     OW14858   5.990   0.949   4.248  0.1010  0.3637  0.2130
37089SOL    HW114859   5.902   0.985   4.238 -0.6692 -1.3305  0.4754
37089SOL    HW214860   6.031   0.964   4.162 -1.0555 -0.3259 -0.4957
37090SOL     OW14861   3.561   3.905   7.757  0.2735  0.5578 -0.1380
37090SOL    HW114862   3.551   3.981   7.814 -0.1421  1.5321 -1.4545
37090SOL    HW214863   3.481   3.854   7.771  0.6185  0.2691  0.8567
37091SOL     OW14864   6.718   7.410   0.141 -0.3689 -0.4955 -0.2534
37091SOL    HW114865   6.794   7.423   0.085  0.6337 -0.3830  1.0631
37091SOL    HW214866   6.704   7.315   0.142 -0.6257 -0.4685 -0.9671
37092SOL     OW14867   4.996   3.383  10.418 -0.5354 -0.2198 -0.6608
37092SOL    HW114868   4.947   3.349  10.493  0.1969 -0.3546 -0.2273
37092SOL    HW214869   4.949   3.462  10.392 -1.4110 -0.7521 -0.7398
37093SOL     OW14870   5.323   8.997   7.572  0.2552 -0.5008  0.3804
37093SOL    HW114871   5.260   8.937   7.611  0.0912  0.5362  1.7710
37093SOL    HW214872   5.333   9.067   7.636  1.4833  0.2634 -0.5965
37094SOL     OW14873   2.606   2.704  10.043 -0.3390  0.3444 -0.0736
37094SOL    HW114874   2.628   2.616  10.074 -1.1505  0.3240  0.4871
37094SOL    HW214875   2.556   2.688   9.962 -0.6085  0.2810  0.1045
37095SOL     OW14876   7.170   2.364   4.188 -0.6006  0.1614  0.1195
37095SOL    HW114877   7.081   2.384   4.217 -0.9960 -0.8818 -0.3338
37095SOL    HW214878   7.161   2.285   4.135  0.5972  0.0547  0.0509
37096SOL     OW14879   9.448   0.608   3.712 -0.2394 -0.6186  0.8934
37096SOL    HW114880   9.401   0.626   3.630  0.4433  0.9115  0.7944
37096SOL    HW214881   9.392   0.644   3.780  0.2897  0.3044  0.8613
37097SOL     OW14882   9.896   6.607   3.917  0.0886  0.7379  0.7043
37097SOL    HW114883   9.916   6.683   3.971 -1.7645 -0.3657  3.1522
37097SOL    HW214884   9.960   6.541   3.943  0.1516  0.6806  0.4088
37098SOL     OW14885   8.277  10.522   5.405 -0.0506  0.2611 -0.6626
37098SOL    HW114886   8.292  10.440   5.450 -1.3314  0.3419 -0.0611
37098SOL    HW214887   8.363  10.546   5.370  1.3502  0.8589  2.7910
37099SOL     OW14888   9.255   5.462   6.714  0.2784 -0.0035  0.0001
37099SOL    HW114889   9.238   5.421   6.799  1.2071 -0.7161 -0.1533
37099SOL    HW214890   9.283   5.390   6.657 -1.7830  0.1677 -1.3788
37100SOL     OW14891   8.462   3.036   3.801 -0.0602  0.1770  0.9383
37100SOL    HW114892   8.464   3.031   3.896  0.3004  0.6035  0.9546
37100SOL    HW214893   8.504   3.119   3.780  0.1092 -0.0415  0.3941
37101SOL     OW14894   9.237   6.723   4.124 -0.5499  0.0669 -0.7829
37101SOL    HW114895   9.223   6.812   4.154  0.4695  0.0564 -0.2395
37101SOL    HW214896   9.239   6.670   4.204 -1.0822 -0.4415 -1.0945
37102SOL     OW14897   3.468   1.006   5.113  0.0028  0.0544  0.0499
37102SOL    HW114898   3.376   1.006   5.087  0.3265 -0.8498 -1.2074
37102SOL    HW214899   3.491   0.913   5.116  1.0802  0.2977 -0.4444
37103SOL     OW14900   9.024  10.085   1.334 -0.2670  0.3757  0.2250
37103SOL    HW114901   8.947  10.136   1.360 -0.9611 -0.1552 -0.7422
37103SOL    HW214902   9.098  10.144   1.352 -0.7101  0.2714  2.7899
37104SOL     OW14903   3.614   1.452   2.922 -0.4849 -0.0391 -0.3658
37104SOL    HW114904   3.530   1.408   2.915 -0.1702 -0.5996 -0.7233
37104SOL    HW214905   3.677   1.381   2.934 -0.1366  0.4132  0.5847
37105SOL     OW14906   8.959   8.746   0.956  0.3672  0.5351  0.5152
37105SOL    HW114907   9.036   8.715   0.910 -1.1428 -0.9239 -1.1454
37105SOL    HW214908   8.929   8.671   1.007 -1.5961  0.0809 -1.1750
37106SOL     OW14909   5.940   2.225   0.939 -0.2807  0.5013 -0.1870
37106SOL    HW114910   5.940   2.254   0.848  1.6287  0.0564 -0.3623
37106SOL    HW214911   6.013   2.272   0.979 -1.5664  1.2930  1.3582
37107SOL     OW14912   7.189   5.624   5.374  0.8795  0.0418  0.3466
37107SOL    HW114913   7.106   5.633   5.329 -0.0309  1.7082  2.2045
37107SOL    HW214914   7.254   5.662   5.314  0.1408 -0.2494 -0.6479
37108SOL     OW14915   0.635   5.415  10.338  0.0797 -0.1877  0.0070
37108SOL    HW114916   0.661   5.334  10.295  0.6866  0.9701 -1.9195
37108SOL    HW214917   0.543   5.427  10.316 -0.0859 -0.4858  0.5268
37109SOL     OW14918   8.851   8.900   4.522 -0.2627 -0.0345 -0.2997
37109SOL    HW114919   8.760   8.903   4.552 -1.0324  0.1091 -2.4404
37109SOL    HW214920   8.902   8.926   4.598 -1.8947 -1.4030  1.3616
37110SOL     OW14921  10.722   1.409   1.246 -0.1581 -0.9865 -0.0919
37110SOL    HW114922  10.731   1.320   1.280 -0.1124 -0.0758  2.5515
37110SOL    HW214923  10.632   1.433   1.268 -0.8040 -0.9640 -2.4860
37111SOL     OW14924   1.682   3.373   4.930  0.1643  0.8618  0.1161
37111SOL    HW114925   1.636   3.327   4.860 -0.5153  0.0848  1.0463
37111SOL    HW214926   1.622   3.368   5.005  0.9875  1.4434  0.8268
37112SOL     OW14927   4.886   7.450   4.033 -0.2181 -0.4664  0.2144
37112SOL    HW114928   4.848   7.527   3.990  1.7414  0.3603 -0.1567
37112SOL    HW214929   4.910   7.392   3.962  1.2609  0.0478  0.2613
37113SOL     OW14930   5.014   0.482   5.459 -0.1434 -0.8838  0.0912
37113SOL    HW114931   5.013   0.572   5.426 -1.3309 -0.8936  0.0488
37113SOL    HW214932   5.034   0.491   5.552 -2.7956 -0.2893  0.7126
37114SOL     OW14933   5.638   0.500   5.748 -0.2425  0.4661 -0.5087
37114SOL    HW114934   5.569   0.435   5.737 -0.4848  0.5558  0.4123
37114SOL    HW214935   5.699   0.484   5.676 -0.0266 -1.1265 -0.0107
37115SOL     OW14936   2.931   7.823   1.864  0.1784 -0.3346 -0.1347
37115SOL    HW114937   2.852   7.875   1.852 -0.6724 -1.3163  0.9249
37115SOL    HW214938   3.002   7.887   1.866 -0.7501  0.7147  0.3588
37116SOL     OW14939   6.507   3.825   5.922  0.5870  0.1957 -0.1342
37116SOL    HW114940   6.574   3.781   5.974 -0.0321 -0.1800  0.3622
37116SOL    HW214941   6.542   3.826   5.833  1.3830  0.2808  0.1734
37117SOL     OW14942   2.292   2.973   9.632 -0.2224 -0.1980 -0.2438
37117SOL    HW114943   2.287   3.068   9.641 -1.8674 -0.1745 -0.9161
37117SOL    HW214944   2.280   2.957   9.538 -0.6884 -1.0832 -0.0486
37118SOL     OW14945   4.259   5.032   5.832  0.6197 -0.1004 -0.5395
37118SOL    HW114946   4.338   5.027   5.777  1.3534  2.7347  0.1306
37118SOL    HW214947   4.187   5.027   5.770  1.3594 -0.0483 -1.4352
37119SOL     OW14948  10.592   9.155   7.724 -0.4501 -0.4229  0.5784
37119SOL    HW114949  10.664   9.105   7.686 -1.1931 -1.0115 -0.1210
37119SOL    HW214950  10.619   9.175   7.813  1.0570  0.3838 -0.0307
37120SOL     OW14951  10.674   3.026   9.495 -0.5678  0.7808 -0.4047
37120SOL    HW114952  10.748   2.967   9.512 -0.5000  0.5683 -1.3770
37120SOL    HW214953  10.618   2.977   9.435 -0.9962  1.3348 -0.4594
37121SOL     OW14954  10.288   3.838   3.328  0.0804  0.0765  0.5378
37121SOL    HW114955  10.370   3.850   3.376  0.1013 -0.5441  0.6577
37121SOL    HW214956  10.246   3.924   3.330  0.7797  0.4267  0.3762
37122SOL     OW14957   1.764   9.027   1.744 -0.4116  0.5184  0.4850
37122SOL    HW114958   1.737   9.117   1.760 -2.0804  0.0674  0.3202
37122SOL    HW214959   1.745   9.011   1.652  0.1368  0.0733  0.4383
37123SOL     OW14960   0.520   7.527   2.083 -0.1128  0.4179  0.5259
37123SOL    HW114961   0.556   7.580   2.154  0.0281 -0.8208  1.3991
37123SOL    HW214962   0.427   7.520   2.104 -0.3455  1.2247 -0.1874
37124SOL     OW14963   3.918   3.150   3.729 -0.1216 -0.0533 -0.0027
37124SOL    HW114964   3.887   3.225   3.678  1.3959  0.0266 -0.8522
37124SOL    HW214965   3.990   3.184   3.782  0.3915 -0.8362 -0.1783
37125SOL     OW14966   8.154   3.166  10.795 -0.1907 -0.2946 -0.6143
37125SOL    HW114967   8.212   3.152  10.720 -0.0813  1.3324 -0.8609
37125SOL    HW214968   8.210   3.203  10.862 -0.0694 -2.6417  0.6838
37126SOL     OW14969   7.321   5.920   8.531  0.2605  0.1984  0.0442
37126SOL    HW114970   7.346   6.005   8.495  2.3291  0.6207  2.2689
37126SOL    HW214971   7.293   5.938   8.620 -0.2203 -1.3383  0.2351
37127SOL     OW14972   3.751   1.591   6.459  0.0411  0.1859 -0.0685
37127SOL    HW114973   3.802   1.554   6.531  0.7599 -0.8440 -1.0543
37127SOL    HW214974   3.660   1.579   6.485  0.2508  1.9284  1.6653
37128SOL     OW14975   4.844   8.956   3.375 -0.2057  0.2897  0.7999
37128SOL    HW114976   4.831   8.871   3.418 -0.3118 -0.1498 -0.0808
37128SOL    HW214977   4.767   9.007   3.398  0.3103  0.5032  2.1364
37129SOL     OW14978   1.792  10.492  10.310 -1.2352 -0.1460 -0.3723
37129SOL    HW114979   1.752  10.556  10.368  1.1815  0.8290  0.3318
37129SOL    HW214980   1.719  10.461  10.255 -2.7822  2.0640  0.2717
37130SOL     OW14981  10.250   5.705   1.847  0.4234 -0.6769  0.6509
37130SOL    HW114982  10.172   5.760   1.855  1.0724  0.5325 -0.8919
37130SOL    HW214983  10.321   5.759   1.881  1.0849 -0.4709 -0.9587
37131SOL     OW14984   0.010  10.458   5.240  0.2014 -0.2016  0.0081
37131SOL    HW114985  -0.033  10.407   5.172  0.2560 -0.7943  0.4140
37131SOL    HW214986   0.048  10.533   5.194  0.0117 -0.4611 -0.5706
37132SOL     OW14987   6.959  10.360   4.978 -0.2713  0.2503  0.7230
37132SOL    HW114988   7.035  10.369   4.920  1.4309 -1.5174  2.5445
37132SOL    HW214989   6.969  10.431   5.042  0.6186 -0.7145  1.7038
37133SOL     OW14990   9.667   6.971   0.904  0.5191 -0.3062  0.4027
37133SOL    HW114991   9.669   7.034   0.831 -1.2597 -0.7817 -0.0891
37133SOL    HW214992   9.754   6.931   0.903  0.2850 -0.8922 -2.0144
37134SOL     OW14993   9.111   3.659   0.864  0.2508  0.4386 -0.0992
37134SOL    HW114994   9.075   3.594   0.924  0.2427 -0.5541 -1.1349
37134SOL    HW214995   9.196   3.623   0.839 -0.4073  0.0248 -1.8742
37135SOL     OW14996  10.758   8.910   9.199  0.2887 -0.2146  0.4945
37135SOL    HW114997  10.673   8.948   9.219  0.6185  0.4911  0.6037
37135SOL    HW214998  10.749   8.872   9.112  0.1789  0.8270  0.0480
37136SOL     OW14999   4.033   9.452   8.387  0.2128 -0.5165 -0.6086
37136SOL    HW115000   4.008   9.387   8.322 -0.9535 -2.0919  1.3002
37136SOL    HW215001   3.977   9.433   8.463  0.2604  2.3460  0.2631
37137SOL     OW15002   0.182   7.260   1.707  0.4233  0.2844  0.1157
37137SOL    HW115003   0.182   7.289   1.798  0.3316  1.2932 -0.1862
37137SOL    HW215004   0.090   7.240   1.688  0.2503  1.1765 -0.0666
37138SOL     OW15005   6.650   6.267  10.547 -0.3123  0.1796 -0.1682
37138SOL    HW115006   6.722   6.256  10.485 -0.4863 -0.0839 -0.3254
37138SOL    HW215007   6.601   6.185  10.541 -1.1424  0.7140 -0.7097
37139SOL     OW15008   2.232   0.724   6.076  0.7635  0.1064 -0.3015
37139SOL    HW115009   2.215   0.649   6.133 -1.8878 -1.3403 -2.7767
37139SOL    HW215010   2.197   0.799   6.125  1.9257 -0.4454  1.4778
37140SOL     OW15011   6.072   0.677   6.869  0.8679  0.2627  0.3040
37140SOL    HW115012   6.121   0.758   6.856  1.4914  0.6187  3.7878
37140SOL    HW215013   6.069   0.666   6.964 -1.7690 -2.2791  0.0804
37141SOL     OW15014   7.355   1.679  10.911  0.3765  0.3543  0.0845
37141SOL    HW115015   7.261   1.679  10.895  0.8771  1.0035 -3.8173
37141SOL    HW215016   7.380   1.586  10.909  0.2341  0.3087 -2.8134
37142SOL     OW15017   4.225   5.119   1.954  0.4541 -0.2802  0.1571
37142SOL    HW115018   4.206   5.084   2.041  0.7389  0.4483  0.5186
37142SOL    HW215019   4.302   5.174   1.966 -0.9077  1.7934 -0.0361
37143SOL     OW15020   8.779   7.757   2.583  0.7513 -0.0475  0.3980
37143SOL    HW115021   8.866   7.718   2.578  0.7228 -0.1420  0.6463
37143SOL    HW215022   8.728   7.711   2.517  1.4197  1.3748 -1.1986
37144SOL     OW15023   6.816   8.882  10.286  0.2521 -0.0792  0.7954
37144SOL    HW115024   6.777   8.944  10.347  0.8637 -0.8699  2.0342
37144SOL    HW215025   6.885   8.839  10.337  0.5471 -1.0127 -0.3568
37145SOL     OW15026   4.075   1.407   7.963 -0.9742 -0.4956 -0.7984
37145SOL    HW115027   4.151   1.358   7.934 -1.9216 -2.6922  0.1854
37145SOL    HW215028   4.005   1.381   7.903 -1.8622 -1.6649  0.6583
37146SOL     OW15029   0.121   0.087   4.674 -0.3402 -0.7185 -0.3063
37146SOL    HW115030   0.122   0.182   4.668  0.6062 -0.5079  2.3049
37146SOL    HW215031   0.171   0.058   4.598  0.9891  0.9491 -0.1138
37147SOL     OW15032   0.230  10.263   7.948 -0.3992 -0.4032  0.4223
37147SOL    HW115033   0.193  10.235   8.032  0.4375 -0.2435  0.8631
37147SOL    HW215034   0.323  10.277   7.967  0.3105 -2.6346 -1.0593
37148SOL     OW15035   9.971   0.284   2.642  0.7698  0.6101  0.3266
37148SOL    HW115036   9.905   0.238   2.590  2.4337 -1.6042  0.0260
37148SOL    HW215037  10.002   0.354   2.585 -1.9070  2.3373  0.8303
37149SOL     OW15038   5.109  10.943   8.350  0.1551 -0.2680 -0.0715
37149SOL    HW115039   5.204  10.956   8.356  0.0750  0.7461 -0.6640
37149SOL    HW215040   5.094  10.855   8.383  1.2570 -0.2754  0.4479
37150SOL     OW15041   3.725   2.465   1.043  0.3231 -0.0378  0.5191
37150SOL    HW115042   3.754   2.428   1.127 -0.5680  0.2740  0.9793
37150SOL    HW215043   3.798   2.450   0.984 -0.1507 -3.0686  0.5135
37151SOL     OW15044   5.507   5.993   4.238 -0.1217  0.6102 -0.3281
37151SOL    HW115045   5.475   6.024   4.323  2.3345 -2.2712  1.8519
37151SOL    HW215046   5.591   6.037   4.228  0.1368  0.0405 -0.6682
37152SOL     OW15047   9.074   2.176   3.369 -0.3076 -0.0814 -0.3917
37152SOL    HW115048   8.982   2.148   3.377 -1.2827  1.9670 -3.0114
37152SOL    HW215049   9.087   2.191   3.275  2.3617  0.8392  0.0351
37153SOL     OW15050   3.408   0.135   7.489 -0.6144 -0.3226  0.1943
37153SOL    HW115051   3.399   0.160   7.396  0.7714 -0.1764  0.0737
37153SOL    HW215052   3.406   0.218   7.536 -0.7136 -0.3476  0.2330
37154SOL     OW15053   8.924  10.751   4.790  0.0223 -0.1825 -0.5610
37154SOL    HW115054   9.017  10.774   4.797 -0.2681  1.8172 -2.0531
37154SOL    HW215055   8.923  10.663   4.752  1.2657 -1.0498  1.3019
37155SOL     OW15056   6.466  11.015   1.339 -0.2360  0.5971  0.0051
37155SOL    HW115057   6.531  11.085   1.346  0.6485 -0.3791  2.7768
37155SOL    HW215058   6.512  10.945   1.292  0.1841  0.5145  0.5272
37156SOL     OW15059   8.974   1.082   5.749 -0.4561  0.5666  0.0431
37156SOL    HW115060   9.031   1.051   5.819 -0.2718 -1.3655 -0.8808
37156SOL    HW215061   9.034   1.095   5.675 -1.1225 -1.2962 -0.8817
37157SOL     OW15062   6.564   4.536   1.291 -0.2263  0.2366 -0.4893
37157SOL    HW115063   6.521   4.452   1.274 -0.8257  0.0524  1.6611
37157SOL    HW215064   6.658   4.517   1.279 -0.4638 -0.2570 -1.7576
37158SOL     OW15065   0.976   9.899   4.294  0.3079  0.2442  0.0928
37158SOL    HW115066   1.054   9.945   4.326  0.2250 -0.0294  0.7099
37158SOL    HW215067   0.959   9.832   4.360 -0.3002  0.1318 -0.1685
37159SOL     OW15068   4.048   3.066   7.920 -0.4308  0.2925  0.2249
37159SOL    HW115069   4.024   3.100   8.006 -2.0694 -1.1956  0.4049
37159SOL    HW215070   4.014   2.977   7.919  2.9520 -1.1195 -0.5394
37160SOL     OW15071   6.058   1.724   7.107 -0.4538 -0.2694 -0.0542
37160SOL    HW115072   5.990   1.752   7.169 -0.9173  0.4360 -0.8505
37160SOL    HW215073   6.027   1.639   7.075 -0.9059 -0.0201 -0.3019
37161SOL     OW15074   4.092   8.707  10.361 -0.0900 -0.7674 -0.2421
37161SOL    HW115075   4.154   8.665  10.302  0.1745  1.3795 -1.5885
37161SOL    HW215076   4.007   8.692  10.320 -0.0237 -0.2427 -0.5785
37162SOL     OW15077   1.594   0.845   1.603  0.3745  1.1452 -0.0070
37162SOL    HW115078   1.636   0.804   1.679  1.5401  0.3338 -1.0590
37162SOL    HW215079   1.506   0.807   1.601  1.4150 -1.4529 -0.9740
37163SOL     OW15080   0.504   2.956   6.779 -0.0830 -0.0341 -0.2991
37163SOL    HW115081   0.585   2.916   6.810 -0.6011  0.5203  1.9615
37163SOL    HW215082   0.442   2.944   6.851 -1.4751  1.1295 -1.2464
37164SOL     OW15083   2.638   0.533   0.201  0.8975 -0.7045  0.2430
37164SOL    HW115084   2.718   0.561   0.157  1.6469 -0.0780  1.9411
37164SOL    HW215085   2.572   0.597   0.175  1.8456  0.9098  1.6501
37165SOL     OW15086   7.656   6.738  10.131 -0.1349 -0.3293  0.1697
37165SOL    HW115087   7.626   6.790  10.056  1.3703  1.2040  0.5787
37165SOL    HW215088   7.711   6.670  10.091 -0.5503 -0.4390 -0.2271
37166SOL     OW15089   3.819   4.459   6.098 -0.6368  0.5296 -0.0462
37166SOL    HW115090   3.892   4.430   6.152 -1.0081  0.5873  0.4991
37166SOL    HW215091   3.805   4.387   6.037  0.7589  1.0983 -1.0844
37167SOL     OW15092   5.475   9.328   1.777  1.3108 -0.3757  0.2352
37167SOL    HW115093   5.429   9.310   1.696  1.7770 -0.8659  0.0718
37167SOL    HW215094   5.408   9.317   1.846  1.0376 -0.4545 -0.0419
37168SOL     OW15095   4.101   5.115   2.209 -0.1930 -0.7505 -0.0386
37168SOL    HW115096   4.036   5.069   2.157  0.5308 -1.6908 -0.1459
37168SOL    HW215097   4.102   5.068   2.293  0.0998 -0.5273  0.0855
37169SOL     OW15098   1.296   6.448   1.408  0.1503 -0.0693 -0.2102
37169SOL    HW115099   1.243   6.509   1.357 -0.0450  0.2877  0.3990
37169SOL    HW215100   1.384   6.487   1.409 -0.0451  0.3714  0.4342
37170SOL     OW15101   2.378  10.463   1.169 -0.2049 -0.5143  0.3831
37170SOL    HW115102   2.319  10.477   1.095 -0.3414  2.1921  0.8949
37170SOL    HW215103   2.445  10.404   1.135 -0.6349  0.1047 -1.6887
37171SOL     OW15104   8.158   3.487  10.607 -0.6062 -0.2991  0.3180
37171SOL    HW115105   8.207   3.446  10.678  0.5656 -0.0552 -0.3189
37171SOL    HW215106   8.222   3.495  10.536 -1.2290  1.2324 -0.0998
37172SOL     OW15107   5.149  10.803  10.821  0.2789 -0.3560  0.0138
37172SOL    HW115108   5.210  10.730  10.807  0.3429 -0.9162  2.7487
37172SOL    HW215109   5.151  10.818  10.915 -0.8876  2.2259 -0.2992
37173SOL     OW15110   1.101   2.567   4.506  0.2365 -0.2699  0.3043
37173SOL    HW115111   1.103   2.635   4.573  1.6620  0.5533 -0.5235
37173SOL    HW215112   1.147   2.493   4.545  1.3496  0.3193  0.1532
37174SOL     OW15113   5.148  10.806   9.449 -0.5737 -0.0914 -0.3656
37174SOL    HW115114   5.203  10.736   9.412 -0.2389  0.3582 -0.7275
37174SOL    HW215115   5.098  10.839   9.375  0.1814  0.8890 -0.4589
37175SOL     OW15116   1.501   3.773   7.125 -0.6705 -0.0519 -0.6543
37175SOL    HW115117   1.507   3.693   7.074  2.3080 -0.9756  0.9018
37175SOL    HW215118   1.429   3.757   7.186 -1.1324 -0.8691 -1.3954
37176SOL     OW15119   2.181   6.602   6.232  0.1441  0.5495 -0.0314
37176SOL    HW115120   2.244   6.575   6.299  1.3038  1.0029 -0.9140
37176SOL    HW215121   2.099   6.561   6.259  0.3398  1.4944  2.1897
37177SOL     OW15122  10.914   1.988   7.484 -0.0525  0.2861  0.7929
37177SOL    HW115123  10.995   2.034   7.465 -0.6496  2.3202  2.7912
37177SOL    HW215124  10.942   1.902   7.517  1.0766 -0.9993 -3.0044
37178SOL     OW15125   7.981   2.912   7.348 -0.2374  0.1129  0.6087
37178SOL    HW115126   7.900   2.934   7.303 -0.5069 -0.1397  0.9714
37178SOL    HW215127   8.041   2.885   7.277 -1.3518 -2.4932  0.5264
37179SOL     OW15128   2.794   6.691   9.793 -0.4569  0.0872  0.0874
37179SOL    HW115129   2.822   6.600   9.798 -1.2448 -0.1790 -0.1182
37179SOL    HW215130   2.846   6.728   9.721  1.9494  0.6052  1.9682
37180SOL     OW15131   8.305   3.289   6.782 -0.1390  0.7992 -0.1446
37180SOL    HW115132   8.392   3.250   6.797 -0.5375 -0.1966 -0.3760
37180SOL    HW215133   8.261   3.281   6.867 -0.1456  0.9421 -0.1345
37181SOL     OW15134   5.007   2.297   4.506  0.2356  0.1552  0.1645
37181SOL    HW115135   4.935   2.250   4.463 -0.4167  1.3853 -0.1079
37181SOL    HW215136   5.049   2.347   4.435  0.6860  0.2927  0.5242
37182SOL     OW15137   5.819   2.732   4.036  0.7785 -0.1954 -0.4353
37182SOL    HW115138   5.881   2.743   3.964  0.0099  1.9997 -0.8475
37182SOL    HW215139   5.741   2.695   3.995 -0.0663  2.0812 -1.0579
37183SOL     OW15140   1.737   8.608   7.832 -0.1756  0.1994 -0.3204
37183SOL    HW115141   1.810   8.558   7.796  0.8113  0.8246  0.7357
37183SOL    HW215142   1.677   8.543   7.868 -0.5539 -0.3605 -1.9154
37184SOL     OW15143   7.858   1.004   0.922  0.1763 -0.2496  0.0187
37184SOL    HW115144   7.782   0.954   0.893 -0.5588  0.3741  0.8347
37184SOL    HW215145   7.822   1.082   0.965  1.2598 -0.0820  0.6826
37185SOL     OW15146   7.199   5.093   2.095 -0.0496 -0.3379 -0.2047
37185SOL    HW115147   7.119   5.043   2.077 -1.2032  1.9960 -2.2980
37185SOL    HW215148   7.172   5.159   2.159  0.3920 -0.0079 -0.3548
37186SOL     OW15149  10.619   7.401   8.199 -0.0848  0.7620 -0.0697
37186SOL    HW115150  10.671   7.328   8.164 -0.6502  0.3177  0.0081
37186SOL    HW215151  10.603   7.377   8.290 -0.1258  1.0703  0.0028
37187SOL     OW15152   5.372   3.770   6.197  0.0274 -0.0226 -0.0909
37187SOL    HW115153   5.355   3.852   6.150  2.0744  1.2011  1.1809
37187SOL    HW215154   5.467   3.768   6.210 -0.2049 -1.4946  1.8617
37188SOL     OW15155   7.435   6.613   9.209 -0.2821 -0.1972 -0.1835
37188SOL    HW115156   7.449   6.663   9.129  0.8902 -1.7903 -1.0167
37188SOL    HW215157   7.406   6.527   9.179  1.0492 -1.1077  1.0485
37189SOL     OW15158   7.821   3.162  10.035 -0.0256 -0.5448 -0.0245
37189SOL    HW115159   7.881   3.206  10.095  2.0013 -2.9114 -0.1476
37189SOL    HW215160   7.827   3.212   9.953 -0.0826  0.6223  0.6652
37190SOL     OW15161   7.537   3.094   1.197 -0.1334 -0.4015  0.1194
37190SOL    HW115162   7.499   3.141   1.123 -0.7536  1.8485  1.7622
37190SOL    HW215163   7.493   3.009   1.196 -2.1431  0.5878 -0.5182
37191SOL     OW15164  11.062   3.493   3.940 -0.3624  0.1757  0.0563
37191SOL    HW115165  11.059   3.585   3.915  0.6427  0.5588  1.2424
37191SOL    HW215166  11.126   3.489   4.011  0.2213 -1.5608 -0.4996
37192SOL     OW15167   5.107   8.537   9.120 -0.2742 -0.3424 -0.6284
37192SOL    HW115168   5.063   8.578   9.045 -1.3688  0.0906  0.2116
37192SOL    HW215169   5.097   8.601   9.191  0.5748 -0.8249 -0.0540
37193SOL     OW15170   0.646   9.661   3.593 -0.1264  0.1868 -0.7756
37193SOL    HW115171   0.551   9.669   3.595 -0.1841 -0.2667 -1.3182
37193SOL    HW215172   0.664   9.577   3.635  0.1359  0.9046  0.5837
37194SOL     OW15173   2.398   3.287   8.539  0.4079  0.3476  0.0520
37194SOL    HW115174   2.326   3.289   8.601  1.0283  0.0925  0.8017
37194SOL    HW215175   2.466   3.234   8.582 -0.4988 -3.1323 -2.3789
37195SOL     OW15176   2.481   5.560   0.363  0.0561  0.4407 -0.7915
37195SOL    HW115177   2.550   5.501   0.331  0.1640  0.4985 -0.6711
37195SOL    HW215178   2.413   5.556   0.297  0.2363  0.4904 -0.9825
37196SOL     OW15179  10.355   8.646  10.399 -0.3316 -0.0320  0.0219
37196SOL    HW115180  10.283   8.620  10.456 -2.0209  2.8532 -0.5872
37196SOL    HW215181  10.312   8.676  10.319  1.7120 -0.0180 -1.1272
37197SOL     OW15182   3.749   0.700   0.464 -0.2632 -0.6284 -0.0788
37197SOL    HW115183   3.796   0.620   0.441  0.8015 -0.2407  0.6619
37197SOL    HW215184   3.763   0.759   0.390  0.3304 -0.5621  0.0804
37198SOL     OW15185   2.170   7.142   1.606 -0.1078 -0.0649  0.0852
37198SOL    HW115186   2.158   7.087   1.683  1.3639  0.9762  1.1083
37198SOL    HW215187   2.257   7.180   1.617  0.6860 -0.8311 -2.7151
37199SOL     OW15188   6.401   2.240  10.540  1.0313 -0.0272  0.3674
37199SOL    HW115189   6.361   2.295  10.473  1.9866 -1.1974 -1.2437
37199SOL    HW215190   6.494   2.262  10.537  1.3362 -1.2475  0.1151
37200SOL     OW15191   7.085   2.757   8.242  0.1691 -0.3112 -0.3160
37200SOL    HW115192   7.060   2.666   8.257 -1.7473  0.3484  0.8586
37200SOL    HW215193   7.147   2.776   8.312 -0.9604 -0.1827  0.6894
37201SOL     OW15194   6.334  10.497   7.611  0.5813  0.3835 -0.1318
37201SOL    HW115195   6.355  10.586   7.639  0.2866  0.3195  0.3077
37201SOL    HW215196   6.419  10.456   7.598  0.7198  0.8907 -0.8901
37202SOL     OW15197   2.378   4.852  10.445 -0.2574  0.0849  0.0303
37202SOL    HW115198   2.401   4.761  10.423  0.2885  0.5205 -1.3108
37202SOL    HW215199   2.437   4.875  10.516 -0.3412 -0.5865  0.3252
37203SOL     OW15200   4.533   0.549   5.805  0.4114  0.6043 -0.3795
37203SOL    HW115201   4.599   0.485   5.779 -1.1127 -0.8348 -0.8712
37203SOL    HW215202   4.522   0.537   5.899  1.8319  1.8469 -0.0227
37204SOL     OW15203   6.189   9.135   1.375  0.2272 -0.1088 -0.4662
37204SOL    HW115204   6.115   9.077   1.358 -0.3863  0.5240 -0.0120
37204SOL    HW215205   6.159   9.192   1.445  1.4025 -0.2785  0.1871
37205SOL     OW15206  10.292   3.127   1.559 -0.0255 -0.3756 -0.6093
37205SOL    HW115207  10.214   3.088   1.520 -0.4683 -0.1056 -0.0279
37205SOL    HW215208  10.321   3.063   1.625  0.3787 -0.5751 -0.9780
37206SOL     OW15209   3.633   9.008   3.323 -0.6808 -0.6038 -0.2831
37206SOL    HW115210   3.575   9.073   3.362 -0.0202 -0.3004  0.2189
37206SOL    HW215211   3.661   9.047   3.240 -1.6633 -1.0184 -0.8252
37207SOL     OW15212   5.782   4.540   4.372  0.1409  0.6776  0.2503
37207SOL    HW115213   5.842   4.478   4.330 -0.1380 -0.0312  0.8853
37207SOL    HW215214   5.765   4.606   4.305  1.0462  0.4831 -0.1822
37208SOL     OW15215  10.758   4.435   4.838 -0.1081 -0.4507 -0.1912
37208SOL    HW115216  10.761   4.426   4.933 -0.2824  2.0430  0.1079
37208SOL    HW215217  10.795   4.521   4.820  0.9638 -1.2914 -2.5058
37209SOL     OW15218   9.870   0.011   5.951  0.2313  0.0315 -0.4364
37209SOL    HW115219   9.905  -0.052   6.014  0.3450  0.2956 -0.2308
37209SOL    HW215220   9.909   0.095   5.977  1.2493 -0.0529 -1.5888
37210SOL     OW15221   2.007   5.357   5.836  0.7859  0.4460 -0.5554
37210SOL    HW115222   2.012   5.380   5.743  0.7296  1.1586 -0.3910
37210SOL    HW215223   2.098   5.355   5.865  0.8109  0.0937 -0.6514
37211SOL     OW15224   1.162  10.517   4.186 -0.0671 -0.3936 -0.0413
37211SOL    HW115225   1.110  10.589   4.221 -0.2041  0.3783 -1.7299
37211SOL    HW215226   1.134  10.440   4.236 -1.7970  0.2609  0.0397
37212SOL     OW15227  10.023   6.948   3.848  0.4372 -0.0503  0.1307
37212SOL    HW115228  10.020   6.895   3.928  1.4476  1.2316  1.0766
37212SOL    HW215229  10.061   6.890   3.782 -0.1551 -1.0487  0.6509
37213SOL     OW15230  10.260   8.081   4.443  0.2647 -0.2667 -0.0739
37213SOL    HW115231  10.331   8.046   4.390  0.5124  2.3592 -1.5990
37213SOL    HW215232  10.199   8.007   4.453  1.1312 -1.3761 -2.3777
37214SOL     OW15233   3.195   4.031   0.146 -0.1842 -0.1276  0.3566
37214SOL    HW115234   3.146   3.953   0.171  0.2420 -0.5628 -0.1400
37214SOL    HW215235   3.141   4.104   0.175 -1.1843 -0.5957 -0.2727
37215SOL     OW15236   7.033   5.414   4.611  0.8003 -0.0189  0.4230
37215SOL    HW115237   6.939   5.406   4.622  0.8827 -1.2085  0.3528
37215SOL    HW215238   7.065   5.445   4.696  0.5158 -1.1091  0.9397
37216SOL     OW15239  10.082   7.135   7.802 -0.1773  0.1507  0.1808
37216SOL    HW115240  10.083   7.050   7.759 -1.7272 -0.1465  0.6569
37216SOL    HW215241  10.107   7.117   7.892 -0.6038  0.1627  0.3069
37217SOL     OW15242   6.522   5.881   8.918 -0.3852  0.0433  0.2281
37217SOL    HW115243   6.556   5.882   9.008  0.2439  0.4374 -0.0075
37217SOL    HW215244   6.443   5.827   8.923 -0.1333 -0.2751  0.9357
37218SOL     OW15245   1.229   6.188   6.197  0.2026 -0.1274 -0.7433
37218SOL    HW115246   1.146   6.225   6.168  0.0545 -1.1661 -1.7323
37218SOL    HW215247   1.204   6.129   6.268 -0.0324 -1.0149 -1.5356
37219SOL     OW15248   1.841  10.900   2.488 -0.0623  0.3884  0.4225
37219SOL    HW115249   1.859  10.875   2.397  1.4504  1.3195  0.4191
37219SOL    HW215250   1.813  10.992   2.482 -2.6939 -0.3277  0.6791
37220SOL     OW15251   1.945   1.970  10.621  0.2764  0.4724 -0.1162
37220SOL    HW115252   1.963   2.061  10.599  0.2333  0.5589  0.2027
37220SOL    HW215253   1.890   1.975  10.699 -0.6742  0.2087 -0.7395
37221SOL     OW15254   1.788   3.449   4.561  0.0386  0.2293  0.4484
37221SOL    HW115255   1.807   3.485   4.475 -0.5689  2.3394  1.1318
37221SOL    HW215256   1.872   3.447   4.606  0.1501  0.3665  0.2448
37222SOL     OW15257   7.176   5.911   5.172 -0.6175 -0.8961  0.6761
37222SOL    HW115258   7.124   5.901   5.092  0.0038 -1.2846  0.3116
37222SOL    HW215259   7.245   5.846   5.163  0.2011 -0.0724  0.9418
37223SOL     OW15260   1.580  10.024   4.604 -0.1756  0.0724 -0.0837
37223SOL    HW115261   1.582  10.119   4.605  0.3428  0.0628  0.3230
37223SOL    HW215262   1.596   9.999   4.695  0.5142 -0.4134 -0.3313
37224SOL     OW15263   3.282   6.730   7.453  0.1897 -0.5337  0.3413
37224SOL    HW115264   3.269   6.824   7.465 -0.8390 -0.6480  0.2709
37224SOL    HW215265   3.226   6.707   7.379  1.1863 -1.0377 -0.2772
37225SOL     OW15266  10.087   8.819   7.453  0.0250  0.5038  0.2168
37225SOL    HW115267  10.062   8.757   7.521  1.7433  0.8308  1.1963
37225SOL    HW215268  10.101   8.902   7.499 -2.0776  1.6576 -1.0428
37226SOL     OW15269   5.838   3.479   5.230 -0.6815  0.2411 -0.1415
37226SOL    HW115270   5.782   3.537   5.178 -1.7585  0.2655  0.9843
37226SOL    HW215271   5.927   3.505   5.208 -1.1068  3.1973  1.2043
37227SOL     OW15272   3.510   6.744  11.018 -0.1537 -0.4797  0.6295
37227SOL    HW115273   3.571   6.789  10.960 -0.1837  0.0175  0.9785
37227SOL    HW215274   3.436   6.721  10.963 -0.3512  0.3228  0.5524
37228SOL     OW15275   4.691   6.157   3.111 -0.2867 -0.2361  0.3409
37228SOL    HW115276   4.628   6.114   3.053  2.7480 -2.0523 -1.8861
37228SOL    HW215277   4.691   6.103   3.190 -1.6650 -0.0296  0.5079
37229SOL     OW15278   4.840   8.535   9.610  0.5527  0.2127 -0.0277
37229SOL    HW115279   4.883   8.606   9.659  1.2839  1.0944 -1.8530
37229SOL    HW215280   4.782   8.581   9.549 -0.5691 -0.8737  0.1820
37230SOL     OW15281   5.030   8.660   6.862  0.0133 -0.5994  0.0874
37230SOL    HW115282   5.057   8.648   6.770 -2.6380 -1.3387 -0.6892
37230SOL    HW215283   4.998   8.574   6.888 -1.5560  0.1831  0.8604
37231SOL     OW15284   1.121   8.940   0.626  0.2448 -0.0686  0.2783
37231SOL    HW115285   1.104   8.886   0.702 -1.5183 -1.1391 -0.7953
37231SOL    HW215286   1.080   8.893   0.553  1.4648  1.1236 -1.2706
37232SOL     OW15287   3.577   4.747  10.859  0.3639  0.6975  0.1490
37232SOL    HW115288   3.625   4.795  10.791  0.1538 -0.0569 -0.5452
37232SOL    HW215289   3.626   4.765  10.940  2.9010 -1.3989 -0.7649
37233SOL     OW15290   8.650   8.953   7.111  0.2837 -0.1275 -0.3372
37233SOL    HW115291   8.720   9.006   7.151  0.0476  0.8297 -1.1542
37233SOL    HW215292   8.682   8.935   7.023  0.5908 -1.8246  0.0963
37234SOL     OW15293   0.433   6.873   9.598  0.2511 -0.1609  0.0515
37234SOL    HW115294   0.498   6.815   9.558  2.2354  1.5768  0.5669
37234SOL    HW215295   0.422   6.943   9.534 -0.5449 -0.0412  0.3178
37235SOL     OW15296   2.261   3.976   5.804 -0.2075 -0.4341  0.5078
37235SOL    HW115297   2.334   3.982   5.742 -0.3502  0.2980  0.4033
37235SOL    HW215298   2.183   3.974   5.749 -0.3314  0.1587  0.6560
37236SOL     OW15299   3.810   2.528   8.874 -0.2420 -0.5683  0.0032
37236SOL    HW115300   3.800   2.623   8.879  1.8512 -0.2321 -1.3160
37236SOL    HW215301   3.722   2.494   8.894 -0.7115  1.5457  1.9581
37237SOL     OW15302   7.587   4.112   9.587 -0.2457 -0.1265  0.2879
37237SOL    HW115303   7.554   4.031   9.548  0.5630 -0.5293  0.4037
37237SOL    HW215304   7.624   4.160   9.513 -1.4237  0.5069  0.0950
37238SOL     OW15305   6.075   9.761   9.711  0.0685  0.5587  0.1185
37238SOL    HW115306   6.078   9.826   9.640  1.4701  0.0586 -0.3179
37238SOL    HW215307   6.027   9.805   9.781 -0.4486  1.4530 -0.7587
37239SOL     OW15308   4.744  10.395   8.270 -0.1609  0.0115  0.3155
37239SOL    HW115309   4.753  10.393   8.366  0.1311  0.3125  0.2998
37239SOL    HW215310   4.738  10.488   8.249  1.4774  0.0666 -0.0880
37240SOL     OW15311   2.565   1.509   0.575  0.3406 -0.3006  0.0428
37240SOL    HW115312   2.538   1.580   0.518  0.1396 -0.1456  0.3275
37240SOL    HW215313   2.499   1.441   0.561 -0.4638  0.2313  1.0364
37241SOL     OW15314  10.664   9.931   8.760  0.4543 -0.3683 -0.1042
37241SOL    HW115315  10.569   9.934   8.771  0.2530  0.0705 -1.7991
37241SOL    HW215316  10.680   9.854   8.706  1.1425 -0.7634  0.6300
37242SOL     OW15317   6.295   5.387   5.473 -0.0528  0.2930  0.0257
37242SOL    HW115318   6.350   5.414   5.547  0.3132 -0.8591  0.1985
37242SOL    HW215319   6.323   5.297   5.454 -1.8342 -0.3106  0.0839
37243SOL     OW15320   8.043   6.071  10.732  0.1296  0.2308 -0.4563
37243SOL    HW115321   7.975   6.123  10.776 -2.8449 -1.1494 -2.9931
37243SOL    HW215322   8.039   5.986  10.776 -0.7892 -0.2609 -1.4587
37244SOL     OW15323   6.081   2.907   1.702  0.1028 -0.0513  0.0529
37244SOL    HW115324   6.065   3.000   1.721  0.2316  0.0762 -0.4682
37244SOL    HW215325   5.999   2.864   1.727  0.1857  0.1452  0.6858
37245SOL     OW15326   7.299   8.544  10.089 -0.6339 -0.2078  0.0047
37245SOL    HW115327   7.221   8.551  10.144 -0.1769 -0.4058  0.6809
37245SOL    HW215328   7.333   8.456  10.107  0.6936  0.4801  1.0033
37246SOL     OW15329   7.056  10.866   9.928 -0.0542 -0.1665 -0.1929
37246SOL    HW115330   7.101  10.799   9.980 -0.6705  0.6918  1.5166
37246SOL    HW215331   7.108  10.946   9.941 -0.5013  0.1839 -0.5193
37247SOL     OW15332   5.640   2.459   5.894 -0.8287  0.3471 -0.4000
37247SOL    HW115333   5.616   2.544   5.930  0.5914  0.5838  0.0357
37247SOL    HW215334   5.645   2.473   5.800  1.2381  1.2750 -0.2086
37248SOL     OW15335   3.157  10.479   2.153  0.1890 -0.5506 -0.5423
37248SOL    HW115336   3.065  10.453   2.163 -0.1521  0.8742  0.4147
37248SOL    HW215337   3.173  10.476   2.059 -1.8965  2.3706 -1.1336
37249SOL     OW15338   4.933   2.630   0.726  0.4599  0.1374  0.7194
37249SOL    HW115339   4.930   2.714   0.682  0.4680  1.1045  2.4719
37249SOL    HW215340   4.903   2.567   0.661  1.5995  1.3006 -1.0133
37250SOL     OW15341  10.604   6.843  10.544  0.3057 -0.2203  0.4596
37250SOL    HW115342  10.570   6.928  10.515 -0.9853 -1.2903 -1.3414
37250SOL    HW215343  10.696   6.845  10.519 -0.4286 -0.5440 -2.7122
37251SOL     OW15344   8.335   8.061   0.571 -0.5890  0.1871  0.0629
37251SOL    HW115345   8.284   8.000   0.518  0.2004  0.0537 -0.5466
37251SOL    HW215346   8.310   8.147   0.538  0.1505  0.0933 -0.7682
37252SOL     OW15347   3.251   3.662   8.190  0.2117 -0.8247  0.1517
37252SOL    HW115348   3.231   3.697   8.276  1.7026  0.4396  0.0361
37252SOL    HW215349   3.333   3.614   8.202  0.5992 -0.3749 -0.6040
37253SOL     OW15350   6.459   5.462  10.545  0.1456 -0.0449 -0.2041
37253SOL    HW115351   6.481   5.391  10.604 -0.5300 -0.5410 -0.5336
37253SOL    HW215352   6.365   5.475  10.557  0.1528  0.3968 -0.5729
37254SOL     OW15353   8.787   0.560   7.507 -0.0345 -0.0077  0.1755
37254SOL    HW115354   8.811   0.603   7.589  0.5618  0.5288 -0.2596
37254SOL    HW215355   8.871   0.539   7.466 -0.3236 -0.2791 -0.2896
37255SOL     OW15356   4.200   7.851   5.523 -0.0736  0.0850  0.3123
37255SOL    HW115357   4.291   7.841   5.495 -0.7299 -0.5273 -1.7562
37255SOL    HW215358   4.160   7.906   5.456 -1.2659  0.3044  1.1691
37256SOL     OW15359   4.512   4.322  10.408 -0.2913  0.6784  0.7090
37256SOL    HW115360   4.447   4.278  10.463  1.2234  0.3525  2.3494
37256SOL    HW215361   4.478   4.315  10.319 -0.0199 -4.2907  0.7061
37257SOL     OW15362   1.265   2.397   5.695  0.1568 -0.9637 -0.4696
37257SOL    HW115363   1.348   2.386   5.740 -0.6696 -0.9332  1.1450
37257SOL    HW215364   1.259   2.491   5.679  0.4167 -0.9609 -0.5440
37258SOL     OW15365  11.094   9.613   8.069 -0.3371 -0.3541  0.0085
37258SOL    HW115366  11.105   9.694   8.118 -0.9751 -0.6118  0.5912
37258SOL    HW215367  11.014   9.625   8.018 -0.3706 -0.5713  0.0064
37259SOL     OW15368   9.904   3.628   5.364  0.5002 -0.0107  0.1225
37259SOL    HW115369   9.950   3.611   5.446  0.4750  0.1824  0.1762
37259SOL    HW215370   9.883   3.721   5.367 -1.1907 -0.3760  0.7640
37260SOL     OW15371   9.110  10.297   0.245 -0.0074 -0.2579  0.4631
37260SOL    HW115372   9.099  10.347   0.164  0.8373 -0.6603  0.0906
37260SOL    HW215373   9.135  10.362   0.310  1.3383 -0.1969 -0.0774
37261SOL     OW15374   8.723   4.643   1.645 -0.3601  0.4017  0.3707
37261SOL    HW115375   8.675   4.632   1.727  0.2643  0.5098  0.7579
37261SOL    HW215376   8.706   4.562   1.596 -2.6802  1.3061 -0.4420
37262SOL     OW15377   5.989   8.647   2.356 -0.1816 -0.2782  0.0430
37262SOL    HW115378   6.035   8.665   2.438 -1.1772 -0.5367  0.6769
37262SOL    HW215379   5.958   8.557   2.365 -0.8933 -0.0801 -0.3235
37263SOL     OW15380   3.898   3.143   2.205 -0.0736  0.1257  0.2686
37263SOL    HW115381   3.973   3.176   2.155 -1.5568  1.1474 -1.3767
37263SOL    HW215382   3.918   3.050   2.219  2.5039  0.7900  1.8530
37264SOL     OW15383   9.937   1.179   1.206 -0.2716  0.0101  0.4432
37264SOL    HW115384   9.969   1.267   1.224  0.6420 -0.1523 -0.2939
37264SOL    HW215385   9.869   1.191   1.140 -0.6724  0.2187  0.8853
37265SOL     OW15386   2.298   7.675  10.327  0.0143 -0.2099 -0.0521
37265SOL    HW115387   2.257   7.618  10.262 -0.5770 -0.8912  0.8922
37265SOL    HW215388   2.391   7.674  10.305 -0.4185  1.3898 -2.2486
37266SOL     OW15389   7.083   1.298   2.458 -0.0695  0.0466  0.1050
37266SOL    HW115390   7.095   1.374   2.401  0.2779  0.8209  1.1642
37266SOL    HW215391   7.109   1.329   2.545 -1.3829 -0.8403  0.8532
37267SOL     OW15392   9.877   0.989  11.093 -0.2152 -0.3876 -0.7737
37267SOL    HW115393   9.812   0.978  11.162  0.0590 -1.8176 -0.7115
37267SOL    HW215394   9.827   0.980  11.012 -0.5914  1.6008 -0.8153
37268SOL     OW15395   6.949   5.212   3.538  0.2234  0.0179  0.3329
37268SOL    HW115396   6.972   5.289   3.486 -0.1677 -0.2528 -0.2461
37268SOL    HW215397   6.928   5.247   3.625 -0.4268  0.6140 -0.0618
37269SOL     OW15398   1.643  10.309   9.902 -0.0411 -0.4511 -0.1345
37269SOL    HW115399   1.710  10.338   9.840 -1.3921  0.9630 -1.0165
37269SOL    HW215400   1.584  10.254   9.850 -1.7386  1.5316 -0.4866
37270SOL     OW15401   6.036   0.688   4.255  0.6703  0.1336 -0.0061
37270SOL    HW115402   6.029   0.782   4.243  1.4795  0.2983  0.7525
37270SOL    HW215403   5.995   0.670   4.339  0.4075 -0.2136 -0.2017
37271SOL     OW15404   6.824   2.058   4.052 -0.0709  0.7808  0.2256
37271SOL    HW115405   6.875   2.110   4.114  2.2141  1.9372 -2.4156
37271SOL    HW215406   6.773   2.122   4.003  0.8189  0.3428 -1.3457
37272SOL     OW15407  10.403   8.553   7.913  0.4035 -0.8868  0.2529
37272SOL    HW115408  10.482   8.533   7.862 -1.2952 -3.5593 -1.6206
37272SOL    HW215409  10.338   8.489   7.882 -2.5234  1.1685  1.6909
37273SOL     OW15410   3.625   9.297   2.363  0.3405  0.2989  0.5853
37273SOL    HW115411   3.651   9.205   2.371  0.0835  0.2820  1.3271
37273SOL    HW215412   3.703   9.341   2.330  0.3553 -0.2389 -0.1287
37274SOL     OW15413   4.632   5.688   7.990 -0.2932 -0.0704  0.4123
37274SOL    HW115414   4.596   5.652   7.909 -0.7095  1.4937 -0.1346
37274SOL    HW215415   4.566   5.669   8.056 -0.7694  0.2122  0.0170
37275SOL     OW15416   1.131   5.600   1.588  0.6728  0.0386 -0.0443
37275SOL    HW115417   1.119   5.690   1.618  0.7208 -0.0495  0.2474
37275SOL    HW215418   1.064   5.587   1.521  0.9046  0.4094 -0.3479
37276SOL     OW15419   7.403   0.646   6.696  0.3222  0.1319 -0.4233
37276SOL    HW115420   7.359   0.592   6.631 -0.8558  0.9058 -0.3030
37276SOL    HW215421   7.393   0.598   6.778  2.4798 -1.2278 -0.8709
37277SOL     OW15422   8.882   5.674   6.852 -0.0143  0.5495 -0.4078
37277SOL    HW115423   8.858   5.600   6.908 -0.5072  0.0028 -1.3196
37277SOL    HW215424   8.807   5.684   6.793  0.7092  0.7801 -1.2997
37278SOL     OW15425  10.736   6.954   1.678 -0.4497 -0.1686  0.5625
37278SOL    HW115426  10.826   6.938   1.707 -0.2657  0.9694  0.6806
37278SOL    HW215427  10.715   7.041   1.712 -0.4146  1.0235 -2.1935
37279SOL     OW15428   5.005   8.217   8.059  0.7963  0.1772  0.2163
37279SOL    HW115429   5.052   8.282   8.006 -0.0283  2.2656  1.8710
37279SOL    HW215430   5.058   8.138   8.053  1.3133  0.6495 -2.7375
37280SOL     OW15431   9.322   1.585   4.513  0.0876 -0.3734 -0.1259
37280SOL    HW115432   9.229   1.566   4.525 -0.4008  2.2564  0.7004
37280SOL    HW215433   9.351   1.620   4.597  1.2741  0.8931 -1.0281
37281SOL     OW15434   6.665   1.837   1.144  0.2311 -0.8169 -0.1843
37281SOL    HW115435   6.622   1.752   1.136 -0.2871 -0.5077 -0.6999
37281SOL    HW215436   6.594   1.899   1.162  0.5884 -0.4687  0.0536
37282SOL     OW15437  10.857   0.366   6.640 -0.2858 -0.5678 -0.1797
37282SOL    HW115438  10.857   0.270   6.640 -0.3854 -0.5683 -0.5228
37282SOL    HW215439  10.813   0.390   6.558  0.8567 -0.2270 -0.7156
37283SOL     OW15440   2.203   4.068   2.436 -0.0533  0.2359 -0.1353
37283SOL    HW115441   2.195   4.013   2.514  0.9631 -0.8434 -0.7521
37283SOL    HW215442   2.183   4.010   2.363  2.0507  0.3508 -0.8845
37284SOL     OW15443   6.788   1.854   6.086  0.0084  0.1886 -0.4581
37284SOL    HW115444   6.776   1.805   6.167 -1.0651  1.0348 -0.0798
37284SOL    HW215445   6.701   1.892   6.068  1.2172  3.8818  0.5458
37285SOL     OW15446   4.366   1.701  10.656 -0.2056 -0.0188 -0.0386
37285SOL    HW115447   4.399   1.652  10.580  2.2497  1.3881  0.0337
37285SOL    HW215448   4.370   1.639  10.728  0.3521 -0.4674 -0.4499
37286SOL     OW15449  10.775   9.193   8.701  0.4287  0.7432 -0.3858
37286SOL    HW115450  10.716   9.134   8.654  1.8820 -1.0414 -0.0851
37286SOL    HW215451  10.742   9.281   8.681 -2.2154 -0.1483 -0.3083
37287SOL     OW15452   4.789   3.141   3.114 -0.5174  0.1238  0.0423
37287SOL    HW115453   4.847   3.163   3.042  1.2770  0.0801  1.4023
37287SOL    HW215454   4.791   3.045   3.118 -0.2093  0.1464  0.4570
37288SOL     OW15455   9.363   3.998   6.776  0.5457  0.0478  0.0101
37288SOL    HW115456   9.383   3.950   6.696  1.4844 -0.4938  0.5494
37288SOL    HW215457   9.292   4.057   6.751  1.6519  0.7960 -1.5709
37289SOL     OW15458   1.702   3.360   4.028  0.3886  0.7180  0.3683
37289SOL    HW115459   1.796   3.344   4.035  0.4414  0.2405 -1.0877
37289SOL    HW215460   1.666   3.332   4.112  1.2780 -1.2255  0.1362
37290SOL     OW15461   0.894  10.146  10.507 -0.0216 -0.0685 -0.1068
37290SOL    HW115462   0.855  10.087  10.443  0.3381  2.1112 -2.4944
37290SOL    HW215463   0.820  10.193  10.545 -0.0598  0.8346 -1.2625
37291SOL     OW15464   6.328   9.492   1.064  0.2780 -0.4092 -0.2130
37291SOL    HW115465   6.375   9.575   1.064 -2.6918  1.4100 -0.6440
37291SOL    HW215466   6.385   9.432   1.016  2.6864  1.2275  0.4451
37292SOL     OW15467   4.913   4.016   2.918  0.0222 -0.3210  0.6335
37292SOL    HW115468   4.842   3.953   2.930 -0.1868 -0.4258 -0.8772
37292SOL    HW215469   4.992   3.962   2.909 -0.2116 -0.4471 -1.0651
37293SOL     OW15470   0.516   8.121   6.977  0.0020  0.6966 -0.2310
37293SOL    HW115471   0.462   8.170   7.039 -0.8302  2.2803 -2.0612
37293SOL    HW215472   0.592   8.178   6.961  0.5416  0.0056 -0.1486
37294SOL     OW15473   7.854   0.399   6.123  0.2890 -0.6594  0.9336
37294SOL    HW115474   7.935   0.378   6.169  0.8667 -1.2071 -0.2726
37294SOL    HW215475   7.799   0.441   6.189  1.4445 -0.5180  1.8471
37295SOL     OW15476   5.745   8.299   7.411  0.1450 -0.1100 -0.2979
37295SOL    HW115477   5.817   8.361   7.420 -0.5695  1.0076 -1.7855
37295SOL    HW215478   5.682   8.323   7.479 -0.9076  2.0075 -1.8906
37296SOL     OW15479   7.678   4.609   2.071  0.0504  0.5375  0.4019
37296SOL    HW115480   7.757   4.590   2.021 -0.3790  1.2209 -0.5786
37296SOL    HW215481   7.653   4.697   2.043 -1.8063 -0.1739 -0.3565
37297SOL     OW15482   2.766   6.260  10.874 -1.1299 -0.6074  0.0155
37297SOL    HW115483   2.737   6.180  10.917  0.4452 -0.7780  0.8306
37297SOL    HW215484   2.801   6.232  10.790 -0.5313 -0.7827  0.3225
37298SOL     OW15485   7.788   2.224  10.491 -0.4819  1.0076  0.2038
37298SOL    HW115486   7.839   2.281  10.434 -0.1696  0.6952  0.1696
37298SOL    HW215487   7.720   2.189  10.434 -1.3580  2.1909  0.4778
37299SOL     OW15488   7.471   9.981   0.682 -0.5454  0.9249 -0.9301
37299SOL    HW115489   7.544  10.007   0.625  2.0179 -2.1476  0.6288
37299SOL    HW215490   7.426   9.913   0.632 -0.1947  0.3992 -0.5370
37300SOL     OW15491   4.937  10.876  10.649 -0.7383 -0.0311  0.3603
37300SOL    HW115492   4.885  10.909  10.722  1.1465  0.6888  1.4551
37300SOL    HW215493   5.018  10.845  10.690  0.1548 -0.0977 -1.3724
37301SOL     OW15494   4.534   1.278   4.615  0.5562 -0.0847  0.0323
37301SOL    HW115495   4.577   1.360   4.590 -1.3544  0.9215 -0.1465
37301SOL    HW215496   4.489   1.249   4.536  2.2221 -2.0446 -0.2710
37302SOL     OW15497   5.687   8.956   8.290  0.7476 -0.4439  0.2804
37302SOL    HW115498   5.694   9.020   8.220  2.0412 -1.1972 -0.3016
37302SOL    HW215499   5.703   9.007   8.370  2.8210 -0.1890 -0.2451
37303SOL     OW15500   5.792  10.041   8.238 -0.2156 -0.4750 -0.4183
37303SOL    HW115501   5.871  10.076   8.279 -1.4682  1.4252  0.5361
37303SOL    HW215502   5.800  10.063   8.146  2.0265 -3.6365 -1.1753
37304SOL     OW15503   2.464  10.142  10.704  0.3611  0.2689  0.0078
37304SOL    HW115504   2.446  10.235  10.718 -0.1675  0.1302  0.2542
37304SOL    HW215505   2.559  10.138  10.693  0.5042  0.7220  0.9481
37305SOL     OW15506   5.253   9.688   5.408  0.1617  0.2944  1.2788
37305SOL    HW115507   5.222   9.642   5.486  0.0313 -0.6269  0.7087
37305SOL    HW215508   5.290   9.618   5.353 -1.5430  0.6006 -0.3565
37306SOL     OW15509   4.307   8.564   1.074  0.0038 -0.0660 -0.0858
37306SOL    HW115510   4.274   8.569   0.984 -4.3072  0.8798  1.3173
37306SOL    HW215511   4.372   8.634   1.079 -1.0730  1.1720 -1.9859
37307SOL     OW15512   6.722   2.382   7.375  0.1068 -0.3034 -0.4725
37307SOL    HW115513   6.798   2.381   7.317  0.5360 -0.9244  0.0885
37307SOL    HW215514   6.758   2.362   7.461 -0.3259  1.8195  0.2608
37308SOL     OW15515  10.374   8.181   5.503  0.3235  0.3822  0.4054
37308SOL    HW115516  10.428   8.205   5.427  0.3610  2.8308  1.1378
37308SOL    HW215517  10.284   8.194   5.473  0.1858 -1.3764 -0.0532
37309SOL     OW15518   6.404   8.226   5.521 -0.6038 -0.1633  0.2095
37309SOL    HW115519   6.478   8.283   5.542 -0.7976 -0.2320  1.1480
37309SOL    HW215520   6.345   8.281   5.469 -0.3866  0.2270  0.3696
37310SOL     OW15521  11.004   5.768   7.740  0.0239 -0.6054 -0.1402
37310SOL    HW115522  11.060   5.819   7.682 -1.7297  1.2749 -0.2837
37310SOL    HW215523  11.038   5.787   7.828  0.6092 -0.7990 -0.3187
37311SOL     OW15524   3.932   9.479   9.310 -0.0576  0.1274  0.1102
37311SOL    HW115525   3.856   9.452   9.259  0.8214  0.8081 -1.6600
37311SOL    HW215526   3.898   9.540   9.375 -1.2212 -0.8317  0.4390
37312SOL     OW15527   6.896   7.279  10.037 -0.2136  0.4064 -0.6518
37312SOL    HW115528   6.918   7.232  10.118 -1.4274 -2.0087 -1.6419
37312SOL    HW215529   6.915   7.371  10.058  1.3543 -0.3415  1.7107
37313SOL     OW15530   8.670   1.349   2.174 -0.2649  0.4852  0.3995
37313SOL    HW115531   8.579   1.351   2.145 -0.0300  0.7245 -0.3292
37313SOL    HW215532   8.683   1.260   2.206 -0.2148 -0.1282 -1.2560
37314SOL     OW15533   2.509   0.822   6.257  0.1473  0.3379  0.0250
37314SOL    HW115534   2.460   0.843   6.336 -1.8051  0.2972 -1.1031
37314SOL    HW215535   2.501   0.900   6.202  0.1865 -0.1757 -0.7280
37315SOL     OW15536   6.949   0.392   2.604  0.4790 -0.3253 -0.5527
37315SOL    HW115537   6.993   0.397   2.689  1.3374  0.5519 -1.0306
37315SOL    HW215538   7.008   0.338   2.551 -0.0114 -0.7939 -0.6308
37316SOL     OW15539   9.135   2.124   4.109 -0.4589  0.3450  0.5693
37316SOL    HW115540   9.042   2.138   4.127 -0.6115 -1.2524  1.1489
37316SOL    HW215541   9.158   2.047   4.160  0.2103 -1.7548 -2.6352
37317SOL     OW15542  10.632   6.596   1.986 -0.7093 -0.3227  0.5867
37317SOL    HW115543  10.585   6.525   2.030  0.1690 -0.9714  0.4970
37317SOL    HW215544  10.707   6.613   2.042  1.2141 -2.1162 -1.2865
37318SOL     OW15545   4.558   1.066   0.968  0.0681 -0.0073  0.0751
37318SOL    HW115546   4.528   1.125   0.899  0.1210 -1.9859 -1.7340
37318SOL    HW215547   4.635   1.023   0.932  0.0974 -1.1177  1.3766
37319SOL     OW15548   3.724   7.611   3.199 -0.0669 -0.0139 -0.1695
37319SOL    HW115549   3.659   7.682   3.202 -0.3278 -0.2516 -0.0565
37319SOL    HW215550   3.709   7.568   3.115  0.8186  0.7290 -0.7176
37320SOL     OW15551   8.305  10.980  10.967  0.1210  0.3463 -0.4271
37320SOL    HW115552   8.329  10.893  11.001 -0.0305 -0.0327 -1.2626
37320SOL    HW215553   8.354  11.041  11.021  0.7094 -0.2851 -0.2292
37321SOL     OW15554   5.741   1.622  11.057  0.2905  0.0449  0.4363
37321SOL    HW115555   5.745   1.554  10.989  1.7184  1.5930 -1.1328
37321SOL    HW215556   5.650   1.622  11.085  0.0525 -1.8926 -0.1521
37322SOL     OW15557   4.757   1.223  10.708 -0.1937  0.1477 -0.5618
37322SOL    HW115558   4.686   1.210  10.770 -1.0330  0.2671 -1.4592
37322SOL    HW215559   4.751   1.315  10.684  0.8203  0.3663  0.0004
37323SOL     OW15560   8.164  10.929   5.261 -0.1681 -0.3269  0.5295
37323SOL    HW115561   8.248  10.972   5.278 -1.1873  2.6327 -1.1341
37323SOL    HW215562   8.182  10.867   5.190  0.6422  0.2139  0.2529
37324SOL     OW15563   3.144   5.708   4.956 -0.3804  0.0781 -0.6170
37324SOL    HW115564   3.135   5.626   4.907  0.0824 -0.1769 -0.2782
37324SOL    HW215565   3.234   5.707   4.989 -1.7234 -1.6422  3.6280
37325SOL     OW15566   6.834   0.727   1.877 -0.1881 -1.1498 -0.3043
37325SOL    HW115567   6.779   0.723   1.955  0.1155  1.0755  0.0812
37325SOL    HW215568   6.831   0.638   1.841 -1.2824 -1.9284  1.5687
37326SOL     OW15569   7.221   6.964   6.759  0.0410  0.9006 -0.0167
37326SOL    HW115570   7.250   7.025   6.826  2.4995  0.8633 -0.9559
37326SOL    HW215571   7.127   6.955   6.774  0.6829 -0.4498  4.5014
37327SOL     OW15572   0.250   2.252   9.983  0.2776 -0.4171  0.5549
37327SOL    HW115573   0.193   2.321  10.017 -0.3962  0.1778 -1.6106
37327SOL    HW215574   0.189   2.186   9.949  0.9147 -1.0922  0.6939
37328SOL     OW15575   3.163   1.544   5.092 -0.1017 -0.0666  0.1108
37328SOL    HW115576   3.170   1.617   5.030 -0.8207  1.2607  1.5136
37328SOL    HW215577   3.098   1.486   5.054 -1.1765  1.1621 -0.0185
37329SOL     OW15578  10.716   8.498   0.277  0.2871  0.0893  0.1416
37329SOL    HW115579  10.750   8.472   0.363  1.8406 -0.6507 -0.6457
37329SOL    HW215580  10.794   8.525   0.229 -0.2492 -1.3525 -1.6572
37330SOL     OW15581   7.558   9.438   8.865 -0.4783 -0.0495  0.2613
37330SOL    HW115582   7.556   9.491   8.785 -0.8392 -0.1898  0.1751
37330SOL    HW215583   7.624   9.481   8.920  1.3970 -1.2095 -0.9715
37331SOL     OW15584   5.479   9.564   4.893  0.0707 -0.1220  0.4709
37331SOL    HW115585   5.467   9.623   4.967 -0.2036  0.6415 -0.1657
37331SOL    HW215586   5.442   9.481   4.922  2.1817 -0.5829  2.0890
37332SOL     OW15587   0.877   8.435   9.598 -0.1675 -0.7360 -0.0523
37332SOL    HW115588   0.916   8.501   9.540 -1.2144  1.8477  2.0152
37332SOL    HW215589   0.785   8.433   9.573 -0.9873  1.5689  2.3418
37333SOL     OW15590   1.160   6.231   7.628 -0.6339 -0.0858 -0.4653
37333SOL    HW115591   1.222   6.305   7.632 -0.8568  0.0906  2.6943
37333SOL    HW215592   1.082   6.264   7.673 -1.3696 -1.7275 -0.4967
37334SOL     OW15593   7.877   7.229   0.536  0.1130 -0.0208 -0.2068
37334SOL    HW115594   7.961   7.264   0.507  0.2486 -0.2841 -0.1438
37334SOL    HW215595   7.831   7.207   0.455  0.2408 -0.1841 -0.2358
37335SOL     OW15596   2.337   7.751   8.020  0.1237 -0.1851  0.1204
37335SOL    HW115597   2.373   7.786   8.102  0.4222 -1.0095  0.3540
37335SOL    HW215598   2.245   7.732   8.041 -0.3665  1.4679 -0.3359
37336SOL     OW15599   0.657  10.442   6.764 -0.0331 -0.4033  0.2104
37336SOL    HW115600   0.645  10.351   6.793 -1.8130 -0.4203 -0.4483
37336SOL    HW215601   0.579  10.488   6.795  0.3364  0.6640 -0.3886
37337SOL     OW15602  10.764   4.111   7.614 -0.5114  0.3369  0.2053
37337SOL    HW115603  10.783   4.155   7.531 -0.5037  0.0672  0.0625
37337SOL    HW215604  10.820   4.033   7.614 -0.4938  0.3483  0.4737
37338SOL     OW15605   4.219   9.322   6.826  0.0032  0.4639  0.1312
37338SOL    HW115606   4.305   9.345   6.791  0.9961  0.7509  2.5122
37338SOL    HW215607   4.182   9.260   6.764  2.9172 -1.4218  0.1191
37339SOL     OW15608   2.987   9.645   7.620 -0.5653 -0.0159 -0.1903
37339SOL    HW115609   2.918   9.644   7.686 -0.2759  0.8116  0.1387
37339SOL    HW215610   3.050   9.709   7.652 -0.2770  0.1836 -1.1231
37340SOL     OW15611   8.969   0.563   8.957  0.6443  0.1780 -0.0735
37340SOL    HW115612   9.040   0.512   8.996 -0.2239 -0.2361  1.0158
37340SOL    HW215613   8.971   0.539   8.865  0.2785 -1.8635  0.3890
37341SOL     OW15614   9.445   9.431   4.926  0.1273 -0.0752  0.9058
37341SOL    HW115615   9.447   9.526   4.927 -0.1421 -0.0575  0.3784
37341SOL    HW215616   9.512   9.404   4.989 -0.4611  0.4576  1.7823
37342SOL     OW15617   1.477  10.239   8.544 -0.6039 -0.2902  0.0098
37342SOL    HW115618   1.524  10.299   8.485 -1.5378  1.3909  0.8896
37342SOL    HW215619   1.542  10.215   8.609  0.3271 -1.8476 -1.4172
37343SOL     OW15620   3.197  10.374   3.181  0.6362 -0.2297  0.0574
37343SOL    HW115621   3.151  10.423   3.249  2.1842  1.2002  0.1548
37343SOL    HW215622   3.255  10.315   3.229  1.1872  0.2493 -0.0048
37344SOL     OW15623   9.594   1.554   7.004 -0.1043  0.7383  0.3944
37344SOL    HW115624   9.642   1.617   7.058  2.1768  0.6480 -1.3884
37344SOL    HW215625   9.662   1.504   6.958 -1.8962 -1.0128 -0.5060
37345SOL     OW15626   9.816   3.538   8.248 -0.0655  0.6810 -0.4080
37345SOL    HW115627   9.882   3.472   8.269  0.8210  0.7401 -2.7248
37345SOL    HW215628   9.733   3.490   8.249  0.2491  0.1324  0.4650
37346SOL     OW15629   9.221   1.861   1.404 -0.2428  0.5627 -0.3339
37346SOL    HW115630   9.193   1.905   1.484 -0.4201  3.2816 -1.7765
37346SOL    HW215631   9.163   1.785   1.397 -1.9882  1.7131  0.7766
37347SOL     OW15632   2.149   8.710   4.865  0.3827  0.4350  0.0305
37347SOL    HW115633   2.067   8.675   4.899  1.8795 -1.8539  1.5664
37347SOL    HW215634   2.195   8.744   4.942  1.3872  0.5646 -0.6021
37348SOL     OW15635   4.535   5.595   7.736 -0.1506  0.2845  0.5667
37348SOL    HW115636   4.494   5.644   7.665  1.7321  0.4782 -0.4500
37348SOL    HW215637   4.568   5.515   7.695  0.7239  0.2615  1.2827
37349SOL     OW15638   6.693   3.974   1.481  0.1860  0.1324 -0.3332
37349SOL    HW115639   6.667   3.936   1.565  1.0678 -0.6922 -0.4182
37349SOL    HW215640   6.754   3.911   1.443  0.8604  1.1258 -0.9779
37350SOL     OW15641   3.569   7.522   7.069  0.0432  0.1488  0.1077
37350SOL    HW115642   3.571   7.465   6.993  0.2020 -1.3552  1.1899
37350SOL    HW215643   3.529   7.469   7.138  1.4560  0.8449  1.5424
37351SOL     OW15644   8.921   8.466  10.004 -0.0798 -0.2794  0.0683
37351SOL    HW115645   8.946   8.374   9.988 -1.0762 -0.5857  0.2238
37351SOL    HW215646   8.968   8.515   9.936  1.0347 -0.8073  0.4181
37352SOL     OW15647   2.199   2.829   3.190 -0.2023 -0.2725  0.2596
37352SOL    HW115648   2.229   2.843   3.100  0.5530  0.6279  0.6346
37352SOL    HW215649   2.112   2.869   3.192  0.5817  1.5424  0.4228
37353SOL     OW15650   7.985   7.010   9.864  0.1608 -0.1352  0.6204
37353SOL    HW115651   7.929   7.020   9.787  2.2120 -1.1993 -1.1037
37353SOL    HW215652   8.003   7.100   9.892  0.1445  0.3072 -0.7234
37354SOL     OW15653   9.688   5.016   2.855  0.3612 -0.0296 -0.0021
37354SOL    HW115654   9.719   4.949   2.794 -1.1418  0.1324 -0.9801
37354SOL    HW215655   9.635   4.969   2.919 -0.5259  0.1672 -0.5711
37355SOL     OW15656   5.008   8.884   6.476 -0.5820  0.1094  0.0423
37355SOL    HW115657   5.074   8.821   6.504 -0.6468  0.0140 -0.0208
37355SOL    HW215658   4.988   8.861   6.386  1.0926  1.6468 -0.7926
37356SOL     OW15659   8.095   0.920   5.581 -0.1527  0.1080 -0.4133
37356SOL    HW115660   8.096   0.825   5.592  1.4448  0.1733  0.3984
37356SOL    HW215661   8.162   0.938   5.515 -0.2059  0.6898 -0.3195
37357SOL     OW15662   3.340   9.143   2.764  0.6966 -0.5888 -0.0083
37357SOL    HW115663   3.411   9.095   2.806  0.8878 -1.3383 -1.1418
37357SOL    HW215664   3.383   9.213   2.716  0.5743 -0.3743  0.1949
37358SOL     OW15665   5.851   4.255   4.894  0.2988 -0.1654  0.0375
37358SOL    HW115666   5.812   4.173   4.865  1.6573 -0.4561 -1.0263
37358SOL    HW215667   5.945   4.240   4.890  0.5595  1.0379  1.0429
37359SOL     OW15668   1.123   9.619   1.317  0.3822  0.1610  0.0727
37359SOL    HW115669   1.210   9.632   1.356  0.2606  0.6828  0.1713
37359SOL    HW215670   1.130   9.656   1.229  0.2610  0.1929  0.0771
37360SOL     OW15671   9.857   5.867  10.313  0.0591 -0.0650 -0.0526
37360SOL    HW115672   9.932   5.897  10.365  0.5782 -1.4803  0.0573
37360SOL    HW215673   9.784   5.922  10.341  0.6763  0.2099  1.0597
37361SOL     OW15674   1.831   8.245   3.929 -0.0471 -0.4135  0.1646
37361SOL    HW115675   1.791   8.245   4.016 -0.5761 -1.2107 -0.0642
37361SOL    HW215676   1.871   8.158   3.921 -0.4712 -0.5452 -0.5982
37362SOL     OW15677   7.325  10.091   5.711 -0.2110 -0.8661 -0.3033
37362SOL    HW115678   7.326  10.012   5.765 -1.3915 -0.5675  0.1667
37362SOL    HW215679   7.346  10.059   5.623  2.4094 -1.2733  0.3595
37363SOL     OW15680   9.388   6.523   0.614  0.1532 -0.2949  0.0702
37363SOL    HW115681   9.435   6.440   0.626 -0.3173 -0.6290 -0.4095
37363SOL    HW215682   9.335   6.532   0.694  1.1894  0.2063  0.7334
37364SOL     OW15683   2.066   1.943  10.002  0.0119 -0.0394  0.3021
37364SOL    HW115684   2.115   1.928  10.083 -0.5581 -0.9205  0.4956
37364SOL    HW215685   2.034   2.033  10.010  1.2330  0.4165  0.3526
37365SOL     OW15686   0.116   3.223   7.102  0.2892  0.2957  0.2177
37365SOL    HW115687   0.211   3.217   7.107  0.1899 -0.9783  1.1738
37365SOL    HW215688   0.093   3.290   7.166  0.4908  0.0356  0.5624
37366SOL     OW15689   1.003   7.896   6.191 -0.2260  0.6045  0.4709
37366SOL    HW115690   1.064   7.847   6.136 -1.4436  0.5589 -0.9262
37366SOL    HW215691   1.015   7.860   6.279  0.4524 -0.6795 -0.1117
37367SOL     OW15692   3.446   4.591   4.821  0.2687 -0.3366  0.1303
37367SOL    HW115693   3.393   4.668   4.801  0.7594  0.1879  0.8244
37367SOL    HW215694   3.393   4.540   4.882 -0.4874 -1.0729 -1.0930
37368SOL     OW15695   7.788   5.770   2.754  0.5860  0.4830 -0.6427
37368SOL    HW115696   7.824   5.797   2.839  2.1934 -1.7502 -0.5129
37368SOL    HW215697   7.802   5.675   2.752 -0.0496  0.3904 -3.1285
37369SOL     OW15698   3.640   2.462   6.639 -0.3734 -0.3470  0.2961
37369SOL    HW115699   3.641   2.415   6.556 -0.2507  0.0000  0.0951
37369SOL    HW215700   3.711   2.423   6.690  1.3829  1.2150 -0.7992
37370SOL     OW15701   0.651   0.749   5.799  0.2496  0.3548  0.0875
37370SOL    HW115702   0.683   0.697   5.872 -0.8183  0.2837  0.5154
37370SOL    HW215703   0.696   0.713   5.722 -0.0186 -0.7947  0.4600
37371SOL     OW15704   0.162   0.924   3.431  0.0482  0.3485  0.1786
37371SOL    HW115705   0.068   0.908   3.443 -0.1922 -0.5299 -2.2766
37371SOL    HW215706   0.167   1.014   3.398 -0.2940 -0.4702 -2.3598
37372SOL     OW15707   1.840   3.544   4.309  0.2103 -0.4939  0.5841
37372SOL    HW115708   1.815   3.518   4.220  1.6284  1.2270 -0.3770
37372SOL    HW215709   1.779   3.614   4.331 -0.4782 -1.2701  1.2147
37373SOL     OW15710  11.000   9.631   4.260  0.5058  0.3286 -0.4288
37373SOL    HW115711  11.006   9.537   4.275  0.3436  0.3943  0.0601
37373SOL    HW215712  11.072   9.650   4.199  2.5461  0.3884  1.8560
37374SOL     OW15713   9.942   1.736   6.306  0.0085  0.3181 -0.3193
37374SOL    HW115714  10.023   1.734   6.359 -0.6750  0.5068  0.7694
37374SOL    HW215715   9.892   1.660   6.337 -0.3144  0.3158 -0.8490
37375SOL     OW15716   8.664  10.410   0.648  0.0195  0.0886  0.4465
37375SOL    HW115717   8.581  10.364   0.633 -0.0032 -0.4855  2.0713
37375SOL    HW215718   8.731  10.342   0.643  0.2764  0.3567  0.2203
37376SOL     OW15719   2.959   1.588   2.338  0.2568 -0.1451  0.5434
37376SOL    HW115720   3.040   1.567   2.292  1.5060  4.4262  0.1481
37376SOL    HW215721   2.893   1.595   2.270  0.5240  0.0878  0.3056
37377SOL     OW15722   3.402   8.011   6.989  0.1679  0.8255 -0.0125
37377SOL    HW115723   3.492   8.026   7.018  0.1724 -1.2242  1.1550
37377SOL    HW215724   3.385   7.919   7.008 -2.0086  1.0239 -0.7345
37378SOL     OW15725  10.947   2.847   0.055  0.0347  0.6129 -0.2374
37378SOL    HW115726  10.909   2.802   0.130 -0.6798 -1.5288 -1.7771
37378SOL    HW215727  10.871   2.878   0.005  0.3878 -0.2011 -1.3189
37379SOL     OW15728   8.923   6.589   6.563  0.6071 -0.1217  0.1108
37379SOL    HW115729   8.892   6.680   6.560 -0.2253 -0.4031  0.0008
37379SOL    HW215730   8.939   6.573   6.656  0.5029  0.0516  0.1597
37380SOL     OW15731   6.754   0.001   6.333  0.0120  0.4274  0.2364
37380SOL    HW115732   6.818   0.063   6.369  2.6356 -1.0841 -1.4312
37380SOL    HW215733   6.784  -0.085   6.364 -2.3019 -0.2546  0.7873
37381SOL     OW15734   2.477   8.454   7.508  0.2014 -0.2451  0.4899
37381SOL    HW115735   2.411   8.523   7.513  0.7006  0.1743  2.4858
37381SOL    HW215736   2.427   8.372   7.513 -0.2287  0.0689  2.8920
37382SOL     OW15737   0.258   5.797   1.426 -0.3299 -0.2320  0.0993
37382SOL    HW115738   0.278   5.867   1.487 -2.0029 -1.2572  1.9454
37382SOL    HW215739   0.196   5.835   1.363  0.1288  0.3959  0.0289
37383SOL     OW15740   6.158   5.261   7.373  0.6730  0.3465 -0.2009
37383SOL    HW115741   6.066   5.273   7.398  0.8133  0.6865  0.1684
37383SOL    HW215742   6.176   5.169   7.391  0.6574  0.4901  0.5911
37384SOL     OW15743   2.712   0.671   8.396 -0.0736 -0.2762  0.0282
37384SOL    HW115744   2.620   0.654   8.375 -0.1995 -0.7463  0.9269
37384SOL    HW215745   2.712   0.689   8.490  0.6462  0.5323 -0.1179
37385SOL     OW15746   5.877   4.918   4.310  0.1483 -0.4007  0.4809
37385SOL    HW115747   5.813   4.893   4.242 -0.8932 -0.0555  1.3111
37385SOL    HW215748   5.934   4.841   4.318 -1.2718 -1.4453  0.9954
37386SOL     OW15749   5.073   5.950   2.004 -0.7072  0.0086  0.1037
37386SOL    HW115750   5.077   5.993   2.089 -0.4336  0.8693 -0.3378
37386SOL    HW215751   5.164   5.951   1.972 -0.7560 -0.5720 -0.0771
37387SOL     OW15752   8.248   6.608   6.153  0.7490  0.2679 -0.2704
37387SOL    HW115753   8.307   6.602   6.228 -0.4223 -0.2225  0.6432
37387SOL    HW215754   8.291   6.559   6.084  1.8018  0.6343  0.1074
37388SOL     OW15755   5.186   3.932   6.393 -0.1272 -0.4067 -0.6013
37388SOL    HW115756   5.199   3.840   6.418  1.3731 -0.4454 -1.4323
37388SOL    HW215757   5.103   3.957   6.435  0.4710 -1.5230  1.3332
37389SOL     OW15758   9.098   2.395   4.370 -0.0859 -0.0648  0.6379
37389SOL    HW115759   9.182   2.353   4.352  0.9542  1.9113  0.6087
37389SOL    HW215760   9.041   2.323   4.400  1.6906 -1.4040  0.9671
37390SOL     OW15761   7.837   4.497   2.328  0.6953 -0.3265 -0.2892
37390SOL    HW115762   7.780   4.547   2.269  0.7065  1.1194  0.8612
37390SOL    HW215763   7.920   4.545   2.327  1.1774 -1.1492 -0.2482
37391SOL     OW15764  10.186   3.822   1.961  0.6634  0.1431  0.2939
37391SOL    HW115765  10.214   3.913   1.954  0.7879 -0.0067 -1.8154
37391SOL    HW215766  10.243   3.784   2.029  1.1476  1.4237  0.6211
37392SOL     OW15767   0.436   8.728   7.606  0.0530  0.2271  0.4665
37392SOL    HW115768   0.398   8.737   7.518  1.7157 -0.1190 -0.3105
37392SOL    HW215769   0.414   8.639   7.632  0.8802 -0.2118 -0.2722
37393SOL     OW15770   0.439   9.013  10.839 -0.0497 -0.3033 -0.0988
37393SOL    HW115771   0.483   8.937  10.875  1.6531  0.5618 -0.2350
37393SOL    HW215772   0.491   9.088  10.870 -0.7989  0.7028 -1.1808
37394SOL     OW15773   1.092   7.300   2.759  0.2049  0.1380 -0.1341
37394SOL    HW115774   1.131   7.221   2.795  0.5785  0.5723  0.4328
37394SOL    HW215775   0.999   7.293   2.780  0.3592  0.2041  0.5786
37395SOL     OW15776  10.595   4.134   6.570 -0.0609 -0.1314  0.7094
37395SOL    HW115777  10.644   4.108   6.493  0.4982 -0.1554  1.0665
37395SOL    HW215778  10.536   4.061   6.587 -3.7733  1.7315 -2.5148
37396SOL     OW15779   5.445   7.128   4.731  0.1145  0.1079  0.3820
37396SOL    HW115780   5.500   7.176   4.793 -0.5382 -0.4217  1.3957
37396SOL    HW215781   5.461   7.036   4.752 -0.2273 -0.0716 -0.1415
37397SOL     OW15782   6.434   2.937   5.792  0.1719 -0.0352  0.4905
37397SOL    HW115783   6.504   2.951   5.728  0.1131 -2.0126 -0.0762
37397SOL    HW215784   6.372   3.008   5.776  0.2361 -0.3796 -1.5878
37398SOL     OW15785   6.687   4.339   9.038  0.4064  0.0559 -0.2379
37398SOL    HW115786   6.612   4.281   9.023  1.2808 -0.5610 -2.5683
37398SOL    HW215787   6.710   4.324   9.130 -0.6825 -1.7335 -0.2028
37399SOL     OW15788   6.066   4.594   5.560  0.7942  0.0434  0.0801
37399SOL    HW115789   6.054   4.655   5.488 -0.0204 -0.5011 -0.2653
37399SOL    HW215790   5.978   4.562   5.580  1.2925 -1.8485 -0.4973
37400SOL     OW15791   4.120   1.542   0.219 -0.3459  0.4577 -0.1778
37400SOL    HW115792   4.191   1.565   0.278 -0.5809 -3.5086  1.9830
37400SOL    HW215793   4.057   1.614   0.228  1.8002  2.3622  0.4685
37401SOL     OW15794   7.627   7.603   1.010  0.2619 -0.5695  0.4147
37401SOL    HW115795   7.691   7.532   1.006  0.1338 -0.7090  0.8402
37401SOL    HW215796   7.579   7.597   0.927  1.2846 -0.0016 -0.2364
37402SOL     OW15797   4.928   4.841   0.528  0.7117  0.1411 -0.0984
37402SOL    HW115798   5.021   4.825   0.512  1.0534  0.6614  1.2737
37402SOL    HW215799   4.926   4.905   0.599 -0.6930  1.1054 -0.9521
37403SOL     OW15800   3.655   5.829   4.400  0.3027 -0.5031  0.7572
37403SOL    HW115801   3.740   5.791   4.420  0.0887 -2.0809 -1.0369
37403SOL    HW215802   3.676   5.905   4.345  0.6275  0.7726  2.5636
37404SOL     OW15803   0.463  10.337   8.039  0.1399 -0.2704 -0.1624
37404SOL    HW115804   0.556  10.339   8.015  0.8475 -2.2053  2.0986
37404SOL    HW215805   0.438  10.429   8.044  1.9995  0.3041 -0.5672
37405SOL     OW15806   4.452   1.102   8.038  0.6348 -0.4005  0.4908
37405SOL    HW115807   4.477   1.150   7.958  1.7351 -1.2465  0.2920
37405SOL    HW215808   4.454   1.168   8.107 -6.3354  1.9876 -0.8332
37406SOL     OW15809  10.029   8.318   1.389  0.1774 -0.2799 -0.9666
37406SOL    HW115810  10.093   8.317   1.318  0.9418  1.9167 -0.3809
37406SOL    HW215811   9.980   8.399   1.377 -0.3204 -0.3354  0.4521
37407SOL     OW15812   3.550   1.358  10.298 -0.2759  0.1761 -0.1913
37407SOL    HW115813   3.520   1.382  10.210 -2.1525 -0.6528  0.1608
37407SOL    HW215814   3.558   1.442  10.344  2.0694  0.7422 -1.4766
37408SOL     OW15815   7.395   4.991   6.690 -0.0007 -0.8198  0.0640
37408SOL    HW115816   7.446   5.072   6.683 -0.5204 -0.4246  0.7451
37408SOL    HW215817   7.432   4.933   6.623  0.6154 -0.1498 -0.1823
37409SOL     OW15818   0.717   3.864   9.797  0.4170 -0.4435  0.1973
37409SOL    HW115819   0.672   3.924   9.739  0.3688  0.1496  0.8403
37409SOL    HW215820   0.725   3.783   9.746 -1.1040 -0.4787 -0.0426
37410SOL     OW15821   1.411   7.519   9.764 -0.3089 -0.0858  0.2087
37410SOL    HW115822   1.480   7.455   9.783 -0.2514 -0.2817 -0.6035
37410SOL    HW215823   1.330   7.466   9.760 -0.2141 -0.1682 -0.7861
37411SOL     OW15824   3.289   1.450   1.277 -0.2157  0.3950 -0.1437
37411SOL    HW115825   3.374   1.493   1.291  1.1396 -2.2278  0.4423
37411SOL    HW215826   3.246   1.454   1.363 -1.2255  2.6323 -0.6864
37412SOL     OW15827   8.248   0.244   4.258 -0.7312 -0.0225 -0.1968
37412SOL    HW115828   8.157   0.256   4.232 -0.0394 -0.4663 -3.2131
37412SOL    HW215829   8.298   0.292   4.192  1.2859 -1.2395  0.3731
37413SOL     OW15830   1.819   8.794   7.123  0.2024 -0.5573 -0.0362
37413SOL    HW115831   1.728   8.776   7.101  0.1658 -0.2057 -0.1737
37413SOL    HW215832   1.850   8.851   7.053  0.4935 -0.5838  0.0705
37414SOL     OW15833   7.673  10.807   0.874  0.0868  0.4756 -0.2460
37414SOL    HW115834   7.726  10.886   0.871  0.6589  0.1463  0.6219
37414SOL    HW215835   7.668  10.785   0.967 -0.6113 -0.1459 -0.4181
37415SOL     OW15836   6.410   7.568   2.841  0.3049 -0.0283  0.1396
37415SOL    HW115837   6.498   7.603   2.832  0.5158  0.4331  3.1910
37415SOL    HW215838   6.421   7.487   2.891 -1.0563  0.6125  1.5645
37416SOL     OW15839   4.437   6.226   5.289 -0.3496  0.0238  0.0977
37416SOL    HW115840   4.507   6.288   5.271  0.3103 -0.3211  1.3634
37416SOL    HW215841   4.428   6.228   5.384  0.7469 -2.9170  0.3501
37417SOL     OW15842  10.132   3.026   0.334  0.4787 -0.1259  0.1020
37417SOL    HW115843  10.222   3.008   0.363  0.8215 -0.4170 -1.1082
37417SOL    HW215844  10.089   3.061   0.412  1.7269  0.3059  0.6220
37418SOL     OW15845   7.412   6.486   3.521  0.0808 -0.7643  0.5271
37418SOL    HW115846   7.479   6.469   3.588  3.7628  2.0078 -2.0052
37418SOL    HW215847   7.448   6.446   3.442 -0.6248  1.7442 -1.1684
37419SOL     OW15848   2.782  10.320   3.026 -0.1167  0.9614  0.0005
37419SOL    HW115849   2.799  10.381   3.098  1.2564 -0.4212  0.9130
37419SOL    HW215850   2.782  10.375   2.948  0.0406  2.2743  0.8867
37420SOL     OW15851   2.336   6.340   7.638 -0.1593  0.2514 -0.6077
37420SOL    HW115852   2.294   6.425   7.624 -0.0109  0.4275 -0.0320
37420SOL    HW215853   2.415   6.361   7.689 -0.8340 -0.3740  0.7452
37421SOL     OW15854   8.197   6.127   9.384 -0.2205  0.3067  0.0027
37421SOL    HW115855   8.266   6.131   9.450  0.3643  1.6872 -0.6450
37421SOL    HW215856   8.141   6.055   9.412  1.9984 -1.5059  0.0497
37422SOL     OW15857  11.107   5.171  10.452 -0.1604 -0.2614 -0.1898
37422SOL    HW115858  11.154   5.100  10.409  1.7099 -0.4352  1.9203
37422SOL    HW215859  11.115   5.151  10.546 -0.6146  2.0986  0.4122
37423SOL     OW15860   2.350   9.010   6.026 -0.6800 -0.2036 -0.1047
37423SOL    HW115861   2.308   9.034   6.109  1.5738 -0.0360  1.0810
37423SOL    HW215862   2.358   8.915   6.030 -1.0827 -0.2487 -0.3893
37424SOL     OW15863   6.549   0.079   8.479 -0.2450 -0.1024 -0.5529
37424SOL    HW115864   6.474   0.057   8.534  0.7660  1.3394  1.5382
37424SOL    HW215865   6.607   0.004   8.488 -0.1541  0.0536  0.2932
37425SOL     OW15866  10.601   9.122   0.740  0.2584 -0.3624  0.1317
37425SOL    HW115867  10.665   9.060   0.775  0.5193  0.0840  0.4567
37425SOL    HW215868  10.517   9.091   0.775  0.2744 -1.0168 -0.3870
37426SOL     OW15869   0.961   7.083   4.156  0.1187  0.4539  0.2035
37426SOL    HW115870   0.958   7.072   4.061  0.1723  2.2489 -0.0405
37426SOL    HW215871   0.913   7.164   4.173  1.1630  0.8358  1.5822
37427SOL     OW15872   0.222   2.645   3.680 -0.4554 -0.0286  0.1411
37427SOL    HW115873   0.232   2.567   3.625  1.6778  0.2455  0.0350
37427SOL    HW215874   0.283   2.631   3.753 -0.8570  1.0513  0.7119
37428SOL     OW15875   9.716   5.949   6.851 -0.3244  0.3079  0.0239
37428SOL    HW115876   9.703   5.953   6.757  1.8897  2.0528 -0.3080
37428SOL    HW215877   9.729   5.856   6.870 -1.2308 -0.1167 -1.2772
37429SOL     OW15878   4.166   3.077  10.330 -0.0100  0.1464 -0.0571
37429SOL    HW115879   4.249   3.071  10.283  0.7076  0.0349  1.1937
37429SOL    HW215880   4.178   3.023  10.408 -0.5312  1.7894  1.2036
37430SOL     OW15881   6.399   4.590   2.395 -0.3847 -0.0733 -0.2902
37430SOL    HW115882   6.325   4.562   2.447 -0.2346  0.1560  0.0536
37430SOL    HW215883   6.432   4.510   2.353 -1.1036 -0.1010 -0.8168
37431SOL     OW15884  10.819   9.678   3.936  0.5981  0.1281 -0.6331
37431SOL    HW115885  10.854   9.667   3.847  0.4114 -1.3351 -0.5410
37431SOL    HW215886  10.725   9.668   3.925  0.4000  1.5672 -0.4882
37432SOL     OW15887   9.617   8.809   6.526 -0.4756 -0.0591  0.1630
37432SOL    HW115888   9.562   8.878   6.562  0.9442  1.4754 -0.5066
37432SOL    HW215889   9.614   8.739   6.592  0.2346  1.7537  2.2250
37433SOL     OW15890   7.920   7.911   7.601 -0.3315 -0.3579  0.4627
37433SOL    HW115891   7.908   7.831   7.550  1.4576  0.4719 -1.3866
37433SOL    HW215892   8.015   7.917   7.615 -0.4745  1.1923  0.9871
37434SOL     OW15893   1.325   4.548  10.030 -0.7268  0.0648  0.2766
37434SOL    HW115894   1.345   4.635  10.066  1.2752 -0.3516  0.2914
37434SOL    HW215895   1.229   4.543  10.032 -0.8913  2.1921  0.4343
37435SOL     OW15896   4.232   3.177   5.735  0.4510 -0.4276 -0.0739
37435SOL    HW115897   4.258   3.194   5.645  2.3648  0.9577  0.6969
37435SOL    HW215898   4.296   3.114   5.767 -1.1637 -2.2015 -0.0820
37436SOL     OW15899   0.723   0.471   0.999 -0.1842  0.3408  0.1850
37436SOL    HW115900   0.694   0.537   0.936  0.8634  1.9811  1.3384
37436SOL    HW215901   0.742   0.393   0.946 -1.8348  0.7901 -1.1688
37437SOL     OW15902   4.616   7.329   4.931  0.3653 -0.1000 -0.3215
37437SOL    HW115903   4.582   7.292   5.012 -0.4114  1.0859 -0.0656
37437SOL    HW215904   4.691   7.382   4.958  0.8630 -0.6787 -0.5497
37438SOL     OW15905   4.946   5.109  10.958 -0.2845 -0.3030 -0.3724
37438SOL    HW115906   4.899   5.144  10.882 -1.0742 -0.7751 -0.1146
37438SOL    HW215907   5.000   5.039  10.923  0.0535  0.0892 -0.6388
37439SOL     OW15908   0.026   8.355   3.674  0.2576 -0.3842  0.0428
37439SOL    HW115909   0.027   8.344   3.579  1.6141 -0.5695  0.0626
37439SOL    HW215910   0.022   8.266   3.709  0.5245 -0.3528  0.1559
37440SOL     OW15911   8.363   4.622   1.491 -0.1271 -0.3150 -0.0366
37440SOL    HW115912   8.413   4.608   1.411 -0.4472  2.1043 -0.7364
37440SOL    HW215913   8.297   4.686   1.467 -0.7049 -0.0873  1.9942
37441SOL     OW15914   7.547   4.310   4.759  0.2655  0.5838  0.0578
37441SOL    HW115915   7.629   4.264   4.774 -1.1522 -1.7671  1.3242
37441SOL    HW215916   7.527   4.295   4.667  0.7976  0.3160 -0.0160
37442SOL     OW15917   0.853   1.013   4.204 -0.3223 -0.1981  0.0618
37442SOL    HW115918   0.937   1.030   4.162 -0.6443  0.2995 -0.3896
37442SOL    HW215919   0.874   0.999   4.296  0.3459 -0.9116 -0.1915
37443SOL     OW15920   7.823   9.381   9.573  0.0137 -0.0134  0.2786
37443SOL    HW115921   7.864   9.297   9.596 -0.7242 -0.0137  1.7241
37443SOL    HW215922   7.883   9.421   9.511  0.8686 -1.1781  0.3184
37444SOL     OW15923   7.004   0.079   6.834 -0.4359 -0.5501  0.4334
37444SOL    HW115924   6.958   0.042   6.910  1.1845 -0.0189  1.7305
37444SOL    HW215925   7.094   0.047   6.843  0.3893  1.5907  0.1854
37445SOL     OW15926   0.974  10.089   7.773  0.3058  0.4753 -0.2073
37445SOL    HW115927   1.062  10.062   7.749  0.7661 -0.3786  2.2081
37445SOL    HW215928   0.922  10.009   7.769  0.0274  0.6422 -0.0037
37446SOL     OW15929  10.685   9.891   1.385 -0.6548 -0.4088  0.6745
37446SOL    HW115930  10.635   9.963   1.347 -0.7549 -0.5225  0.5891
37446SOL    HW215931  10.711   9.922   1.471  3.4367  1.7435 -1.0415
37447SOL     OW15932   2.628  10.643   9.617  0.0129 -0.4546 -0.2207
37447SOL    HW115933   2.553  10.692   9.583 -0.3888 -0.4171  0.6908
37447SOL    HW215934   2.657  10.590   9.543 -3.3774 -3.4938  0.3727
37448SOL     OW15935   6.756   4.713   5.642  0.1157  0.0796 -0.3658
37448SOL    HW115936   6.704   4.669   5.575  1.2433 -0.3507 -0.9997
37448SOL    HW215937   6.693   4.740   5.708 -0.9094 -0.3399 -1.1442
37449SOL     OW15938   1.315   4.726   2.087 -0.3377 -0.3586 -0.4942
37449SOL    HW115939   1.273   4.810   2.064 -0.7274 -0.0466  1.1851
37449SOL    HW215940   1.243   4.671   2.117  0.0389 -0.9950 -0.7412
37450SOL     OW15941   0.029   4.214   7.256 -0.0741  0.4254  0.0428
37450SOL    HW115942   0.051   4.179   7.170 -0.9446 -1.3446  0.4939
37450SOL    HW215943   0.010   4.137   7.309  0.4290  1.4853  1.8302
37451SOL     OW15944   6.720   9.941   3.598  0.1433  0.4647 -0.7173
37451SOL    HW115945   6.698   9.914   3.509  0.3126 -0.7515 -0.4089
37451SOL    HW215946   6.780  10.015   3.587  0.1438  0.3363 -1.6095
37452SOL     OW15947   2.232   2.065   1.589  0.6228  0.1728  0.3632
37452SOL    HW115948   2.320   2.028   1.579  0.0622 -0.6761 -2.1397
37452SOL    HW215949   2.207   2.093   1.501 -1.7598  0.0540  0.9251
37453SOL     OW15950   9.300   8.792   6.081 -0.3712  0.2429  0.2548
37453SOL    HW115951   9.278   8.885   6.083 -0.4324  0.2306  0.1220
37453SOL    HW215952   9.217   8.748   6.060 -0.0688  0.2438 -0.9730
37454SOL     OW15953   3.687   8.070  10.964 -0.5104 -0.4819  0.1373
37454SOL    HW115954   3.706   8.038  11.052  0.9398 -0.2228 -0.0480
37454SOL    HW215955   3.732   8.007  10.906 -0.9589 -0.3225 -0.3924
37455SOL     OW15956   5.530   7.676   1.346  0.2083 -0.7833  0.3056
37455SOL    HW115957   5.446   7.685   1.299 -0.1570  1.3088  1.2236
37455SOL    HW215958   5.506   7.680   1.438  1.2394 -1.3019  0.6064
37456SOL     OW15959   7.478   9.855   4.565  0.5361  0.0992  0.2481
37456SOL    HW115960   7.423   9.842   4.488  1.5520  0.2113 -0.5167
37456SOL    HW215961   7.446   9.936   4.605 -0.7826 -0.5938  0.6444
37457SOL     OW15962   9.337   6.434   7.532 -0.0005  0.2260 -0.4290
37457SOL    HW115963   9.333   6.425   7.436  2.6955 -0.0884 -0.5961
37457SOL    HW215964   9.272   6.372   7.564  1.2410 -2.1049 -2.0738
37458SOL     OW15965   7.636   3.384   7.034  0.3457 -0.1669  0.1376
37458SOL    HW115966   7.729   3.365   7.027  0.6730  0.1686  2.5519
37458SOL    HW215967   7.612   3.351   7.121 -1.5799  0.5783 -0.0608
37459SOL     OW15968   9.852   7.283   2.349  0.4994  0.5200 -0.4252
37459SOL    HW115969   9.922   7.330   2.395 -0.2386  0.5269  0.7339
37459SOL    HW215970   9.851   7.196   2.389 -1.0828  0.9728  0.6067
37460SOL     OW15971   5.199   2.312   9.882  0.1683  0.0910 -0.3951
37460SOL    HW115972   5.132   2.296   9.949  2.0771 -0.6251  1.4666
37460SOL    HW215973   5.241   2.393   9.910  1.5194 -0.6468 -0.2227
37461SOL     OW15974   3.129   2.770   7.190 -0.2246 -0.1750 -0.1578
37461SOL    HW115975   3.219   2.759   7.223 -0.8569 -0.6163  1.5376
37461SOL    HW215976   3.139   2.780   7.096  1.6731  0.5417  0.0700
37462SOL     OW15977  10.710  10.153   2.700 -0.4807 -0.0533  0.5366
37462SOL    HW115978  10.629  10.195   2.728 -0.0879  1.4202 -0.4201
37462SOL    HW215979  10.778  10.195   2.753  0.0314  1.2989 -1.1132
37463SOL     OW15980   8.269   1.025   7.673 -0.2469  0.1621 -0.6091
37463SOL    HW115981   8.189   1.039   7.622  0.9196  0.7683 -2.3658
37463SOL    HW215982   8.283   1.109   7.718 -0.9413 -0.1715  0.2672
37464SOL     OW15983   0.106   2.225   5.907 -0.2731 -0.5931  0.0466
37464SOL    HW115984   0.179   2.267   5.953 -0.0397 -0.4420 -0.4597
37464SOL    HW215985   0.037   2.292   5.906 -0.0567 -0.3740 -0.3717
37465SOL     OW15986   9.280   4.282   2.399  0.4957  0.3239  0.3290
37465SOL    HW115987   9.295   4.374   2.422  4.1629 -0.6045  2.3268
37465SOL    HW215988   9.249   4.242   2.480  1.7991 -0.7354  0.3283
37466SOL     OW15989  10.430   1.182   8.897  0.3365 -0.8861 -0.2044
37466SOL    HW115990  10.404   1.197   8.988  0.1889  2.1419 -0.6264
37466SOL    HW215991  10.526   1.175   8.901  0.7069  2.5056  0.0020
37467SOL     OW15992   6.377   1.388   1.123 -0.1302  0.6978 -0.2403
37467SOL    HW115993   6.465   1.361   1.145 -0.6706 -1.5600 -0.5957
37467SOL    HW215994   6.337   1.412   1.206  0.7812  1.7216 -0.0771
37468SOL     OW15995  11.037   4.034   3.012  0.0983 -0.0404 -0.4538
37468SOL    HW115996  10.985   4.096   3.064  0.4952  0.7986 -1.0402
37468SOL    HW215997  10.999   4.037   2.925 -0.7163 -1.6275 -0.1859
37469SOL     OW15998   7.946   3.464  11.042 -0.4012  0.1597  0.1656
37469SOL    HW115999   7.899   3.388  11.006 -0.5863  0.2109  0.3022
37469SOL    HW216000   7.886   3.537  11.032 -0.6288  0.0896  0.9968
37470SOL     OW16001   3.489   1.189   5.292  0.0175  0.6990 -0.0313
37470SOL    HW116002   3.481   1.115   5.232  1.5624 -0.0361  0.6153
37470SOL    HW216003   3.468   1.266   5.239 -1.6446 -0.1730 -0.7145
37471SOL     OW16004   7.219   0.925   4.448  0.2920 -0.0613  0.5997
37471SOL    HW116005   7.248   1.012   4.475 -2.5704  1.6219 -1.1896
37471SOL    HW216006   7.261   0.912   4.363 -1.3898  0.9362 -0.4570
37472SOL     OW16007   5.587   8.842   1.153 -0.0638 -0.3874 -0.8003
37472SOL    HW116008   5.658   8.789   1.116  0.0874 -0.7206 -0.0514
37472SOL    HW216009   5.586   8.819   1.246 -0.8970 -0.0887 -0.7273
37473SOL     OW16010   4.880  10.439   9.892 -0.4652 -0.7811 -0.3250
37473SOL    HW116011   4.849  10.467   9.978  1.7642  1.0379 -0.0086
37473SOL    HW216012   4.835  10.498   9.831 -1.1008 -1.2366 -0.3031
37474SOL     OW16013   6.244  10.798   0.072 -0.0751 -0.1952  0.6122
37474SOL    HW116014   6.197  10.855   0.134  0.6321  0.7656  0.2871
37474SOL    HW216015   6.316  10.761   0.123 -0.8359 -1.2375  0.9637
37475SOL     OW16016   6.058   3.815   7.029  0.0408 -0.2886 -0.2807
37475SOL    HW116017   6.029   3.726   7.009  0.7945 -0.4199 -0.8194
37475SOL    HW216018   6.104   3.843   6.951 -1.2886  1.0693 -0.6249
37476SOL     OW16019   2.805  10.157   2.129 -0.2750 -0.6004 -0.0490
37476SOL    HW116020   2.760  10.084   2.171 -1.3466 -0.2622 -0.5867
37476SOL    HW216021   2.898  10.140   2.145 -0.4094 -2.7482 -1.2661
37477SOL     OW16022   0.887   4.854   5.106  0.2864  0.4293 -0.1611
37477SOL    HW116023   0.794   4.848   5.084  0.0011  0.6210  0.9292
37477SOL    HW216024   0.930   4.797   5.043 -0.3659  1.6156 -1.7743
37478SOL     OW16025   2.065   9.393   6.924 -0.3848  0.2040 -0.7714
37478SOL    HW116026   2.158   9.412   6.929 -0.2380 -0.6845  0.2846
37478SOL    HW216027   2.024   9.457   6.982 -0.5539  1.2166 -1.9745
37479SOL     OW16028   1.221   8.207   9.564  0.7029  0.1244  0.0783
37479SOL    HW116029   1.246   8.189   9.473  1.0344  0.0697  0.1799
37479SOL    HW216030   1.215   8.303   9.568 -2.5637  0.0688 -0.8644
37480SOL     OW16031   2.043   3.412   6.603  0.1390  0.3366  0.3016
37480SOL    HW116032   2.111   3.476   6.623  1.3341 -0.6237 -0.5709
37480SOL    HW216033   2.055   3.391   6.511 -1.0945 -0.1713  0.2319
37481SOL     OW16034   6.817   6.905   8.061 -0.4449 -0.1545 -0.0827
37481SOL    HW116035   6.800   6.896   7.968  0.1736 -1.4257 -0.0907
37481SOL    HW216036   6.884   6.974   8.067 -1.6752  1.1079 -0.4280
37482SOL     OW16037   1.773   4.379   8.301  0.1421 -0.2629  0.3953
37482SOL    HW116038   1.726   4.439   8.359  1.4293 -0.6770  1.9523
37482SOL    HW216039   1.865   4.405   8.308  0.7441 -2.3422  1.1188
37483SOL     OW16040   8.517   7.559   6.448  0.0563  0.4633 -0.2135
37483SOL    HW116041   8.589   7.505   6.481  1.6821  1.9015 -1.2464
37483SOL    HW216042   8.470   7.502   6.387 -0.7543 -1.0223  1.6978
37484SOL     OW16043   3.810   9.781   6.680  0.0819  0.0346 -0.2166
37484SOL    HW116044   3.772   9.860   6.719  0.9367 -0.4093  1.6723
37484SOL    HW216045   3.791   9.788   6.587 -3.6516  0.3708  0.3970
37485SOL     OW16046   9.652  10.942  10.615  0.2425 -0.2350  0.0812
37485SOL    HW116047   9.657  11.001  10.539 -0.0314  0.0542  0.2856
37485SOL    HW216048   9.722  10.972  10.673 -1.2585  1.3195  1.1819
37486SOL     OW16049   4.281   0.719   7.345  0.0347  0.4805 -0.0231
37486SOL    HW116050   4.370   0.749   7.363  0.6532 -1.0479 -0.4182
37486SOL    HW216051   4.292   0.635   7.301 -1.6066 -0.0581  0.5115
37487SOL     OW16052   8.299   5.940   6.039  0.2283  0.4035 -0.6480
37487SOL    HW116053   8.306   5.902   5.951  0.0320  1.9646 -1.3664
37487SOL    HW216054   8.206   5.964   6.047  0.0120 -0.6915  0.4291
37488SOL     OW16055   4.055  10.851   9.076 -0.4316 -0.4006 -0.0282
37488SOL    HW116056   4.090  10.818   8.994 -1.6870 -0.2736 -0.6480
37488SOL    HW216057   3.974  10.802   9.089 -0.6683  0.1575  0.7015
37489SOL     OW16058   5.726   0.832   8.658  0.3094 -0.0597  0.0677
37489SOL    HW116059   5.668   0.869   8.592 -0.8522  0.9828  1.6212
37489SOL    HW216060   5.807   0.812   8.610 -0.8459 -0.3450 -1.8660
37490SOL     OW16061   2.899   6.455   1.315 -0.4813  0.0879 -0.9141
37490SOL    HW116062   2.969   6.468   1.379 -0.9173  1.6052 -0.7115
37490SOL    HW216063   2.866   6.543   1.297 -2.0572 -0.5453 -1.3188
37491SOL     OW16064   4.383   6.987   5.493  0.0675 -0.0518 -0.1231
37491SOL    HW116065   4.475   6.963   5.494  0.0291 -0.2778  1.3029
37491SOL    HW216066   4.376   7.059   5.557 -0.8117 -0.3797  0.1739
37492SOL     OW16067   2.281   0.166   4.893 -0.1332  0.6286  0.0847
37492SOL    HW116068   2.341   0.091   4.899  0.8215  1.3845  0.2402
37492SOL    HW216069   2.200   0.135   4.935  0.1780 -0.3730 -0.0227
37493SOL     OW16070   9.784   8.799   9.899  0.2866 -0.0846  0.9760
37493SOL    HW116071   9.809   8.714   9.935  2.4577  0.1172  0.1286
37493SOL    HW216072   9.820   8.798   9.810  0.9837  1.9645  1.1965
37494SOL     OW16073   8.042  10.331   0.261  0.3404  0.4456  0.5113
37494SOL    HW116074   7.976  10.317   0.328  1.0445  1.0703  1.3565
37494SOL    HW216075   8.028  10.421   0.232 -2.9463 -1.0082 -3.5489
37495SOL     OW16076   4.734  10.807   9.066 -0.4018 -0.4522 -0.1696
37495SOL    HW116077   4.810  10.858   9.037  0.7221 -0.1764  2.8873
37495SOL    HW216078   4.664  10.872   9.073  0.0857  0.0295  0.3954
37496SOL     OW16079   5.371   4.072   9.800  0.4960  0.1639  0.4386
37496SOL    HW116080   5.278   4.091   9.789  0.8747  2.0789  0.1928
37496SOL    HW216081   5.391   4.099   9.890  1.4762  3.1095 -0.5410
37497SOL     OW16082   5.023  10.358   5.683 -1.1140 -0.4880 -0.2134
37497SOL    HW116083   5.054  10.325   5.598 -2.7084 -2.6759 -0.0460
37497SOL    HW216084   4.995  10.448   5.665 -0.9445 -0.7407 -1.9031
37498SOL     OW16085  10.403   2.640   2.973 -0.4558  0.4192 -0.2374
37498SOL    HW116086  10.324   2.620   3.024 -0.0322 -1.8614 -0.3996
37498SOL    HW216087  10.386   2.728   2.937 -2.4030  0.4751  0.6744
37499SOL     OW16088   5.992   0.239   0.391  0.0494 -0.1153 -0.0138
37499SOL    HW116089   5.923   0.192   0.343 -0.0401  0.4919 -0.5019
37499SOL    HW216090   5.963   0.237   0.482 -0.9234  0.6155 -0.2779
37500SOL     OW16091   2.961   1.036   4.300 -0.0447 -0.7586 -0.4551
37500SOL    HW116092   2.931   1.117   4.342 -0.8805 -0.4448 -1.6040
37500SOL    HW216093   3.032   1.064   4.243 -0.3370 -0.8362 -0.8558
37501SOL     OW16094   7.922   4.317   1.844 -0.3215  0.0211  0.1366
37501SOL    HW116095   7.949   4.237   1.890  1.4134 -0.2540 -1.2312
37501SOL    HW216096   7.843   4.292   1.796 -0.3364 -0.5960  0.4689
37502SOL     OW16097   6.615   7.578   2.536  0.3192  0.7205  0.1752
37502SOL    HW116098   6.644   7.596   2.625  0.7914 -0.7518  0.3539
37502SOL    HW216099   6.695   7.551   2.490  0.0666  1.3907 -0.6845
37503SOL     OW16100   0.977   0.034   5.860 -0.4115 -0.1739  0.8453
37503SOL    HW116101   1.050   0.020   5.799 -0.2996  0.1750  0.9006
37503SOL    HW216102   0.937   0.115   5.831  1.1456  1.3521  2.7023
37504SOL     OW16103  10.530   3.606   3.696  0.2428  0.0190  0.4269
37504SOL    HW116104  10.538   3.569   3.607  0.1587 -0.7875  0.7457
37504SOL    HW216105  10.621   3.612   3.727  0.5278  2.6568 -0.6118
37505SOL     OW16106   0.882   0.043   8.218  0.0417 -0.3555 -0.2214
37505SOL    HW116107   0.788   0.045   8.197  0.3152  1.1104 -1.4836
37505SOL    HW216108   0.887  -0.004   8.302 -1.4608 -3.5949 -1.7721
37506SOL     OW16109   3.195   1.782   8.676 -0.2579 -0.4945 -0.5547
37506SOL    HW116110   3.210   1.876   8.674 -0.6625 -0.1866  3.0506
37506SOL    HW216111   3.104   1.770   8.648 -0.3103  0.2137 -0.6853
37507SOL     OW16112   7.476   0.738  11.051 -0.3442 -0.0854 -0.7749
37507SOL    HW116113   7.507   0.818  11.094 -0.9480  0.1201 -0.7097
37507SOL    HW216114   7.382   0.738  11.067 -0.5310 -0.1786 -1.8120
37508SOL     OW16115   6.868   3.759   1.424  0.2440 -0.3702  0.0661
37508SOL    HW116116   6.893   3.714   1.343 -0.1560  0.6754 -0.6609
37508SOL    HW216117   6.819   3.694   1.473  3.1680 -2.0989  0.9732
37509SOL     OW16118   1.842   8.309   3.388 -0.1997  0.2280  0.2089
37509SOL    HW116119   1.761   8.360   3.395 -2.5780 -2.8471 -1.9708
37509SOL    HW216120   1.829   8.236   3.449  1.3081  0.0626  0.3650
37510SOL     OW16121   1.420   8.126   9.713 -0.7728  0.0921  0.5555
37510SOL    HW116122   1.457   8.056   9.660 -1.6471 -1.8773  2.4135
37510SOL    HW216123   1.347   8.159   9.661 -1.7444 -1.9436  0.5203
37511SOL     OW16124   9.872   9.699   6.925  0.5619 -0.2190  0.8103
37511SOL    HW116125   9.900   9.611   6.900  2.8218  0.4658  0.6741
37511SOL    HW216126   9.925   9.721   7.002  1.4031  1.6502 -0.2105
37512SOL     OW16127  10.470  10.158   6.425  0.0402 -0.0364  0.5053
37512SOL    HW116128  10.501  10.243   6.393 -0.7058 -0.2316 -0.8183
37512SOL    HW216129  10.391  10.179   6.474 -0.7642 -0.0424 -0.7471
37513SOL     OW16130   7.619   2.293   4.570  0.1068 -0.1455  0.8247
37513SOL    HW116131   7.540   2.341   4.550  0.1021 -0.1200  0.9065
37513SOL    HW216132   7.663   2.282   4.486 -1.1830 -2.3029  0.3417
37514SOL     OW16133   3.613   6.846   3.542 -0.8481 -0.1447  0.2865
37514SOL    HW116134   3.655   6.797   3.472  0.7009 -0.0272  1.0816
37514SOL    HW216135   3.648   6.935   3.534 -0.9551 -0.0333  0.9581
37515SOL     OW16136   1.286   7.337   4.283  0.0289  0.1751  0.4413
37515SOL    HW116137   1.253   7.248   4.292 -0.8817  0.5009  0.3609
37515SOL    HW216138   1.378   7.326   4.259 -0.6601 -0.7995 -2.0646
37516SOL     OW16139  11.014   9.751   9.953 -0.3988  0.2752  0.0730
37516SOL    HW116140  10.977   9.687   9.893 -0.3634 -0.0941  0.4406
37516SOL    HW216141  10.947   9.818   9.961 -1.0984 -0.5085  0.9209
37517SOL     OW16142   2.596   0.003   9.420  0.3874  0.0674 -0.2979
37517SOL    HW116143   2.522   0.041   9.466  1.2764  0.1793  1.0896
37517SOL    HW216144   2.594   0.044   9.333 -0.4035  1.0575  0.1709
37518SOL     OW16145   6.874   4.145   0.462  0.4318 -0.1271  0.1972
37518SOL    HW116146   6.872   4.100   0.377  1.2677  0.3812 -0.1077
37518SOL    HW216147   6.832   4.085   0.522 -0.1202 -0.5275 -0.5686
37519SOL     OW16148   0.133   9.660   7.571 -0.1125  0.1411  0.8787
37519SOL    HW116149   0.187   9.721   7.621  0.8929  0.2497 -0.3159
37519SOL    HW216150   0.175   9.575   7.584  1.2868  0.4425 -1.2399
37520SOL     OW16151   3.052  11.064   5.121  0.0791 -0.6704  0.0109
37520SOL    HW116152   3.146  11.082   5.120  0.2105 -1.3118 -1.3011
37520SOL    HW216153   3.015  11.133   5.176  1.1432  0.4987 -0.6850
37521SOL     OW16154   1.709   0.353   6.623 -0.5697  0.7089  0.0431
37521SOL    HW116155   1.782   0.411   6.600  0.3543 -0.7361 -0.8483
37521SOL    HW216156   1.729   0.324   6.712 -0.1634  0.5102 -0.1068
37522SOL     OW16157   7.556  10.324   9.946  0.1319  0.6090 -0.2298
37522SOL    HW116158   7.539  10.289   9.858 -0.8500 -1.1522  0.5996
37522SOL    HW216159   7.626  10.269   9.981  1.6054  2.2795 -0.4163
37523SOL     OW16160   3.208   1.393   1.598 -0.3630  0.0218  0.7543
37523SOL    HW116161   3.236   1.485   1.602  0.7004 -0.1896 -0.9505
37523SOL    HW216162   3.232   1.357   1.683  0.5203  0.9755  0.9259
37524SOL     OW16163   2.389   6.667   2.104  0.0700 -0.2653 -0.3465
37524SOL    HW116164   2.400   6.670   2.199  1.1477 -1.1015 -0.4276
37524SOL    HW216165   2.453   6.603   2.074 -2.1336 -2.1108 -1.3835
37525SOL     OW16166  11.097   9.007  10.766  0.3314  0.1687 -0.0115
37525SOL    HW116167  11.011   8.996  10.725 -0.3008  3.9662 -0.0426
37525SOL    HW216168  11.138   9.079  10.718  2.5176  0.1134  1.6043
37526SOL     OW16169   2.892   1.777   7.805 -0.0581 -0.2699  0.2093
37526SOL    HW116170   2.978   1.810   7.778 -0.4080  0.8677  0.4358
37526SOL    HW216171   2.831   1.845   7.779 -0.6038  0.1416  2.3464
37527SOL     OW16172   0.900   4.270   7.481 -0.2482  0.1507  0.0114
37527SOL    HW116173   0.835   4.292   7.548 -0.7352 -0.8350 -0.1197
37527SOL    HW216174   0.849   4.235   7.409  0.3263  0.6582 -0.6624
37528SOL     OW16175  10.414   8.485   2.114 -0.0287  0.1748  0.1010
37528SOL    HW116176  10.487   8.536   2.079  1.4959 -2.2622 -0.5193
37528SOL    HW216177  10.442   8.459   2.201 -0.7083  0.2093  0.3400
37529SOL     OW16178   6.503   8.337   9.560 -0.8598  0.5803  0.1562
37529SOL    HW116179   6.532   8.258   9.513  1.3300  2.2601 -1.5243
37529SOL    HW216180   6.414   8.316   9.589 -0.4708 -2.3749 -0.4691
37530SOL     OW16181   9.035  10.880   9.968 -0.0210  0.1849 -0.1307
37530SOL    HW116182   9.001  10.795   9.940 -1.6874  1.0142 -0.7501
37530SOL    HW216183   9.067  10.865  10.057 -1.2418 -0.8569  0.1630
37531SOL     OW16184   1.239   9.359   5.734  0.2091 -0.0071  0.2239
37531SOL    HW116185   1.333   9.365   5.748  0.3607  1.3652 -1.1822
37531SOL    HW216186   1.201   9.379   5.820  1.1687 -0.5162  0.7940
37532SOL     OW16187   6.553   6.305   9.014  0.0418  0.3023 -0.5121
37532SOL    HW116188   6.596   6.252   8.947  0.5021  0.0509 -0.0323
37532SOL    HW216189   6.565   6.395   8.985  0.9119  0.2351 -0.3843
37533SOL     OW16190   4.140   6.562   0.236 -0.1150 -0.1867  0.1267
37533SOL    HW116191   4.184   6.647   0.231  2.0448 -1.3019 -1.1163
37533SOL    HW216192   4.171   6.524   0.318  0.5096 -0.5876 -0.2917
37534SOL     OW16193   1.937   6.010   7.736 -0.3795  0.7539  0.4031
37534SOL    HW116194   1.902   6.099   7.742 -0.5924  0.6201  1.3687
37534SOL    HW216195   1.985   5.998   7.819  0.6839  0.4007 -0.2478
37535SOL     OW16196   9.799  10.596   3.054 -0.3591  0.1926  0.9299
37535SOL    HW116197   9.738  10.666   3.033  0.2308  0.3922 -0.2184
37535SOL    HW216198   9.879  10.642   3.081  0.3566  0.0151 -0.7771
37536SOL     OW16199   2.974   3.359   6.316  0.2985  0.3660  0.0578
37536SOL    HW116200   2.883   3.376   6.292 -0.8225 -0.6397  3.2106
37536SOL    HW216201   3.010   3.446   6.336 -0.4860  0.6055  0.4538
37537SOL     OW16202   9.698   0.274   1.549 -0.3570 -0.0589  0.1873
37537SOL    HW116203   9.754   0.239   1.618  0.6171 -0.7549 -0.9236
37537SOL    HW216204   9.737   0.242   1.467 -1.3069  0.9731 -0.7088
37538SOL     OW16205   8.771   5.451   6.971  0.2034 -0.1078 -0.0484
37538SOL    HW116206   8.695   5.492   6.929 -1.1441  2.4726  4.2016
37538SOL    HW216207   8.734   5.380   7.023  1.1841 -0.6960 -0.1292
37539SOL     OW16208   1.711  10.892   4.665  0.2439  0.3000  0.7193
37539SOL    HW116209   1.710  10.838   4.744  0.3164  0.2182  0.6642
37539SOL    HW216210   1.756  10.838   4.600  0.5268  0.5169  0.7312
37540SOL     OW16211   7.819   7.010   9.627 -0.0696 -0.1725  0.4464
37540SOL    HW116212   7.724   7.008   9.640 -0.5012  0.9669 -1.9215
37540SOL    HW216213   7.833   6.953   9.551  1.0016  0.5701  0.0708
37541SOL     OW16214   0.022   8.775   9.994 -0.8272 -0.3570  0.0453
37541SOL    HW116215  -0.025   8.723  10.059 -3.0477 -1.3300 -2.1623
37541SOL    HW216216  -0.041   8.842   9.967  0.8318  1.4486  0.4296
37542SOL     OW16217   8.706   6.576   2.410 -0.4175  0.1240  0.4539
37542SOL    HW116218   8.619   6.560   2.374  0.0560 -0.9195 -0.2851
37542SOL    HW216219   8.762   6.511   2.368  0.8058  1.0403  0.5914
37543SOL     OW16220   5.415   9.329   2.721 -0.1886 -0.3050 -0.4037
37543SOL    HW116221   5.436   9.408   2.670  0.9990  0.6816  1.5085
37543SOL    HW216222   5.496   9.278   2.721  0.5225  0.6694  2.0548
37544SOL     OW16223   7.579   5.536  10.524 -0.2053  0.4637 -0.2938
37544SOL    HW116224   7.493   5.551  10.484  0.0915 -0.5136 -1.3490
37544SOL    HW216225   7.578   5.590  10.603 -2.3358 -0.6093  0.5073
37545SOL     OW16226   2.063   2.839   5.641  0.4406  0.0134 -0.5589
37545SOL    HW116227   2.146   2.865   5.601  0.4457  1.0594  0.1092
37545SOL    HW216228   2.007   2.815   5.567  1.0357  0.2011 -1.0745
37546SOL     OW16229  10.849   3.418  10.566 -0.2203  0.1623  0.2238
37546SOL    HW116230  10.756   3.431  10.551 -0.2433 -0.1342  0.0872
37546SOL    HW216231  10.853   3.343  10.626 -0.0537 -0.3213 -0.3760
37547SOL     OW16232   7.980  10.534   3.332 -0.1763  0.1081 -0.4730
37547SOL    HW116233   8.072  10.510   3.325  0.0367  1.1785 -1.7749
37547SOL    HW216234   7.974  10.581   3.416 -0.0776 -2.0094  0.7997
37548SOL     OW16235   2.757   3.804   5.379 -0.8332 -0.6600 -0.1067
37548SOL    HW116236   2.817   3.734   5.404 -0.3061  0.6021  2.5191
37548SOL    HW216237   2.691   3.804   5.448 -1.1909  0.9925 -0.4190
37549SOL     OW16238   5.495   7.132   3.765  0.2142 -0.3571  0.0764
37549SOL    HW116239   5.477   7.040   3.785  0.1245 -0.5147 -0.6678
37549SOL    HW216240   5.435   7.181   3.820 -1.2216 -0.8196 -1.0032
37550SOL     OW16241   8.302   4.911   7.344  0.0774 -0.3754 -0.2353
37550SOL    HW116242   8.388   4.909   7.303  0.8166 -1.4378  1.2642
37550SOL    HW216243   8.240   4.905   7.270  1.3074 -0.8745 -1.2661
37551SOL     OW16244   9.926   5.943   9.163 -0.0502  0.6382 -0.5239
37551SOL    HW116245   9.942   5.885   9.088  1.9655  0.3149  0.1075
37551SOL    HW216246   9.892   6.024   9.124  0.1774  0.1844 -1.7092
37552SOL     OW16247   0.530   8.136   8.115 -0.7347 -0.4028 -0.0504
37552SOL    HW116248   0.472   8.062   8.095 -0.7711 -0.4705  0.2887
37552SOL    HW216249   0.590   8.102   8.181  0.4959 -0.6981 -1.2923
37553SOL     OW16250  10.936   8.408   8.572  0.2770 -0.2782 -0.5796
37553SOL    HW116251  11.030   8.395   8.581  0.3000 -0.2592 -0.7855
37553SOL    HW216252  10.910   8.455   8.651  0.8622  1.9302 -1.6082
37554SOL     OW16253   2.580   6.442   7.736 -0.1298 -0.0777 -0.3071
37554SOL    HW116254   2.580   6.535   7.759 -1.4050 -0.1221 -0.0535
37554SOL    HW216255   2.668   6.425   7.701 -0.1915  1.4397 -1.2611
37555SOL     OW16256   3.899   6.354   1.520 -0.1430 -0.7285  0.3486
37555SOL    HW116257   3.885   6.260   1.511 -2.1473 -0.4072 -0.4134
37555SOL    HW216258   3.815   6.388   1.551  0.7614  0.7402  1.3071
37556SOL     OW16259  10.978   5.966   3.667 -0.0940 -0.3451  0.0985
37556SOL    HW116260  10.958   6.056   3.642  0.1026 -0.2310  0.3428
37556SOL    HW216261  10.929   5.912   3.605 -0.3414 -0.0706  0.0529
37557SOL     OW16262   4.599   6.480   4.191 -0.4344 -0.4878 -0.1524
37557SOL    HW116263   4.658   6.488   4.266 -0.2862 -0.9890 -0.2094
37557SOL    HW216264   4.657   6.479   4.115 -0.4741 -1.3491 -0.1870
37558SOL     OW16265   6.237   6.581   6.467 -0.2661 -0.1912 -0.2607
37558SOL    HW116266   6.283   6.512   6.419  1.2868 -0.2340  1.2324
37558SOL    HW216267   6.194   6.535   6.540  0.5826  0.3607  0.6065
37559SOL     OW16268   3.654   5.022   9.817  0.1639 -0.4347 -0.1760
37559SOL    HW116269   3.701   4.953   9.770  2.3805  0.5007  0.5588
37559SOL    HW216270   3.638   5.089   9.750 -0.9724 -1.1162 -0.6237
37560SOL     OW16271   4.646   9.501   3.335 -0.2428  0.3834 -0.4582
37560SOL    HW116272   4.631   9.539   3.249 -1.7976 -1.5698 -1.1265
37560SOL    HW216273   4.612   9.566   3.396  1.4033  2.0409 -1.2219
37561SOL     OW16274  10.027   1.071   7.317 -0.3690  0.0571  0.2509
37561SOL    HW116275  10.077   1.118   7.250 -0.5478  0.0796  0.1339
37561SOL    HW216276   9.989   0.996   7.271 -0.6791  0.1978  0.2757
37562SOL     OW16277   8.558  10.610   3.182  0.3118 -0.3243  0.1117
37562SOL    HW116278   8.476  10.642   3.219  1.3691  1.1169  1.3779
37562SOL    HW216279   8.568  10.659   3.100 -0.1223 -0.5511 -0.0773
37563SOL     OW16280   2.692   4.390   3.071  0.7756 -0.4068  0.4027
37563SOL    HW116281   2.734   4.314   3.111  1.4343 -0.7055 -0.8084
37563SOL    HW216282   2.722   4.465   3.123  0.1007 -0.9607  1.6212
37564SOL     OW16283   0.415  10.934   9.938 -0.0385  0.3968 -0.2114
37564SOL    HW116284   0.352  10.870   9.970 -1.1549  1.3164 -0.5377
37564SOL    HW216285   0.421  10.916   9.844  1.6429 -0.9070  0.0804
37565SOL     OW16286   9.176   0.882  10.933  0.1341  0.3939 -0.2735
37565SOL    HW116287   9.238   0.872  11.005  0.3959 -1.9206 -0.7289
37565SOL    HW216288   9.096   0.914  10.974  0.3919 -0.5282  1.0037
37566SOL     OW16289   1.374   1.588   0.555  0.4184  0.1084 -0.5014
37566SOL    HW116290   1.419   1.599   0.471  0.1947  1.1904 -0.4962
37566SOL    HW216291   1.341   1.675   0.576 -0.2617 -0.3265  0.3009
37567SOL     OW16292   1.302   0.907   2.595 -0.4563 -0.0680  0.1460
37567SOL    HW116293   1.330   0.865   2.676  0.6086 -0.6471 -0.4994
37567SOL    HW216294   1.259   0.838   2.545  0.6843 -0.2630 -0.6194
37568SOL     OW16295   5.434   5.470   3.931 -0.3869  0.1311  0.0429
37568SOL    HW116296   5.434   5.535   4.001 -1.0107 -0.2476  0.4087
37568SOL    HW216297   5.349   5.426   3.940 -0.3464 -0.1274 -0.7588
37569SOL     OW16298   4.268   8.117   1.225  0.3012  0.2215  0.3253
37569SOL    HW116299   4.240   8.205   1.252 -0.3551  0.6490 -1.5865
37569SOL    HW216300   4.363   8.125   1.214  0.8281 -0.3362  3.6184
37570SOL     OW16301   5.403   6.924   9.074 -0.2823 -0.1769 -0.0064
37570SOL    HW116302   5.482   6.962   9.112 -0.6205  0.8797 -0.3283
37570SOL    HW216303   5.336   6.991   9.087 -1.1761 -1.1271  0.4162
37571SOL     OW16304   0.056   7.526   7.759 -0.4671  0.3986  0.1724
37571SOL    HW116305  -0.006   7.551   7.828 -1.0239 -0.3747 -0.0386
37571SOL    HW216306   0.138   7.568   7.785 -0.6543  0.0817  1.3507
37572SOL     OW16307   5.350   0.607   8.789 -0.0886 -0.1558  0.3188
37572SOL    HW116308   5.432   0.628   8.833  0.1463  1.9451 -0.9994
37572SOL    HW216309   5.377   0.568   8.706 -0.4642 -0.6440  0.4222
37573SOL     OW16310   6.856   6.928   3.797  0.4417  0.5793  0.6781
37573SOL    HW116311   6.885   6.892   3.880  2.5083  0.5731  0.0020
37573SOL    HW216312   6.807   7.007   3.821 -1.1472 -0.7365  1.9804
37574SOL     OW16313   6.636   6.035   7.298 -0.0501  0.3670  0.0404
37574SOL    HW116314   6.658   6.063   7.209 -0.6929  0.9497  0.0587
37574SOL    HW216315   6.692   5.959   7.314  0.5731  0.6825 -0.6026
37575SOL     OW16316   2.105   1.815  10.902  0.4114  0.2510 -0.1487
37575SOL    HW116317   2.126   1.806  10.995  1.5001 -0.2185 -0.4208
37575SOL    HW216318   2.019   1.773  10.892 -0.8391  2.3613  1.0388
37576SOL     OW16319   3.261   3.560   8.864  0.1739  0.7343  0.1668
37576SOL    HW116320   3.223   3.474   8.881  1.4906 -0.0185 -0.5574
37576SOL    HW216321   3.251   3.608   8.946  0.2142 -0.4311  0.8647
37577SOL     OW16322   1.138   0.232  10.521  0.5835 -0.1421 -0.1899
37577SOL    HW116323   1.070   0.186  10.569  0.0157  1.0871  0.2161
37577SOL    HW216324   1.199   0.263  10.589  0.4629  0.4839 -0.3538
37578SOL     OW16325   1.685   7.051  10.762 -0.0094  0.2872  0.3794
37578SOL    HW116326   1.740   6.979  10.791 -0.0763 -0.1588 -0.5718
37578SOL    HW216327   1.605   7.009  10.730  0.4017  0.6685 -1.2508
37579SOL     OW16328   2.073   2.047   6.325  0.0113  0.6499 -0.6205
37579SOL    HW116329   2.005   1.984   6.302 -1.1215  1.8674 -0.7030
37579SOL    HW216330   2.101   2.022   6.413 -1.3133  0.7675 -0.1480
37580SOL     OW16331   2.315   3.468   6.008  0.7399 -0.1075 -0.6195
37580SOL    HW116332   2.346   3.405   5.943 -1.2557 -0.3494 -1.4252
37580SOL    HW216333   2.297   3.416   6.086  1.6713 -0.0667 -0.3662
37581SOL     OW16334   4.311  10.388   3.123  0.4618  0.6985 -0.1965
37581SOL    HW116335   4.249  10.322   3.155 -1.6553  1.8770 -1.6637
37581SOL    HW216336   4.318  10.371   3.029  2.8299  0.2961 -0.0093
37582SOL     OW16337   1.776  10.104   0.705 -0.0108 -0.0568  0.0671
37582SOL    HW116338   1.822  10.070   0.781  0.4182 -1.3849 -0.7457
37582SOL    HW216339   1.739  10.187   0.734 -0.4268 -0.8362  1.9145
37583SOL     OW16340   7.373   4.488   9.561  0.8919 -0.3616 -0.0315
37583SOL    HW116341   7.325   4.524   9.486  1.3238 -1.1271 -0.6953
37583SOL    HW216342   7.318   4.416   9.592 -0.4355  1.3645  1.8841
37584SOL     OW16343   5.592   0.612   6.423 -0.6340 -0.3429 -0.0123
37584SOL    HW116344   5.570   0.519   6.427  0.7788 -0.7301 -0.6306
37584SOL    HW216345   5.612   0.629   6.331  0.2114  0.2977  0.2725
37585SOL     OW16346   4.727   0.039   5.963  0.0135  0.1024 -0.3117
37585SOL    HW116347   4.648   0.074   6.005  0.6883  0.3738  0.7588
37585SOL    HW216348   4.794   0.043   6.031  0.7806 -0.7841 -0.9976
37586SOL     OW16349   7.860   9.126   4.935 -0.0562 -0.5752  0.4477
37586SOL    HW116350   7.826   9.188   4.999  0.6291  0.4114 -0.1127
37586SOL    HW216351   7.955   9.130   4.945 -0.0013 -1.7786  0.6054
37587SOL     OW16352   0.612   2.825   3.071 -0.2137 -0.3979 -0.0613
37587SOL    HW116353   0.632   2.764   3.142  0.9258 -0.1620 -0.1543
37587SOL    HW216354   0.686   2.886   3.070  0.3927 -1.0563 -2.1636
37588SOL     OW16355   2.462   5.746   5.333  0.5495  0.6814  0.0664
37588SOL    HW116356   2.368   5.762   5.327  0.5516  0.6699  0.0059
37588SOL    HW216357   2.484   5.700   5.252  0.2501 -1.0718  0.9360
37589SOL     OW16358   4.931   5.753   6.984 -0.7329 -0.2102  0.3443
37589SOL    HW116359   4.879   5.779   7.059  0.0367 -0.2491  0.9111
37589SOL    HW216360   4.971   5.670   7.011 -2.3841 -1.5310 -1.0468
37590SOL     OW16361   9.686   4.607   8.785 -0.8484  0.0606 -0.6952
37590SOL    HW116362   9.737   4.621   8.864  0.8569  0.8577 -1.8797
37590SOL    HW216363   9.599   4.581   8.817 -0.6888  1.8708  1.4441
37591SOL     OW16364   5.005  10.594   7.654 -0.3573  0.1665 -0.7777
37591SOL    HW116365   5.050  10.539   7.719 -0.8243 -0.5432 -1.0403
37591SOL    HW216366   5.067  10.663   7.634  0.0221  0.0667  0.0017
37592SOL     OW16367   3.042   8.893   4.177 -0.0318 -0.3098 -0.1836
37592SOL    HW116368   2.949   8.891   4.156 -0.1451 -0.0738  0.2798
37592SOL    HW216369   3.077   8.813   4.139 -0.3470 -0.1997 -0.7109
37593SOL     OW16370   5.844   1.517   3.482  0.2512 -0.1229 -0.2526
37593SOL    HW116371   5.794   1.567   3.417 -0.9336  0.8612  1.3233
37593SOL    HW216372   5.915   1.478   3.433 -1.4270 -0.6478 -2.4035
37594SOL     OW16373   1.799   6.223   7.372  0.3830 -0.0592 -0.1142
37594SOL    HW116374   1.735   6.176   7.426 -1.0061  0.0568 -1.6026
37594SOL    HW216375   1.794   6.314   7.402 -0.6876  0.0852 -0.6865
37595SOL     OW16376   5.416   7.875   4.476 -0.0989  0.9813  0.2248
37595SOL    HW116377   5.439   7.813   4.545  0.3661  0.8500 -0.0493
37595SOL    HW216378   5.322   7.859   4.461 -0.0366  0.5067  0.3171
37596SOL     OW16379   1.524  10.789   7.094  0.8683 -0.6748  0.1863
37596SOL    HW116380   1.516  10.824   7.182  0.7056  1.9868 -0.7900
37596SOL    HW216381   1.449  10.730   7.085  0.0562  0.1176  1.3706
37597SOL     OW16382   1.009   5.123   5.030 -0.0480 -0.0940  0.2199
37597SOL    HW116383   1.069   5.165   5.092 -0.1542 -0.6293  0.6842
37597SOL    HW216384   0.970   5.051   5.078 -0.4100 -0.2917 -0.3565
37598SOL     OW16385   0.328   7.956  10.274 -0.2964 -0.4959  0.1690
37598SOL    HW116386   0.361   7.921  10.192 -0.7267 -0.2194 -0.1241
37598SOL    HW216387   0.374   8.039  10.286 -0.3468 -0.4620  0.1294
37599SOL     OW16388   5.983   6.765   7.630  0.1773 -0.3734  0.8989
37599SOL    HW116389   5.931   6.812   7.696 -1.7934 -0.4792 -0.4851
37599SOL    HW216390   6.052   6.827   7.605 -0.1011  0.3231  1.8125
37600SOL     OW16391   6.222   6.295   3.365 -0.3340  0.7327 -0.0456
37600SOL    HW116392   6.245   6.203   3.348  0.2855  0.6696  1.0633
37600SOL    HW216393   6.229   6.337   3.279  2.5156  0.3889 -0.0698
37601SOL     OW16394   8.387   6.000   6.310 -0.3897 -0.2285 -0.1708
37601SOL    HW116395   8.342   5.973   6.230  0.4877  0.1589 -0.8121
37601SOL    HW216396   8.463   6.049   6.280 -0.8621  1.2534  0.9373
37602SOL     OW16397   9.295   8.629   4.697  0.0798  0.2304 -0.4480
37602SOL    HW116398   9.324   8.541   4.672 -0.0022  0.5983 -1.9251
37602SOL    HW216399   9.341   8.687   4.636 -1.9085  0.9975 -1.2964
37603SOL     OW16400   4.568  10.601   4.234  0.3548  0.9477  0.0332
37603SOL    HW116401   4.630  10.669   4.206  1.6620 -1.1813 -2.6642
37603SOL    HW216402   4.623  10.531   4.269 -0.1070 -1.6215 -3.7521
37604SOL     OW16403   2.958   6.767   7.694  0.0441 -0.1646 -0.6941
37604SOL    HW116404   2.870   6.773   7.732  0.8668  0.4212  1.2490
37604SOL    HW216405   2.988   6.858   7.690  1.2228 -0.4874  0.3468
37605SOL     OW16406   9.564   0.065   2.679  0.0848  0.0218 -0.8479
37605SOL    HW116407   9.536   0.152   2.710  0.1597 -0.1882 -0.1669
37605SOL    HW216408   9.483   0.024   2.648 -0.0164  0.1917 -0.8097
37606SOL     OW16409  11.106   4.660   8.295  0.8716  0.1402  0.2451
37606SOL    HW116410  11.072   4.621   8.375 -0.7625 -2.0676 -1.3855
37606SOL    HW216411  11.070   4.749   8.294  0.0174 -0.1743  1.4449
37607SOL     OW16412   3.467   1.592   8.790 -0.0957  0.4366  0.3815
37607SOL    HW116413   3.417   1.570   8.711  0.1170  0.1157  0.3355
37607SOL    HW216414   3.554   1.554   8.775  0.4064  1.6444  0.1321
37608SOL     OW16415   0.912  10.541   0.648  0.2507 -0.1652 -0.0806
37608SOL    HW116416   0.986  10.532   0.588 -0.6235 -1.6300 -1.0128
37608SOL    HW216417   0.883  10.632   0.637  1.0876  0.0446 -0.6839
37609SOL     OW16418   6.556   3.755   4.252  0.4718  0.4308  0.6014
37609SOL    HW116419   6.615   3.687   4.285  2.1728 -0.3664 -3.4542
37609SOL    HW216420   6.610   3.833   4.247  0.1942  0.5933  0.0567
37610SOL     OW16421   5.342   1.192   1.317  0.8476  0.3277  0.3097
37610SOL    HW116422   5.406   1.228   1.379  0.4674 -1.2110  1.6723
37610SOL    HW216423   5.262   1.240   1.336  0.6281 -0.4033  1.3443
37611SOL     OW16424   1.795   3.827   9.131  0.6644  0.0273  0.3411
37611SOL    HW116425   1.887   3.827   9.105  0.8656 -0.5399  0.9902
37611SOL    HW216426   1.790   3.892   9.201  0.7199 -0.3832  0.7386
37612SOL     OW16427   1.633   0.690   2.814 -0.6522  0.7161 -0.0706
37612SOL    HW116428   1.727   0.675   2.822 -0.4980  2.3108  2.1620
37612SOL    HW216429   1.595   0.603   2.809  0.9863  0.0534 -2.2293
37613SOL     OW16430   7.595   5.006   2.944 -0.2704 -0.2822  0.7165
37613SOL    HW116431   7.624   5.017   3.035  0.5426  0.3502  0.3915
37613SOL    HW216432   7.668   4.961   2.901  0.2717  1.3261 -0.1143
37614SOL     OW16433   4.140   6.765   7.607  0.3160  0.6801  0.2154
37614SOL    HW116434   4.170   6.769   7.698  2.8645  1.6842 -0.5791
37614SOL    HW216435   4.052   6.802   7.609  0.6312  1.4289  2.1849
37615SOL     OW16436   1.161  10.386   1.422 -0.4713 -0.1452 -0.3949
37615SOL    HW116437   1.250  10.370   1.453 -0.6094  0.0558  0.1161
37615SOL    HW216438   1.108  10.320   1.467 -0.8356  0.8426  0.6608
37616SOL     OW16439   0.663   5.398   2.216  0.2321 -0.3082 -0.2842
37616SOL    HW116440   0.736   5.394   2.277  0.1586 -2.0197 -0.2352
37616SOL    HW216441   0.614   5.317   2.233 -0.1241 -0.5365 -2.1923
37617SOL     OW16442   6.040   1.257   5.745  0.1528  0.0606 -0.5556
37617SOL    HW116443   6.044   1.274   5.651  3.4685  0.1404 -0.5225
37617SOL    HW216444   5.983   1.181   5.753  0.3154 -0.3604 -2.6980
37618SOL     OW16445   9.444   6.005   6.463 -0.0095  0.0645  0.6044
37618SOL    HW116446   9.481   6.034   6.380  0.1475 -2.5432 -0.3350
37618SOL    HW216447   9.365   6.057   6.474 -0.0631  0.4293 -1.2212
37619SOL     OW16448  10.247   3.641   5.153 -0.5934  0.1969 -0.4020
37619SOL    HW116449  10.294   3.596   5.083  0.6854  2.1847 -0.8981
37619SOL    HW216450  10.313   3.655   5.221 -1.7193 -1.3338  1.1013
37620SOL     OW16451   7.914   4.479   4.657  0.7347 -0.5456  0.2867
37620SOL    HW116452   7.989   4.497   4.715  0.7249 -1.1130  0.4862
37620SOL    HW216453   7.888   4.389   4.680  0.0159 -0.3649  0.1892
37621SOL     OW16454   9.637   4.096   0.333  0.0442 -0.4257 -0.3805
37621SOL    HW116455   9.589   4.039   0.393 -0.6232  0.6553  0.1312
37621SOL    HW216456   9.712   4.126   0.383  2.4326 -3.5392 -1.7233
37622SOL     OW16457   7.600   5.487   0.991  0.3057 -0.0598 -0.0679
37622SOL    HW116458   7.623   5.515   0.902  0.9862 -1.4617 -0.3744
37622SOL    HW216459   7.517   5.441   0.981 -0.3938  1.0895  0.2938
37623SOL     OW16460  10.549   4.648   8.809 -0.3778  0.2028 -0.3958
37623SOL    HW116461  10.568   4.629   8.900 -0.4846 -0.0247 -0.4206
37623SOL    HW216462  10.474   4.708   8.811 -2.0282 -1.7629 -0.3966
37624SOL     OW16463   0.591   6.268   5.598  0.1725  0.2054  0.2132
37624SOL    HW116464   0.530   6.230   5.534  0.9107 -2.5513  1.0180
37624SOL    HW216465   0.556   6.356   5.615 -1.4268  0.1107 -2.0953
37625SOL     OW16466   1.062   3.900   8.967  0.1811  0.0209 -0.5279
37625SOL    HW116467   1.138   3.856   8.929  0.6173 -1.7203  2.0911
37625SOL    HW216468   1.100   3.967   9.025 -0.3987  0.9180 -1.1522
37626SOL     OW16469   2.485   3.162   5.182 -0.9180 -0.0305 -0.4722
37626SOL    HW116470   2.462   3.255   5.186 -2.1522 -0.3617  1.5358
37626SOL    HW216471   2.420   3.124   5.124 -2.0656 -0.0124  0.7335
37627SOL     OW16472   4.580   8.242   4.287  0.2644 -0.0588 -0.1776
37627SOL    HW116473   4.622   8.298   4.221  1.2077 -0.4359  0.0782
37627SOL    HW216474   4.638   8.250   4.364 -1.2166  0.9902  0.8854
37628SOL     OW16475   9.414   2.244   0.017 -0.2538  0.2672  0.4235
37628SOL    HW116476   9.398   2.213  -0.072  0.6528 -2.2921  1.0588
37628SOL    HW216477   9.365   2.184   0.073  1.1082  0.3213  1.7367
37629SOL     OW16478   1.651   7.992   4.739 -0.1998  0.2665 -0.3685
37629SOL    HW116479   1.691   7.915   4.780  0.6478 -0.6109 -2.6683
37629SOL    HW216480   1.715   8.062   4.752  0.3558 -0.1632 -0.7439
37630SOL     OW16481   9.383   2.317   7.214 -0.1677  0.4173  0.3197
37630SOL    HW116482   9.465   2.290   7.255 -0.4497 -0.4078  0.3576
37630SOL    HW216483   9.327   2.346   7.286  0.5520  2.2991  0.1718
37631SOL     OW16484   1.755   5.581   0.316 -0.5289 -0.0356  0.7680
37631SOL    HW116485   1.795   5.518   0.376 -0.4588  0.9546  1.8001
37631SOL    HW216486   1.792   5.559   0.230 -0.0586 -1.0128  1.1994
37632SOL     OW16487   2.436   0.013   8.774 -0.5326 -0.3647  0.3538
37632SOL    HW116488   2.437  -0.008   8.868  0.1503 -2.1368 -0.0177
37632SOL    HW216489   2.369   0.082   8.767 -0.4081  0.0125  2.1660
37633SOL     OW16490   8.688   3.465   9.107 -0.1751  0.2496 -1.0130
37633SOL    HW116491   8.657   3.471   9.197  0.4239  1.6187 -0.8735
37633SOL    HW216492   8.656   3.381   9.076 -0.3197 -0.2821  0.5040
37634SOL     OW16493   2.387   9.082  10.368 -0.0588 -0.0333 -0.1619
37634SOL    HW116494   2.418   9.154  10.313  1.2217 -0.7329 -0.3908
37634SOL    HW216495   2.298   9.064  10.336  0.7914 -0.6998 -2.3343
37635SOL     OW16496  10.740   3.053   4.255  0.0849  0.2974  0.1752
37635SOL    HW116497  10.719   3.145   4.241 -1.0684 -0.1423 -1.2351
37635SOL    HW216498  10.714   3.036   4.346 -0.6821  1.1156  0.1241
37636SOL     OW16499   2.509   1.682   0.361 -0.2749  0.3185  0.1819
37636SOL    HW116500   2.459   1.762   0.375  0.1028  0.5324  0.3085
37636SOL    HW216501   2.480   1.650   0.275  0.5015  1.2710 -0.4540
37637SOL     OW16502   8.522   2.935   0.055 -0.3472  0.1131  0.2975
37637SOL    HW116503   8.585   2.867   0.080  0.7756  0.7860 -0.6028
37637SOL    HW216504   8.566   3.017   0.077 -2.0612  0.5738  2.2377
37638SOL     OW16505   5.600   1.051   3.417 -0.5501  0.0284 -0.3381
37638SOL    HW116506   5.654   1.115   3.370 -0.8986 -0.1932 -1.0507
37638SOL    HW216507   5.512   1.089   3.415 -0.2408  0.9939  1.8911
37639SOL     OW16508   5.269   0.946   0.702 -0.0525 -0.0032  0.6723
37639SOL    HW116509   5.190   0.988   0.667 -0.9256 -1.9065  0.2091
37639SOL    HW216510   5.268   0.858   0.663  1.8883 -0.3373  1.2879
37640SOL     OW16511   0.469   1.765   5.297  0.5662  0.1849 -0.6576
37640SOL    HW116512   0.491   1.857   5.283  1.2200  0.3241  1.0155
37640SOL    HW216513   0.554   1.721   5.303  0.2838 -0.2882 -0.0986
37641SOL     OW16514  11.110   8.413   2.890 -0.0429  0.6065 -0.3628
37641SOL    HW116515  11.190   8.363   2.908 -0.5671 -0.2546 -0.3893
37641SOL    HW216516  11.141   8.501   2.869  0.9451  0.0963 -1.0894
37642SOL     OW16517   2.904   1.251  10.611 -0.2461 -0.1241 -0.6681
37642SOL    HW116518   2.868   1.164  10.631  0.0675  0.3276  2.2448
37642SOL    HW216519   2.830   1.310  10.623  0.3882  0.3599  1.2191
37643SOL     OW16520   0.257   5.119   6.075 -0.1283  0.3960  0.1588
37643SOL    HW116521   0.290   5.204   6.105 -0.4479  0.6546 -0.2110
37643SOL    HW216522   0.325   5.086   6.017  1.0340 -0.6353  2.0048
37644SOL     OW16523   6.568  10.909   7.171  0.0539  0.1022 -0.0692
37644SOL    HW116524   6.554  10.847   7.243 -2.5146  0.4938 -0.1401
37644SOL    HW216525   6.602  10.988   7.214  1.1898 -0.5653  0.3095
37645SOL     OW16526   8.230   0.689   8.487 -0.5828 -0.4955  0.1021
37645SOL    HW116527   8.192   0.606   8.459 -0.7972 -0.9674  1.7421
37645SOL    HW216528   8.213   0.694   8.581  0.8059  0.6775  0.3313
37646SOL     OW16529   8.030   2.174   9.090 -0.8787  0.2786 -0.4743
37646SOL    HW116530   8.114   2.137   9.060 -0.6956  0.5627 -0.3170
37646SOL    HW216531   8.019   2.140   9.179 -1.1850 -0.1724 -0.6785
37647SOL     OW16532  10.926   0.346   9.621 -0.0362  0.0433  0.1898
37647SOL    HW116533  11.015   0.330   9.591 -0.2998 -0.1594 -0.4908
37647SOL    HW216534  10.871   0.297   9.561 -0.5952 -0.0846  0.7905
37648SOL     OW16535  10.510   1.112   6.459  0.3345 -0.2349  0.2676
37648SOL    HW116536  10.507   1.114   6.364 -1.4964  0.7442  0.2915
37648SOL    HW216537  10.585   1.166   6.483  1.0519 -0.8276 -0.6086
37649SOL     OW16538   7.430   4.099   3.199  0.2019  0.1732 -0.6489
37649SOL    HW116539   7.389   4.156   3.263 -0.9139  0.5681 -1.6749
37649SOL    HW216540   7.520   4.130   3.194  0.5680 -0.4270  1.3297
37650SOL     OW16541   5.911   7.445   1.074 -0.1266  0.0762  0.2362
37650SOL    HW116542   5.881   7.467   0.986 -0.0860 -0.2706  0.1329
37650SOL    HW216543   5.976   7.512   1.095  1.0845 -0.7759 -0.6558
37651SOL     OW16544   4.795   4.321   4.308 -0.0993 -0.4280 -0.3509
37651SOL    HW116545   4.724   4.303   4.370 -0.2777 -1.8385 -0.9143
37651SOL    HW216546   4.874   4.321   4.362 -0.4665  0.5694  0.1944
37652SOL     OW16547   3.478   5.189   9.582 -0.3170 -0.3860 -0.0426
37652SOL    HW116548   3.400   5.135   9.568 -0.6189 -0.3228  1.2608
37652SOL    HW216549   3.544   5.151   9.525 -1.1275 -0.8211 -0.7187
37653SOL     OW16550   0.730   7.685   7.244  0.3201 -0.0505  0.0089
37653SOL    HW116551   0.686   7.761   7.207  0.4197  0.2755  0.5476
37653SOL    HW216552   0.661   7.620   7.256  0.0259  0.3790  0.6477
37654SOL     OW16553   2.814   0.158  10.204 -0.2493  0.4242  0.7491
37654SOL    HW116554   2.741   0.119  10.157  2.0199 -0.8982 -2.0301
37654SOL    HW216555   2.833   0.096  10.274  0.1953 -0.9969 -0.5587
37655SOL     OW16556   6.468   0.088   7.114 -0.1459 -0.0163 -0.1291
37655SOL    HW116557   6.553   0.127   7.136  0.4990 -1.5079  0.1474
37655SOL    HW216558   6.448   0.032   7.189 -0.1564 -1.6090 -1.2703
37656SOL     OW16559   9.777   0.261   8.228 -0.2424  0.1313  0.5631
37656SOL    HW116560   9.791   0.335   8.288 -0.3990 -1.3327  2.5353
37656SOL    HW216561   9.695   0.280   8.184 -0.4681  0.9569  1.3133
37657SOL     OW16562   8.023   1.463   3.656  0.1293  0.1720 -0.4115
37657SOL    HW116563   7.986   1.540   3.700 -1.6689 -0.6572 -0.3973
37657SOL    HW216564   7.949   1.404   3.645  1.5200 -1.6779 -0.2356
37658SOL     OW16565   5.623   2.131   6.880  0.3693 -0.4220  0.0715
37658SOL    HW116566   5.663   2.158   6.797  0.2158 -1.9874 -0.5501
37658SOL    HW216567   5.544   2.084   6.854 -0.0924 -0.2550  1.1473
37659SOL     OW16568   3.827   8.408   6.358 -0.7472  0.3463  0.1943
37659SOL    HW116569   3.732   8.413   6.358 -0.6852  2.4165  0.9591
37659SOL    HW216570   3.856   8.498   6.377  1.3661 -0.0506 -0.8375
37660SOL     OW16571   4.681   7.697   3.175  0.2415 -0.0632 -0.2821
37660SOL    HW116572   4.627   7.752   3.232 -0.4513 -0.3397 -0.6578
37660SOL    HW216573   4.714   7.756   3.108  1.5882  0.3963  0.7494
37661SOL     OW16574  11.109  10.220   2.541 -0.4345 -0.3046 -0.0208
37661SOL    HW116575  11.188  10.269   2.521  1.0796 -2.1619  1.0446
37661SOL    HW216576  11.066  10.270   2.610 -0.0230  0.5301 -0.3508
37662SOL     OW16577   7.632   4.888   6.481 -0.3436 -0.2213 -0.2364
37662SOL    HW116578   7.596   4.881   6.393 -1.4619 -1.6083  0.2930
37662SOL    HW216579   7.703   4.952   6.473  0.7430 -1.5979 -2.5084
37663SOL     OW16580   0.736   9.641   0.496 -0.6070 -0.2989 -0.0499
37663SOL    HW116581   0.779   9.589   0.564 -1.7885 -2.8265 -1.0982
37663SOL    HW216582   0.664   9.685   0.542  0.1507  0.0890  0.7929
37664SOL     OW16583   1.708   2.881   6.752 -0.4296 -0.0512 -0.0170
37664SOL    HW116584   1.733   2.848   6.838 -0.7651  0.4745  0.2904
37664SOL    HW216585   1.678   2.804   6.704  2.9270 -0.9619 -0.8757
37665SOL     OW16586   3.262  10.772   6.086  0.5582  0.2009  0.2732
37665SOL    HW116587   3.198  10.734   6.024 -2.0660  1.4593  2.0060
37665SOL    HW216588   3.259  10.714   6.162  0.2124  1.1682  1.0126
37666SOL     OW16589   7.545   1.641   7.793  0.1809 -0.0057  0.2192
37666SOL    HW116590   7.613   1.639   7.726 -0.6011 -1.4802 -0.5820
37666SOL    HW216591   7.568   1.716   7.848  1.4813  0.5563 -1.0196
37667SOL     OW16592   5.755  10.680   2.319  0.4820 -0.1523 -0.1038
37667SOL    HW116593   5.788  10.606   2.371 -0.6619 -0.5739  0.0503
37667SOL    HW216594   5.772  10.655   2.228 -0.6897 -1.0276 -0.1044
37668SOL     OW16595   5.231   1.351   2.810  0.3550 -0.7180  0.5309
37668SOL    HW116596   5.187   1.316   2.732  1.9791 -0.8134 -0.3926
37668SOL    HW216597   5.248   1.274   2.864 -0.6970 -0.6638  0.9571
37669SOL     OW16598   6.613  10.680  10.134  0.1026 -0.4874 -0.0901
37669SOL    HW116599   6.524  10.678  10.170  0.4656  0.5673  0.9469
37669SOL    HW216600   6.633  10.588  10.116 -0.8590 -0.8436  0.5441
37670SOL     OW16601   1.393   6.872   4.540  0.3526 -0.0740 -0.3622
37670SOL    HW116602   1.353   6.815   4.474  1.3191 -2.9723  1.3829
37670SOL    HW216603   1.463   6.917   4.492 -0.2026 -0.6251 -1.7497
37671SOL     OW16604   3.297   1.302   7.700  0.0826 -0.4152 -0.4781
37671SOL    HW116605   3.289   1.355   7.780  0.2726  0.9867 -1.3488
37671SOL    HW216606   3.258   1.218   7.723 -1.4706  0.5293  0.5682
37672SOL     OW16607   4.590   7.471   1.942 -0.3351 -0.5141  0.0027
37672SOL    HW116608   4.661   7.474   1.879 -0.1240  0.3576  0.2766
37672SOL    HW216609   4.617   7.404   2.005  1.2445  1.2312  1.2701
37673SOL     OW16610   3.447   4.292   6.748  0.0199  0.3451 -0.0106
37673SOL    HW116611   3.455   4.263   6.838  0.0855 -0.0565 -0.1462
37673SOL    HW216612   3.460   4.387   6.752 -0.4763  0.3953  0.4661
37674SOL     OW16613   0.266   3.587  10.969  0.4419 -0.3618  0.1984
37674SOL    HW116614   0.296   3.594  11.060 -1.0047 -1.1811  0.7634
37674SOL    HW216615   0.276   3.495  10.947  1.7544 -0.0094 -0.8609
37675SOL     OW16616   0.485  10.681   3.277 -0.6485  0.2195  0.0911
37675SOL    HW116617   0.471  10.749   3.343  0.3391 -0.2995  0.8621
37675SOL    HW216618   0.568  10.642   3.301 -0.7615 -0.6480 -0.8940
37676SOL     OW16619   4.945   8.896   9.491 -0.1429 -0.1236 -0.2970
37676SOL    HW116620   4.855   8.921   9.514  0.2339  1.9949 -0.9313
37676SOL    HW216621   4.997   8.921   9.567  0.0765 -0.3213 -0.3803
37677SOL     OW16622   4.691   9.240   4.463  0.1200 -0.2776 -0.5692
37677SOL    HW116623   4.759   9.188   4.420 -1.9455 -2.9838 -0.8377
37677SOL    HW216624   4.663   9.302   4.397  1.8126  0.4032 -0.6803
37678SOL     OW16625   6.090   8.111   6.745  0.0535  0.3144 -0.3872
37678SOL    HW116626   6.002   8.111   6.784 -0.4475 -1.6261 -1.3809
37678SOL    HW216627   6.096   8.196   6.701 -1.6054  0.2319 -0.8601
37679SOL     OW16628   0.870   9.175   4.055 -0.2553 -0.1228  0.3760
37679SOL    HW116629   0.930   9.230   4.004 -0.5660 -0.5758 -0.4794
37679SOL    HW216630   0.799   9.234   4.080  0.9378  0.6505  2.1461
37680SOL     OW16631   2.536   2.211   4.408 -0.6722 -0.2421 -0.3449
37680SOL    HW116632   2.593   2.140   4.378  0.8107  1.0457 -0.7028
37680SOL    HW216633   2.547   2.212   4.503  0.7830  0.6466 -0.4828
37681SOL     OW16634   1.679   7.419   3.480 -0.2888 -0.0014 -0.0084
37681SOL    HW116635   1.630   7.501   3.481  0.2435  0.3259  1.4051
37681SOL    HW216636   1.762   7.441   3.438 -1.0254 -0.3999 -1.7802
37682SOL     OW16637   1.657   7.332   4.522 -0.2222 -0.0339  0.2987
37682SOL    HW116638   1.579   7.387   4.535 -0.5652 -0.5505  0.4318
37682SOL    HW216639   1.702   7.333   4.607 -0.2922 -0.0608  0.3359
37683SOL     OW16640   3.597   5.379  10.921  0.5787  0.6874  0.5733
37683SOL    HW116641   3.557   5.292  10.933  0.9840  0.2324 -1.0541
37683SOL    HW216642   3.618   5.408  11.010 -1.1488 -0.1028  1.3013
37684SOL     OW16643   0.402   9.526   2.537  0.2297 -0.2386  0.2646
37684SOL    HW116644   0.314   9.548   2.507  0.1673  0.5217  0.9649
37684SOL    HW216645   0.393   9.442   2.581  0.4053 -1.6200 -2.1920
37685SOL     OW16646   9.904   5.592   8.690 -0.2226 -0.0740 -0.5854
37685SOL    HW116647   9.892   5.660   8.756  0.2374  0.1785 -0.7534
37685SOL    HW216648   9.944   5.638   8.615 -2.0422 -0.0589 -1.5985
37686SOL     OW16649   9.965  11.056  11.045 -0.4942 -0.6872  0.0272
37686SOL    HW116650   9.908  11.049  11.121 -0.0782 -0.4499  0.3640
37686SOL    HW216651  10.016  11.135  11.060  0.8329 -1.5663  0.3531
37687SOL     OW16652   6.071   9.022  10.982 -0.3967 -0.9917  0.4975
37687SOL    HW116653   6.091   8.931  11.002 -2.6181 -1.8018 -0.5710
37687SOL    HW216654   5.975   9.027  10.987 -0.3005  2.0594  3.6212
37688SOL     OW16655   9.707   1.977   3.327  0.7933  0.4437  0.0695
37688SOL    HW116656   9.800   1.969   3.308  0.9462  2.4377 -0.2489
37688SOL    HW216657   9.666   1.990   3.241  0.5657  1.9740  0.3662
37689SOL     OW16658   3.806   8.822   9.725  0.5109  0.2878 -0.1809
37689SOL    HW116659   3.809   8.749   9.663 -0.6580 -0.0862  0.1946
37689SOL    HW216660   3.838   8.897   9.674  2.0557 -0.5203 -0.4765
37690SOL     OW16661  10.090   1.926   7.381 -0.0987  0.1333 -0.2133
37690SOL    HW116662  10.125   1.914   7.293 -0.3983 -1.4010 -0.1484
37690SOL    HW216663  10.006   1.970   7.368  0.2159  0.6248 -0.6214
37691SOL     OW16664   7.921   9.080   7.002 -0.7579 -0.1821  0.1153
37691SOL    HW116665   7.859   9.130   6.949 -0.5751  0.9551  0.9256
37691SOL    HW216666   8.002   9.077   6.950 -0.1748  2.0137  0.7962
37692SOL     OW16667   6.102   8.496   5.715  0.3843 -0.3133 -0.6016
37692SOL    HW116668   6.170   8.473   5.778 -0.3714 -0.4809  0.1697
37692SOL    HW216669   6.087   8.589   5.729  0.3791 -0.2978 -0.7100
37693SOL     OW16670   4.920  11.022   9.003  0.0790  0.5083  0.3641
37693SOL    HW116671   4.853  11.086   9.026  1.2391  1.0738  2.3302
37693SOL    HW216672   4.978  11.068   8.942 -1.5483 -0.1721 -1.8432
37694SOL     OW16673   3.636   1.246   1.396  0.4611  0.4266  0.0990
37694SOL    HW116674   3.575   1.232   1.468  1.3644 -0.5791  0.6928
37694SOL    HW216675   3.643   1.161   1.353 -0.4754  1.1166 -1.5528
37695SOL     OW16676   5.304   8.965   8.205 -0.8300 -0.2482  0.5495
37695SOL    HW116677   5.316   8.988   8.297  2.2875  0.2662  0.1254
37695SOL    HW216678   5.355   8.885   8.193 -0.3212  0.2521 -0.9052
37696SOL     OW16679   7.670  10.864   1.424  0.3315 -0.5252 -0.2279
37696SOL    HW116680   7.663  10.797   1.492  1.1633  0.3102  0.7196
37696SOL    HW216681   7.597  10.923   1.441 -0.8724 -1.5900 -1.5506
37697SOL     OW16682  10.056   1.775   8.665  0.8056  0.0421 -0.0636
37697SOL    HW116683  10.057   1.836   8.592  1.2258  0.7056  0.4903
37697SOL    HW216684  10.111   1.702   8.637 -0.6547 -0.6944 -1.2186
37698SOL     OW16685   1.988   1.228   9.752  0.0789 -0.2085 -0.1587
37698SOL    HW116686   1.902   1.228   9.794  0.2855  0.4253  0.2693
37698SOL    HW216687   1.982   1.293   9.682 -0.6981 -2.2039 -2.0642
37699SOL     OW16688   1.929   6.462   3.059 -0.1272 -0.1433 -0.3582
37699SOL    HW116689   1.935   6.490   2.968  1.1372 -0.8998 -0.5353
37699SOL    HW216690   1.996   6.512   3.105  0.9778 -1.5559 -0.3554
37700SOL     OW16691   6.649  10.007   4.601  0.0326 -0.5985  0.2215
37700SOL    HW116692   6.653   9.921   4.559 -1.8371 -0.8046  0.3534
37700SOL    HW216693   6.723  10.056   4.564 -0.3579 -1.4389 -1.7881
37701SOL     OW16694   5.842   9.461   7.611 -0.1669  0.6640  0.1835
37701SOL    HW116695   5.865   9.422   7.527  1.0235 -1.7553  1.5265
37701SOL    HW216696   5.908   9.528   7.625 -0.0721  0.7338 -0.5553
37702SOL     OW16697   9.816   4.978   4.208  0.7178  0.2374  0.2407
37702SOL    HW116698   9.900   4.950   4.244  0.7515  0.2331  0.1600
37702SOL    HW216699   9.831   4.986   4.114  0.4133 -0.5710  0.1135
37703SOL     OW16700   9.799   6.054   8.681 -0.4046  0.4342 -0.1912
37703SOL    HW116701   9.868   6.037   8.617 -0.2988 -2.5195  0.5929
37703SOL    HW216702   9.836   6.122   8.738  2.7212 -2.2546  1.2955
37704SOL     OW16703   1.841   0.583   6.534 -0.1241  0.4698  0.3340
37704SOL    HW116704   1.788   0.619   6.463 -0.1966 -0.5430 -0.1425
37704SOL    HW216705   1.881   0.660   6.575 -0.5909  1.1168 -0.3892
37705SOL     OW16706   6.666   4.000   8.757 -0.0011  0.1321  0.3455
37705SOL    HW116707   6.753   3.986   8.794 -0.2225 -0.0773  0.7972
37705SOL    HW216708   6.615   4.035   8.830 -0.6731 -1.0992  0.4987
37706SOL     OW16709   5.569   4.343   1.030  0.6428  0.2696 -0.4378
37706SOL    HW116710   5.562   4.420   0.974  1.1803  0.0949 -0.7430
37706SOL    HW216711   5.605   4.377   1.112  0.6948  0.3736 -0.5038
37707SOL     OW16712   9.087   5.983   0.337  0.2140  0.0575 -0.2408
37707SOL    HW116713   9.039   5.908   0.371 -0.4022  0.3428 -0.4556
37707SOL    HW216714   9.154   6.001   0.402  1.0093 -1.2929 -0.6721
37708SOL     OW16715   9.550   9.077   1.152 -0.4339  0.0231  0.1634
37708SOL    HW116716   9.622   9.091   1.090  0.2861  0.0826  1.0049
37708SOL    HW216717   9.559   8.985   1.178 -0.2195  0.2304  0.8226
37709SOL     OW16718   2.320   7.853   6.318 -0.5771  0.2932  0.0900
37709SOL    HW116719   2.297   7.914   6.248  0.3611  0.8132  0.2197
37709SOL    HW216720   2.395   7.894   6.363 -0.1601 -0.7719  0.4104
37710SOL     OW16721  10.314   2.001   8.984  0.4918 -0.1642  0.3329
37710SOL    HW116722  10.282   2.064   9.049 -0.5231 -0.4595  0.1490
37710SOL    HW216723  10.407   2.020   8.975  0.6214 -0.0245  1.7754
37711SOL     OW16724   4.586   4.055   8.226 -0.1605  0.3663  0.3416
37711SOL    HW116725   4.560   4.074   8.136 -0.6223 -0.1730  0.3597
37711SOL    HW216726   4.666   4.106   8.239  1.1141 -1.1677 -1.0680
37712SOL     OW16727   7.867   7.854   9.827  0.3917  0.1138  0.6918
37712SOL    HW116728   7.790   7.842   9.772  0.9187 -0.5244  0.0669
37712SOL    HW216729   7.882   7.948   9.829  0.2987  0.1525 -0.1787
37713SOL     OW16730  10.931   0.116   9.940 -0.4743 -0.0173 -0.4364
37713SOL    HW116731  10.845   0.136   9.903 -0.4950 -1.1400 -1.0646
37713SOL    HW216732  10.974   0.065   9.871 -0.5371 -2.2660  1.0777
37714SOL     OW16733   1.714   5.866   2.950 -0.2129 -0.1394  0.8358
37714SOL    HW116734   1.741   5.943   2.999 -0.8761  0.0942  0.8360
37714SOL    HW216735   1.620   5.877   2.937 -0.3542 -1.0482  1.0247
37715SOL     OW16736   9.902   3.494   8.767 -0.0483  0.9701  0.2320
37715SOL    HW116737   9.938   3.551   8.835  0.0851  1.3302 -0.1348
37715SOL    HW216738   9.965   3.500   8.695 -0.2442  0.6784  0.0367
37716SOL     OW16739   2.401   4.337   9.778 -0.2552 -0.2018 -0.8516
37716SOL    HW116740   2.333   4.404   9.771 -0.0161 -0.0530 -1.8978
37716SOL    HW216741   2.365   4.261   9.732  0.2476 -0.1385 -1.3702
37717SOL     OW16742   2.592   8.817   1.007 -0.1342 -0.1775 -0.4920
37717SOL    HW116743   2.581   8.876   1.081 -0.2342  1.7232 -1.9404
37717SOL    HW216744   2.634   8.870   0.940 -0.3497 -1.7257 -1.9364
37718SOL     OW16745   1.878   1.994   2.467 -0.1617  0.1689  0.0719
37718SOL    HW116746   1.797   1.955   2.500 -1.6440  3.5734  0.8847
37718SOL    HW216747   1.946   1.964   2.528 -0.9783 -1.7632  0.0952
37719SOL     OW16748  11.001   5.371   8.824 -0.2643 -0.0771 -0.6537
37719SOL    HW116749  10.912   5.396   8.800 -1.2072  0.3433  2.7361
37719SOL    HW216750  11.045   5.455   8.841 -0.0606 -0.3655  0.2727
37720SOL     OW16751   5.947   4.179   0.982 -0.4116  0.6871 -0.0690
37720SOL    HW116752   5.856   4.162   0.960  0.0671  0.1853 -1.8055
37720SOL    HW216753   5.959   4.138   1.068 -1.3855 -0.7238 -0.5674
37721SOL     OW16754   9.222   3.113  10.661  0.1399  0.1211  0.0694
37721SOL    HW116755   9.196   3.093  10.751 -1.5932  0.9714 -0.1988
37721SOL    HW216756   9.142   3.147  10.620  0.2679 -2.2112 -2.4118
37722SOL     OW16757   7.686   9.268   5.758 -0.2286  0.5539  0.6271
37722SOL    HW116758   7.664   9.216   5.836 -0.9897 -0.2458 -0.0953
37722SOL    HW216759   7.780   9.256   5.747 -0.4862 -1.2779  0.0920
37723SOL     OW16760   9.650   6.901   5.133 -0.4147  0.0851 -0.3696
37723SOL    HW116761   9.729   6.851   5.155 -0.1372  1.4772  2.2022
37723SOL    HW216762   9.578   6.840   5.147 -0.1836  0.4393  3.8520
37724SOL     OW16763   3.583   2.001   4.305  0.5565 -0.6125  0.2518
37724SOL    HW116764   3.653   2.064   4.318 -0.3011  0.2978  0.5579
37724SOL    HW216765   3.624   1.929   4.258  2.0741 -0.8313  1.8128
37725SOL     OW16766   9.431  11.095   5.013 -0.5217 -0.0738  0.4868
37725SOL    HW116767   9.492  11.033   4.974  1.0931  1.3712  0.6149
37725SOL    HW216768   9.417  11.062   5.102  1.0462  0.2188  0.8635
37726SOL     OW16769   5.949   9.350   8.137  0.1260  0.0459  0.3915
37726SOL    HW116770   5.982   9.315   8.219  1.3928  0.4096  0.0565
37726SOL    HW216771   5.963   9.444   8.144 -0.4854  0.1661  0.0684
37727SOL     OW16772   5.301   1.622   3.698 -0.0165  0.7392  0.0597
37727SOL    HW116773   5.267   1.589   3.614  1.0872 -0.0234 -0.1176
37727SOL    HW216774   5.224   1.630   3.754 -0.5376 -0.7040 -0.4010
37728SOL     OW16775   1.791   1.675  10.631 -0.2924  0.0276 -0.3849
37728SOL    HW116776   1.718   1.724  10.595  0.5231  1.8681  0.3357
37728SOL    HW216777   1.824   1.730  10.702  0.5873 -1.6551  0.5598
37729SOL     OW16778   7.472  10.671   8.422 -0.6421  0.6747 -0.1280
37729SOL    HW116779   7.537  10.622   8.471  0.5263  1.6456 -0.6683
37729SOL    HW216780   7.445  10.610   8.352 -1.7325 -0.4108  1.1798
37730SOL     OW16781   3.509   8.080   7.424  0.3349  0.6884 -0.4865
37730SOL    HW116782   3.454   8.158   7.431  1.5015  1.6545 -1.5927
37730SOL    HW216783   3.593   8.107   7.462  1.1566  0.4159 -2.0149
37731SOL     OW16784   6.406   8.094   3.196 -0.2991  0.0133 -0.0633
37731SOL    HW116785   6.347   8.082   3.121 -1.6174 -3.2573  1.3292
37731SOL    HW216786   6.422   8.006   3.230  2.8753  1.0638  1.6221
37732SOL     OW16787   1.754   9.696   4.932 -0.2161 -0.4532 -0.5044
37732SOL    HW116788   1.792   9.610   4.917  1.1435  0.0322  0.0036
37732SOL    HW216789   1.812   9.757   4.885 -0.6315  0.2670 -0.1032
37733SOL     OW16790   2.557   2.075   2.838  0.0275  0.3786  0.1253
37733SOL    HW116791   2.566   1.985   2.808 -4.6178  0.2939 -1.7699
37733SOL    HW216792   2.539   2.067   2.932 -2.8206 -1.0697 -0.4224
37734SOL     OW16793   1.165   9.700   1.732 -0.1027 -0.3863  0.4336
37734SOL    HW116794   1.216   9.651   1.668 -0.7369 -0.1517 -0.2723
37734SOL    HW216795   1.219   9.776   1.754 -0.5650  0.4363 -1.1185
37735SOL     OW16796   7.992   0.568  10.030  0.5461  0.6597 -0.1801
37735SOL    HW116797   7.943   0.551  10.111 -0.3232  0.3824 -0.7526
37735SOL    HW216798   8.084   0.554  10.054  0.2146 -0.4278  0.5071
37736SOL     OW16799   7.762   1.145   0.291  0.2743  0.4364  0.2856
37736SOL    HW116800   7.826   1.194   0.343 -0.5393  0.8962  0.8798
37736SOL    HW216801   7.765   1.056   0.327  1.4133  0.1489 -0.4785
37737SOL     OW16802   9.703   9.777   7.596  0.2321 -0.0461  0.0877
37737SOL    HW116803   9.684   9.869   7.576 -1.6669 -0.0461  1.6811
37737SOL    HW216804   9.742   9.779   7.683  1.4366 -0.6828 -0.4039
37738SOL     OW16805   5.456   4.776   1.705  0.3230 -0.0450  0.4958
37738SOL    HW116806   5.433   4.684   1.687 -0.6058  0.5238 -1.6042
37738SOL    HW216807   5.480   4.811   1.619 -1.6691  2.2867  0.7918
37739SOL     OW16808   3.239   8.241   5.563  0.1740 -0.3113 -0.3468
37739SOL    HW116809   3.157   8.233   5.515 -0.4723 -4.7808  1.0281
37739SOL    HW216810   3.305   8.202   5.505  0.2771 -1.3996  0.4650
37740SOL     OW16811   7.875   6.157   6.261 -0.2894 -0.4589 -0.5065
37740SOL    HW116812   7.798   6.179   6.314  0.3301 -0.2050  0.2987
37740SOL    HW216813   7.935   6.230   6.273 -0.5398  0.1102 -2.4025
37741SOL     OW16814   3.852  10.476  11.074 -0.6598  0.3207  0.7582
37741SOL    HW116815   3.819  10.441  10.991 -2.6959  0.4956  1.4399
37741SOL    HW216816   3.940  10.507  11.054 -1.5098  1.3950 -1.6303
37742SOL     OW16817   0.690   2.160   1.264  0.1776  0.5429 -0.2290
37742SOL    HW116818   0.779   2.134   1.238 -0.0456  0.7356 -1.2465
37742SOL    HW216819   0.698   2.184   1.356  0.2247 -3.9715  1.1456
37743SOL     OW16820   0.553   7.501   6.934 -0.2439 -0.5339  0.2972
37743SOL    HW116821   0.592   7.571   6.882  0.5680 -0.7604  0.5912
37743SOL    HW216822   0.470   7.538   6.965 -1.7154 -1.0431 -2.6921
37744SOL     OW16823   2.993   3.227  10.573 -1.1679 -0.5879 -0.1634
37744SOL    HW116824   3.052   3.272  10.634  1.1261 -1.9779 -1.2152
37744SOL    HW216825   2.925   3.292  10.554  0.2402  1.2881  0.7739
37745SOL     OW16826  10.727   0.168   6.072  0.4951 -0.1415  0.5893
37745SOL    HW116827  10.747   0.089   6.021  1.2680  0.9048 -0.8005
37745SOL    HW216828  10.725   0.239   6.008  0.5088  1.0947  1.8870
37746SOL     OW16829  11.020   5.014   9.623  0.2029  0.3234 -0.1831
37746SOL    HW116830  11.009   5.088   9.563  1.7270  1.0267  0.3538
37746SOL    HW216831  11.080   5.046   9.690 -0.5981 -0.8096  1.1205
37747SOL     OW16832   0.411   7.810   3.699  0.2959  0.1971  0.3163
37747SOL    HW116833   0.380   7.720   3.690 -1.3822  0.2749  3.8208
37747SOL    HW216834   0.498   7.801   3.739  2.1403  0.1993 -3.2249
37748SOL     OW16835   5.286   5.424   2.624  0.1634  0.1453  0.3090
37748SOL    HW116836   5.216   5.486   2.643  1.1133  0.8435  1.7612
37748SOL    HW216837   5.361   5.479   2.603  0.8933 -0.5077  1.1112
37749SOL     OW16838   6.389   3.107   9.661 -0.4323 -0.5191 -0.6406
37749SOL    HW116839   6.313   3.110   9.603 -0.3673  0.0883 -0.7050
37749SOL    HW216840   6.396   3.196   9.696  0.3304 -0.5315 -0.7418
37750SOL     OW16841   9.849   7.980   3.459 -0.4416  0.6264  0.3652
37750SOL    HW116842   9.814   7.991   3.548 -1.1430 -0.2241  0.2166
37750SOL    HW216843   9.776   7.943   3.410  1.0787 -2.8373  0.4395
37751SOL     OW16844   4.328   2.484   5.610 -0.1379 -0.0139 -0.0022
37751SOL    HW116845   4.392   2.465   5.679  0.0117  0.1145 -0.1045
37751SOL    HW216846   4.317   2.400   5.565  1.7862  0.4684 -1.5102
37752SOL     OW16847   4.436   9.309   0.432 -0.0338  0.5085 -0.3502
37752SOL    HW116848   4.383   9.246   0.384  0.0867 -0.4954  0.7761
37752SOL    HW216849   4.373   9.370   0.470 -0.2952  0.0741 -0.0725
37753SOL     OW16850   1.198   8.069   1.754  0.0124  0.6242  0.3102
37753SOL    HW116851   1.211   8.050   1.662  1.4687  0.8461  0.4456
37753SOL    HW216852   1.143   8.148   1.755  0.3548  0.8779 -0.3794
37754SOL     OW16853  10.361   3.771   1.296  0.3589  0.2370  0.2775
37754SOL    HW116854  10.352   3.783   1.202 -0.0049 -0.4530  0.2111
37754SOL    HW216855  10.423   3.699   1.305 -0.7928 -0.7603  0.5061
37755SOL     OW16856   5.660   0.560   4.161 -0.1018  0.7805 -0.0531
37755SOL    HW116857   5.660   0.619   4.086  0.7551  2.2308  1.0283
37755SOL    HW216858   5.656   0.618   4.237 -0.4447 -0.6181  1.0397
37756SOL     OW16859   9.633   0.363   0.259 -0.0180 -0.4003  0.9360
37756SOL    HW116860   9.618   0.269   0.266  0.1134 -0.4200  0.9535
37756SOL    HW216861   9.724   0.371   0.229 -0.6184 -0.3368 -0.9994
37757SOL     OW16862   5.426   8.792   5.247  0.1927 -0.0720  0.1222
37757SOL    HW116863   5.340   8.771   5.211 -0.0769 -0.5489  1.0187
37757SOL    HW216864   5.408   8.847   5.323  0.7434  0.7517 -0.3214
37758SOL     OW16865   3.677   1.332   6.884  0.0733  0.5782  0.3394
37758SOL    HW116866   3.718   1.246   6.890 -0.4002  0.0445 -2.4810
37758SOL    HW216867   3.721   1.385   6.951  0.6711 -1.7110  1.8581
37759SOL     OW16868   3.203  10.694   7.274 -0.4510 -0.2778  0.3684
37759SOL    HW116869   3.230  10.750   7.202  0.1182  1.1282  1.6173
37759SOL    HW216870   3.114  10.665   7.251 -0.2955  0.1671 -0.8484
37760SOL     OW16871   6.270   5.610   4.704  0.1512 -0.2589 -0.6775
37760SOL    HW116872   6.246   5.652   4.622  0.3165  0.0614 -0.5614
37760SOL    HW216873   6.340   5.549   4.680 -1.2802 -1.7811 -1.1578
37761SOL     OW16874  10.057   5.122   9.682 -0.4527  0.8892  0.0685
37761SOL    HW116875   9.966   5.151   9.666 -1.4426 -2.3686 -0.9360
37761SOL    HW216876  10.108   5.166   9.614 -1.8277  0.4793 -1.2860
37762SOL     OW16877   1.424   3.003   4.404 -0.4289 -0.2293  0.0791
37762SOL    HW116878   1.359   2.945   4.444 -1.2615  1.2651  0.9779
37762SOL    HW216879   1.389   3.091   4.418  1.8963  0.6473  0.8059
37763SOL     OW16880   3.628   1.377   9.728 -0.2031  0.3151  0.1618
37763SOL    HW116881   3.617   1.407   9.638 -1.7115  1.2157  0.6123
37763SOL    HW216882   3.565   1.428   9.778 -0.3926 -1.1610  1.5149
37764SOL     OW16883   8.616   7.084   1.968 -0.2150 -0.4651  0.0605
37764SOL    HW116884   8.529   7.058   1.998  0.2861 -2.1066  0.2122
37764SOL    HW216885   8.607   7.099   1.874 -0.9350  0.7607  0.2999
37765SOL     OW16886   2.123   1.048   6.269  0.2249 -0.3275  0.7813
37765SOL    HW116887   2.156   1.131   6.234 -0.8568 -0.1078  0.2132
37765SOL    HW216888   2.180   1.028   6.343 -0.2138  1.5535  1.7028
37766SOL     OW16889   8.212   2.664   0.779  0.1373  0.2824 -0.3927
37766SOL    HW116890   8.127   2.645   0.820  0.4674  0.5073  0.4056
37766SOL    HW216891   8.251   2.578   0.764 -1.1757  0.0242 -2.8771
37767SOL     OW16892   9.030   3.845   1.823 -0.1046  0.0039 -0.0862
37767SOL    HW116893   9.100   3.899   1.859 -0.5297 -0.2250  1.1446
37767SOL    HW216894   8.981   3.815   1.900 -0.1904 -1.7100 -0.7560
37768SOL     OW16895   1.083   1.555   3.925  0.0284 -0.2582 -0.6356
37768SOL    HW116896   1.070   1.489   3.857  0.0405 -1.3637  0.4012
37768SOL    HW216897   0.998   1.564   3.967  0.1095  0.1377 -0.5485
37769SOL     OW16898   2.703   2.649   1.838 -0.1177  0.1376 -0.2258
37769SOL    HW116899   2.623   2.682   1.797  0.2883  2.9398  0.9646
37769SOL    HW216900   2.675   2.621   1.926 -0.0294 -0.3016 -0.3366
37770SOL     OW16901   6.085   7.773   6.073 -0.4012 -0.0578  0.1719
37770SOL    HW116902   6.029   7.712   6.025 -0.4980 -0.6373  1.0003
37770SOL    HW216903   6.024   7.838   6.108 -0.3856  0.1069 -0.1066
37771SOL     OW16904   1.192   1.017   9.608 -0.5079  0.3982 -0.2976
37771SOL    HW116905   1.151   1.096   9.643  0.1151  0.5776  0.0378
37771SOL    HW216906   1.118   0.965   9.575 -0.7603  2.1403 -2.7099
37772SOL     OW16907   2.032   6.081   8.696 -0.5270 -0.1828 -0.1664
37772SOL    HW116908   1.979   6.150   8.656 -0.7262 -1.0156 -1.3989
37772SOL    HW216909   1.971   6.034   8.753 -0.1036  1.3734  1.6698
37773SOL     OW16910   8.297   4.498   1.937 -0.0755  0.6471  0.0183
37773SOL    HW116911   8.280   4.460   1.850 -1.1200 -0.3258  0.6213
37773SOL    HW216912   8.348   4.577   1.919 -0.8084  0.8061 -1.5282
37774SOL     OW16913   0.446   5.242  10.144  0.1821  0.1801 -0.5239
37774SOL    HW116914   0.540   5.226  10.153  0.0302 -1.0172 -0.8723
37774SOL    HW216915   0.431   5.247  10.050  0.0615  1.5432 -0.4475
37775SOL     OW16916   8.472   1.951   4.093 -0.5574 -0.4091  0.4721
37775SOL    HW116917   8.495   2.041   4.117  0.6236 -0.7067  0.5360
37775SOL    HW216918   8.422   1.960   4.011  0.5230  0.2486 -0.1343
37776SOL     OW16919   4.503   3.122   8.820  0.1978 -0.2714 -0.7029
37776SOL    HW116920   4.479   3.050   8.878  0.3330 -1.0805 -1.6314
37776SOL    HW216921   4.467   3.200   8.863 -0.8481 -1.0036 -0.2021
37777SOL     OW16922   1.779   8.190   5.148 -0.5854 -0.0628 -0.7517
37777SOL    HW116923   1.684   8.178   5.147 -0.5489 -0.4546 -1.9444
37777SOL    HW216924   1.814   8.102   5.160 -0.3580  0.2561  1.2043
37778SOL     OW16925   4.438   2.262   9.430  0.2417  0.4768  0.1676
37778SOL    HW116926   4.436   2.301   9.343  2.2498  0.8857  0.2724
37778SOL    HW216927   4.347   2.236   9.446 -0.1369  0.1482 -2.1399
37779SOL     OW16928   9.382   9.892   1.346  0.0630  0.6538 -0.2557
37779SOL    HW116929   9.322   9.845   1.404  0.6093  1.3803  0.9429
37779SOL    HW216930   9.403   9.829   1.277  1.1030 -1.0522  1.5069
37780SOL     OW16931   2.375   7.694   9.978  0.0703 -0.3405  0.3942
37780SOL    HW116932   2.362   7.740  10.061  0.7489 -1.7095  1.3003
37780SOL    HW216933   2.454   7.733   9.941  0.6464 -0.7496  1.1556
37781SOL     OW16934   7.001   7.865   7.284  0.3422  0.1320  0.4276
37781SOL    HW116935   7.057   7.857   7.361  0.2352 -0.5028  0.4385
37781SOL    HW216936   7.062   7.890   7.214  0.4968  0.3255  0.6262
37782SOL     OW16937  10.810   9.735   5.247  0.2786  0.0813 -0.2233
37782SOL    HW116938  10.775   9.715   5.161 -1.1600 -0.1244  0.3824
37782SOL    HW216939  10.887   9.790   5.230  0.4959 -0.6316 -1.6475
37783SOL     OW16940   2.763   9.722   4.444  0.4972  0.5776  0.1586
37783SOL    HW116941   2.725   9.657   4.386  0.1351 -0.6201  1.6645
37783SOL    HW216942   2.844   9.750   4.400 -0.3705  0.6490 -1.4701
37784SOL     OW16943   3.259   4.312   8.452 -0.1270 -0.0912  0.1686
37784SOL    HW116944   3.324   4.344   8.514  1.1426  0.6752 -1.4966
37784SOL    HW216945   3.206   4.389   8.431 -0.4251 -0.3036  0.1347
37785SOL     OW16946   0.355   2.168   8.871  0.7206  0.1790  1.0212
37785SOL    HW116947   0.406   2.226   8.814  0.4778  0.2759  0.9026
37785SOL    HW216948   0.327   2.225   8.943 -2.6756  1.2320 -0.8992
37786SOL     OW16949   3.514   5.142   4.563  0.0077 -0.1253  0.8476
37786SOL    HW116950   3.435   5.166   4.612 -0.1221  0.7333  0.2382
37786SOL    HW216951   3.494   5.166   4.472  1.6829  2.0291  0.9499
37787SOL     OW16952   3.912   7.578   8.459  0.5805 -0.1889 -0.0199
37787SOL    HW116953   3.988   7.617   8.501 -0.7499  0.2065  2.2083
37787SOL    HW216954   3.867   7.652   8.418  0.5354 -0.1431  0.1101
37788SOL     OW16955   0.499  10.389   2.553  0.2706  0.2198  0.2542
37788SOL    HW116956   0.504  10.294   2.539  1.9499  0.4313 -0.9456
37788SOL    HW216957   0.525  10.401   2.644  1.0626 -0.4220  0.1293
37789SOL     OW16958   8.262   4.850   8.005  0.6126 -0.4497  0.0670
37789SOL    HW116959   8.255   4.769   8.056  2.3056  0.0306  1.1297
37789SOL    HW216960   8.265   4.821   7.914 -0.5419 -1.4551  0.3244
37790SOL     OW16961   6.001   6.573   3.418  0.1181  0.0522  0.5578
37790SOL    HW116962   6.023   6.666   3.421 -0.6292  0.2768 -0.3283
37790SOL    HW216963   6.084   6.528   3.434  0.7370  0.8643 -0.2636
37791SOL     OW16964   2.788   9.494   1.551 -0.0560  0.1738  0.2555
37791SOL    HW116965   2.833   9.436   1.613 -0.1449 -0.0244  0.1364
37791SOL    HW216966   2.847   9.569   1.541  0.9241 -0.6986 -0.9398
37792SOL     OW16967   4.486   4.663   3.789  0.4971  0.4435  0.2631
37792SOL    HW116968   4.556   4.710   3.745  0.3617  0.1330 -0.2939
37792SOL    HW216969   4.520   4.643   3.876  0.3290  2.1189  0.7419
37793SOL     OW16970  10.643   0.449   2.522  0.5233  0.5658  0.3128
37793SOL    HW116971  10.564   0.394   2.521  0.1436  1.1000 -0.6000
37793SOL    HW216972  10.715   0.388   2.508  0.1426  0.2270 -0.2522
37794SOL     OW16973   4.708   3.205   6.226  0.3073  0.6192  0.2319
37794SOL    HW116974   4.774   3.180   6.162  2.1637 -0.1376  2.3356
37794SOL    HW216975   4.668   3.123   6.254  1.3866  0.6294  1.9297
37795SOL     OW16976   6.952   8.643   9.708 -0.2394 -0.4310  0.2744
37795SOL    HW116977   6.969   8.667   9.799 -1.8316 -0.1503  0.5203
37795SOL    HW216978   7.020   8.688   9.658 -0.2153  0.5841  1.1948
37796SOL     OW16979   1.851   8.048   9.070 -0.0261 -0.4981 -0.4004
37796SOL    HW116980   1.911   8.037   9.143 -0.5053 -2.0850 -0.2052
37796SOL    HW216981   1.870   8.135   9.036  1.1927 -0.3019  0.7130
37797SOL     OW16982  10.556  10.122  10.123 -0.3472 -0.3869  0.5085
37797SOL    HW116983  10.570  10.049  10.063  0.1350 -0.2282  0.4273
37797SOL    HW216984  10.508  10.084  10.196  0.2276 -0.8631  0.6410
37798SOL     OW16985  10.629  10.539   9.118  0.1434  0.2534  0.5879
37798SOL    HW116986  10.562  10.477   9.088  0.9768 -0.0770 -0.6664
37798SOL    HW216987  10.596  10.625   9.093 -0.1284  0.1544  0.6032
37799SOL     OW16988   4.751   9.569   1.002  0.0608 -0.2885 -0.4115
37799SOL    HW116989   4.812   9.495   1.001  1.7486  1.0084  0.9540
37799SOL    HW216990   4.753   9.600   1.093 -1.5962  0.6639 -0.6701
37800SOL     OW16991  10.046   4.822   4.284  0.1241  0.3772 -0.0935
37800SOL    HW116992  10.034   4.787   4.196  0.1826 -0.2769  0.1498
37800SOL    HW216993  10.037   4.745   4.341 -0.4934  0.8875  0.5090
37801SOL     OW16994   0.485   2.647   6.114  0.2139  0.2564  0.2788
37801SOL    HW116995   0.419   2.695   6.163  0.0004 -0.1886  0.4351
37801SOL    HW216996   0.482   2.558   6.151  2.7155  0.8332  2.1530
37802SOL     OW16997   8.609   9.875  10.654 -0.7320 -0.0311 -0.0046
37802SOL    HW116998   8.557   9.879  10.734  1.4392 -0.8414  1.5566
37802SOL    HW216999   8.644   9.786  10.653 -1.1881 -0.2415 -2.2377
37803SOL     OW17000  11.049   6.400   0.982  1.0010 -0.4569 -0.2061
37803SOL    HW117001  10.979   6.431   0.925  1.0074 -0.7652 -0.3848
37803SOL    HW217002  11.110   6.355   0.924  1.1050 -0.6089  0.0158
37804SOL     OW17003   2.058   6.937   4.010  0.2920 -0.2573 -0.8297
37804SOL    HW117004   2.091   6.984   4.086  0.1479  0.4021 -1.1685
37804SOL    HW217005   2.028   6.852   4.045  0.4797 -0.0681 -0.2045
37805SOL     OW17006   3.631   0.172   7.211 -0.4204 -0.3174  0.0124
37805SOL    HW117007   3.550   0.121   7.213 -0.3422 -0.4296  0.5335
37805SOL    HW217008   3.604   0.260   7.188 -0.4449 -0.7794 -1.9601
37806SOL     OW17009   6.872   2.195   9.968  0.1797 -0.2067  0.0040
37806SOL    HW117010   6.940   2.252  10.003 -0.1749 -1.1491  2.4710
37806SOL    HW217011   6.799   2.254   9.949  1.1157  0.6066 -1.2055
37807SOL     OW17012   3.128   8.698   4.037 -0.1171 -0.5418 -0.6545
37807SOL    HW117013   3.136   8.751   3.958 -0.9060 -0.6038 -0.7849
37807SOL    HW217014   3.208   8.645   4.039  0.3949  0.2160 -0.8453
37808SOL     OW17015   2.441   2.371   7.913  0.6359  0.7704  0.0411
37808SOL    HW117016   2.447   2.285   7.954  0.8769  0.7104 -0.1157
37808SOL    HW217017   2.464   2.356   7.821 -0.6338  0.7779 -0.2879
37809SOL     OW17018   6.852   2.213  10.280 -0.4914  0.0382 -0.3523
37809SOL    HW117019   6.933   2.162  10.286 -2.1092 -2.5818  1.1582
37809SOL    HW217020   6.819   2.196  10.192 -0.0006  0.1898 -0.5704
37810SOL     OW17021   2.665   4.919   9.303 -0.6248 -0.0344  0.2441
37810SOL    HW117022   2.693   5.011   9.295 -2.4337  0.4898 -0.8093
37810SOL    HW217023   2.598   4.921   9.372  1.6620 -1.2432  2.6898
37811SOL     OW17024   4.865   8.294  10.351 -0.2142  0.3635 -0.0077
37811SOL    HW117025   4.924   8.355  10.395 -0.2995  0.5878 -0.1998
37811SOL    HW217026   4.786   8.345  10.335  0.6543  1.0392 -2.5691
37812SOL     OW17027   0.728   2.392   9.263 -0.3923  0.3979  0.0328
37812SOL    HW117028   0.715   2.486   9.275 -1.2172  0.2790  0.1068
37812SOL    HW217029   0.676   2.351   9.332  2.6545 -0.0841  2.2531
37813SOL     OW17030  10.011   5.470   2.413 -0.4969  0.3572  0.3177
37813SOL    HW117031   9.980   5.483   2.503 -0.4931  0.8214  0.2582
37813SOL    HW217032  10.078   5.538   2.401 -1.0550  0.8211 -0.2892
37814SOL     OW17033   5.921   3.369  10.583 -0.6120  0.8623  0.2256
37814SOL    HW117034   5.905   3.375  10.489 -0.8520 -1.7187  0.0208
37814SOL    HW217035   5.843   3.326  10.618  0.6976 -0.9255  1.1091
37815SOL     OW17036   3.894   3.297   1.318 -0.1594  0.1926  0.2189
37815SOL    HW117037   3.813   3.248   1.308  1.2250 -2.0352 -0.8248
37815SOL    HW217038   3.921   3.317   1.228 -0.2141  2.1616  0.5897
37816SOL     OW17039   9.111   2.469   5.188  0.2976 -0.2007 -0.1200
37816SOL    HW117040   9.062   2.552   5.191  0.5517 -0.0343 -0.5131
37816SOL    HW217041   9.152   2.463   5.274  0.2672  0.0745 -0.0825
37817SOL     OW17042   0.651   9.496   9.850 -0.4181 -0.4866 -0.1330
37817SOL    HW117043   0.745   9.483   9.862 -0.4359 -1.9216 -1.2503
37817SOL    HW217044   0.624   9.548   9.925  1.4195  0.7257 -0.2513
37818SOL     OW17045   2.757   5.719  10.725  0.0692 -0.2276 -0.0692
37818SOL    HW117046   2.848   5.723  10.693  0.3744  3.6982  0.8043
37818SOL    HW217047   2.704   5.736  10.647  0.0507 -1.8160 -0.4426
37819SOL     OW17048   2.999   0.931   3.067  0.6246 -0.4239  0.0729
37819SOL    HW117049   3.087   0.968   3.065  0.3371  0.2552 -0.5107
37819SOL    HW217050   2.947   0.990   3.013  0.1881 -1.8074 -1.0686
37820SOL     OW17051   4.085   3.261   5.347 -0.3975  0.5947  0.1097
37820SOL    HW117052   4.023   3.201   5.306 -0.4850 -0.3044  1.4989
37820SOL    HW217053   4.031   3.334   5.378 -0.4473  0.8607 -0.5878
37821SOL     OW17054   4.538   6.905   3.324  0.0318  0.5396  0.0800
37821SOL    HW117055   4.594   6.838   3.362  0.1647  1.2092  1.1049
37821SOL    HW217056   4.461   6.908   3.381 -1.2017 -0.5443 -1.4540
37822SOL     OW17057   9.522   5.778   7.873 -1.0875  0.2150  0.0968
37822SOL    HW117058   9.520   5.686   7.897  1.5536  0.1982  0.5520
37822SOL    HW217059   9.592   5.785   7.808 -0.6322  2.0030  0.7030
37823SOL     OW17060   6.984   7.431   7.045  0.0285  0.1118 -0.0394
37823SOL    HW117061   6.965   7.428   6.951 -0.8160 -2.0525  0.1403
37823SOL    HW217062   7.079   7.438   7.049  0.0211  1.0766 -1.0357
37824SOL     OW17063   2.395   2.568   9.303 -0.0100  0.1309  0.1104
37824SOL    HW117064   2.308   2.532   9.288 -0.3772  1.4479 -1.2415
37824SOL    HW217065   2.394   2.653   9.258  1.9768  0.1666  0.0177
37825SOL     OW17066   3.820   9.478   0.984  0.4419 -0.1382  0.0267
37825SOL    HW117067   3.863   9.515   1.061  0.4947  0.6771 -0.3874
37825SOL    HW217068   3.886   9.486   0.914  1.3713 -3.1345  0.4074
37826SOL     OW17069   8.396  10.877   4.122 -0.5929 -0.5440  0.1712
37826SOL    HW117070   8.334  10.830   4.178 -1.7709 -0.7738 -1.2370
37826SOL    HW217071   8.456  10.810   4.090 -0.4641 -0.5701  0.4731
37827SOL     OW17072  11.102   3.740   7.707 -0.0021 -0.0338  0.5538
37827SOL    HW117073  11.154   3.674   7.753 -0.7803 -0.1989  1.2290
37827SOL    HW217074  11.159   3.816   7.701 -0.2932  0.4629  2.9908
37828SOL     OW17075   2.157   7.225   0.161  0.3519  0.2963  0.2213
37828SOL    HW117076   2.097   7.206   0.089  2.5918 -0.3631 -1.5624
37828SOL    HW217077   2.194   7.310   0.139  0.7965  0.2582  0.8075
37829SOL     OW17078   4.985  10.348   0.255 -0.6959 -0.1327  0.4732
37829SOL    HW117079   4.955  10.260   0.235 -1.7374  0.4694 -0.7488
37829SOL    HW217080   4.979  10.395   0.172 -1.2839  1.3877  1.3277
37830SOL     OW17081   4.152   6.477   0.508  0.5944 -0.0258 -0.4426
37830SOL    HW117082   4.189   6.546   0.564  0.5479  0.7734 -1.3805
37830SOL    HW217083   4.061   6.504   0.495  0.6459 -0.1360 -1.0168
37831SOL     OW17084   0.059   0.004   9.051 -0.1093  0.2251  0.1686
37831SOL    HW117085   0.023  -0.014   9.138 -0.2487 -0.0824  0.0482
37831SOL    HW217086  -0.014  -0.011   8.991  0.2701 -0.6328 -0.1010
37832SOL     OW17087   5.293   5.921   5.740  0.1377 -0.3152  0.5360
37832SOL    HW117088   5.320   5.835   5.709 -1.8708 -0.6537 -0.4681
37832SOL    HW217089   5.373   5.962   5.774  1.2628 -2.2689  0.3418
37833SOL     OW17090   2.290   3.626   9.303  0.1067 -0.2723  0.8781
37833SOL    HW117091   2.200   3.639   9.272  1.0056  0.8677 -1.5247
37833SOL    HW217092   2.312   3.537   9.273 -0.4862 -0.9462  2.3387
37834SOL     OW17093   9.524   5.814   5.856  0.0634  0.5474 -0.0983
37834SOL    HW117094   9.534   5.744   5.792  0.2865  0.3640  0.1349
37834SOL    HW217095   9.529   5.770   5.941  0.4026  0.8705  0.0525
37835SOL     OW17096  10.607   0.884   9.975 -0.3336  0.3776 -0.0860
37835SOL    HW117097  10.653   0.830   9.911  0.2958  2.9284 -1.9250
37835SOL    HW217098  10.514   0.867   9.959 -0.1645  0.5619 -1.3120
37836SOL     OW17099   2.002  10.689   4.351  0.0659 -0.2574  0.1752
37836SOL    HW117100   2.022  10.774   4.391 -3.0240 -0.9193  3.6811
37836SOL    HW217101   2.004  10.706   4.257 -0.0449  3.6358  0.7112
37837SOL     OW17102   7.826   5.917   5.381  0.4161  0.2495 -0.2245
37837SOL    HW117103   7.873   5.998   5.359 -1.1490  1.6163  1.1727
37837SOL    HW217104   7.887   5.868   5.436  1.0181  0.9749 -0.2281
37838SOL     OW17105   1.984   6.127   8.202 -0.2516 -0.1102  0.3397
37838SOL    HW117106   1.898   6.092   8.181 -0.3490  0.1342  0.3284
37838SOL    HW217107   2.033   6.121   8.120 -1.1691  2.4537 -0.4850
37839SOL     OW17108   5.803   7.317   7.041 -0.4789  0.1776 -0.0786
37839SOL    HW117109   5.735   7.252   7.057 -0.2606 -0.3613 -1.2847
37839SOL    HW217110   5.761   7.401   7.062 -0.5496 -0.3420  2.1769
37840SOL     OW17111   1.286  10.440   9.841 -0.1447  0.3541  0.2268
37840SOL    HW117112   1.333  10.512   9.883 -1.6317  0.6921  1.3999
37840SOL    HW217113   1.290  10.460   9.747  0.6565  1.2037  0.4289
37841SOL     OW17114   2.085   6.071   4.949 -0.2239 -0.9133  0.5534
37841SOL    HW117115   2.033   5.992   4.959  0.0903 -1.4445 -1.4703
37841SOL    HW217116   2.142   6.073   5.026  0.3250 -3.1161  0.2674
37842SOL     OW17117   3.385   2.559   8.125 -0.0773 -0.0177 -0.0244
37842SOL    HW117118   3.291   2.552   8.146 -0.1282 -0.8427 -0.4849
37842SOL    HW217119   3.413   2.641   8.167 -0.8560 -0.0930  0.6663
37843SOL     OW17120   6.216   0.346   6.266  0.5388  0.4871  0.5737
37843SOL    HW117121   6.240   0.326   6.356  0.5135 -0.8806  0.3142
37843SOL    HW217122   6.194   0.260   6.228 -1.9959  1.2910  0.0073
37844SOL     OW17123   7.425   9.808   1.872 -0.2316  0.1686 -0.1040
37844SOL    HW117124   7.461   9.735   1.821  0.9604  0.2781  0.5532
37844SOL    HW217125   7.341   9.826   1.831  0.5518  0.0582 -1.8594
37845SOL     OW17126   9.336   7.847   5.331  0.0788  0.5562  0.5185
37845SOL    HW117127   9.268   7.848   5.263 -0.7760  0.0234  1.3406
37845SOL    HW217128   9.413   7.813   5.287 -0.1962  1.1139 -0.4253
37846SOL     OW17129   2.064   3.446   5.137 -0.0998  0.3958 -0.4519
37846SOL    HW117130   2.027   3.403   5.215  2.0896  0.3037  0.6108
37846SOL    HW217131   2.074   3.374   5.074 -0.7139  0.2299 -0.3715
37847SOL     OW17132   0.224   0.407   2.469  0.2534  0.1512 -0.3631
37847SOL    HW117133   0.143   0.452   2.444  0.7943  0.1205 -2.3698
37847SOL    HW217134   0.226   0.412   2.564 -1.2886  1.5991 -0.3595
37848SOL     OW17135   8.180   9.224   0.842  0.0087  0.2337 -0.7065
37848SOL    HW117136   8.173   9.149   0.902 -1.3122  1.2842  0.5019
37848SOL    HW217137   8.257   9.272   0.873  0.0445  0.1265 -0.6289
37849SOL     OW17138   6.053   2.519   4.622 -0.0258  0.0422  0.1396
37849SOL    HW117139   6.140   2.480   4.621  0.1539  0.4380 -0.5111
37849SOL    HW217140   6.066   2.606   4.660 -0.3198 -0.2814  1.0100
37850SOL     OW17141   7.677   3.913   8.435  0.0981 -0.5722 -0.0283
37850SOL    HW117142   7.636   3.999   8.441 -0.2231 -0.8370  2.5912
37850SOL    HW217143   7.698   3.903   8.342  1.7128  3.0429 -0.2379
37851SOL     OW17144   5.355   3.368   1.498 -0.3439 -0.2125 -0.7013
37851SOL    HW117145   5.289   3.313   1.540  0.2824 -0.0056  0.5963
37851SOL    HW217146   5.343   3.352   1.404 -1.3786 -1.1527 -0.4319
37852SOL     OW17147   2.725   4.212  10.122  0.6169  1.0329 -0.0857
37852SOL    HW117148   2.667   4.286  10.141  1.1188  1.2283  0.7136
37852SOL    HW217149   2.804   4.229  10.172  2.1534  1.6968 -2.5477
37853SOL     OW17150   9.500  11.108   3.633 -0.4940 -0.4179 -0.2364
37853SOL    HW117151   9.570  11.159   3.593 -0.9250 -0.3629 -0.9471
37853SOL    HW217152   9.519  11.109   3.726 -0.0419  0.3465 -0.3315
37854SOL     OW17153   3.250  10.657   3.947 -0.0332 -0.3294  0.0484
37854SOL    HW117154   3.326  10.599   3.949 -0.4256 -0.8572 -0.0287
37854SOL    HW217155   3.193  10.624   4.016 -0.4688 -0.3265 -0.3037
37855SOL     OW17156  10.434   4.968   8.641  0.5772  0.0961 -0.1031
37855SOL    HW117157  10.456   4.906   8.571  1.7852  0.5669 -0.1759
37855SOL    HW217158  10.487   5.046   8.620  0.4145  0.4994  0.9500
37856SOL     OW17159   9.531   6.996   4.323  0.1555 -0.2204 -0.2841
37856SOL    HW117160   9.452   6.951   4.293 -1.9438  1.7574  1.8890
37856SOL    HW217161   9.518   7.007   4.417  3.0076  0.3093  0.1373
37857SOL     OW17162   3.010   9.332   9.130 -0.6934  0.0370  0.7243
37857SOL    HW117163   3.078   9.300   9.189 -0.2825 -0.7692 -0.1598
37857SOL    HW217164   2.993   9.421   9.160  1.3650  0.5770  0.4494
37858SOL     OW17165   4.777   0.850   6.681 -0.3291  0.0907 -0.4422
37858SOL    HW117166   4.863   0.814   6.664  0.2622  1.5607 -0.7454
37858SOL    HW217167   4.777   0.870   6.775 -0.1061  0.6354 -0.5533
37859SOL     OW17168   3.421   2.905   0.775  0.4479  0.4832 -0.1198
37859SOL    HW117169   3.466   2.986   0.750  0.9698 -0.0193 -0.8545
37859SOL    HW217170   3.459   2.838   0.718  0.8241 -0.4864  1.2244
37860SOL     OW17171   1.980   4.136   1.718  0.5215 -0.0691  0.3010
37860SOL    HW117172   1.974   4.224   1.681  0.6965 -0.0610  0.2934
37860SOL    HW217173   1.907   4.132   1.780  1.1189  0.4375  1.0589
37861SOL     OW17174   6.535   1.505   8.232  0.6085 -0.2598  0.5148
37861SOL    HW117175   6.534   1.594   8.267  2.2788 -0.3505  0.8628
37861SOL    HW217176   6.625   1.490   8.206  0.1121 -1.4482 -0.6565
37862SOL     OW17177   0.645   8.339   3.387 -0.3417  0.0591  0.5107
37862SOL    HW117178   0.657   8.244   3.381 -0.3263 -0.0117  1.6126
37862SOL    HW217179   0.692   8.364   3.466 -0.2908  1.0010  0.1871
37863SOL     OW17180   6.950   1.089   4.175 -0.4827  0.3222 -0.0131
37863SOL    HW117181   7.041   1.097   4.147 -0.1787  0.2640  0.9469
37863SOL    HW217182   6.939   0.997   4.199  0.0742  0.8867  2.7223
37864SOL     OW17183   5.781   2.415   3.626 -0.2601  0.2955  0.1457
37864SOL    HW117184   5.709   2.373   3.579 -1.3242 -0.2400  2.1341
37864SOL    HW217185   5.776   2.507   3.600 -1.3260  0.1635 -0.1684
37865SOL     OW17186   5.947   6.891   2.958 -0.6050 -0.4375  0.1327
37865SOL    HW117187   5.955   6.984   2.939 -0.5347 -0.3045  0.7846
37865SOL    HW217188   5.860   6.882   2.998 -0.1141 -0.4326  1.2456
37866SOL     OW17189   9.432  10.844  10.782  0.2474 -0.4106  0.2298
37866SOL    HW117190   9.359  10.799  10.739 -0.2938 -0.2380  0.9551
37866SOL    HW217191   9.498  10.852  10.713 -1.0225  0.8677 -0.9082
37867SOL     OW17192   8.759   2.291   1.215  0.1775 -0.1658 -0.2548
37867SOL    HW117193   8.713   2.375   1.215 -1.0743 -0.8267  0.0192
37867SOL    HW217194   8.713   2.238   1.279  2.7362 -0.1799  1.7523
37868SOL     OW17195  10.234   4.871   0.229  0.4077 -0.2565  0.2602
37868SOL    HW117196  10.298   4.888   0.159  0.3766  0.3783  0.3804
37868SOL    HW217197  10.161   4.829   0.184 -1.2566  3.3816 -0.8825
37869SOL     OW17198   7.173   7.645   6.391  0.1977 -0.5011  0.2455
37869SOL    HW117199   7.210   7.612   6.473 -0.9836 -0.0057  1.0049
37869SOL    HW217200   7.113   7.576   6.363 -1.5079  0.4980  1.2996
37870SOL     OW17201   7.425   3.246   0.975  0.4792  0.4977  0.1191
37870SOL    HW117202   7.471   3.285   0.901  0.6363  1.3379  0.6535
37870SOL    HW217203   7.411   3.318   1.035 -2.1344  0.4071 -0.2926
37871SOL     OW17204  10.093   9.667   1.463 -0.3249 -0.0689  0.3117
37871SOL    HW117205  10.112   9.627   1.378  0.5172 -0.9386  0.8907
37871SOL    HW217206   9.999   9.654   1.475 -0.0814 -1.9513  0.4880
37872SOL     OW17207   2.562   9.176   9.431  0.5745 -0.1897 -0.5016
37872SOL    HW117208   2.481   9.129   9.450  0.7282 -0.3550 -0.2538
37872SOL    HW217209   2.617   9.112   9.385  0.4558  0.0099 -0.9356
37873SOL     OW17210   9.311   5.415   7.960  0.0802  0.3546 -0.3787
37873SOL    HW117211   9.395   5.448   7.928 -0.0550 -0.3578 -1.5129
37873SOL    HW217212   9.273   5.368   7.886 -1.3681  0.7366  0.0738
37874SOL     OW17213   0.496   1.532  10.967  0.3565 -0.3111  0.3281
37874SOL    HW117214   0.436   1.600  10.937 -0.0085 -1.2204 -1.1263
37874SOL    HW217215   0.574   1.543  10.912 -0.0681 -1.5960 -0.6084
37875SOL     OW17216   8.734  10.635   4.530 -0.3491  0.2814 -0.7156
37875SOL    HW117217   8.766  10.724   4.545  2.0981 -0.5977 -0.2333
37875SOL    HW217218   8.781  10.582   4.594 -2.7215 -1.2473 -0.0914
37876SOL     OW17219   7.490   8.897   3.574 -0.0080 -0.4145  0.4318
37876SOL    HW117220   7.557   8.948   3.620 -2.0900  2.5802  0.4108
37876SOL    HW217221   7.483   8.939   3.488 -1.0142 -1.5089 -0.0398
37877SOL     OW17222   0.389   6.120   6.534  0.1133  0.1689 -0.5577
37877SOL    HW117223   0.441   6.068   6.596  3.6214  1.0096 -2.5803
37877SOL    HW217224   0.362   6.197   6.585  2.5709  0.6587  0.1048
37878SOL     OW17225   1.712   5.933   6.948  0.1986  0.3819  0.1113
37878SOL    HW117226   1.761   5.897   7.021 -1.3338  0.0336  1.0136
37878SOL    HW217227   1.632   5.880   6.944 -0.6575  1.6538 -0.5486
37879SOL     OW17228  10.311  10.570   6.068 -0.2270  0.0042  0.2856
37879SOL    HW117229  10.390  10.532   6.108 -0.6029 -3.3851 -1.7834
37879SOL    HW217230  10.344  10.621   5.994  0.0963 -0.4162  0.1369
37880SOL     OW17231   6.464   5.435   3.147 -0.1245  0.4742 -0.1365
37880SOL    HW117232   6.478   5.470   3.060 -1.3865  0.4978 -0.3557
37880SOL    HW217233   6.476   5.510   3.206  1.9863  0.1915 -0.1410
37881SOL     OW17234   5.761   1.487   9.689  0.2030 -0.8528  0.1525
37881SOL    HW117235   5.683   1.544   9.694  1.0277  0.4257 -0.9501
37881SOL    HW217236   5.726   1.402   9.662 -0.8478 -0.3782 -0.0625
37882SOL     OW17237   2.123   0.568   4.069 -0.3049  0.5047 -0.4581
37882SOL    HW117238   2.104   0.639   4.008  1.0988  0.5475 -0.8666
37882SOL    HW217239   2.205   0.592   4.110 -0.5287 -0.2034  0.4474
37883SOL     OW17240   7.649   5.556   5.035  0.1615  0.7904 -0.0893
37883SOL    HW117241   7.681   5.633   5.083 -0.4132  1.0522 -0.1209
37883SOL    HW217242   7.678   5.570   4.945  1.0295  0.4195  0.1262
37884SOL     OW17243   7.760   9.792  10.649 -0.3948  0.5692 -0.5637
37884SOL    HW117244   7.836   9.849  10.651  1.4698 -1.7774 -0.3559
37884SOL    HW217245   7.758   9.758  10.559 -1.0211  0.3656 -0.4797
37885SOL     OW17246   6.330   2.659   5.697  0.3428  0.2161 -0.8517
37885SOL    HW117247   6.272   2.692   5.627 -1.7930  0.1110  0.7637
37885SOL    HW217248   6.340   2.734   5.756  0.9842 -0.0995 -0.5571
37886SOL     OW17249   7.088   9.969  10.698  0.1761  0.3291 -0.0549
37886SOL    HW117250   7.167   9.993  10.748 -0.3066 -0.1184  0.9455
37886SOL    HW217251   7.016  10.008  10.748 -0.2760  0.4105 -0.7593
37887SOL     OW17252   3.750  10.942   5.041  0.2227  0.6568 -0.1392
37887SOL    HW117253   3.808  10.937   5.117  0.6696  1.0754 -0.4438
37887SOL    HW217254   3.792  10.887   4.975 -1.0079 -1.0522  0.4320
37888SOL     OW17255   9.437   4.806   5.372  0.1431  0.0019 -0.4632
37888SOL    HW117256   9.435   4.837   5.281  0.5780  0.5815 -0.2874
37888SOL    HW217257   9.423   4.712   5.366  0.1273  0.0420 -1.1312
37889SOL     OW17258   6.453   2.170   6.167  0.0658 -0.2294  0.5918
37889SOL    HW117259   6.386   2.139   6.229 -0.2378 -2.2112 -0.6191
37889SOL    HW217260   6.508   2.229   6.218 -1.9746  0.6433  1.9002
37890SOL     OW17261   6.050  10.089   0.654 -0.2447  0.5071  0.0246
37890SOL    HW117262   6.066  10.183   0.669  1.0814  0.3211 -0.1124
37890SOL    HW217263   6.129  10.046   0.687 -1.5545 -0.7396  1.7338
37891SOL     OW17264  10.131   6.531  10.989 -0.6464  0.2021  0.4234
37891SOL    HW117265  10.081   6.580  10.924  0.6707 -1.1957 -1.7695
37891SOL    HW217266  10.065   6.481  11.038 -1.5145 -1.3189 -2.1427
37892SOL     OW17267   9.616   5.368   9.331  0.8252 -0.4951 -0.5635
37892SOL    HW117268   9.639   5.438   9.393  1.1971 -1.7319  0.7613
37892SOL    HW217269   9.700   5.342   9.293  1.3338 -2.6648  1.7170
37893SOL     OW17270   2.665   9.085   6.481 -0.7621  0.0287 -0.4259
37893SOL    HW117271   2.712   9.040   6.550 -1.6306 -0.1489  0.0658
37893SOL    HW217272   2.574   9.086   6.511 -1.2755 -0.6604 -1.8753
37894SOL     OW17273   0.870   7.527   4.808  0.5738  0.9773 -0.3428
37894SOL    HW117274   0.945   7.466   4.802 -0.1114  0.0916 -0.1252
37894SOL    HW217275   0.871   7.556   4.899 -0.8387 -1.0435  0.3966
37895SOL     OW17276   5.406   9.261   3.788  0.0650 -0.3009  0.0496
37895SOL    HW117277   5.429   9.216   3.870  1.0004 -1.0427 -0.6016
37895SOL    HW217278   5.382   9.350   3.816 -1.2134 -0.9875  1.2943
37896SOL     OW17279   3.562   4.305  10.502 -0.0031  0.7167 -0.3197
37896SOL    HW117280   3.529   4.347  10.422  2.0492 -0.0307 -1.6299
37896SOL    HW217281   3.625   4.367  10.537 -0.5074  0.8014  0.4654
37897SOL     OW17282   7.934   4.158  10.960  0.1200 -0.2740  0.1095
37897SOL    HW117283   7.916   4.102  10.884 -0.2942  0.1907 -0.1425
37897SOL    HW217284   7.981   4.233  10.924  0.6405 -0.4355  0.4397
37898SOL     OW17285  10.168   0.442   8.836 -0.1302  0.0202 -0.0382
37898SOL    HW117286  10.116   0.362   8.836  0.2731 -0.2502  0.0961
37898SOL    HW217287  10.137   0.491   8.912  1.0178 -0.9576  1.1141
37899SOL     OW17288   9.089   5.771   1.375  0.9918 -0.4362  0.4607
37899SOL    HW117289   9.176   5.734   1.394  1.1688  0.0452  0.6097
37899SOL    HW217290   9.032   5.695   1.365  1.0859 -0.7393  2.0159
37900SOL     OW17291   0.245   0.086   7.810 -0.2203  0.5834  0.1113
37900SOL    HW117292   0.237   0.143   7.886 -0.4254 -0.3114  0.7725
37900SOL    HW217293   0.323   0.117   7.764  0.4010  0.5784  1.1518
37901SOL     OW17294   2.672   9.210   0.705  0.3684 -0.2995  0.5138
37901SOL    HW117295   2.718   9.293   0.720 -0.7682  0.2822  0.8524
37901SOL    HW217296   2.615   9.228   0.631  0.3935 -0.9062  0.3457
37902SOL     OW17297   8.300   6.738   6.660 -0.4685 -0.8059  0.0499
37902SOL    HW117298   8.277   6.646   6.676  0.5401 -1.1864 -0.6165
37902SOL    HW217299   8.265   6.756   6.572 -2.1789 -0.0149  0.8409
37903SOL     OW17300   2.437   9.641   6.140 -0.1203  0.1187  0.0801
37903SOL    HW117301   2.420   9.658   6.232  0.3481 -0.5788  0.3020
37903SOL    HW217302   2.434   9.546   6.132  0.0286  0.1646 -0.5898
37904SOL     OW17303   6.495   5.100   9.858 -0.7116 -0.0372 -0.0387
37904SOL    HW117304   6.468   5.012   9.832  1.0590 -0.4297 -0.6479
37904SOL    HW217305   6.583   5.089   9.893 -0.7059  1.4110  0.4592
37905SOL     OW17306   6.833   2.683   0.221 -1.1081  0.2545  0.7669
37905SOL    HW117307   6.737   2.677   0.217 -1.1573  1.4313 -0.8232
37905SOL    HW217308   6.860   2.605   0.270 -2.7868 -0.9434 -0.1237
37906SOL     OW17309   9.633   6.820   7.350  0.6536 -0.0372  0.3649
37906SOL    HW117310   9.612   6.913   7.356  2.9786  0.5079  1.1222
37906SOL    HW217311   9.646   6.805   7.257 -2.5999 -0.3814 -0.1350
37907SOL     OW17312   1.231   3.451   3.755 -0.3471 -0.1718 -0.0977
37907SOL    HW117313   1.192   3.538   3.748  1.6225  0.7363 -0.8024
37907SOL    HW217314   1.288   3.457   3.832  3.5417  0.9280 -2.7369
37908SOL     OW17315   2.889   0.311   1.190 -0.4192 -0.0959 -0.4656
37908SOL    HW117316   2.829   0.239   1.207 -1.8345  1.0461 -0.4574
37908SOL    HW217317   2.894   0.315   1.095  1.8360 -1.8963 -0.5102
37909SOL     OW17318   0.422   7.206   4.515 -0.0370  0.4313 -0.0424
37909SOL    HW117319   0.476   7.191   4.593  0.6773  0.6611 -0.4900
37909SOL    HW217320   0.362   7.131   4.514  0.5121 -0.0245  0.2566
37910SOL     OW17321   4.911   1.487  10.393  0.0346 -0.3144  0.1984
37910SOL    HW117322   5.006   1.480  10.403 -0.1234 -0.4912  1.9388
37910SOL    HW217323   4.883   1.400  10.365  0.4374 -0.0683 -1.0248
37911SOL     OW17324   5.827  10.566   8.837 -0.2177 -0.2390  0.7108
37911SOL    HW117325   5.802  10.484   8.797 -0.6353 -1.5276  3.3685
37911SOL    HW217326   5.761  10.629   8.807  0.1201 -0.7987 -1.3645
37912SOL     OW17327   0.564   5.054   4.230 -0.7091 -0.1711 -0.0239
37912SOL    HW117328   0.501   4.983   4.214 -1.2255  0.3005 -0.1197
37912SOL    HW217329   0.515   5.117   4.283  0.3723 -0.8263  1.8293
37913SOL     OW17330   7.563   4.242   4.491  0.1098 -0.2075 -0.2706
37913SOL    HW117331   7.606   4.198   4.417  0.7827  0.9961 -0.6316
37913SOL    HW217332   7.500   4.178   4.524  1.8821 -1.8952  0.0152
37914SOL     OW17333  11.010   8.332   2.632 -0.3507 -0.0565  0.1479
37914SOL    HW117334  11.104   8.332   2.647 -0.0677 -1.5834 -1.3431
37914SOL    HW217335  10.989   8.421   2.606  0.8230  0.0974 -0.2894
37915SOL     OW17336   7.171   2.639   6.645  0.7898 -0.4350  0.1286
37915SOL    HW117337   7.188   2.632   6.739 -0.0630 -1.5429  0.2184
37915SOL    HW217338   7.130   2.556   6.621 -0.3961  0.4130 -0.9288
37916SOL     OW17339   5.997   8.383   0.220  0.2378  0.1164 -0.5527
37916SOL    HW117340   6.073   8.433   0.251  1.4121 -1.1309 -1.3145
37916SOL    HW217341   5.966   8.336   0.298  0.7854 -0.0328 -0.4222
37917SOL     OW17342   0.197   3.978   3.021  0.0810  0.0100  0.0515
37917SOL    HW117343   0.207   3.964   2.927  0.1969 -0.6247  0.1528
37917SOL    HW217344   0.111   4.018   3.030  0.9330  2.1027 -0.5080
37918SOL     OW17345   9.503   1.093   9.476 -0.0718 -0.5896 -0.3850
37918SOL    HW117346   9.585   1.055   9.445 -0.7808 -2.5661 -0.0163
37918SOL    HW217347   9.436   1.028   9.453 -1.4639  0.6809 -0.1387
37919SOL     OW17348   0.461   1.028   9.900 -0.0536  0.6343 -0.3251
37919SOL    HW117349   0.532   0.986   9.949  0.4308  1.0305 -0.6754
37919SOL    HW217350   0.424   0.957   9.847  0.6524  0.6009 -0.7888
37920SOL     OW17351   0.136   0.972   9.538 -0.6173  0.4307  0.1201
37920SOL    HW117352   0.141   1.031   9.463 -3.7884  0.3985 -0.2749
37920SOL    HW217353   0.060   0.916   9.519  0.2408 -1.5328  2.0411
37921SOL     OW17354   3.701   1.451   8.735 -0.1522  0.1455 -0.4907
37921SOL    HW117355   3.648   1.373   8.751 -1.7099  1.0236 -1.1653
37921SOL    HW217356   3.789   1.417   8.717 -0.3141 -1.3075  1.2622
37922SOL     OW17357  11.057   5.553   9.946  0.2638 -0.1528 -0.4614
37922SOL    HW117358  10.973   5.509   9.955  0.7876 -1.1081 -0.0578
37922SOL    HW217359  11.069   5.562   9.852 -0.5025  0.4218 -0.5120
37923SOL     OW17360   5.488   4.258   8.844 -0.2555 -0.0928 -0.4779
37923SOL    HW117361   5.396   4.233   8.844  0.1731 -1.8112 -1.1815
37923SOL    HW217362   5.497   4.319   8.770 -0.7422 -0.1998 -0.6239
37924SOL     OW17363   4.611  10.188   8.225 -0.0860 -0.2472 -0.5005
37924SOL    HW117364   4.531  10.188   8.277  0.3627 -0.4904  0.2014
37924SOL    HW217365   4.649  10.275   8.239 -0.1316 -0.1988 -0.6772
37925SOL     OW17366   0.468   6.538   2.316  0.4987  0.4324  0.9536
37925SOL    HW117367   0.454   6.512   2.225  2.1122 -0.0327  0.8210
37925SOL    HW217368   0.423   6.622   2.324 -0.8990 -0.1990  0.1440
37926SOL     OW17369   2.304   1.818   7.116 -0.1913 -0.0052  0.1935
37926SOL    HW117370   2.359   1.762   7.171  0.6689 -0.3701 -0.9807
37926SOL    HW217371   2.362   1.846   7.045 -1.5004 -0.3698 -1.0752
37927SOL     OW17372   6.324  10.895   3.663 -0.1299  0.0949  0.2941
37927SOL    HW117373   6.319  10.956   3.736  0.4243 -0.6570  0.9730
37927SOL    HW217374   6.305  10.810   3.701 -0.0054 -0.2870 -0.4712
37928SOL     OW17375  11.062   0.450   0.096 -0.0684 -0.2407 -0.1782
37928SOL    HW117376  11.091   0.492   0.015  1.4718  0.4071  0.6701
37928SOL    HW217377  10.975   0.486   0.112  0.5232  1.3414 -0.3762
37929SOL     OW17378   7.984   2.639   9.681  0.9472  0.1556 -0.1262
37929SOL    HW117379   7.923   2.633   9.608 -0.5573 -1.7779  1.1798
37929SOL    HW217380   7.954   2.714   9.731 -0.0677 -0.4551  0.2109
37930SOL     OW17381   0.779   3.375   9.247  0.0238  0.4142 -0.2707
37930SOL    HW117382   0.852   3.324   9.210  0.0771  1.0571 -1.0791
37930SOL    HW217383   0.744   3.320   9.317  1.7299  0.3807  0.6059
37931SOL     OW17384   2.081   6.836   0.396 -0.0822  0.1198  0.7891
37931SOL    HW117385   1.996   6.850   0.356  0.2806  1.6445  0.4790
37931SOL    HW217386   2.074   6.750   0.439 -0.6559 -1.3612 -2.0440
37932SOL     OW17387   3.926   2.497   2.323  0.4777  0.1461 -0.3403
37932SOL    HW117388   3.928   2.428   2.256  0.6838 -0.4573  0.2781
37932SOL    HW217389   3.834   2.525   2.325 -0.1001 -1.6423  0.9134
37933SOL     OW17390   7.105   2.091   9.238 -0.0336  0.6189 -0.4085
37933SOL    HW117391   7.183   2.035   9.244  0.3354  1.2842  2.3134
37933SOL    HW217392   7.105   2.121   9.147  2.6256  0.2080 -0.6346
37934SOL     OW17393   9.344   7.293  10.122 -0.5381  0.0176 -0.5368
37934SOL    HW117394   9.393   7.369  10.153  1.5748 -0.2465 -2.8962
37934SOL    HW217395   9.330   7.240  10.201  1.6214  0.9180  0.5388
37935SOL     OW17396   3.678   2.735   6.523  0.2369 -0.0861 -0.1788
37935SOL    HW117397   3.708   2.660   6.471 -0.0421 -1.1711  1.1677
37935SOL    HW217398   3.598   2.704   6.565  1.0539  0.3339  1.7902
37936SOL     OW17399   3.582   6.069   4.058 -0.8690  0.2101 -0.6735
37936SOL    HW117400   3.650   6.037   4.118 -1.5400 -1.3075 -0.6776
37936SOL    HW217401   3.630   6.093   3.979  0.0042  2.0251  0.3549
37937SOL     OW17402   4.973   7.262   4.908  0.4108  1.0065  0.0685
37937SOL    HW117403   4.954   7.177   4.867  1.2754  0.8463 -0.0314
37937SOL    HW217404   4.902   7.319   4.879  1.3166  1.0928 -2.2465
37938SOL     OW17405   6.130  10.996   5.088 -0.1320 -0.8339  0.4826
37938SOL    HW117406   6.089  11.082   5.093  0.4177 -0.4137 -1.5561
37938SOL    HW217407   6.206  11.002   5.148 -0.3283 -0.0533  0.6607
37939SOL     OW17408   8.921   8.567  10.586 -0.1430 -0.5697  0.3677
37939SOL    HW117409   8.933   8.609  10.671  0.4727  1.8567 -0.8386
37939SOL    HW217410   9.009   8.552  10.553 -0.3217  0.8423 -0.8697
37940SOL     OW17411   4.381   9.106   6.326  0.2953  0.3637 -0.1811
37940SOL    HW117412   4.394   9.018   6.291  0.8716  0.4351 -0.1495
37940SOL    HW217413   4.463   9.128   6.370  0.1361  0.8949 -0.1329
37941SOL     OW17414   2.917   1.380   8.539  0.0082  0.3305  0.2845
37941SOL    HW117415   2.882   1.331   8.613 -0.4361  1.9813  1.2231
37941SOL    HW217416   2.982   1.322   8.500 -2.6152 -2.2858 -0.6281
37942SOL     OW17417   7.177   6.604   0.186 -0.5866  0.0459  0.1829
37942SOL    HW117418   7.105   6.666   0.174  0.8928  1.5822 -1.1431
37942SOL    HW217419   7.255   6.658   0.191  0.6204 -1.6494  0.3857
37943SOL     OW17420   7.517   8.485   7.780 -0.6430 -0.2917  0.0576
37943SOL    HW117421   7.443   8.474   7.839 -0.7869  1.7553  0.3513
37943SOL    HW217422   7.483   8.541   7.709  0.2067 -0.6223 -0.6356
37944SOL     OW17423   8.903   6.616  10.409  0.3581  0.0152 -0.1953
37944SOL    HW117424   8.887   6.673  10.484 -0.7393 -2.2323  1.3896
37944SOL    HW217425   8.913   6.528  10.447  1.1685 -1.0059 -2.5691
37945SOL     OW17426   3.029   1.350   6.284  0.1948  0.1275 -0.5313
37945SOL    HW117427   3.110   1.399   6.300  0.9386 -0.5350 -2.0406
37945SOL    HW217428   3.013   1.360   6.191 -0.1072 -1.7551 -0.7274
37946SOL     OW17429   9.250   7.603   0.752  0.1359  0.3444  0.1635
37946SOL    HW117430   9.290   7.535   0.698 -0.2261 -0.8698  1.3774
37946SOL    HW217431   9.323   7.638   0.804  0.2736  0.7144 -0.2715
37947SOL     OW17432   8.502   2.515   2.629 -0.3181 -0.2964 -0.0124
37947SOL    HW117433   8.413   2.497   2.660 -1.6352 -0.1679 -3.2428
37947SOL    HW217434   8.544   2.429   2.625 -0.2731 -0.3617  1.5190
37948SOL     OW17435   5.541   8.827   9.057  0.0975  0.1754  0.0792
37948SOL    HW117436   5.582   8.811   9.143 -2.0270 -0.8805  0.9543
37948SOL    HW217437   5.501   8.744   9.033 -0.3271  0.7769 -1.4135
37949SOL     OW17438   2.420   9.448  10.870 -0.0913 -0.1978  0.2570
37949SOL    HW117439   2.494   9.443  10.930 -0.1122 -0.8429  0.2367
37949SOL    HW217440   2.387   9.358  10.865 -0.5421 -0.0141 -0.1479
37950SOL     OW17441   5.005   2.546  10.026  0.4010 -0.1671  0.7062
37950SOL    HW117442   5.089   2.589  10.009 -0.8766  2.9843  1.6382
37950SOL    HW217443   4.963   2.601  10.092 -2.1326 -2.0362  0.8035
37951SOL     OW17444  10.180  10.182   7.902 -0.0040 -0.1172 -0.0778
37951SOL    HW117445  10.257  10.189   7.959  0.6395  1.6936 -1.0823
37951SOL    HW217446  10.216  10.183   7.814 -1.1428 -0.0013 -0.5509
37952SOL     OW17447   4.540   9.443  10.492  0.0663 -0.3335  0.3940
37952SOL    HW117448   4.515   9.387  10.565 -1.0068  0.5976  0.7600
37952SOL    HW217449   4.626   9.410  10.465  0.0133 -1.3435  1.3972
37953SOL     OW17450   4.210   5.067   3.409 -0.4150 -0.6522  0.7698
37953SOL    HW117451   4.296   5.075   3.369 -0.4052  1.5279  1.0759
37953SOL    HW217452   4.148   5.087   3.339 -0.5618 -0.3692  0.9739
37954SOL     OW17453   5.184   1.425   9.527 -0.0419  0.8363  0.0811
37954SOL    HW117454   5.255   1.487   9.512  1.7943 -1.2629 -0.5010
37954SOL    HW217455   5.152   1.404   9.439  0.0963  0.1789  0.1806
37955SOL     OW17456  10.402   7.166   0.539 -0.7405  0.1384 -0.0522
37955SOL    HW117457  10.399   7.261   0.530 -1.8180  0.2149  0.9008
37955SOL    HW217458  10.314   7.141   0.565 -0.5265 -1.1552 -0.4766
37956SOL     OW17459   3.095   9.164   8.272  0.2581 -0.2581  0.2508
37956SOL    HW117460   3.070   9.137   8.360  0.9647 -3.1256 -0.3441
37956SOL    HW217461   3.187   9.188   8.280 -0.1998  1.5836  0.6381
37957SOL     OW17462   2.457   9.538   2.182  0.1199  0.4788 -0.6155
37957SOL    HW117463   2.370   9.519   2.216 -0.7802  0.6571 -2.6526
37957SOL    HW217464   2.444   9.615   2.127  1.2649 -0.3326 -2.0865
37958SOL     OW17465   6.359   7.913  10.243 -0.3913  0.0713 -0.1946
37958SOL    HW117466   6.345   7.933  10.336 -2.2472 -0.9696 -0.1919
37958SOL    HW217467   6.353   7.817  10.238 -2.2876  0.2097 -1.6189
37959SOL     OW17468   3.571   8.046   5.529  0.0906  0.2206  0.1677
37959SOL    HW117469   3.529   8.105   5.466  1.4795  1.3802  0.2876
37959SOL    HW217470   3.665   8.060   5.517  0.4602 -1.4746  0.6951
37960SOL     OW17471   7.907   5.837   4.912  0.3784 -0.3029 -0.1656
37960SOL    HW117472   7.932   5.911   4.967  0.6217  0.3467 -1.1367
37960SOL    HW217473   7.982   5.823   4.854 -0.6024  0.2436 -1.6109
37961SOL     OW17474   1.760   4.658   1.180 -0.0030 -0.3934  0.4904
37961SOL    HW117475   1.786   4.596   1.112 -0.4958 -0.1172  0.0392
37961SOL    HW217476   1.840   4.705   1.202  0.5496 -1.7386  1.4201
37962SOL     OW17477   2.471   4.587   4.504  0.5687 -0.2144 -0.8549
37962SOL    HW117478   2.441   4.647   4.572  0.9252  1.1476 -1.8491
37962SOL    HW217479   2.391   4.551   4.466  0.3514 -0.4012 -0.2254
37963SOL     OW17480   8.866   8.841   3.731 -0.4296  0.2302 -0.1830
37963SOL    HW117481   8.925   8.841   3.655 -0.8071 -0.6253 -0.4911
37963SOL    HW217482   8.869   8.930   3.764  0.4896  0.3727 -0.6255
37964SOL     OW17483   1.330   4.080   4.896  0.0083  0.7518 -0.0887
37964SOL    HW117484   1.276   4.017   4.848 -0.3389  0.4863  0.6357
37964SOL    HW217485   1.401   4.100   4.836 -0.9361  1.1803 -1.1044
37965SOL     OW17486   2.905   9.275  10.849  0.3710  0.2041 -0.1015
37965SOL    HW117487   2.821   9.312  10.877  0.1971  1.2977 -1.8743
37965SOL    HW217488   2.883   9.220  10.774  0.8651 -2.2663  1.4603
37966SOL     OW17489  10.732   9.947   4.426  0.1873  0.1884  0.5606
37966SOL    HW117490  10.682   9.875   4.465  1.5349 -1.7922 -1.1695
37966SOL    HW217491  10.665  10.004   4.387 -0.8422 -1.1151  0.3622
37967SOL     OW17492   2.539   1.797  10.146 -0.0652 -0.2173  0.2060
37967SOL    HW117493   2.572   1.774  10.233 -1.6322  0.2769  0.9699
37967SOL    HW217494   2.609   1.773  10.086  0.6762 -1.4476  1.5183
37968SOL     OW17495   4.190   8.599   0.787 -0.4269  0.8022  0.0000
37968SOL    HW117496   4.210   8.690   0.808  0.1646  0.3297  1.6386
37968SOL    HW217497   4.122   8.574   0.850  1.3310 -0.6347  1.4602
37969SOL     OW17498   8.762   3.070   5.207 -0.3602 -0.3969  0.3686
37969SOL    HW117499   8.834   3.132   5.196  1.6464 -1.8220  3.7954
37969SOL    HW217500   8.794   2.989   5.168 -0.4064 -0.8217  1.1836
37970SOL     OW17501   3.222   4.103   1.130  0.1310 -0.3987 -0.6524
37970SOL    HW117502   3.219   4.008   1.139 -0.3291 -0.2245  1.6305
37970SOL    HW217503   3.130   4.129   1.124 -0.0579  0.0850  2.4535
37971SOL     OW17504   0.052   3.874   3.586  0.0798  0.4368 -0.0399
37971SOL    HW117505  -0.003   3.937   3.539  1.6682  0.5177 -1.9606
37971SOL    HW217506   0.045   3.793   3.535 -0.7440 -0.5239  1.5340
37972SOL     OW17507   0.940   9.693   3.658  0.2225  0.6561  0.4868
37972SOL    HW117508   1.029   9.661   3.646  0.5627  1.7080  0.0644
37972SOL    HW217509   0.893   9.669   3.578 -0.1401 -0.6876  1.0765
37973SOL     OW17510   7.624   6.312   2.274  0.1756  0.1377 -0.2967
37973SOL    HW117511   7.559   6.266   2.221  1.1804  0.2529 -1.6764
37973SOL    HW217512   7.632   6.259   2.353  2.9881 -3.6048 -2.7236
37974SOL     OW17513  10.911   2.998   3.788  0.1675  0.1036 -0.0782
37974SOL    HW117514  10.857   2.965   3.861  0.4574  0.0237  0.1014
37974SOL    HW217515  10.971   3.060   3.829  1.2998 -0.9960 -0.0016
37975SOL     OW17516  11.007   4.118   8.469 -0.1889 -0.0610 -0.3171
37975SOL    HW117517  11.085   4.080   8.428  0.4153 -0.5227  1.1673
37975SOL    HW217518  10.960   4.160   8.397  2.0860  1.3796 -1.0897
37976SOL     OW17519   0.462   7.954   0.125  0.0281 -0.1798  0.4772
37976SOL    HW117520   0.540   7.901   0.106 -0.4970 -0.8508  0.1778
37976SOL    HW217521   0.462   7.963   0.220  0.5442 -0.0608  0.4703
37977SOL     OW17522  10.272   7.106   9.286 -0.0448  0.5795  0.1268
37977SOL    HW117523  10.182   7.126   9.310 -0.8216 -1.7894 -0.5716
37977SOL    HW217524  10.267   7.073   9.197  1.0745 -2.1798  0.9947
37978SOL     OW17525  10.063   0.521  10.797  0.0290  0.2044 -0.7460
37978SOL    HW117526   9.994   0.541  10.734 -1.0972  0.2960  0.4768
37978SOL    HW217527  10.095   0.607  10.826 -0.6864  0.2080  0.0885
37979SOL     OW17528   2.528   3.107   4.678  0.3795 -0.3026 -0.3791
37979SOL    HW117529   2.584   3.147   4.745  0.2624  0.0897 -0.5127
37979SOL    HW217530   2.577   3.116   4.597  0.4992 -0.7347 -0.3580
37980SOL     OW17531  10.959   7.236  10.131 -0.2968 -0.4135 -0.2663
37980SOL    HW117532  10.884   7.285  10.165  0.0482  0.4270 -0.6936
37980SOL    HW217533  10.972   7.165  10.194  0.3721  1.1391  1.4034
37981SOL     OW17534   1.663  10.441   4.256 -0.3187  0.2629  0.6508
37981SOL    HW117535   1.720  10.405   4.324  0.7339  0.8291  0.0837
37981SOL    HW217536   1.628  10.363   4.212  1.7027 -0.1576 -0.3680
37982SOL     OW17537  11.085   4.270   0.080 -0.3703 -0.1191 -0.2107
37982SOL    HW117538  11.117   4.358   0.060  2.4997 -1.2577 -0.9954
37982SOL    HW217539  11.070   4.272   0.175 -0.0701  1.1013 -0.1631
37983SOL     OW17540   3.988   7.404  11.063 -0.2685  0.5911 -0.9558
37983SOL    HW117541   4.007   7.451  10.982 -0.4050  1.0247 -0.7360
37983SOL    HW217542   3.984   7.312  11.037  1.6301  0.5137 -1.1147
37984SOL     OW17543   1.729   3.452   8.169 -0.2743  0.1067 -0.5869
37984SOL    HW117544   1.815   3.494   8.163  0.0696 -0.5430 -0.2285
37984SOL    HW217545   1.747   3.364   8.200 -1.1013  0.0667 -0.2025
37985SOL     OW17546   2.239   4.423  10.012 -0.0503  0.6403 -0.5733
37985SOL    HW117547   2.293   4.348   9.989  2.5836  1.4108  2.3080
37985SOL    HW217548   2.266   4.492   9.952  0.4495  0.3644 -0.6660
37986SOL     OW17549   7.721   9.999   5.217 -0.3407 -0.3879 -0.2449
37986SOL    HW117550   7.664  10.070   5.188 -1.6812 -0.9288  0.9820
37986SOL    HW217551   7.711   9.997   5.312  2.2392 -0.1033  0.1107
37987SOL     OW17552   1.293   7.881   0.618 -0.3527 -0.2808  0.1106
37987SOL    HW117553   1.241   7.827   0.678 -0.1661 -0.3693  0.1974
37987SOL    HW217554   1.325   7.819   0.552 -0.0731 -0.2929  0.2552
37988SOL     OW17555   5.013   1.593   3.500 -0.0153 -0.2810  0.3283
37988SOL    HW117556   4.955   1.578   3.575 -0.0176 -0.5405  0.2731
37988SOL    HW217557   5.017   1.688   3.492 -0.7897 -0.2691  0.0498
37989SOL     OW17558   0.832   7.312   5.611 -0.3151 -0.3515  0.0808
37989SOL    HW117559   0.921   7.277   5.607  0.0669  0.6225 -0.2606
37989SOL    HW217560   0.798   7.301   5.522  0.7870  2.5445 -0.8064
37990SOL     OW17561   1.569   0.110   3.276 -0.2520  0.7504  0.1051
37990SOL    HW117562   1.519   0.106   3.358  0.8818 -0.3783  0.7804
37990SOL    HW217563   1.646   0.056   3.292 -0.1628  0.2177 -1.8330
37991SOL     OW17564   9.746   7.353   6.257 -0.3071  0.1883 -0.4506
37991SOL    HW117565   9.759   7.262   6.285 -1.2058  0.9789  2.8372
37991SOL    HW217566   9.659   7.353   6.216  0.4778 -0.7164 -2.2746
37992SOL     OW17567   2.956   2.756   1.815 -0.3663  0.3242 -0.1825
37992SOL    HW117568   2.970   2.755   1.721 -0.8582  0.3643 -0.2632
37992SOL    HW217569   2.862   2.740   1.825 -0.4579  1.0744  0.2641
37993SOL     OW17570   2.069   0.206   2.858  1.1021 -0.2852 -0.1019
37993SOL    HW117571   2.026   0.148   2.921  0.0131 -0.4240 -0.9463
37993SOL    HW217572   2.067   0.158   2.775  0.9255  0.6129 -0.6340
37994SOL     OW17573  10.495   1.210   3.773 -0.1891  0.1646  0.4662
37994SOL    HW117574  10.460   1.124   3.795  0.6109 -0.3579 -0.2564
37994SOL    HW217575  10.557   1.194   3.702  0.1540  1.3045  0.4839
37995SOL     OW17576   6.441   1.023   3.234 -0.1331 -0.1822  0.3219
37995SOL    HW117577   6.407   1.112   3.239 -0.7409 -0.3308 -0.7608
37995SOL    HW217578   6.535   1.034   3.221  0.1887  0.2435  2.6449
37996SOL     OW17579   9.055   7.952   7.860  0.0009  0.4483  0.2206
37996SOL    HW117580   9.024   7.991   7.942 -0.4537 -0.3168  0.4317
37996SOL    HW217581   9.107   7.876   7.889 -1.5429 -0.8237 -0.2018
37997SOL     OW17582  10.214   7.880   7.884  0.0137 -0.0266  0.3154
37997SOL    HW117583  10.153   7.899   7.955 -1.4294 -0.9722 -0.6117
37997SOL    HW217584  10.192   7.791   7.857 -0.0335  0.5730 -1.8170
37998SOL     OW17585   0.240  10.490   4.084  0.6049  0.1037 -0.0373
37998SOL    HW117586   0.226  10.424   4.016  0.9247 -1.1293  1.0502
37998SOL    HW217587   0.154  10.526   4.102  0.7150  1.7398 -2.2886
37999SOL     OW17588   0.933   1.019   1.215  0.2068 -0.2764 -0.0085
37999SOL    HW117589   0.868   0.999   1.148 -1.2595 -0.1036  1.3088
37999SOL    HW217590   0.996   1.076   1.171 -0.5819 -0.3544 -1.2901
38000SOL     OW17591   2.202  10.637   1.350  0.7615  0.0903 -0.2070
38000SOL    HW117592   2.244  10.595   1.276  2.1412 -0.4251  0.8233
38000SOL    HW217593   2.238  10.726   1.351 -2.3219  1.5668 -2.5224
38001SOL     OW17594   1.122   7.470   6.528 -0.1128 -0.2015  0.0183
38001SOL    HW117595   1.049   7.481   6.466  0.3730 -2.3543 -0.9963
38001SOL    HW217596   1.190   7.529   6.495 -1.0554  1.2245  0.5157
38002SOL     OW17597  10.522   4.146   7.926 -0.0409 -0.1637 -0.8228
38002SOL    HW117598  10.538   4.237   7.902 -1.5192  0.1337 -0.7673
38002SOL    HW217599  10.607   4.113   7.954  0.7203  0.8959 -1.8182
38003SOL     OW17600   6.520   7.510   4.271 -0.3184 -0.0932 -0.1372
38003SOL    HW117601   6.508   7.570   4.198  1.2990 -2.4848 -2.5748
38003SOL    HW217602   6.440   7.457   4.272 -1.3464  1.3919  1.4230
38004SOL     OW17603   9.256   8.073   8.753 -0.2276  0.9996 -0.7693
38004SOL    HW117604   9.211   8.155   8.730 -1.2945  0.5045 -0.4790
38004SOL    HW217605   9.189   8.020   8.795  0.8277  0.5320  0.3555
38005SOL     OW17606   3.688   6.158   3.810  0.0048  0.5928 -0.0174
38005SOL    HW117607   3.771   6.186   3.772 -0.3533 -0.3120 -1.5509
38005SOL    HW217608   3.668   6.075   3.767 -1.7520  0.8515  0.2096
38006SOL     OW17609   1.870   5.620   1.185  0.2830 -0.6287  0.3007
38006SOL    HW117610   1.828   5.650   1.265  0.2480 -2.5537  1.0619
38006SOL    HW217611   1.842   5.682   1.118  1.6985  2.0729  2.0478
38007SOL     OW17612   9.877   9.928   9.597 -0.1559 -0.7445 -0.0983
38007SOL    HW117613   9.951   9.939   9.656 -0.0992 -2.8083  0.2980
38007SOL    HW217614   9.911   9.949   9.510  0.4641 -0.1831  0.2788
38008SOL     OW17615   9.434   5.749   6.510 -0.5358 -0.2731 -0.1037
38008SOL    HW117616   9.525   5.727   6.492 -1.1563 -0.6252 -3.2310
38008SOL    HW217617   9.428   5.843   6.492 -0.9023 -0.3362 -0.3046
38009SOL     OW17618  10.630   8.346   1.089 -0.0274 -0.5030 -0.1476
38009SOL    HW117619  10.586   8.430   1.078 -1.9411 -1.6021 -1.3189
38009SOL    HW217620  10.714   8.369   1.130 -0.1504  2.0484 -1.1006
38010SOL     OW17621   5.767   6.672   7.453 -0.1521  0.4297 -0.5006
38010SOL    HW117622   5.854   6.692   7.488  0.3025 -1.8334 -0.1822
38010SOL    HW217623   5.785   6.624   7.372 -1.1521  1.5581 -1.4167
38011SOL     OW17624   4.374   5.876   8.424 -0.0496 -0.7241  0.0962
38011SOL    HW117625   4.326   5.813   8.371  0.4252 -0.9698 -0.0479
38011SOL    HW217626   4.449   5.900   8.371 -0.7282  0.7163 -0.2609
38012SOL     OW17627   3.434  10.894   2.524  0.0694 -0.0784 -0.4183
38012SOL    HW117628   3.498  10.854   2.583  0.4690  0.4321 -0.4926
38012SOL    HW217629   3.487  10.934   2.455 -0.4140 -1.1838 -1.4711
38013SOL     OW17630   2.799   6.243   8.092 -0.2954  0.1759 -0.2416
38013SOL    HW117631   2.860   6.173   8.116  0.5081  1.0464  0.3609
38013SOL    HW217632   2.720   6.225   8.142  1.0279  1.4632  2.5544
38014SOL     OW17633   3.435   9.188   6.283 -0.0323 -0.2380  0.0508
38014SOL    HW117634   3.472   9.117   6.230 -1.3429  0.5415 -2.0799
38014SOL    HW217635   3.356   9.150   6.322 -0.0543 -0.3213 -0.0731
38015SOL     OW17636   1.895   4.437  10.728  0.1932 -0.5752 -0.4207
38015SOL    HW117637   1.833   4.437  10.655 -1.2561 -0.1101  0.7468
38015SOL    HW217638   1.940   4.521  10.722 -2.2865  0.9682  1.0588
38016SOL     OW17639   3.157   2.886   9.135 -0.5814  0.2186 -0.2980
38016SOL    HW117640   3.095   2.820   9.167 -0.7918  1.3004  1.6548
38016SOL    HW217641   3.243   2.844   9.144 -0.6487  0.3793  1.6039
38017SOL     OW17642   1.083   1.074   7.055  0.4472 -1.0513 -0.0795
38017SOL    HW117643   1.070   0.980   7.048  0.5471 -0.9633 -1.5599
38017SOL    HW217644   1.149   1.096   6.989  2.5395 -0.3194  2.0960
38018SOL     OW17645   8.211   9.420   9.091 -0.4855  0.4327 -0.2679
38018SOL    HW117646   8.123   9.458   9.090 -1.3645 -1.4385  0.7194
38018SOL    HW217647   8.197   9.328   9.115  1.7704  0.1558  0.1900
38019SOL     OW17648   9.436   6.926   1.380 -0.1156 -0.3031  0.3937
38019SOL    HW117649   9.516   6.948   1.427  0.4294 -1.5233  0.1015
38019SOL    HW217650   9.443   6.831   1.364 -1.5729 -0.4223  0.2781
38020SOL     OW17651   8.331   2.231   5.384  0.0962  0.5762 -1.1839
38020SOL    HW117652   8.365   2.311   5.423  0.4895  0.5244 -1.4075
38020SOL    HW217653   8.279   2.261   5.310  0.4713  0.6206 -1.4361
38021SOL     OW17654   3.518   0.388   9.311  0.0947  0.1294  0.2254
38021SOL    HW117655   3.439   0.436   9.332 -0.7993 -1.6008  1.0037
38021SOL    HW217656   3.501   0.299   9.341  0.9749 -1.1568 -2.7236
38022SOL     OW17657   4.969   4.829   9.646 -0.2605  0.0609 -0.3002
38022SOL    HW117658   4.918   4.781   9.581 -0.0813 -0.3820 -0.1192
38022SOL    HW217659   4.966   4.920   9.617 -0.0379 -0.1585 -1.0250
38023SOL     OW17660   4.586   5.819  10.927  0.0662  0.2288 -0.2737
38023SOL    HW117661   4.648   5.879  10.887 -0.6999  1.3011  0.1225
38023SOL    HW217662   4.633   5.781  11.001 -0.0734  1.7985  0.6426
38024SOL     OW17663   8.035   4.651   0.896  0.0275  0.3534  0.0647
38024SOL    HW117664   8.041   4.593   0.819 -1.3441  1.3397 -0.8233
38024SOL    HW217665   8.085   4.728   0.871 -1.9801  1.4898 -0.6642
38025SOL     OW17666   0.256   6.545   0.007 -0.1400 -0.0399 -0.0666
38025SOL    HW117667   0.266   6.628  -0.040  1.5854 -0.3181 -0.2554
38025SOL    HW217668   0.325   6.547   0.073 -0.5240 -1.0393  0.3719
38026SOL     OW17669   7.734   5.892   2.235  0.4838  0.3591 -0.2004
38026SOL    HW117670   7.771   5.804   2.227  1.3534  0.6555  0.4473
38026SOL    HW217671   7.710   5.915   2.146 -2.2074 -1.5462 -0.1003
38027SOL     OW17672   9.409   0.648   5.979  0.2065 -0.0188  0.0309
38027SOL    HW117673   9.358   0.569   5.963  1.0852 -0.5861 -0.0422
38027SOL    HW217674   9.438   0.677   5.893 -1.4759  1.3642 -0.1382
38028SOL     OW17675  10.144   5.719   2.473 -0.0241  0.1110 -0.0041
38028SOL    HW117676  10.092   5.758   2.543 -1.6095 -0.0035 -1.0785
38028SOL    HW217677  10.181   5.794   2.426 -0.8365  0.2653 -0.4125
38029SOL     OW17678   2.226   9.930   4.113  0.4039 -0.0837 -0.2067
38029SOL    HW117679   2.252   9.848   4.072  0.6393 -0.0229 -0.1817
38029SOL    HW217680   2.306   9.963   4.153 -0.1447 -0.9538  1.7131
38030SOL     OW17681   6.046   4.106   6.212  0.0502 -0.2584 -0.2491
38030SOL    HW117682   6.019   4.182   6.264  3.6256 -0.2849  1.9774
38030SOL    HW217683   6.057   4.141   6.123 -1.0218  1.1270  0.1210
38031SOL     OW17684  10.719   5.157   5.115 -0.2449 -0.4944 -0.3545
38031SOL    HW117685  10.693   5.132   5.203 -3.1261  1.2544 -0.5833
38031SOL    HW217686  10.768   5.082   5.082  0.3871 -1.4374  2.4761
38032SOL     OW17687   9.886   2.497   5.082  0.4276  0.1464 -0.0395
38032SOL    HW117688   9.821   2.428   5.095  1.3709 -0.4590  1.7255
38032SOL    HW217689   9.850   2.572   5.131  1.3360 -0.4031  1.5305
38033SOL     OW17690   9.160   9.866   4.248  0.7198 -0.1844 -0.2463
38033SOL    HW117691   9.087   9.846   4.307  0.0656  0.9295 -0.6500
38033SOL    HW217692   9.135   9.825   4.165  1.7338 -1.9263  0.2510
38034SOL     OW17693   1.230   1.104   6.216 -0.3905 -0.3614 -0.5250
38034SOL    HW117694   1.147   1.107   6.168 -0.7997  2.3042  0.1787
38034SOL    HW217695   1.287   1.050   6.162 -2.0011 -0.7158 -1.9838
38035SOL     OW17696   2.338   0.400   4.508 -0.1593  0.5638 -0.0976
38035SOL    HW117697   2.354   0.493   4.495  0.1381  0.5964  0.4616
38035SOL    HW217698   2.285   0.395   4.588 -0.8509  0.2983 -0.5605
38036SOL     OW17699   8.390   4.811   5.189 -0.3874  0.3911  0.1399
38036SOL    HW117700   8.338   4.742   5.230  0.6054 -0.8074 -0.5553
38036SOL    HW217701   8.450   4.841   5.257 -1.1215  0.9159  0.5768
38037SOL     OW17702   8.767   7.055   9.380 -0.0129  0.0792 -0.0142
38037SOL    HW117703   8.762   7.072   9.474 -1.2840 -1.6378  0.2755
38037SOL    HW217704   8.851   7.093   9.354  1.3128 -1.0561  2.2134
38038SOL     OW17705   8.454   3.250   8.965  0.3836  0.2409  0.2099
38038SOL    HW117706   8.363   3.263   8.937  1.1955  2.0606 -1.8948
38038SOL    HW217707   8.502   3.232   8.884  1.7053 -2.5675  1.4695
38039SOL     OW17708   1.992   6.460   7.821  0.4039  0.1265 -0.2994
38039SOL    HW117709   1.946   6.543   7.805  1.0011  0.2677 -1.3293
38039SOL    HW217710   2.055   6.481   7.889  2.6398  1.3448 -2.5818
38040SOL     OW17711   2.431   3.433   5.185 -0.4200 -0.1565 -0.4412
38040SOL    HW117712   2.342   3.418   5.217 -0.3186  1.0388  0.4735
38040SOL    HW217713   2.428   3.521   5.148  0.6952  0.4642  0.8501
38041SOL     OW17714  10.536   6.142   3.978 -0.6176 -0.3119 -0.3290
38041SOL    HW117715  10.592   6.078   3.934  3.0816  1.2981  1.5682
38041SOL    HW217716  10.528   6.109   4.068  0.0620  1.0516  0.2679
38042SOL     OW17717   3.101   2.185   5.056 -0.3008  0.1679  0.2426
38042SOL    HW117718   3.117   2.176   4.962  0.1588  0.7988  0.2567
38042SOL    HW217719   3.094   2.279   5.070  0.5465  0.1287  0.9879
38043SOL     OW17720   8.261   1.065   2.237 -0.3765  0.9950  0.1214
38043SOL    HW117721   8.230   0.980   2.269 -1.0144  1.2112  0.0868
38043SOL    HW217722   8.296   1.107   2.316  1.3850  0.1018 -0.1286
38044SOL     OW17723   5.819   9.405   9.861 -0.4454  0.2440 -0.1194
38044SOL    HW117724   5.791   9.492   9.890  0.4668  0.4347  0.2317
38044SOL    HW217725   5.762   9.385   9.787 -1.2044  0.7878  0.2994
38045SOL     OW17726   0.630   3.864   9.399  0.8288  0.1833  0.2051
38045SOL    HW117727   0.610   3.916   9.477  2.5287 -0.6918  1.2675
38045SOL    HW217728   0.716   3.827   9.415 -0.3507 -3.1942 -0.3809
38046SOL     OW17729   3.315   9.843   0.206 -0.1246 -0.3462  0.4373
38046SOL    HW117730   3.269   9.759   0.192  0.9074 -1.1935  1.8052
38046SOL    HW217731   3.290   9.897   0.131 -0.9747 -1.8100 -0.3922
38047SOL     OW17732   1.255   4.885   8.611  0.1127  0.4926  0.1347
38047SOL    HW117733   1.300   4.926   8.686  1.3656 -2.4458  1.1379
38047SOL    HW217734   1.169   4.860   8.645  0.8453 -1.2507  0.8435
38048SOL     OW17735   8.822   2.455   2.104  0.4391  0.6859  0.2781
38048SOL    HW117736   8.786   2.453   2.016  0.4029  1.4840  0.2681
38048SOL    HW217737   8.809   2.545   2.134 -2.4050 -0.2316  2.2856
38049SOL     OW17738   6.540   4.961   0.607  0.1528 -0.0805  0.0253
38049SOL    HW117739   6.544   4.866   0.596 -0.2072  0.0428 -1.3191
38049SOL    HW217740   6.626   4.992   0.580  1.3283 -0.1947  3.1512
38050SOL     OW17741   3.622   1.955   9.240 -0.0206 -0.5609  0.0083
38050SOL    HW117742   3.659   1.891   9.300  0.3251  0.4846  0.9615
38050SOL    HW217743   3.695   2.012   9.216 -0.1886 -0.8646 -1.3061
38051SOL     OW17744   6.112   7.606   7.981  0.3849  0.7887  0.2981
38051SOL    HW117745   6.112   7.524   7.931 -0.0679  0.1997  1.2181
38051SOL    HW217746   6.167   7.665   7.931  0.8930 -0.1525 -0.2882
38052SOL     OW17747   5.774   9.057   9.282  0.0999  0.0058 -0.1084
38052SOL    HW117748   5.860   9.079   9.317 -0.0831 -0.8377  0.9035
38052SOL    HW217749   5.722   9.033   9.359 -0.3442 -1.8140 -0.9366
38053SOL     OW17750   3.762   4.241   7.463 -0.1552 -0.2514 -0.6245
38053SOL    HW117751   3.688   4.186   7.436 -2.2707  0.6478  2.6556
38053SOL    HW217752   3.802   4.193   7.535 -0.3183  1.1746  0.4747
38054SOL     OW17753  10.926   3.466   3.018 -0.8361  0.2437  0.1590
38054SOL    HW117754  10.866   3.522   3.067 -0.3962  1.6482 -0.8432
38054SOL    HW217755  10.885   3.456   2.932 -1.0561 -1.2735  0.4033
38055SOL     OW17756   3.862   1.194   7.569 -0.4993 -1.3092  0.6628
38055SOL    HW117757   3.883   1.126   7.505  1.0051  0.4885 -0.8606
38055SOL    HW217758   3.780   1.231   7.539  0.0321 -0.6993 -0.0828
38056SOL     OW17759   7.638   1.114   4.142  0.0374  0.0570  0.2128
38056SOL    HW117760   7.683   1.186   4.099 -1.1531  0.1988 -0.8322
38056SOL    HW217761   7.707   1.051   4.162  0.9319  1.0121  0.1834
38057SOL     OW17762   5.504   3.216   0.782  0.0947 -0.3632 -0.3742
38057SOL    HW117763   5.551   3.235   0.863 -1.4412  1.9953  0.0605
38057SOL    HW217764   5.515   3.121   0.769  2.3699 -0.3971  1.2659
38058SOL     OW17765   8.142   9.352   4.322 -0.1948  0.1457 -0.1599
38058SOL    HW117766   8.106   9.437   4.345 -0.5982  0.3835 -1.5443
38058SOL    HW217767   8.236   9.359   4.338 -0.2549  0.7915 -0.0932
38059SOL     OW17768   8.301   3.963   5.943 -0.2352  0.1124  0.3186
38059SOL    HW117769   8.267   3.877   5.967 -0.6073 -0.1292 -1.0000
38059SOL    HW217770   8.238   4.025   5.977 -0.1746 -0.1569  0.9247
38060SOL     OW17771   1.315   5.122   0.696 -0.4965 -0.7433  0.0352
38060SOL    HW117772   1.301   5.090   0.607 -0.0429 -0.6540 -0.0718
38060SOL    HW217773   1.362   5.051   0.740  0.5742 -0.2062 -0.2230
38061SOL     OW17774   9.823   2.894   8.905  0.3484  0.0830  0.1533
38061SOL    HW117775   9.848   2.928   8.992  0.4223 -0.6043  0.4058
38061SOL    HW217776   9.876   2.815   8.894 -0.2055 -0.2458 -0.1969
38062SOL     OW17777   4.858   9.932   0.610  0.0518 -0.8538 -0.0768
38062SOL    HW117778   4.863   9.849   0.657  1.3681  0.0349  1.4347
38062SOL    HW217779   4.942   9.939   0.564 -0.0539 -0.3510 -0.1963
38063SOL     OW17780   8.248   3.330   0.941  0.3245 -0.6792 -0.4963
38063SOL    HW117781   8.168   3.366   0.903  0.9626  1.1472 -0.2123
38063SOL    HW217782   8.218   3.282   1.019 -0.5011 -0.0619 -0.4203
38064SOL     OW17783   7.599   3.410   8.176 -0.0360  0.1403 -0.6489
38064SOL    HW117784   7.537   3.465   8.128  1.0754  0.9300 -1.2353
38064SOL    HW217785   7.584   3.432   8.268 -1.4357 -0.5782 -0.6814
38065SOL     OW17786   8.729   7.692   2.161 -0.2185 -0.3691 -0.3067
38065SOL    HW117787   8.783   7.743   2.101  2.0809 -0.2120  1.7429
38065SOL    HW217788   8.686   7.757   2.217 -2.5454 -0.5004 -1.7801
38066SOL     OW17789  10.223  10.494   8.011 -0.0353 -0.6411 -0.2168
38066SOL    HW117790  10.283  10.560   8.047  0.0846 -0.7288 -0.2557
38066SOL    HW217791  10.268  10.459   7.934 -1.1242  0.9629 -1.6623
38067SOL     OW17792   5.223   4.247   0.498  0.7367  0.0116  0.3446
38067SOL    HW117793   5.265   4.196   0.430  1.1828  0.0711  0.5729
38067SOL    HW217794   5.191   4.326   0.454  2.8061  1.0334  0.5449
38068SOL     OW17795   8.463   0.505   4.870  0.4702 -0.1645 -0.3276
38068SOL    HW117796   8.376   0.532   4.902  0.0922  0.3103 -1.7113
38068SOL    HW217797   8.446   0.423   4.823  1.0691 -0.9960  0.8420
38069SOL     OW17798  10.699   2.838   8.679 -0.2753 -0.3563  0.3072
38069SOL    HW117799  10.758   2.897   8.726 -2.1242 -0.0337  2.3911
38069SOL    HW217800  10.701   2.757   8.728  0.2866 -1.2095 -1.0586
38070SOL     OW17801  10.768   0.082  10.611  0.3109  0.2150 -0.1802
38070SOL    HW117802  10.727   0.159  10.570  1.9829  0.5629 -1.2730
38070SOL    HW217803  10.773   0.105  10.704 -1.8141  0.2002 -0.0067
38071SOL     OW17804   8.291   1.688   3.572 -0.5501 -0.9593  0.3771
38071SOL    HW117805   8.378   1.664   3.605 -0.8344 -3.2571 -0.3086
38071SOL    HW217806   8.241   1.710   3.651  0.9731  1.9107  0.6779
38072SOL     OW17807   4.696  10.228   9.860 -0.1406  0.2764  0.1204
38072SOL    HW117808   4.727  10.316   9.837 -0.8895  0.3415 -0.7226
38072SOL    HW217809   4.726  10.173   9.788 -1.3885  0.2287 -0.3931
38073SOL     OW17810   3.503  10.198   2.994 -0.0577 -0.1604  0.1433
38073SOL    HW117811   3.465  10.180   3.080  0.5279 -0.2587  0.3901
38073SOL    HW217812   3.562  10.124   2.978  1.6679  1.0110  0.7572
38074SOL     OW17813   5.236   0.330   1.842 -0.3061  0.5244  0.2118
38074SOL    HW117814   5.208   0.415   1.808 -1.6034  0.4739  1.0712
38074SOL    HW217815   5.331   0.337   1.850 -0.3821  1.8612  0.1684
38075SOL     OW17816   6.242   8.223   4.138 -0.2379 -0.1428  0.0747
38075SOL    HW117817   6.289   8.238   4.056  0.7283  1.4577  0.8630
38075SOL    HW217818   6.185   8.299   4.147 -2.4584 -1.6486 -0.4408
38076SOL     OW17819   9.952   0.765   2.551  0.0805 -0.3662  0.1365
38076SOL    HW117820  10.023   0.818   2.587 -0.8463  0.9530  0.0776
38076SOL    HW217821   9.978   0.748   2.461  0.5174 -0.2690  0.2405
38077SOL     OW17822   5.365   1.519   2.981 -0.0401  0.6186  0.4848
38077SOL    HW117823   5.357   1.612   2.958 -0.8450  0.3932 -0.2125
38077SOL    HW217824   5.309   1.474   2.918 -1.0094 -0.1952  1.8912
38078SOL     OW17825   2.457   2.071  10.941  0.2766  0.2096 -0.2553
38078SOL    HW117826   2.532   2.096  10.886 -1.1477  1.7836 -1.5561
38078SOL    HW217827   2.380   2.090  10.888 -1.1073 -2.9426  0.3609
38079SOL     OW17828   0.509   1.080   2.947 -0.3877 -0.2853  0.0427
38079SOL    HW117829   0.430   1.034   2.974 -0.9884 -0.6070 -2.0941
38079SOL    HW217830   0.580   1.016   2.958 -0.6353 -0.4565  0.6490
38080SOL     OW17831  10.820   9.176   5.486 -0.9169  0.2325  0.1801
38080SOL    HW117832  10.824   9.240   5.415 -0.5980  1.2449  1.0900
38080SOL    HW217833  10.909   9.175   5.522 -1.0409 -0.3773  0.4799
38081SOL     OW17834   4.248   4.408   5.389  0.1667  0.0612 -0.1349
38081SOL    HW117835   4.231   4.497   5.421  1.4997 -0.2243  1.5484
38081SOL    HW217836   4.331   4.414   5.343 -0.1617 -0.1658 -0.7701
38082SOL     OW17837   5.407   9.091   6.783 -0.0291 -0.5690  0.9690
38082SOL    HW117838   5.396   9.021   6.718 -0.1805 -1.7161  2.1929
38082SOL    HW217839   5.319   9.126   6.794  0.4064  1.6851 -1.5677
38083SOL     OW17840   7.877   8.830  10.831 -0.3116  0.1213 -0.3865
38083SOL    HW117841   7.824   8.801  10.905 -2.2745  1.2441 -1.2721
38083SOL    HW217842   7.854   8.923  10.821 -0.9747 -0.2518 -3.0551
38084SOL     OW17843   5.463   2.621   3.413  0.6164 -0.1353 -0.1757
38084SOL    HW117844   5.388   2.561   3.410  0.2544  0.3212 -0.3626
38084SOL    HW217845   5.507   2.609   3.329  0.2095  0.2771 -0.4550
38085SOL     OW17846   7.753   9.047   2.257  0.0231  0.0443 -0.2249
38085SOL    HW117847   7.712   8.973   2.302  0.0579  0.3479  0.3182
38085SOL    HW217848   7.768   9.112   2.326 -3.2403  2.0647 -1.1937
38086SOL     OW17849   9.825   6.800  10.545 -0.4060  0.7956  0.3183
38086SOL    HW117850   9.920   6.791  10.545 -0.3800  1.0354 -0.3815
38086SOL    HW217851   9.810   6.893  10.566 -0.5684  0.2386  3.1239
38087SOL     OW17852   5.862  10.013   9.813 -0.6637 -0.0552 -0.3561
38087SOL    HW117853   5.903  10.080   9.758  0.2527 -0.4129 -0.1273
38087SOL    HW217854   5.932   9.985   9.873 -1.1270 -0.9667 -0.2244
38088SOL     OW17855   6.469   0.417   3.391  0.0748 -0.2357 -0.3769
38088SOL    HW117856   6.400   0.470   3.430 -0.2844 -0.6142 -0.5015
38088SOL    HW217857   6.463   0.435   3.297  1.0762  0.8415 -0.2595
38089SOL     OW17858   4.543   1.298   7.852  0.7052 -0.0654  0.2963
38089SOL    HW117859   4.497   1.294   7.768  0.9269  0.0647  0.1666
38089SOL    HW217860   4.634   1.316   7.828  0.8627 -0.5251  0.5402
38090SOL     OW17861   9.471   5.008   6.609 -0.0665 -0.5477  0.2485
38090SOL    HW117862   9.502   5.055   6.687  1.2374 -0.1858 -0.4591
38090SOL    HW217863   9.548   4.963   6.575 -0.5937 -0.6395 -0.8796
38091SOL     OW17864   5.356   8.055   1.252  0.3251  0.1853  0.5981
38091SOL    HW117865   5.295   7.983   1.263  0.2724 -0.0551 -1.0127
38091SOL    HW217866   5.401   8.036   1.169  0.1661  2.0879  0.0342
38092SOL     OW17867   3.172   2.448   8.275  0.3314 -0.2857  0.1836
38092SOL    HW117868   3.164   2.542   8.288  0.5043 -0.4350  1.5690
38092SOL    HW217869   3.086   2.413   8.296  0.5601 -0.5246  0.7573
38093SOL     OW17870   1.511   2.200   5.474  0.7544 -0.8081 -0.3869
38093SOL    HW117871   1.594   2.223   5.432  0.8104 -0.6961 -0.2126
38093SOL    HW217872   1.532   2.193   5.567  0.0715  1.6941  0.0413
38094SOL     OW17873   8.133   0.546   7.189  0.6828  0.4229 -0.0493
38094SOL    HW117874   8.127   0.622   7.132 -0.9796  1.0260  0.8534
38094SOL    HW217875   8.086   0.477   7.143  0.8311  0.4062 -0.1746
38095SOL     OW17876  10.886   4.852   1.526  0.0893 -0.3761  0.1083
38095SOL    HW117877  10.957   4.788   1.529  0.5541  0.1514  0.4816
38095SOL    HW217878  10.860   4.863   1.617 -0.8283 -0.9423 -0.0682
38096SOL     OW17879  10.436   5.970   3.244  0.7021 -0.3569 -0.1969
38096SOL    HW117880  10.372   6.004   3.181  2.0354  0.6822 -1.0571
38096SOL    HW217881  10.521   5.985   3.202  1.5202 -1.8655  0.8243
38097SOL     OW17882   9.610   8.112   1.874 -0.2676 -0.1767  0.0334
38097SOL    HW117883   9.589   8.051   1.803  0.0740 -0.3971  0.1184
38097SOL    HW217884   9.684   8.071   1.919  0.2992  0.5597 -0.2235
38098SOL     OW17885   4.406  10.014   1.369 -0.5738  0.2942  0.1173
38098SOL    HW117886   4.459  10.069   1.427 -0.6692  0.3129  0.1869
38098SOL    HW217887   4.449  10.020   1.284 -0.0521 -0.2599  0.3388
38099SOL     OW17888   4.489   3.054   6.923 -0.8327  0.1066 -0.6262
38099SOL    HW117889   4.442   3.005   6.855 -1.4968 -0.3408  0.1470
38099SOL    HW217890   4.464   3.012   7.005  1.1482 -0.3308 -0.1975
38100SOL     OW17891   3.112   3.406   4.248 -0.2473 -0.3378 -0.2952
38100SOL    HW117892   3.182   3.409   4.313 -0.7662 -2.3388  0.4487
38100SOL    HW217893   3.079   3.496   4.244 -1.1055 -0.3347  3.3120
38101SOL     OW17894   1.257   4.576  10.661  0.2956 -0.0768 -0.4762
38101SOL    HW117895   1.331   4.522  10.689 -0.2341  0.2943  1.8149
38101SOL    HW217896   1.282   4.666  10.684 -1.8967 -0.1982  3.0811
38102SOL     OW17897  10.783   4.094   3.909  0.4270 -0.0060 -0.8501
38102SOL    HW117898  10.821   4.150   3.977  0.2991 -0.7472 -0.1501
38102SOL    HW217899  10.771   4.153   3.834  1.8192  0.5228 -0.7011
38103SOL     OW17900   1.715   8.139   0.006  0.1582  0.3241  0.1482
38103SOL    HW117901   1.802   8.170  -0.020 -0.4726  0.6896 -1.6492
38103SOL    HW217902   1.685   8.087  -0.068 -0.7782 -0.6358  1.1595
38104SOL     OW17903   6.290   2.187  10.956  0.3327  0.1803  0.2211
38104SOL    HW117904   6.226   2.169  11.024 -2.8267  1.4560 -2.1659
38104SOL    HW217905   6.281   2.280  10.937  2.1020  0.1685 -1.0170
38105SOL     OW17906   1.710  10.490   3.113  0.6175 -0.1467  0.1585
38105SOL    HW117907   1.787  10.511   3.165  0.8902  0.9898 -0.6824
38105SOL    HW217908   1.692  10.569   3.063 -1.2919 -0.2547  0.5695
38106SOL     OW17909   4.737   0.989  10.521  0.3109  0.0850  0.7052
38106SOL    HW117910   4.730   1.076  10.560 -1.3322  0.2713  0.1127
38106SOL    HW217911   4.716   0.929  10.592  0.1225  0.2514  0.7910
38107SOL     OW17912   7.066   1.569   7.005 -0.4551  0.2142 -0.5259
38107SOL    HW117913   7.036   1.651   7.042 -0.4556 -0.2727  0.5768
38107SOL    HW217914   7.045   1.575   6.912 -0.1924  1.5674 -0.5089
38108SOL     OW17915   4.508   2.628   8.421 -0.1132  0.4482 -0.0677
38108SOL    HW117916   4.538   2.540   8.444  0.6611  0.6383 -0.3203
38108SOL    HW217917   4.419   2.615   8.388  0.3133 -0.3624 -0.9469
38109SOL     OW17918   1.023   7.679  10.255 -0.9027  0.1679 -0.3403
38109SOL    HW117919   1.013   7.649  10.165  1.1753 -1.0755 -0.2372
38109SOL    HW217920   1.073   7.760  10.249 -0.4400 -0.1094 -0.3162
38110SOL     OW17921  10.643   3.627   0.106 -0.5505 -0.0764 -0.0453
38110SOL    HW117922  10.640   3.646   0.013  0.5418 -0.8762 -0.2697
38110SOL    HW217923  10.717   3.679   0.138 -1.0645  0.3742  0.4282
38111SOL     OW17924   9.328   3.899   7.766 -0.4657  0.2616  0.1039
38111SOL    HW117925   9.322   3.895   7.861  0.3365  0.5044  0.1782
38111SOL    HW217926   9.415   3.936   7.749 -0.6117  0.2550 -0.7200
38112SOL     OW17927   8.623   3.215   4.989 -0.1698 -0.3923  1.3042
38112SOL    HW117928   8.665   3.183   5.068 -0.9263  0.5052  2.0912
38112SOL    HW217929   8.640   3.147   4.924 -0.4156 -1.6556  2.5054
38113SOL     OW17930   7.251   6.343   0.555 -0.2886 -0.1590  0.1006
38113SOL    HW117931   7.224   6.432   0.579  0.2970 -0.2517  1.1448
38113SOL    HW217932   7.301   6.312   0.630  2.9616  0.0892 -1.7741
38114SOL     OW17933   2.827   9.593  10.817  0.1009 -0.3349 -0.0578
38114SOL    HW117934   2.922   9.599  10.813  0.0558  0.3500 -0.3095
38114SOL    HW217935   2.808   9.552  10.901  0.6320 -0.9121 -0.2158
38115SOL     OW17936   1.479   9.752   1.377 -0.2769  0.3287  0.5104
38115SOL    HW117937   1.568   9.746   1.412  0.2790  2.5032 -0.4017
38115SOL    HW217938   1.489   9.799   1.295 -1.9996 -1.5447 -0.8746
38116SOL     OW17939   7.143   9.463   3.877 -0.2226  0.1863  0.1546
38116SOL    HW117940   7.152   9.400   3.948 -0.6820 -1.4803 -1.1783
38116SOL    HW217941   7.223   9.454   3.826 -0.5372  0.2476 -0.3632
38117SOL     OW17942   6.706   3.653  10.987 -0.0394  0.7879 -0.5175
38117SOL    HW117943   6.625   3.671  11.033 -0.5367 -0.5751 -0.8170
38117SOL    HW217944   6.680   3.603  10.910  1.1834 -1.0810  0.1947
38118SOL     OW17945   9.964   6.717   9.238  0.0094  0.0827 -0.1841
38118SOL    HW117946   9.881   6.673   9.220  0.7092 -1.2018 -0.3941
38118SOL    HW217947   9.944   6.777   9.310 -1.2438  0.2862 -0.6782
38119SOL     OW17948   0.766   8.229   2.691 -0.3634 -0.6980  0.0815
38119SOL    HW117949   0.724   8.242   2.776  1.2125  0.4223  0.7512
38119SOL    HW217950   0.854   8.199   2.712  1.0192  2.2182 -0.9702
38120SOL     OW17951   0.971   9.080   9.667  0.2441 -0.0739 -0.6675
38120SOL    HW117952   0.924   9.120   9.740  1.5077  0.6552 -0.2240
38120SOL    HW217953   0.941   8.990   9.666  0.9301 -0.3821  1.4133
38121SOL     OW17954   4.007   3.239   9.271  0.2735  0.7184 -0.6844
38121SOL    HW117955   3.976   3.324   9.240 -0.2237  0.7289 -0.1709
38121SOL    HW217956   3.947   3.176   9.232  0.2141  0.6585 -0.4964
38122SOL     OW17957   8.909  11.040   2.326  0.2051  0.9124 -0.4459
38122SOL    HW117958   8.816  11.024   2.307 -0.2706  0.7915  1.7893
38122SOL    HW217959   8.955  10.995   2.255 -1.4102 -0.0658 -0.9392
38123SOL     OW17960   2.410   9.978   1.908 -0.5005  0.1220 -0.0207
38123SOL    HW117961   2.352  10.024   1.968 -0.0576  0.3379  0.2450
38123SOL    HW217962   2.496  10.018   1.921 -0.3521  0.0193 -0.6350
38124SOL     OW17963   3.764   2.299   1.850  0.4542 -0.3710  0.4977
38124SOL    HW117964   3.789   2.237   1.781 -0.5822 -0.3475  0.0884
38124SOL    HW217965   3.679   2.268   1.881 -1.4109  2.2590 -1.5204
38125SOL     OW17966   4.947   0.898   7.452  0.7352 -0.0257 -0.0210
38125SOL    HW117967   4.877   0.834   7.466 -1.4376  2.1885 -0.1478
38125SOL    HW217968   5.028   0.848   7.464 -0.7876 -3.0998 -1.4930
38126SOL     OW17969  11.029   5.042   2.631 -0.0630 -0.1682  0.1230
38126SOL    HW117970  11.099   5.003   2.579 -0.8392  0.7419 -1.6831
38126SOL    HW217971  10.967   5.076   2.567 -1.7255 -0.1376  1.6648
38127SOL     OW17972  10.646   2.485   8.975 -0.2876  0.0821  0.1064
38127SOL    HW117973  10.648   2.453   9.065  1.8719 -1.2108 -0.3263
38127SOL    HW217974  10.619   2.409   8.923 -1.7500  0.8812 -0.3513
38128SOL     OW17975   2.194   3.623   6.647  0.5140  0.1967  0.2190
38128SOL    HW117976   2.151   3.708   6.635  0.9227  0.1266 -2.5727
38128SOL    HW217977   2.285   3.638   6.625  0.5085 -0.9969 -0.8102
38129SOL     OW17978   8.012   0.001   9.986 -0.0501 -0.3084  0.4508
38129SOL    HW117979   7.976   0.087   9.969  1.4269  0.1682 -0.4279
38129SOL    HW217980   8.087   0.017  10.044 -0.9845 -1.2378  2.0156
38130SOL     OW17981   6.227   8.979   1.834  0.1002 -0.3497 -0.3246
38130SOL    HW117982   6.212   8.904   1.776 -2.0470 -1.1506  1.1221
38130SOL    HW217983   6.257   8.940   1.916  1.0395  0.5828 -0.2104
38131SOL     OW17984   6.502   8.436   6.582 -0.0320  0.3221  0.3779
38131SOL    HW117985   6.520   8.344   6.605  0.1328 -0.0654 -1.1790
38131SOL    HW217986   6.490   8.435   6.487  1.0620  2.0924  0.1739
38132SOL     OW17987   1.741  10.156   4.818  0.1297  0.4858 -0.3280
38132SOL    HW117988   1.834  10.179   4.818  0.3972 -0.2226 -3.5631
38132SOL    HW217989   1.702  10.215   4.754 -1.4554 -0.0083  0.1422
38133SOL     OW17990   3.488   1.873   3.926  0.2430  0.4757  0.0671
38133SOL    HW117991   3.559   1.886   3.989 -0.8323  0.3395  1.3584
38133SOL    HW217992   3.418   1.834   3.978 -0.2818 -0.7416 -1.4857
38134SOL     OW17993   9.793   2.376  10.466  0.1797  0.2723 -0.5548
38134SOL    HW117994   9.834   2.332  10.392  1.1509  0.5850 -0.2141
38134SOL    HW217995   9.702   2.348  10.463  0.4654 -0.6295 -1.1863
38135SOL     OW17996   2.297   5.663   1.222 -0.0824  0.1075  0.1241
38135SOL    HW117997   2.268   5.721   1.151  1.2919  0.6893  0.0065
38135SOL    HW217998   2.309   5.722   1.297 -1.4995 -0.4989  0.8559
38136SOL     OW17999   3.873   0.702   4.384 -0.1292 -0.1270 -0.2103
38136SOL    HW118000   3.919   0.680   4.466 -0.8719 -0.5578  0.0966
38136SOL    HW218001   3.852   0.617   4.345  0.5040  0.0710 -1.0288
38137SOL     OW18002   0.840   4.762  10.689 -0.0741  0.5112  0.5183
38137SOL    HW118003   0.856   4.673  10.658  1.3766  1.0493 -0.3909
38137SOL    HW218004   0.752   4.782  10.659 -0.1087 -0.3354  0.0180
38138SOL     OW18005   0.457   9.900   1.890  0.3396  0.1541  0.5146
38138SOL    HW118006   0.434   9.863   1.805 -1.8439  2.3999  0.0063
38138SOL    HW218007   0.537   9.950   1.875  0.6394 -0.4474  0.0900
38139SOL     OW18008   9.196   6.336   0.797  0.4971  0.1964  0.8621
38139SOL    HW118009   9.285   6.300   0.802  0.5286  0.2867  0.9747
38139SOL    HW218010   9.177   6.367   0.886 -0.1359 -0.9634  1.1453
38140SOL     OW18011   9.324   9.444  10.237  0.4260 -0.3353 -0.0241
38140SOL    HW118012   9.307   9.533  10.208  0.4641 -0.2506  0.2171
38140SOL    HW218013   9.245   9.395  10.213  1.7586 -1.0953 -3.6318
38141SOL     OW18014   6.378   4.733   0.092  0.2218 -0.7452 -0.0542
38141SOL    HW118015   6.339   4.654   0.129  0.2819 -0.2237  1.1672
38141SOL    HW218016   6.451   4.701   0.038  0.5262 -1.5069  0.7797
38142SOL     OW18017   8.853   9.355   1.625 -0.6466  0.9042 -0.1196
38142SOL    HW118018   8.880   9.444   1.646 -0.6500  1.2512 -1.4756
38142SOL    HW218019   8.921   9.299   1.664  0.5132  1.6258 -1.0186
38143SOL     OW18020   8.934   2.598   4.199 -0.3537 -0.6909  0.2709
38143SOL    HW118021   9.014   2.621   4.152 -0.9547 -0.7043 -0.8001
38143SOL    HW218022   8.964   2.559   4.281  0.7230  0.8021  0.6240
38144SOL     OW18023  10.361   4.038   7.713 -0.1874  0.3923 -0.0935
38144SOL    HW118024  10.282   4.060   7.763 -0.2137  0.4418 -0.1565
38144SOL    HW218025  10.433   4.054   7.774 -0.1930  0.8486 -0.2070
38145SOL     OW18026   5.553   2.395   9.477 -0.4277  0.3363  0.2278
38145SOL    HW118027   5.558   2.448   9.557  1.0808  1.3714 -0.5041
38145SOL    HW218028   5.527   2.308   9.508 -0.4478  0.8594  1.7678
38146SOL     OW18029   4.473   5.143   7.470 -0.7776  0.2607  0.1253
38146SOL    HW118030   4.522   5.197   7.408 -1.3012  1.1925  0.4982
38146SOL    HW218031   4.392   5.192   7.485 -1.7702 -1.1613 -0.3669
38147SOL     OW18032   6.592  10.401   4.499 -0.3072  0.3381  0.1161
38147SOL    HW118033   6.569  10.315   4.465  0.9376  0.2078 -0.4639
38147SOL    HW218034   6.664  10.430   4.443 -1.2962  2.1571 -0.2748
38148SOL     OW18035   5.710   8.827   0.596  0.0901  0.1008 -0.3480
38148SOL    HW118036   5.712   8.738   0.561  1.8544 -0.1740  0.3317
38148SOL    HW218037   5.718   8.884   0.519 -0.8583 -0.3237 -0.7663
38149SOL     OW18038   1.131   7.378   9.344  0.0396  0.2365 -0.0661
38149SOL    HW118039   1.212   7.379   9.395 -0.5175 -1.0310  0.9019
38149SOL    HW218040   1.070   7.433   9.394  0.1385  0.7452 -0.5034
38150SOL     OW18041   8.961   8.020   5.199  0.0829  0.5201  0.2101
38150SOL    HW118042   8.979   8.065   5.116 -0.7815  0.2477 -0.1339
38150SOL    HW218043   8.963   8.089   5.265  0.0703  0.8524 -0.1328
38151SOL     OW18044   3.769   3.204   0.657 -0.0770 -0.0299  0.3765
38151SOL    HW118045   3.836   3.243   0.712 -1.1214  0.3581  1.4128
38151SOL    HW218046   3.743   3.274   0.597  0.7918 -0.3414 -0.4007
38152SOL     OW18047   8.002   4.050   4.098  0.0760  0.2480  0.2012
38152SOL    HW118048   8.013   4.105   4.176 -0.7058  1.5055 -0.5342
38152SOL    HW218049   8.042   3.967   4.122  0.9092  0.9857  1.5280
38153SOL     OW18050   9.710   9.142   4.576  0.0085  0.3829  0.6982
38153SOL    HW118051   9.632   9.095   4.605  0.0276  0.4787  0.9096
38153SOL    HW218052   9.683   9.234   4.574 -0.6711  0.1939 -1.7953
38154SOL     OW18053   3.612   8.372   9.230 -0.2589 -0.5499 -0.6027
38154SOL    HW118054   3.598   8.415   9.146  1.7792  0.7248 -0.3603
38154SOL    HW218055   3.651   8.288   9.208  0.1314 -0.2833 -0.9262
38155SOL     OW18056   1.660   2.866   1.740  0.9347  0.2574 -0.1649
38155SOL    HW118057   1.680   2.812   1.816  1.5757  1.0886  0.2785
38155SOL    HW218058   1.675   2.809   1.665  1.4420 -0.2340  0.2997
38156SOL     OW18059   0.688   8.037   6.638  0.2138  0.6329 -1.0909
38156SOL    HW118060   0.711   7.970   6.575 -0.9225  1.1774 -2.1336
38156SOL    HW218061   0.592   8.034   6.642  0.2350 -0.9254  2.3280
38157SOL     OW18062   1.834  10.479   8.499 -0.2494  0.4282 -0.6048
38157SOL    HW118063   1.739  10.472   8.504 -0.1247 -1.1020  2.5840
38157SOL    HW218064   1.858  10.534   8.575  1.4864 -1.6951  0.5089
38158SOL     OW18065   6.183   5.487   1.894  0.0749  0.5287 -0.3587
38158SOL    HW118066   6.096   5.518   1.871 -0.9469 -0.5032  1.8018
38158SOL    HW218067   6.168   5.401   1.934  1.8723  1.0718  1.6823
38159SOL     OW18068   0.762   2.968   7.177  0.0908  0.1643 -0.1628
38159SOL    HW118069   0.829   3.028   7.208 -0.4168  0.8497 -0.3523
38159SOL    HW218070   0.793   2.881   7.202  1.2092  0.4361 -0.5593
38160SOL     OW18071   9.668   1.692   3.246  0.1506 -0.1409 -0.0299
38160SOL    HW118072   9.641   1.784   3.238 -2.9279 -0.9163  0.2245
38160SOL    HW218073   9.622   1.660   3.324  1.4611 -1.8199  0.1041
38161SOL     OW18074   7.570   6.901   4.718  0.1992 -0.3492 -0.0247
38161SOL    HW118075   7.514   6.886   4.794  0.2526  0.0016  0.0838
38161SOL    HW218076   7.632   6.828   4.719 -0.0211 -0.5391  0.0629
38162SOL     OW18077   3.178   3.325   8.982 -0.4950  0.6849  0.5850
38162SOL    HW118078   3.105   3.335   9.043  0.4219 -1.8438  2.2514
38162SOL    HW218079   3.176   3.233   8.956  0.0213  1.3543 -2.1877
38163SOL     OW18080   5.270  10.746   6.311 -0.1758  0.0719 -0.3335
38163SOL    HW118081   5.356  10.789   6.313 -0.5881  0.8993  0.1806
38163SOL    HW218082   5.257  10.721   6.220  1.1598 -1.2025 -0.2097
38164SOL     OW18083  10.382   1.521   2.675  0.0365 -0.2114 -0.0527
38164SOL    HW118084  10.329   1.461   2.727  1.1346 -0.5791  0.6947
38164SOL    HW218085  10.341   1.522   2.589 -0.3410 -1.5731  0.0978
38165SOL     OW18086   1.335   4.074   5.800 -0.0639  0.2650 -0.5060
38165SOL    HW118087   1.401   4.015   5.837  0.1108  0.0566 -1.1313
38165SOL    HW218088   1.336   4.150   5.858 -0.4848 -0.4478  0.4700
38166SOL     OW18089   5.734   2.790   0.672  0.4935 -0.5911  0.5114
38166SOL    HW118090   5.706   2.750   0.590 -0.5225 -1.6732  1.3529
38166SOL    HW218091   5.813   2.840   0.649  0.2289 -0.8765 -1.1048
38167SOL     OW18092   5.409   5.932   7.738 -0.5726 -0.4611  0.6623
38167SOL    HW118093   5.391   6.010   7.790 -1.0552  0.1962 -0.4338
38167SOL    HW218094   5.497   5.947   7.702 -0.8800 -0.1583  0.0211
38168SOL     OW18095   8.480   7.401   3.603 -0.1158 -0.5811  0.2977
38168SOL    HW118096   8.570   7.395   3.570  0.5440  0.3759  1.7674
38168SOL    HW218097   8.458   7.311   3.627 -0.4144 -1.1983 -2.1012
38169SOL     OW18098   6.135   0.292   8.775 -0.0097 -0.5229  0.1217
38169SOL    HW118099   6.126   0.198   8.791  0.8852 -0.5028  0.8958
38169SOL    HW218100   6.108   0.332   8.858  1.2799 -0.2120  0.4210
38170SOL     OW18101   8.814   3.933   4.300  0.1836 -0.3031  0.3006
38170SOL    HW118102   8.800   3.894   4.215  0.8346  0.1821 -0.0451
38170SOL    HW218103   8.896   3.893   4.332 -0.5353 -1.1791  1.1228
38171SOL     OW18104   0.745   1.163   0.549  0.0698 -0.0484 -0.4082
38171SOL    HW118105   0.682   1.107   0.595  0.8489 -0.4989  0.1367
38171SOL    HW218106   0.800   1.101   0.500  0.4053  0.2950 -0.4710
38172SOL     OW18107   5.081   4.729   8.122 -0.0707 -0.1892 -0.3336
38172SOL    HW118108   5.091   4.733   8.217 -1.0550 -0.0696 -0.2333
38172SOL    HW218109   5.147   4.791   8.089  1.5627 -1.5802  0.1605
38173SOL     OW18110   6.996   4.837   5.565  0.0686 -0.6291 -0.2718
38173SOL    HW118111   6.907   4.833   5.530 -0.3070  0.2247  0.5203
38173SOL    HW218112   6.994   4.780   5.642  0.1470 -0.4840 -0.1598
38174SOL     OW18113  10.458   2.083   9.641 -0.5175  0.2029  0.0661
38174SOL    HW118114  10.421   2.052   9.724  1.4227  2.2219  1.8188
38174SOL    HW218115  10.503   2.007   9.605 -0.5875 -0.4820  1.3740
38175SOL     OW18116  10.176   6.062   6.093  0.1475  0.0144  0.6045
38175SOL    HW118117  10.220   6.048   6.177 -0.6072  0.1847  1.0262
38175SOL    HW218118  10.139   5.977   6.070 -0.5377  0.2155  0.9534
38176SOL     OW18119   9.193   9.581   7.396 -0.2880 -1.0371 -0.1741
38176SOL    HW118120   9.260   9.543   7.338  0.1452  0.7985 -0.9340
38176SOL    HW218121   9.112   9.576   7.345 -0.0683 -0.2103 -0.6297
38177SOL     OW18122   7.997  10.154   3.238 -0.0283 -0.3542  0.5250
38177SOL    HW118123   8.040  10.111   3.312  0.7419  1.5412  1.2559
38177SOL    HW218124   7.931  10.211   3.277 -0.4966 -0.2895 -0.3292
38178SOL     OW18125   4.873  10.920   8.617  0.4769  0.4328  0.7794
38178SOL    HW118126   4.845  10.863   8.546  1.9069  0.6354  0.0134
38178SOL    HW218127   4.859  11.009   8.583 -0.1460  0.5506  1.3101
38179SOL     OW18128   4.916   6.228   0.058  0.1413  0.2916  0.2076
38179SOL    HW118129   4.956   6.300   0.105  1.3717  0.0458 -0.4233
38179SOL    HW218130   4.988   6.169   0.037 -0.6687 -0.5657 -0.2763
38180SOL     OW18131   4.940  10.058   7.565  0.0731 -0.0756 -0.5086
38180SOL    HW118132   4.954  10.119   7.493  1.2230  0.0570 -0.1916
38180SOL    HW218133   4.925   9.974   7.522  0.8934 -0.0263 -0.9031
38181SOL     OW18134   8.883   3.670   5.185 -0.0547  0.3366  0.3085
38181SOL    HW118135   8.869   3.724   5.107  2.4571  0.7469  0.0544
38181SOL    HW218136   8.961   3.618   5.165  0.6430  0.4284  2.5066
38182SOL     OW18137   5.587   2.948   3.192 -0.1718  0.0341 -0.4492
38182SOL    HW118138   5.538   2.935   3.111 -2.9661  0.8044  0.9960
38182SOL    HW218139   5.653   3.014   3.170 -0.2980 -0.3818 -2.2674
38183SOL     OW18140   4.374   2.918   1.044 -0.0703 -0.0149  0.1355
38183SOL    HW118141   4.367   2.846   0.982  2.4739  0.9576 -1.4164
38183SOL    HW218142   4.468   2.933   1.054 -0.4472  1.1707  2.7459
38184SOL     OW18143   0.911   7.965   8.114 -0.0812  0.0173  0.1813
38184SOL    HW118144   0.853   8.024   8.162 -0.3513 -1.2803  1.5165
38184SOL    HW218145   0.872   7.878   8.126  0.5438 -0.5116 -1.3612
38185SOL     OW18146   1.679   4.628   1.947 -0.1585 -0.4443  0.5113
38185SOL    HW118147   1.641   4.680   1.877  0.6973  0.6832  0.8505
38185SOL    HW218148   1.648   4.669   2.028 -0.1525 -0.9756  0.7888
38186SOL     OW18149  10.148   0.726   9.515  0.3358 -0.3066 -0.2480
38186SOL    HW118150  10.211   0.747   9.446  2.1513 -0.5525  1.2362
38186SOL    HW218151  10.172   0.637   9.543 -0.9787 -0.5779  0.0610
38187SOL     OW18152   8.985   9.558   6.187 -0.6285 -0.6540 -0.1671
38187SOL    HW118153   9.012   9.605   6.267 -1.3177 -1.3771  0.5070
38187SOL    HW218154   8.892   9.541   6.200 -0.4354 -2.0411 -0.4673
38188SOL     OW18155   1.518   7.995   9.101 -0.0611 -0.6203  0.2593
38188SOL    HW118156   1.583   7.926   9.115  0.5055  0.0110  0.8825
38188SOL    HW218157   1.561   8.074   9.134 -1.1363 -0.1823  0.6518
38189SOL     OW18158   9.342   8.829   9.687 -0.2347  0.2284 -0.4636
38189SOL    HW118159   9.374   8.781   9.764  1.7972  2.3981  0.1685
38189SOL    HW218160   9.247   8.828   9.696 -0.1189 -1.0684  1.1282
38190SOL     OW18161   3.461  10.704  10.573 -0.1483 -0.1959  0.0965
38190SOL    HW118162   3.499  10.618  10.557 -0.7153 -0.4745  0.2332
38190SOL    HW218163   3.373  10.699  10.536 -1.0935 -0.4960  2.2798
38191SOL     OW18164  10.733   7.784   1.582 -0.4067  0.1317  0.7572
38191SOL    HW118165  10.686   7.860   1.549 -1.2718 -0.4904  0.5456
38191SOL    HW218166  10.791   7.759   1.509  0.5542  1.1167  1.1512
38192SOL     OW18167   9.498  10.975   9.716  0.7515  0.3435  0.2588
38192SOL    HW118168   9.576  10.951   9.766 -0.5851 -0.1782  2.2083
38192SOL    HW218169   9.426  10.965   9.778 -1.3075 -2.2522 -2.3267
38193SOL     OW18170   9.399  10.934   1.753  0.0222 -0.0385 -0.0868
38193SOL    HW118171   9.364  11.022   1.766  0.2787 -0.1410  1.4066
38193SOL    HW218172   9.458  10.944   1.678 -0.2195  0.9805 -0.1601
38194SOL     OW18173   2.461  11.074   4.939  0.5224 -0.0299  0.0608
38194SOL    HW118174   2.507  10.998   4.906  0.3458  0.4312 -1.3041
38194SOL    HW218175   2.518  11.110   5.007  1.9894  0.3041 -1.3137
38195SOL     OW18176   6.974   1.389   0.366  0.6594 -0.6031  0.0874
38195SOL    HW118177   6.879   1.389   0.356  0.6894  1.5613 -0.8231
38195SOL    HW218178   6.988   1.401   0.460  0.0246 -0.7565  0.2063
38196SOL     OW18179   9.026   5.161   1.084 -0.1282 -0.1547  0.6736
38196SOL    HW118180   8.959   5.215   1.126  0.9634  1.8037  0.0168
38196SOL    HW218181   9.008   5.168   0.991  0.8821  0.2517  0.5025
38197SOL     OW18182   4.819   2.550   4.350  0.2886 -0.0400  0.0223
38197SOL    HW118183   4.900   2.562   4.301  0.2729 -0.0593 -0.0086
38197SOL    HW218184   4.772   2.482   4.302  0.9408 -1.1550  0.8964
38198SOL     OW18185   9.510   1.011   4.889  0.2648  0.0254 -0.6404
38198SOL    HW118186   9.415   1.004   4.882  0.3045 -0.2562 -0.9424
38198SOL    HW218187   9.533   0.959   4.966  0.2462 -0.5704 -1.0260
38199SOL     OW18188   7.018  10.205   2.508 -0.1749 -0.1937 -0.2915
38199SOL    HW118189   6.978  10.214   2.422 -1.2647 -0.0970  0.2052
38199SOL    HW218190   6.978  10.126   2.545  1.7702 -1.4132 -0.6318
38200SOL     OW18191   7.145   4.165   1.037  0.0124 -0.7143  0.3805
38200SOL    HW118192   7.145   4.231   0.968 -2.8164 -1.5482 -0.5298
38200SOL    HW218193   7.221   4.110   1.016  1.8071  1.5178  0.5646
38201SOL     OW18194   8.881   8.139   4.216  0.8062 -0.2923  0.3971
38201SOL    HW118195   8.905   8.047   4.211  3.2806  0.2394  1.1216
38201SOL    HW218196   8.929   8.173   4.291  0.8096  1.8085 -0.4607
38202SOL     OW18197   0.680   4.766   1.217  0.3656 -0.5917 -0.3859
38202SOL    HW118198   0.602   4.815   1.192  1.0280  0.8914  0.3519
38202SOL    HW218199   0.680   4.767   1.313  2.1884  0.9712 -0.3539
38203SOL     OW18200   0.995  10.518   3.234 -0.1968 -0.2621 -0.4666
38203SOL    HW118201   1.026  10.488   3.149 -1.2592 -2.7910 -0.0708
38203SOL    HW218202   1.000  10.440   3.290  1.5114  1.5398  2.1630
38204SOL     OW18203   6.764  10.378   8.270  0.6449 -0.1126  0.2161
38204SOL    HW118204   6.678  10.380   8.229  0.5371  0.1403  0.4494
38204SOL    HW218205   6.797  10.290   8.253  1.0731  0.3315 -1.3490
38205SOL     OW18206   3.250   0.487   9.873  0.2466 -0.0504 -0.3727
38205SOL    HW118207   3.226   0.506   9.782 -0.8006 -0.5002 -0.2029
38205SOL    HW218208   3.326   0.542   9.890 -1.0071  1.8702 -0.7578
38206SOL     OW18209   1.117   3.136   7.038 -0.1489  0.5316  0.2442
38206SOL    HW118210   1.206   3.108   7.015  0.0267  0.7083  0.7141
38206SOL    HW218211   1.080   3.166   6.955  0.6643  1.6638  0.2709
38207SOL     OW18212   8.449   7.853   0.785 -0.0710  0.3828 -0.5229
38207SOL    HW118213   8.378   7.915   0.767 -1.6283 -0.9053  0.8345
38207SOL    HW218214   8.425   7.775   0.735  1.6128  0.6363 -1.8218
38208SOL     OW18215   7.603   9.918   7.524 -0.3870  0.3840 -0.0970
38208SOL    HW118216   7.562   9.994   7.565 -0.1076  0.1776  0.5622
38208SOL    HW218217   7.696   9.928   7.542 -0.2962  0.1222 -0.4058
38209SOL     OW18218  10.574   1.265   0.623  0.2763 -0.1093  0.5685
38209SOL    HW118219  10.518   1.252   0.547  1.1008 -1.2090  0.1159
38209SOL    HW218220  10.627   1.342   0.602  2.4550 -1.9523 -1.2768
38210SOL     OW18221   5.027   5.111   0.295 -0.0124  0.2138 -0.0050
38210SOL    HW118222   5.041   5.145   0.206  1.3143 -1.4670 -0.4853
38210SOL    HW218223   4.932   5.105   0.303 -0.1452 -0.5820 -1.7246
38211SOL     OW18224   6.246  10.031   5.019 -0.4614  0.1150 -0.4555
38211SOL    HW118225   6.281  10.022   4.931 -1.1904 -0.9476 -0.6645
38211SOL    HW218226   6.198  10.113   5.018 -2.0974 -0.7905 -1.6704
38212SOL     OW18227  10.219   7.733   5.408  0.5369 -0.0471 -0.0385
38212SOL    HW118228  10.191   7.790   5.337 -0.5261 -0.5894 -0.0823
38212SOL    HW218229  10.190   7.777   5.487  0.4213 -0.1367 -0.0298
38213SOL     OW18230   8.865   0.187   2.454 -0.0255 -0.0106  0.1030
38213SOL    HW118231   8.880   0.249   2.382 -2.8732 -0.4955 -1.0653
38213SOL    HW218232   8.878   0.101   2.414 -2.3633 -0.3129 -0.1429
38214SOL     OW18233   4.125   5.286   1.715 -0.4232 -0.5231 -0.1514
38214SOL    HW118234   4.065   5.359   1.696 -1.0879 -1.0832 -0.2434
38214SOL    HW218235   4.210   5.328   1.727 -1.2746  0.6721  2.8240
38215SOL     OW18236   5.701   4.789   1.814 -0.1873  0.0528  0.1507
38215SOL    HW118237   5.700   4.701   1.852  0.0960 -0.2499 -0.5108
38215SOL    HW218238   5.614   4.799   1.775  0.0716 -0.2920 -0.5377
38216SOL     OW18239   1.994   2.861   0.364  0.2599 -0.4662  0.0595
38216SOL    HW118240   1.987   2.894   0.454  0.8301  0.5664 -0.2510
38216SOL    HW218241   1.923   2.797   0.356 -0.4792  0.2158  0.9046
38217SOL     OW18242   6.565   3.463   1.042 -0.4787 -0.1231  0.2251
38217SOL    HW118243   6.470   3.469   1.025 -0.4923 -0.7038  0.0738
38217SOL    HW218244   6.589   3.376   1.012  0.2626  0.3139 -0.4989
38218SOL     OW18245   2.667   2.351   6.520 -0.1796 -0.4768  0.4411
38218SOL    HW118246   2.707   2.289   6.459 -1.2595  0.2369 -1.0278
38218SOL    HW218247   2.735   2.366   6.586  1.7872  0.2116 -1.6215
38219SOL     OW18248   4.368   6.256   1.758 -0.1993  0.3707 -0.3463
38219SOL    HW118249   4.373   6.262   1.853  0.1572 -1.7324 -0.1813
38219SOL    HW218250   4.279   6.227   1.740  0.0376 -0.2424 -0.5658
38220SOL     OW18251   0.885   7.563   8.251 -0.2357  0.5622 -0.3023
38220SOL    HW118252   0.853   7.640   8.204 -0.3542  0.5079 -0.3119
38220SOL    HW218253   0.861   7.490   8.194  1.4517  0.6337 -1.1733
38221SOL     OW18254   4.319   9.135  10.295 -0.6119  0.1843  0.3582
38221SOL    HW118255   4.265   9.212  10.316 -0.4976  0.4147 -0.1746
38221SOL    HW218256   4.263   9.082  10.239 -0.2926  0.4154 -0.1792
38222SOL     OW18257   9.136   7.045   5.265 -0.0158  0.1227 -0.3507
38222SOL    HW118258   9.171   7.130   5.291  2.2926 -0.6667 -0.6837
38222SOL    HW218259   9.042   7.053   5.279  0.2664  2.3338  0.7265
38223SOL     OW18260   6.844   3.475   6.723 -1.0574 -0.0644 -0.6412
38223SOL    HW118261   6.784   3.530   6.671 -1.6987 -1.5487 -1.5528
38223SOL    HW218262   6.927   3.480   6.676 -1.8533 -2.0889 -2.4357
38224SOL     OW18263   8.116   3.413   9.955  0.0374 -0.1769 -0.6456
38224SOL    HW118264   8.130   3.375   9.868  0.6527 -0.0528 -0.6040
38224SOL    HW218265   8.052   3.482   9.941 -0.7662 -0.9264 -0.7961
38225SOL     OW18266   3.972   2.446   4.454 -0.8691  0.4663  0.6266
38225SOL    HW118267   3.956   2.444   4.360 -0.4253 -2.8080  0.4829
38225SOL    HW218268   3.897   2.399   4.492  0.5088 -1.1568  1.4921
38226SOL     OW18269   7.465   8.767  10.038  0.0301 -0.0679  0.0066
38226SOL    HW118270   7.429   8.682  10.014  2.0214 -1.0135  0.2046
38226SOL    HW218271   7.465   8.817   9.957 -2.9847  0.5327  0.2548
38227SOL     OW18272  10.029   5.454   9.843  0.1131  0.2878  0.9162
38227SOL    HW118273  10.053   5.528   9.787  2.2873  1.0272  2.6779
38227SOL    HW218274  10.096   5.389   9.826  0.0466  0.0065  1.7170
38228SOL     OW18275   1.419   0.244   3.694  0.2613 -0.5592 -0.1179
38228SOL    HW118276   1.371   0.315   3.653  1.6895  0.8828  0.5848
38228SOL    HW218277   1.400   0.252   3.787  0.3249 -1.2035 -0.0429
38229SOL     OW18278   4.372   4.325   1.249  0.2221  0.4893 -0.0671
38229SOL    HW118279   4.324   4.243   1.252 -0.5897  0.8959 -1.3099
38229SOL    HW218280   4.464   4.299   1.249 -0.0287 -0.4563 -0.9672
38230SOL     OW18281   5.439   4.420   8.179 -0.2680  0.2529 -0.0991
38230SOL    HW118282   5.373   4.351   8.177  0.2633 -0.2605 -0.1501
38230SOL    HW218283   5.471   4.421   8.269  0.6774 -0.4920 -0.4134
38231SOL     OW18284   7.678  10.829   1.127 -0.3572  0.8098 -0.1420
38231SOL    HW118285   7.638  10.915   1.145  1.9831  1.9055  0.2461
38231SOL    HW218286   7.683  10.787   1.213  1.5691  1.7603  0.2541
38232SOL     OW18287   4.746   0.763   9.107  0.8204  0.4078 -0.4054
38232SOL    HW118288   4.813   0.796   9.166  2.1172 -3.3388  0.5118
38232SOL    HW218289   4.796   0.720   9.037 -0.6851  0.6993 -1.6976
38233SOL     OW18290   0.221   4.108   0.232  0.1687  0.3867 -0.0667
38233SOL    HW118291   0.178   4.190   0.257  0.8451  0.6512  0.2877
38233SOL    HW218292   0.203   4.098   0.139  2.2289  2.3484 -0.7882
38234SOL     OW18293   3.424   4.927   4.151 -0.1398  0.0338 -0.5434
38234SOL    HW118294   3.408   4.833   4.145 -1.1251  0.0822  0.7136
38234SOL    HW218295   3.519   4.936   4.150 -0.0413 -0.8087 -2.4699
38235SOL     OW18296   6.638   2.862   9.486 -0.0142  0.2168 -0.2887
38235SOL    HW118297   6.594   2.815   9.556  1.8106 -2.0935 -0.5994
38235SOL    HW218298   6.631   2.805   9.409  1.2705  0.9653 -1.0039
38236SOL     OW18299   9.112   0.699   9.560  0.1098  0.2286 -0.2020
38236SOL    HW118300   9.068   0.728   9.480 -0.7015 -0.1097  0.1081
38236SOL    HW218301   9.165   0.774   9.587  0.3691  0.3516 -1.0428
38237SOL     OW18302   1.723   2.852   3.730 -0.5311  0.1132  0.0920
38237SOL    HW118303   1.785   2.793   3.772 -0.4957  0.5819  0.7141
38237SOL    HW218304   1.749   2.853   3.638 -0.3368 -0.5884  0.1343
38238SOL     OW18305   6.102   8.013   5.506  0.3146  0.3047 -0.8096
38238SOL    HW118306   6.067   8.061   5.432 -1.6780 -0.2034 -0.2536
38238SOL    HW218307   6.133   7.930   5.469  0.5634  0.5931 -1.2547
38239SOL     OW18308   5.668   0.137   0.688 -0.0516 -0.9585 -0.1276
38239SOL    HW118309   5.597   0.127   0.625 -0.1310  0.9992 -0.4233
38239SOL    HW218310   5.632   0.193   0.756  1.0850 -0.1723 -0.1345
38240SOL     OW18311  10.863  10.372   7.281  0.1477 -0.0562 -0.5898
38240SOL    HW118312  10.945  10.324   7.282 -0.1511 -0.5980  0.7548
38240SOL    HW218313  10.795  10.304   7.281 -0.3441  0.3687 -2.4129
38241SOL     OW18314   6.557   3.785   3.938 -0.0592 -0.2348 -0.8461
38241SOL    HW118315   6.515   3.748   4.015  0.9969  0.6002  0.1834
38241SOL    HW218316   6.571   3.877   3.960 -0.0303  0.1059 -2.1773
38242SOL     OW18317   2.276   5.845   2.301  0.4093 -0.0413 -0.1251
38242SOL    HW118318   2.324   5.900   2.239  0.7339  0.5444  0.6278
38242SOL    HW218319   2.335   5.834   2.376 -0.6152  0.7218  0.8380
38243SOL     OW18320   1.760   6.517   3.647  0.0500  0.2981 -0.5776
38243SOL    HW118321   1.763   6.516   3.551 -1.5930  0.6372 -0.6577
38243SOL    HW218322   1.816   6.591   3.671  1.5775 -0.6174 -1.1900
38244SOL     OW18323   4.091   8.852   9.234  0.0041 -0.1025 -0.1317
38244SOL    HW118324   4.083   8.915   9.306 -1.1674 -1.6035  1.1207
38244SOL    HW218325   4.005   8.851   9.194 -0.3133 -1.6425  0.5339
38245SOL     OW18326   1.844   5.072   1.112 -0.1458  0.1976  0.0194
38245SOL    HW118327   1.786   5.061   1.037  0.0725  1.2580 -0.3221
38245SOL    HW218328   1.913   5.130   1.081 -0.6999  1.6430  1.3609
38246SOL     OW18329   1.908  10.259   5.955 -0.0194  0.2152  0.4196
38246SOL    HW118330   1.898  10.347   5.917  0.5314 -0.1487 -0.5865
38246SOL    HW218331   1.976  10.270   6.021 -1.0802  0.8836  1.4423
38247SOL     OW18332   5.852   2.203   5.169  0.3595  0.6584 -0.6912
38247SOL    HW118333   5.791   2.136   5.140  1.9432 -1.6610  0.9613
38247SOL    HW218334   5.797   2.278   5.192 -1.6906 -0.7719 -0.7337
38248SOL     OW18335  10.227   1.807   7.606 -0.2958  0.2016 -0.4254
38248SOL    HW118336  10.215   1.869   7.534  1.4580  0.3426 -0.6403
38248SOL    HW218337  10.315   1.771   7.592 -0.3117 -0.5003  1.1006
38249SOL     OW18338   4.522   4.203   6.568 -0.4649  0.3393 -0.6429
38249SOL    HW118339   4.426   4.195   6.565 -0.5795  1.2693  0.0025
38249SOL    HW218340   4.543   4.205   6.661  0.2229 -0.1471 -0.7794
38250SOL     OW18341   8.583  10.081   9.802 -0.3162  0.0244 -0.0613
38250SOL    HW118342   8.507  10.099   9.858  0.1957 -0.3659  0.7917
38250SOL    HW218343   8.613  10.167   9.774 -0.9639  0.1895 -0.2644
38251SOL     OW18344   2.540   0.949   2.908 -0.2531 -0.1195  0.2591
38251SOL    HW118345   2.528   0.883   2.976 -1.1518  0.6934  0.9154
38251SOL    HW218346   2.468   0.932   2.847 -0.7042  0.4747  0.6207
38252SOL     OW18347   5.231   5.494   0.032 -0.0476  0.0579  0.5807
38252SOL    HW118348   5.234   5.430  -0.039  0.1637 -0.4076  1.0051
38252SOL    HW218349   5.302   5.554   0.014  0.0922 -0.1400  0.4682
38253SOL     OW18350  10.765   1.508  10.030 -0.2871 -0.2422  0.1354
38253SOL    HW118351  10.851   1.467  10.021  0.3435  0.6293  1.8252
38253SOL    HW218352  10.771   1.587   9.976 -0.2617 -0.5026 -0.2523
38254SOL     OW18353   1.583   4.972   2.600  0.9257 -0.0475  0.0784
38254SOL    HW118354   1.600   4.985   2.694 -0.6655 -1.2381  0.5790
38254SOL    HW218355   1.496   4.933   2.597  0.0958  1.7498 -2.0376
38255SOL     OW18356   8.200   1.548   6.073  0.5110 -0.3216 -0.1671
38255SOL    HW118357   8.240   1.509   5.995 -2.0390 -1.7481 -0.8991
38255SOL    HW218358   8.192   1.641   6.052  0.2545 -0.6182 -1.4518
38256SOL     OW18359   6.181   5.197   6.949 -0.2338 -0.2363 -0.2526
38256SOL    HW118360   6.110   5.142   6.915 -0.5557  0.0582 -0.0583
38256SOL    HW218361   6.260   5.145   6.934 -0.4053 -0.2490 -1.1574
38257SOL     OW18362   7.679   4.125   4.252  0.0655 -0.0598 -0.0503
38257SOL    HW118363   7.767   4.151   4.222 -0.2308  0.6582 -0.3269
38257SOL    HW218364   7.621   4.154   4.181 -0.3871 -0.6158  0.0894
38258SOL     OW18365   9.364  10.245   7.004 -0.7007  0.8070 -0.0309
38258SOL    HW118366   9.371  10.311   6.936 -2.2322  0.1054 -0.9253
38258SOL    HW218367   9.281  10.266   7.049 -0.4905  0.3354  0.5969
38259SOL     OW18368   7.761   7.682   3.083  0.1710 -0.1919  0.3690
38259SOL    HW118369   7.705   7.692   3.007 -1.4724 -0.9310  1.4301
38259SOL    HW218370   7.745   7.760   3.135  0.6894 -0.0610  0.3369
38260SOL     OW18371   1.449   6.677  10.975 -0.3469  0.0713 -0.3586
38260SOL    HW118372   1.407   6.667  10.890 -0.3358  1.2916 -0.5296
38260SOL    HW218373   1.377   6.672  11.038 -0.6577  1.2317 -0.5915
38261SOL     OW18374   2.942   5.382  10.483 -0.4237  0.4737  0.3021
38261SOL    HW118375   3.017   5.439  10.468 -0.7333  0.7047 -0.4211
38261SOL    HW218376   2.875   5.414  10.422 -0.6240 -0.6248 -0.0659
38262SOL     OW18377   6.746   4.433   1.555 -0.6814  0.3055  0.1830
38262SOL    HW118378   6.753   4.392   1.468  1.6308  2.1082 -0.5913
38262SOL    HW218379   6.688   4.375   1.604 -0.4256 -1.9141 -1.9289
38263SOL     OW18380   9.602   2.734   7.606 -0.5163  0.1183 -0.0100
38263SOL    HW118381   9.679   2.705   7.556 -0.2491 -0.3777  0.6709
38263SOL    HW218382   9.632   2.813   7.651 -0.5197  0.1328 -0.0334
38264SOL     OW18383  11.018   0.742   8.083 -0.5004  0.4198  0.1045
38264SOL    HW118384  10.953   0.673   8.097 -0.5356  0.4840  0.2512
38264SOL    HW218385  11.065   0.748   8.166  0.3243 -0.2897 -0.2808
38265SOL     OW18386   1.118   0.964   2.298 -0.6505  0.7136 -0.0905
38265SOL    HW118387   1.183   1.009   2.244 -0.0285 -2.2072 -2.0056
38265SOL    HW218388   1.042   0.954   2.241 -0.3265 -1.6232 -0.1961
38266SOL     OW18389  10.245   0.500   9.615 -0.2143 -0.0548  0.5805
38266SOL    HW118390  10.327   0.452   9.604 -1.3722 -2.0653  0.0427
38266SOL    HW218391  10.206   0.461   9.694  0.0381  1.9954  1.7697
38267SOL     OW18392   8.785   3.898   7.413 -0.1946 -0.0337  0.6246
38267SOL    HW118393   8.837   3.845   7.474  1.0226 -0.7813 -0.9757
38267SOL    HW218394   8.839   3.902   7.334 -1.8762  0.5694 -0.5405
38268SOL     OW18395  10.586   2.685   4.824  0.1509 -0.4941  0.1600
38268SOL    HW118396  10.650   2.735   4.875  0.5104  0.3831 -1.1147
38268SOL    HW218397  10.577   2.602   4.872  0.7306  0.1556  1.4454
38269SOL     OW18398   6.327   1.558   8.894  0.4414  0.2971 -0.5422
38269SOL    HW118399   6.401   1.619   8.894 -0.1119  1.0505 -2.5434
38269SOL    HW218400   6.251   1.613   8.911 -0.1102  0.3023 -2.7123
38270SOL     OW18401   4.106   4.802   7.783  0.0599  0.4039  0.0170
38270SOL    HW118402   4.187   4.752   7.781  0.4832  1.0456  0.7039
38270SOL    HW218403   4.040   4.738   7.812  0.5945  0.2307  0.8977
38271SOL     OW18404   3.019   7.707   4.294 -0.0026  0.3871 -0.4846
38271SOL    HW118405   2.981   7.762   4.226  1.9153  1.8933 -0.4345
38271SOL    HW218406   2.954   7.707   4.364 -1.2920  0.1718 -1.6313
38272SOL     OW18407   9.448   8.078   3.691 -0.3008  0.6639  0.4231
38272SOL    HW118408   9.353   8.065   3.700 -0.3460 -0.2197 -1.0326
38272SOL    HW218409   9.465   8.160   3.738 -1.8271  0.9561  0.5248
38273SOL     OW18410   1.073   6.323   4.577  0.5764 -0.3202 -0.3587
38273SOL    HW118411   1.141   6.276   4.626  0.3408 -2.6066 -2.0238
38273SOL    HW218412   0.993   6.272   4.592 -0.6623  1.8931  0.9465
38274SOL     OW18413   0.213   6.293  10.980  0.9730 -0.2814  0.3131
38274SOL    HW118414   0.229   6.371  11.033  1.0531  1.1498 -1.7367
38274SOL    HW218415   0.130   6.259  11.013  0.2920  1.4008  0.4178
38275SOL     OW18416   6.230   5.690   9.847  0.6696  0.2169  0.3904
38275SOL    HW118417   6.147   5.721   9.882  0.8348 -0.3986  1.3616
38275SOL    HW218418   6.243   5.741   9.767 -1.1937 -0.4814 -0.4098
38276SOL     OW18419   6.999   7.895   6.709  0.2629  0.5244 -0.2904
38276SOL    HW118420   7.062   7.965   6.728 -1.0558  2.0616 -1.3127
38276SOL    HW218421   6.915   7.929   6.738 -0.2403 -1.2064  0.3975
38277SOL     OW18422   2.544   8.387   0.433  0.2686  0.2184  0.5015
38277SOL    HW118423   2.601   8.325   0.387  1.0788  0.3427  1.3192
38277SOL    HW218424   2.589   8.471   0.425  1.4827 -0.0888  3.2025
38278SOL     OW18425   8.850   6.982   5.014 -0.4747  0.6243  0.2283
38278SOL    HW118426   8.937   6.991   4.974 -0.0856 -0.9270  0.6794
38278SOL    HW218427   8.848   7.048   5.084 -0.7006  2.5166 -1.4658
38279SOL     OW18428   6.781  10.264   3.835 -0.2216 -0.1489 -0.5600
38279SOL    HW118429   6.855  10.302   3.883 -2.1035  1.1479  1.5533
38279SOL    HW218430   6.815  10.247   3.747  3.1563 -1.6107  0.8163
38280SOL     OW18431   3.187   6.367   3.436 -0.1169  0.1643  0.3740
38280SOL    HW118432   3.115   6.407   3.388 -1.2136  1.4327  2.8902
38280SOL    HW218433   3.239   6.322   3.369 -1.9801  1.0950 -1.8146
38281SOL     OW18434   4.236   2.407   9.764  0.3288  0.4083 -0.1411
38281SOL    HW118435   4.237   2.405   9.859 -0.8249  0.3875 -0.1104
38281SOL    HW218436   4.227   2.499   9.742 -1.3864  0.2702 -0.1581
38282SOL     OW18437   0.900   4.658   4.879 -0.0012  0.2802  0.1953
38282SOL    HW118438   0.812   4.625   4.897  0.1289  0.3415  0.9486
38282SOL    HW218439   0.889   4.719   4.806 -0.2159 -1.5988 -1.4290
38283SOL     OW18440   0.373   3.656   7.959  0.4476 -0.1955  0.5665
38283SOL    HW118441   0.320   3.627   7.884 -0.5626 -1.1316  1.6056
38283SOL    HW218442   0.392   3.748   7.940  0.3561 -0.4454 -0.9055
38284SOL     OW18443   3.654   0.894  10.889  0.4687  0.8220  0.1288
38284SOL    HW118444   3.614   0.959  10.831  0.7024  0.0375 -0.9474
38284SOL    HW218445   3.583   0.866  10.946  0.0156  1.0011 -0.3386
38285SOL     OW18446   2.670   4.445   5.470  0.1630  0.8048  0.4985
38285SOL    HW118447   2.687   4.537   5.485 -0.3534  0.6742  2.0999
38285SOL    HW218448   2.700   4.401   5.549 -0.2272 -0.3184  0.0530
38286SOL     OW18449   4.772   2.626   8.233 -0.0355  0.1932 -0.9850
38286SOL    HW118450   4.856   2.669   8.216  0.5508 -1.2386 -1.9135
38286SOL    HW218451   4.794   2.533   8.240 -1.2452  0.0025  1.1143
38287SOL     OW18452   7.957   9.595   7.411 -0.3329  0.1444  0.1783
38287SOL    HW118453   7.872   9.620   7.449 -1.8576 -2.2608 -1.4212
38287SOL    HW218454   7.977   9.510   7.451  0.2488 -0.3152 -1.0622
38288SOL     OW18455   3.076   4.865   5.568 -0.0029  0.1309  0.4750
38288SOL    HW118456   3.003   4.895   5.621 -0.2727  0.7802 -0.2472
38288SOL    HW218457   3.095   4.938   5.509 -0.3407 -0.8906 -0.9782
38289SOL     OW18458   1.472   1.891   7.637  0.0725  0.1428 -0.1550
38289SOL    HW118459   1.491   1.814   7.691 -0.4206 -0.5026 -0.8875
38289SOL    HW218460   1.545   1.896   7.576 -0.1701 -0.0766 -0.4672
38290SOL     OW18461   7.533   8.125   8.745 -0.6225 -0.0233  0.3488
38290SOL    HW118462   7.587   8.154   8.818  1.0907  0.3807 -1.0007
38290SOL    HW218463   7.594   8.120   8.671 -2.4695  0.5220 -1.2838
38291SOL     OW18464   1.702   2.488   8.976 -0.1535  0.4030  0.3557
38291SOL    HW118465   1.741   2.426   8.915  0.9358  2.9433 -1.7127
38291SOL    HW218466   1.776   2.539   9.009 -1.2164  2.2587  0.0023
38292SOL     OW18467   8.159   9.807   5.742 -0.1505 -0.2474 -0.4350
38292SOL    HW118468   8.166   9.731   5.684  0.1984  0.6091 -1.5477
38292SOL    HW218469   8.086   9.858   5.706 -1.4754 -0.8541  1.2864
38293SOL     OW18470   5.939   8.427   8.775 -0.0078  0.2078 -0.6218
38293SOL    HW118471   5.845   8.413   8.781 -0.1769  0.9140 -1.3581
38293SOL    HW218472   5.950   8.521   8.792  0.8289 -0.2663  1.8659
38294SOL     OW18473   5.087   1.290   2.571 -0.1653  0.2497 -0.1101
38294SOL    HW118474   5.101   1.223   2.504 -0.3122  1.2979 -1.2298
38294SOL    HW218475   5.110   1.372   2.527 -0.2111  0.9621  1.1541
38295SOL     OW18476   4.777  10.099   8.445 -0.0999  0.2698  0.2313
38295SOL    HW118477   4.747  10.180   8.487  2.8339  2.8648 -2.2157
38295SOL    HW218478   4.723  10.092   8.366  0.8495  0.9336 -0.4976
38296SOL     OW18479   6.898   6.589   7.124  0.2815  0.1122 -0.2020
38296SOL    HW118480   6.808   6.611   7.146  0.6152  0.9142  0.4247
38296SOL    HW218481   6.918   6.644   7.049  1.0206  1.8512  1.1841
38297SOL     OW18482   8.435   9.924   6.781 -0.0035 -0.2694  0.2647
38297SOL    HW118483   8.452   9.916   6.687 -1.2689  0.4887 -0.0518
38297SOL    HW218484   8.414   9.835   6.810  1.0370 -0.6241 -0.0153
38298SOL     OW18485  10.499   7.369   1.305  0.1296 -0.2466  0.0196
38298SOL    HW118486  10.418   7.322   1.285  1.3304 -2.1663 -0.6088
38298SOL    HW218487  10.529   7.402   1.221 -0.4051  1.2389  0.3792
38299SOL     OW18488   2.924   8.178   7.793  0.7234  0.1059  0.3131
38299SOL    HW118489   2.865   8.118   7.841  0.5206 -0.9497 -1.1955
38299SOL    HW218490   2.905   8.161   7.701  0.8780  2.3208 -0.1828
38300SOL     OW18491   8.542   7.892  10.078  0.1745 -0.2117 -0.2629
38300SOL    HW118492   8.612   7.891  10.143 -1.3780 -4.5706  1.6707
38300SOL    HW218493   8.478   7.955  10.113 -0.8276 -2.7251  2.9752
38301SOL     OW18494   7.347   8.652   6.840  0.2638  0.1973 -0.0413
38301SOL    HW118495   7.264   8.660   6.794  0.7571  0.2026 -0.9479
38301SOL    HW218496   7.389   8.738   6.830  1.1049 -0.3081 -1.0485
38302SOL     OW18497   1.296   8.834   6.599 -0.4385 -0.5151  0.1059
38302SOL    HW118498   1.255   8.870   6.678  1.1732 -0.5636  0.9876
38302SOL    HW218499   1.246   8.874   6.527 -3.2258 -1.9495  1.0775
38303SOL     OW18500   3.995   1.588  10.184 -0.2125  0.0004 -0.5834
38303SOL    HW118501   3.948   1.505  10.171  2.6557 -1.7866 -0.2568
38303SOL    HW218502   4.061   1.589  10.114  2.4256 -0.0372  1.7519
38304SOL     OW18503  10.956  10.721   3.581 -0.2150  0.4431 -0.2557
38304SOL    HW118504  11.018  10.726   3.654  0.6892 -0.7553 -0.8940
38304SOL    HW218505  10.979  10.639   3.536 -0.7907  1.1028 -1.8359
38305SOL     OW18506   0.588   4.527  10.107  0.3261  0.2473 -0.2903
38305SOL    HW118507   0.543   4.537  10.191 -1.1406  1.3128 -1.1520
38305SOL    HW218508   0.679   4.550  10.125 -0.0823  1.0446  0.8755
38306SOL     OW18509   1.369   5.235   1.501 -0.5017  0.1567 -0.2947
38306SOL    HW118510   1.350   5.325   1.530  1.3258  0.3538  0.4282
38306SOL    HW218511   1.464   5.228   1.507 -0.4994 -1.3963 -1.7129
38307SOL     OW18512   1.750   0.304   3.411  0.0047  0.1698 -1.0137
38307SOL    HW118513   1.701   0.230   3.447 -0.4509  0.9230 -0.0423
38307SOL    HW218514   1.765   0.362   3.486 -0.8162  1.7140 -1.9882
38308SOL     OW18515   5.659   3.710   5.258 -0.8876  0.1797  0.4380
38308SOL    HW118516   5.697   3.797   5.250  0.1549 -0.3699 -1.0659
38308SOL    HW218517   5.576   3.716   5.212 -0.2024  0.0515 -0.8453
38309SOL     OW18518   2.211   2.910   9.062 -0.6680 -0.2105 -0.1190
38309SOL    HW118519   2.249   2.995   9.042 -2.3132  0.5119 -0.3261
38309SOL    HW218520   2.121   2.929   9.087 -0.6193 -1.7516  1.4040
38310SOL     OW18521   4.282   0.723   0.625 -0.0253 -0.1945  0.6298
38310SOL    HW118522   4.309   0.695   0.713  0.5471 -2.4509 -0.2018
38310SOL    HW218523   4.204   0.671   0.607 -2.0770  2.5502  0.9684
38311SOL     OW18524   2.157   8.167   3.407 -0.4152 -0.1971  0.4237
38311SOL    HW118525   2.097   8.220   3.460 -2.6664 -0.0747 -2.0492
38311SOL    HW218526   2.240   8.214   3.410 -1.3643  1.5212  1.2098
38312SOL     OW18527   7.535  10.631   5.689 -0.5558  1.0012 -0.7737
38312SOL    HW118528   7.440  10.627   5.678 -0.5963  0.8199 -0.3563
38312SOL    HW218529   7.555  10.725   5.688 -0.9315  1.1215  0.7278
38313SOL     OW18530  10.073   4.785   2.685  0.2196 -0.2693 -0.0723
38313SOL    HW118531  10.049   4.724   2.755  2.5140 -0.2597  0.7874
38313SOL    HW218532  10.088   4.868   2.730  2.7365 -0.5113 -0.3496
38314SOL     OW18533   2.756   9.562   5.460  0.9412  0.3131  0.0003
38314SOL    HW118534   2.720   9.477   5.485  1.3305  0.3063  0.5391
38314SOL    HW218535   2.684   9.606   5.414  1.4429 -1.2032 -2.3972
38315SOL     OW18536   8.844   2.715   6.649  0.0135 -0.4456 -0.2973
38315SOL    HW118537   8.917   2.658   6.675 -0.6458 -0.4535  1.7409
38315SOL    HW218538   8.885   2.794   6.614  1.0393 -0.2524  1.2626
38316SOL     OW18539   9.966   1.851  11.081 -0.2199 -0.0678  0.2065
38316SOL    HW118540  10.019   1.773  11.098  1.3562  1.1780  1.2331
38316SOL    HW218541   9.876   1.822  11.100  0.3741 -1.4961  1.0537
38317SOL     OW18542   6.913   4.167   9.835 -0.2297  0.6678  0.5770
38317SOL    HW118543   6.849   4.121   9.780  0.3076 -1.1265  1.3769
38317SOL    HW218544   6.927   4.251   9.790 -0.6063 -0.2772 -1.4257
38318SOL     OW18545   5.719   3.639   7.899  0.0696  0.6764 -0.1390
38318SOL    HW118546   5.665   3.588   7.839 -1.7973  1.5593  0.6925
38318SOL    HW218547   5.667   3.643   7.980  0.1407  3.7675 -0.1303
38319SOL     OW18548   3.751   6.734   6.418  0.3713  0.0237  0.0698
38319SOL    HW118549   3.717   6.823   6.425 -0.8786 -0.2310 -1.9635
38319SOL    HW218550   3.723   6.691   6.499  0.7125  1.3559  0.9322
38320SOL     OW18551   4.461   7.052   6.396  0.1143  0.2906 -0.0016
38320SOL    HW118552   4.428   6.980   6.342 -0.8852  0.3110  0.5512
38320SOL    HW218553   4.438   7.131   6.348  1.8997  0.2542 -0.9886
38321SOL     OW18554   4.085   2.912   4.312  0.0754 -0.3718  0.9700
38321SOL    HW118555   4.098   2.821   4.285  0.8340  0.9107 -4.1161
38321SOL    HW218556   3.996   2.933   4.284  1.0459  1.2343 -1.1914
38322SOL     OW18557   6.454   5.685   3.291 -0.1382  0.4418  0.5356
38322SOL    HW118558   6.403   5.737   3.353  1.1811  0.9299  1.2442
38322SOL    HW218559   6.521   5.745   3.258 -0.0351 -0.1716 -0.4144
38323SOL     OW18560   7.144   5.806   5.854  0.2729  0.0515  0.0000
38323SOL    HW118561   7.153   5.868   5.782 -0.2410 -2.9685 -2.9032
38323SOL    HW218562   7.227   5.759   5.856  0.1874 -0.0756  1.2473
38324SOL     OW18563   0.457   2.318   3.908 -0.2870  0.1167 -0.2683
38324SOL    HW118564   0.540   2.288   3.944 -0.8873 -0.7256  0.4510
38324SOL    HW218565   0.426   2.245   3.855 -2.0184 -0.8535  1.9168
38325SOL     OW18566   3.009   7.882   8.693  0.7337 -0.1784 -0.0612
38325SOL    HW118567   3.021   7.795   8.654 -2.0251 -0.6676  0.0029
38325SOL    HW218568   2.945   7.925   8.636  1.4552  1.5519  0.3602
38326SOL     OW18569   9.391   2.753   8.194  0.0182 -0.0051 -0.1349
38326SOL    HW118570   9.302   2.778   8.217 -0.7600 -3.1116  0.6755
38326SOL    HW218571   9.443   2.774   8.272 -0.1409  0.9427 -0.2654
38327SOL     OW18572   3.210   8.872   6.069  0.0251  0.0923  0.0797
38327SOL    HW118573   3.151   8.829   6.007 -1.1067  0.1170  1.0888
38327SOL    HW218574   3.192   8.965   6.060  0.3340  0.1431 -0.0192
38328SOL     OW18575   7.207   8.103   5.743 -0.0495 -1.1907  0.1651
38328SOL    HW118576   7.158   8.035   5.790  0.6814 -1.6490  0.2830
38328SOL    HW218577   7.228   8.063   5.658  0.5831 -1.2043  0.3244
38329SOL     OW18578   4.734   1.834   2.221  0.1007 -0.3159  0.3016
38329SOL    HW118579   4.763   1.925   2.228 -0.2141 -0.0836 -1.0283
38329SOL    HW218580   4.680   1.820   2.299 -0.0315  0.7090  0.4140
38330SOL     OW18581   9.148   2.319   3.145  0.4027  0.3329  0.2607
38330SOL    HW118582   9.234   2.293   3.113  0.4350  2.7521 -1.9033
38330SOL    HW218583   9.097   2.339   3.066 -1.7262  0.2509  1.5209
38331SOL     OW18584   5.033   0.472   9.030  0.3504  0.4716 -0.2153
38331SOL    HW118585   5.047   0.472   8.935  0.7385 -0.3689 -0.1642
38331SOL    HW218586   4.941   0.497   9.040 -0.4545 -1.9235 -0.9553
38332SOL     OW18587   9.673   9.011   3.206  0.0308 -0.3304  0.4157
38332SOL    HW118588   9.760   9.034   3.173 -0.4897  2.4746  0.7870
38332SOL    HW218589   9.617   9.014   3.128  0.1195 -1.5018  0.2884
38333SOL     OW18590   9.710   7.250   5.444  0.7936  0.0344 -0.5209
38333SOL    HW118591   9.738   7.179   5.501 -0.4465  0.3181  0.4843
38333SOL    HW218592   9.654   7.208   5.379  0.3260  0.0214 -0.1204
38334SOL     OW18593  10.954   1.167   2.262  0.3682 -0.0776  0.4966
38334SOL    HW118594  11.027   1.121   2.303  0.0024 -1.3497 -0.2330
38334SOL    HW218595  10.920   1.105   2.197 -0.4666  1.0366 -0.1569
38335SOL     OW18596   0.167   4.790   0.673 -0.7907  0.0369 -0.0477
38335SOL    HW118597   0.211   4.831   0.599 -1.2914 -0.0008 -0.3678
38335SOL    HW218598   0.088   4.841   0.685 -1.0541 -0.3824  0.0222
38336SOL     OW18599   4.998   3.216   0.563  0.1912  0.6809  0.5181
38336SOL    HW118600   5.069   3.277   0.543  1.4569 -1.2586 -1.3542
38336SOL    HW218601   5.019   3.181   0.649  1.6268  0.0479 -0.0556
38337SOL     OW18602   6.283  10.862   4.916  0.8417 -0.1261 -0.3771
38337SOL    HW118603   6.258  10.913   4.840 -1.7380 -0.8039 -0.0631
38337SOL    HW218604   6.229  10.895   4.987  0.2058 -2.2173  0.1798
38338SOL     OW18605   1.943   9.236   6.581  0.1891  0.0593  0.0389
38338SOL    HW118606   1.900   9.241   6.667  0.8387 -1.0799  0.4404
38338SOL    HW218607   1.871   9.224   6.519 -0.1848 -0.4504  0.5650
38339SOL     OW18608   6.802   8.914   7.272 -0.1107  0.2594 -0.2759
38339SOL    HW118609   6.846   8.980   7.326  0.8928 -0.9559  0.4678
38339SOL    HW218610   6.769   8.850   7.336 -0.2495 -0.4218 -1.0223
38340SOL     OW18611   0.906   5.298  10.531 -0.6160  0.6034 -0.5575
38340SOL    HW118612   0.813   5.277  10.537 -0.2509 -1.8103 -1.9228
38340SOL    HW218613   0.925   5.293  10.438  1.0151  0.3666 -0.2363
38341SOL     OW18614   6.000   6.116   4.805  0.0446  0.3398  0.2157
38341SOL    HW118615   6.076   6.069   4.840  0.6124  0.1165 -1.2447
38341SOL    HW218616   6.035   6.172   4.736 -1.2107 -0.6058 -1.2830
38342SOL     OW18617   1.036   0.364   8.060  0.6099 -0.1155 -0.0219
38342SOL    HW118618   1.115   0.413   8.036  1.7784 -1.1770  1.4367
38342SOL    HW218619   1.062   0.272   8.052 -0.2268 -0.4813  1.2409
38343SOL     OW18620   5.773   7.474   2.188  0.3186  0.0679  0.1521
38343SOL    HW118621   5.716   7.414   2.236  0.2809  1.0601  1.4009
38343SOL    HW218622   5.810   7.531   2.255  1.3243  0.6504 -0.8571
38344SOL     OW18623   9.944   2.403   0.156  0.2304  0.3472  0.0050
38344SOL    HW118624   9.925   2.310   0.167 -1.1182  0.6129  0.0661
38344SOL    HW218625   9.932   2.419   0.062 -0.1422  0.5831  0.0911
38345SOL     OW18626   1.185  10.280   6.192  0.1125  0.1434  0.3012
38345SOL    HW118627   1.256  10.337   6.164 -0.4763  0.5235 -0.4596
38345SOL    HW218628   1.124  10.339   6.237  0.6140 -0.3027  1.6180
38346SOL     OW18629   8.117   6.963   3.537 -0.1689 -0.4279 -0.3161
38346SOL    HW118630   8.063   7.012   3.600 -0.5029 -2.8830  1.4378
38346SOL    HW218631   8.178   6.913   3.591  0.5731 -1.4777 -2.0343
38347SOL     OW18632   9.727   1.394   6.827  0.0545 -0.0157  0.4732
38347SOL    HW118633   9.750   1.462   6.764 -1.2898 -0.2813 -0.3521
38347SOL    HW218634   9.645   1.359   6.794  1.0735 -2.5588  0.4666
38348SOL     OW18635  10.221   3.629   6.864 -0.3274 -0.2248  0.1892
38348SOL    HW118636  10.308   3.623   6.903  0.1864  0.1099 -0.8537
38348SOL    HW218637  10.164   3.581   6.924  0.4581  0.0659  1.2047
38349SOL     OW18638  10.467   2.442   0.398  0.7087 -0.1430 -0.2111
38349SOL    HW118639  10.518   2.431   0.318  1.9225  2.8117  0.0322
38349SOL    HW218640  10.453   2.537   0.405 -3.1247 -0.6055  0.8475
38350SOL     OW18641   0.940   3.934   4.353 -0.0183  0.1607 -0.9699
38350SOL    HW118642   0.863   3.902   4.307 -0.4429 -0.6157  0.2235
38350SOL    HW218643   0.999   3.859   4.356  0.6016  0.6175 -1.4766
38351SOL     OW18644   1.181   4.459   1.225  0.0072  0.6959  0.7116
38351SOL    HW118645   1.146   4.498   1.145  1.2581  0.2757 -0.0612
38351SOL    HW218646   1.109   4.465   1.288 -1.7979 -0.9336 -1.0612
38352SOL     OW18647   5.363   9.174  10.740  0.2230  0.3336  0.3675
38352SOL    HW118648   5.426   9.105  10.716  0.0808  0.2406  0.2586
38352SOL    HW218649   5.301   9.130  10.799  0.0162  0.3165  0.1389
38353SOL     OW18650  10.243   5.678   5.812 -0.0872  0.0301 -0.4811
38353SOL    HW118651  10.211   5.588   5.805 -1.3875  0.4175  0.1301
38353SOL    HW218652  10.304   5.676   5.885  0.2414 -0.4455 -0.7645
38354SOL     OW18653  10.345  11.100   8.395  0.3534  0.2448  0.0630
38354SOL    HW118654  10.384  11.187   8.404  0.9585 -0.1045  0.8807
38354SOL    HW218655  10.399  11.057   8.329  0.5760  0.1980  0.2747
38355SOL     OW18656   8.998   2.081   2.266  0.0723  0.1169  0.2635
38355SOL    HW118657   9.019   2.131   2.187  2.7071  1.7546  1.8591
38355SOL    HW218658   9.037   2.131   2.338 -1.9184 -1.4474  2.6380
38356SOL     OW18659   0.821   7.935  10.913 -0.2739  0.4216 -0.3677
38356SOL    HW118660   0.739   7.961  10.871 -1.4698 -2.7032 -0.1966
38356SOL    HW218661   0.876   7.905  10.841 -0.6042 -0.6942 -0.1649
38357SOL     OW18662   8.826   6.983   6.169  0.0263  0.6202  0.1720
38357SOL    HW118663   8.907   6.934   6.185  0.1926  1.3099  1.6683
38357SOL    HW218664   8.758   6.917   6.169  0.4851  0.1358 -0.1577
38358SOL     OW18665   6.986   9.991   0.916  0.0526 -0.3264  0.3507
38358SOL    HW118666   6.983  10.076   0.872 -0.7214 -0.6872 -0.3340
38358SOL    HW218667   6.908   9.946   0.885  1.0246 -1.7092 -0.1593
38359SOL     OW18668   4.969   9.127   6.559  0.4430  0.5437  0.3739
38359SOL    HW118669   4.907   9.161   6.495 -1.4093 -0.2676  1.6252
38359SOL    HW218670   4.990   9.039   6.528  2.7679  1.5437 -1.1887
38360SOL     OW18671   4.461  10.396   4.615  0.1747 -0.2461 -0.5058
38360SOL    HW118672   4.416  10.322   4.575  2.3295 -0.6640 -2.3985
38360SOL    HW218673   4.510  10.435   4.544  2.2147  0.5805  1.2361
38361SOL     OW18674   4.397   5.396  10.392  0.4769 -0.3959 -0.0494
38361SOL    HW118675   4.322   5.390  10.451  0.1270 -1.4088 -0.5730
38361SOL    HW218676   4.413   5.489  10.382 -2.1533 -0.0231 -1.7272
38362SOL     OW18677   6.788  11.094   4.765 -0.3036 -0.1411 -0.1453
38362SOL    HW118678   6.728  11.019   4.771 -1.4154  0.5784 -1.5303
38362SOL    HW218679   6.787  11.117   4.672  0.0027  1.5874  0.2482
38363SOL     OW18680  10.518   4.139   3.365 -0.5634 -0.1023 -0.1553
38363SOL    HW118681  10.534   4.142   3.459 -0.6858  1.7537 -0.1578
38363SOL    HW218682  10.603   4.154   3.325 -0.9636  2.3406 -0.2534
38364SOL     OW18683  10.916   9.865   9.167  0.1178 -0.0624  0.0070
38364SOL    HW118684  10.875   9.947   9.193  1.7058  0.5186  0.8709
38364SOL    HW218685  10.888   9.850   9.077 -2.2005  0.0917  0.6585
38365SOL     OW18686   7.343   8.865   2.055 -0.0163  0.7263 -0.6090
38365SOL    HW118687   7.386   8.806   2.118 -1.7156 -0.8713 -0.8540
38365SOL    HW218688   7.402   8.940   2.048  0.7921  0.4253  1.9966
38366SOL     OW18689   1.241   7.040   0.710  0.7893  0.3536  0.0879
38366SOL    HW118690   1.217   7.127   0.680 -0.9610 -0.2841 -0.5019
38366SOL    HW218691   1.211   7.036   0.800 -1.0662 -0.2874 -0.5095
38367SOL     OW18692   7.865  10.174   8.214  0.6313  0.6855  0.4458
38367SOL    HW118693   7.857  10.084   8.244 -0.2290  0.7057  0.3029
38367SOL    HW218694   7.926  10.214   8.276 -0.3422  0.4627  1.5829
38368SOL     OW18695   8.066  10.078   1.273 -0.0449  0.4757 -0.4767
38368SOL    HW118696   8.084   9.998   1.224  0.4578  0.0549  0.3601
38368SOL    HW218697   8.099  10.149   1.217  0.0463  0.0541 -0.9649
38369SOL     OW18698  10.076   8.508   9.268 -0.2548  0.4697  0.2641
38369SOL    HW118699  10.033   8.456   9.336  0.0352  0.2907  0.3119
38369SOL    HW218700  10.005   8.556   9.226 -0.5251  0.0355  0.2192
38370SOL     OW18701   1.414   7.348   5.248  0.3252  0.1958  0.7486
38370SOL    HW118702   1.491   7.375   5.197 -1.1357  1.0686 -1.0963
38370SOL    HW218703   1.404   7.416   5.314  0.2416  0.9364 -0.0045
38371SOL     OW18704   4.935   0.769   9.304  0.1191  0.1818  0.0724
38371SOL    HW118705   4.986   0.693   9.332  0.4644  0.6644  0.7882
38371SOL    HW218706   4.957   0.837   9.368 -0.5730  0.7297 -0.2616
38372SOL     OW18707  10.779  10.459   2.631  0.3239 -0.2003 -0.6908
38372SOL    HW118708  10.725  10.474   2.708  1.9100 -0.0366  0.4291
38372SOL    HW218709  10.857  10.415   2.664  2.3253  2.2982 -1.7050
38373SOL     OW18710   2.564   7.705  10.263 -0.2453 -0.2159  0.0116
38373SOL    HW118711   2.641   7.675  10.311 -0.4007  0.8684  0.9835
38373SOL    HW218712   2.595   7.720  10.174  1.3653  2.5811  0.9152
38374SOL     OW18713   0.994   4.521   9.788 -0.6153 -0.2165 -0.7142
38374SOL    HW118714   0.970   4.479   9.705  1.9015 -0.0637 -1.5956
38374SOL    HW218715   1.080   4.559   9.771 -0.4605  0.6463  1.7138
38375SOL     OW18716   4.959   7.669   5.820  0.0627  0.3280  0.0333
38375SOL    HW118717   5.023   7.614   5.864 -2.2523 -1.3528  1.4840
38375SOL    HW218718   4.956   7.749   5.872  0.2277 -0.0127  0.5664
38376SOL     OW18719   3.798   9.793   2.090 -0.5021 -0.1180  0.0753
38376SOL    HW118720   3.846   9.845   2.154 -0.7325 -0.1310  0.2563
38376SOL    HW218721   3.706   9.815   2.103 -0.5025  0.3625 -0.6799
38377SOL     OW18722   5.134   8.870   2.000  0.4056  0.2095  0.3101
38377SOL    HW118723   5.160   8.951   2.044  0.5119 -0.1786  0.9706
38377SOL    HW218724   5.056   8.841   2.047 -0.2321  0.4546 -0.5706
38378SOL     OW18725   4.923   7.010   3.973 -0.2840  0.0656 -0.3151
38378SOL    HW118726   5.010   6.977   3.951  0.9403  2.0572  1.1641
38378SOL    HW218727   4.880   6.936   4.016  1.2362 -0.5335  0.2408
38379SOL     OW18728   7.945  10.929   1.069 -0.2953  0.0186  0.1554
38379SOL    HW118729   7.903  10.844   1.074 -2.2780  0.9494  0.4263
38379SOL    HW218730   7.886  10.982   1.015  1.6328  0.8334 -1.2854
38380SOL     OW18731   8.457   8.494   4.881 -0.7398 -0.0317 -0.0805
38380SOL    HW118732   8.384   8.477   4.941 -0.0901  0.8301  1.0014
38380SOL    HW218733   8.516   8.419   4.894 -0.6207  0.1315  0.3383
38381SOL     OW18734   1.554   0.029   2.401  0.3615 -0.1328  0.7224
38381SOL    HW118735   1.623   0.058   2.461 -1.2772  1.5110  1.9277
38381SOL    HW218736   1.511  -0.043   2.447 -0.3197  0.5284  1.1355
38382SOL     OW18737   0.467   6.059   1.255 -0.8474 -0.0598 -0.1442
38382SOL    HW118738   0.374   6.072   1.270 -0.8973 -0.2338 -0.3044
38382SOL    HW218739   0.473   6.024   1.166 -0.7315 -1.3205  0.3331
38383SOL     OW18740   8.199   9.863   9.907  0.0560  0.5903 -0.2401
38383SOL    HW118741   8.112   9.869   9.869  0.5027  0.0401 -1.3768
38383SOL    HW218742   8.235   9.782   9.873  1.5874  1.5492 -1.0142
38384SOL     OW18743   8.773   5.751   1.869 -0.3030 -0.8693 -0.4174
38384SOL    HW118744   8.850   5.801   1.841 -1.0684 -0.1839 -1.3437
38384SOL    HW218745   8.699   5.803   1.839 -1.2050 -0.5206  2.1295
38385SOL     OW18746   7.624   7.794   1.193  0.0200  0.4752  0.1030
38385SOL    HW118747   7.686   7.759   1.257  0.5232 -0.6672 -0.9470
38385SOL    HW218748   7.620   7.726   1.125 -1.4859  1.0616 -0.4349
38386SOL     OW18749   0.823   2.233  10.343 -0.2813 -0.1585 -0.0196
38386SOL    HW118750   0.869   2.235  10.259  1.9290 -0.3023  1.0950
38386SOL    HW218751   0.857   2.308  10.392  0.0703 -1.2301  1.4767
38387SOL     OW18752   7.510   7.027   7.230  0.0164 -0.3094  0.0902
38387SOL    HW118753   7.599   7.055   7.251 -0.5190  2.3307 -0.8114
38387SOL    HW218754   7.513   7.009   7.136 -0.2440 -1.0168  0.2098
38388SOL     OW18755   2.615   2.029   5.995 -0.2970 -0.3165 -0.9000
38388SOL    HW118756   2.701   2.057   6.026  0.6449 -0.6888 -2.9789
38388SOL    HW218757   2.567   2.005   6.075  1.1770  0.7860  0.3778
38389SOL     OW18758   5.478   7.779   5.024 -0.4921  0.0903  0.3714
38389SOL    HW118759   5.542   7.748   4.960 -0.6719  0.8198 -0.1683
38389SOL    HW218760   5.529   7.837   5.082 -0.5747  0.3302  0.2029
38390SOL     OW18761   3.211   9.133  10.243 -0.1036 -0.2284  0.3539
38390SOL    HW118762   3.195   9.211  10.189 -0.5069  0.8232  1.9147
38390SOL    HW218763   3.177   9.157  10.330  0.6503 -1.7975  1.1174
38391SOL     OW18764   0.193   0.332   7.496  0.1570  0.0590 -0.3270
38391SOL    HW118765   0.154   0.322   7.583 -1.0911 -0.5823 -0.9251
38391SOL    HW218766   0.139   0.399   7.454 -0.4778 -1.0241 -1.2630
38392SOL     OW18767   8.331   6.811   4.791 -0.2631 -0.1398 -0.2321
38392SOL    HW118768   8.424   6.794   4.775 -0.3423  0.9860 -2.2027
38392SOL    HW218769   8.286   6.739   4.746 -0.3820 -0.1452 -0.1047
38393SOL     OW18770   1.002   1.580   5.967  0.5533  0.7829  0.0718
38393SOL    HW118771   0.909   1.603   5.960  0.8710  2.1636  0.0019
38393SOL    HW218772   1.020   1.581   6.061  0.4936  0.5223  0.0847
38394SOL     OW18773   0.780   9.099   7.721 -0.1139 -0.9221 -0.2161
38394SOL    HW118774   0.722   9.023   7.722  0.1743 -1.2499 -2.6859
38394SOL    HW218775   0.755   9.148   7.643 -1.1730  2.3266  1.9520
38395SOL     OW18776   3.166   7.147  10.395  0.1968 -0.2174  0.0929
38395SOL    HW118777   3.162   7.127  10.302 -0.9274  0.8957 -0.1308
38395SOL    HW218778   3.226   7.082  10.431  0.6864 -0.6398 -1.4029
38396SOL     OW18779   3.293   2.453   4.715 -0.3642 -0.1646  0.0082
38396SOL    HW118780   3.365   2.455   4.651 -0.8175 -0.4141 -0.5185
38396SOL    HW218781   3.318   2.384   4.777  1.0003  1.3478  1.2240
38397SOL     OW18782   1.476   3.822   1.364 -0.7953 -0.5716 -1.0543
38397SOL    HW118783   1.562   3.844   1.401 -1.0053 -2.8178  1.0384
38397SOL    HW218784   1.438   3.906   1.339  1.6678  0.5555 -1.2699
38398SOL     OW18785   1.922   1.777   4.190  0.0221  0.3072  0.0860
38398SOL    HW118786   1.876   1.833   4.252 -0.9960 -1.4313  0.9892
38398SOL    HW218787   2.007   1.818   4.178 -0.5453  1.8084  0.9974
38399SOL     OW18788   4.085   4.862   0.719  0.2897 -0.2737  0.0803
38399SOL    HW118789   4.078   4.909   0.636  0.8730  1.8889  1.1611
38399SOL    HW218790   4.164   4.899   0.760 -0.8640 -0.1085  2.2723
38400SOL     OW18791   9.293   2.163   5.309 -0.5036 -0.5822 -0.0738
38400SOL    HW118792   9.250   2.245   5.285 -0.1996 -0.8261 -1.4810
38400SOL    HW218793   9.348   2.186   5.384  0.3831  0.7334 -1.0969
38401SOL     OW18794   5.049   7.495   4.705 -0.2246 -0.1496 -0.8265
38401SOL    HW118795   5.099   7.521   4.628 -1.3229  0.6894 -1.2801
38401SOL    HW218796   5.052   7.399   4.705 -0.5458 -0.1725 -2.1347
38402SOL     OW18797  10.723   9.673   4.984 -0.3513 -0.8277  0.2350
38402SOL    HW118798  10.750   9.585   4.960  2.1225  0.6563 -3.2002
38402SOL    HW218799  10.654   9.695   4.922 -1.4113 -0.5280  1.4888
38403SOL     OW18800   6.444   8.062   1.832 -0.2271  0.1709  0.2408
38403SOL    HW118801   6.485   8.145   1.856  1.0776 -1.0270  2.4946
38403SOL    HW218802   6.367   8.056   1.889  0.6361 -0.8781  1.3577
38404SOL     OW18803   5.451   0.436   7.050  0.4444 -0.2725 -0.1341
38404SOL    HW118804   5.381   0.418   7.113  2.0646 -0.3280  1.7784
38404SOL    HW218805   5.476   0.527   7.068  2.5330 -1.0183  1.0843
38405SOL     OW18806   5.826  10.480   3.870  0.2698  0.4252 -0.9734
38405SOL    HW118807   5.870  10.439   3.796 -0.2408 -1.2947 -0.3620
38405SOL    HW218808   5.795  10.407   3.924 -1.1158  1.6011 -0.0851
38406SOL     OW18809   1.266   2.295   5.417 -0.1307  0.5041  0.1832
38406SOL    HW118810   1.271   2.302   5.513 -1.5597 -1.5917  0.4880
38406SOL    HW218811   1.348   2.255   5.391  0.5093  1.6123  0.4434
38407SOL     OW18812   0.009   5.823   7.989 -0.1839 -0.9111 -0.8522
38407SOL    HW118813   0.072   5.886   7.954 -0.4410 -0.2746 -0.2080
38407SOL    HW218814   0.058   5.742   7.998  1.1951  0.0684  1.5656
38408SOL     OW18815  10.629   3.533   6.711  0.0610 -0.2184  0.3937
38408SOL    HW118816  10.542   3.541   6.674 -0.1700 -0.5436  0.8548
38408SOL    HW218817  10.615   3.495   6.798  0.6472 -0.1444  0.5270
38409SOL     OW18818   7.084   4.512  10.197  0.2406  0.1641  0.1856
38409SOL    HW118819   7.077   4.589  10.140 -0.5323  0.5004  0.7212
38409SOL    HW218820   7.178   4.505  10.216  0.3320  0.9199  0.0528
38410SOL     OW18821   3.010   2.631  10.939 -0.2214  0.0143  0.1621
38410SOL    HW118822   2.980   2.587  10.859 -0.8544 -0.0897  0.4482
38410SOL    HW218823   2.931   2.637  10.994 -0.3094  2.1015 -0.1253
38411SOL     OW18824   4.683   4.201   3.681 -0.5104  0.4339  1.0813
38411SOL    HW118825   4.707   4.283   3.723 -0.9671  0.9047  0.4311
38411SOL    HW218826   4.762   4.173   3.636 -0.7380  1.2377  0.1519
38412SOL     OW18827   7.215   6.288   8.364  0.0198  0.2343  0.3460
38412SOL    HW118828   7.250   6.346   8.296  1.8265 -0.8140  0.3076
38412SOL    HW218829   7.141   6.244   8.322  0.4836  0.3353 -0.6024
38413SOL     OW18830   7.349   9.322   8.113  0.1632  0.1588 -0.4001
38413SOL    HW118831   7.319   9.356   8.198  0.9485  0.6438 -0.3111
38413SOL    HW218832   7.329   9.391   8.051  0.9331  0.4277 -0.3639
38414SOL     OW18833   0.959   5.772   7.958 -0.7277  0.4502 -0.2143
38414SOL    HW118834   1.006   5.817   8.029 -0.6390 -0.5750  0.3950
38414SOL    HW218835   0.889   5.724   8.002 -0.7901 -0.0442 -0.8406
38415SOL     OW18836   4.569   6.133   2.500 -0.1931  0.3019  0.1670
38415SOL    HW118837   4.588   6.142   2.406  0.0197  1.3503  0.2975
38415SOL    HW218838   4.508   6.060   2.505  1.1412 -0.9258 -0.6234
38416SOL     OW18839   2.196   0.782   9.576 -0.2831  1.0992  0.5088
38416SOL    HW118840   2.163   0.860   9.621 -0.3935 -0.7156  3.9279
38416SOL    HW218841   2.131   0.714   9.595  1.0211 -0.4285 -0.1992
38417SOL     OW18842  10.856   5.547  10.274 -0.3891 -0.3126 -0.2151
38417SOL    HW118843  10.914   5.473  10.293 -0.3295  0.0469  1.1058
38417SOL    HW218844  10.915   5.621  10.261 -0.5078 -0.0814  0.5005
38418SOL     OW18845   5.669   4.124   7.836 -0.1157 -0.4603 -0.2199
38418SOL    HW118846   5.680   4.165   7.750  1.2373 -0.8091 -0.2382
38418SOL    HW218847   5.618   4.187   7.887  0.8175  0.6746 -0.6573
38419SOL     OW18848   2.424   3.932  10.133 -0.6443 -0.4219  0.0763
38419SOL    HW118849   2.350   3.888  10.173 -0.7837  0.4446  0.7798
38419SOL    HW218850   2.438   3.885  10.050 -0.9039 -1.6553  0.7205
38420SOL     OW18851   2.731   7.556   4.251  0.4605  0.2975  0.2026
38420SOL    HW118852   2.745   7.498   4.177 -0.3929 -0.2129  0.4307
38420SOL    HW218853   2.755   7.643   4.219  0.1434  0.0735 -0.6532
38421SOL     OW18854   6.937   4.881   4.060  0.1479 -0.4982 -0.1837
38421SOL    HW118855   6.991   4.890   3.982 -0.4378  0.1714 -0.5356
38421SOL    HW218856   6.970   4.804   4.105  2.0517  0.4605  0.1549
38422SOL     OW18857   9.089   5.973   1.207  0.0051 -0.1214  0.0404
38422SOL    HW118858   9.109   5.894   1.258  2.1754 -1.3262 -2.4597
38422SOL    HW218859   9.041   5.941   1.131 -1.6566  1.4122  0.3782
38423SOL     OW18860   0.234   9.674   9.451 -0.1710  0.1053 -0.0946
38423SOL    HW118861   0.293   9.748   9.453 -0.6662  0.5067  1.5675
38423SOL    HW218862   0.161   9.699   9.508 -1.3875 -0.8289 -1.1451
38424SOL     OW18863   3.899   4.188   3.086 -0.0949 -0.4926 -0.1907
38424SOL    HW118864   3.886   4.095   3.065  1.7894 -1.2374  1.5753
38424SOL    HW218865   3.836   4.205   3.156  0.4205 -0.8100  0.3567
38425SOL     OW18866   1.459   4.642   2.322 -0.1503  0.6133  0.0159
38425SOL    HW118867   1.512   4.565   2.340  0.7831  1.4519  0.9795
38425SOL    HW218868   1.401   4.615   2.251  0.0399 -1.0132  0.4415
38426SOL     OW18869   9.870   8.577   9.702 -0.3327 -0.0631  0.2206
38426SOL    HW118870   9.892   8.529   9.622  0.7375  1.6161 -0.5477
38426SOL    HW218871   9.803   8.523   9.745  0.9385 -2.3101 -0.4717
38427SOL     OW18872   2.692   5.296  10.943  0.1054  0.2282 -0.7520
38427SOL    HW118873   2.694   5.200  10.946  0.5106  0.1775 -2.0391
38427SOL    HW218874   2.778   5.323  10.975  0.2400  0.1405 -1.0417
38428SOL     OW18875   2.339   5.474   2.166 -0.2837 -0.3056  0.2700
38428SOL    HW118876   2.327   5.551   2.110 -0.1054 -0.8775 -0.5607
38428SOL    HW218877   2.322   5.507   2.255  1.8482  1.2222  0.2165
38429SOL     OW18878   2.840   7.003   1.622  0.5183 -0.0779  0.7522
38429SOL    HW118879   2.795   7.087   1.627 -1.9941 -1.2000 -0.9189
38429SOL    HW218880   2.872   6.998   1.532  0.0894 -1.1336  0.6448
38430SOL     OW18881  10.206   1.864   7.123 -0.1793  0.6306  0.0710
38430SOL    HW118882  10.194   1.817   7.040 -1.2624 -0.2588  0.7240
38430SOL    HW218883  10.292   1.906   7.113  0.2455 -0.4262 -1.0379
38431SOL     OW18884   5.526   8.504  10.804  0.4474 -0.0186  0.2882
38431SOL    HW118885   5.441   8.513  10.847 -0.6781 -0.1337 -1.7335
38431SOL    HW218886   5.542   8.410  10.802  0.6888  0.0113  0.7843
38432SOL     OW18887   6.288   4.482   5.204  0.4703  0.4177 -0.0992
38432SOL    HW118888   6.362   4.511   5.150 -0.9357  1.2723 -1.6570
38432SOL    HW218889   6.248   4.563   5.235  0.5036 -0.0470  1.2048
38433SOL     OW18890   5.765  10.387   0.681 -0.5209 -0.2821 -0.0212
38433SOL    HW118891   5.818  10.416   0.607  0.6088 -0.8915  0.5376
38433SOL    HW218892   5.723  10.467   0.713  1.2972  0.5033  0.5007
38434SOL     OW18893   0.688   0.600   0.770  0.4387  0.2755 -0.0835
38434SOL    HW118894   0.664   0.692   0.783  0.6384  0.3063  0.0758
38434SOL    HW218895   0.664   0.582   0.679 -0.8189  0.1085  0.2555
38435SOL     OW18896   3.703   9.619   4.453  0.2081  0.9088  0.1991
38435SOL    HW118897   3.797   9.604   4.447  0.1209 -0.0249  0.8232
38435SOL    HW218898   3.694   9.708   4.486  0.9426  0.2755  2.2489
38436SOL     OW18899   7.146   9.063   6.703 -0.5770 -0.1292 -0.3025
38436SOL    HW118900   7.066   9.080   6.654 -1.9369 -2.5356  0.8761
38436SOL    HW218901   7.189   8.992   6.655 -0.0323 -0.0128 -0.0017
38437SOL     OW18902   0.261  10.131   4.262 -0.3258 -0.5238  0.4636
38437SOL    HW118903   0.290  10.216   4.293 -1.1794  0.2649 -0.8283
38437SOL    HW218904   0.210  10.095   4.335  1.3876 -0.6838  1.6369
38438SOL     OW18905   7.352  11.008   2.789  0.2819  0.1627  0.5629
38438SOL    HW118906   7.368  10.914   2.802 -0.2436  0.0847  0.6886
38438SOL    HW218907   7.355  11.045   2.878  2.3718  0.5940  0.3580
38439SOL     OW18908   7.185   0.638   0.882  0.1143 -0.0963 -0.2687
38439SOL    HW118909   7.258   0.650   0.943  0.7830  0.7478 -1.1839
38439SOL    HW218910   7.108   0.669   0.929  0.2731 -1.2750  0.8221
38440SOL     OW18911   0.262   7.534   5.186  0.5415  0.1153  0.1488
38440SOL    HW118912   0.204   7.509   5.257 -0.4118 -0.3613 -0.7746
38440SOL    HW218913   0.347   7.549   5.228  0.0463 -0.3532  1.3395
38441SOL     OW18914   9.518   0.248   6.088  0.1206  0.1444  0.0636
38441SOL    HW118915   9.575   0.289   6.153 -0.3344  2.3973 -0.8847
38441SOL    HW218916   9.430   0.279   6.111 -0.0313  1.1013 -1.6793
38442SOL     OW18917   1.242   5.917   9.503  0.2345 -0.5885 -0.6575
38442SOL    HW118918   1.192   5.847   9.545  0.2309  0.3637  0.9962
38442SOL    HW218919   1.323   5.924   9.554  1.6767 -1.4516 -2.7114
38443SOL     OW18920   2.561   2.135   3.122  0.6047  0.5518 -0.4536
38443SOL    HW118921   2.501   2.193   3.169 -0.2680  0.2387 -1.1477
38443SOL    HW218922   2.573   2.060   3.180 -1.4097 -0.3943 -1.1737
38444SOL     OW18923   8.379   0.842   8.717  0.4623  0.3509 -0.0132
38444SOL    HW118924   8.459   0.807   8.678  1.3298  2.0093  0.1637
38444SOL    HW218925   8.384   0.936   8.701 -1.8880  0.4198 -0.7412
38445SOL     OW18926   6.433   3.437   3.352 -0.3880 -0.1443  0.8070
38445SOL    HW118927   6.416   3.529   3.370 -0.1895 -0.3700  2.2744
38445SOL    HW218928   6.514   3.417   3.398 -0.8574 -1.2501  1.2060
38446SOL     OW18929   2.716   9.503   8.825 -0.4164  0.5597 -0.0986
38446SOL    HW118930   2.722   9.421   8.875 -0.4217  0.1329 -0.7751
38446SOL    HW218931   2.628   9.536   8.844  0.0633  1.1140  1.2308
38447SOL     OW18932   6.823  10.754   2.561 -0.2670  0.2715 -0.1433
38447SOL    HW118933   6.865  10.670   2.541 -1.2765 -0.4850  0.7925
38447SOL    HW218934   6.860  10.779   2.645 -1.5465 -0.3525  0.6426
38448SOL     OW18935   6.554   0.904   8.222  0.1592 -0.1851 -0.2814
38448SOL    HW118936   6.619   0.852   8.175 -0.0168 -0.5856 -0.0870
38448SOL    HW218937   6.538   0.854   8.302  0.7086  0.6591  0.3628
38449SOL     OW18938   4.931   9.487  10.986 -0.1616  0.9032  0.4678
38449SOL    HW118939   5.018   9.459  11.014 -0.3575  1.0631  1.2500
38449SOL    HW218940   4.943   9.579  10.962  0.0973  0.6507 -0.3922
38450SOL     OW18941   3.653   0.551   3.768 -0.2807 -0.1670  0.1727
38450SOL    HW118942   3.709   0.518   3.698  0.4576 -2.8299  1.8782
38450SOL    HW218943   3.586   0.483   3.779 -2.4911  1.8339 -0.2144
38451SOL     OW18944   2.352  10.957  10.469 -0.1710 -0.4251  0.3741
38451SOL    HW118945   2.260  10.971  10.447  0.5792  0.0868 -3.0938
38451SOL    HW218946   2.370  10.868  10.441  1.1241  0.6303 -2.6344
38452SOL     OW18947   7.526   2.454   2.787  0.0647  0.2529  0.3825
38452SOL    HW118948   7.468   2.529   2.802 -0.5071  0.5468 -2.6760
38452SOL    HW218949   7.480   2.380   2.827 -1.6305  0.7749 -0.5038
38453SOL     OW18950   4.473   5.846  10.653  0.3423 -0.5206  0.0720
38453SOL    HW118951   4.538   5.821  10.718  1.1808  1.8360  0.2581
38453SOL    HW218952   4.511   5.924  10.611 -0.9283 -0.9868 -2.0839
38454SOL     OW18953   3.924   9.114   9.244 -0.3044  0.3793 -0.2689
38454SOL    HW118954   3.869   9.178   9.288 -0.7848 -0.4399  0.3549
38454SOL    HW218955   3.997   9.099   9.304  1.1821  2.1933 -1.5181
38455SOL     OW18956   8.896   4.899   0.565 -0.0502  0.5576  0.1915
38455SOL    HW118957   8.880   4.992   0.550  1.6023  0.8827  0.3373
38455SOL    HW218958   8.816   4.856   0.533 -0.7851  1.9981  0.0128
38456SOL     OW18959   5.886   5.309   6.858  0.3518  0.0046  0.6379
38456SOL    HW118960   5.865   5.395   6.896  1.4056  0.3327  0.5175
38456SOL    HW218961   5.966   5.325   6.808 -0.6500 -0.5509 -1.2283
38457SOL     OW18962   5.204   2.015   3.575 -0.3399  0.1165 -0.3632
38457SOL    HW118963   5.150   1.961   3.517 -1.2032  0.1467  0.4032
38457SOL    HW218964   5.160   2.012   3.660  0.9181  0.0584  0.3132
38458SOL     OW18965   7.656  10.315  10.525 -0.1439  0.0966  0.5819
38458SOL    HW118966   7.744  10.322  10.561  0.3669 -0.1583 -0.5698
38458SOL    HW218967   7.638  10.221  10.523  0.1365  0.0477 -0.4736
38459SOL     OW18968   5.925   1.048   4.629 -0.3422  0.5250 -0.1308
38459SOL    HW118969   6.005   0.996   4.636  0.0430  1.1876  0.4914
38459SOL    HW218970   5.911   1.083   4.717 -2.1540 -0.7797  0.1578
38460SOL     OW18971  10.584   0.215   0.972 -0.6489  0.0222  0.3530
38460SOL    HW118972  10.582   0.231   1.066  1.1235  0.3739  0.3666
38460SOL    HW218973  10.584   0.302   0.932  1.8184 -0.0012  0.1771
38461SOL     OW18974  10.041   6.536   6.678  0.2923  0.4820 -0.1326
38461SOL    HW118975  10.025   6.443   6.663 -0.8932  0.4325  1.1961
38461SOL    HW218976  10.046   6.544   6.773  3.2420  1.3694 -0.2477
38462SOL     OW18977   2.373  10.890   2.739  0.1261  0.3657 -0.3187
38462SOL    HW118978   2.368  10.809   2.688  0.1602  1.1291 -1.5656
38462SOL    HW218979   2.458  10.886   2.783  0.3106 -0.0776 -0.7118
38463SOL     OW18980   2.745   3.662   1.323  0.0559  0.1501  0.1555
38463SOL    HW118981   2.691   3.665   1.245 -0.1809 -0.0002  0.3134
38463SOL    HW218982   2.693   3.705   1.391 -0.1834 -0.6637  0.4967
38464SOL     OW18983   9.743   3.695  10.758 -0.8466  0.1682 -0.0666
38464SOL    HW118984   9.702   3.611  10.782 -1.2100 -0.3031 -2.1959
38464SOL    HW218985   9.685   3.732  10.692  0.0975  1.4085 -0.2328
38465SOL     OW18986   7.622   1.454  10.165 -0.3357 -0.0832 -0.0372
38465SOL    HW118987   7.581   1.473  10.249  0.2093 -0.2027  0.2642
38465SOL    HW218988   7.714   1.476  10.178 -0.2782  0.0691 -0.6610
38466SOL     OW18989   4.777   9.548   7.470  0.5082 -0.0542 -0.3344
38466SOL    HW118990   4.820   9.551   7.555 -0.8990 -0.8597  0.4367
38466SOL    HW218991   4.709   9.615   7.475  0.6244  0.1196 -0.9570
38467SOL     OW18992   8.369   9.741   9.005 -0.2902 -0.3122 -0.2049
38467SOL    HW118993   8.384   9.675   8.937  3.0738  0.4774 -0.4142
38467SOL    HW218994   8.384   9.695   9.087  1.4257 -0.0216 -0.3229
38468SOL     OW18995   2.178  10.857   4.492 -0.4583 -0.3228  0.0789
38468SOL    HW118996   2.231  10.937   4.497  0.1862 -0.5990 -1.5164
38468SOL    HW218997   2.123  10.859   4.570  0.6747  0.8702  0.8913
38469SOL     OW18998  10.327   1.760  10.526 -0.3486 -0.4260 -0.0315
38469SOL    HW118999  10.368   1.723  10.447 -0.7538 -1.1758  0.1015
38469SOL    HW219000  10.235   1.736  10.518 -0.2797 -1.0731  0.9861
38470SOL     OW19001   5.173   3.585   6.511  1.0867  0.3778 -0.0445
38470SOL    HW119002   5.101   3.619   6.563  2.0396  0.8449  1.0034
38470SOL    HW219003   5.133   3.562   6.427 -0.0775  1.6243  0.1363
38471SOL     OW19004  10.993   8.637  10.186 -0.3114 -0.4301 -0.0769
38471SOL    HW119005  11.042   8.555  10.194  0.5550 -0.4658 -3.8592
38471SOL    HW219006  10.925   8.618  10.120 -1.3767  1.3769  0.4120
38472SOL     OW19007   0.491   6.480   8.634 -0.3350 -0.3958 -0.2526
38472SOL    HW119008   0.534   6.450   8.714  0.5824  0.3671 -0.4380
38472SOL    HW219009   0.462   6.569   8.655 -0.0160 -0.1639 -0.7967
38473SOL     OW19010   1.320   1.999   6.642 -0.5461 -0.0422  0.8920
38473SOL    HW119011   1.317   1.911   6.604  0.0379 -0.7616  2.4111
38473SOL    HW219012   1.229   2.021   6.658 -0.7729  0.0997 -0.4757
38474SOL     OW19013   6.931   6.051   4.979 -0.5993  0.2007 -0.1786
38474SOL    HW119014   6.859   6.056   4.917  0.0763 -0.3055 -1.0315
38474SOL    HW219015   6.991   6.121   4.953 -0.9491  0.8697  0.7649
38475SOL     OW19016   5.663   7.604   9.487  0.0542 -0.1846  0.2237
38475SOL    HW119017   5.754   7.584   9.507  0.5022 -0.4749 -1.8185
38475SOL    HW219018   5.648   7.691   9.523  0.9690 -0.3543  1.0400
38476SOL     OW19019   3.269  10.901   3.079  0.0515  0.0396 -0.6171
38476SOL    HW119020   3.359  10.907   3.048  1.1983 -2.3158  1.8135
38476SOL    HW219021   3.273  10.927   3.171 -1.8721  0.4114 -0.5854
38477SOL     OW19022   8.931   2.370   7.396  0.5175  0.1117  0.3152
38477SOL    HW119023   8.964   2.403   7.479 -0.8389  0.8970  0.5702
38477SOL    HW219024   8.962   2.432   7.331  0.4767  0.2237  0.4037
38478SOL     OW19025   2.489   7.684   1.039  0.2853  0.3594  0.1788
38478SOL    HW119026   2.490   7.726   0.953 -0.5770 -0.7095 -0.3850
38478SOL    HW219027   2.415   7.724   1.085  0.2711  0.3808  0.1370
38479SOL     OW19028   6.004   2.628   3.543  0.3442  0.4522  0.6865
38479SOL    HW119029   6.078   2.682   3.517  1.5346 -1.6944 -0.7292
38479SOL    HW219030   5.959   2.608   3.460 -0.0555 -0.6964  1.1584
38480SOL     OW19031   7.303  10.286   3.273 -0.5722  0.1566 -0.4262
38480SOL    HW119032   7.301  10.338   3.353  0.6858  0.2425 -0.4421
38480SOL    HW219033   7.217  10.243   3.271 -0.4395 -0.2641  1.2429
38481SOL     OW19034   0.027   9.445   0.567 -0.0925 -0.2077 -0.8707
38481SOL    HW119035  -0.027   9.488   0.634  1.0116  0.1847 -0.2004
38481SOL    HW219036   0.020   9.502   0.490 -1.0617 -0.4566 -0.9800
38482SOL     OW19037   6.463   2.413   8.101 -0.5791 -0.2236 -0.3525
38482SOL    HW119038   6.458   2.334   8.155 -2.4213  0.2414  0.2063
38482SOL    HW219039   6.462   2.485   8.164  1.3875  0.2825 -0.8400
38483SOL     OW19040   0.723   4.899  10.186  0.6778  0.2496 -0.0378
38483SOL    HW119041   0.768   4.816  10.200 -1.1836 -1.0601 -1.4445
38483SOL    HW219042   0.757   4.932  10.103  1.1271  0.7445  0.3279
38484SOL     OW19043   7.738   0.410  10.615 -0.3232 -0.1007 -0.1122
38484SOL    HW119044   7.802   0.478  10.592 -0.0612 -0.0982  0.6202
38484SOL    HW219045   7.733   0.356  10.536 -0.8806  1.0173 -0.8845
38485SOL     OW19046   8.585   7.516   9.686  0.0751  0.0836  0.4976
38485SOL    HW119047   8.521   7.540   9.752  1.5650  0.5706  1.8169
38485SOL    HW219048   8.669   7.516   9.732  1.2675  1.0990 -1.5340
38486SOL     OW19049   1.018   5.595   5.203  0.3120  0.3592 -0.3481
38486SOL    HW119050   0.952   5.604   5.271  1.9215  0.7093  1.2324
38486SOL    HW219051   1.054   5.508   5.214  2.5571  1.4020  1.1936
38487SOL     OW19052   4.528   9.292   2.019  0.0119  0.7281  0.1485
38487SOL    HW119053   4.540   9.367   2.077 -0.7149  0.1944  1.0186
38487SOL    HW219054   4.434   9.279   2.016  0.1714 -0.8201  0.9111
38488SOL     OW19055   4.293   5.359  10.121 -0.5862 -0.4461  0.1183
38488SOL    HW119056   4.336   5.366  10.206  0.3675 -0.8800 -0.3045
38488SOL    HW219057   4.298   5.266  10.100 -1.2202 -0.4094 -0.2163
38489SOL     OW19058   9.819   0.028   4.861  0.0075  0.2605 -0.4430
38489SOL    HW119059   9.842   0.015   4.953 -0.5302  1.9997 -0.0166
38489SOL    HW219060   9.735  -0.019   4.851 -0.1359  0.4021  0.0640
38490SOL     OW19061   0.842   6.195   3.675 -0.5390 -0.0054  0.5862
38490SOL    HW119062   0.762   6.185   3.624 -0.7531  0.4081  0.8314
38490SOL    HW219063   0.913   6.184   3.612 -0.7734 -1.2010  0.5164
38491SOL     OW19064   9.032   7.302   4.474 -0.2135 -0.4967  0.0985
38491SOL    HW119065   9.060   7.393   4.473  0.7264 -0.7805 -1.4548
38491SOL    HW219066   9.096   7.256   4.421 -1.5709 -1.8008 -0.4848
38492SOL     OW19067   1.246   5.701   5.848  0.1547 -0.1222 -0.4068
38492SOL    HW119068   1.270   5.633   5.784  0.2292 -2.1953  1.6636
38492SOL    HW219069   1.311   5.770   5.835  1.5591 -1.5087 -1.0786
38493SOL     OW19070   5.491   7.436   2.225 -0.7769 -0.3461  0.3869
38493SOL    HW119071   5.486   7.369   2.294 -0.4320 -1.5940 -0.7638
38493SOL    HW219072   5.446   7.397   2.150  1.0943 -0.1036 -0.9367
38494SOL     OW19073   0.984   8.221   3.980  0.2165 -1.3204 -0.1036
38494SOL    HW119074   1.048   8.157   4.011  1.7698  0.3463  0.3132
38494SOL    HW219075   1.003   8.232   3.887  0.8823 -0.4854  0.1184
38495SOL     OW19076   5.282   9.521   8.687  0.3979  0.4734  0.4785
38495SOL    HW119077   5.227   9.586   8.731  1.6227  0.4757  2.0594
38495SOL    HW219078   5.308   9.563   8.605 -0.1108  1.3358  0.7479
38496SOL     OW19079  10.451   6.222   8.605 -0.0636  0.4103  0.2959
38496SOL    HW119080  10.487   6.214   8.693  1.0821  1.3777 -0.0623
38496SOL    HW219081  10.462   6.314   8.582  0.3206  0.0436 -1.1196
38497SOL     OW19082   7.523   1.303   8.706  0.0631 -0.1483  1.0134
38497SOL    HW119083   7.535   1.338   8.794  1.4397  0.8713  0.4542
38497SOL    HW219084   7.582   1.355   8.651  1.5990 -2.7810 -0.0273
38498SOL     OW19085   3.683   8.203   0.656 -0.3773  0.2978  0.1090
38498SOL    HW119086   3.605   8.258   0.656  0.2807  1.2622 -0.0621
38498SOL    HW219087   3.650   8.113   0.651 -1.4384  0.7213 -0.7105
38499SOL     OW19088   5.428   1.175   3.862 -0.1434  0.1421 -0.3040
38499SOL    HW119089   5.516   1.165   3.900 -0.2482  0.9583  0.1761
38499SOL    HW219090   5.432   1.257   3.814 -1.3720  1.6261  1.9366
38500SOL     OW19091   0.319   7.249   8.206 -0.0146 -0.6122  0.2249
38500SOL    HW119092   0.390   7.206   8.254  0.7817 -0.6969 -0.9637
38500SOL    HW219093   0.358   7.270   8.121 -1.1597  0.1614 -0.1292
38501SOL     OW19094   5.852   2.555   4.415  0.0211 -0.1396 -0.6166
38501SOL    HW119095   5.889   2.535   4.329  1.0129  2.0903 -0.7532
38501SOL    HW219096   5.926   2.547   4.475  0.2559  2.0510 -0.5567
38502SOL     OW19097  10.911   4.962   3.166 -0.0617 -0.1692 -0.5169
38502SOL    HW119098  10.943   4.907   3.094 -0.2453 -0.2563 -0.5301
38502SOL    HW219099  10.858   4.903   3.219  0.4081 -0.2092 -0.0813
38503SOL     OW19100   5.522   0.703   0.678 -0.1341  0.0386  0.3522
38503SOL    HW119101   5.593   0.646   0.648  0.6287  1.2459 -0.1941
38503SOL    HW219102   5.484   0.656   0.752 -0.3912 -1.8054 -0.8632
38504SOL     OW19103   2.398   7.455   9.898 -0.2447  0.1250  0.2880
38504SOL    HW119104   2.386   7.541   9.939  1.5975  1.0075 -0.9084
38504SOL    HW219105   2.486   7.428   9.924  0.1800 -0.2139 -1.3890
38505SOL     OW19106   7.362   9.768   5.053  0.0874 -0.4408  0.2592
38505SOL    HW119107   7.449   9.732   5.069  0.6347  0.7122  0.0120
38505SOL    HW219108   7.344   9.822   5.129 -0.3556 -0.5507  0.2357
38506SOL     OW19109   1.662  10.221   3.101 -0.3798  0.5662 -0.1131
38506SOL    HW119110   1.733  10.189   3.156 -0.5287  0.7232  0.1713
38506SOL    HW219111   1.671  10.316   3.101 -0.2139  0.5526 -0.5871
38507SOL     OW19112   0.815  11.054   7.410  0.2762 -0.0738  0.2077
38507SOL    HW119113   0.861  10.972   7.391  1.6541  0.5029  0.9558
38507SOL    HW219114   0.834  11.110   7.334  0.1638 -0.0969  0.1620
38508SOL     OW19115   8.029   8.514   9.458 -0.5384 -0.2432 -0.1160
38508SOL    HW119116   7.987   8.575   9.518 -1.2706 -0.9313  0.0921
38508SOL    HW219117   8.089   8.464   9.513  0.3290  0.5141 -0.3517
38509SOL     OW19118   3.712   0.640   8.503 -0.7644 -0.0111 -0.0780
38509SOL    HW119119   3.754   0.622   8.588  1.7631  2.6198 -0.5996
38509SOL    HW219120   3.768   0.597   8.439 -0.3826  1.2383 -0.6187
38510SOL     OW19121   3.625  11.077   7.504 -0.1591 -0.0919 -0.3300
38510SOL    HW119122   3.549  11.135   7.491  0.1585  0.4826  0.3650
38510SOL    HW219123   3.631  11.029   7.421  0.6746  2.1522 -1.6593
38511SOL     OW19124   1.021   1.540   2.231 -0.0805 -0.4512  0.2418
38511SOL    HW119125   0.937   1.496   2.225  0.7362 -2.1966  1.0499
38511SOL    HW219126   1.081   1.474   2.264  1.2663  1.2165  1.2969
38512SOL     OW19127   9.475   1.550   2.898  0.1197 -0.3778  0.3522
38512SOL    HW119128   9.535   1.596   2.840  0.4875 -0.7252  0.4518
38512SOL    HW219129   9.399   1.529   2.844  0.4914 -0.7650 -0.0262
38513SOL     OW19130  11.085   1.095   4.977 -0.2319  0.1410  0.1275
38513SOL    HW119131  11.141   1.171   4.987  1.3771 -1.0137  0.3656
38513SOL    HW219132  11.050   1.102   4.888  1.1131  0.3991 -0.4020
38514SOL     OW19133  10.441   2.047   7.642 -0.6147  0.7468  0.2328
38514SOL    HW119134  10.511   2.057   7.577  1.1350  2.1522  2.1887
38514SOL    HW219135  10.480   1.993   7.711 -2.0850  0.1356  0.6340
38515SOL     OW19136   6.547   7.390   9.848 -0.0988  0.7134  0.2454
38515SOL    HW119137   6.584   7.425   9.767  0.7205  1.1902  0.8020
38515SOL    HW219138   6.532   7.468   9.902  0.0066  0.3488  0.8071
38516SOL     OW19139   2.731   7.663   8.434 -0.0746 -0.5649 -0.3940
38516SOL    HW119140   2.817   7.703   8.438 -0.2336 -0.2458 -0.0532
38516SOL    HW219141   2.745   7.573   8.462 -0.0425 -0.1840  0.8960
38517SOL     OW19142   0.067   1.918   8.790  0.2390 -0.1313 -0.5784
38517SOL    HW119143   0.017   1.864   8.729 -0.2392 -1.4762  0.9331
38517SOL    HW219144   0.154   1.925   8.750  0.1826 -1.6599 -1.0376
38518SOL     OW19145   4.504   8.550   4.723  0.4961  0.0181 -0.1047
38518SOL    HW119146   4.468   8.468   4.756 -0.4156 -0.2681 -1.6993
38518SOL    HW219147   4.547   8.590   4.798  0.8177 -1.8444  0.7438
38519SOL     OW19148   6.171   1.902   2.200 -0.3190  0.6687  0.0436
38519SOL    HW119149   6.214   1.973   2.152  0.9508  0.6225  1.0711
38519SOL    HW219150   6.236   1.873   2.264 -0.6681 -1.6782 -0.5852
38520SOL     OW19151   7.015   7.344   4.857 -0.1650 -0.0414 -0.4095
38520SOL    HW119152   7.039   7.434   4.837 -2.8486  0.7109 -0.5813
38520SOL    HW219153   7.023   7.298   4.773  0.1159  0.2789 -0.5630
38521SOL     OW19154   0.152   2.014   1.531 -0.3883  0.0246 -0.3808
38521SOL    HW119155   0.056   2.006   1.527 -0.3969  0.5462 -2.6231
38521SOL    HW219156   0.177   2.040   1.443  2.0471 -2.2444 -0.4699
38522SOL     OW19157   4.674   0.481   3.406 -0.3935  0.3673 -0.3717
38522SOL    HW119158   4.710   0.395   3.385  0.1980  0.2200  1.1654
38522SOL    HW219159   4.693   0.494   3.499 -0.5691  2.1067 -0.5391
38523SOL     OW19160   1.792   2.742   2.001  0.3167 -0.3783 -0.0910
38523SOL    HW119161   1.804   2.761   2.094  2.5521 -0.2942 -0.3483
38523SOL    HW219162   1.879   2.752   1.963 -0.7379  0.6882 -2.4154
38524SOL     OW19163   1.144   7.685   7.523 -0.1115  0.1062 -0.3893
38524SOL    HW119164   1.131   7.602   7.476  0.6490  0.1826 -0.7462
38524SOL    HW219165   1.074   7.742   7.489 -2.9453 -1.3798  2.3928
38525SOL     OW19166   8.892   5.860   4.928 -0.2936  0.2011 -0.0858
38525SOL    HW119167   8.924   5.930   4.984  0.0264  1.7022 -2.0211
38525SOL    HW219168   8.805   5.840   4.961  0.2436  0.3627  1.4941
38526SOL     OW19169   6.888   9.628   0.431 -0.4167 -1.0065 -0.3026
38526SOL    HW119170   6.935   9.653   0.352  0.1118 -0.8286  0.0680
38526SOL    HW219171   6.902   9.533   0.438  1.4621 -0.6940  0.8091
38527SOL     OW19172  10.519  10.470   0.930  0.3530 -0.2706  0.2162
38527SOL    HW119173  10.423  10.466   0.929  0.3611 -3.9785  0.2657
38527SOL    HW219174  10.544  10.482   0.838 -0.1639 -0.6693  0.0196
38528SOL     OW19175   5.370  10.777  10.112 -0.0860 -0.6481  0.2795
38528SOL    HW119176   5.310  10.848  10.089  0.4850  0.3066  1.5879
38528SOL    HW219177   5.328  10.698  10.078 -1.7362  0.0751  0.5505
38529SOL     OW19178   8.993   6.918   3.604 -0.0542  0.1291  0.3593
38529SOL    HW119179   9.039   6.928   3.687  0.2775  1.1655  0.0645
38529SOL    HW219180   9.062   6.912   3.538 -0.3178 -0.5341  0.1417
38530SOL     OW19181   0.782   1.225   2.422 -0.6838  0.4996  0.2014
38530SOL    HW119182   0.689   1.202   2.425 -0.1563 -2.0001 -0.4791
38530SOL    HW219183   0.827   1.142   2.407  1.7134  1.5840  0.8886
38531SOL     OW19184  10.548   6.464   0.646 -0.7736 -0.2518  0.9428
38531SOL    HW119185  10.532   6.380   0.603  0.6338 -1.2753  2.3288
38531SOL    HW219186  10.467   6.481   0.695 -0.3099 -1.9476  2.4180
38532SOL     OW19187   7.104   2.996   0.524 -0.4801 -0.0282  0.6656
38532SOL    HW119188   7.022   3.043   0.512 -0.1364  0.7902  1.4183
38532SOL    HW219189   7.082   2.924   0.583 -1.1790 -1.3441 -1.1003
38533SOL     OW19190   0.553   8.936   4.281 -0.2609  0.1141  0.1922
38533SOL    HW119191   0.593   8.853   4.308  0.1814 -0.3692 -1.8160
38533SOL    HW219192   0.611   8.970   4.213 -1.2286  1.3337 -0.0615
38534SOL     OW19193   4.866   5.592   8.065 -0.3831  0.1005 -0.2627
38534SOL    HW119194   4.835   5.505   8.042 -2.5267  0.4415  1.0527
38534SOL    HW219195   4.800   5.651   8.029  0.9756  1.2170 -1.0398
38535SOL     OW19196   9.031   2.519   3.299  0.0660 -0.2267  0.1043
38535SOL    HW119197   8.937   2.501   3.287  0.4457 -0.7209 -3.1843
38535SOL    HW219198   9.075   2.445   3.256  1.9521  0.4045  0.8551
38536SOL     OW19199   1.446   6.933   8.746  0.7183  0.2787 -0.0270
38536SOL    HW119200   1.475   6.962   8.659  0.6846 -2.9212 -1.2053
38536SOL    HW219201   1.357   6.968   8.753  1.3873  2.2062 -0.3902
38537SOL     OW19202   7.393   9.612  10.052  0.2675  0.3054 -0.4026
38537SOL    HW119203   7.356   9.661   9.979  1.0086  0.2522 -0.8205
38537SOL    HW219204   7.317   9.574  10.096 -0.2091  0.6036 -0.9521
38538SOL     OW19205   8.717   5.356   1.426  0.2511 -0.2189 -0.0145
38538SOL    HW119206   8.717   5.270   1.384 -2.8017  1.1036 -3.1918
38538SOL    HW219207   8.630   5.363   1.466  1.0791  0.8122  1.7407
38539SOL     OW19208   9.454   2.793   5.890  0.5349 -0.4173 -0.1134
38539SOL    HW119209   9.417   2.737   5.822 -0.7668  1.3429 -0.9503
38539SOL    HW219210   9.468   2.735   5.965 -0.4452 -1.8957 -1.0256
38540SOL     OW19211  10.674   1.435   9.468 -0.2208  0.3072 -0.2420
38540SOL    HW119212  10.676   1.378   9.545 -1.0575 -0.9472 -1.1017
38540SOL    HW219213  10.622   1.510   9.494  1.1731  0.8905  1.0269
38541SOL     OW19214   7.830   5.357   0.019  0.2151  0.0760 -0.0141
38541SOL    HW119215   7.810   5.327  -0.069 -0.0889 -2.9081  0.9330
38541SOL    HW219216   7.766   5.312   0.074  2.3863 -0.7732  2.0086
38542SOL     OW19217   4.486  10.573   3.158 -0.6263 -0.2953  0.4096
38542SOL    HW119218   4.515  10.569   3.067  0.0172 -0.2738  0.6081
38542SOL    HW219219   4.423  10.502   3.166  0.1066 -0.9838  0.2134
38543SOL     OW19220  10.332   5.272   5.700  0.6244 -0.1460 -0.1834
38543SOL    HW119221  10.250   5.318   5.717  0.0778 -0.8402 -0.8750
38543SOL    HW219222  10.400   5.332   5.732 -0.2241 -0.8005  3.3032
38544SOL     OW19223   6.268   5.796   0.787 -0.2303 -0.4215  0.3184
38544SOL    HW119224   6.323   5.868   0.817  1.3895 -1.7197  0.6591
38544SOL    HW219225   6.222   5.766   0.865 -1.8038  0.9465 -0.0534
38545SOL     OW19226   8.292  10.105  10.021  0.2753  0.6148  0.1785
38545SOL    HW119227   8.274  10.177   9.962 -0.4749 -0.1817 -0.5899
38545SOL    HW219228   8.278  10.026   9.968  2.4850 -0.1111  0.5645
38546SOL     OW19229   1.608   9.178   2.558 -0.0001 -0.0072 -0.5194
38546SOL    HW119230   1.595   9.123   2.480 -1.6146 -0.1664 -0.1772
38546SOL    HW219231   1.645   9.118   2.623 -1.5264 -0.6872 -0.2235
38547SOL     OW19232   7.616  10.312   8.123  0.1143  0.8840  0.6782
38547SOL    HW119233   7.638  10.394   8.077 -0.2413  0.4603 -0.2707
38547SOL    HW219234   7.699  10.283   8.160  0.3961  1.2955  0.3848
38548SOL     OW19235   6.512   1.337   4.932  0.0463  0.5294  0.1260
38548SOL    HW119236   6.599   1.346   4.893  0.5978 -3.9636 -0.1492
38548SOL    HW219237   6.517   1.386   5.014  2.6551  0.7707 -0.0956
38549SOL     OW19238  10.285   3.214   0.810  0.0484  0.0128 -0.3461
38549SOL    HW119239  10.332   3.155   0.751  0.9098  1.3160 -0.9919
38549SOL    HW219240  10.343   3.224   0.886  0.1257  0.4225 -0.4591
38550SOL     OW19241   9.560   7.222   3.280 -0.5299  0.8838  0.3147
38550SOL    HW119242   9.479   7.239   3.328 -2.3132 -4.2897 -0.2948
38550SOL    HW219243   9.596   7.144   3.322  2.4435  1.1413 -1.5162
38551SOL     OW19244   9.227   8.707   7.407 -0.1508  0.1492  0.0252
38551SOL    HW119245   9.194   8.775   7.348  1.0055  0.9124  0.2280
38551SOL    HW219246   9.302   8.669   7.361 -0.7776 -1.0113 -0.0858
38552SOL     OW19247   8.097   6.918  10.927  0.1393  0.4300 -0.1626
38552SOL    HW119248   8.013   6.872  10.927  1.0500 -1.3044 -0.3570
38552SOL    HW219249   8.105   6.955  11.015 -0.8336  0.6496 -0.1581
38553SOL     OW19250   6.767   8.185  10.082 -0.3090 -0.0378  0.2384
38553SOL    HW119251   6.759   8.181   9.987 -3.2503  1.1375  0.3199
38553SOL    HW219252   6.710   8.115  10.114 -0.2674  0.3126  1.1128
38554SOL     OW19253   8.580   9.100   2.280 -0.0677  0.5864 -0.9157
38554SOL    HW119254   8.529   9.023   2.307 -1.7569  1.8364 -0.3605
38554SOL    HW219255   8.665   9.064   2.253 -0.6493 -1.4157 -0.2828
38555SOL     OW19256   2.220   2.937   2.738 -0.2632  0.0238 -0.2426
38555SOL    HW119257   2.280   3.010   2.754 -1.6211  1.0519  0.3151
38555SOL    HW219258   2.272   2.859   2.760  0.9478  0.8609 -0.0305
38556SOL     OW19259   7.260   2.123   7.120  0.3374 -0.3476  0.6590
38556SOL    HW119260   7.292   2.074   7.196 -0.1286 -1.0815  0.3875
38556SOL    HW219261   7.212   2.059   7.069  2.9330 -0.6126 -1.7092
38557SOL     OW19262   3.686   0.391   0.636  0.2321  0.0808 -0.2366
38557SOL    HW119263   3.651   0.303   0.641  1.7238 -0.5460 -0.2753
38557SOL    HW219264   3.778   0.379   0.611  0.8519  1.5432  1.1163
38558SOL     OW19265   4.372   8.135   9.360 -0.1408 -0.0976 -0.0976
38558SOL    HW119266   4.419   8.060   9.322 -1.0326 -0.0287 -1.4126
38558SOL    HW219267   4.441   8.199   9.380  0.5605 -0.9755  0.3764
38559SOL     OW19268   7.673   1.331   6.898  0.6075  0.0570 -0.3349
38559SOL    HW119269   7.754   1.282   6.910 -0.4426 -1.1865  2.6357
38559SOL    HW219270   7.643   1.350   6.987 -1.8045  1.4726 -1.3451
38560SOL     OW19271   2.443   8.774  10.317 -0.0331  0.1653  0.0376
38560SOL    HW119272   2.430   8.747  10.408 -1.5715 -2.0026 -0.7459
38560SOL    HW219273   2.516   8.835  10.320 -0.4354  0.6066  2.7946
38561SOL     OW19274   9.815   6.515   8.984 -0.2159 -0.2861 -0.2542
38561SOL    HW119275   9.762   6.567   9.045 -0.1647  0.4157 -0.7929
38561SOL    HW219276   9.813   6.565   8.903  2.4581  0.5458  0.0876
38562SOL     OW19277   4.369   6.739   5.720 -0.0386 -0.8913 -0.4431
38562SOL    HW119278   4.361   6.812   5.783 -1.9750 -1.8415  0.5180
38562SOL    HW219279   4.421   6.674   5.766 -0.9260 -1.3320 -0.0340
38563SOL     OW19280   5.078   8.311   5.238 -0.7278 -0.1594  0.5528
38563SOL    HW119281   5.160   8.291   5.193 -1.3649 -1.7241  0.0150
38563SOL    HW219282   5.024   8.234   5.224 -1.3024 -0.3392  3.2468
38564SOL     OW19283   6.927   5.677   4.067  0.4142 -0.0227 -0.4126
38564SOL    HW119284   6.949   5.770   4.062  1.1530 -0.2189 -1.0206
38564SOL    HW219285   6.956   5.650   4.153 -0.9022  0.5713  0.2458
38565SOL     OW19286   4.485   3.992   4.769  0.0873 -0.2500 -0.6245
38565SOL    HW119287   4.473   3.988   4.674  1.9827 -1.1478 -0.8627
38565SOL    HW219288   4.562   3.937   4.786 -1.1158 -1.3665  1.6142
38566SOL     OW19289   8.701   0.294   5.276  0.3738 -0.0457  0.0994
38566SOL    HW119290   8.608   0.274   5.284  0.3271 -0.1500 -0.6152
38566SOL    HW219291   8.716   0.365   5.339 -0.1306 -0.2045  0.4018
38567SOL     OW19292   3.913  10.994   5.249  0.1421  0.1822  0.1982
38567SOL    HW119293   3.976  11.035   5.189 -0.6479 -0.3081 -1.0063
38567SOL    HW219294   3.887  11.065   5.308  0.4930  0.8374 -0.4132
38568SOL     OW19295   8.513   8.009   9.214  0.5217  0.0794 -0.1103
38568SOL    HW119296   8.573   7.936   9.232  0.7168  0.4327  0.6936
38568SOL    HW219297   8.549   8.083   9.263 -0.5908  0.2815  0.4286
38569SOL     OW19298   2.409   0.814   3.782 -0.5644 -0.4355 -0.3533
38569SOL    HW119299   2.352   0.841   3.709  0.5743 -0.5723 -1.3276
38569SOL    HW219300   2.435   0.724   3.760 -1.1679 -0.9319  0.8593
38570SOL     OW19301   5.786   7.882   9.303 -0.2039 -0.0439  0.2727
38570SOL    HW119302   5.818   7.859   9.390 -0.6513 -1.9094 -0.0118
38570SOL    HW219303   5.692   7.897   9.314  0.2524  3.3357  0.7134
38571SOL     OW19304   4.929   0.298   8.753 -0.4933  0.1580 -0.0636
38571SOL    HW119305   4.878   0.294   8.672  0.3615 -1.1283 -0.5631
38571SOL    HW219306   4.998   0.361   8.734 -0.6514  0.3202 -0.1089
38572SOL     OW19307  10.028   8.367   0.140  0.7024  0.6023  0.0874
38572SOL    HW119308  10.064   8.451   0.169 -0.3535  1.2528 -0.4132
38572SOL    HW219309  10.091   8.302   0.170  1.6974  1.5968  0.2266
38573SOL     OW19310   3.433  10.429   9.653 -0.3913 -0.6011  0.0397
38573SOL    HW119311   3.506  10.420   9.592  0.6063 -0.8128  1.2210
38573SOL    HW219312   3.400  10.340   9.665 -1.7613 -0.3526 -1.5234
38574SOL     OW19313   9.045   2.108   7.461  0.1627  0.3491 -0.4110
38574SOL    HW119314   9.094   2.128   7.541 -0.1509 -0.8746  0.1098
38574SOL    HW219315   8.977   2.176   7.457 -1.2457 -0.8177  1.6361
38575SOL     OW19316   9.896   3.793   3.516  0.8416  0.3136  0.2861
38575SOL    HW119317   9.968   3.733   3.498  0.3225  0.0745 -1.1135
38575SOL    HW219318   9.932   3.880   3.502  0.6675  0.1653 -1.2700
38576SOL     OW19319   0.359   4.156   7.591 -0.4221  0.2736 -0.6237
38576SOL    HW119320   0.400   4.222   7.536  0.9892  0.6249  0.7608
38576SOL    HW219321   0.350   4.198   7.677  0.9645 -1.4204  0.4348
38577SOL     OW19322   7.241   9.151   0.976  0.3065 -0.5680  0.0571
38577SOL    HW119323   7.253   9.057   0.991 -1.1169 -0.6671  0.7727
38577SOL    HW219324   7.297   9.171   0.901  1.0297 -1.8758  0.2233
38578SOL     OW19325   8.832  10.316   7.534 -0.5515 -0.1562 -0.9446
38578SOL    HW119326   8.781  10.396   7.527  1.0839  0.9472 -0.7232
38578SOL    HW219327   8.837  10.299   7.628 -0.6663 -0.3635 -0.9759
38579SOL     OW19328   7.258  10.583   0.724 -0.1995  0.7451  0.0572
38579SOL    HW119329   7.199  10.517   0.761  0.1794 -0.9499 -2.1569
38579SOL    HW219330   7.329  10.590   0.788 -0.0435 -1.3413  0.1870
38580SOL     OW19331   6.120   0.256   9.242  0.2197 -0.6338 -0.2353
38580SOL    HW119332   6.092   0.177   9.197 -1.0716 -0.4529  0.2133
38580SOL    HW219333   6.111   0.325   9.176 -0.9438 -0.4918  0.0507
38581SOL     OW19334   3.723   7.061   5.041 -0.2852  0.4668  0.3441
38581SOL    HW119335   3.730   6.976   4.997 -0.9423  0.2906  0.5712
38581SOL    HW219336   3.785   7.117   4.994 -0.3840  0.0647 -0.2843
38582SOL     OW19337   1.451   9.557   1.987 -0.0986 -0.4319 -0.4877
38582SOL    HW119338   1.517   9.570   2.054 -0.3390 -0.8526 -0.1647
38582SOL    HW219339   1.496   9.573   1.904  0.0133  0.8433 -0.1958
38583SOL     OW19340   5.019  11.002   1.605 -0.6989  0.3224  0.4705
38583SOL    HW119341   5.069  11.044   1.535 -0.8750  0.1642  0.2496
38583SOL    HW219342   4.959  11.070   1.636 -1.0703  0.2016  0.0291
38584SOL     OW19343   3.850   4.040  11.074  0.6910 -0.6882 -0.1481
38584SOL    HW119344   3.833   4.125  11.115 -0.7028 -1.1663  0.3056
38584SOL    HW219345   3.933   4.011  11.113  0.5635 -0.0866  0.5901
38585SOL     OW19346   1.572   9.356   8.759 -0.6008 -0.0234  0.0088
38585SOL    HW119347   1.618   9.438   8.778 -0.0889 -0.0008 -1.2378
38585SOL    HW219348   1.588   9.301   8.836 -0.7492  0.9465  0.7525
38586SOL     OW19349   8.979  10.360   8.341  0.1623  1.0137  0.4371
38586SOL    HW119350   9.027  10.379   8.261  0.9097  0.1857  0.6764
38586SOL    HW219351   9.045  10.362   8.410  0.1171 -1.3593  0.6247
38587SOL     OW19352   6.436   7.521  11.008 -0.5135  0.5250 -0.4088
38587SOL    HW119353   6.456   7.541  11.100  1.1697  1.2531 -0.9001
38587SOL    HW219354   6.497   7.575  10.958 -1.2527 -0.0306 -1.9598
38588SOL     OW19355   6.076   8.952   5.858 -0.0624 -0.4447 -0.1047
38588SOL    HW119356   6.131   9.004   5.799 -0.5911  0.4528  0.1627
38588SOL    HW219357   6.137   8.907   5.915  0.4222  1.3022  0.8323
38589SOL     OW19358   8.050   2.402   2.910 -0.1450 -0.1438 -0.2780
38589SOL    HW119359   8.074   2.492   2.931 -1.0342 -0.2837  1.4756
38589SOL    HW219360   7.957   2.407   2.884 -0.0708 -0.5022 -0.6365
38590SOL     OW19361   2.532   9.898   7.276 -0.3209 -0.1257  0.2019
38590SOL    HW119362   2.552   9.895   7.369 -0.2699 -3.1313  0.2009
38590SOL    HW219363   2.611   9.864   7.233 -1.0265 -0.6368 -0.7394
38591SOL     OW19364   0.059  10.726   5.769 -0.4144  0.7197  0.4927
38591SOL    HW119365  -0.035  10.723   5.753 -0.7226  0.2211  2.1668
38591SOL    HW219366   0.093  10.645   5.732 -0.6651  0.8045  0.0646
38592SOL     OW19367   6.474   7.957   4.468  0.4078  0.1776  0.1486
38592SOL    HW119368   6.465   7.963   4.563  0.5822 -0.5033  0.2154
38592SOL    HW219369   6.393   7.916   4.438 -0.1592  1.4586 -0.1349
38593SOL     OW19370   5.077   3.629   6.864  0.1512  0.3093 -0.0765
38593SOL    HW119371   5.013   3.641   6.794 -0.5664  0.3204  0.5838
38593SOL    HW219372   5.134   3.706   6.858  1.2316 -0.5530 -1.8172
38594SOL     OW19373   7.600   7.952  10.805 -0.0290  0.3912 -0.0444
38594SOL    HW119374   7.559   7.964  10.719 -0.9762 -0.3025  0.2889
38594SOL    HW219375   7.527   7.934  10.864  0.7880 -1.6646  0.4344
38595SOL     OW19376   0.876   9.651   8.178 -0.2234 -0.0307 -0.3107
38595SOL    HW119377   0.933   9.587   8.222 -0.0272  0.6216  0.3945
38595SOL    HW219378   0.927   9.679   8.102  0.1879  0.1515  0.0228
38596SOL     OW19379   2.584   7.677   9.639  0.2892 -0.7853  0.0638
38596SOL    HW119380   2.516   7.726   9.686 -1.4053 -0.6690 -2.3241
38596SOL    HW219381   2.637   7.745   9.597  1.7920 -0.8870  1.6975
38597SOL     OW19382   4.957  10.019  10.357 -0.0805 -0.5027  0.3305
38597SOL    HW119383   5.040  10.065  10.350 -1.0033  1.2076  0.0409
38597SOL    HW219384   4.966   9.944  10.299  0.3992  1.0272 -1.6709
38598SOL     OW19385  10.461   8.634  10.757 -0.4817 -0.7003  0.0736
38598SOL    HW119386  10.416   8.600  10.835 -2.5146 -0.8769 -1.1045
38598SOL    HW219387  10.471   8.557  10.700 -0.3697 -0.2919 -0.4634
38599SOL     OW19388   5.754   4.285  10.297  0.0708  0.5942  0.1324
38599SOL    HW119389   5.733   4.284  10.204 -1.0711  0.0047  0.3781
38599SOL    HW219390   5.700   4.216  10.335  3.2368 -1.7684  0.7031
38600SOL     OW19391   4.043   0.308   7.392 -0.1831 -0.1610  0.4185
38600SOL    HW119392   3.996   0.343   7.467 -0.4706  0.4407 -0.0333
38600SOL    HW219393   3.992   0.231   7.366 -0.7108  0.2640  0.1688
38601SOL     OW19394   4.422   5.751   4.371 -0.1080  0.6478  0.7175
38601SOL    HW119395   4.490   5.715   4.429  0.0432 -0.4861 -0.1392
38601SOL    HW219396   4.382   5.674   4.330 -0.9643  1.3803  0.1534
38602SOL     OW19397   1.539   0.388   2.203 -0.2176  0.1800 -0.2827
38602SOL    HW119398   1.525   0.391   2.109 -1.6796 -0.3686 -0.1212
38602SOL    HW219399   1.599   0.314   2.216 -1.2177 -0.7324 -0.6928
38603SOL     OW19400   3.246   9.669   0.598  0.1395 -0.7105 -0.0166
38603SOL    HW119401   3.337   9.673   0.570  1.3396  1.4780  3.4819
38603SOL    HW219402   3.247   9.616   0.677 -0.6783  2.4678  2.3687
38604SOL     OW19403   8.307   5.894   3.026 -0.3024 -0.0792 -0.2413
38604SOL    HW119404   8.309   5.982   2.987 -0.6178 -0.0633 -0.2215
38604SOL    HW219405   8.260   5.840   2.963  1.2774 -0.6076 -1.0097
38605SOL     OW19406   1.156   4.393   6.230  0.3096 -0.1340  0.0964
38605SOL    HW119407   1.193   4.478   6.205  1.9715 -0.8441  0.0388
38605SOL    HW219408   1.067   4.413   6.258  0.6405  1.6130 -0.0060
38606SOL     OW19409   6.014   4.910   0.889  0.0701 -0.3855  0.0848
38606SOL    HW119410   5.979   4.953   0.811  1.7823  0.1623 -0.4302
38606SOL    HW219411   6.054   4.981   0.939 -1.4767 -0.6435  1.7749
38607SOL     OW19412   5.119   7.628   2.191 -0.6483  0.3760  0.5672
38607SOL    HW119413   5.146   7.664   2.106 -0.1428  1.3414  1.1107
38607SOL    HW219414   5.092   7.705   2.241 -1.0806 -0.2048  1.2289
38608SOL     OW19415   2.145   1.953   1.834  0.5470  0.2285  0.4008
38608SOL    HW119416   2.074   1.902   1.795  2.4287 -2.7127  0.4640
38608SOL    HW219417   2.201   1.976   1.760  1.4306 -0.8215  0.7107
38609SOL     OW19418   3.659   2.632   7.479  0.5522 -0.2160  0.1299
38609SOL    HW119419   3.594   2.689   7.437  1.0402  0.2389 -0.0099
38609SOL    HW219420   3.669   2.668   7.567 -1.0356 -1.6112  0.9636
38610SOL     OW19421  10.084   9.154   6.216  0.2035 -0.2781 -0.3961
38610SOL    HW119422  10.033   9.101   6.278 -0.9768  1.7049  0.4186
38610SOL    HW219423  10.164   9.174   6.264 -0.0394 -0.0204 -0.0919
38611SOL     OW19424   4.043   3.589   2.107 -0.3601 -0.5349 -0.3963
38611SOL    HW119425   4.028   3.565   2.198  1.0292 -1.1437 -0.2996
38611SOL    HW219426   3.983   3.533   2.057  0.8741 -2.2880 -0.0016
38612SOL     OW19427   7.705   2.704  11.078  0.4143 -0.1072  0.0879
38612SOL    HW119428   7.717   2.687  10.984  1.3369 -1.0682  0.3554
38612SOL    HW219429   7.610   2.706  11.090  0.2805 -0.7121 -0.7491
38613SOL     OW19430   7.097  11.024   4.747  0.4483 -0.3512  0.2075
38613SOL    HW119431   7.076  10.954   4.810  0.4931 -0.4811  0.0780
38613SOL    HW219432   7.150  11.085   4.797 -0.1103 -0.0908  0.4997
38614SOL     OW19433   7.444   5.272   3.733 -0.8513  0.7323 -0.3957
38614SOL    HW119434   7.359   5.299   3.765 -1.8735 -0.6559 -1.7940
38614SOL    HW219435   7.456   5.183   3.768  0.0989  0.9771 -0.0720
38615SOL     OW19436   1.249   0.303   8.793 -0.1547 -0.1174  0.3581
38615SOL    HW119437   1.260   0.227   8.851 -0.4183 -0.5831 -0.2004
38615SOL    HW219438   1.186   0.275   8.727  0.1190  0.4267 -0.1445
38616SOL     OW19439   8.584   2.926   9.837 -0.7654  0.3536  0.3961
38616SOL    HW119440   8.621   2.842   9.809 -1.4137 -0.3163  1.5115
38616SOL    HW219441   8.657   2.971   9.880 -1.0665 -0.7806  2.1930
38617SOL     OW19442  11.090   3.003   9.255  0.2677 -0.2055  0.4041
38617SOL    HW119443  11.138   2.974   9.333 -0.5766 -0.9160  0.6835
38617SOL    HW219444  11.017   2.942   9.249 -0.1279  0.3440 -0.4905
38618SOL     OW19445   2.947   1.599   0.092  0.5792 -0.1114 -0.1225
38618SOL    HW119446   2.877   1.597   0.026 -0.3816 -1.1297  0.8937
38618SOL    HW219447   2.930   1.523   0.148  1.1114  0.9706  1.5733
38619SOL     OW19448   3.975   8.449   1.675  0.3218  0.1373 -0.0936
38619SOL    HW119449   3.900   8.507   1.662 -1.0108 -1.0183  1.9094
38619SOL    HW219450   4.042   8.506   1.714 -0.1127  0.8178 -0.3184
38620SOL     OW19451   2.362   7.589   6.615 -0.2072  0.3581  0.0310
38620SOL    HW119452   2.374   7.545   6.530 -0.7885  0.6679 -0.2162
38620SOL    HW219453   2.446   7.632   6.631  0.9393 -2.0117  0.9944
38621SOL     OW19454   1.568   3.009  10.329  0.1648 -0.9720 -0.0169
38621SOL    HW119455   1.564   2.942  10.261 -0.9603 -0.0305 -0.9325
38621SOL    HW219456   1.648   2.990  10.377  0.1601 -2.6233 -0.5977
38622SOL     OW19457  10.203   7.187   2.146 -0.1200 -0.2868  0.8450
38622SOL    HW119458  10.192   7.114   2.084  0.6864  2.5200 -2.9532
38622SOL    HW219459  10.297   7.189   2.164  0.2580  1.0952 -0.9856
38623SOL     OW19460   3.237   1.589   7.870  0.0737  0.4695 -0.0389
38623SOL    HW119461   3.229   1.608   7.777  1.2527 -0.8501 -0.4441
38623SOL    HW219462   3.263   1.672   7.909  3.1084  0.3413 -1.4508
38624SOL     OW19463   8.064   5.542   1.079 -0.1590  0.1899  0.3480
38624SOL    HW119464   7.995   5.576   1.135 -1.2730 -0.3877 -0.6250
38624SOL    HW219465   8.068   5.449   1.100  1.7256  0.5389  1.8103
38625SOL     OW19466   3.703   1.987   3.536  0.3439  0.0721 -0.4501
38625SOL    HW119467   3.744   2.017   3.456  1.1359 -2.9124 -1.2888
38625SOL    HW219468   3.644   1.917   3.509 -0.4011 -0.1046  1.4320
38626SOL     OW19469   9.149   3.507   8.349 -0.5784 -0.3190 -0.4594
38626SOL    HW119470   9.097   3.432   8.320 -1.9802 -0.0325  1.1510
38626SOL    HW219471   9.127   3.577   8.288 -0.2971 -0.8304 -1.1588
38627SOL     OW19472   6.552   7.856   8.006 -0.0727  0.0490  0.2879
38627SOL    HW119473   6.606   7.800   8.063 -1.4323 -0.9271  0.6692
38627SOL    HW219474   6.598   7.940   8.005  0.6931 -0.3115  1.7676
38628SOL     OW19475   3.229   7.517   6.096 -0.1793 -0.2539 -0.1778
38628SOL    HW119476   3.267   7.532   6.182  0.1145 -2.8274  0.2132
38628SOL    HW219477   3.137   7.497   6.113 -1.2564  3.3801 -0.9068
38629SOL     OW19478   6.064   6.764   8.094  0.0519  0.4195 -0.0819
38629SOL    HW119479   5.996   6.698   8.097 -0.8540  1.2430 -1.2923
38629SOL    HW219480   6.139   6.719   8.054 -0.7839  0.2705 -1.5664
38630SOL     OW19481   0.328   1.678  10.784 -0.3878  0.2867 -0.1844
38630SOL    HW119482   0.323   1.772  10.799 -1.5572 -0.1322  2.8824
38630SOL    HW219483   0.240   1.652  10.758 -0.2999 -0.0527 -0.1507
38631SOL     OW19484   1.480   2.582   2.211 -0.5155  0.3665 -0.4787
38631SOL    HW119485   1.527   2.659   2.241  2.1356 -1.0391 -0.7499
38631SOL    HW219486   1.489   2.584   2.115 -1.8173  0.5247 -0.6170
38632SOL     OW19487   1.639   2.211   9.554 -0.2248 -0.2774 -0.6208
38632SOL    HW119488   1.660   2.302   9.535  1.4928 -0.6513 -0.7544
38632SOL    HW219489   1.545   2.209   9.568 -0.3665  1.4007 -1.2216
38633SOL     OW19490   3.508   0.132   3.200  0.0593  0.0933 -0.0195
38633SOL    HW119491   3.590   0.160   3.242  0.4084 -2.6134  1.2835
38633SOL    HW219492   3.439   0.163   3.259  0.3303 -0.1703  0.4411
38634SOL     OW19493   7.154   1.589   2.397 -0.0436 -0.3640 -0.0021
38634SOL    HW119494   7.234   1.578   2.346 -1.0769  0.2717 -1.8416
38634SOL    HW219495   7.137   1.683   2.395 -1.3558 -0.5996 -0.4754
38635SOL     OW19496   5.981   9.998   4.335 -0.5149  0.5219 -0.3141
38635SOL    HW119497   6.013   9.923   4.285  1.0439 -0.1766  1.5935
38635SOL    HW219498   5.886   9.998   4.320 -0.3070 -0.6762 -1.8515
38636SOL     OW19499   0.316   2.851   2.319 -0.3073  0.4545  0.0260
38636SOL    HW119500   0.233   2.846   2.366 -1.2386 -0.3935 -1.6183
38636SOL    HW219501   0.358   2.766   2.336  0.3193  0.9251  0.9512
38637SOL     OW19502   1.074   8.694   4.265  0.2557  0.4360  0.1290
38637SOL    HW119503   1.046   8.782   4.242  0.8901  0.9934  1.4018
38637SOL    HW219504   1.026   8.673   4.344 -0.0631 -0.4669 -0.2904
38638SOL     OW19505   1.398  10.276   0.579 -0.6167  0.4322 -0.6256
38638SOL    HW119506   1.410  10.287   0.673  1.3023  0.5134 -0.8349
38638SOL    HW219507   1.349  10.195   0.570 -1.2149  0.6546  0.4412
38639SOL     OW19508   8.757   0.704   3.478 -0.2353 -0.3966 -0.2966
38639SOL    HW119509   8.662   0.715   3.486 -0.1283  0.2028  0.1822
38639SOL    HW219510   8.787   0.783   3.433  0.2335  0.1690  0.9854
38640SOL     OW19511   1.456   2.637   6.280 -0.3366  0.1636 -0.2034
38640SOL    HW119512   1.530   2.584   6.310 -0.3436 -0.1867 -0.7968
38640SOL    HW219513   1.413   2.665   6.361  0.1473 -0.0494  0.1351
38641SOL     OW19514   6.976   4.570   5.236  0.7438  0.0711 -0.0762
38641SOL    HW119515   6.948   4.589   5.146  0.9187 -0.6075 -0.2854
38641SOL    HW219516   7.066   4.603   5.241  0.8692 -0.2311 -0.2768
38642SOL     OW19517   4.045   7.910   1.153 -0.0094 -0.1388 -0.8036
38642SOL    HW119518   4.098   7.988   1.169  0.3399 -0.2297 -1.4692
38642SOL    HW219519   3.997   7.930   1.073 -2.3315  0.6259  0.6907
38643SOL     OW19520   1.668   6.914   4.235 -0.1536 -0.6944  0.1031
38643SOL    HW119521   1.703   6.864   4.309 -2.0018 -0.3505  1.2840
38643SOL    HW219522   1.744   6.936   4.183  1.5334  0.6581  2.9111
38644SOL     OW19523  11.092   3.875   1.361 -0.6470  1.1330 -0.2444
38644SOL    HW119524  11.070   3.939   1.428  0.5051  1.0660  0.2331
38644SOL    HW219525  11.011   3.826   1.346 -0.8706  0.9786  1.3004
38645SOL     OW19526   6.708   3.431   0.758  0.6956 -0.5071  0.2118
38645SOL    HW119527   6.637   3.397   0.814  0.8802 -0.5878  0.3993
38645SOL    HW219528   6.766   3.476   0.819  1.4783 -1.5406  0.2579
38646SOL     OW19529   9.404   6.796   6.163 -0.0058  0.2921  0.3362
38646SOL    HW119530   9.449   6.712   6.152 -2.9876 -1.5065  0.5914
38646SOL    HW219531   9.420   6.842   6.081  2.2371 -0.2041  0.4377
38647SOL     OW19532   8.511   4.420   4.420  0.5140  0.1840 -0.0690
38647SOL    HW119533   8.583   4.484   4.424  2.8431 -2.1779 -0.9254
38647SOL    HW219534   8.552   4.338   4.447 -2.1337 -1.1361  0.1866
38648SOL     OW19535  11.004   5.437   7.456 -0.2471 -0.3752 -0.0662
38648SOL    HW119536  10.986   5.369   7.391  0.6929 -1.2634  0.5668
38648SOL    HW219537  11.079   5.484   7.419 -0.2750 -0.3133 -0.0427
38649SOL     OW19538  10.283   5.159   3.925 -0.2309 -0.1185 -0.8321
38649SOL    HW119539  10.313   5.091   3.984  0.1792 -0.0250 -0.9296
38649SOL    HW219540  10.355   5.222   3.921 -0.6870  0.4321 -0.5779
38650SOL     OW19541  10.442   5.409   0.829 -0.0162 -0.8023  0.2675
38650SOL    HW119542  10.363   5.365   0.799  0.3506 -0.9656 -0.4698
38650SOL    HW219543  10.484   5.441   0.750 -0.3651  1.0679  0.7727
38651SOL     OW19544   0.472   6.047   7.329  0.3726 -0.1694  0.3475
38651SOL    HW119545   0.549   5.990   7.321  1.2709  1.1858 -1.4322
38651SOL    HW219546   0.407   6.008   7.271  0.3669 -0.3309  0.4625
38652SOL     OW19547   4.186   8.701   6.565 -0.0393 -0.1943 -0.4750
38652SOL    HW119548   4.279   8.711   6.541 -0.5730 -0.2208 -2.8225
38652SOL    HW219549   4.139   8.727   6.486 -2.0436 -0.4024  0.6078
38653SOL     OW19550   8.606   6.714   9.909  0.0080  0.1548  0.5182
38653SOL    HW119551   8.633   6.806   9.912 -2.1163  0.8652 -0.2351
38653SOL    HW219552   8.681   6.666   9.943  1.9018  1.9986 -0.7777
38654SOL     OW19553  10.341   8.294   0.257  0.4999 -0.3625  0.5754
38654SOL    HW119554  10.406   8.360   0.233  1.8869 -1.6203  0.6886
38654SOL    HW219555  10.293   8.334   0.330  2.1851  0.0485  1.5345
38655SOL     OW19556   6.162   6.499   3.110 -0.6587  0.0709 -0.2284
38655SOL    HW119557   6.096   6.568   3.112 -1.3316 -0.5535  1.4795
38655SOL    HW219558   6.227   6.525   3.176  0.2719  0.1668 -1.1648
38656SOL     OW19559   4.523   2.727   8.958  0.2798 -0.6957 -0.2964
38656SOL    HW119560   4.537   2.701   9.049  1.1909  1.9167  0.3980
38656SOL    HW219561   4.612   2.740   8.923 -0.0455  2.0283 -0.3233
38657SOL     OW19562   0.150   1.402  10.917 -0.0036  0.4763  0.6466
38657SOL    HW119563   0.128   1.423  10.827 -1.7049  0.1412  0.9548
38657SOL    HW219564   0.070   1.364  10.954  0.5976  0.7483  2.3382
38658SOL     OW19565   9.285   7.073   1.208 -0.4275  0.4012 -0.1989
38658SOL    HW119566   9.345   7.076   1.133 -0.4993  2.6054 -0.2600
38658SOL    HW219567   9.325   7.012   1.270 -0.6891 -1.9965 -2.2363
38659SOL     OW19568   5.910   5.241   1.518  0.5704 -0.1491 -0.2313
38659SOL    HW119569   5.954   5.323   1.536 -0.9603  0.4085  1.2554
38659SOL    HW219570   5.820   5.254   1.549 -0.8816 -1.0147 -3.5599
38660SOL     OW19571   4.154   7.313   5.734  0.3538 -0.4501  0.4106
38660SOL    HW119572   4.218   7.273   5.675  0.5407  0.1699  0.1782
38660SOL    HW219573   4.146   7.403   5.703 -0.3178 -0.3993  0.7037
38661SOL     OW19574   3.631  10.024   1.802  0.2263 -0.8077  0.2562
38661SOL    HW119575   3.660   9.936   1.825  1.7943 -0.5938 -0.7431
38661SOL    HW219576   3.603  10.018   1.711 -1.4851 -0.6573  0.7497
38662SOL     OW19577   8.902   8.729   5.005 -0.8353  0.5358  0.3794
38662SOL    HW119578   8.940   8.745   5.091  0.3469  2.4477 -0.4407
38662SOL    HW219579   8.965   8.767   4.943 -1.7112 -0.6598 -1.3319
38663SOL     OW19580   2.540  10.329   5.134  0.0007  0.2893 -0.4746
38663SOL    HW119581   2.448  10.358   5.129 -0.8156 -1.1537  3.0717
38663SOL    HW219582   2.562  10.335   5.227  2.4716 -2.3981 -0.7399
38664SOL     OW19583   6.014   0.482   2.305  0.3853 -0.0363 -0.5127
38664SOL    HW119584   6.010   0.504   2.398  1.0390 -2.6380  0.2129
38664SOL    HW219585   6.009   0.566   2.261  0.6142  1.3375  1.8796
38665SOL     OW19586   1.618   0.647   9.353 -0.3940  0.0072 -0.2575
38665SOL    HW119587   1.547   0.583   9.350 -0.8946  0.3563  2.2875
38665SOL    HW219588   1.691   0.599   9.393  0.5837 -0.0869 -2.0385
38666SOL     OW19589  10.670  10.928   7.196  0.0223 -1.0998 -0.2578
38666SOL    HW119590  10.643  11.006   7.148 -0.5963 -2.2976 -1.9640
38666SOL    HW219591  10.760  10.946   7.222 -0.4145  0.5470  0.2237
38667SOL     OW19592   2.402   3.628   3.287 -0.4210  0.3262  0.1128
38667SOL    HW119593   2.325   3.605   3.235  0.1208 -2.2403  0.3211
38667SOL    HW219594   2.382   3.598   3.375  0.2676  0.9996  0.5155
38668SOL     OW19595  10.018   1.272   9.773  0.2298  0.7239  0.3977
38668SOL    HW119596  10.098   1.245   9.819  0.7635  2.8111  0.7968
38668SOL    HW219597   9.990   1.351   9.819  0.1064  2.2247 -2.0860
38669SOL     OW19598   2.869   3.404   4.090 -0.4098  0.8605 -0.7682
38669SOL    HW119599   2.803   3.405   4.159 -0.2884  0.3284 -0.6387
38669SOL    HW219600   2.951   3.389   4.135 -0.1181  2.0569 -0.8757
38670SOL     OW19601   9.253   4.438   7.891 -0.0933  0.1963  0.0231
38670SOL    HW119602   9.216   4.457   7.805 -0.4560  0.1834  0.1710
38670SOL    HW219603   9.334   4.391   7.873 -1.4778 -2.2654 -0.3235
38671SOL     OW19604   4.568   8.732   9.895 -0.0570 -0.1658 -0.5222
38671SOL    HW119605   4.656   8.701   9.877  0.5356  0.7781  0.5950
38671SOL    HW219606   4.568   8.824   9.868 -0.2454  0.2323  0.7489
38672SOL     OW19607   4.008   0.945   5.359 -0.1537  0.5276  0.2243
38672SOL    HW119608   3.995   0.856   5.390 -1.4304  0.5781 -0.0885
38672SOL    HW219609   3.924   0.968   5.318  0.9518  0.9623 -1.9626
38673SOL     OW19610   8.145   2.662   2.009 -0.0623 -0.1834  0.2209
38673SOL    HW119611   8.103   2.635   1.927  0.4680  0.2315 -0.1995
38673SOL    HW219612   8.199   2.737   1.984  0.4142 -0.3004  0.8775
38674SOL     OW19613  10.805   7.817   8.713  0.5494  0.2683 -0.6815
38674SOL    HW119614  10.827   7.888   8.774 -2.1518  1.5548 -1.0381
38674SOL    HW219615  10.808   7.858   8.626  2.3402 -1.0176 -1.2818
38675SOL     OW19616  10.274   4.168   1.612 -0.9146 -0.1831 -0.7727
38675SOL    HW119617  10.324   4.214   1.545  1.7356 -0.7644  0.6402
38675SOL    HW219618  10.257   4.081   1.574  0.9520 -0.6624 -0.6096
38676SOL     OW19619   5.085   7.937   8.626 -0.6435 -0.2928 -0.2981
38676SOL    HW119620   5.103   7.844   8.615  0.5917 -0.1149  0.0364
38676SOL    HW219621   5.142   7.965   8.698  1.3059  1.3256 -2.3146
38677SOL     OW19622   8.243   7.275   4.143  0.7755  0.3039  0.0952
38677SOL    HW119623   8.313   7.292   4.206  0.1440  2.9331  0.1592
38677SOL    HW219624   8.162   7.294   4.190  0.1242 -0.3186 -0.7343
38678SOL     OW19625   1.479   7.598   4.279  0.1484  0.3456 -0.2282
38678SOL    HW119626   1.392   7.639   4.281 -0.0494  0.1901  3.8680
38678SOL    HW219627   1.465   7.515   4.233 -2.0486  0.1133  0.7278
38679SOL     OW19628   3.128   5.384   7.494 -0.4290  0.0701 -0.0628
38679SOL    HW119629   3.186   5.459   7.506  2.3548 -2.0284  0.7444
38679SOL    HW219630   3.114   5.380   7.399  2.4159 -0.3793 -0.5608
38680SOL     OW19631   2.510   0.529  10.201  0.5190  0.0411 -0.1508
38680SOL    HW119632   2.551   0.464  10.259  1.8452  0.3883 -0.6572
38680SOL    HW219633   2.422   0.495  10.186  0.6757 -0.8560  0.8125
38681SOL     OW19634   0.597   3.332   2.508  0.1886  0.2426 -0.6079
38681SOL    HW119635   0.599   3.265   2.439 -1.1651  1.8814 -2.3730
38681SOL    HW219636   0.533   3.299   2.571  0.1242 -0.4798 -1.0326
38682SOL     OW19637   5.663   4.107   0.934  0.4862 -0.5575  0.1851
38682SOL    HW119638   5.632   4.062   1.013  2.4218 -0.3552  1.0991
38682SOL    HW219639   5.621   4.193   0.937 -0.0874 -0.8459  0.5559
38683SOL     OW19640   8.900   0.197   0.330 -0.4293  0.2071 -0.0170
38683SOL    HW119641   8.870   0.250   0.403  1.6711  0.0387  1.0408
38683SOL    HW219642   8.878   0.107   0.355  2.7398 -0.1893  1.8610
38684SOL     OW19643   5.953   9.989   7.259  0.2279 -0.1089 -0.3407
38684SOL    HW119644   5.988   9.955   7.341 -0.2188  1.5712  0.5691
38684SOL    HW219645   6.029   9.998   7.202  0.6189 -0.6866  0.0814
38685SOL     OW19646  10.918   0.098   0.349 -0.5119 -0.0375 -0.0743
38685SOL    HW119647  10.903   0.157   0.422 -1.6197 -1.0062  0.5110
38685SOL    HW219648  10.848   0.033   0.355  0.0160 -0.7751 -1.3493
38686SOL     OW19649   7.774  10.893   6.103 -0.3640 -0.2735 -0.1879
38686SOL    HW119650   7.744  10.915   6.191  1.0327  0.6783  0.0836
38686SOL    HW219651   7.788  10.977   6.060  3.0630 -0.4922  0.1674
38687SOL     OW19652   5.184   7.133   7.608  0.0258 -0.8556  0.0321
38687SOL    HW119653   5.210   7.126   7.699 -0.3432 -0.5181  0.1647
38687SOL    HW219654   5.263   7.111   7.559 -0.1209 -2.3608  0.4199
38688SOL     OW19655   9.555   1.308   3.028  0.2323 -0.2015 -0.2626
38688SOL    HW119656   9.544   1.400   3.004  0.4938  0.0921  0.6921
38688SOL    HW219657   9.466   1.274   3.034  0.1013  0.2036  0.1578
38689SOL     OW19658   4.340   1.396   6.979  0.1706  0.0057 -0.3152
38689SOL    HW119659   4.351   1.359   6.892 -0.1452 -1.9289  0.4141
38689SOL    HW219660   4.429   1.416   7.008  0.2460  1.0724 -1.2095
38690SOL     OW19661   5.420   8.969   8.451 -0.3237  0.5875 -0.0397
38690SOL    HW119662   5.495   9.027   8.462 -0.5217  0.6250  1.3007
38690SOL    HW219663   5.455   8.891   8.407  0.2921  1.0093 -0.2973
38691SOL     OW19664   2.980   2.722   3.299  0.4561 -0.4256 -0.2601
38691SOL    HW119665   2.939   2.709   3.214  0.2281 -1.8104  0.0332
38691SOL    HW219666   2.977   2.636   3.341 -0.8525  0.5366  1.7888
38692SOL     OW19667   2.891   7.040   9.374  0.0895  0.8974 -0.1015
38692SOL    HW119668   2.962   7.031   9.310  0.4306  0.2689  0.3441
38692SOL    HW219669   2.917   7.114   9.428  0.0733  1.0868 -0.3532
38693SOL     OW19670   3.517   1.455   6.040  0.0193  0.0512 -0.5479
38693SOL    HW119671   3.568   1.479   5.963  0.0603 -2.2235 -1.2931
38693SOL    HW219672   3.580   1.460   6.112  1.5209 -2.9802 -1.4941
38694SOL     OW19673  10.314   7.786   6.204 -0.1767 -0.5488  0.2894
38694SOL    HW119674  10.377   7.850   6.237 -1.3586 -0.5423  2.8278
38694SOL    HW219675  10.301   7.726   6.277 -4.1276  0.2897  0.5173
38695SOL     OW19676   7.426   0.321   8.026  0.1452  0.3107  0.0766
38695SOL    HW119677   7.430   0.228   8.050 -0.6072 -0.0640 -1.1632
38695SOL    HW219678   7.337   0.334   7.995  0.1212  1.5668  0.6232
38696SOL     OW19679   6.436   6.948   8.250  0.1749  0.0058 -1.0715
38696SOL    HW119680   6.504   6.984   8.306 -0.8497  0.2998  0.0338
38696SOL    HW219681   6.477   6.872   8.209  1.1906  0.2269 -0.5080
38697SOL     OW19682   8.012   5.873   7.685  0.0877  0.2150 -0.7371
38697SOL    HW119683   8.105   5.888   7.703 -0.4101  1.9646  0.6703
38697SOL    HW219684   7.987   5.801   7.742  0.6662 -0.5417 -1.4289
38698SOL     OW19685   0.695   6.938   2.706  0.1764  0.0845 -0.1219
38698SOL    HW119686   0.630   7.001   2.674  1.0425 -0.1778 -2.5854
38698SOL    HW219687   0.655   6.853   2.688 -0.6050 -0.1553  2.3866
38699SOL     OW19688   7.074   4.200   0.633  0.2340 -0.4501  0.1636
38699SOL    HW119689   7.084   4.119   0.683  0.5243 -1.5962 -1.6690
38699SOL    HW219690   7.015   4.177   0.562  0.0074  1.0747 -0.1828
38700SOL     OW19691   7.252   0.953   3.793  0.6735 -0.0948 -0.3051
38700SOL    HW119692   7.336   0.966   3.836  0.3498 -1.4363  0.8101
38700SOL    HW219693   7.261   0.996   3.708  2.1733  0.5260  0.1423
38701SOL     OW19694   7.065   1.449   7.696  0.2967 -0.7623  0.5328
38701SOL    HW119695   7.139   1.391   7.713  1.3313  0.6693  1.0975
38701SOL    HW219696   7.083   1.487   7.610  0.2409 -0.3733  0.6911
38702SOL     OW19697   8.473   1.976   7.928  0.3234  0.3202  0.1746
38702SOL    HW119698   8.567   1.983   7.913  1.1971 -2.5128  3.2564
38702SOL    HW219699   8.438   1.949   7.843  2.3581  0.7029 -0.8596
38703SOL     OW19700   8.961   3.054   1.235  0.0986 -0.3243 -0.2650
38703SOL    HW119701   9.005   3.109   1.170  0.9377  0.0078  0.5664
38703SOL    HW219702   8.944   2.972   1.189  2.2219 -0.7348 -0.4333
38704SOL     OW19703   1.977   4.878   1.241  0.7589  0.5158 -0.0515
38704SOL    HW119704   2.069   4.905   1.236  0.7376  0.5818 -0.0817
38704SOL    HW219705   1.930   4.943   1.189  0.6873  0.5176  0.0158
38705SOL     OW19706   9.644   8.814   7.145 -0.3677 -0.2370  0.3506
38705SOL    HW119707   9.590   8.855   7.077 -0.4277 -0.4016  0.2961
38705SOL    HW219708   9.729   8.856   7.137 -0.8915  1.0946  1.4239
38706SOL     OW19709   9.399   2.804   0.630  0.3619  0.2705 -0.1181
38706SOL    HW119710   9.484   2.849   0.635 -1.0704  3.5611 -2.2068
38706SOL    HW219711   9.358   2.838   0.551 -2.4478 -2.1710  0.1192
38707SOL     OW19712   7.912  10.864  10.098  0.0343 -0.3617 -0.1294
38707SOL    HW119713   7.939  10.955  10.086  0.1011 -0.1073  1.6522
38707SOL    HW219714   7.822  10.861  10.067 -0.3451  0.6002  0.8248
38708SOL     OW19715   4.202   7.219   4.025  0.5264  0.2210  0.4355
38708SOL    HW119716   4.247   7.205   3.941  1.3595  0.2208  0.8669
38708SOL    HW219717   4.252   7.288   4.067  1.1702 -0.9509  1.6594
38709SOL     OW19718   4.627   1.310   9.899 -0.5053 -0.1472 -0.8501
38709SOL    HW119719   4.717   1.328   9.872  0.2370 -1.2032  0.7820
38709SOL    HW219720   4.630   1.221   9.934 -1.8175  0.4017  0.7726
38710SOL     OW19721   2.819   8.025   3.454  0.1476 -0.5187  0.4864
38710SOL    HW119722   2.770   7.966   3.397  1.7043 -0.1174 -1.3495
38710SOL    HW219723   2.770   8.024   3.536 -1.7950 -1.6640 -0.6023
38711SOL     OW19724   7.159   0.691   1.669 -0.5555  0.0753 -0.0412
38711SOL    HW119725   7.073   0.665   1.637 -0.1957 -1.6509  0.2814
38711SOL    HW219726   7.221   0.649   1.610  0.0666 -0.2131  0.7877
38712SOL     OW19727   4.789   0.983   2.600  0.4032 -0.1119 -0.4646
38712SOL    HW119728   4.826   1.061   2.641 -2.3283 -0.0627  2.2020
38712SOL    HW219729   4.801   0.914   2.666 -1.5026 -0.7443 -0.7217
38713SOL     OW19730  10.066   5.359  11.093  0.6812 -0.0705  0.3198
38713SOL    HW119731  10.080   5.389  11.003  0.6539 -0.3897  0.2078
38713SOL    HW219732   9.988   5.406  11.122  0.5797 -0.1057  0.1115
38714SOL     OW19733   8.421   9.080   2.970  0.0366 -0.7279  0.2937
38714SOL    HW119734   8.390   8.992   2.949 -1.1350 -0.2893  0.1185
38714SOL    HW219735   8.398   9.092   3.063 -2.2976  0.3508 -0.3406
38715SOL     OW19736   2.212  10.967   4.035 -0.0202  0.8156  0.3597
38715SOL    HW119737   2.203  11.045   3.981 -0.6624  0.5143  0.0139
38715SOL    HW219738   2.178  10.896   3.981 -0.6633  0.5002  1.1487
38716SOL     OW19739   9.522   3.941   2.414  0.1251  0.2440  0.0230
38716SOL    HW119740   9.427   3.953   2.407  0.1925  0.3028 -0.9652
38716SOL    HW219741   9.533   3.881   2.488 -0.8373 -1.6393 -1.2837
38717SOL     OW19742   4.698  10.058   7.280  0.5081 -0.0077  0.2594
38717SOL    HW119743   4.778  10.107   7.258 -0.6023  1.5837 -0.3745
38717SOL    HW219744   4.714   9.970   7.246  1.2203  0.7981 -1.6165
38718SOL     OW19745   4.431   2.348   9.175  0.1410  0.1196  0.1807
38718SOL    HW119746   4.526   2.355   9.171  0.0500  1.4251  0.0074
38718SOL    HW219747   4.400   2.395   9.098 -0.7194  1.9476  1.5625
38719SOL     OW19748   2.022   0.866   9.087 -0.2500 -0.6305  0.6139
38719SOL    HW119749   1.982   0.946   9.121 -0.3739 -0.6149  0.4352
38719SOL    HW219750   2.077   0.835   9.158  0.0430 -0.2177  0.5697
38720SOL     OW19751   1.243   1.052   7.363  0.4013  0.2411  0.0320
38720SOL    HW119752   1.251   1.147   7.354  2.2645 -0.0049 -1.5012
38720SOL    HW219753   1.238   1.020   7.273 -0.1308 -1.1386  0.5237
38721SOL     OW19754   5.787   7.306   0.793 -0.0520 -0.0399  0.4526
38721SOL    HW119755   5.793   7.266   0.880  0.9964 -0.2597  0.2911
38721SOL    HW219756   5.877   7.334   0.773 -0.0659 -0.8744 -0.9676
38722SOL     OW19757   9.484   9.224   7.066  0.3872 -0.2387 -0.0097
38722SOL    HW119758   9.523   9.275   7.137 -1.4218  0.4909  0.5059
38722SOL    HW219759   9.493   9.133   7.093 -1.3992  0.0619  1.8210
38723SOL     OW19760   0.070   1.983   6.239 -0.5920  0.6143 -0.6092
38723SOL    HW119761  -0.022   1.984   6.214 -1.1920 -0.5460  1.3336
38723SOL    HW219762   0.073   1.928   6.318  1.7614  0.6312 -0.6165
38724SOL     OW19763   3.352   9.001   9.285 -0.0575 -0.1111  0.1285
38724SOL    HW119764   3.267   8.958   9.276 -0.2504  0.3194 -0.0951
38724SOL    HW219765   3.404   8.965   9.212 -0.2822  0.1788 -0.1778
38725SOL     OW19766   7.656   3.214   7.969  0.1986  0.4959  0.2493
38725SOL    HW119767   7.694   3.144   8.022  0.9181  0.4220 -0.3479
38725SOL    HW219768   7.637   3.284   8.032 -1.0000 -0.4039  0.9334
38726SOL     OW19769   4.365   7.634   1.942  0.1854 -0.1668 -0.1465
38726SOL    HW119770   4.414   7.704   1.987  0.7345  0.5756 -1.8290
38726SOL    HW219771   4.424   7.559   1.944  0.0003 -0.3038  0.7916
38727SOL     OW19772   0.812   2.147   6.636 -0.1592  0.1080  0.8860
38727SOL    HW119773   0.747   2.090   6.595  0.9252 -1.4233  1.2110
38727SOL    HW219774   0.763   2.193   6.705 -1.4628  0.9861 -0.5643
38728SOL     OW19775   2.589   8.198   1.378  0.1633  0.4099  0.1355
38728SOL    HW119776   2.633   8.265   1.430 -1.3520  2.0280 -0.5861
38728SOL    HW219777   2.633   8.202   1.293  0.9954 -0.5270  0.4966
38729SOL     OW19778   2.475  10.894   1.125 -0.1619 -0.8530  0.5477
38729SOL    HW119779   2.522  10.825   1.078 -0.4686 -0.5961 -0.1649
38729SOL    HW219780   2.397  10.909   1.071  0.3469  0.6656  0.2043
38730SOL     OW19781   0.804   0.504  10.573  0.7231 -0.0056  0.1877
38730SOL    HW119782   0.812   0.409  10.582  1.3845  0.0638  0.3785
38730SOL    HW219783   0.858   0.526  10.497 -1.2285 -0.0409 -1.2706
38731SOL     OW19784   8.255   4.371   7.630 -0.2979 -0.2366  0.2643
38731SOL    HW119785   8.233   4.301   7.569 -1.3258 -0.0600  0.4137
38731SOL    HW219786   8.323   4.333   7.686  1.0757 -0.2142 -1.3120
38732SOL     OW19787   4.511   5.423   8.906 -0.6510  0.3320  0.0432
38732SOL    HW119788   4.457   5.350   8.875 -0.8404  1.0535 -1.4026
38732SOL    HW219789   4.549   5.460   8.826  2.6544 -0.6107  1.0311
38733SOL     OW19790  10.823   7.993   2.973 -0.1157 -0.4160 -0.2350
38733SOL    HW119791  10.767   8.044   2.915 -0.9884  0.0768  0.9830
38733SOL    HW219792  10.863   7.927   2.917 -1.7297 -0.6187 -1.2175
38734SOL     OW19793   8.068   0.136   5.563 -0.0948  0.1661  0.9953
38734SOL    HW119794   8.157   0.100   5.555 -0.4371 -0.4777 -0.2199
38734SOL    HW219795   8.052   0.178   5.479 -1.5795 -1.2502  0.5127
38735SOL     OW19796   0.858   7.314   3.778  0.6824  0.4009 -0.3494
38735SOL    HW119797   0.942   7.313   3.732  0.7261 -1.3020 -0.2832
38735SOL    HW219798   0.876   7.271   3.862 -0.3481 -0.4627 -0.5452
38736SOL     OW19799   3.705   2.380   4.121  0.0784 -0.1900  0.6735
38736SOL    HW119800   3.727   2.436   4.046 -0.9137  0.0203  0.5288
38736SOL    HW219801   3.697   2.293   4.083 -0.7061 -0.0380  0.4714
38737SOL     OW19802   4.887   9.147   1.260 -0.3953  0.1522  0.4900
38737SOL    HW119803   4.812   9.134   1.317 -2.6190  0.6518 -2.0975
38737SOL    HW219804   4.906   9.060   1.224 -1.0716  0.3481 -0.3654
38738SOL     OW19805   4.652   4.154   2.771 -0.3427 -0.0910  0.5642
38738SOL    HW119806   4.677   4.243   2.746 -0.8373  0.3886  1.6952
38738SOL    HW219807   4.601   4.166   2.851 -0.1603 -1.4208  0.8922
38739SOL     OW19808   1.566   5.337   7.498 -0.7001 -0.3772  0.2182
38739SOL    HW119809   1.502   5.266   7.508 -1.2233 -0.1315 -1.1645
38739SOL    HW219810   1.651   5.293   7.500 -1.0349 -1.1532 -1.3022
38740SOL     OW19811   0.055   7.254   0.779 -0.3691 -0.5873  0.0170
38740SOL    HW119812  -0.004   7.228   0.708  0.0953 -1.3941 -0.0899
38740SOL    HW219813   0.142   7.257   0.737 -0.2469 -0.0100  0.3088
38741SOL     OW19814   0.004   6.903   0.666  0.2527 -0.2068  0.1220
38741SOL    HW119815   0.079   6.926   0.611 -0.6968  1.1180 -0.6954
38741SOL    HW219816  -0.067   6.886   0.603 -0.3296 -0.7331  0.8980
38742SOL     OW19817   3.677   1.458   1.220  0.0377 -0.0586  0.5580
38742SOL    HW119818   3.766   1.462   1.184 -0.0149  2.0965  0.5772
38742SOL    HW219819   3.679   1.380   1.277  2.3062  0.6142  1.5339
38743SOL     OW19820   5.051   9.837   3.221  0.3184  0.0497  0.2902
38743SOL    HW119821   4.981   9.795   3.271  0.2099 -1.2040 -0.8480
38743SOL    HW219822   5.008   9.908   3.174  0.2556  0.6759  1.2732
38744SOL     OW19823   5.836   1.398  10.474  0.4228  0.4132 -0.4785
38744SOL    HW119824   5.897   1.423  10.405  0.1272  0.6349 -0.6611
38744SOL    HW219825   5.852   1.304  10.487 -1.0906 -0.1773 -2.4522
38745SOL     OW19826  11.049   7.479   1.150 -0.1274 -0.2835  0.3841
38745SOL    HW119827  11.125   7.484   1.092 -0.0331 -1.2070  0.4011
38745SOL    HW219828  10.980   7.439   1.097 -0.2118 -0.6163  0.7335
38746SOL     OW19829   1.764   1.856   3.840  0.3678  0.1240  0.0766
38746SOL    HW119830   1.708   1.778   3.836  0.8660 -0.2642  0.6646
38746SOL    HW219831   1.713   1.919   3.891 -1.1922  1.1592 -2.5678
38747SOL     OW19832   8.866   9.015   0.665 -0.0452 -0.3862  0.4326
38747SOL    HW119833   8.934   9.044   0.726 -0.4418  0.4451  0.4963
38747SOL    HW219834   8.824   8.941   0.708  0.1608 -0.2673  0.8385
38748SOL     OW19835   2.970   1.116   4.600  0.1608  0.0935 -0.0094
38748SOL    HW119836   2.982   1.077   4.687 -0.3379 -0.9374 -0.3859
38748SOL    HW219837   2.886   1.082   4.570  0.7835 -0.3524 -1.2993
38749SOL     OW19838   5.258   8.203   9.900  0.2934 -0.6371 -0.6769
38749SOL    HW119839   5.191   8.147   9.938  1.1813 -1.1741  0.1451
38749SOL    HW219840   5.227   8.221   9.811 -0.7471 -1.1729 -0.4386
38750SOL     OW19841   9.614  11.031   1.085 -0.1773 -0.3617 -0.3991
38750SOL    HW119842   9.689  11.028   1.026 -0.0857 -1.5474 -0.2461
38750SOL    HW219843   9.550  11.086   1.040 -0.0060 -1.0237 -1.4826
38751SOL     OW19844   8.544   0.970   3.453 -0.3946 -0.7668 -0.4053
38751SOL    HW119845   8.484   1.010   3.516  0.0504  1.9543 -1.5563
38751SOL    HW219846   8.522   0.877   3.455 -1.0019 -0.7024  3.0536
38752SOL     OW19847   9.590  10.268   7.136  0.4182  0.2553 -0.1470
38752SOL    HW119848   9.499  10.258   7.108 -0.2924  2.2239  1.2739
38752SOL    HW219849   9.633  10.313   7.064  0.8440 -2.4494 -1.6966
38753SOL     OW19850   6.715   6.338   6.661  0.3476  0.1932 -0.3176
38753SOL    HW119851   6.695   6.313   6.751  2.1379 -1.1294 -0.2456
38753SOL    HW219852   6.776   6.410   6.669  1.8488 -1.0171 -0.3970
38754SOL     OW19853   6.676   4.981   6.244  0.5441 -0.8909  0.0047
38754SOL    HW119854   6.745   4.970   6.309 -0.8091 -2.6540  1.2470
38754SOL    HW219855   6.623   5.054   6.277  0.2078 -1.3875  0.5866
38755SOL     OW19856   7.235   3.222   4.612  0.5424 -0.8568  0.0806
38755SOL    HW119857   7.247   3.310   4.576 -1.8536 -0.6127 -0.2849
38755SOL    HW219858   7.281   3.165   4.551  0.6156 -0.0139 -0.6821
38756SOL     OW19859   5.123   5.700   4.560 -0.4960  0.0057 -0.4390
38756SOL    HW119860   5.040   5.696   4.607 -0.8008 -0.5443 -1.0131
38756SOL    HW219861   5.188   5.672   4.624 -0.6344  1.2066  0.2581
38757SOL     OW19862   9.338   3.571   5.556  0.3277  0.2807  0.3935
38757SOL    HW119863   9.303   3.535   5.474  0.0734 -0.8568  0.9717
38757SOL    HW219864   9.265   3.564   5.618  1.1172 -0.7755  1.2334
38758SOL     OW19865   6.412  10.423  10.670  0.6020  0.2754 -0.1006
38758SOL    HW119866   6.332  10.458  10.709 -1.3400 -0.0073 -3.4606
38758SOL    HW219867   6.431  10.481  10.597  1.0866 -1.8811 -1.8121
38759SOL     OW19868   8.615   9.763   9.740  0.7119 -0.1749  0.0144
38759SOL    HW119869   8.569   9.719   9.812  2.3567  0.0538  1.2681
38759SOL    HW219870   8.632   9.851   9.773  1.0450  0.0968 -0.8649
38760SOL     OW19871   8.090   8.642   0.207 -0.5655  0.8329  0.2221
38760SOL    HW119872   8.056   8.664   0.120 -1.0771  0.1402  0.2441
38760SOL    HW219873   8.092   8.726   0.254 -0.4308  1.1876 -0.3990
38761SOL     OW19874   7.202   1.443   3.558  0.3688 -0.7861  0.0507
38761SOL    HW119875   7.268   1.397   3.610  0.3910 -0.5772  0.2079
38761SOL    HW219876   7.230   1.534   3.560 -1.1956 -0.2973  2.0506
38762SOL     OW19877   6.977   0.398   3.549  0.3991 -0.2966  0.3712
38762SOL    HW119878   7.023   0.391   3.466  2.7819 -0.6692  1.6201
38762SOL    HW219879   6.999   0.485   3.582 -0.5544 -0.1341  0.6219
38763SOL     OW19880   9.836   0.526   4.266 -0.3302 -0.2838  0.2311
38763SOL    HW119881   9.754   0.526   4.217 -0.2675  1.1968  0.0743
38763SOL    HW219882   9.824   0.460   4.334 -1.5855 -0.1941  0.1188
38764SOL     OW19883   6.751   4.201   8.238 -0.2141 -0.1846  0.3611
38764SOL    HW119884   6.799   4.283   8.227  1.1032 -0.9747  0.0213
38764SOL    HW219885   6.752   4.161   8.151 -3.5952  0.8385 -0.2776
38765SOL     OW19886   9.196   5.781   4.296 -0.0024  0.2581  0.0257
38765SOL    HW119887   9.242   5.707   4.337  1.8964 -0.3747 -2.9578
38765SOL    HW219888   9.103   5.759   4.305  0.3332 -0.4492  2.6735
38766SOL     OW19889   6.492   6.624   0.086  0.1973  0.7867  0.2928
38766SOL    HW119890   6.428   6.693   0.105  0.0601  0.3957  1.3086
38766SOL    HW219891   6.481   6.606  -0.007  0.2619  2.1602 -0.0046
38767SOL     OW19892   8.436   8.564   0.017 -0.3954 -0.3398  0.5825
38767SOL    HW119893   8.375   8.492   0.000 -0.4070 -0.4038  0.8906
38767SOL    HW219894   8.427   8.621  -0.059  0.2176 -1.0744 -0.0552
38768SOL     OW19895   8.842   6.369   7.108  0.7901  0.5315  0.1549
38768SOL    HW119896   8.782   6.444   7.101  0.1466 -0.1089 -1.8465
38768SOL    HW219897   8.897   6.390   7.184 -0.2910  2.3549  0.5078
38769SOL     OW19898   2.438   9.518   9.335 -0.3429 -0.1839 -0.1307
38769SOL    HW119899   2.444   9.579   9.408  1.8488 -1.3040  0.7139
38769SOL    HW219900   2.366   9.460   9.358 -1.6945  1.3132 -0.4001
38770SOL     OW19901   8.299   6.489   0.514  0.2176 -0.0802  0.1628
38770SOL    HW119902   8.321   6.438   0.592 -0.0692  0.4096  0.5725
38770SOL    HW219903   8.347   6.571   0.526  1.2721 -0.5298 -0.8517
38771SOL     OW19904   3.837   5.465   5.332 -0.4857 -0.5066 -0.5418
38771SOL    HW119905   3.781   5.538   5.360 -0.2025  0.4033 -2.2113
38771SOL    HW219906   3.875   5.432   5.413 -0.7766  1.0893  0.2990
38772SOL     OW19907   5.693   5.171  10.162  0.0769  0.2357  0.5771
38772SOL    HW119908   5.600   5.151  10.149 -0.6387 -0.0500  4.7288
38772SOL    HW219909   5.694   5.264  10.186  0.5904 -0.1697  2.2225
38773SOL     OW19910   8.588   2.086   6.632 -0.4625  0.6782  0.8022
38773SOL    HW119911   8.555   2.023   6.567 -0.6824  1.5509  0.0457
38773SOL    HW219912   8.516   2.096   6.694 -0.0910 -0.4907  1.4377
38774SOL     OW19913   5.142   4.023  10.892  0.0769 -0.1214 -0.1002
38774SOL    HW119914   5.090   4.066  10.825  0.8578  0.1340 -0.5589
38774SOL    HW219915   5.217   4.081  10.905  0.3703 -0.5943  0.3721
38775SOL     OW19916   4.534   1.813   9.403  0.5544  0.2190 -0.2676
38775SOL    HW119917   4.444   1.838   9.423  0.7072 -0.7634  1.9530
38775SOL    HW219918   4.587   1.886   9.438  0.7453 -0.7846  1.6686
38776SOL     OW19919   1.347   9.829   9.939 -0.2524  0.0597 -0.2488
38776SOL    HW119920   1.278   9.799   9.999 -0.5916  0.7702 -0.2681
38776SOL    HW219921   1.305   9.828   9.853  0.1461 -0.6866 -0.4383
38777SOL     OW19922   9.346   5.685   1.427 -0.6799  0.5842  0.8191
38777SOL    HW119923   9.412   5.754   1.433 -0.4366  0.2359  2.7282
38777SOL    HW219924   9.381   5.623   1.363  1.0565  0.2130  2.0833
38778SOL     OW19925   6.629   8.022   9.139 -0.0171 -0.0460 -0.0433
38778SOL    HW119926   6.675   7.971   9.072 -0.2441 -1.5757  0.9083
38778SOL    HW219927   6.548   8.051   9.097 -0.0134 -0.7187 -0.5297
38779SOL     OW19928   9.736   3.246   3.654 -0.5247  0.3103  0.4053
38779SOL    HW119929   9.764   3.333   3.681  0.5846  0.1788 -0.2588
38779SOL    HW219930   9.645   3.240   3.683 -1.1087  2.2662 -0.8587
38780SOL     OW19931   2.633  10.274  10.119  0.4425  0.2285 -0.4527
38780SOL    HW119932   2.722  10.254  10.149 -0.1032 -0.6006  0.7321
38780SOL    HW219933   2.595  10.188  10.101  0.8809  0.6488 -4.2570
38781SOL     OW19934   2.049   3.259   9.478 -0.4242  0.2660 -0.1223
38781SOL    HW119935   1.995   3.180   9.477 -0.6717  0.1631  3.8850
38781SOL    HW219936   1.988   3.330   9.500  0.3525  0.9727 -0.1756
38782SOL     OW19937   1.071   8.546   6.885 -0.2993 -0.2627  0.2006
38782SOL    HW119938   1.033   8.472   6.836 -1.4375  0.3748  0.0831
38782SOL    HW219939   1.033   8.539   6.972 -2.9295  1.8950 -0.6254
38783SOL     OW19940   0.819   6.572   8.032 -0.2795  0.0213  0.0181
38783SOL    HW119941   0.734   6.610   8.009 -0.9735 -1.4266  0.0559
38783SOL    HW219942   0.840   6.610   8.117 -0.2908  1.3111 -0.5389
38784SOL     OW19943   7.992   7.276   5.463 -0.1940  0.0760 -0.5682
38784SOL    HW119944   7.943   7.356   5.483 -0.1979 -0.0825  0.0701
38784SOL    HW219945   7.982   7.221   5.540  2.8553  0.9238  0.5712
38785SOL     OW19946   1.458   7.561   2.817 -0.4124 -0.6442  0.0421
38785SOL    HW119947   1.517   7.558   2.892 -0.2982  0.1809 -0.0014
38785SOL    HW219948   1.508   7.607   2.749 -0.9284 -0.3567 -0.1513
38786SOL     OW19949   2.501   0.349   0.350  0.3775 -0.8306 -0.1296
38786SOL    HW119950   2.557   0.272   0.339  0.6057 -0.4941 -1.4218
38786SOL    HW219951   2.550   0.421   0.311 -0.6605 -0.4029 -0.6737
38787SOL     OW19952   0.676   4.617   2.487  0.2026 -0.2050  0.2263
38787SOL    HW119953   0.623   4.539   2.503  0.4350 -0.3908  0.0852
38787SOL    HW219954   0.734   4.593   2.415  1.0101 -0.2604  0.8753
38788SOL     OW19955   1.456   1.463   0.974 -0.2313 -0.2835  0.6248
38788SOL    HW119956   1.551   1.455   0.963 -0.3458 -2.1663  0.6220
38788SOL    HW219957   1.445   1.515   1.053  0.7507  1.7047 -0.4705
38789SOL     OW19958   3.184  10.226   9.910  0.0138  0.2069  0.3227
38789SOL    HW119959   3.145  10.171   9.978 -1.2009  0.6260 -0.0201
38789SOL    HW219960   3.206  10.307   9.955  3.0239 -0.9109  1.1517
38790SOL     OW19961   5.706   0.546   2.686  0.2996  0.3785  0.1194
38790SOL    HW119962   5.700   0.599   2.766  4.2595 -1.6277  2.0435
38790SOL    HW219963   5.790   0.570   2.648  0.6815 -2.0366 -0.7539
38791SOL     OW19964   5.872   6.867   3.904  0.0239  0.0091  0.5670
38791SOL    HW119965   5.921   6.943   3.874  1.0215 -0.2952  1.3541
38791SOL    HW219966   5.837   6.893   3.989  0.2491 -0.3479  0.7746
38792SOL     OW19967   7.660   1.399   6.329 -0.1957 -0.4229  0.0623
38792SOL    HW119968   7.697   1.311   6.319 -0.2202 -0.3763 -0.4220
38792SOL    HW219969   7.588   1.386   6.392  0.1753 -0.6374  0.4516
38793SOL     OW19970   1.903   7.853   4.807 -0.0184 -0.0912  0.3010
38793SOL    HW119971   1.928   7.920   4.870 -1.8950  0.0215  1.0019
38793SOL    HW219972   1.888   7.775   4.860 -0.9672 -0.1740 -0.0660
38794SOL     OW19973   4.027   1.870   8.171 -0.1279 -0.1310 -0.1673
38794SOL    HW119974   4.093   1.882   8.102 -1.2519  0.2541 -1.2177
38794SOL    HW219975   4.078   1.851   8.250  1.2020 -0.7107 -1.1199
38795SOL     OW19976   6.826  10.176   4.471 -0.4631 -0.1866  0.2375
38795SOL    HW119977   6.779  10.210   4.394 -1.4774 -0.3527  0.7631
38795SOL    HW219978   6.876  10.251   4.503 -1.5371  0.4246  0.5279
38796SOL     OW19979   4.300   2.439  10.020  0.1472  0.6323  0.0415
38796SOL    HW119980   4.238   2.424  10.091  1.2478 -2.1769  0.5444
38796SOL    HW219981   4.381   2.467  10.063  0.0807  1.4832 -0.3621
38797SOL     OW19982   3.988   8.356   7.805  0.1473 -0.0720 -0.1332
38797SOL    HW119983   4.034   8.431   7.766  1.8743 -1.0170 -0.0388
38797SOL    HW219984   4.058   8.305   7.847 -0.8687 -2.1082 -0.8143
38798SOL     OW19985   3.358   0.062   7.172  0.0012  0.1909 -0.0532
38798SOL    HW119986   3.363   0.053   7.077 -0.0774 -1.5266  0.0863
38798SOL    HW219987   3.266   0.048   7.193 -0.0561  0.9708  0.2591
38799SOL     OW19988   7.495   6.395   5.952 -0.2429  0.3074 -0.0954
38799SOL    HW119989   7.557   6.323   5.963 -1.0517 -0.3804  0.0690
38799SOL    HW219990   7.546   6.474   5.970  1.4702  0.0572 -3.1463
38800SOL     OW19991   3.799   0.028   0.325 -0.2731 -0.1289 -0.1352
38800SOL    HW119992   3.794   0.092   0.396 -0.0511 -0.5673  0.2797
38800SOL    HW219993   3.833   0.077   0.251  0.8396  0.0166  0.4552
38801SOL     OW19994   6.675   8.615  10.405  0.3271 -0.4459  0.5219
38801SOL    HW119995   6.747   8.677  10.392  0.6131 -0.9020 -0.1531
38801SOL    HW219996   6.621   8.654  10.473  0.2366  0.7796 -0.2331
38802SOL     OW19997   0.207   5.636   6.594 -0.2012 -0.2796 -0.0210
38802SOL    HW119998   0.225   5.730   6.589  1.1206 -0.4654  0.7729
38802SOL    HW219999   0.286   5.598   6.634 -0.8439 -1.6872 -0.0168
38803SOL     OW20000   1.187  10.427   0.113  0.3303 -0.3605 -0.4072
38803SOL    HW120001   1.230  10.491   0.057  2.4675 -0.1407  1.3708
38803SOL    HW220002   1.221  10.444   0.201 -3.1920 -0.3948  1.1366
38804SOL     OW20003   8.862   3.859   8.813  0.1676  0.0304  0.0079
38804SOL    HW120004   8.940   3.899   8.851 -0.4235  0.7317  0.5030
38804SOL    HW220005   8.826   3.805   8.884  0.3071 -0.4436 -0.2792
38805SOL     OW20006   5.215   1.222   0.198 -1.0771 -0.1965 -0.4526
38805SOL    HW120007   5.133   1.269   0.212 -0.7461  0.4982 -0.8286
38805SOL    HW220008   5.264   1.235   0.279 -1.0998 -0.1407 -0.4481
38806SOL     OW20009   1.214   5.911   4.545 -1.0594 -0.2144 -0.4479
38806SOL    HW120010   1.252   5.823   4.540  2.8976  1.2169  0.9496
38806SOL    HW220011   1.227   5.947   4.457 -0.7474 -0.3442 -0.4582
38807SOL     OW20012  10.185   7.781   8.959  0.4513 -0.0570  0.2920
38807SOL    HW120013  10.146   7.856   8.914  0.7646  0.6393  1.1477
38807SOL    HW220014  10.111   7.733   8.995  0.2034 -0.5870 -0.9035
38808SOL     OW20015   6.634  10.815   3.111 -0.0418  0.1743 -0.1515
38808SOL    HW120016   6.634  10.727   3.149 -0.3575 -0.6603 -2.0052
38808SOL    HW220017   6.552  10.821   3.064  0.5310  1.0073 -1.0719
38809SOL     OW20018   4.346   2.093   9.045 -0.2483  0.5196  0.0489
38809SOL    HW120019   4.379   2.173   9.085  3.0469  0.9175 -2.9397
38809SOL    HW220020   4.405   2.024   9.076  0.2513  0.2621 -1.3798
38810SOL     OW20021   5.601   4.760   8.424 -1.0151 -0.2631  0.2622
38810SOL    HW120022   5.685   4.714   8.431 -0.9857 -0.1225  0.8490
38810SOL    HW220023   5.551   4.731   8.500 -2.0504 -1.4254 -0.8027
38811SOL     OW20024   3.090   1.166   7.586 -0.2885 -0.0487  0.1294
38811SOL    HW120025   2.997   1.149   7.575 -0.4750 -0.3541  1.9305
38811SOL    HW220026   3.100   1.258   7.562 -1.2317  0.2465  0.7999
38812SOL     OW20027   7.897  10.390   4.283 -0.3133  0.4975 -0.4633
38812SOL    HW120028   7.884  10.448   4.208 -0.4645 -1.2844 -1.8825
38812SOL    HW220029   7.992  10.374   4.284 -0.4518 -0.4725 -1.0992
38813SOL     OW20030   9.669   8.142   4.031  0.5566 -0.4055  0.1661
38813SOL    HW120031   9.629   8.202   3.969  1.4466  0.7015  0.6230
38813SOL    HW220032   9.707   8.198   4.098  2.0694 -1.4326  0.2311
38814SOL     OW20033   2.907   8.578   9.311 -0.2601  0.4311  0.4006
38814SOL    HW120034   2.906   8.618   9.398 -2.4207  0.3418  0.4754
38814SOL    HW220035   2.844   8.506   9.318  0.0939 -0.0427 -1.0476
38815SOL     OW20036   2.968   7.300   9.504 -0.4062  0.1986 -0.3116
38815SOL    HW120037   3.040   7.355   9.535 -0.9978  0.5899  0.4035
38815SOL    HW220038   2.890   7.354   9.516 -0.8167 -0.1886 -1.1501
38816SOL     OW20039   2.335   4.644   2.758  1.1857  0.0480 -0.1824
38816SOL    HW120040   2.252   4.605   2.784 -0.4814  3.5088  0.3062
38816SOL    HW220041   2.361   4.697   2.833  1.9981  1.7195 -1.5781
38817SOL     OW20042   0.266   7.604   7.024 -0.5198  0.9976 -0.7026
38817SOL    HW120043   0.207   7.565   7.089  0.1865  1.2573  0.1273
38817SOL    HW220044   0.226   7.687   7.001 -0.6116  1.0533 -0.3456
38818SOL     OW20045  11.011  10.763   0.598  0.7857 -0.0745  0.6522
38818SOL    HW120046  11.086  10.716   0.635 -0.8375 -2.3467  1.3181
38818SOL    HW220047  11.028  10.766   0.504  1.1472 -1.7678  0.6266
38819SOL     OW20048   6.941   1.117   7.600 -0.2458 -0.3269 -0.2426
38819SOL    HW120049   6.883   1.063   7.547  0.8651 -0.1388 -1.7060
38819SOL    HW220050   7.006   1.151   7.539 -0.5295  2.1981  0.7102
38820SOL     OW20051   7.632   7.651   1.706 -0.2889 -0.4872 -0.0747
38820SOL    HW120052   7.598   7.730   1.665  0.0224 -1.1160 -1.6131
38820SOL    HW220053   7.561   7.588   1.698  0.4853 -1.2191 -1.5221
38821SOL     OW20054   9.338   9.269   4.376  0.1862  0.1136 -0.0145
38821SOL    HW120055   9.256   9.251   4.423  0.3003  0.0196  0.1479
38821SOL    HW220056   9.384   9.186   4.376 -0.0313 -0.0164 -0.7277
38822SOL     OW20057   5.486   4.714   8.185 -0.1665 -0.3218  0.4405
38822SOL    HW120058   5.518   4.742   8.271 -1.1314 -0.8325  0.9756
38822SOL    HW220059   5.460   4.623   8.197  2.1906 -1.2977 -1.0807
38823SOL     OW20060   4.430  11.090   4.473  0.1607 -0.5549  0.1037
38823SOL    HW120061   4.425  11.098   4.378 -0.7913  0.3724  0.2150
38823SOL    HW220062   4.491  11.018   4.488 -1.0198 -1.8840 -1.2281
38824SOL     OW20063   3.399   6.608   3.034 -0.2838  0.6899  0.1406
38824SOL    HW120064   3.341   6.531   3.038 -1.6609  1.7010  0.4059
38824SOL    HW220065   3.438   6.614   3.121  0.6850 -0.3241 -0.2053
38825SOL     OW20066   7.555   7.238   7.481  0.1628 -0.1374  0.0467
38825SOL    HW120067   7.592   7.319   7.517  0.7633 -0.9325  1.2779
38825SOL    HW220068   7.631   7.188   7.452 -0.2668  0.1496 -1.6722
38826SOL     OW20069   6.075   1.855   8.490 -0.4659  0.6046 -0.2889
38826SOL    HW120070   6.162   1.816   8.477 -0.3591  0.1149  1.6341
38826SOL    HW220071   6.094   1.944   8.520 -0.5144 -0.0556  1.9041
38827SOL     OW20072  10.653   3.303   4.119 -0.7575  0.9226 -0.5088
38827SOL    HW120073  10.581   3.315   4.181  0.2943  1.8067  0.6028
38827SOL    HW220074  10.668   3.390   4.083 -1.0993  0.4863 -1.7397
38828SOL     OW20075   0.922   5.006   3.819  0.4287 -0.2208  0.0355
38828SOL    HW120076   0.846   5.041   3.773 -0.2304 -2.0449 -0.3615
38828SOL    HW220077   0.956   4.938   3.761  1.1670 -0.7754  1.0928
38829SOL     OW20078   5.119   6.493   1.262  0.8464  0.2151  0.2863
38829SOL    HW120079   5.114   6.540   1.345  0.2905  0.6914 -0.0099
38829SOL    HW220080   5.197   6.528   1.219  0.9766  0.1661  0.4759
38830SOL     OW20081   4.994   1.898   7.796  0.1975 -0.8239  0.3505
38830SOL    HW120082   4.923   1.858   7.745 -0.6132  0.1827  0.6588
38830SOL    HW220083   4.951   1.937   7.872  0.9817  0.3597  0.2256
38831SOL     OW20084   3.289   9.934   6.014  0.4301  0.1072 -0.1212
38831SOL    HW120085   3.321   9.881   5.941 -1.1570 -0.1326 -0.6887
38831SOL    HW220086   3.194   9.922   6.012  0.1427  1.9821  0.5128
38832SOL     OW20087   1.479   9.883   1.159  0.1149  0.0067 -0.1978
38832SOL    HW120088   1.423   9.961   1.165  0.4509  0.3539 -1.2973
38832SOL    HW220089   1.523   9.892   1.075  2.5760  0.2168  1.0397
38833SOL     OW20090  10.672   5.368   1.762 -0.8244 -0.8254  0.0085
38833SOL    HW120091  10.613   5.431   1.804 -1.1565 -2.1079  1.5799
38833SOL    HW220092  10.629   5.284   1.774  1.5343 -1.9107  1.7614
38834SOL     OW20093   9.972   9.785   6.204  0.2064 -0.4751 -0.0765
38834SOL    HW120094   9.914   9.709   6.204 -0.4144 -0.0509  1.6630
38834SOL    HW220095  10.040   9.763   6.140  0.6721 -3.0073  1.1373
38835SOL     OW20096   9.254   4.192   8.727 -0.2732 -0.6512 -0.0746
38835SOL    HW120097   9.173   4.238   8.749  1.0436  1.6653  0.3299
38835SOL    HW220098   9.297   4.250   8.664  1.0716 -1.8374 -0.2929
38836SOL     OW20099   6.832  10.931   1.084 -0.0418  0.1174  0.4763
38836SOL    HW120100   6.915  10.945   1.129  0.1299  0.5169  0.0439
38836SOL    HW220101   6.781  10.878   1.144  0.8561 -0.8895  0.3724
38837SOL     OW20102   4.527   2.407   0.291 -0.5237 -0.2979  0.0743
38837SOL    HW120103   4.598   2.459   0.327 -1.1470  1.0472 -0.5487
38837SOL    HW220104   4.514   2.443   0.203 -0.7001 -1.8104 -0.5512
38838SOL     OW20105   3.451   7.872   4.369 -0.4865  0.0200 -0.1118
38838SOL    HW120106   3.418   7.786   4.344 -1.1077 -0.2139  1.4172
38838SOL    HW220107   3.481   7.911   4.287 -1.1219 -1.2501 -0.9761
38839SOL     OW20108   7.085   3.176   4.270 -0.0448 -0.0237 -0.7327
38839SOL    HW120109   7.002   3.129   4.261  0.0051 -0.2317 -0.1220
38839SOL    HW220110   7.069   3.239   4.340  0.6309 -0.7955  0.1459
38840SOL     OW20111   1.082   9.649   6.130  0.2684 -0.4551  0.2566
38840SOL    HW120112   1.133   9.658   6.050  3.3655 -0.2630  2.0966
38840SOL    HW220113   1.010   9.711   6.119  0.8558 -0.1069 -2.1755
38841SOL     OW20114  10.762   9.289   3.708  0.2903 -0.3035 -0.5962
38841SOL    HW120115  10.787   9.204   3.743  2.2302  1.1766  1.9224
38841SOL    HW220116  10.820   9.302   3.633  1.7459 -0.1825  0.5207
38842SOL     OW20117   1.009   7.560   0.952  0.1220  0.1653  0.2878
38842SOL    HW120118   0.935   7.549   1.011 -0.9015 -0.0825 -1.0053
38842SOL    HW220119   1.069   7.489   0.975 -1.7169 -1.9396 -1.0448
38843SOL     OW20120   4.158   3.617   0.517 -0.4464  0.0116  0.4656
38843SOL    HW120121   4.242   3.571   0.522 -0.6100 -0.3524  0.0175
38843SOL    HW220122   4.174   3.702   0.556 -0.2232 -0.5559  1.6343
38844SOL     OW20123   8.109   2.575   2.400  0.0752  0.1847  0.0428
38844SOL    HW120124   8.121   2.619   2.484  1.4650  0.2791 -0.1796
38844SOL    HW220125   8.074   2.489   2.422 -0.0172  0.3846  0.6882
38845SOL     OW20126   9.477   4.346   8.102 -0.3086  0.0997 -0.2842
38845SOL    HW120127   9.556   4.309   8.142  0.3318  1.9631  0.2767
38845SOL    HW220128   9.471   4.434   8.138 -2.2773  0.2479 -0.8633
38846SOL     OW20129   6.295   2.288   1.819 -0.5197  0.0479 -0.2558
38846SOL    HW120130   6.287   2.377   1.851 -2.3721 -0.0430 -0.3549
38846SOL    HW220131   6.282   2.295   1.724  1.4449 -0.1015 -0.5720
38847SOL     OW20132   6.844   2.839  10.452  0.3056 -0.0347  0.1168
38847SOL    HW120133   6.916   2.784  10.483 -0.4373 -0.8576  0.4428
38847SOL    HW220134   6.781   2.839  10.524 -0.3334  0.0781 -0.4309
38848SOL     OW20135   0.841   2.666   3.486  0.3350 -0.1143  0.1350
38848SOL    HW120136   0.910   2.711   3.534  0.7976  0.2249 -0.8091
38848SOL    HW220137   0.809   2.599   3.546  2.3254 -1.0869  0.1849
38849SOL     OW20138   6.976   2.286   1.373  0.8796 -0.1648  0.4656
38849SOL    HW120139   6.882   2.298   1.386  0.9316 -0.0854  0.7777
38849SOL    HW220140   7.015   2.312   1.456  1.1545 -0.4819  0.4355
38850SOL     OW20141   2.558   0.343   1.246  0.1253  0.3958 -0.0329
38850SOL    HW120142   2.467   0.314   1.236  0.3693  0.1025 -1.7390
38850SOL    HW220143   2.607   0.262   1.263  0.2510  0.3512 -0.5860
38851SOL     OW20144   0.536  10.706   9.745  0.2101  0.2251  0.4284
38851SOL    HW120145   0.509  10.636   9.687  1.2278  0.1009  0.0840
38851SOL    HW220146   0.525  10.669   9.833  0.5102 -0.2831  0.2575
38852SOL     OW20147   4.239   6.939  11.112  0.1312  0.7459 -0.0859
38852SOL    HW120148   4.210   6.979  11.194  0.7368 -0.3885  0.6936
38852SOL    HW220149   4.175   6.871  11.094  0.7237  0.1262  0.1378
38853SOL     OW20150   1.458   3.682   2.042  0.0903 -0.5317  0.5967
38853SOL    HW120151   1.537   3.630   2.056 -0.4659 -1.6404 -0.1923
38853SOL    HW220152   1.423   3.650   1.959 -1.5127 -0.4970  1.2175
38854SOL     OW20153   6.643   8.729   0.673  0.3379  0.2017 -0.5513
38854SOL    HW120154   6.738   8.719   0.680  0.4898  0.9855 -1.3611
38854SOL    HW220155   6.624   8.715   0.580 -0.1052  1.8293 -0.7295
38855SOL     OW20156   8.337   0.211   7.555 -0.1422  0.4502 -0.0986
38855SOL    HW120157   8.349   0.249   7.642 -3.8141 -1.0757  1.2856
38855SOL    HW220158   8.296   0.281   7.503  2.2688  1.4402 -0.7796
38856SOL     OW20159   4.345   5.637   9.402  0.4113  0.2492 -0.4718
38856SOL    HW120160   4.265   5.599   9.437  0.4762  0.1002 -0.4831
38856SOL    HW220161   4.409   5.629   9.473  0.4482  0.2593 -0.5034
38857SOL     OW20162   3.592   4.056   4.597 -0.4970  0.1462 -0.5989
38857SOL    HW120163   3.580   4.013   4.512  0.6651 -0.2765 -0.5727
38857SOL    HW220164   3.686   4.072   4.603 -0.5171 -0.0664  0.7180
38858SOL     OW20165   5.936   7.017   9.480  0.3480 -0.2365 -0.1156
38858SOL    HW120166   5.997   6.949   9.508 -0.3028 -1.9055 -2.4248
38858SOL    HW220167   5.991   7.081   9.434  0.4533 -2.1046 -2.8548
38859SOL     OW20168  10.486   3.869  10.311 -0.6880 -0.1053  0.1234
38859SOL    HW120169  10.579   3.851  10.325 -0.8732 -0.1108  1.4539
38859SOL    HW220170  10.479   3.887  10.217  0.4980 -1.0174 -0.1700
38860SOL     OW20171   8.185   3.461   8.441  0.0810  0.3591  0.0412
38860SOL    HW120172   8.276   3.451   8.413  0.3277  0.5797  0.7692
38860SOL    HW220173   8.190   3.493   8.531 -0.7140 -0.1040  0.2611
38861SOL     OW20174   6.041   8.581   8.509 -0.0740 -0.2373 -0.1265
38861SOL    HW120175   5.988   8.653   8.542  1.4889  1.8596 -1.8499
38861SOL    HW220176   6.031   8.586   8.414  1.1990 -1.3808 -0.3471
38862SOL     OW20177  11.050   0.052  10.180  0.6904  1.1490 -0.0638
38862SOL    HW120178  11.007   0.091  10.104 -0.6725 -0.5781 -0.2568
38862SOL    HW220179  11.042  -0.043  10.166  4.0642  0.6950  0.2359
38863SOL     OW20180   3.370  10.813   7.683  0.1158 -0.6851  0.0068
38863SOL    HW120181   3.293  10.815   7.740  0.0206 -0.6709 -0.1222
38863SOL    HW220182   3.377  10.721   7.657  0.8195 -0.9101  0.9373
38864SOL     OW20183  11.055   1.589   6.305 -0.4920  0.1556 -0.2024
38864SOL    HW120184  11.118   1.654   6.336 -0.6015 -0.7435  2.0686
38864SOL    HW220185  11.090   1.560   6.220  0.7425  1.5303 -0.1960
38865SOL     OW20186   9.014   8.762   6.071 -0.1093 -0.1900 -0.3612
38865SOL    HW120187   8.969   8.837   6.111  0.1487  0.6264 -1.5433
38865SOL    HW220188   8.974   8.686   6.112 -0.7508  0.5840  0.5015
38866SOL     OW20189   1.449   8.671   9.703 -0.1410 -0.0874  0.4977
38866SOL    HW120190   1.374   8.679   9.763 -0.3030  0.8792  0.1757
38866SOL    HW220191   1.421   8.715   9.623  0.1668 -1.1640 -0.2224
38867SOL     OW20192   3.774  10.699   1.093 -0.1747  0.2455 -0.0844
38867SOL    HW120193   3.809  10.740   1.014 -0.6584 -0.4451 -0.6693
38867SOL    HW220194   3.782  10.767   1.160 -0.1777  1.0051 -0.8289
38868SOL     OW20195  10.313   1.658   8.311 -0.6424  0.1161  0.4709
38868SOL    HW120196  10.282   1.742   8.344 -0.7815  0.9335 -1.5858
38868SOL    HW220197  10.266   1.646   8.228  0.6046 -1.1899 -0.0884
38869SOL     OW20198   8.604   2.288   6.443  0.1261 -0.1050 -0.0490
38869SOL    HW120199   8.510   2.303   6.431 -0.0299 -0.5535  0.5343
38869SOL    HW220200   8.612   2.257   6.533  0.9613  0.9005  0.2467
38870SOL     OW20201   9.273   4.034  10.736  0.1262 -0.4674 -0.1627
38870SOL    HW120202   9.251   3.979  10.662 -1.2009 -2.1322  1.3670
38870SOL    HW220203   9.203   4.100  10.739 -1.2836 -1.9126  0.9747
38871SOL     OW20204   5.546   7.878   7.403  0.5892  0.4464  0.0125
38871SOL    HW120205   5.639   7.856   7.397 -0.2017 -3.0680 -1.5935
38871SOL    HW220206   5.510   7.816   7.467 -0.6536  2.0947  1.0202
38872SOL     OW20207   1.792   6.240   7.775 -0.6169  0.2420 -0.3176
38872SOL    HW120208   1.705   6.277   7.758 -0.5621  0.0456 -1.0855
38872SOL    HW220209   1.851   6.316   7.774 -0.6583  0.2727 -0.7543
38873SOL     OW20210   9.683   7.817   7.932  0.1973  0.1457  0.3109
38873SOL    HW120211   9.669   7.902   7.975 -1.5182  0.5662 -0.9796
38873SOL    HW220212   9.658   7.752   7.997 -0.7521  0.7202  0.5364
38874SOL     OW20213  10.313   2.411   3.702 -0.7623  0.1201 -0.5183
38874SOL    HW120214  10.340   2.319   3.701  1.6252  0.6912  1.1362
38874SOL    HW220215  10.387   2.457   3.661 -1.0425  1.4454  0.4095
38875SOL     OW20216   2.890   0.314   0.523 -0.2663  0.8527  0.3657
38875SOL    HW120217   2.908   0.374   0.595 -1.2899  0.7165  0.7440
38875SOL    HW220218   2.890   0.369   0.444  0.7238  1.0229  0.4703
38876SOL     OW20219   0.846   6.614   3.843  0.6645  0.3302  0.0667
38876SOL    HW120220   0.778   6.630   3.909  0.5582 -2.0260  0.6165
38876SOL    HW220221   0.797   6.603   3.761  0.4487 -0.2846  0.2682
38877SOL     OW20222   6.102  11.041   5.725 -0.2642  0.1208 -0.1996
38877SOL    HW120223   6.094  11.022   5.819 -0.6447 -0.7590 -0.3972
38877SOL    HW220224   6.124  11.134   5.721  0.9633 -0.0992  0.8048
38878SOL     OW20225   1.180   1.766   1.488  0.5475  0.4545  0.2210
38878SOL    HW120226   1.091   1.773   1.453  0.5006 -1.0656 -0.0394
38878SOL    HW220227   1.175   1.805   1.575 -1.4965 -3.2028  1.9939
38879SOL     OW20228  10.061   9.523   7.284 -0.5787 -0.4419  0.1820
38879SOL    HW120229  10.039   9.544   7.374  0.1264 -0.2646  0.3195
38879SOL    HW220230  10.156   9.532   7.279 -0.7882  1.7848 -1.1334
38880SOL     OW20231   4.193  11.077   4.617 -0.5620  0.0045 -0.3350
38880SOL    HW120232   4.193  10.982   4.605 -0.5714 -0.1103  0.5139
38880SOL    HW220233   4.271  11.106   4.571 -0.8512 -0.3513 -1.0609
38881SOL     OW20234   8.079   6.816   2.587  0.1005  0.4688  0.2219
38881SOL    HW120235   8.057   6.876   2.516 -0.4617  0.2443  0.1940
38881SOL    HW220236   8.146   6.758   2.551 -0.8104 -0.2061 -0.4328
38882SOL     OW20237  10.782   6.057   4.579  0.0913  0.3491 -0.0637
38882SOL    HW120238  10.845   6.089   4.643 -1.9380 -1.5759  3.2164
38882SOL    HW220239  10.720   6.129   4.568 -0.1550  0.3374  1.1058
38883SOL     OW20240   0.331   6.007   5.136 -0.0986  0.3537 -0.1173
38883SOL    HW120241   0.364   6.087   5.176  0.5142  0.1319 -0.1707
38883SOL    HW220242   0.239   6.004   5.161  0.4371 -0.2092  2.0024
38884SOL     OW20243   0.771   5.245   5.275  0.3807  0.1584 -0.3441
38884SOL    HW120244   0.725   5.321   5.311  1.0862 -0.4451  2.0207
38884SOL    HW220245   0.864   5.268   5.279  0.5071 -0.0675 -1.5479
38885SOL     OW20246   6.152   4.695   8.071  0.1013 -0.2701  0.3314
38885SOL    HW120247   6.057   4.698   8.062  0.1123 -0.7922 -0.0171
38885SOL    HW220248   6.184   4.735   7.990  0.1915  3.1454  1.9005
38886SOL     OW20249   2.420   5.802   3.339  0.7002 -0.0387  0.1081
38886SOL    HW120250   2.512   5.793   3.315  0.3406 -1.8579 -0.7284
38886SOL    HW220251   2.408   5.742   3.413  0.1842  0.1191  0.1606
38887SOL     OW20252   4.791   6.441   2.808 -0.1527  0.0125  0.1990
38887SOL    HW120253   4.822   6.374   2.869  1.6394  0.1825 -0.4630
38887SOL    HW220254   4.780   6.395   2.725  0.8235  0.4567 -0.1901
38888SOL     OW20255   6.693   0.296   3.888 -0.6610 -0.0400 -0.0485
38888SOL    HW120256   6.708   0.216   3.939 -1.9420  0.4692  1.1839
38888SOL    HW220257   6.719   0.367   3.946 -2.4417  0.5704  0.0484
38889SOL     OW20258   0.407   0.889   1.797  0.2922  0.4089  0.1741
38889SOL    HW120259   0.354   0.820   1.757 -1.7830  1.5088  0.8658
38889SOL    HW220260   0.422   0.858   1.886  1.1862 -0.0834 -0.1393
38890SOL     OW20261   5.823   0.091   9.866 -0.2702 -0.5329  0.1760
38890SOL    HW120262   5.750   0.070   9.808 -0.5672  1.8372 -0.4105
38890SOL    HW220263   5.873   0.158   9.818 -0.9319  2.0814  2.8839
38891SOL     OW20264   1.506   1.142   1.612  0.5974 -0.5053  0.0947
38891SOL    HW120265   1.421   1.172   1.581  0.3140 -1.2948  0.0925
38891SOL    HW220266   1.504   1.047   1.599  2.1307 -0.3613 -1.5291
38892SOL     OW20267   8.426   4.389   5.276  0.4979 -0.0598 -0.1588
38892SOL    HW120268   8.334   4.368   5.263  0.6036  0.2037 -1.4967
38892SOL    HW220269   8.465   4.306   5.305  0.0140 -0.4462 -0.5802
38893SOL     OW20270   6.250   6.568   4.354 -0.0640 -0.6296 -0.4568
38893SOL    HW120271   6.342   6.555   4.332  0.3939  1.1950  0.1788
38893SOL    HW220272   6.212   6.481   4.353  1.4370 -1.3095 -1.7514
38894SOL     OW20273   9.009  10.322   6.421  0.3490 -0.0301  0.3239
38894SOL    HW120274   9.097  10.340   6.388  0.2656 -0.6863 -0.2742
38894SOL    HW220275   8.993  10.230   6.398 -0.5452  0.1202  0.3090
38895SOL     OW20276   4.989   2.296   1.240  0.4280  0.5107  0.1481
38895SOL    HW120277   4.967   2.338   1.157  0.3435  1.0825  0.4585
38895SOL    HW220278   5.078   2.262   1.227  0.9147  1.7012  0.2445
38896SOL     OW20279   2.040   5.740  10.545  0.1179 -0.0748  0.2750
38896SOL    HW120280   1.976   5.791  10.594  1.2979  0.7790  0.9754
38896SOL    HW220281   2.054   5.661  10.598 -0.5920 -0.4231 -0.0512
38897SOL     OW20282   4.950   9.228  10.065  0.7214 -0.0010  0.1017
38897SOL    HW120283   4.882   9.161  10.054 -0.6985  1.6050 -1.4096
38897SOL    HW220284   5.031   9.178  10.076 -0.2997 -1.9731 -0.7846
38898SOL     OW20285   9.579   1.197   7.677 -0.4172  0.0364 -0.0022
38898SOL    HW120286   9.503   1.196   7.620  0.2712 -0.4985 -0.9288
38898SOL    HW220287   9.544   1.174   7.763 -0.9025 -3.4042 -0.9845
38899SOL     OW20288   7.846   0.188   2.041 -0.3106 -0.1741  0.2010
38899SOL    HW120289   7.798   0.105   2.045 -2.2862  0.8792 -0.1189
38899SOL    HW220290   7.926   0.172   2.092 -0.0216 -2.6186 -0.8698
38900SOL     OW20291   8.467   8.254   7.032 -0.2567 -0.8185  0.5952
38900SOL    HW120292   8.436   8.218   7.115  0.7287  1.3814  2.0149
38900SOL    HW220293   8.562   8.259   7.041 -0.0911 -0.9042 -0.8353
38901SOL     OW20294   5.369   1.609   9.518  0.5291  0.0130 -0.4167
38901SOL    HW120295   5.390   1.694   9.554  1.5803  0.3047 -1.6502
38901SOL    HW220296   5.430   1.597   9.445  1.0105 -2.1729  0.2562
38902SOL     OW20297   3.230   3.146   2.866  0.0870 -0.4454  0.3713
38902SOL    HW120298   3.232   3.050   2.864  0.3172 -0.4248 -0.5014
38902SOL    HW220299   3.260   3.173   2.779 -1.7963  0.3888 -0.0683
38903SOL     OW20300   9.981   6.852   9.002  0.2571  0.0589 -0.0051
38903SOL    HW120301  10.010   6.804   9.080 -0.0152  0.3611  0.2878
38903SOL    HW220302   9.921   6.792   8.957  1.7519 -0.8004 -0.9279
38904SOL     OW20303   4.815  10.501   4.684  0.1296  0.2804 -0.2419
38904SOL    HW120304   4.804  10.527   4.775 -0.0879  1.1996 -0.5209
38904SOL    HW220305   4.898  10.541   4.657  0.9401 -1.1920 -0.0440
38905SOL     OW20306   7.530   9.294   3.037  0.0296  0.6126  0.2208
38905SOL    HW120307   7.616   9.314   3.076  0.3655 -0.3001 -0.0311
38905SOL    HW220308   7.549   9.275   2.945  0.0260 -2.5267  0.7642
38906SOL     OW20309   8.379   8.819   4.541  0.3999 -0.3363  0.0958
38906SOL    HW120310   8.317   8.782   4.477  0.7399  0.1248 -0.5060
38906SOL    HW220311   8.465   8.789   4.512  0.3955 -2.1395  1.7123
38907SOL     OW20312   3.108   6.417   2.099  0.0075 -0.1767 -0.6117
38907SOL    HW120313   3.166   6.426   2.024 -1.7787 -0.8131 -2.1629
38907SOL    HW220314   3.021   6.403   2.060 -0.8243 -1.5808  1.5574
38908SOL     OW20315   7.014  10.302   0.190 -0.8250 -0.2286  0.2983
38908SOL    HW120316   7.003  10.318   0.284 -1.7973 -1.1580  0.3546
38908SOL    HW220317   6.930  10.268   0.161 -1.3044  2.1031 -1.3884
38909SOL     OW20318   8.071   7.917   6.681  0.0268  0.1407 -0.9322
38909SOL    HW120319   8.061   7.949   6.591 -0.4527 -2.3978 -1.8505
38909SOL    HW220320   7.982   7.893   6.707  0.2263  0.4873  0.1119
38910SOL     OW20321   5.807   7.184   0.541  1.2843  1.1264 -0.2545
38910SOL    HW120322   5.786   7.230   0.622 -0.5850 -1.7474  1.0339
38910SOL    HW220323   5.882   7.129   0.563  0.9071  0.4960 -0.5416
38911SOL     OW20324   7.813   0.378   5.825 -0.5009  0.4611  0.0882
38911SOL    HW120325   7.836   0.394   5.917 -0.5565 -0.7985  0.3379
38911SOL    HW220326   7.725   0.340   5.829  0.0201 -0.8334 -0.3803
38912SOL     OW20327   7.496   5.369  10.901  0.0858  0.5342  0.2220
38912SOL    HW120328   7.578   5.322  10.914 -1.1769 -1.7774  0.3501
38912SOL    HW220329   7.518   5.461  10.918  2.5524 -0.0471  0.5385
38913SOL     OW20330   5.618   7.313   1.804  0.4207  0.3067  0.0455
38913SOL    HW120331   5.585   7.243   1.746  0.4612  0.2909  0.0413
38913SOL    HW220332   5.712   7.313   1.790  0.4615  0.1282  0.3039
38914SOL     OW20333   2.505   9.957   9.427 -0.0352 -0.2612  0.4458
38914SOL    HW120334   2.532  10.043   9.394 -0.7416 -0.7737 -1.6188
38914SOL    HW220335   2.462   9.975   9.510 -0.3115  1.4020 -0.0268
38915SOL     OW20336   4.479   9.950   5.540 -0.3010  0.3414  0.3363
38915SOL    HW120337   4.516   9.942   5.627  1.2005 -2.7183 -0.4434
38915SOL    HW220338   4.540   9.903   5.483 -3.0636 -1.0795 -1.7457
38916SOL     OW20339   6.050   8.778  10.632 -0.2067  0.5161 -0.4644
38916SOL    HW120340   6.002   8.733  10.562  0.3194 -0.1917 -0.3787
38916SOL    HW220341   6.131   8.809  10.589  0.8418 -1.2398  0.1435
38917SOL     OW20342   4.253   8.096  10.462 -0.6481 -0.3139 -0.2279
38917SOL    HW120343   4.274   8.163  10.397  0.8468  0.8597  1.3891
38917SOL    HW220344   4.307   8.021  10.437 -0.1853  0.0807 -0.4273
38918SOL     OW20345   1.682   4.296   9.854 -0.0020  0.5358 -0.9611
38918SOL    HW120346   1.750   4.310   9.788  0.2694  1.0088 -0.5892
38918SOL    HW220347   1.730   4.272   9.934 -0.1444  2.3130 -0.2977
38919SOL     OW20348   5.241   1.775   8.600  0.3833 -0.0615 -0.2586
38919SOL    HW120349   5.163   1.822   8.570 -0.9299  0.1480  3.0517
38919SOL    HW220350   5.288   1.840   8.653  1.2332 -1.0345  0.2026
38920SOL     OW20351  10.245   2.242   2.921  0.0083  0.0272 -0.1391
38920SOL    HW120352  10.208   2.158   2.948 -0.2173  0.6147  1.4591
38920SOL    HW220353  10.210   2.306   2.983  1.2660  1.0881 -0.4647
38921SOL     OW20354   6.463  10.147   7.886  0.2216 -0.5937 -0.3545
38921SOL    HW120355   6.540  10.101   7.920  0.8749  0.3051 -0.5745
38921SOL    HW220356   6.470  10.236   7.921  0.3570  0.0709 -1.9408
38922SOL     OW20357   7.002   5.235   0.120  0.1107 -0.3518  0.5236
38922SOL    HW120358   6.996   5.151   0.075 -3.2246  1.5484 -3.2329
38922SOL    HW220359   6.941   5.228   0.193 -1.6363 -0.6691 -0.9099
38923SOL     OW20360  11.007   2.815   6.089  0.4005  0.1802  0.5850
38923SOL    HW120361  11.042   2.768   6.165  0.7384 -0.3840  0.0908
38923SOL    HW220362  10.927   2.766   6.067  0.2648  0.3861  0.6151
38924SOL     OW20363   1.809   7.926   0.337 -0.0638 -0.2470 -0.6090
38924SOL    HW120364   1.793   7.847   0.285 -0.5675 -0.9207  0.5192
38924SOL    HW220365   1.728   7.938   0.387 -0.0679  1.1105 -0.9045
38925SOL     OW20366   9.859   9.519   6.479 -0.0834 -0.2038 -0.1986
38925SOL    HW120367   9.914   9.449   6.515  0.5448  1.3848  2.1756
38925SOL    HW220368   9.885   9.597   6.528 -2.7222  1.1212 -0.7562
38926SOL     OW20369   4.172   6.387   3.806  0.2680  0.8236  0.1343
38926SOL    HW120370   4.236   6.354   3.868 -0.2623  0.4822  0.5030
38926SOL    HW220371   4.185   6.334   3.727 -0.3621 -0.0627  0.6127
38927SOL     OW20372   5.193   2.512   6.275  0.0216  0.2864 -0.4540
38927SOL    HW120373   5.156   2.429   6.306 -0.7439  0.5110 -0.7341
38927SOL    HW220374   5.258   2.487   6.210  1.1689 -0.1622  0.8295
38928SOL     OW20375   5.109   1.940   5.785  0.1881  0.0083  0.7004
38928SOL    HW120376   5.126   2.019   5.733 -0.8879 -0.7368 -0.8464
38928SOL    HW220377   5.106   1.971   5.875 -0.4499  1.7776  0.1051
38929SOL     OW20378   5.340   0.156   8.568 -0.2780 -0.2524  0.6352
38929SOL    HW120379   5.313   0.236   8.523 -1.4274 -1.1651 -0.3574
38929SOL    HW220380   5.427   0.137   8.533 -0.4550 -0.0200  0.0605
38930SOL     OW20381   7.478  11.106   9.740  0.4525  0.0688 -0.1233
38930SOL    HW120382   7.513  11.131   9.826  0.2688  0.9581 -0.2956
38930SOL    HW220383   7.385  11.124   9.746  0.5334  0.7077 -0.6998
38931SOL     OW20384   6.497   2.989   6.194  0.0864  0.5080  0.7236
38931SOL    HW120385   6.545   2.940   6.260 -0.0829 -2.5592 -1.2150
38931SOL    HW220386   6.565   3.021   6.134  0.1144  1.7810  1.4106
38932SOL     OW20387  10.946   1.847   3.423 -0.4723  0.1971  0.0117
38932SOL    HW120388  10.988   1.896   3.493 -2.7856 -0.5758  2.1113
38932SOL    HW220389  10.913   1.767   3.465  0.7677 -1.9000 -2.6814
38933SOL     OW20390   0.698   3.813   6.487 -0.3885  0.1227  0.2212
38933SOL    HW120391   0.626   3.767   6.532  0.6370 -1.0110  0.7506
38933SOL    HW220392   0.727   3.751   6.420 -0.0411  0.6577 -0.1231
38934SOL     OW20393   7.535   2.274  10.205  0.0490 -0.5051 -0.2310
38934SOL    HW120394   7.541   2.190  10.252 -0.4130  0.0913  0.9483
38934SOL    HW220395   7.594   2.264  10.131  1.5917 -1.1614  1.0119
38935SOL     OW20396   8.404   6.927   9.210 -0.2434  0.4156  0.5380
38935SOL    HW120397   8.355   7.002   9.177 -1.6245 -0.3373  0.7837
38935SOL    HW220398   8.346   6.886   9.274  0.6949 -0.5569  0.8132
38936SOL     OW20399   1.500   6.600   3.277  0.2909 -0.5050 -0.1767
38936SOL    HW120400   1.452   6.677   3.247  2.0985  1.1685  0.9592
38936SOL    HW220401   1.434   6.544   3.318 -1.0197  0.5415 -0.7931
38937SOL     OW20402   6.233   0.195   0.861  0.0665 -0.2755  0.2628
38937SOL    HW120403   6.153   0.235   0.826 -0.1835 -1.1926 -0.2566
38937SOL    HW220404   6.202   0.118   0.908  0.6947 -1.0118 -0.5161
38938SOL     OW20405   3.026   7.347   4.821  0.2054 -0.3169 -0.1656
38938SOL    HW120406   3.086   7.276   4.798 -0.2000 -0.5548 -0.5044
38938SOL    HW220407   3.005   7.388   4.738  0.0417 -0.1175 -0.0265
38939SOL     OW20408   2.584   2.653   4.891  0.0182  0.7481  0.5502
38939SOL    HW120409   2.530   2.732   4.889 -0.8076  0.2069  0.9576
38939SOL    HW220410   2.673   2.685   4.875 -0.5918  1.4944 -1.8408
38940SOL     OW20411   2.196   1.984   2.958 -0.1358  0.1293 -0.3545
38940SOL    HW120412   2.198   1.901   3.007 -0.2632  0.9736  1.1250
38940SOL    HW220413   2.107   1.989   2.923 -0.4843  0.1807  0.5204
38941SOL     OW20414  10.947   1.423   9.405  0.2121  0.0054 -0.5330
38941SOL    HW120415  10.856   1.449   9.411  0.4526  0.9732 -0.9358
38941SOL    HW220416  10.946   1.344   9.351 -0.4142 -0.2143 -0.2069
38942SOL     OW20417   2.591   0.460   6.543 -0.2870  0.0212  0.1586
38942SOL    HW120418   2.519   0.403   6.514 -0.7018 -0.3470  1.8227
38942SOL    HW220419   2.546   0.535   6.582  0.2625  0.9781 -0.9921
38943SOL     OW20420   4.043  11.040   6.719 -0.1347 -0.2809  0.5083
38943SOL    HW120421   4.043  10.947   6.742  0.1532 -0.5245 -0.4039
38943SOL    HW220422   3.958  11.054   6.676 -0.1836 -0.1183  0.6574
38944SOL     OW20423   1.380   8.885   1.688  0.5805  0.1752 -0.3600
38944SOL    HW120424   1.437   8.811   1.708  2.1107  0.9414 -1.6246
38944SOL    HW220425   1.386   8.942   1.764  2.3009  0.6795 -0.8283
38945SOL     OW20426   2.091   3.882   6.588  0.1811  0.0396  0.3694
38945SOL    HW120427   2.158   3.894   6.520  1.0173 -1.3945  0.9004
38945SOL    HW220428   2.127   3.925   6.665  0.0053  0.1822  0.3722
38946SOL     OW20429   3.737   6.370   3.494 -0.0673  0.2825 -0.3961
38946SOL    HW120430   3.818   6.329   3.525 -1.3702  0.3919  3.6761
38946SOL    HW220431   3.742   6.460   3.527 -3.2772 -0.6803  3.3227
38947SOL     OW20432   6.056   4.065   4.670 -0.3639 -0.1852 -0.3281
38947SOL    HW120433   6.110   3.986   4.671 -1.1034 -0.7463  2.1326
38947SOL    HW220434   6.086   4.115   4.746 -1.3449  0.8949 -0.6316
38948SOL     OW20435   9.706   8.284   1.676 -0.6361 -0.0294  0.4719
38948SOL    HW120436   9.662   8.265   1.759  0.3467  0.6248  1.1534
38948SOL    HW220437   9.783   8.336   1.700  0.6637 -1.3326 -0.6635
38949SOL     OW20438   9.207   5.238   2.123  0.8328 -0.0731  0.0744
38949SOL    HW120439   9.258   5.250   2.204  1.4062  0.9975 -0.4263
38949SOL    HW220440   9.201   5.326   2.086 -1.5784 -0.1187  0.2072
38950SOL     OW20441   4.867   8.476   5.738  0.3663  0.8176  0.1866
38950SOL    HW120442   4.890   8.533   5.664 -0.0940  0.6002 -0.1239
38950SOL    HW220443   4.812   8.408   5.700  0.0948  0.7243  0.7399
38951SOL     OW20444   1.562   1.708   7.823  0.0182 -0.5217 -0.3929
38951SOL    HW120445   1.518   1.731   7.904  0.9792  1.1395 -0.2935
38951SOL    HW220446   1.655   1.704   7.847  0.6644  2.7386 -1.8756
38952SOL     OW20447   4.704   6.615   6.934 -0.1205  0.1486  0.0787
38952SOL    HW120448   4.658   6.534   6.914 -0.5400  0.0941  1.2248
38952SOL    HW220449   4.694   6.669   6.855 -2.3319  0.2313  0.3635
38953SOL     OW20450   5.215   5.564   8.028 -0.1543  0.3845  0.5249
38953SOL    HW120451   5.174   5.500   7.970  2.0613  0.6634 -1.4882
38953SOL    HW220452   5.262   5.511   8.092  2.0787 -0.1548 -1.4273
38954SOL     OW20453   2.319   8.616   9.460  0.2953  0.0354 -0.4959
38954SOL    HW120454   2.396   8.610   9.517 -0.2444 -0.6562  0.1842
38954SOL    HW220455   2.260   8.676   9.505  0.3844  0.4882 -0.9691
38955SOL     OW20456   9.582   4.876   1.560  0.1587 -0.5936  0.1160
38955SOL    HW120457   9.583   4.916   1.647  0.3065 -1.4843  0.5393
38955SOL    HW220458   9.536   4.793   1.573 -1.9599  0.2962 -1.1573
38956SOL     OW20459   6.082   7.398   8.922  0.1314 -0.4083  0.2686
38956SOL    HW120460   6.039   7.331   8.869 -0.1902 -1.9766  2.3516
38956SOL    HW220461   6.174   7.371   8.926  0.1353 -0.3534  0.5736
38957SOL     OW20462   0.620   3.435   7.535 -0.0811 -0.4272  0.2415
38957SOL    HW120463   0.669   3.359   7.502  2.8289  0.8718  1.2677
38957SOL    HW220464   0.608   3.417   7.628 -1.7574 -0.7437  0.0095
38958SOL     OW20465  10.285   0.495  10.071 -0.1117  0.4074 -0.2900
38958SOL    HW120466  10.199   0.473  10.105  0.9410 -0.3355  2.1218
38958SOL    HW220467  10.341   0.503  10.149  2.7473 -2.3727 -1.8031
38959SOL     OW20468   0.391   7.533   9.908 -0.2504 -0.4172  0.1293
38959SOL    HW120469   0.433   7.594   9.847  0.6768 -1.2339 -0.0789
38959SOL    HW220470   0.435   7.550   9.992 -0.5183 -0.2813  0.2428
38960SOL     OW20471   5.579  10.960   7.368  0.0518  0.1422  0.8074
38960SOL    HW120472   5.665  10.992   7.343 -0.1739 -0.0405 -0.2316
38960SOL    HW220473   5.592  10.866   7.381 -0.0324  0.0809  0.4522
38961SOL     OW20474   1.451   3.314   1.215 -0.0304  0.1178  0.4663
38961SOL    HW120475   1.468   3.221   1.225  1.6917  0.0062 -2.4070
38961SOL    HW220476   1.535   3.357   1.235 -0.0938  0.7974 -0.6142
38962SOL     OW20477   8.686   7.127   6.367 -0.3399  0.1233  1.0342
38962SOL    HW120478   8.593   7.103   6.361 -0.7479  1.1738  2.4591
38962SOL    HW220479   8.731   7.066   6.309 -1.8969 -0.5611  0.4963
38963SOL     OW20480   6.827   3.832   1.055  0.3507  0.2997 -0.1231
38963SOL    HW120481   6.857   3.918   1.085 -0.2765  0.2117  0.7752
38963SOL    HW220482   6.883   3.770   1.101  0.5282  0.2084 -0.4580
38964SOL     OW20483   5.402   2.172   2.854  0.1531  0.2686  0.3793
38964SOL    HW120484   5.401   2.125   2.770 -1.9775  1.1647 -0.1524
38964SOL    HW220485   5.488   2.213   2.857  1.2931 -1.8941 -0.1089
38965SOL     OW20486   1.980   0.420   3.861 -0.1146 -0.4607  0.5520
38965SOL    HW120487   2.034   0.378   3.795  0.2200  0.5829  0.1512
38965SOL    HW220488   2.040   0.439   3.933  0.1005  0.8015  0.0605
38966SOL     OW20489   5.151   1.418   9.808 -0.0314  0.3231 -0.2857
38966SOL    HW120490   5.236   1.374   9.807 -0.1809  0.0332 -0.6564
38966SOL    HW220491   5.139   1.447   9.718 -1.2174 -1.4109 -0.7446
38967SOL     OW20492   3.161   0.503   9.104  0.0065  0.3242  0.4044
38967SOL    HW120493   3.130   0.413   9.116 -1.7110  0.4741 -2.1381
38967SOL    HW220494   3.094   0.557   9.147 -0.5793  0.4620 -0.6512
38968SOL     OW20495   3.727   1.114   7.983 -0.3508 -0.2413 -0.0633
38968SOL    HW120496   3.764   1.186   7.933  0.5642 -0.5730  0.1250
38968SOL    HW220497   3.725   1.041   7.922  0.2397 -0.4920  0.2076
38969SOL     OW20498   7.930   8.010   5.826 -0.0651 -1.0928 -0.2362
38969SOL    HW120499   7.919   8.099   5.862 -1.3940 -1.4459  0.2825
38969SOL    HW220500   7.993   8.021   5.755  1.9889 -0.2154  1.5998
38970SOL     OW20501  10.174  10.081   4.612  0.4145  0.8499  0.4126
38970SOL    HW120502  10.224  10.147   4.564 -0.1167  1.0195  0.0865
38970SOL    HW220503  10.124  10.035   4.546 -0.0392  0.8384  0.7566
38971SOL     OW20504   7.796   3.755   6.704 -0.4235 -0.3931  0.3122
38971SOL    HW120505   7.805   3.768   6.798 -1.0990  1.6850  0.1364
38971SOL    HW220506   7.884   3.765   6.670 -0.3754  0.1248  0.5895
38972SOL     OW20507  10.737  10.161   8.909  0.1415 -0.1533 -0.4598
38972SOL    HW120508  10.709  10.098   8.843 -0.4573  1.2473 -1.5903
38972SOL    HW220509  10.824  10.189   8.881  0.4000 -0.4543  0.0294
38973SOL     OW20510   5.661   1.213   8.313 -0.1290 -0.3640 -0.0894
38973SOL    HW120511   5.608   1.180   8.240  0.4234 -0.7709 -0.3080
38973SOL    HW220512   5.745   1.237   8.273  0.6463 -1.7815  0.6101
38974SOL     OW20513   9.717   7.937   6.177 -0.3712 -0.2783 -0.0633
38974SOL    HW120514   9.809   7.910   6.185  0.2306  2.0333  1.7158
38974SOL    HW220515   9.715   7.990   6.098 -0.2829 -0.6855 -0.3434
38975SOL     OW20516   9.664   0.632   0.368  0.1744  0.7693  0.5266
38975SOL    HW120517   9.656   0.538   0.351  0.5784  0.8017  0.1242
38975SOL    HW220518   9.574   0.662   0.380  0.1055  0.1301  1.7824
38976SOL     OW20519   4.473   3.728   1.465  0.5551  0.3934 -0.2804
38976SOL    HW120520   4.520   3.735   1.382  0.0606  0.9300 -0.5257
38976SOL    HW220521   4.525   3.782   1.526  0.4337  0.7339 -0.4728
38977SOL     OW20522   5.975   8.617   1.683 -0.0158 -0.2569 -0.1026
38977SOL    HW120523   5.981   8.651   1.773  0.0163 -0.8739  0.1329
38977SOL    HW220524   6.050   8.559   1.674  0.7654  0.8595 -1.0027
38978SOL     OW20525   0.036   0.250   0.705  0.0137  0.0490 -0.2621
38978SOL    HW120526  -0.057   0.250   0.680 -0.2948  1.8528  0.7239
38978SOL    HW220527   0.038   0.292   0.790  1.5395 -2.0044  0.8058
38979SOL     OW20528   9.085   6.367   5.174  0.2106  0.7891  0.3247
38979SOL    HW120529   9.118   6.307   5.241 -0.2700  0.8458  0.6137
38979SOL    HW220530   9.129   6.339   5.094  0.3782  0.3759  0.5575
38980SOL     OW20531   8.331   3.075   7.406  0.2559 -0.5025 -0.2387
38980SOL    HW120532   8.415   3.107   7.373  0.5076 -0.6152  0.2773
38980SOL    HW220533   8.270   3.148   7.394  1.1031  0.6675  2.0956
38981SOL     OW20534   0.002   9.381   3.654 -0.6498 -0.2514 -0.8653
38981SOL    HW120535   0.093   9.410   3.663 -1.0268  1.2295 -1.5544
38981SOL    HW220536  -0.039   9.407   3.737 -0.6836  0.0556 -0.9755
38982SOL     OW20537   5.602   3.779   1.375  0.0415 -0.6729 -0.1406
38982SOL    HW120538   5.672   3.792   1.311 -0.7158 -0.1509 -0.8946
38982SOL    HW220539   5.631   3.706   1.428 -0.2890 -2.6432 -2.4886
38983SOL     OW20540   8.099   0.057   0.011  0.2915  0.8645 -0.4493
38983SOL    HW120541   8.050  -0.024  -0.005  2.1734  0.1067 -2.9288
38983SOL    HW220542   8.171   0.031   0.068  1.2820  0.5987 -1.7886
38984SOL     OW20543   0.114   7.024   9.473 -0.3872  0.1860  0.0983
38984SOL    HW120544   0.199   7.043   9.432 -0.9048  0.7621 -0.7373
38984SOL    HW220545   0.050   7.063   9.414 -1.1289  1.8143  1.8743
38985SOL     OW20546  10.599   8.389   7.466  0.3173 -0.0697 -0.0131
38985SOL    HW120547  10.563   8.320   7.522  0.4334 -0.6653 -0.6607
38985SOL    HW220548  10.686   8.405   7.501  0.4198 -0.4974 -0.0683
38986SOL     OW20549   7.159   6.293   1.344 -0.2054 -0.0155  0.0767
38986SOL    HW120550   7.185   6.326   1.431 -0.8404  1.3962 -0.2389
38986SOL    HW220551   7.095   6.224   1.363  1.3493 -1.3291  0.7704
38987SOL     OW20552   9.188   4.867  10.935 -0.1024  0.1606  0.1508
38987SOL    HW120553   9.248   4.895  11.004  1.6481  0.5781 -1.4395
38987SOL    HW220554   9.123   4.937  10.929 -0.7237 -0.2398  1.8353
38988SOL     OW20555   2.473   0.951   8.680 -0.5749  0.0495 -0.6220
38988SOL    HW120556   2.465   0.958   8.775  0.3884  2.2459 -0.6498
38988SOL    HW220557   2.527   0.872   8.666 -1.8113 -1.0445  0.5401
38989SOL     OW20558   9.492   3.845   4.264 -0.0873 -0.7239 -0.0741
38989SOL    HW120559   9.493   3.939   4.281  0.9444 -0.2085 -2.6721
38989SOL    HW220560   9.407   3.816   4.299 -0.7902  1.3021  0.0434
38990SOL     OW20561   3.075   9.878   0.642 -0.3557 -0.1234  0.4703
38990SOL    HW120562   3.066   9.928   0.562 -1.9076 -0.7024  0.2513
38990SOL    HW220563   3.134   9.806   0.619  0.1158  0.3527  0.1766
38991SOL     OW20564   8.135   0.789   9.052  0.3346  0.0517 -0.1086
38991SOL    HW120565   8.057   0.749   9.090  0.4865 -1.9258 -1.7544
38991SOL    HW220566   8.192   0.807   9.127 -0.4272 -1.3215  0.8297
38992SOL     OW20567  11.012   8.259   5.409 -0.6835  0.4437 -0.3068
38992SOL    HW120568  10.998   8.351   5.384 -1.5122  0.5155  0.3672
38992SOL    HW220569  11.054   8.264   5.495 -1.8842  0.2200  0.3263
38993SOL     OW20570  10.973   0.866   3.450  0.0603  0.2466 -0.1559
38993SOL    HW120571  10.935   0.891   3.366  0.1316 -0.7194 -0.4867
38993SOL    HW220572  10.920   0.914   3.515 -3.0248 -2.3954 -0.4644
38994SOL     OW20573   2.689   0.479   1.034 -0.5506 -0.0018  0.1538
38994SOL    HW120574   2.706   0.411   0.968  0.9747 -1.5351  2.0052
38994SOL    HW220575   2.675   0.431   1.115 -1.5053  1.8647  1.1655
38995SOL     OW20576   7.510   7.095   3.793  0.3471 -0.1855 -0.6489
38995SOL    HW120577   7.555   7.018   3.758  0.2790 -0.0590 -1.0243
38995SOL    HW220578   7.477   7.141   3.715  1.1245  0.6766 -0.4815
38996SOL     OW20579   2.436   9.944   2.704 -0.2378  0.4677  0.3603
38996SOL    HW120580   2.463   9.952   2.795 -1.0962 -0.5020  0.7180
38996SOL    HW220581   2.405  10.031   2.680 -1.1041  0.4498  1.3721
38997SOL     OW20582  10.686   2.070   2.554 -0.4370 -0.2256  0.1142
38997SOL    HW120583  10.759   2.128   2.536 -0.0845 -0.3391  1.0803
38997SOL    HW220584  10.688   2.006   2.483  0.3156 -0.1437  0.0488
38998SOL     OW20585   1.661   7.234   4.271 -0.3522  0.3110 -0.4956
38998SOL    HW120586   1.666   7.139   4.282  0.0516  0.3943  0.1030
38998SOL    HW220587   1.689   7.269   4.356  1.8438  0.9963 -1.4244
38999SOL     OW20588   7.113   6.840   0.520  0.1168 -0.0244  0.2904
38999SOL    HW120589   7.067   6.847   0.437 -1.2315  0.3097  1.0485
38999SOL    HW220590   7.198   6.881   0.504 -0.7914  1.6278 -0.4446
39000SOL     OW20591   8.076   8.681   9.214  0.3986 -0.3064 -0.1032
39000SOL    HW120592   8.109   8.605   9.262 -0.0140 -1.3251 -1.3656
39000SOL    HW220593   8.124   8.679   9.131 -0.2755  0.2692 -0.5154
39001SOL     OW20594   7.435   0.230   9.276 -0.0263 -0.1088 -0.2106
39001SOL    HW120595   7.379   0.181   9.336  0.0027 -0.0473 -0.1343
39001SOL    HW220596   7.513   0.252   9.327 -0.5848  1.1096  0.1279
39002SOL     OW20597   6.874   2.271   7.608 -0.0434  0.2833  0.7973
39002SOL    HW120598   6.916   2.205   7.553 -0.5131  1.0490 -0.5192
39002SOL    HW220599   6.928   2.349   7.597 -1.7995  1.3303 -1.0347
39003SOL     OW20600   4.402   5.396   7.110  0.6368  0.0028 -0.0463
39003SOL    HW120601   4.395   5.301   7.099  2.1077 -0.0532 -0.6933
39003SOL    HW220602   4.330   5.418   7.170 -0.3407 -1.3635 -0.6620
39004SOL     OW20603   7.184  10.880   8.164 -0.0581  0.6433 -0.4137
39004SOL    HW120604   7.186  10.951   8.101  1.8710  0.5422 -0.5276
39004SOL    HW220605   7.276  10.862   8.184 -0.4199 -2.0557 -0.6795
39005SOL     OW20606   3.325   6.395   0.933  0.0861 -0.0906 -0.0786
39005SOL    HW120607   3.263   6.335   0.974 -0.4035 -0.6185 -1.5612
39005SOL    HW220608   3.292   6.482   0.955 -0.2476 -0.3544  0.5098
39006SOL     OW20609   4.639   2.475   6.857 -0.0872 -0.6482 -0.3066
39006SOL    HW120610   4.590   2.505   6.781  1.2957  0.1040 -0.9372
39006SOL    HW220611   4.681   2.394   6.828 -0.9173 -1.2850  0.2264
39007SOL     OW20612   0.778   9.645   4.818 -0.4453  0.0926  0.3905
39007SOL    HW120613   0.835   9.612   4.749 -0.6121 -0.0941  0.3397
39007SOL    HW220614   0.766   9.737   4.797 -0.9569 -0.0932 -0.1536
39008SOL     OW20615   8.975   1.378   4.923 -0.3899 -0.4628  0.0138
39008SOL    HW120616   9.003   1.307   4.865 -0.6240 -1.8415  1.5269
39008SOL    HW220617   8.881   1.386   4.907 -0.4174 -0.7007  0.0525
39009SOL     OW20618   1.756   7.662   2.677 -0.1709  0.0881  0.3678
39009SOL    HW120619   1.754   7.707   2.592 -1.4196 -0.7491 -0.0822
39009SOL    HW220620   1.843   7.680   2.712 -0.0279  1.3783 -0.5880
39010SOL     OW20621   6.473   5.950   4.051  0.1218 -0.2782  0.0833
39010SOL    HW120622   6.400   5.999   4.013  1.1710  1.7568  0.5049
39010SOL    HW220623   6.431   5.881   4.102 -1.5916  1.3860  1.0864
39011SOL     OW20624   4.935   3.498   5.930  0.4845  0.9742 -0.6107
39011SOL    HW120625   4.957   3.544   6.012  1.8553 -0.6087 -0.0469
39011SOL    HW220626   4.839   3.496   5.929  0.4300  1.9880  0.3923
39012SOL     OW20627   0.526   2.837   7.246 -0.5134 -0.2156  0.6149
39012SOL    HW120628   0.580   2.895   7.193  0.8198 -0.5774  1.5161
39012SOL    HW220629   0.523   2.755   7.197 -2.7338  0.6504 -0.8585
39013SOL     OW20630   7.904   0.303   4.439 -0.3643  0.3903  0.2329
39013SOL    HW120631   7.825   0.341   4.400 -1.2059 -0.3498  1.1372
39013SOL    HW220632   7.969   0.372   4.435 -1.0070  0.9615 -0.7026
39014SOL     OW20633   6.887   5.717   4.830  0.0219 -0.1815 -0.2885
39014SOL    HW120634   6.834   5.638   4.840  1.7463 -1.4989 -1.1218
39014SOL    HW220635   6.822   5.788   4.823 -1.5679 -0.9431  4.0029
39015SOL     OW20636   9.515   9.948   6.736  0.0854  0.4568  0.1649
39015SOL    HW120637   9.487   9.971   6.648  1.9791 -3.0062 -1.5425
39015SOL    HW220638   9.583  10.012   6.758  2.0572 -0.5408 -2.4807
39016SOL     OW20639   8.672   3.157   0.124 -0.4126  0.4043  0.5140
39016SOL    HW120640   8.763   3.183   0.142 -0.8931  1.6984  1.1909
39016SOL    HW220641   8.656   3.188   0.035  0.5101 -1.8883 -0.5061
39017SOL     OW20642   1.938   7.091   4.262  0.0981  0.1045 -0.0458
39017SOL    HW120643   1.903   7.177   4.284  0.8698  0.8888 -1.7230
39017SOL    HW220644   2.033   7.104   4.256  0.1084 -0.4804 -1.7323
39018SOL     OW20645   9.257   9.721   2.397 -0.5204 -0.0896  0.0037
39018SOL    HW120646   9.261   9.814   2.419  1.2417  0.2791 -1.5609
39018SOL    HW220647   9.217   9.719   2.310 -1.8371 -0.9385  0.6093
39019SOL     OW20648   8.577   2.061  10.252  0.5237  0.3992 -0.3948
39019SOL    HW120649   8.556   2.021  10.167  0.9032  0.0820 -0.3426
39019SOL    HW220650   8.535   2.003  10.316 -1.6531  1.8195 -0.4272
39020SOL     OW20651   0.440   6.784   8.643 -0.5723 -0.3949  0.5255
39020SOL    HW120652   0.527   6.820   8.627 -0.6317  0.1101  1.2776
39020SOL    HW220653   0.435   6.774   8.738 -1.0299 -1.2153  0.4230
39021SOL     OW20654   6.812   0.142  10.330  0.1642 -0.0843  0.0326
39021SOL    HW120655   6.895   0.125  10.285  0.5381  0.8345  0.3618
39021SOL    HW220656   6.745   0.108  10.271  0.8109 -1.9312  0.2799
39022SOL     OW20657   4.684   6.330   4.680  0.1016  0.4487  0.2461
39022SOL    HW120658   4.711   6.249   4.723  1.8391 -0.7892 -2.8492
39022SOL    HW220659   4.612   6.304   4.622 -0.1635  1.3943  0.1241
39023SOL     OW20660   6.741   5.038   9.979  0.7715 -0.2942  0.5217
39023SOL    HW120661   6.835   5.053   9.969  0.6158  0.0768 -0.4711
39023SOL    HW220662   6.728   4.947   9.950  0.9214 -0.5819  1.3399
39024SOL     OW20663   2.536   9.953   1.636 -0.0554  0.3602 -0.7885
39024SOL    HW120664   2.624   9.916   1.629 -0.6119 -1.3181  0.4123
39024SOL    HW220665   2.525   9.971   1.730 -1.3561 -0.4543 -0.7659
39025SOL     OW20666   1.074   9.247   6.468 -0.6052 -0.0287  0.0724
39025SOL    HW120667   1.162   9.244   6.506 -0.4513  0.8552 -0.1875
39025SOL    HW220668   1.080   9.312   6.398 -1.1735 -0.8049 -0.7224
39026SOL     OW20669   6.455   1.822   8.063 -0.1577  0.1976  0.3142
39026SOL    HW120670   6.365   1.819   8.096  0.1656 -0.9801  1.1704
39026SOL    HW220671   6.460   1.904   8.015 -1.9477 -0.1380 -0.5313
39027SOL     OW20672  10.190   1.795   9.998 -0.1062  0.0836  0.0832
39027SOL    HW120673  10.255   1.741   9.953 -0.7888 -0.1152 -0.6719
39027SOL    HW220674  10.133   1.827   9.929 -0.4110  0.8177  0.6636
39028SOL     OW20675   6.333  10.116   8.515  0.0171  0.3414  0.0715
39028SOL    HW120676   6.328  10.151   8.603  0.6607  1.0615 -0.1735
39028SOL    HW220677   6.386  10.178   8.466 -2.2919  1.2531 -1.4640
39029SOL     OW20678   8.471   5.781   8.408 -0.2681 -0.0438  0.4453
39029SOL    HW120679   8.437   5.711   8.353 -1.2913  0.9928 -0.2871
39029SOL    HW220680   8.398   5.843   8.416  0.1403  0.2663  2.2532
39030SOL     OW20681   7.549   3.421   5.404  0.1084 -0.7292  0.2854
39030SOL    HW120682   7.485   3.361   5.443  0.4109 -0.6764  0.8665
39030SOL    HW220683   7.557   3.492   5.467 -0.3777  0.0243 -0.4835
39031SOL     OW20684   3.766   0.772  10.443  0.3456  0.0307  0.0920
39031SOL    HW120685   3.839   0.831  10.458  1.1010 -0.6947 -0.6254
39031SOL    HW220686   3.806   0.685  10.438 -0.7211 -0.5452  0.9843
39032SOL     OW20687   2.824   6.432   4.430 -0.9521 -0.4329 -0.0949
39032SOL    HW120688   2.801   6.401   4.342  1.1052 -1.3546 -0.3485
39032SOL    HW220689   2.904   6.483   4.418 -0.4930 -0.7980  1.2855
39033SOL     OW20690   4.619   3.469   6.204  0.3965  0.2026 -0.1530
39033SOL    HW120691   4.645   3.485   6.113  0.0269  1.4485 -0.0465
39033SOL    HW220692   4.650   3.380   6.221  3.1971  0.9969 -0.5228
39034SOL     OW20693   8.172   8.076   4.540 -0.0543 -0.1131  1.0419
39034SOL    HW120694   8.172   8.068   4.444 -0.0808  1.0002  0.9342
39034SOL    HW220695   8.248   8.025   4.568 -0.1628 -0.6230  0.4483
39035SOL     OW20696   6.337   4.184   6.851 -0.5525  0.7832  0.4372
39035SOL    HW120697   6.314   4.257   6.909 -0.7363 -0.9107  2.6371
39035SOL    HW220698   6.400   4.133   6.902  0.0435 -0.2931 -1.2989
39036SOL     OW20699   1.533   2.426   7.121 -0.0413  0.0755  0.3726
39036SOL    HW120700   1.507   2.505   7.073  1.7185  0.4826 -0.0075
39036SOL    HW220701   1.452   2.377   7.133 -1.2719  2.1092  0.9633
39037SOL     OW20702   8.291   7.813   8.524 -0.0121 -0.0995 -0.1910
39037SOL    HW120703   8.339   7.839   8.603 -0.6382 -1.0278  0.5109
39037SOL    HW220704   8.357   7.818   8.454  0.0226  2.8568 -0.0555
39038SOL     OW20705   6.022  10.093   3.640 -0.2148 -0.1894 -0.4653
39038SOL    HW120706   6.076  10.041   3.580 -1.2724 -1.7685 -0.1097
39038SOL    HW220707   5.941  10.108   3.592 -0.6439 -0.5157  0.1464
39039SOL     OW20708   9.864   9.398   7.157 -0.0961 -0.1306 -0.0994
39039SOL    HW120709   9.926   9.436   7.219 -1.1920  0.1751  0.8379
39039SOL    HW220710   9.908   9.404   7.072  0.2283  2.2109  0.1863
39040SOL     OW20711   2.459   3.203   2.203  0.4205 -0.0931  0.0465
39040SOL    HW120712   2.532   3.223   2.144  0.7617  0.7746  0.7248
39040SOL    HW220713   2.384   3.189   2.145  0.9173 -0.0557 -0.6208
39041SOL     OW20714   5.995   5.019   7.202  0.4774 -0.5460  0.4064
39041SOL    HW120715   6.087   5.041   7.189  0.3595  1.5135  2.3908
39041SOL    HW220716   5.995   4.966   7.282 -0.0746 -0.4464  0.4720
39042SOL     OW20717   9.107   1.192   9.339 -0.4950  0.2909  0.2494
39042SOL    HW120718   9.174   1.125   9.353 -0.7813 -0.0637 -0.0671
39042SOL    HW220719   9.064   1.167   9.257 -3.1841 -1.3488  2.0094
39043SOL     OW20720   2.572  10.772   9.884  0.0586 -0.0327  0.2787
39043SOL    HW120721   2.598  10.778   9.976 -0.5897 -2.6448  0.7137
39043SOL    HW220722   2.552  10.862   9.859 -0.5882  0.6713  2.9487
39044SOL     OW20723   9.941   1.330   4.754  0.5723 -0.2123  0.0513
39044SOL    HW120724   9.896   1.331   4.670  0.6963 -1.5657 -0.0573
39044SOL    HW220725  10.033   1.318   4.731  0.7455  0.5177  0.3458
39045SOL     OW20726  10.320   4.879   6.048  0.4475 -0.5150  0.8959
39045SOL    HW120727  10.328   4.940   5.975 -0.7654 -0.7731  0.5207
39045SOL    HW220728  10.406   4.880   6.090  0.4826  1.3896  0.8605
39046SOL     OW20729   5.355   6.636   1.145  0.0961 -0.2897 -0.0683
39046SOL    HW120730   5.423   6.613   1.081 -0.0834 -0.8996 -0.0515
39046SOL    HW220731   5.394   6.705   1.198  0.1712  0.3870 -0.9698
39047SOL     OW20732   0.681   3.964   0.444 -0.0685 -0.2284 -0.0966
39047SOL    HW120733   0.601   3.991   0.398  0.5853 -0.5209 -1.4499
39047SOL    HW220734   0.752   3.999   0.390  0.7355 -1.0409  0.4199
39048SOL     OW20735   3.000   8.722  10.323  0.7114  0.3747 -0.2768
39048SOL    HW120736   3.068   8.750  10.262 -1.6944  3.3217 -1.9185
39048SOL    HW220737   3.023   8.765  10.406  2.4133 -1.2273  0.1371
39049SOL     OW20738   2.266   0.456   0.114  0.0913  0.6857  0.0947
39049SOL    HW120739   2.296   0.373   0.151 -0.6063  0.7688  0.8637
39049SOL    HW220740   2.308   0.460   0.027 -1.1385 -1.2169 -0.6397
39050SOL     OW20741   3.509   7.992   0.628 -0.7232  0.2318  0.4938
39050SOL    HW120742   3.418   7.977   0.601 -1.3960 -1.0261  3.1158
39050SOL    HW220743   3.504   8.003   0.723  1.9605 -0.8033  0.8403
39051SOL     OW20744  11.035  10.765   2.146  0.1497  0.1799 -0.0750
39051SOL    HW120745  11.130  10.768   2.140  0.1564  0.5408  0.2241
39051SOL    HW220746  11.005  10.781   2.057  0.3804 -0.8113 -0.3476
39052SOL     OW20747   2.098   7.916   3.518 -0.4030 -0.3361 -0.8233
39052SOL    HW120748   2.143   7.973   3.456  0.5882 -0.6312 -0.4027
39052SOL    HW220749   2.041   7.974   3.568  0.4878  0.2787 -0.4990
39053SOL     OW20750   7.054   0.093   1.862 -0.0597  0.1766 -0.3605
39053SOL    HW120751   7.112   0.111   1.789  0.2675 -1.8787 -0.6722
39053SOL    HW220752   7.023   0.179   1.891  0.9654  1.1130 -1.9458
39054SOL     OW20753   1.086   5.748   6.753 -0.4628 -0.5874 -0.8984
39054SOL    HW120754   1.095   5.842   6.737 -1.9621 -0.2959 -0.2316
39054SOL    HW220755   1.093   5.707   6.667 -0.9152  0.2453 -1.3389
39055SOL     OW20756   3.287   2.448   0.356  0.1046 -0.0514 -0.0927
39055SOL    HW120757   3.226   2.425   0.286  0.6474  0.2281 -0.6663
39055SOL    HW220758   3.344   2.515   0.318  0.6366 -0.1506  0.4993
39056SOL     OW20759   6.889   7.618   2.667 -0.0178 -0.1840  0.4486
39056SOL    HW120760   6.932   7.702   2.685  0.0948 -0.3380  0.9175
39056SOL    HW220761   6.935   7.584   2.590 -0.0936  0.2025  0.2299
39057SOL     OW20762   4.905   2.426   9.465  0.3388  0.3505 -0.0741
39057SOL    HW120763   4.954   2.345   9.457  0.8499  0.6801 -0.3081
39057SOL    HW220764   4.898   2.440   9.560  2.1776  1.1703 -0.0101
39058SOL     OW20765  10.011   8.439   8.485  0.7646  0.6646 -0.0943
39058SOL    HW120766  10.051   8.526   8.485 -0.1547  1.1259  1.1119
39058SOL    HW220767   9.917   8.457   8.499  0.3020 -0.4350 -1.6038
39059SOL     OW20768   9.086   2.835   4.693  0.0674 -0.1998  0.1519
39059SOL    HW120769   9.119   2.898   4.757 -0.8824  0.1601  0.2897
39059SOL    HW220770   9.120   2.751   4.722 -1.6726 -0.2997  2.0852
39060SOL     OW20771   4.750   7.238  10.729 -0.3713  0.3448 -0.3284
39060SOL    HW120772   4.676   7.197  10.773 -0.3745 -0.7539 -1.3071
39060SOL    HW220773   4.739   7.215  10.637  2.3928 -1.8547 -0.2493
39061SOL     OW20774   6.354   7.341   9.302 -0.1326 -0.0791  0.7407
39061SOL    HW120775   6.316   7.428   9.314  0.5188  0.2249  0.6407
39061SOL    HW220776   6.425   7.336   9.367 -0.1925 -0.5519  0.7767
39062SOL     OW20777  10.946   2.671   0.946 -0.6432  0.3617  0.4075
39062SOL    HW120778  10.944   2.723   1.026 -2.2036  0.9450  0.0205
39062SOL    HW220779  10.918   2.583   0.974 -0.8254  0.4696  0.5698
39063SOL     OW20780  10.972   1.309   9.983  0.3355  0.6133 -0.3159
39063SOL    HW120781  11.011   1.280   9.900  1.1683 -0.2057  0.3493
39063SOL    HW220782  10.993   1.240  10.045 -0.2690  1.2276  0.5987
39064SOL     OW20783   0.584   1.759   3.391  0.7559 -0.3636  0.2551
39064SOL    HW120784   0.599   1.837   3.444 -0.5690  0.1965 -0.1411
39064SOL    HW220785   0.493   1.734   3.411  0.9280 -1.3905 -0.1539
39065SOL     OW20786   6.658  10.693   9.819  0.3712 -0.3896  0.1111
39065SOL    HW120787   6.677  10.786   9.827  1.6010 -0.6382  0.3291
39065SOL    HW220788   6.646  10.663   9.909  3.7324 -1.1256  0.4668
39066SOL     OW20789  10.617   0.735   8.621 -0.2463  0.1304  0.2167
39066SOL    HW120790  10.674   0.769   8.690  0.8438 -0.7789 -0.1946
39066SOL    HW220791  10.531   0.773   8.639  0.4514  1.4211  0.9442
39067SOL     OW20792  10.312   5.675   8.480 -0.6369 -0.1611 -0.0833
39067SOL    HW120793  10.327   5.681   8.574  0.6800 -0.4345 -0.2480
39067SOL    HW220794  10.397   5.697   8.441 -0.8190 -1.2504 -1.1712
39068SOL     OW20795   1.252   5.704   9.269 -0.4359  0.2665  0.2766
39068SOL    HW120796   1.286   5.764   9.202 -0.4766  0.6755  0.6244
39068SOL    HW220797   1.214   5.760   9.336  0.6017 -0.0810  1.2022
39069SOL     OW20798   7.207   2.345   5.603  0.4665 -0.1058  0.2622
39069SOL    HW120799   7.120   2.315   5.575  0.7251  0.3367 -1.0747
39069SOL    HW220800   7.251   2.370   5.522  0.7871  2.4974  1.1466
39070SOL     OW20801   9.535   6.435   4.346  0.0941 -0.0577 -0.3705
39070SOL    HW120802   9.594   6.395   4.409 -0.1439 -0.1456 -0.2020
39070SOL    HW220803   9.571   6.523   4.331  0.3028 -0.1354 -0.3193
39071SOL     OW20804   7.891  10.601   4.552  0.1226 -0.0328  0.8252
39071SOL    HW120805   7.912  10.654   4.630  0.7762  1.1496 -0.1147
39071SOL    HW220806   7.941  10.642   4.481  0.1213 -1.5344 -0.0870
39072SOL     OW20807   3.482   4.589   2.733  0.5735 -0.1533 -0.3672
39072SOL    HW120808   3.541   4.632   2.795 -0.5124 -0.6778  1.1156
39072SOL    HW220809   3.539   4.535   2.678  1.5937  0.4002  0.1178
39073SOL     OW20810   3.204   2.710   6.155 -0.0226  0.2352 -0.2556
39073SOL    HW120811   3.270   2.677   6.216 -0.4790  1.5789  1.0317
39073SOL    HW220812   3.146   2.763   6.209 -0.5807  1.3146 -1.8350
39074SOL     OW20813   4.322   0.211   7.071  0.2055 -0.6288 -0.4704
39074SOL    HW120814   4.352   0.137   7.017 -0.4984 -0.1026 -1.6242
39074SOL    HW220815   4.247   0.176   7.119  0.2695 -0.8481 -0.5276
39075SOL     OW20816   7.231   9.502   7.931  0.5439  1.1738 -0.9547
39075SOL    HW120817   7.186   9.476   7.851  0.5764 -1.9225 -0.0686
39075SOL    HW220818   7.173   9.568   7.970 -1.7404 -0.4535 -1.3700
39076SOL     OW20819   5.469   0.106   0.311  0.3612 -0.1859 -0.3793
39076SOL    HW120820   5.438   0.107   0.401  1.0074  3.2230 -0.0570
39076SOL    HW220821   5.432   0.025   0.274  0.5622 -2.0009  3.0035
39077SOL     OW20822   9.881   1.983   6.864 -0.4370 -0.1138 -0.4151
39077SOL    HW120823   9.850   2.064   6.903  2.0585  0.3607  0.8061
39077SOL    HW220824   9.876   1.918   6.934  1.3385  0.0310 -0.0935
39078SOL     OW20825   6.499   1.798   6.720  0.4082  0.0507  0.1087
39078SOL    HW120826   6.567   1.743   6.757  0.9714  0.5898 -0.1032
39078SOL    HW220827   6.517   1.799   6.626  0.0159  0.0673  0.0334
39079SOL     OW20828   5.315   9.987   4.849 -0.3878  0.3166  0.4564
39079SOL    HW120829   5.343   9.907   4.893  2.2915  0.8765 -0.0991
39079SOL    HW220830   5.324  10.055   4.915 -1.1605  0.4131  0.4702
39080SOL     OW20831   7.791  10.542   7.539  0.1170 -0.4544  0.4470
39080SOL    HW120832   7.819  10.605   7.606  0.1300  0.0417 -0.0190
39080SOL    HW220833   7.769  10.596   7.463 -1.3486 -0.8928  0.5357
39081SOL     OW20834  10.467  10.984   8.628 -0.1735 -0.5286  0.0734
39081SOL    HW120835  10.463  11.042   8.705  0.8389 -1.5734  0.9543
39081SOL    HW220836  10.418  11.031   8.560  0.8434  1.4947  0.6458
39082SOL     OW20837   5.770   3.762   9.764 -0.6692  0.1616 -0.2376
39082SOL    HW120838   5.707   3.735   9.697 -1.7278  0.9816  0.3947
39082SOL    HW220839   5.725   3.831   9.812  1.2896  1.8885 -0.7366
39083SOL     OW20840   9.767   9.153   4.955  0.8032  0.5047  0.2549
39083SOL    HW120841   9.828   9.180   4.886 -0.7451  1.4089 -0.8185
39083SOL    HW220842   9.740   9.064   4.930  1.4055  0.2290  0.5573
39084SOL     OW20843   1.710   3.917   7.205 -0.1591  0.1960  0.2761
39084SOL    HW120844   1.634   3.871   7.170 -0.5934 -0.0194  1.4612
39084SOL    HW220845   1.713   3.999   7.157 -0.7263 -0.0881 -0.2643
39085SOL     OW20846   3.491   5.291   2.119  0.0436  0.2285  0.3071
39085SOL    HW120847   3.508   5.362   2.057 -0.4243 -0.3884 -0.5503
39085SOL    HW220848   3.400   5.266   2.101 -0.1175  0.0877  1.2954
39086SOL     OW20849   3.240   5.289   1.028 -0.4409 -0.9826 -0.2072
39086SOL    HW120850   3.191   5.251   0.955  1.0842 -0.5010 -1.5272
39086SOL    HW220851   3.268   5.375   0.997  1.3074 -1.2785  0.4541
39087SOL     OW20852   1.083   0.029   7.702 -0.1111  0.0605 -0.0142
39087SOL    HW120853   1.034  -0.049   7.728 -0.5730 -0.0214 -1.0710
39087SOL    HW220854   1.020   0.101   7.710 -0.0959  0.1147 -0.3834
39088SOL     OW20855   0.988   0.213   1.709 -0.4781 -0.1128 -0.2593
39088SOL    HW120856   0.944   0.252   1.633 -0.8402 -0.9454 -0.4860
39088SOL    HW220857   1.066   0.267   1.721 -1.1819  0.9504 -0.2925
39089SOL     OW20858   7.019  10.070   1.761 -0.1681  0.3066 -0.5874
39089SOL    HW120859   7.033  10.015   1.684  0.5010 -0.1672 -0.1274
39089SOL    HW220860   6.960  10.140   1.730 -0.2068 -0.0936 -1.4245
39090SOL     OW20861   8.451   5.889   9.871  0.0476 -0.4056  0.8536
39090SOL    HW120862   8.449   5.824   9.941 -0.1704  0.7542  1.9567
39090SOL    HW220863   8.368   5.935   9.879 -0.3560 -0.8007 -0.7275
39091SOL     OW20864   2.127   7.389   1.944 -0.4725  0.0097 -0.0374
39091SOL    HW120865   2.114   7.464   2.002  0.7275  0.0620  0.1938
39091SOL    HW220866   2.094   7.418   1.859  0.5546  1.0453 -0.1024
39092SOL     OW20867   1.504   7.836   2.684 -0.3832 -0.0900  0.0020
39092SOL    HW120868   1.529   7.902   2.619  0.1185  2.3571  2.4591
39092SOL    HW220869   1.579   7.777   2.689 -0.4084 -0.2939 -1.5329
39093SOL     OW20870   7.639   0.719  10.077 -0.6672 -0.3783 -0.0670
39093SOL    HW120871   7.705   0.767  10.026 -0.1857 -0.6380  0.2987
39093SOL    HW220872   7.681   0.635  10.097 -0.9717 -0.4003  0.4880
39094SOL     OW20873   3.045  10.761   6.886 -0.1903 -0.5482 -0.3077
39094SOL    HW120874   3.024  10.823   6.817 -0.0921 -2.0404 -1.7638
39094SOL    HW220875   2.964  10.713   6.901  0.3665 -1.7991 -1.1088
39095SOL     OW20876   5.381   3.291   6.093  0.9463  0.2871 -0.2428
39095SOL    HW120877   5.406   3.365   6.148 -0.3577 -0.0816  0.9271
39095SOL    HW220878   5.369   3.328   6.006  0.5998  1.4159  0.2642
39096SOL     OW20879   2.785   8.303  10.564 -0.5229 -0.7428  0.0467
39096SOL    HW120880   2.861   8.318  10.508  0.6921 -0.4117  1.7159
39096SOL    HW220881   2.776   8.383  10.615 -0.6663 -1.5641  1.3657
39097SOL     OW20882   4.200   9.481   1.779 -0.1529  0.0737  0.6100
39097SOL    HW120883   4.117   9.452   1.742  1.2618 -0.7274 -2.2867
39097SOL    HW220884   4.217   9.565   1.737  0.8878 -0.1885  0.4743
39098SOL     OW20885   8.421   0.048   3.564  0.4477  0.4748 -0.3514
39098SOL    HW120886   8.369   0.102   3.504  0.6685 -0.5927 -1.5499
39098SOL    HW220887   8.409   0.089   3.649 -1.0848  1.1766 -0.8656
39099SOL     OW20888   4.192  10.988   8.443 -0.2700 -0.7352  0.1315
39099SOL    HW120889   4.219  10.962   8.531 -1.3459 -0.9605  0.4117
39099SOL    HW220890   4.274  11.001   8.396  0.3935  1.4063  1.7086
39100SOL     OW20891   4.468   9.780   5.162  0.2019 -0.0896 -0.2045
39100SOL    HW120892   4.528   9.805   5.232  0.3062  0.1191 -0.3668
39100SOL    HW220893   4.506   9.699   5.126  1.5517  1.1185 -1.6664
39101SOL     OW20894   7.984   8.401   6.509  0.0460  0.3461 -0.1635
39101SOL    HW120895   7.970   8.407   6.415 -1.3827 -0.8503 -0.0567
39101SOL    HW220896   7.905   8.359   6.543  1.7043 -1.8965  1.2201
39102SOL     OW20897  10.542   1.483   4.201  0.6615  0.0912  0.1157
39102SOL    HW120898  10.455   1.498   4.237  0.5992 -2.6474  1.3883
39102SOL    HW220899  10.526   1.451   4.112  0.2213 -1.4246  0.6965
39103SOL     OW20900   7.971  10.048   4.094  0.0678 -0.1485 -0.4897
39103SOL    HW120901   8.045  10.023   4.150 -0.3231 -0.4444 -0.0948
39103SOL    HW220902   8.000  10.028   4.005 -0.7059 -3.4015 -0.1313
39104SOL     OW20903  10.073   6.449   9.267 -0.0260 -0.3644  0.4914
39104SOL    HW120904  10.164   6.442   9.237  0.4054 -1.1092  1.9030
39104SOL    HW220905  10.057   6.544   9.269  0.9293 -0.1951  0.8202
39105SOL     OW20906   2.037   4.383  10.955  0.5886  0.2966  0.2561
39105SOL    HW120907   1.973   4.362  11.023 -0.4641  0.4442 -0.6565
39105SOL    HW220908   1.984   4.413  10.882  1.7546  0.9884 -0.3241
39106SOL     OW20909   5.163   0.336   9.783 -0.1310 -0.3553 -0.3210
39106SOL    HW120910   5.087   0.304   9.734 -0.8778  1.1336 -0.2079
39106SOL    HW220911   5.141   0.320   9.875 -0.0049 -0.5226 -0.3186
39107SOL     OW20912   4.167   7.809   6.809 -0.4159  0.1815 -1.0875
39107SOL    HW120913   4.153   7.851   6.894 -3.6606  0.3074 -1.5685
39107SOL    HW220914   4.256   7.834   6.784 -0.4579  2.6563  0.8949
39108SOL     OW20915   8.281   1.674   2.847  0.6322 -0.0456 -0.1655
39108SOL    HW120916   8.239   1.642   2.927  0.3470  2.4975  0.7886
39108SOL    HW220917   8.207   1.702   2.792  0.9240  1.4628  0.1786
39109SOL     OW20918   5.866   7.034   9.869  0.0736 -0.1555  0.3940
39109SOL    HW120919   5.895   6.946   9.845 -0.6339 -0.3704  0.3236
39109SOL    HW220920   5.946   7.087   9.862  0.9639 -1.1354  2.3448
39110SOL     OW20921  10.320  10.820   4.875  0.0434  0.4318  0.3301
39110SOL    HW120922  10.291  10.771   4.798 -0.1627  0.6862  0.2430
39110SOL    HW220923  10.310  10.912   4.850 -0.7283  0.5153  0.9295
39111SOL     OW20924   1.951   3.281   2.492 -0.0942 -0.3290 -0.4541
39111SOL    HW120925   2.004   3.322   2.561  0.7416  1.1152 -1.8801
39111SOL    HW220926   1.967   3.187   2.502  1.1253 -0.0543  0.4319
39112SOL     OW20927   2.199   1.204  10.442  0.4559  0.4715  0.0268
39112SOL    HW120928   2.202   1.150  10.520 -0.7677  1.3472  0.7046
39112SOL    HW220929   2.197   1.142  10.369 -0.3001 -0.3861  0.7665
39113SOL     OW20930   5.424   3.099   1.270  1.2335 -0.3401 -0.2922
39113SOL    HW120931   5.464   3.132   1.189  1.3154  2.7569  0.8794
39113SOL    HW220932   5.498   3.066   1.321  1.3358 -1.1930 -0.9766
39114SOL     OW20933   3.594   6.658   4.077  0.0529 -0.2596  0.2682
39114SOL    HW120934   3.503   6.668   4.050  0.0155  1.4546  0.8539
39114SOL    HW220935   3.645   6.693   4.004  0.3009 -1.8037 -0.3284
39115SOL     OW20936   4.642   8.191   7.699 -0.7996  0.4267 -0.2742
39115SOL    HW120937   4.718   8.239   7.733  1.1886 -2.9910  0.5306
39115SOL    HW220938   4.610   8.141   7.774  0.4235 -3.2461 -1.9645
39116SOL     OW20939   9.911   7.297   0.214  0.1087  0.2747 -0.8197
39116SOL    HW120940   9.888   7.289   0.122  1.0052  0.2202 -1.0445
39116SOL    HW220941  10.003   7.322   0.214  0.4288 -0.8296  0.0783
39117SOL     OW20942   8.570   3.804   7.564 -0.3476 -0.3884 -0.1218
39117SOL    HW120943   8.600   3.881   7.613  0.9870  0.0140 -1.4955
39117SOL    HW220944   8.648   3.774   7.518 -1.3147 -1.3818 -1.1605
39118SOL     OW20945   1.934   0.014   3.021  0.3420  0.0264 -0.1883
39118SOL    HW120946   1.891   0.004   3.106  2.2200  1.4167  1.0166
39118SOL    HW220947   1.862   0.017   2.958 -1.0693 -2.3437  1.1451
39119SOL     OW20948   3.201   5.064   2.261 -0.0159  0.6373  0.1367
39119SOL    HW120949   3.269   5.040   2.197  0.9703  2.1503  0.5566
39119SOL    HW220950   3.158   5.140   2.222 -0.3665  0.6887  0.6243
39120SOL     OW20951   8.864   9.115   7.194 -0.0997  0.0950  0.8609
39120SOL    HW120952   8.876   9.127   7.288  0.3622  1.4104  0.6460
39120SOL    HW220953   8.952   9.107   7.158 -0.1393  1.7633  0.2921
39121SOL     OW20954  10.200   7.625   2.986 -0.7021  0.1292 -0.3769
39121SOL    HW120955  10.192   7.713   3.024 -0.7150 -0.4328  0.9626
39121SOL    HW220956  10.134   7.573   3.031  0.1059 -0.8588 -0.2952
39122SOL     OW20957   2.026   1.774   0.380  0.2747 -0.7278 -0.1795
39122SOL    HW120958   2.117   1.802   0.372 -0.5629  2.4891  0.1150
39122SOL    HW220959   1.992   1.778   0.290 -0.5153  2.1962  0.1290
39123SOL     OW20960   7.619   8.008   0.117 -0.2670 -0.3428 -0.0447
39123SOL    HW120961   7.525   8.023   0.111 -0.5308 -1.9094 -0.3334
39123SOL    HW220962   7.628   7.939   0.183  0.8225  0.8021  1.0751
39124SOL     OW20963   8.019   5.757   6.130 -0.1716 -0.3457 -0.3280
39124SOL    HW120964   7.954   5.721   6.070 -1.1869  0.3048  0.3390
39124SOL    HW220965   8.099   5.762   6.079 -0.5759 -1.3996 -1.1014
39125SOL     OW20966   2.619   1.584  10.777 -0.4767 -0.6297 -0.9220
39125SOL    HW120967   2.604   1.515  10.712  0.0017 -1.3993 -0.2413
39125SOL    HW220968   2.711   1.608  10.766 -0.6576 -0.0512 -1.1952
39126SOL     OW20969   1.824   7.732   8.473  0.6605  0.5077  0.0968
39126SOL    HW120970   1.763   7.664   8.446  0.8723 -0.4668  1.8660
39126SOL    HW220971   1.821   7.797   8.403  0.1571 -1.1228 -1.4676
39127SOL     OW20972   6.749   2.775   8.553 -0.1434  0.4201  0.2605
39127SOL    HW120973   6.668   2.825   8.552  0.1382  0.8815 -0.1523
39127SOL    HW220974   6.816   2.838   8.524  0.1740 -0.2662 -0.5352
39128SOL     OW20975   2.087   6.361   6.391 -0.2906 -0.4895 -0.1335
39128SOL    HW120976   2.014   6.402   6.344  1.1056  2.2903 -0.1242
39128SOL    HW220977   2.100   6.277   6.349 -3.3302 -0.9854 -0.2647
39129SOL     OW20978   9.603   7.531   3.467  0.2152  0.4551 -0.6910
39129SOL    HW120979   9.577   7.440   3.453 -1.1717  0.8524 -0.8537
39129SOL    HW220980   9.610   7.568   3.379 -0.1200  0.7391 -0.5989
39130SOL     OW20981   7.745   2.983   8.147 -0.3978 -0.0018  0.1907
39130SOL    HW120982   7.691   2.964   8.223 -2.4202 -0.0260 -1.1765
39130SOL    HW220983   7.774   2.898   8.115 -0.2941 -0.0488  0.4106
39131SOL     OW20984   4.856   4.793   4.027  0.0324  0.1642  0.2276
39131SOL    HW120985   4.936   4.830   3.989  0.4614 -1.9519 -1.1544
39131SOL    HW220986   4.882   4.760   4.112  0.1366  1.1923  0.6017
39132SOL     OW20987  10.378   1.553   2.408 -0.3841 -0.4484 -0.5809
39132SOL    HW120988  10.471   1.541   2.388 -0.4381 -0.8048 -0.6383
39132SOL    HW220989  10.343   1.603   2.335  0.5387  3.1624  1.2135
39133SOL     OW20990   6.401   6.289  10.785  0.1726  0.5291  0.0117
39133SOL    HW120991   6.442   6.332  10.710 -0.4212 -0.5853 -1.0030
39133SOL    HW220992   6.317   6.258  10.752 -0.2374  0.2722  1.2339
39134SOL     OW20993   9.720   4.532   0.837 -0.1526 -0.4034  0.4318
39134SOL    HW120994   9.706   4.567   0.925  2.0214 -0.6491  0.9282
39134SOL    HW220995   9.784   4.591   0.798  0.4311 -1.4448 -0.2319
39135SOL     OW20996   9.155   0.056   0.831 -0.3017 -0.0153  0.7512
39135SOL    HW120997   9.154   0.058   0.735 -0.4927  2.2176  0.7407
39135SOL    HW220998   9.079   0.004   0.855 -0.4036 -0.3789 -0.3073
39136SOL     OW20999   7.390   5.188   7.139 -0.0659 -0.0457 -0.9667
39136SOL    HW121000   7.331   5.113   7.147 -0.3426  0.1230 -1.3894
39136SOL    HW221001   7.397   5.203   7.045  0.4625  0.0857 -0.9066
39137SOL     OW21002   7.997   8.895   4.429  0.2235 -0.5894 -0.4315
39137SOL    HW121003   8.069   8.837   4.406  0.0906 -0.7871 -0.3485
39137SOL    HW221004   7.925   8.869   4.371  0.4485  0.1073 -1.0480
39138SOL     OW21005   8.366   0.270   5.740  0.0860  0.0870  0.0192
39138SOL    HW121006   8.404   0.357   5.751  1.7081 -0.8503  2.6497
39138SOL    HW221007   8.277   0.279   5.773 -0.5065  1.1726 -1.7132
39139SOL     OW21008   2.100   4.040   5.600 -0.0818 -0.0936 -0.1940
39139SOL    HW121009   2.020   4.070   5.556 -0.4629 -0.1456  0.4460
39139SOL    HW221010   2.166   4.035   5.531 -1.3787 -3.0159 -1.3948
39140SOL     OW21011   0.018  10.402   4.444  0.4509  0.4666 -0.1184
39140SOL    HW121012   0.019  10.336   4.514 -1.0653  0.9760  0.4233
39140SOL    HW221013  -0.018  10.355   4.368 -1.6026  0.8925  0.5490
39141SOL     OW21014   2.767   4.486   0.457  0.3787  0.4219  0.7906
39141SOL    HW121015   2.702   4.430   0.499  0.7675 -1.6571 -1.2096
39141SOL    HW221016   2.850   4.461   0.496  0.4399  0.3152  0.5908
39142SOL     OW21017   2.690   2.187   2.165  0.2692  0.0366 -0.0147
39142SOL    HW121018   2.740   2.196   2.083 -1.0592 -1.8395 -1.0927
39142SOL    HW221019   2.654   2.099   2.162 -2.1381  0.8853  1.2834
39143SOL     OW21020   8.536   6.211   2.907  0.4772  0.1005 -0.3936
39143SOL    HW121021   8.464   6.158   2.873 -1.1982  1.6537  0.5679
39143SOL    HW221022   8.599   6.216   2.834 -0.5076 -1.0275 -1.3624
39144SOL     OW21023  10.624   3.662  10.962 -0.7010 -0.2020  0.1348
39144SOL    HW121024  10.552   3.609  10.929  0.0370 -0.5018 -1.0456
39144SOL    HW221025  10.696   3.647  10.900 -0.1199  1.3045  0.3855
39145SOL     OW21026   2.666   9.577   7.082 -0.1339 -0.1892 -0.2997
39145SOL    HW121027   2.734   9.519   7.048 -0.2508 -0.5807  0.1140
39145SOL    HW221028   2.709   9.626   7.152  0.1970  0.8575 -1.2181
39146SOL     OW21029   4.506   8.745  10.624 -0.3783  0.0981 -0.2966
39146SOL    HW121030   4.600   8.731  10.615 -0.3499 -1.8579  1.9750
39146SOL    HW221031   4.497   8.837  10.648  1.3630 -0.4427  2.8930
39147SOL     OW21032   6.224   0.481   3.814 -0.1034  0.2024  0.2831
39147SOL    HW121033   6.202   0.388   3.803 -1.8982  0.7267 -1.0778
39147SOL    HW221034   6.181   0.506   3.896  0.1141 -0.0970  0.4897
39148SOL     OW21035   1.416   6.290   5.536 -0.1599 -0.0258 -1.0394
39148SOL    HW121036   1.477   6.217   5.524 -0.3056 -0.1238 -1.1894
39148SOL    HW221037   1.359   6.287   5.459 -1.8381 -1.3794  0.1651
39149SOL     OW21038   8.687  10.664   1.564  0.2021 -0.0055 -0.3043
39149SOL    HW121039   8.698  10.596   1.631  1.7161  0.5593  0.0637
39149SOL    HW221040   8.772  10.707   1.559 -1.0157  2.7892  0.4854
39150SOL     OW21041  10.033   8.622   5.749  0.1744 -0.1142 -0.2188
39150SOL    HW121042  10.076   8.571   5.817  0.4291 -1.2236 -1.1790
39150SOL    HW221043   9.940   8.608   5.763  0.2338 -0.5490 -0.2550
39151SOL     OW21044   9.387   9.383  10.777 -0.1556  0.0515  0.3714
39151SOL    HW121045   9.302   9.425  10.784  0.3740  1.0527  0.9967
39151SOL    HW221046   9.419   9.407  10.690 -0.7820 -0.8842 -0.1358
39152SOL     OW21047   5.216   2.007   0.648 -0.7657 -0.0462  0.1095
39152SOL    HW121048   5.302   1.980   0.681 -0.3604  0.0911 -0.8079
39152SOL    HW221049   5.185   1.932   0.597 -2.0566 -0.8453  1.9757
39153SOL     OW21050   6.962   4.960   7.129  0.4011 -0.6464  0.2608
39153SOL    HW121051   6.900   4.892   7.157  1.1307 -1.1668  0.6292
39153SOL    HW221052   6.926   5.041   7.166 -1.7980 -0.3763 -2.1449
39154SOL     OW21053   8.616   5.151   3.331  0.1544  0.1244 -0.1507
39154SOL    HW121054   8.594   5.244   3.340  1.4293  0.6045 -1.6138
39154SOL    HW221055   8.640   5.124   3.420 -0.7891  1.0284  0.3980
39155SOL     OW21056  10.204   6.703   7.159  0.0450  0.1822 -0.0310
39155SOL    HW121057  10.227   6.754   7.236 -2.2649  2.5581 -0.7785
39155SOL    HW221058  10.247   6.748   7.086 -0.9578  0.3160 -0.5534
39156SOL     OW21059   4.843   1.213   9.665  0.3422  0.0439  0.1716
39156SOL    HW121060   4.815   1.148   9.730  0.9027 -2.0431 -1.5660
39156SOL    HW221061   4.935   1.193   9.649  0.1391  0.3147 -1.4721
39157SOL     OW21062   7.733   8.328   7.760 -0.5864 -0.1561  0.2681
39157SOL    HW121063   7.730   8.248   7.707  1.8953  1.5180 -2.6936
39157SOL    HW221064   7.658   8.380   7.730 -1.2659 -0.6682  1.0421
39158SOL     OW21065  10.676  10.509   0.041 -0.5110 -0.0020  0.1872
39158SOL    HW121066  10.676  10.415   0.020 -0.6006  0.0400 -0.0024
39158SOL    HW221067  10.760  10.540   0.008 -0.2475 -0.1249  0.7421
39159SOL     OW21068   0.290   9.827   4.671  0.0519  0.2662 -0.0381
39159SOL    HW121069   0.301   9.756   4.607  2.1988  1.1119 -0.6889
39159SOL    HW221070   0.284   9.782   4.755  1.8036 -0.7261 -0.3829
39160SOL     OW21071   8.788   4.281   4.579  0.0570 -0.0725  0.0700
39160SOL    HW121072   8.730   4.210   4.551  0.0576  0.7291 -2.1454
39160SOL    HW221073   8.745   4.318   4.656 -1.1876 -0.9065 -0.1937
39161SOL     OW21074   1.448   0.759   0.735 -0.1007 -0.1175  0.3783
39161SOL    HW121075   1.531   0.751   0.781 -0.2038  0.6371  0.7049
39161SOL    HW221076   1.396   0.819   0.789 -2.0669 -2.9702  1.9116
39162SOL     OW21077   8.853   5.184   3.860  0.1936 -0.0476  0.2424
39162SOL    HW121078   8.937   5.148   3.888  2.1163  1.4225 -3.0253
39162SOL    HW221079   8.836   5.255   3.922  0.4555 -1.4166  1.9362
39163SOL     OW21080   4.172   6.572   1.191 -0.4435  0.1450  0.0058
39163SOL    HW121081   4.180   6.522   1.272  0.5547 -0.2935 -0.3459
39163SOL    HW221082   4.234   6.644   1.200  0.1749 -0.2906 -0.6291
39164SOL     OW21083   8.593   0.149  10.005  0.1161 -0.0250  0.3300
39164SOL    HW121084   8.538   0.123  10.078  1.0940  0.6583  1.3442
39164SOL    HW221085   8.666   0.088  10.006  0.1078 -0.0441 -0.1057
39165SOL     OW21086   6.293   2.014   5.261 -0.0981  0.0114  0.3109
39165SOL    HW121087   6.208   2.033   5.302  0.2534 -0.6494  1.3753
39165SOL    HW221088   6.325   2.100   5.233 -1.2249  0.2449 -0.3604
39166SOL     OW21089   6.305   0.828   0.671  0.1475 -0.2626 -0.1259
39166SOL    HW121090   6.347   0.817   0.756 -1.3597 -2.8306  0.3929
39166SOL    HW221091   6.238   0.895   0.686  0.9088  0.4265  0.2644
39167SOL     OW21092   9.303   7.524   7.946 -0.0656  0.3257  0.1788
39167SOL    HW121093   9.260   7.608   7.933 -1.5252 -0.3607  0.3562
39167SOL    HW221094   9.382   7.545   7.996 -0.8560  1.4959  0.9858
39168SOL     OW21095   1.899   8.526   6.386  0.0269  0.4126 -0.3820
39168SOL    HW121096   1.859   8.489   6.307  0.9403 -0.7999 -0.3114
39168SOL    HW221097   1.992   8.507   6.377 -0.0459 -1.4509  1.8179
39169SOL     OW21098   3.402   4.842   4.816 -0.2078  0.1228 -0.0843
39169SOL    HW121099   3.388   4.860   4.723 -0.3166  0.3300 -0.0276
39169SOL    HW221100   3.474   4.900   4.841  0.4992 -0.6469 -0.2761
39170SOL     OW21101   5.083   7.477   1.726 -0.5959 -0.2046 -0.1235
39170SOL    HW121102   5.175   7.457   1.741 -0.2599  0.8742 -0.6874
39170SOL    HW221103   5.075   7.487   1.632 -1.3559 -0.5620 -0.1038
39171SOL     OW21104   6.891   1.531  10.317  0.1604  0.2079 -0.2519
39171SOL    HW121105   6.821   1.587  10.283 -1.7584 -1.5181  0.5946
39171SOL    HW221106   6.892   1.549  10.411 -0.1230 -0.7738 -0.0512
39172SOL     OW21107   4.403  10.094   4.092 -0.0988  0.6010 -0.2261
39172SOL    HW121108   4.415  10.109   3.998 -1.0335 -0.7304 -0.5844
39172SOL    HW221109   4.442  10.171   4.134 -1.4650  2.2317 -1.7741
39173SOL     OW21110   7.548   0.120  10.209 -0.0857  0.2252 -0.3537
39173SOL    HW121111   7.460   0.156  10.224 -0.9210 -1.8765  0.0735
39173SOL    HW221112   7.605   0.173  10.266 -1.4710 -0.0193  1.3559
39174SOL     OW21113   3.588   2.575   3.246 -0.0216 -0.2106 -0.3156
39174SOL    HW121114   3.657   2.636   3.272 -0.9160  0.8801 -0.3989
39174SOL    HW221115   3.562   2.532   3.328  1.1678 -1.0973 -0.3856
39175SOL     OW21116   1.293   8.434   8.127 -0.3217 -0.4049  0.1196
39175SOL    HW121117   1.348   8.508   8.150 -1.0391  0.5077 -0.9748
39175SOL    HW221118   1.289   8.381   8.206 -0.4519  1.1465  1.2005
39176SOL     OW21119   0.075  10.664   4.411  0.4416 -0.2762 -0.0174
39176SOL    HW121120   0.060  10.576   4.444 -0.7729  0.3672  1.2471
39176SOL    HW221121   0.038  10.722   4.478 -2.4130  1.1197 -2.4945
39177SOL     OW21122   8.855   6.078   9.418  0.2223  0.0054  0.0194
39177SOL    HW121123   8.832   6.167   9.446 -0.2979  0.3589 -1.4534
39177SOL    HW221124   8.777   6.047   9.371  0.8325 -0.7836 -0.4897
39178SOL     OW21125   1.423   9.911   6.542 -0.0089  0.0238 -0.0431
39178SOL    HW121126   1.395   9.935   6.454 -2.9540 -1.1830  0.4558
39178SOL    HW221127   1.401   9.818   6.550 -0.6695  0.3071  2.2686
39179SOL     OW21128   6.499   5.136   3.410 -0.3658 -0.4578  0.1952
39179SOL    HW121129   6.463   5.112   3.325  0.1028  0.1315 -0.1721
39179SOL    HW221130   6.457   5.219   3.432  1.2250  0.5827 -0.5460
39180SOL     OW21131   7.002   4.105   8.244  0.6354 -0.0342  0.3957
39180SOL    HW121132   6.908   4.102   8.260  0.7603 -2.3789  1.1940
39180SOL    HW221133   7.033   4.180   8.294 -0.5524 -0.5263  1.9553
39181SOL     OW21134   9.480   6.386  10.847  0.1495  0.6671 -0.4902
39181SOL    HW121135   9.420   6.460  10.856 -0.0488  0.5998 -1.2004
39181SOL    HW221136   9.565   6.426  10.828 -0.1303  0.6898 -1.7275
39182SOL     OW21137   7.437   0.376   9.697  0.4675  0.0130  0.3011
39182SOL    HW121138   7.483   0.423   9.766  0.4758 -0.0477  0.3360
39182SOL    HW221139   7.392   0.445   9.648 -0.0060  0.0040  0.7125
39183SOL     OW21140   3.822  11.008   3.405  0.4847 -0.1864  0.0166
39183SOL    HW121141   3.845  10.956   3.482 -3.0094 -0.5246  0.9841
39183SOL    HW221142   3.738  10.971   3.375 -1.5544  3.9523 -0.0549
39184SOL     OW21143  10.633   6.099   7.829  0.9270 -0.2727 -0.1220
39184SOL    HW121144  10.727   6.116   7.817  0.4897  1.3467 -1.7681
39184SOL    HW221145  10.620   6.010   7.796  1.6769 -0.0174 -1.1333
39185SOL     OW21146   4.735   8.415   4.130  0.2882 -0.1665  0.5069
39185SOL    HW121147   4.690   8.464   4.061  3.3568  1.3692 -0.5975
39185SOL    HW221148   4.744   8.477   4.202 -0.3213 -0.8382  1.1846
39186SOL     OW21149   6.743   7.149   2.881  0.5513 -0.3026 -0.0974
39186SOL    HW121150   6.729   7.094   2.804 -0.8939 -0.0233 -0.0667
39186SOL    HW221151   6.726   7.091   2.955 -1.4607  0.2486 -0.0710
39187SOL     OW21152  10.022   1.534   2.717  0.5020 -0.5485  0.0030
39187SOL    HW121153   9.937   1.490   2.716  1.1905 -1.9330 -0.7046
39187SOL    HW221154  10.042   1.551   2.625  0.9213 -0.1047  0.1692
39188SOL     OW21155   3.890   2.867   7.325  0.1910  0.2982 -0.1039
39188SOL    HW121156   3.834   2.927   7.374 -1.1166 -0.1915 -0.9441
39188SOL    HW221157   3.876   2.782   7.366 -1.6531 -0.3041 -1.8243
39189SOL     OW21158   1.255   7.710   9.473  0.2368 -0.0690 -0.3481
39189SOL    HW121159   1.271   7.623   9.510 -2.3828 -0.6587 -0.4477
39189SOL    HW221160   1.216   7.760   9.544 -0.5554  0.2461 -0.9940
39190SOL     OW21161   5.169   0.101   7.592  0.9482 -0.1611 -0.2697
39190SOL    HW121162   5.216   0.177   7.625  1.8485 -0.6301 -0.4195
39190SOL    HW221163   5.210   0.082   7.507  0.8913 -0.9418 -0.1296
39191SOL     OW21164   3.695   7.126   5.890 -0.1021 -0.6233 -0.9285
39191SOL    HW121165   3.636   7.165   5.826 -1.0939 -0.8639 -0.1823
39191SOL    HW221166   3.775   7.178   5.884 -1.0021  0.8136 -0.7293
39192SOL     OW21167   3.983   5.873   2.374  0.0524  0.5676  0.7722
39192SOL    HW121168   4.017   5.784   2.364  0.3404  0.8388 -0.9923
39192SOL    HW221169   3.992   5.912   2.287 -3.9100  1.0050  0.3867
39193SOL     OW21170   7.972   7.931   1.033 -0.6121  0.0954 -0.2510
39193SOL    HW121171   7.913   7.965   1.101  1.2781 -0.5658  1.8373
39193SOL    HW221172   7.962   7.836   1.038  0.8426 -0.0478  0.3943
39194SOL     OW21173   6.932  10.931   1.510  0.2909  0.2748  0.2450
39194SOL    HW121174   7.000  10.958   1.571  0.9055 -1.9005  0.6113
39194SOL    HW221175   6.854  10.978   1.538  0.8753  0.3117  1.8891
39195SOL     OW21176   6.242   5.256   6.194  0.5713 -0.1510  0.9863
39195SOL    HW121177   6.200   5.234   6.110  1.5868  3.3266 -0.6385
39195SOL    HW221178   6.169   5.266   6.255 -0.3699 -0.9547  0.0318
39196SOL     OW21179   6.118  10.091   3.358 -0.6005  0.2875  0.0360
39196SOL    HW121180   6.025  10.093   3.334 -1.0828  0.3169  1.7938
39196SOL    HW221181   6.144  10.001   3.341 -0.5108  0.6434 -1.9266
39197SOL     OW21182   9.883   5.356   9.173 -0.4311 -0.2968  0.0059
39197SOL    HW121183   9.932   5.434   9.147 -0.4323 -0.8468 -1.7495
39197SOL    HW221184   9.940   5.283   9.149 -0.8972 -0.8761  0.6204
39198SOL     OW21185   4.286   1.317  10.332  0.0708  0.2297 -0.2585
39198SOL    HW121186   4.236   1.394  10.359  0.1187  1.2101 -2.6962
39198SOL    HW221187   4.235   1.243  10.364 -0.1458  1.2238  1.8760
39199SOL     OW21188   5.479   3.744   2.412 -0.0407 -0.2549  0.2623
39199SOL    HW121189   5.528   3.826   2.403 -0.3122 -0.1343 -0.1322
39199SOL    HW221190   5.391   3.771   2.438  0.0046 -0.4536  0.6414
39200SOL     OW21191   0.804   9.409   5.970  0.4451 -0.0782 -0.6606
39200SOL    HW121192   0.857   9.482   5.937  0.2484 -0.2498 -1.3604
39200SOL    HW221193   0.718   9.447   5.988  0.9709  0.3600  1.1387
39201SOL     OW21194   8.741   2.558   5.098  0.2077 -0.1321 -0.6013
39201SOL    HW121195   8.764   2.499   5.027  1.8232  1.3476 -1.3689
39201SOL    HW221196   8.824   2.576   5.143 -0.8655 -1.7637  2.3553
39202SOL     OW21197   6.338   2.847   8.853 -0.7675  0.0849  0.0273
39202SOL    HW121198   6.393   2.917   8.888 -0.4914 -0.6831  1.1896
39202SOL    HW221199   6.255   2.890   8.832 -0.2117  0.9750 -0.3842
39203SOL     OW21200  10.814   2.021   0.527 -0.4073  0.1780 -0.1579
39203SOL    HW121201  10.844   1.933   0.504  0.1651  0.2611  0.2536
39203SOL    HW221202  10.724   2.009   0.556  0.1041 -0.4927  1.2360
39204SOL     OW21203   7.253   1.681  10.239 -0.2535 -0.2716 -0.0754
39204SOL    HW121204   7.236   1.617  10.308 -0.6859  0.5043  0.5634
39204SOL    HW221205   7.167   1.697  10.199 -0.1670 -0.0209 -0.1641
39205SOL     OW21206   8.885   4.079   3.897  0.4579  0.3008  0.2346
39205SOL    HW121207   8.871   3.984   3.892  1.2924  0.1631  0.4045
39205SOL    HW221208   8.968   4.089   3.943  0.6788  1.1004 -0.3040
39206SOL     OW21209   5.283  10.016   3.786 -0.2462 -0.6185 -0.1173
39206SOL    HW121210   5.242   9.952   3.728 -0.0037 -0.2509 -0.7003
39206SOL    HW221211   5.214  10.042   3.846 -0.8055 -0.1930 -0.9328
39207SOL     OW21212   5.701   2.445   6.821 -0.1521 -0.5213  0.0824
39207SOL    HW121213   5.740   2.384   6.883 -0.7734  1.2863  2.3985
39207SOL    HW221214   5.610   2.454   6.850 -0.0323  1.6076 -0.0484
39208SOL     OW21215   7.132   2.237   6.431 -0.2567 -0.4684 -0.7380
39208SOL    HW121216   7.108   2.254   6.522  0.1809 -0.9939 -0.5167
39208SOL    HW221217   7.197   2.304   6.411  0.2466 -0.8432 -0.3968
39209SOL     OW21218   8.297   0.701   2.936  0.0934  0.0282  0.0489
39209SOL    HW121219   8.222   0.647   2.912 -0.7259  0.2877  1.8482
39209SOL    HW221220   8.285   0.782   2.887 -1.0388  0.2271  0.6251
39210SOL     OW21221   1.705   9.725  10.027  0.4250  0.2853  0.0691
39210SOL    HW121222   1.641   9.709  10.097  0.3736  1.1354  0.2383
39210SOL    HW221223   1.779   9.669  10.048 -0.2109 -0.6166 -0.0526
39211SOL     OW21224   8.455   4.635   5.410  0.0888  0.0587 -0.0884
39211SOL    HW121225   8.546   4.660   5.424 -0.4492  1.5268  1.1649
39211SOL    HW221226   8.459   4.556   5.357  2.1183 -0.5357  0.8523
39212SOL     OW21227   8.675   4.424   1.450  0.2864 -0.4279 -0.0820
39212SOL    HW121228   8.618   4.352   1.479 -0.4538  0.0673 -0.3014
39212SOL    HW221229   8.763   4.385   1.449 -0.3544 -1.9985 -2.3338
39213SOL     OW21230   7.730   4.321   0.513 -0.1576  0.1999  0.1489
39213SOL    HW121231   7.667   4.282   0.452 -0.8141  0.5191  0.6053
39213SOL    HW221232   7.747   4.408   0.476  1.3141 -0.4825 -0.8746
39214SOL     OW21233   7.186   6.851  10.487  0.4438  0.4809  0.0542
39214SOL    HW121234   7.189   6.831  10.581 -1.1876 -3.2402 -0.4835
39214SOL    HW221235   7.247   6.788  10.448 -2.6632 -1.7908 -1.6464
39215SOL     OW21236   3.853   9.452  10.270  0.0252 -0.1012 -0.7463
39215SOL    HW121237   3.867   9.411  10.355  1.9657 -1.6540 -1.7437
39215SOL    HW221238   3.910   9.529  10.270  1.7012 -1.2717 -1.3450
39216SOL     OW21239   2.629   7.627   5.209 -0.4982  0.4305  0.9506
39216SOL    HW121240   2.690   7.563   5.172 -1.8771 -0.7691  0.6497
39216SOL    HW221241   2.674   7.662   5.286  0.1300 -1.2278  1.3745
39217SOL     OW21242   3.639   4.027   7.371  0.4040  0.0666  0.2424
39217SOL    HW121243   3.676   4.015   7.283  1.5140 -0.5949  0.7881
39217SOL    HW221244   3.638   3.939   7.409  0.5025  0.4375  1.1179
39218SOL     OW21245   6.976   0.530  10.462 -0.0345  0.1689  0.0480
39218SOL    HW121246   7.054   0.513  10.515  0.1202 -0.6707 -0.4320
39218SOL    HW221247   7.002   0.505  10.373 -1.0273 -0.7005 -0.0185
39219SOL     OW21248   8.474   8.420   9.885  0.0756  0.4182  0.0639
39219SOL    HW121249   8.449   8.510   9.905  0.3459  0.6262 -0.5232
39219SOL    HW221250   8.393   8.370   9.893 -0.7697  1.2117 -2.6284
39220SOL     OW21251   1.884   3.448   1.866 -0.0885 -0.0415 -0.7019
39220SOL    HW121252   1.890   3.357   1.839 -2.0082 -0.3561 -0.2231
39220SOL    HW221253   1.860   3.495   1.786  1.7518  0.2310 -1.1496
39221SOL     OW21254   1.246   1.964   8.875 -0.1293 -0.5531  0.0965
39221SOL    HW121255   1.263   1.947   8.782  1.1469 -3.9039  0.8262
39221SOL    HW221256   1.154   1.940   8.887 -0.5847  0.7972 -0.4005
39222SOL     OW21257   2.807  10.651   2.126  0.1947 -0.0512 -0.4385
39222SOL    HW121258   2.818  10.616   2.037 -1.9416 -1.2948 -0.2983
39222SOL    HW221259   2.846  10.585   2.183  0.1079 -0.0600 -0.3879
39223SOL     OW21260   4.853   5.456   5.567  0.3006 -0.1252 -0.0883
39223SOL    HW121261   4.866   5.512   5.644 -0.3966 -0.1509  0.0545
39223SOL    HW221262   4.902   5.500   5.497 -0.0582  0.5514  0.0744
39224SOL     OW21263   6.482   8.937   2.435  0.2054  0.1025  0.6564
39224SOL    HW121264   6.459   9.018   2.390  0.1699  0.3506  1.1155
39224SOL    HW221265   6.406   8.881   2.424 -1.2473  1.3820  3.2765
39225SOL     OW21266   3.324   6.902   4.384 -0.1059 -0.1321  0.3130
39225SOL    HW121267   3.378   6.980   4.367 -1.5813  0.9911  0.6201
39225SOL    HW221268   3.338   6.884   4.477 -1.1347  0.8950  0.6979
39226SOL     OW21269   7.050   4.248   8.683 -0.5222  0.3459  0.2647
39226SOL    HW121270   7.049   4.343   8.669 -1.1887  0.2929 -0.1009
39226SOL    HW221271   6.996   4.235   8.762  1.2799  0.4352  1.5827
39227SOL     OW21272   9.688   4.484   9.668  0.7783 -0.2903  0.2885
39227SOL    HW121273   9.680   4.549   9.738 -2.2787  0.6463 -0.7873
39227SOL    HW221274   9.706   4.535   9.589  0.4325 -0.9390 -0.2239
39228SOL     OW21275   0.814  10.493   7.009  0.0872  0.1694 -0.2677
39228SOL    HW121276   0.725  10.479   6.979  0.1486 -0.1310 -0.3113
39228SOL    HW221277   0.812  10.579   7.052 -0.1975  0.2070 -0.3584
39229SOL     OW21278   9.904   8.410   8.983  0.2884 -0.1867  0.3639
39229SOL    HW121279   9.831   8.429   9.042 -1.2741 -1.0360 -1.2050
39229SOL    HW221280   9.923   8.317   8.999  0.2216 -0.2740 -0.0620
39230SOL     OW21281   4.672   7.815   6.653  0.2453  0.2416 -0.5076
39230SOL    HW121282   4.660   7.872   6.729  0.0844 -0.6949  0.1928
39230SOL    HW221283   4.728   7.744   6.685  0.8318  0.2535 -1.4943
39231SOL     OW21284   6.999   2.290   6.662  0.1723  0.0736 -0.0808
39231SOL    HW121285   6.914   2.313   6.626 -0.3784 -1.9491 -0.1986
39231SOL    HW221286   6.997   2.322   6.752 -0.4914  0.5106 -0.2481
39232SOL     OW21287   6.364   2.618   7.941  0.1532 -0.0885 -0.0043
39232SOL    HW121288   6.378   2.543   7.883 -1.1970 -0.3588 -0.0010
39232SOL    HW221289   6.308   2.584   8.011  0.6938  0.5689  0.7718
39233SOL     OW21290   4.442   9.253   9.732  0.3607 -0.5963 -0.0297
39233SOL    HW121291   4.414   9.340   9.760  2.5028 -0.1905  1.0793
39233SOL    HW221292   4.520   9.269   9.678  0.4526 -1.7935 -0.2754
39234SOL     OW21293   4.394   6.144   0.774  0.0827 -0.3724  0.4912
39234SOL    HW121294   4.452   6.217   0.797 -0.7104 -0.5085  3.3181
39234SOL    HW221295   4.451   6.067   0.778  0.0235 -0.3593  1.8992
39235SOL     OW21296   5.287  10.571   6.514 -0.2259  0.4592  0.4193
39235SOL    HW121297   5.204  10.535   6.546  0.3637 -2.0512 -0.6387
39235SOL    HW221298   5.261  10.636   6.449 -1.4204 -0.6573 -0.2779
39236SOL     OW21299   7.829   9.932   4.364  0.0898 -0.4640  0.2805
39236SOL    HW121300   7.827   9.873   4.440 -1.7312  0.2898  0.8809
39236SOL    HW221301   7.919   9.962   4.360  0.4041 -1.1144  1.6828
39237SOL     OW21302   8.261  10.088   7.909 -0.4008  0.2431 -0.2567
39237SOL    HW121303   8.302  10.154   7.964 -0.9140 -1.5609  2.4558
39237SOL    HW221304   8.180  10.128   7.879 -1.2392  0.5471  2.2329
39238SOL     OW21305   3.262   3.324   4.023 -0.3746  0.0483  0.2211
39238SOL    HW121306   3.332   3.272   4.063  0.5235  1.7135  0.9033
39238SOL    HW221307   3.209   3.354   4.098  0.0569  1.4087  0.0136
39239SOL     OW21308   7.518   2.683   6.221 -0.2694  0.4892 -0.1614
39239SOL    HW121309   7.564   2.735   6.155  3.3506 -1.0802  0.8563
39239SOL    HW221310   7.539   2.592   6.199 -2.6203 -0.3419  0.7045
39240SOL     OW21311   3.885   2.323   4.773 -0.0963  0.6045 -0.1025
39240SOL    HW121312   3.795   2.312   4.742  0.2001 -0.4627 -0.6131
39240SOL    HW221313   3.886   2.411   4.811 -1.3469  0.6395 -0.1027
39241SOL     OW21314   9.289   8.999   5.002 -0.0694 -0.6378  0.6663
39241SOL    HW121315   9.347   8.924   5.012 -1.2921 -2.0678 -1.9271
39241SOL    HW221316   9.329   9.051   4.933  0.3233  0.7026  1.8659
39242SOL     OW21317  10.187   3.144   3.509 -0.0462  0.3204 -0.3350
39242SOL    HW121318  10.132   3.220   3.490  0.8955  1.4380  1.0751
39242SOL    HW221319  10.251   3.177   3.573  0.7575 -1.5272 -0.1147
39243SOL     OW21320   4.248   5.266   7.584 -0.1361 -0.7974 -0.2083
39243SOL    HW121321   4.226   5.344   7.636  0.5559 -0.8515  0.1821
39243SOL    HW221322   4.169   5.212   7.587 -0.9830  0.3255 -1.3266
39244SOL     OW21323   1.456   8.974  10.088  0.4658 -0.6272 -0.3495
39244SOL    HW121324   1.404   8.911  10.138  1.1788 -0.1570  1.0309
39244SOL    HW221325   1.542   8.974  10.130  0.9061  0.2527 -1.1927
39245SOL     OW21326   7.120   6.993   6.242  0.3577 -0.2044  0.5362
39245SOL    HW121327   7.176   7.040   6.180  0.0651 -0.7625 -0.1597
39245SOL    HW221328   7.053   6.953   6.188 -1.2128  1.0994  1.4328
39246SOL     OW21329  10.021   2.192   0.592 -0.1561 -0.5941 -0.3145
39246SOL    HW121330   9.978   2.278   0.587 -2.2033 -1.5072  0.7282
39246SOL    HW221331  10.097   2.201   0.535  0.4807  2.3525  0.8033
39247SOL     OW21332   3.979   3.759   1.302  0.0871 -0.6141  0.4697
39247SOL    HW121333   3.965   3.768   1.207  0.7229  1.5973  0.5298
39247SOL    HW221334   4.051   3.696   1.309  0.0832 -0.7493 -0.5365
39248SOL     OW21335   5.752   0.031   2.542 -0.0538 -0.2903 -0.0040
39248SOL    HW121336   5.797   0.057   2.461 -1.8635  2.6115 -0.2316
39248SOL    HW221337   5.769   0.104   2.603 -1.3073 -0.9380  1.1756
39249SOL     OW21338   3.327   2.969  10.038  0.5969  0.3418  0.2057
39249SOL    HW121339   3.258   3.022  10.077  0.4875  0.9741 -0.8122
39249SOL    HW221340   3.398   2.970  10.103 -0.2717 -0.2041  1.2003
39250SOL     OW21341   7.852   2.037   3.228  0.0424 -0.0342  1.0456
39250SOL    HW121342   7.893   1.966   3.178  0.2524 -0.8427  2.3146
39250SOL    HW221343   7.835   2.105   3.163  2.5016 -0.0557  0.2674
39251SOL     OW21344   4.000   9.396   7.714 -0.1873 -0.3477 -0.3027
39251SOL    HW121345   3.915   9.352   7.722  0.0691 -0.7519  0.2379
39251SOL    HW221346   3.989   9.479   7.761 -0.0299 -0.7710  0.4879
39252SOL     OW21347   2.435   9.542   4.576 -0.3208 -0.2749  0.0294
39252SOL    HW121348   2.427   9.597   4.498  1.0137  1.0932  0.7915
39252SOL    HW221349   2.499   9.475   4.553 -1.2760 -0.9723 -0.6189
39253SOL     OW21350  10.869   2.602   9.934 -0.2712 -0.1909  0.4624
39253SOL    HW121351  10.805   2.645   9.991  1.1515  1.3820  0.9328
39253SOL    HW221352  10.875   2.659   9.858  0.8187 -0.1584  0.5692
39254SOL     OW21353   1.420   2.175   9.924 -0.1906  0.3032  0.1637
39254SOL    HW121354   1.344   2.230   9.942 -0.6573 -0.2321 -0.1177
39254SOL    HW221355   1.416   2.158   9.830  0.7386  0.9294  0.0010
39255SOL     OW21356   1.221   2.815   0.653  0.3784 -0.5919  0.4305
39255SOL    HW121357   1.272   2.873   0.710 -0.8264 -0.0015  0.9445
39255SOL    HW221358   1.285   2.779   0.592  1.5272 -0.4142  1.4821
39256SOL     OW21359   1.169   3.172   0.464 -0.0286  0.1237 -0.3557
39256SOL    HW121360   1.210   3.256   0.484  0.0921  0.1890 -0.8690
39256SOL    HW221361   1.133   3.142   0.548 -1.1091  1.2558 -0.3805
39257SOL     OW21362   8.707   8.865  10.520  0.7325 -0.3320  0.4101
39257SOL    HW121363   8.676   8.858  10.610  2.2035  0.4035  1.0024
39257SOL    HW221364   8.636   8.909  10.474 -0.1585 -0.9722  1.1302
39258SOL     OW21365   5.216  10.927   9.805 -0.0219 -0.3350 -0.3224
39258SOL    HW121366   5.180  10.838   9.811  1.3386 -0.8340  1.4378
39258SOL    HW221367   5.307  10.914   9.781  0.2300  0.5883  0.1105
39259SOL     OW21368   0.724   8.595  10.293 -0.0778  0.6311  0.1979
39259SOL    HW121369   0.634   8.594  10.325 -0.0946  2.0218  0.2152
39259SOL    HW221370   0.718   8.559  10.205 -0.4467 -0.5016  0.6666
39260SOL     OW21371   8.767   4.114  10.952  0.0068 -0.1828  0.6150
39260SOL    HW121372   8.698   4.149  10.896  0.8155  2.3790  1.0972
39260SOL    HW221373   8.800   4.037  10.905  0.1404  1.4199 -2.0950
39261SOL     OW21374   3.903   2.473   0.824 -0.0045  0.0962 -0.0351
39261SOL    HW121375   3.940   2.385   0.833 -0.2062 -0.4621 -3.5082
39261SOL    HW221376   3.978   2.532   0.836  0.5732 -0.6503  0.1138
39262SOL     OW21377   7.747   0.820   5.161  0.0528  0.0718 -0.4676
39262SOL    HW121378   7.670   0.774   5.126  0.1517  0.6174 -1.4410
39262SOL    HW221379   7.750   0.794   5.253 -1.2241 -0.0726 -0.4383
39263SOL     OW21380   7.040   6.875   2.204 -0.6476 -0.1511 -0.2794
39263SOL    HW121381   7.065   6.967   2.205 -0.9564 -0.0493  1.7945
39263SOL    HW221382   6.945   6.875   2.203 -0.6517 -0.4837 -1.1730
39264SOL     OW21383   6.882   3.329   4.988 -0.1700  0.1872 -0.4760
39264SOL    HW121384   6.946   3.304   4.922  0.3445 -1.0976  0.4734
39264SOL    HW221385   6.805   3.357   4.938  1.1307  1.8144 -1.6233
39265SOL     OW21386   9.115   5.501   7.217 -0.1582 -0.1118 -0.4785
39265SOL    HW121387   9.133   5.563   7.288 -0.4923  0.2907 -0.7379
39265SOL    HW221388   9.194   5.448   7.210  0.1927  0.3872 -0.3477
39266SOL     OW21389  10.354   6.488  10.468 -0.4143 -0.2449 -0.2973
39266SOL    HW121390  10.372   6.443  10.386 -2.5035  2.0463 -2.1936
39266SOL    HW221391  10.268   6.455  10.496 -1.3798  1.5004 -1.0384
39267SOL     OW21392   6.492   7.075   3.943 -0.0385 -0.6141  0.0382
39267SOL    HW121393   6.515   6.984   3.926 -1.0442 -0.6318 -1.3644
39267SOL    HW221394   6.430   7.072   4.016 -0.3227 -1.0839 -0.2229
39268SOL     OW21395  10.441   9.081   0.238  0.5526 -0.2305 -0.8573
39268SOL    HW121396  10.515   9.129   0.276 -0.7061 -0.5661  2.3061
39268SOL    HW221397  10.449   8.992   0.273 -0.7595 -0.5457 -1.3061
39269SOL     OW21398   6.380   9.226   3.868  1.0365 -0.6272  0.3742
39269SOL    HW121399   6.328   9.198   3.792 -0.0764  1.2134  0.4221
39269SOL    HW221400   6.441   9.291   3.832  0.4959  0.2610  1.0456
39270SOL     OW21401   8.356   3.691   9.399  0.4124  0.1659 -0.3066
39270SOL    HW121402   8.334   3.662   9.488 -1.1021 -0.5538 -0.8668
39270SOL    HW221403   8.438   3.738   9.409  1.4082 -1.7116  1.1645
39271SOL     OW21404   6.051   4.205   4.006  0.0345 -0.1683 -0.0918
39271SOL    HW121405   5.960   4.204   4.037 -0.7380 -1.9728 -2.1672
39271SOL    HW221406   6.085   4.118   4.025  1.8173  0.8509  1.7603
39272SOL     OW21407   6.282   6.643   4.992 -0.5726  0.8478  0.0329
39272SOL    HW121408   6.336   6.595   5.054 -0.5321 -0.8554 -1.2608
39272SOL    HW221409   6.193   6.638   5.028 -0.3986  0.7545  0.4587
39273SOL     OW21410   8.517   4.182   1.467 -0.1774 -0.2338 -0.3176
39273SOL    HW121411   8.568   4.126   1.525 -1.1118 -0.5444  0.2242
39273SOL    HW221412   8.441   4.129   1.442 -1.6792  1.1183  1.1093
39274SOL     OW21413   4.263   3.313   8.582 -0.0650 -0.3429  0.8388
39274SOL    HW121414   4.342   3.300   8.530 -0.5476  1.0221 -0.3093
39274SOL    HW221415   4.282   3.391   8.634 -0.7449  0.1377  0.3703
39275SOL     OW21416   6.325   2.714   9.274 -0.5463 -0.4253 -0.1060
39275SOL    HW121417   6.251   2.697   9.215 -1.1859 -0.8947  0.7827
39275SOL    HW221418   6.335   2.632   9.322  1.0864 -0.6247 -0.7554
39276SOL     OW21419   5.577   8.791   5.018 -0.7512  0.0503  0.2877
39276SOL    HW121420   5.582   8.696   5.006  1.9569  0.1144  0.4245
39276SOL    HW221421   5.519   8.802   5.093 -1.1790 -1.4890  0.2258
39277SOL     OW21422   9.269   2.795   3.428 -0.0605  0.4337  0.1461
39277SOL    HW121423   9.278   2.715   3.481 -1.1559 -1.0692 -1.8053
39277SOL    HW221424   9.347   2.796   3.373  0.1510  0.9444  0.4549
39278SOL     OW21425   4.273   0.300   8.965  0.5835  0.2200  0.0911
39278SOL    HW121426   4.202   0.239   8.985  0.7814  0.0391  0.2425
39278SOL    HW221427   4.333   0.251   8.910  0.0583  0.7081 -0.9496
39279SOL     OW21428   0.462   3.615  10.570 -0.3210  0.7522  0.3874
39279SOL    HW121429   0.396   3.660  10.622 -0.2246  0.6362  0.6090
39279SOL    HW221430   0.503   3.553  10.630 -1.6942 -0.9490 -0.3144
39280SOL     OW21431   7.771   2.088   6.170 -0.7658  0.3160 -0.2201
39280SOL    HW121432   7.703   2.039   6.123 -1.0028 -0.0719  0.5080
39280SOL    HW221433   7.790   2.035   6.247  0.8715  0.0809 -0.7486
39281SOL     OW21434   9.550   8.451   9.056 -0.7792 -0.5670  0.0107
39281SOL    HW121435   9.537   8.361   9.086 -0.4257 -0.6981 -0.2282
39281SOL    HW221436   9.510   8.453   8.969 -0.2370 -0.6643 -0.2457
39282SOL     OW21437   3.949   8.984   7.097 -0.2276 -0.2644 -0.0700
39282SOL    HW121438   3.988   9.018   7.178  0.1092 -1.5207  0.3197
39282SOL    HW221439   3.941   9.061   7.040 -0.1281  0.5718  1.0201
39283SOL     OW21440   5.078   3.749   9.181  0.1222 -0.2123 -0.0359
39283SOL    HW121441   5.138   3.739   9.255 -0.8868 -1.5453  0.6370
39283SOL    HW221442   5.009   3.807   9.215  0.2760  0.1411 -0.3268
39284SOL     OW21443   4.161   9.964   3.242 -0.2780 -0.1787  0.0416
39284SOL    HW121444   4.151   9.919   3.158 -0.3272 -1.0237  0.5018
39284SOL    HW221445   4.104   9.917   3.302 -0.5255  0.6525  0.4710
39285SOL     OW21446   5.657   3.866   7.703  0.2268 -0.0601 -0.2602
39285SOL    HW121447   5.607   3.938   7.742  1.3340  0.4035  0.3580
39285SOL    HW221448   5.667   3.802   7.773 -1.3982 -1.2222 -1.0093
39286SOL     OW21449   6.606   0.331   7.442 -0.3178  0.5090  0.1021
39286SOL    HW121450   6.551   0.366   7.372 -0.5861  1.0483  0.5711
39286SOL    HW221451   6.695   0.354   7.418 -0.5370  2.0902  0.7096
39287SOL     OW21452   5.934   1.565   1.283  0.1159 -0.1956  0.1126
39287SOL    HW121453   5.909   1.640   1.337 -0.4582  0.0478 -0.4774
39287SOL    HW221454   5.971   1.604   1.204 -0.0419 -0.5347 -0.1303
39288SOL     OW21455   8.925   1.053   6.274 -0.2355  0.3062 -0.0158
39288SOL    HW121456   8.875   1.134   6.278  0.8502  1.1651 -2.3833
39288SOL    HW221457   8.882   1.000   6.207  1.2893  0.5964 -1.2803
39289SOL     OW21458   4.440  10.623   8.210 -0.0319 -0.5941  0.0243
39289SOL    HW121459   4.504  10.640   8.140 -0.7956  0.1163 -0.5227
39289SOL    HW221460   4.473  10.673   8.284  1.1664 -1.9125  0.4289
39290SOL     OW21461   5.364   6.371   0.432 -0.1099  0.0908 -0.3761
39290SOL    HW121462   5.345   6.447   0.377 -0.3682 -0.0304 -0.4546
39290SOL    HW221463   5.449   6.339   0.401  0.7268  1.2322  0.6299
39291SOL     OW21464   3.525   1.314   4.743  0.4073  0.7120 -0.0185
39291SOL    HW121465   3.501   1.363   4.664 -1.5404 -1.2817 -0.7873
39291SOL    HW221466   3.552   1.228   4.711  0.9391  0.3093  1.4179
39292SOL     OW21467   7.283   5.960  10.090 -0.1228  0.3750  0.3467
39292SOL    HW121468   7.371   5.937  10.118 -0.4006 -0.0858  0.8529
39292SOL    HW221469   7.293   6.046  10.049  0.4170  0.7022  1.1536
39293SOL     OW21470   0.744   0.976   0.282  0.1947  0.8520  0.4074
39293SOL    HW121471   0.658   0.987   0.322  0.0898  1.7463 -0.0570
39293SOL    HW221472   0.761   1.059   0.237  0.2937 -0.1238 -1.4561
39294SOL     OW21473   4.444   9.026   9.264  0.6807  0.0413 -0.1598
39294SOL    HW121474   4.439   9.119   9.289  1.4107 -0.4817  2.1302
39294SOL    HW221475   4.445   9.028   9.168 -2.1201  2.2389 -0.2973
39295SOL     OW21476  10.750  10.848   6.836  0.0985 -0.2695 -0.5111
39295SOL    HW121477  10.743  10.882   6.747  1.7398  0.8387 -0.2598
39295SOL    HW221478  10.788  10.920   6.887 -0.4922 -0.9905  1.0204
39296SOL     OW21479  10.430   5.025   7.916 -0.2399 -0.4208  0.1836
39296SOL    HW121480  10.454   5.082   7.843  0.6134 -1.0873 -0.0715
39296SOL    HW221481  10.508   5.024   7.972  0.5854 -2.9903 -0.8842
39297SOL     OW21482   5.143   9.492   1.915  0.0860 -0.3200 -0.3712
39297SOL    HW121483   5.159   9.519   1.824  2.7848  3.0356  0.8713
39297SOL    HW221484   5.215   9.432   1.935 -0.3861 -0.8919 -0.3621
39298SOL     OW21485   6.279   0.399   6.835 -0.6963  0.2567  0.5775
39298SOL    HW121486   6.227   0.423   6.758  1.9435  0.9005 -1.1365
39298SOL    HW221487   6.305   0.308   6.820  1.1916  0.8760 -0.2116
39299SOL     OW21488   3.745   0.778   9.460  0.2067 -0.1000 -0.2949
39299SOL    HW121489   3.754   0.772   9.365 -1.3294 -1.1500 -0.4297
39299SOL    HW221490   3.735   0.687   9.489  1.4041  0.1393  0.9777
39300SOL     OW21491   6.863   6.196   1.239  0.1320 -0.0358  0.9790
39300SOL    HW121492   6.900   6.153   1.316  0.1358 -1.0066  0.4520
39300SOL    HW221493   6.877   6.134   1.168 -0.8506  0.3698  0.4089
39301SOL     OW21494   0.164   0.013   7.510 -0.1283 -0.7094  0.4909
39301SOL    HW121495   0.174   0.056   7.595 -0.4651 -0.9961  0.6782
39301SOL    HW221496   0.096  -0.053   7.524  1.1620 -2.1034  0.5256
39302SOL     OW21497   2.569   7.200   3.551 -0.2603 -0.0712 -0.1680
39302SOL    HW121498   2.518   7.281   3.549 -1.9185 -1.0638 -0.2420
39302SOL    HW221499   2.648   7.222   3.600 -0.5877  1.6199 -0.3384
39303SOL     OW21500   7.978   8.556   4.589 -0.3090  0.1764 -0.1455
39303SOL    HW121501   8.022   8.522   4.666 -2.0273 -0.1043  0.7729
39303SOL    HW221502   7.930   8.633   4.620 -1.4318 -0.2316 -0.8067
39304SOL     OW21503   9.823   5.055  10.298  0.1149  0.4080 -0.1893
39304SOL    HW121504   9.869   5.115  10.239 -0.6740  0.9412 -0.2777
39304SOL    HW221505   9.771   5.000  10.240 -0.6735  0.9417 -0.0052
39305SOL     OW21506  10.516   7.818   2.288  0.1633 -0.2239 -0.0658
39305SOL    HW121507  10.487   7.794   2.377 -0.2443  0.3076 -0.0465
39305SOL    HW221508  10.521   7.913   2.290 -0.6206 -0.1565 -0.8426
39306SOL     OW21509   6.475  10.033   7.633  0.6071 -0.4292  0.3056
39306SOL    HW121510   6.429  10.081   7.564  1.9476 -1.5306 -1.4488
39306SOL    HW221511   6.463  10.086   7.712 -1.5382  0.5347 -0.6096
39307SOL     OW21512   2.355   3.921   9.395  0.2614  0.3657 -0.4318
39307SOL    HW121513   2.405   3.839   9.391 -0.3638 -0.1076  0.8272
39307SOL    HW221514   2.294   3.916   9.322  0.6539  0.0004 -0.7398
39308SOL     OW21515   8.932   4.256  10.214 -0.2498 -0.5660 -0.2040
39308SOL    HW121516   9.020   4.279  10.244 -0.4815  0.6801 -0.4625
39308SOL    HW221517   8.890   4.219  10.292 -0.6392  2.0553  0.9085
39309SOL     OW21518  10.210   1.223   8.259  0.1287  0.6187 -0.0784
39309SOL    HW121519  10.131   1.234   8.205  2.0303  3.5654 -2.6159
39309SOL    HW221520  10.198   1.286   8.331  0.3489  1.4856 -0.7778
39310SOL     OW21521   2.067  10.154   8.908  0.0367 -0.2386 -0.1641
39310SOL    HW121522   2.111  10.101   8.841 -2.1625 -1.0501 -1.0404
39310SOL    HW221523   2.015  10.091   8.959  0.0478  0.6534  1.0022
39311SOL     OW21524  10.863   5.750   5.888 -0.3986 -0.3662  0.5526
39311SOL    HW121525  10.791   5.743   5.950 -0.1553 -2.3928  0.6969
39311SOL    HW221526  10.882   5.659   5.864  1.9612  0.1268  0.3529
39312SOL     OW21527   9.326   6.629   2.928 -0.1917 -0.1092  0.0029
39312SOL    HW121528   9.323   6.638   2.833 -0.0057  1.0251  0.0879
39312SOL    HW221529   9.374   6.548   2.944 -1.9557 -1.4016 -0.8818
39313SOL     OW21530   0.430   6.393   1.138 -0.4758  0.2259  0.2552
39313SOL    HW121531   0.393   6.309   1.114  0.8653 -0.7396  1.4131
39313SOL    HW221532   0.420   6.447   1.059 -3.3969 -0.2347  0.2011
39314SOL     OW21533   9.330   9.999   7.714 -0.7529  0.4520  0.1405
39314SOL    HW121534   9.411  10.028   7.756 -0.5059  0.5340 -0.3845
39314SOL    HW221535   9.280  10.080   7.701 -1.0958  0.3545  0.8224
39315SOL     OW21536   5.228  10.127   8.546  0.4175  0.4257  0.1914
39315SOL    HW121537   5.237  10.081   8.629 -0.1696  1.1416  0.6604
39315SOL    HW221538   5.160  10.078   8.498  0.6538  0.1003  0.1876
39316SOL     OW21539   5.472   1.313   1.511  0.2736 -0.0866 -0.2920
39316SOL    HW121540   5.473   1.292   1.605  2.3287 -0.3867 -0.3346
39316SOL    HW221541   5.559   1.349   1.494 -0.2034  0.3197 -2.0276
39317SOL     OW21542   2.220   2.958   8.439  0.4325  0.3108  0.4679
39317SOL    HW121543   2.148   2.895   8.450  0.9959 -0.2719  0.8986
39317SOL    HW221544   2.186   3.040   8.474 -0.0124  0.0342  0.6941
39318SOL     OW21545   9.562   5.960   9.384  0.5660 -0.3570  0.9604
39318SOL    HW121546   9.539   6.033   9.326 -2.0387 -1.5341  0.3766
39318SOL    HW221547   9.534   5.989   9.470 -1.6386 -1.0663  0.5356
39319SOL     OW21548  10.661  11.088   0.826 -0.1374  0.5688 -0.2291
39319SOL    HW121549  10.624  11.014   0.873 -1.5735  0.1584 -1.9052
39319SOL    HW221550  10.659  11.160   0.889  1.3428 -0.7715  1.4505
39320SOL     OW21551   9.485   7.475   4.165  0.0689  0.0138 -0.3246
39320SOL    HW121552   9.527   7.538   4.224 -1.2374  0.4590  0.1594
39320SOL    HW221553   9.419   7.526   4.118 -0.3711 -0.7973 -0.6067
39321SOL     OW21554   7.743   4.639   8.742  0.6029 -0.0087  0.5338
39321SOL    HW121555   7.662   4.686   8.763  0.8218  0.6699 -0.0800
39321SOL    HW221556   7.777   4.612   8.826 -2.3195 -3.9450  0.7189
39322SOL     OW21557   7.294   7.663   7.819  0.0879 -0.3680 -0.5432
39322SOL    HW121558   7.346   7.742   7.799 -0.1672 -0.6571 -2.5374
39322SOL    HW221559   7.233   7.656   7.745 -2.2927 -0.4887  1.3362
39323SOL     OW21560   5.652   4.701   0.542  0.1071 -0.1435  0.3049
39323SOL    HW121561   5.743   4.726   0.557  0.5317 -0.6291 -1.2629
39323SOL    HW221562   5.618   4.768   0.483 -0.0688 -0.8125 -0.3692
39324SOL     OW21563   6.697   5.124   9.307  0.0452  0.1614 -0.4961
39324SOL    HW121564   6.637   5.105   9.380  0.0365  0.2008 -0.4923
39324SOL    HW221565   6.680   5.054   9.243  1.3559 -0.9532  0.3183
39325SOL     OW21566   7.769   4.307   9.437  0.1181  0.1611 -0.2366
39325SOL    HW121567   7.804   4.396   9.434 -0.0361  0.2081 -0.9428
39325SOL    HW221568   7.796   4.269   9.353 -1.1339  0.0626 -0.6131
39326SOL     OW21569   0.847   2.090   7.887 -0.6646  0.2408 -0.1800
39326SOL    HW121570   0.868   2.180   7.911  1.5395 -0.5387  1.1537
39326SOL    HW221571   0.759   2.095   7.850  0.3606  3.3137 -2.6670
39327SOL     OW21572   2.574   0.160   9.162  0.6570 -0.3466  0.3466
39327SOL    HW121573   2.498   0.208   9.131  1.7020 -0.1972 -2.2825
39327SOL    HW221574   2.622   0.222   9.216  0.0183  0.2877  0.1873
39328SOL     OW21575   0.175   0.975   8.127 -1.0177 -0.2710  0.2461
39328SOL    HW121576   0.233   0.905   8.158  0.8404  1.1531  0.1959
39328SOL    HW221577   0.152   0.950   8.038 -1.0082 -1.1847  0.4963
39329SOL     OW21578  10.324   5.517   0.431 -0.0265 -0.0617 -0.0803
39329SOL    HW121579  10.407   5.507   0.385  0.3708 -1.1488  0.8217
39329SOL    HW221580  10.334   5.596   0.484 -0.1068  0.6054 -1.0464
39330SOL     OW21581  10.804   6.230   0.571 -0.4650  0.1370 -0.4880
39330SOL    HW121582  10.806   6.218   0.476 -0.8733  2.1416 -0.7923
39330SOL    HW221583  10.879   6.286   0.590  1.4762 -2.6700  0.8513
39331SOL     OW21584  10.480  10.753   7.329 -0.1910  0.1587 -0.4248
39331SOL    HW121585  10.538  10.822   7.296  0.6845  0.4991  1.6512
39331SOL    HW221586  10.540  10.691   7.372 -1.2793  0.1828  1.2205
39332SOL     OW21587   8.433   8.326   2.775 -0.5257  0.6903  0.1096
39332SOL    HW121588   8.509   8.377   2.747 -0.0667 -0.6281 -1.1836
39332SOL    HW221589   8.358   8.373   2.738 -0.0557  0.0383 -1.8200
39333SOL     OW21590   3.476   0.531   0.421 -0.9042 -0.0804 -0.2335
39333SOL    HW121591   3.523   0.530   0.504  0.1922  1.4350 -0.7845
39333SOL    HW221592   3.485   0.442   0.387 -1.7107 -0.8232  1.4208
39334SOL     OW21593  10.339   9.639   1.169 -0.7691  1.0094 -0.5122
39334SOL    HW121594  10.294   9.657   1.087  1.9603  4.2850 -1.5044
39334SOL    HW221595  10.426   9.609   1.144 -0.1390  1.2518  1.2191
39335SOL     OW21596   1.552   6.806  10.010  0.1787  0.0106 -0.4293
39335SOL    HW121597   1.579   6.751  10.084  0.9552  1.3487  0.3210
39335SOL    HW221598   1.457   6.809  10.016  0.1984 -0.3503  0.1974
39336SOL     OW21599  10.506   7.390   6.690 -0.4326  0.6592  0.0879
39336SOL    HW121600  10.462   7.353   6.767 -0.4881 -1.1964 -0.7885
39336SOL    HW221601  10.449   7.367   6.617 -0.7323  3.0015 -0.4890
39337SOL     OW21602   7.474   3.379   8.840 -0.5337 -0.1283 -0.4250
39337SOL    HW121603   7.380   3.380   8.859 -0.5948  1.6057 -0.7053
39337SOL    HW221604   7.496   3.469   8.818  1.1946 -0.5122 -0.4585
39338SOL     OW21605   2.889   1.910   4.190 -0.4196  0.0712  0.1439
39338SOL    HW121606   2.892   1.824   4.148 -1.0680  1.8912 -4.1268
39338SOL    HW221607   2.976   1.947   4.175 -0.4590  0.5880  1.0821
39339SOL     OW21608   6.394   7.053   3.473  0.4984  0.8826  0.0549
39339SOL    HW121609   6.458   7.051   3.545  1.1516  0.0998 -0.5307
39339SOL    HW221610   6.364   6.962   3.465 -1.3753  1.3729  0.8968
39340SOL     OW21611   7.973   6.833   7.385  0.0523 -0.0918  0.0213
39340SOL    HW121612   8.023   6.822   7.305 -2.6521 -0.9410 -1.6782
39340SOL    HW221613   7.975   6.747   7.427  2.4315  0.6290  1.6016
39341SOL     OW21614  10.879   2.154   1.560  0.5223  1.0705  0.2740
39341SOL    HW121615  10.931   2.100   1.500 -0.7676  1.6196 -1.4310
39341SOL    HW221616  10.913   2.133   1.647  3.0751  0.8792 -0.6771
39342SOL     OW21617   3.742   2.018   2.133 -0.3093 -0.1949  0.5661
39342SOL    HW121618   3.682   2.058   2.069  0.8515  1.9157  0.6926
39342SOL    HW221619   3.721   1.925   2.130 -2.9494  0.3286 -0.0399
39343SOL     OW21620   6.610   6.917  10.691 -0.1637 -0.0591 -0.1427
39343SOL    HW121621   6.519   6.947  10.690 -0.4880 -1.0109 -0.2230
39343SOL    HW221622   6.631   6.901  10.599  0.9176  2.4886 -0.4326
39344SOL     OW21623  10.213   2.789  11.018 -0.3049  0.0296  0.4228
39344SOL    HW121624  10.229   2.716  11.078  0.8477  0.5445  0.7608
39344SOL    HW221625  10.283   2.852  11.037  0.1597  0.1645 -1.5361
39345SOL     OW21626   2.175   2.235   4.693  0.4005  0.1305  0.2064
39345SOL    HW121627   2.199   2.222   4.601  0.4133 -1.9939  0.4651
39345SOL    HW221628   2.159   2.329   4.701  1.9075  0.5868 -1.5970
39346SOL     OW21629   8.213   7.487   9.640 -0.6759  0.5510  0.2265
39346SOL    HW121630   8.157   7.546   9.690 -0.7788  0.4102  0.2794
39346SOL    HW221631   8.244   7.539   9.566  0.7044  1.2354  1.2492
39347SOL     OW21632   5.533   0.256   0.099 -0.3455  0.1990 -0.5813
39347SOL    HW121633   5.495   0.243   0.012  1.8075  0.4976 -1.6325
39347SOL    HW221634   5.500   0.183   0.151 -0.7763 -0.6407 -1.9723
39348SOL     OW21635   7.329   7.208   1.665 -0.2393  0.8397  0.0256
39348SOL    HW121636   7.282   7.261   1.729  0.4987  0.4245  0.9266
39348SOL    HW221637   7.269   7.202   1.590 -0.0395  3.6198 -0.4782
39349SOL     OW21638  10.626   7.993   9.029  0.1768  0.2073  0.1164
39349SOL    HW121639  10.702   8.035   9.069 -0.5982  0.6522  1.1751
39349SOL    HW221640  10.603   7.923   9.090  0.3259 -0.5571 -0.6954
39350SOL     OW21641  11.079   0.340   4.845 -0.4919 -0.1887  0.1754
39350SOL    HW121642  11.169   0.371   4.851 -0.0497 -1.3636 -0.0115
39350SOL    HW221643  11.065   0.291   4.927 -0.4206 -1.3126 -0.4610
39351SOL     OW21644   6.531   7.873  10.742 -0.2135 -0.5042 -0.3706
39351SOL    HW121645   6.478   7.900  10.667  1.6265  1.6197 -1.0203
39351SOL    HW221646   6.567   7.955  10.777  0.3485 -1.5986  1.7974
39352SOL     OW21647   9.126   7.558   4.469 -0.2089  0.2924 -0.2003
39352SOL    HW121648   9.198   7.621   4.464 -0.9980  1.1887 -0.4489
39352SOL    HW221649   9.059   7.592   4.410 -2.1077  1.1607  2.2801
39353SOL     OW21650   2.243   1.077   0.238  0.2136 -0.3662 -0.3627
39353SOL    HW121651   2.231   1.171   0.236  1.4870 -0.0739  1.9916
39353SOL    HW221652   2.306   1.059   0.168 -0.4275  0.4457 -1.1587
39354SOL     OW21653   8.988   5.479   5.191 -0.1133 -0.4196 -0.2638
39354SOL    HW121654   8.955   5.489   5.101  0.1694  1.0008 -0.2345
39354SOL    HW221655   9.045   5.555   5.204 -0.0992 -0.6403  1.1001
39355SOL     OW21656   3.844   2.557   4.915  0.4385 -0.1947 -0.6839
39355SOL    HW121657   3.932   2.577   4.883 -0.1195  0.4613 -1.8726
39355SOL    HW221658   3.804   2.642   4.931 -0.4890 -0.4489 -1.5893
39356SOL     OW21659   6.356   0.802   0.139 -0.1092 -0.0552 -0.0586
39356SOL    HW121660   6.271   0.799   0.093  0.1095  0.5395 -0.5167
39356SOL    HW221661   6.348   0.877   0.198 -0.2486 -0.5897  0.6159
39357SOL     OW21662   9.759   5.280  10.914  0.2696 -0.1105  0.1434
39357SOL    HW121663   9.664   5.282  10.903  0.0116 -2.0363  1.5070
39357SOL    HW221664   9.786   5.371  10.905 -1.8654  0.6674  0.9430
39358SOL     OW21665   2.599  11.108   1.552  0.1850  0.4036  0.7363
39358SOL    HW121666   2.550  11.029   1.527  0.8216  0.2210  0.0274
39358SOL    HW221667   2.546  11.149   1.620 -0.0869 -0.7198  1.2225
39359SOL     OW21668   3.948   5.457   0.288 -0.2080  0.4603  0.6885
39359SOL    HW121669   3.959   5.530   0.227  2.1797  0.5575  1.1502
39359SOL    HW221670   4.001   5.482   0.365  1.4643 -2.1164  0.4881
39360SOL     OW21671   5.644   5.811  10.587  0.1422 -0.0887 -0.0684
39360SOL    HW121672   5.662   5.725  10.550 -0.4356  0.1645 -0.9536
39360SOL    HW221673   5.634   5.795  10.681 -1.1297 -1.1857 -0.3676
39361SOL     OW21674   8.333   1.755   9.834 -0.5317 -0.4471  0.7467
39361SOL    HW121675   8.310   1.715   9.918  1.1169  1.5037  2.2419
39361SOL    HW221676   8.283   1.837   9.833  0.4040  0.1240  0.4129
39362SOL     OW21677   9.819   6.960  10.005  0.0544  0.1269  0.0701
39362SOL    HW121678   9.804   6.963  10.100  2.1424 -0.4774  0.4688
39362SOL    HW221679   9.749   7.014   9.969 -0.1622  1.2755  2.0338
39363SOL     OW21680   1.885  10.086   0.958  0.2462 -0.0793 -0.2933
39363SOL    HW121681   1.842  10.111   1.040  1.8263  2.0401 -0.0322
39363SOL    HW221682   1.950  10.021   0.984  0.6515  0.4897  0.1447
39364SOL     OW21683   6.001   4.692   0.127 -0.9241  0.8809 -0.5106
39364SOL    HW121684   5.935   4.626   0.149 -1.6580  1.3127 -1.3416
39364SOL    HW221685   6.085   4.646   0.134 -1.3988 -0.0598 -0.8080
39365SOL     OW21686   0.586   4.258   4.264  0.0599  0.0337  0.1526
39365SOL    HW121687   0.618   4.332   4.316  0.2596 -0.6162  0.9715
39365SOL    HW221688   0.514   4.295   4.212 -1.5114  0.2829  2.3722
39366SOL     OW21689   3.844  10.184   1.932 -0.1620  0.8383 -0.3660
39366SOL    HW121690   3.792  10.181   2.012 -0.0359  0.8264 -0.2844
39366SOL    HW221691   3.790  10.141   1.867  1.0465 -2.1548  0.4474
39367SOL     OW21692   0.850   4.815   8.144  0.6545  0.1299 -0.0653
39367SOL    HW121693   0.933   4.774   8.169  0.5423  0.2584  0.5391
39367SOL    HW221694   0.847   4.896   8.195 -0.2118 -0.2694  0.5516
39368SOL     OW21695  10.051   0.713   9.917  0.1322 -0.2580 -0.2299
39368SOL    HW121696  10.074   0.628   9.956 -0.7088 -0.8235 -0.9499
39368SOL    HW221697   9.958   0.706   9.896  0.2910  0.4843 -1.2273
39369SOL     OW21698   0.283   9.934   7.417  0.1395 -0.1279  0.7084
39369SOL    HW121699   0.215   9.866   7.412 -1.3271  1.3699 -1.5926
39369SOL    HW221700   0.363   9.886   7.438 -0.9647 -2.4711 -0.1002
39370SOL     OW21701   1.869   0.688   1.358  0.0197 -0.0974 -0.0983
39370SOL    HW121702   1.910   0.607   1.329  0.6755  0.0928  0.2942
39370SOL    HW221703   1.776   0.675   1.341  0.2336 -0.5362 -0.9866
39371SOL     OW21704  10.087  10.331   1.773  0.2224  0.0522 -0.3418
39371SOL    HW121705  10.165  10.319   1.829  0.4882 -1.0952 -0.9278
39371SOL    HW221706  10.030  10.258   1.797 -1.3911  1.7141  1.1628
39372SOL     OW21707   1.221   8.272   0.580 -0.2832 -0.9977  0.1429
39372SOL    HW121708   1.129   8.299   0.583  0.0492  0.3075 -0.6371
39372SOL    HW221709   1.270   8.354   0.585  0.9623 -1.7773  3.3914
39373SOL     OW21710   2.147   0.998   2.554 -0.0470  0.2494 -0.2935
39373SOL    HW121711   2.117   0.955   2.473 -3.2042 -0.6771  1.2058
39373SOL    HW221712   2.120   1.090   2.543  0.1341  0.2686 -0.5754
39374SOL     OW21713   6.385   1.135   6.978 -0.2975  0.2691  0.1411
39374SOL    HW121714   6.405   1.109   7.067 -1.0029 -0.3528  0.1331
39374SOL    HW221715   6.289   1.132   6.973 -0.2365 -1.1862 -1.0456
39375SOL     OW21716   5.546   7.183   1.177 -0.5510  0.5833 -0.6456
39375SOL    HW121717   5.543   7.089   1.196  1.6985  0.4694 -0.5739
39375SOL    HW221718   5.521   7.224   1.260 -1.7541  0.0732 -0.7338
39376SOL     OW21719   1.888   1.782   1.257 -0.3638  0.0778 -0.3962
39376SOL    HW121720   1.943   1.766   1.333  1.5287  3.9530 -0.7413
39376SOL    HW221721   1.915   1.715   1.194  1.6844 -0.1147  0.6006
39377SOL     OW21722   1.488   9.862  11.014  0.5727 -0.8738 -0.0888
39377SOL    HW121723   1.452   9.940  11.058  1.1709  0.0513 -1.1842
39377SOL    HW221724   1.582   9.881  11.007  0.7950 -1.9058  0.0312
39378SOL     OW21725   8.069   1.923   7.851 -0.0623  0.1497  0.2206
39378SOL    HW121726   8.049   1.924   7.945  1.1468 -0.1960  0.5046
39378SOL    HW221727   8.142   1.861   7.843 -0.4136 -0.1360 -1.0122
39379SOL     OW21728   9.511  10.443  10.583  0.2753 -0.1905  0.4873
39379SOL    HW121729   9.477  10.374  10.527 -2.5080  1.4139 -0.0113
39379SOL    HW221730   9.442  10.457  10.648  1.7445  0.6060  1.9513
39380SOL     OW21731   7.185  10.602   0.413 -0.1908 -0.8375  0.2664
39380SOL    HW121732   7.227  10.562   0.489 -0.3489 -2.9850 -0.7124
39380SOL    HW221733   7.181  10.695   0.435  5.2984 -0.3025  0.2981
39381SOL     OW21734   8.299   7.632   0.673 -0.1518  0.2923 -0.0463
39381SOL    HW121735   8.213   7.671   0.685 -0.1217  0.4207 -0.2576
39381SOL    HW221736   8.297   7.553   0.728 -0.5823  0.0212 -0.4397
39382SOL     OW21737   8.817   1.444   1.940  0.5105 -0.1280  0.5761
39382SOL    HW121738   8.772   1.389   2.003 -0.4937 -1.1394 -0.9555
39382SOL    HW221739   8.749   1.471   1.878  1.7191 -0.4746 -0.9699
39383SOL     OW21740   7.621   6.019   7.074 -0.3937  0.1980 -0.6044
39383SOL    HW121741   7.601   5.996   7.164 -0.2632  1.1036 -0.3353
39383SOL    HW221742   7.699   6.073   7.080  0.9820 -1.5817 -1.4656
39384SOL     OW21743  11.030   2.000   2.895  0.5545  0.5915 -0.6549
39384SOL    HW121744  11.020   1.956   2.810 -1.2140  0.4034 -0.3801
39384SOL    HW221745  10.950   2.051   2.905  0.0643 -0.4819  1.5003
39385SOL     OW21746   9.593   6.010   4.084  0.7401  0.6143  0.4806
39385SOL    HW121747   9.606   6.040   4.174 -0.4612  0.0446  0.8618
39385SOL    HW221748   9.674   5.965   4.062  0.3705 -0.8560  1.9435
39386SOL     OW21749   8.689   8.006   7.956  0.4164  0.2202 -0.5040
39386SOL    HW121750   8.725   7.948   8.023  3.0015  3.4830  1.2303
39386SOL    HW221751   8.594   7.991   7.960  0.7597 -2.0895  1.4973
39387SOL     OW21752   9.066   9.652   4.068  0.9506  0.3319 -0.5863
39387SOL    HW121753   9.116   9.591   4.122  0.7964 -0.5480 -1.4151
39387SOL    HW221754   9.013   9.596   4.010 -0.1947  1.2392 -0.4669
39388SOL     OW21755   8.669   2.726   0.131  0.0649 -0.6938 -0.6635
39388SOL    HW121756   8.604   2.665   0.165  0.8623 -1.4686 -0.5211
39388SOL    HW221757   8.724   2.674   0.073 -0.8031  0.4303 -2.6187
39389SOL     OW21758   1.965   0.881   4.166 -0.2611  0.0014  0.1084
39389SOL    HW121759   1.888   0.858   4.218 -1.2056  0.7311 -0.9087
39389SOL    HW221760   1.929   0.919   4.085  1.1336  2.2718  0.4461
39390SOL     OW21761   5.434   8.772   3.880  0.5851 -0.3959  0.4209
39390SOL    HW121762   5.396   8.859   3.869 -1.8901 -1.2285  1.5729
39390SOL    HW221763   5.475   8.774   3.966  0.9854 -0.2271  0.2281
39391SOL     OW21764   1.614   9.553   2.934  0.3508 -0.6078  0.0616
39391SOL    HW121765   1.594   9.508   2.851 -0.4254 -0.8346  0.3620
39391SOL    HW221766   1.543   9.527   2.993 -0.3500  1.3181  0.1307
39392SOL     OW21767  10.921   6.800   7.153 -0.1801  0.2426 -0.5639
39392SOL    HW121768  10.851   6.805   7.218  0.7573 -1.0789  0.6077
39392SOL    HW221769  10.914   6.711   7.117  1.5684 -0.3473  0.4284
39393SOL     OW21770   7.024   8.691   4.019 -0.4635 -0.6613  0.3446
39393SOL    HW121771   7.109   8.705   4.061 -0.6477 -1.1205  0.8838
39393SOL    HW221772   7.044   8.640   3.941 -0.0891  0.3973 -0.2769
39394SOL     OW21773  10.962   8.461   0.603  0.0468 -0.5788  0.0033
39394SOL    HW121774  10.880   8.423   0.634 -0.2566 -0.7404 -0.9758
39394SOL    HW221775  10.998   8.506   0.680 -1.1508 -0.1672  0.3357
39395SOL     OW21776  10.269   2.704  10.070 -0.3786 -0.6404 -0.1126
39395SOL    HW121777  10.236   2.764  10.137  0.9952 -0.5498  0.5131
39395SOL    HW221778  10.324   2.643  10.118 -1.1862 -1.9877 -0.8564
39396SOL     OW21779   3.667   4.822   0.295  0.3769 -0.0355  0.1798
39396SOL    HW121780   3.753   4.840   0.333 -0.2584  1.7892  0.8628
39396SOL    HW221781   3.605   4.841   0.365 -0.7177  1.3467 -1.1035
39397SOL     OW21782   1.299   8.030   7.395  0.3915 -0.6163 -0.4053
39397SOL    HW121783   1.309   7.983   7.313 -2.6442 -2.2362 -0.0168
39397SOL    HW221784   1.250   8.109   7.371 -1.5150 -1.6396 -0.1374
39398SOL     OW21785   3.372   8.224   9.488  0.2305 -1.1055 -0.7391
39398SOL    HW121786   3.467   8.227   9.479  0.2083 -1.4394 -1.1104
39398SOL    HW221787   3.342   8.167   9.417 -0.0950 -2.4536  0.4517
39399SOL     OW21788   5.178   4.229   3.895 -0.4270 -0.5278 -0.1957
39399SOL    HW121789   5.130   4.224   3.812 -1.1120 -1.9319  0.2535
39399SOL    HW221790   5.171   4.321   3.921  0.2534  0.0596 -1.9362
39400SOL     OW21791   1.013   9.836   7.348  0.3136 -0.3967  0.1279
39400SOL    HW121792   0.986   9.810   7.260 -0.9393 -1.0568  0.6822
39400SOL    HW221793   1.008   9.755   7.399  1.2848 -0.0764  0.7611
39401SOL     OW21794   3.545   0.229  10.024 -0.0223 -0.0993  0.1022
39401SOL    HW121795   3.453   0.203  10.031 -0.2418  0.5795 -0.1319
39401SOL    HW221796   3.556   0.253   9.932  0.4034 -0.2367  0.1176
39402SOL     OW21797   9.834   6.163   8.291  0.3632  0.4356  0.0406
39402SOL    HW121798   9.865   6.104   8.359 -0.3166  0.4806  0.4045
39402SOL    HW221799   9.754   6.201   8.328  0.2422  0.8134 -0.5988
39403SOL     OW21800   1.515   0.358   4.287  0.5965 -0.1798 -0.2000
39403SOL    HW121801   1.442   0.405   4.248  0.4644  0.3884  0.7228
39403SOL    HW221802   1.542   0.296   4.219 -0.4521 -0.0963 -0.7139
39404SOL     OW21803   4.190   8.417   4.924 -0.5002 -0.1638  0.0177
39404SOL    HW121804   4.109   8.389   4.881 -0.1679 -0.3881 -0.4658
39404SOL    HW221805   4.260   8.383   4.869 -0.0727  0.2247  0.3103
39405SOL     OW21806   3.405   6.891   3.822 -0.3317  0.2337  0.1162
39405SOL    HW121807   3.425   6.974   3.779  0.6968  0.2262  0.5519
39405SOL    HW221808   3.475   6.881   3.887 -0.0716 -1.2840 -0.3706
39406SOL     OW21809   3.800   9.764   3.915  0.3452  0.3534  0.1518
39406SOL    HW121810   3.807   9.778   3.821 -0.1037 -1.3638 -0.1567
39406SOL    HW221811   3.890   9.753   3.944  0.4815  0.8379 -0.0659
39407SOL     OW21812   1.509   0.170   0.169  1.1077  0.5110 -0.0127
39407SOL    HW121813   1.601   0.194   0.181  1.0684  0.9452 -0.5239
39407SOL    HW221814   1.476   0.155   0.257  0.9760  2.9505  0.4193
39408SOL     OW21815   4.005   9.435   6.312 -0.1195 -0.0553  0.2219
39408SOL    HW121816   3.912   9.454   6.317 -0.3066 -0.4918 -1.2501
39408SOL    HW221817   4.011   9.341   6.331  0.1129  0.1118  1.0252
39409SOL     OW21818   2.755   2.571   9.252 -0.0019  0.2557 -0.2225
39409SOL    HW121819   2.832   2.527   9.287 -0.9054 -0.2562  1.2559
39409SOL    HW221820   2.745   2.536   9.164  1.7447  0.7485 -0.6468
39410SOL     OW21821   4.179  10.330   2.160  0.4288  0.0541 -0.3091
39410SOL    HW121822   4.198  10.298   2.248 -1.4983  0.3057  0.2392
39410SOL    HW221823   4.087  10.356   2.163  0.1138 -0.5759 -2.5944
39411SOL     OW21824   7.441   5.358   8.252 -0.2882  0.0338  0.3376
39411SOL    HW121825   7.391   5.277   8.247  1.0206 -0.8789  1.1936
39411SOL    HW221826   7.496   5.358   8.174  0.0625 -0.1610  0.5813
39412SOL     OW21827   8.216   3.337   7.345 -0.3517 -0.0774 -0.3768
39412SOL    HW121828   8.179   3.423   7.325 -0.0141  0.0435 -0.4954
39412SOL    HW221829   8.140   3.281   7.363 -0.5546  0.3717  0.2178
39413SOL     OW21830   7.757  10.220   1.037  0.2553 -0.0365 -0.0795
39413SOL    HW121831   7.682  10.274   1.011  1.3308  1.7360  0.3146
39413SOL    HW221832   7.757  10.148   0.975 -1.5191  0.1456 -0.3532
39414SOL     OW21833  11.071  10.211   7.225 -0.5127 -0.4675  0.2811
39414SOL    HW121834  11.085  10.179   7.314 -0.6443 -0.2631  0.3786
39414SOL    HW221835  11.120  10.151   7.169 -0.5679 -0.6964  0.4779
39415SOL     OW21836   5.166   9.793   4.112  0.0534 -0.0067 -0.1218
39415SOL    HW121837   5.083   9.774   4.157 -0.7004  0.9318 -1.0398
39415SOL    HW221838   5.140   9.811   4.022  0.9502  2.5604  0.0451
39416SOL     OW21839   9.716   8.458   8.429 -0.0888  0.3806  0.5743
39416SOL    HW121840   9.665   8.473   8.509 -3.3828 -0.6710 -1.1480
39416SOL    HW221841   9.679   8.520   8.366  0.0822 -1.0505 -1.0045
39417SOL     OW21842   4.055   9.081   2.864  0.4179  0.3201  0.8817
39417SOL    HW121843   4.037   9.035   2.946 -0.0467 -0.0479  0.5816
39417SOL    HW221844   4.006   9.032   2.798  2.0594 -0.3542  0.1095
39418SOL     OW21845   0.555   3.086   1.108 -0.1285  0.0767 -0.0140
39418SOL    HW121846   0.529   3.169   1.067 -0.1975  0.0748  0.0241
39418SOL    HW221847   0.591   3.034   1.037 -1.8748 -0.6070 -0.4522
39419SOL     OW21848  10.534   0.332  10.673 -0.0696 -0.3409 -0.5602
39419SOL    HW121849  10.482   0.336  10.593 -0.2145  0.6366 -0.4407
39419SOL    HW221850  10.616   0.376  10.650  0.2889 -0.9422 -0.4487
39420SOL     OW21851   6.085   6.624   9.350  0.0013  0.2506  0.0358
39420SOL    HW121852   6.027   6.644   9.423 -0.3948  1.3736 -0.5609
39420SOL    HW221853   6.173   6.625   9.388 -0.0693  2.2704  0.2745
39421SOL     OW21854   1.735   9.613   3.454 -0.1441 -0.4511 -0.3571
39421SOL    HW121855   1.662   9.600   3.514 -0.8167  1.3977 -0.7106
39421SOL    HW221856   1.805   9.557   3.489 -0.7943 -0.0956  1.6555
39422SOL     OW21857   4.375   7.943   6.685  0.1011 -0.7302 -0.0579
39422SOL    HW121858   4.448   7.961   6.744  0.7752  2.7257 -1.6974
39422SOL    HW221859   4.348   8.030   6.653 -1.8534 -2.2089 -2.8710
39423SOL     OW21860   7.472   0.040   8.159 -0.0662 -0.3315  0.1599
39423SOL    HW121861   7.499  -0.037   8.208  2.0223  1.1592  1.5205
39423SOL    HW221862   7.384   0.060   8.192  0.4562 -0.5869  1.7688
39424SOL     OW21863   6.149   7.191   2.959 -0.5481  0.0421 -0.2245
39424SOL    HW121864   6.170   7.160   3.047  0.2955 -1.7551 -1.0050
39424SOL    HW221865   6.177   7.119   2.902 -2.6047  0.4490 -1.8395
39425SOL     OW21866   8.540   6.905   9.575  0.5250  0.4976 -0.3508
39425SOL    HW121867   8.628   6.933   9.599  0.3011  2.3465 -1.5244
39425SOL    HW221868   8.550   6.865   9.488  0.4996 -1.2480  0.4085
39426SOL     OW21869   2.685   4.409   7.045 -0.0372  0.2593  0.9204
39426SOL    HW121870   2.744   4.424   7.120  1.0822  1.2490 -0.1128
39426SOL    HW221871   2.686   4.492   6.997  0.4343 -0.7923 -0.9917
39427SOL     OW21872   6.816   7.932   3.988  0.2552  0.7716  0.4247
39427SOL    HW121873   6.870   7.869   3.940  0.3140  0.9348  0.2759
39427SOL    HW221874   6.739   7.945   3.932 -0.4570 -0.2764  1.1294
39428SOL     OW21875   4.228   5.741   7.957 -0.1243  0.0145  0.3248
39428SOL    HW121876   4.163   5.784   7.900 -0.9183 -0.4783  0.8422
39428SOL    HW221877   4.285   5.812   7.985  0.4819  0.2194 -1.3372
39429SOL     OW21878   4.585   2.434   8.675  0.1640  0.3794  0.1744
39429SOL    HW121879   4.588   2.402   8.765  0.4489  1.6514  0.6437
39429SOL    HW221880   4.668   2.479   8.662  0.4077 -0.3661 -0.9607
39430SOL     OW21881   1.028   5.703   8.886  0.2705 -0.1954  0.0948
39430SOL    HW121882   0.968   5.768   8.848  0.1896  0.7874  1.8428
39430SOL    HW221883   1.048   5.645   8.812  1.0833  2.2952 -1.8002
39431SOL     OW21884   6.535   7.015   0.233 -0.8053 -0.0221  0.0506
39431SOL    HW121885   6.612   6.963   0.211 -1.6966 -1.1924 -0.3743
39431SOL    HW221886   6.502   7.045   0.148 -0.1271  1.5577  0.2963
39432SOL     OW21887   2.222   6.740   4.533 -0.2995 -0.3280 -0.3916
39432SOL    HW121888   2.205   6.800   4.606 -1.7803 -2.1492  0.8415
39432SOL    HW221889   2.214   6.795   4.455 -0.8353  1.2426  0.7187
39433SOL     OW21890   1.398   5.897   2.339  0.2759 -0.0650 -0.1068
39433SOL    HW121891   1.426   5.806   2.350  0.9942 -0.1188 -1.9971
39433SOL    HW221892   1.302   5.892   2.340  0.2969 -0.9335 -0.7006
39434SOL     OW21893   9.591   5.225   6.168  0.4934 -0.4192  1.0140
39434SOL    HW121894   9.633   5.280   6.102 -1.1422 -2.2798 -1.8187
39434SOL    HW221895   9.661   5.170   6.202  1.5707  1.3052  1.6919
39435SOL     OW21896   4.222   5.197   5.508  0.5119 -0.1444 -0.5563
39435SOL    HW121897   4.214   5.252   5.586 -0.0699 -2.4667  1.0974
39435SOL    HW221898   4.297   5.234   5.461  0.7340  1.4518  0.9615
39436SOL     OW21899   0.886  10.229   1.311  0.0492  0.3780  0.2530
39436SOL    HW121900   0.902  10.253   1.402 -0.0086 -0.1392  0.4018
39436SOL    HW221901   0.793  10.249   1.297  0.0233  0.3234  0.3488
39437SOL     OW21902   3.482   2.521   3.731  0.3804 -0.4164 -0.4011
39437SOL    HW121903   3.546   2.592   3.725  1.5730 -1.2663  1.5569
39437SOL    HW221904   3.419   2.550   3.797  0.6433 -0.9950  0.1102
39438SOL     OW21905   5.773   9.358   5.995 -0.2348  0.0026 -0.4072
39438SOL    HW121906   5.752   9.444   6.032 -0.1319 -0.3001  0.3846
39438SOL    HW221907   5.868   9.352   6.003 -0.0864  0.3770 -1.7415
39439SOL     OW21908   4.336   7.491   9.151 -0.3592  0.4668 -0.2392
39439SOL    HW121909   4.312   7.487   9.243 -0.4580  0.9011 -0.2456
39439SOL    HW221910   4.361   7.582   9.136  0.6489  0.1820 -0.3900
39440SOL     OW21911   6.426   9.746   5.449 -0.0783 -0.3881 -0.4316
39440SOL    HW121912   6.461   9.807   5.384 -0.1114  0.1893  0.0808
39440SOL    HW221913   6.458   9.779   5.533 -0.9616 -0.4773 -0.0487
39441SOL     OW21914   3.278   4.624   3.863 -0.2328  0.9065 -0.0374
39441SOL    HW121915   3.213   4.554   3.867 -1.3199  1.9140  1.0606
39441SOL    HW221916   3.289   4.641   3.769  0.2314 -0.8503 -0.3352
39442SOL     OW21917   5.968   6.103   5.423  0.6523 -0.5176 -0.0935
39442SOL    HW121918   5.955   6.132   5.513 -0.1418 -0.1864 -0.3031
39442SOL    HW221919   5.881   6.072   5.395  0.2710  1.6415 -1.5382
39443SOL     OW21920   6.994   9.918   5.211  0.0809  0.2876  0.5112
39443SOL    HW121921   6.941   9.994   5.187 -0.1543  1.0594  3.0614
39443SOL    HW221922   6.932   9.857   5.252  0.5171 -0.6236 -0.1502
39444SOL     OW21923   3.424   2.253   1.568 -0.1069 -0.4275 -0.3358
39444SOL    HW121924   3.495   2.282   1.510  1.1295  0.8010  1.6860
39444SOL    HW221925   3.395   2.332   1.612 -0.1455 -1.4717  1.6162
39445SOL     OW21926   0.154   2.693   2.635  0.2636 -0.3099  0.2101
39445SOL    HW121927   0.095   2.662   2.704 -0.0387  0.6308  0.3939
39445SOL    HW221928   0.124   2.649   2.556 -0.8065  0.2608  0.2686
39446SOL     OW21929   3.798   1.493   7.079 -0.4078  0.3518  0.2251
39446SOL    HW121930   3.789   1.475   7.173  1.7673 -3.4925 -0.0779
39446SOL    HW221931   3.879   1.543   7.072  0.8831 -1.5697  0.3918
39447SOL     OW21932   1.055   1.614   5.675  0.4417  0.4488 -0.0621
39447SOL    HW121933   1.086   1.705   5.685 -0.1627  0.5873  0.6712
39447SOL    HW221934   1.046   1.583   5.765  0.5288 -0.3056 -0.3137
39448SOL     OW21935  11.105   0.750   8.351 -0.0327 -0.1434  0.7078
39448SOL    HW121936  11.029   0.729   8.405 -1.0473 -2.6616 -1.4832
39448SOL    HW221937  11.167   0.679   8.369 -0.1950 -0.7639 -0.9527
39449SOL     OW21938   9.988   0.050   4.632 -0.3750 -0.0519 -0.1050
39449SOL    HW121939   9.943   0.045   4.716 -1.5730 -1.3231 -0.7932
39449SOL    HW221940   9.949   0.126   4.588 -1.1339 -0.5442 -0.2878
39450SOL     OW21941   6.868   6.231  10.869  0.3175  0.0323  0.2070
39450SOL    HW121942   6.874   6.303  10.806  1.7005 -0.5361 -0.3702
39450SOL    HW221943   6.775   6.215  10.879 -0.1607  3.0503  1.7331
39451SOL     OW21944   5.171   9.866   2.581 -0.1600 -0.1795  0.3268
39451SOL    HW121945   5.141   9.915   2.504 -1.5372  0.1027  1.0207
39451SOL    HW221946   5.243   9.811   2.548 -1.9767 -1.5408 -1.6118
39452SOL     OW21947   4.632   5.156   2.694 -0.4032 -0.6404 -0.4680
39452SOL    HW121948   4.711   5.171   2.746 -2.1366 -1.8504  2.7424
39452SOL    HW221949   4.604   5.068   2.717 -1.8851 -0.8637 -2.7564
39453SOL     OW21950  10.803   6.974   4.593 -0.3292 -0.4742  0.0777
39453SOL    HW121951  10.744   7.045   4.613 -0.8695 -0.5860 -1.0046
39453SOL    HW221952  10.782   6.950   4.502 -0.8177 -2.6159  0.6880
39454SOL     OW21953   3.012   8.774   1.636 -0.1868 -0.2800  0.8398
39454SOL    HW121954   3.060   8.814   1.564 -0.3382 -1.3695  0.0932
39454SOL    HW221955   2.932   8.826   1.644 -1.9769 -2.2152 -2.2961
39455SOL     OW21956   8.460   1.254   4.004 -0.0678  0.2079 -0.0593
39455SOL    HW121957   8.518   1.198   4.055  1.3283  1.3273 -0.3428
39455SOL    HW221958   8.487   1.241   3.913 -2.1714 -1.3628 -0.5247
39456SOL     OW21959   8.642   2.439   8.970  0.3470 -0.1883 -0.2862
39456SOL    HW121960   8.646   2.355   9.017 -2.5919 -0.6872 -0.7602
39456SOL    HW221961   8.565   2.431   8.914  1.2947  2.0307 -2.0224
39457SOL     OW21962   9.611   6.810   7.890  0.2983 -0.2403  0.0279
39457SOL    HW121963   9.614   6.715   7.895  1.0115 -0.1832  1.0170
39457SOL    HW221964   9.608   6.830   7.796 -0.6535 -1.2414 -0.1719
39458SOL     OW21965   7.866   7.069   3.301 -0.3231 -0.3064 -0.8259
39458SOL    HW121966   7.847   7.115   3.220 -1.5279 -0.1587 -0.4837
39458SOL    HW221967   7.917   7.131   3.353  0.9520 -0.6124 -1.6760
39459SOL     OW21968   7.366   7.100   9.148 -0.2119 -0.0848 -0.0033
39459SOL    HW121969   7.301   7.040   9.186 -1.2298  0.5036 -0.7645
39459SOL    HW221970   7.373   7.073   9.056  0.7240 -0.2179  0.0993
39460SOL     OW21971   9.905   7.839   0.334  0.2233  0.1734 -0.7846
39460SOL    HW121972   9.923   7.776   0.403 -0.9775  0.2248 -0.4024
39460SOL    HW221973   9.990   7.853   0.291  1.0015  0.1946  0.7144
39461SOL     OW21974  10.807   1.029   4.810  0.5298  0.0446  0.4578
39461SOL    HW121975  10.823   1.069   4.724  0.2716 -0.9963 -0.0874
39461SOL    HW221976  10.770   0.943   4.790  0.7343 -0.3250  1.6126
39462SOL     OW21977   0.648   5.292   5.656  0.5276  0.1694 -0.0306
39462SOL    HW121978   0.569   5.313   5.706  0.3461  1.0964 -0.6766
39462SOL    HW221979   0.684   5.215   5.699 -2.0421 -1.7822 -1.1218
39463SOL     OW21980   3.674   6.817   4.286  0.1502  0.3489  0.3270
39463SOL    HW121981   3.728   6.876   4.234 -0.7164  0.2402 -0.7224
39463SOL    HW221982   3.621   6.769   4.222  0.6692 -1.4376  1.1573
39464SOL     OW21983   1.317  10.019   3.760  0.5076 -0.2508 -0.0163
39464SOL    HW121984   1.398  10.047   3.716  0.6158  1.6063  1.2420
39464SOL    HW221985   1.338  10.024   3.853 -1.9281  3.7150  0.5723
39465SOL     OW21986   6.028   6.786   2.574  0.1546 -0.3641  0.4795
39465SOL    HW121987   6.069   6.771   2.659  0.7261  3.0438  0.9292
39465SOL    HW221988   6.101   6.796   2.514 -0.0693  1.3681  0.4457
39466SOL     OW21989   2.810   9.327   5.734  0.5059 -0.1292 -0.4473
39466SOL    HW121990   2.887   9.274   5.754  0.9221  0.6166 -0.0644
39466SOL    HW221991   2.792   9.309   5.642  2.0229  0.8109 -0.9644
39467SOL     OW21992   8.125   6.819   4.341 -0.0445 -0.0214  0.5257
39467SOL    HW121993   8.092   6.817   4.431 -0.6664 -1.5797  0.2993
39467SOL    HW221994   8.052   6.784   4.288  0.9518 -0.8618 -0.3399
39468SOL     OW21995   7.133  10.983   3.420  0.4685 -0.1218 -0.1409
39468SOL    HW121996   7.064  11.048   3.427  0.0971 -0.6295  1.1616
39468SOL    HW221997   7.180  10.988   3.503  0.1073 -1.8530  0.2024
39469SOL     OW21998   8.649   5.087   9.203  0.6584  0.5556 -0.0369
39469SOL    HW121999   8.742   5.064   9.195  0.7634  0.1128  1.9137
39469SOL    HW222000   8.647   5.155   9.270 -0.4210  0.6834 -0.1844
39470SOL     OW22001   7.617   6.325   8.161  0.0726  0.0088 -0.4071
39470SOL    HW122002   7.623   6.233   8.136 -1.4734 -0.3425  0.4021
39470SOL    HW222003   7.681   6.335   8.231 -1.2195 -1.0364  1.0030
39471SOL     OW22004   4.092   8.861   3.307 -0.5607 -0.4851 -0.1698
39471SOL    HW122005   4.008   8.857   3.352 -0.1005 -0.0215  0.7666
39471SOL    HW222006   4.146   8.919   3.362  0.4457 -0.9739 -0.6182
39472SOL     OW22007   0.827   5.981   6.179  0.2026 -0.1197  0.7492
39472SOL    HW122008   0.816   5.982   6.274  0.7994  0.0500  0.8164
39472SOL    HW222009   0.754   5.927   6.148  0.5958 -1.0279  1.3768
39473SOL     OW22010  10.535   4.848   4.308  0.2727  0.4815 -0.1114
39473SOL    HW122011  10.606   4.822   4.367 -0.3379  0.4393  0.6288
39473SOL    HW222012  10.504   4.766   4.269  0.3443  0.4492 -0.1002
39474SOL     OW22013   9.094   6.276   7.036 -0.0587  0.3243 -0.6556
39474SOL    HW122014   9.135   6.313   6.958 -0.8162 -0.7355 -1.5783
39474SOL    HW222015   9.006   6.314   7.037 -0.1006  0.2207 -0.3993
39475SOL     OW22016   6.318   2.099   2.755  0.4918  0.0363  0.3321
39475SOL    HW122017   6.388   2.163   2.738  0.3279 -0.3430 -2.1822
39475SOL    HW222018   6.242   2.134   2.709 -0.2698 -0.8130  0.9150
39476SOL     OW22019   6.649   0.215   4.611 -0.7682  0.0941  0.3930
39476SOL    HW122020   6.670   0.235   4.520  0.4574  1.5543  0.9450
39476SOL    HW222021   6.655   0.300   4.656  1.4659 -0.9713  2.3229
39477SOL     OW22022  10.767   4.090   9.085 -0.0745  0.3529  0.0434
39477SOL    HW122023  10.780   4.022   9.018  1.1111  0.4685  0.1368
39477SOL    HW222024  10.824   4.162   9.057 -0.2356  0.7446  0.7201
39478SOL     OW22025   4.120   4.792   0.138  0.0868  0.4508  0.4775
39478SOL    HW122026   4.120   4.723   0.071 -1.7589  0.3920  0.4904
39478SOL    HW222027   4.170   4.864   0.099  0.3473 -0.1545 -0.3270
39479SOL     OW22028   3.885   3.791   2.007 -0.3086 -0.2250 -0.0968
39479SOL    HW122029   3.818   3.737   1.965  0.5220 -0.7856 -0.7227
39479SOL    HW222030   3.945   3.729   2.048 -0.6971  0.2989  1.3342
39480SOL     OW22031   9.199   1.728   1.747 -0.4865 -0.2761  0.0293
39480SOL    HW122032   9.232   1.808   1.788 -2.4006  2.1771 -2.8031
39480SOL    HW222033   9.275   1.690   1.703  0.0924  1.0151 -0.1245
39481SOL     OW22034   8.252   9.158   3.711 -0.1455 -0.4176  0.1194
39481SOL    HW122035   8.328   9.215   3.700 -0.5493 -0.0519 -0.8988
39481SOL    HW222036   8.225   9.170   3.802  1.3048 -0.9310  0.6299
39482SOL     OW22037   7.764   7.710   7.901 -0.3862 -0.1331 -0.4415
39482SOL    HW122038   7.738   7.656   7.826  0.0107  1.4715 -1.7910
39482SOL    HW222039   7.859   7.697   7.908 -0.1938  0.8291 -1.1523
39483SOL     OW22040   8.215   0.077  10.121 -0.5167 -0.1567 -0.1719
39483SOL    HW122041   8.288   0.070  10.182 -0.9813 -1.4206  0.2738
39483SOL    HW222042   8.227   0.161  10.078  1.1439 -0.3128 -0.0487
39484SOL     OW22043   6.083   2.923   9.253 -0.1861  0.7188 -0.0042
39484SOL    HW122044   6.121   2.908   9.339 -3.3374 -0.2005  1.3437
39484SOL    HW222045   6.026   3.000   9.265 -2.2281 -0.6167 -0.6383
39485SOL     OW22046   9.237   8.640   9.346  0.3301  0.2609  0.2288
39485SOL    HW122047   9.282   8.725   9.350 -0.4200  0.7160 -0.6807
39485SOL    HW222048   9.264   8.602   9.263 -1.2099  0.7052 -0.5147
39486SOL     OW22049   9.680   5.797   5.166  0.7241 -0.0784 -0.4545
39486SOL    HW122050   9.659   5.889   5.150  0.8135  0.4031  1.8095
39486SOL    HW222051   9.711   5.795   5.257 -1.1402 -2.6036  0.2443
39487SOL     OW22052   0.423   3.928   0.303  0.2830  0.3129  0.0082
39487SOL    HW122053   0.370   3.853   0.277 -1.4915  1.0246  1.3488
39487SOL    HW222054   0.372   4.004   0.274  0.8932  1.0157  0.7344
39488SOL     OW22055   3.461   8.384   0.623  0.0433 -0.0416 -0.1255
39488SOL    HW122056   3.492   8.474   0.618  0.4176  0.0748  2.5537
39488SOL    HW222057   3.369   8.392   0.647  0.4878 -0.2790  1.8752
39489SOL     OW22058   4.792   9.028   2.341  0.1057 -0.7720 -0.1462
39489SOL    HW122059   4.744   9.071   2.411  0.4020 -0.1838 -0.2967
39489SOL    HW222060   4.800   9.095   2.273  0.0376 -1.2558 -0.6387
39490SOL     OW22061   0.735   3.930   2.556 -0.0964  0.1900  0.3125
39490SOL    HW122062   0.778   3.995   2.613  0.4275 -1.6754  2.1761
39490SOL    HW222063   0.645   3.927   2.587 -0.2889  0.4345 -0.2004
39491SOL     OW22064   7.049   5.912   9.344  0.3746 -0.0041 -0.6606
39491SOL    HW122065   7.108   5.877   9.410 -0.7951  1.3951  1.2264
39491SOL    HW222066   6.979   5.847   9.337 -0.7091  0.8761  1.2820
39492SOL     OW22067   4.449   9.052   2.536 -0.3430 -0.1839 -0.5127
39492SOL    HW122068   4.395   9.116   2.489 -0.3100  0.1965 -0.0404
39492SOL    HW222069   4.459   8.980   2.474 -0.1106  0.4036 -1.1745
39493SOL     OW22070   2.170   7.472   7.946  0.1883  0.4434 -0.5831
39493SOL    HW122071   2.171   7.476   7.850  0.2622 -0.4140 -0.6252
39493SOL    HW222072   2.141   7.559   7.973  0.1937  0.7051 -1.3814
39494SOL     OW22073   7.781   2.133   5.186 -0.2430  0.4006  0.5709
39494SOL    HW122074   7.761   2.227   5.194 -0.6939  0.3459  0.1345
39494SOL    HW222075   7.874   2.127   5.205  0.3761  1.2749 -1.9025
39495SOL     OW22076   1.655   8.089   1.013 -0.5104  0.2877  0.8792
39495SOL    HW122077   1.600   8.015   0.987  0.8566 -0.2272 -0.7656
39495SOL    HW222078   1.633   8.159   0.952  0.0836  0.3333  0.7056
39496SOL     OW22079   6.520   3.054   8.248  0.0198 -0.4349 -0.3154
39496SOL    HW122080   6.452   2.994   8.278  0.7626 -0.4068  1.5646
39496SOL    HW222081   6.488   3.141   8.273  1.3786 -0.5361  2.0934
39497SOL     OW22082   5.914   7.300   3.720  0.4039 -0.5239 -0.0639
39497SOL    HW122083   5.893   7.385   3.680  0.5882 -0.3775  0.1524
39497SOL    HW222084   6.004   7.282   3.693  0.0679 -1.0776 -0.8560
39498SOL     OW22085   4.152   8.211   7.973 -0.5567 -0.2295  0.3220
39498SOL    HW122086   4.121   8.228   8.061 -1.8083 -0.1252 -0.1171
39498SOL    HW222087   4.123   8.122   7.954  0.0342 -0.3904  0.1486
39499SOL     OW22088   3.797   7.503   6.713  0.3241  0.0852 -0.3254
39499SOL    HW122089   3.790   7.596   6.733 -0.6727 -0.1970  0.7740
39499SOL    HW222090   3.880   7.475   6.751  0.2466  0.3695  0.0564
39500SOL     OW22091   2.161   9.025   1.261  0.1439  0.1239 -0.1241
39500SOL    HW122092   2.198   9.015   1.174  0.9804  0.0020  0.2302
39500SOL    HW222093   2.180   8.943   1.306  0.9473  0.6756  0.5958
39501SOL     OW22094  10.859  10.999   8.513 -0.0744  0.2472  0.3642
39501SOL    HW122095  10.820  11.050   8.584 -0.5433  1.2260 -0.5478
39501SOL    HW222096  10.802  10.922   8.505 -1.8572  1.5880 -0.8614
39502SOL     OW22097   2.328   9.068   9.516 -0.7396 -0.2691 -0.0890
39502SOL    HW122098   2.317   9.026   9.601  1.1211 -0.7175 -0.0241
39502SOL    HW222099   2.301   9.159   9.530  0.5577 -0.0540  1.3008
39503SOL     OW22100  10.538   7.203   9.287 -0.4052 -0.0214  0.1876
39503SOL    HW122101  10.459   7.160   9.320  0.3664 -0.5594  1.4093
39503SOL    HW222102  10.530   7.294   9.317 -1.5968  0.5340 -1.6162
39504SOL     OW22103   2.265   5.978   1.265  0.3651 -0.1278 -0.2931
39504SOL    HW122104   2.231   5.924   1.194  2.1443 -1.9914  0.1948
39504SOL    HW222105   2.327   6.038   1.224  1.3549 -1.1694 -0.3587
39505SOL     OW22106  10.515  10.329   3.724  0.1588  0.0427 -0.0819
39505SOL    HW122107  10.436  10.373   3.753  0.1963  0.3338 -0.4098
39505SOL    HW222108  10.583  10.395   3.730  0.0408  0.3109 -1.4463
39506SOL     OW22109   5.458   1.412   7.217 -0.2424  0.5091  0.0235
39506SOL    HW122110   5.395   1.421   7.289  0.5228 -1.7703  1.0781
39506SOL    HW222111   5.424   1.340   7.164  0.7019  0.2058 -0.1932
39507SOL     OW22112   9.806  11.078   8.045 -0.1773  0.1146 -0.2353
39507SOL    HW122113   9.761  11.005   8.089  0.3278  0.0344  0.1524
39507SOL    HW222114   9.735  11.127   8.002 -0.7077  0.2777  0.7843
39508SOL     OW22115   4.304   8.383   5.960 -0.4542  0.3048 -0.2144
39508SOL    HW122116   4.372   8.415   5.901  0.0057 -0.6447 -0.2142
39508SOL    HW222117   4.324   8.290   5.972 -1.4279  0.1425  0.2329
39509SOL     OW22118   9.621   8.727   3.784 -0.0298 -0.0848 -0.8274
39509SOL    HW122119   9.671   8.803   3.756  2.2932 -0.8084  1.0192
39509SOL    HW222120   9.662   8.653   3.740 -0.3940 -0.5606 -0.3866
39510SOL     OW22121   9.851   3.073   2.201 -0.4997 -0.0901  0.2153
39510SOL    HW122122   9.898   3.125   2.136  0.7978  0.1138  1.2694
39510SOL    HW222123   9.912   3.066   2.274 -2.5881  1.2555  2.2086
39511SOL     OW22124   6.832   8.467   0.778 -0.2703  0.3589  0.4245
39511SOL    HW122125   6.878   8.430   0.703  0.7136  1.7309  0.3085
39511SOL    HW222126   6.886   8.444   0.854 -0.6669 -0.0559  0.5891
39512SOL     OW22127   5.214   2.598   5.617  0.1126  0.9237  0.3005
39512SOL    HW122128   5.119   2.591   5.632  0.4313 -0.7321  1.9051
39512SOL    HW222129   5.231   2.537   5.545  0.0144  0.8803  0.3141
39513SOL     OW22130   7.688   6.523   4.187  0.2647  0.1411 -0.0379
39513SOL    HW122131   7.610   6.505   4.240 -1.1962  0.7220 -1.8563
39513SOL    HW222132   7.653   6.556   4.104  2.4846  0.8008 -0.7857
39514SOL     OW22133   5.598   7.513   5.639 -0.1165  0.4569  0.2309
39514SOL    HW122134   5.649   7.594   5.639 -1.8227  1.6303 -1.8423
39514SOL    HW222135   5.530   7.528   5.704 -0.9316  1.0642 -0.7424
39515SOL     OW22136   2.035   4.468   7.632  0.4913  0.2512  0.0960
39515SOL    HW122137   1.988   4.418   7.699  0.3186 -0.9577 -0.9011
39515SOL    HW222138   1.969   4.526   7.595  0.6516  1.1337  1.1336
39516SOL     OW22139   2.383   7.026   4.472  0.1953  0.0701 -0.2519
39516SOL    HW122140   2.366   7.065   4.558 -1.0633  0.7920 -0.7992
39516SOL    HW222141   2.470   6.987   4.480  0.6341  1.2217  0.9512
39517SOL     OW22142   5.722   9.210   6.592 -0.3983  0.6874 -0.3042
39517SOL    HW122143   5.685   9.135   6.638 -0.9664  1.2267  0.1273
39517SOL    HW222144   5.692   9.200   6.502  1.8100 -1.0988 -0.9254
39518SOL     OW22145   4.332  10.478   2.604 -0.1098 -0.3134 -0.6708
39518SOL    HW122146   4.277  10.408   2.639  0.3160  0.3305  1.4831
39518SOL    HW222147   4.284  10.558   2.623  0.7515  0.1455 -0.3727
39519SOL     OW22148   5.733  10.033  10.098  0.3517 -0.1013 -0.2107
39519SOL    HW122149   5.779  10.026  10.015  1.6054  2.4656  0.1866
39519SOL    HW222150   5.645  10.064  10.074 -0.2293 -1.9520 -0.7060
39520SOL     OW22151   4.438   8.411   5.337  0.5515  0.1059 -0.0091
39520SOL    HW122152   4.442   8.327   5.384 -1.0993  0.7226  1.3062
39520SOL    HW222153   4.414   8.386   5.248 -0.5701 -0.8040  0.5159
39521SOL     OW22154   5.444   7.167   5.910 -0.5254  0.3591  0.3463
39521SOL    HW122155   5.490   7.084   5.920 -2.2456 -0.8487 -1.1630
39521SOL    HW222156   5.438   7.180   5.816 -0.5131  2.0965  0.5492
39522SOL     OW22157   6.026   8.380  10.864 -0.5736 -0.3535 -0.0756
39522SOL    HW122158   6.037   8.392  10.770 -0.5873  1.0793  0.0886
39522SOL    HW222159   6.055   8.290  10.880  1.5280  0.0935 -1.1191
39523SOL     OW22160   0.398   2.649  10.970 -0.1986 -0.6246 -0.4955
39523SOL    HW122161   0.383   2.589  10.898  0.7198 -2.6134  0.8986
39523SOL    HW222162   0.310   2.664  11.007 -0.4980 -0.6856 -1.1754
39524SOL     OW22163   3.384   6.087   7.072  0.2224 -0.5281  0.1000
39524SOL    HW122164   3.380   5.995   7.100  1.6500 -0.9860 -1.0814
39524SOL    HW222165   3.298   6.103   7.033  0.4138 -1.8050 -0.9325
39525SOL     OW22166   9.716   7.126  10.869  0.4753  0.5512  0.1588
39525SOL    HW122167   9.768   7.100  10.793  0.2262  0.4021  0.0370
39525SOL    HW222168   9.648   7.059  10.875 -0.2627  1.2567 -0.2450
39526SOL     OW22169   1.993   7.365   8.837 -0.1230 -0.0177 -0.3491
39526SOL    HW122170   1.929   7.322   8.780 -1.3274  1.7255 -0.3944
39526SOL    HW222171   2.010   7.449   8.795 -0.5795  1.0534  1.4945
39527SOL     OW22172   4.557   9.748   0.759  0.5475 -0.1713 -0.2926
39527SOL    HW122173   4.481   9.798   0.789  1.7610  1.1579  0.7439
39527SOL    HW222174   4.611   9.739   0.838  2.7225  1.3265 -1.4972
39528SOL     OW22175   3.800   0.257   2.191  0.3070 -0.6006  0.5750
39528SOL    HW122176   3.712   0.293   2.191  0.3287 -0.5448  1.0554
39528SOL    HW222177   3.793   0.175   2.240 -0.1778 -2.3655 -2.2005
39529SOL     OW22178   3.511   8.396   0.985  0.5990  0.4960  0.1290
39529SOL    HW122179   3.429   8.353   0.960  0.8640  0.4395 -0.6681
39529SOL    HW222180   3.534   8.451   0.910  1.3227  0.4732  0.3210
39530SOL     OW22181   0.578   0.362   1.493 -0.1649 -0.1991 -0.1945
39530SOL    HW122182   0.505   0.314   1.455  0.6815 -0.1785 -1.9504
39530SOL    HW222183   0.598   0.430   1.429  1.1935 -0.0246  0.3742
39531SOL     OW22184   8.987   6.331   4.248 -0.4284 -0.6297 -0.0337
39531SOL    HW122185   9.054   6.281   4.201  0.2301 -0.1203  0.3427
39531SOL    HW222186   9.036   6.391   4.303 -1.0859  2.2462 -2.2948
39532SOL     OW22187   0.109   5.391   0.267 -0.0363 -0.5204  0.9607
39532SOL    HW122188   0.143   5.424   0.350  1.0556  0.2862  0.2116
39532SOL    HW222189   0.163   5.432   0.200 -1.1622 -0.8304 -0.1878
39533SOL     OW22190   9.888   6.478   6.382 -0.0375 -0.2528  0.2735
39533SOL    HW122191   9.948   6.436   6.444  0.5597  0.5097  0.2224
39533SOL    HW222192   9.802   6.442   6.405  0.4509 -1.5366  0.1908
39534SOL     OW22193   2.165   0.504   8.502  0.2076 -0.0568 -0.0799
39534SOL    HW122194   2.235   0.484   8.440  0.6024 -0.4714  0.4874
39534SOL    HW222195   2.084   0.487   8.453  0.4926  0.5631 -0.7806
39535SOL     OW22196   7.802  10.843   8.341 -0.1337 -0.0805 -0.1378
39535SOL    HW122197   7.798  10.759   8.386  0.7949  0.0536  0.2165
39535SOL    HW222198   7.895  10.864   8.337 -0.3959  1.3591  0.5714
39536SOL     OW22199   6.696   4.490   0.274 -0.0009 -0.1923  0.4681
39536SOL    HW122200   6.668   4.521   0.188  0.0937 -0.4707  0.3345
39536SOL    HW222201   6.616   4.492   0.327 -0.2434 -0.8102  0.1389
39537SOL     OW22202   7.267  10.794   0.033 -0.0802  0.8064  0.3917
39537SOL    HW122203   7.194  10.750   0.077  0.4540  0.4341  0.9265
39537SOL    HW222204   7.345  10.746   0.062  0.1834 -0.5997 -2.3330
39538SOL     OW22205   9.071   3.853   9.748 -0.3249 -0.1713 -0.0418
39538SOL    HW122206   9.016   3.888   9.818  1.2901  1.3105  0.5690
39538SOL    HW222207   9.161   3.871   9.777  0.4133  1.3687 -2.8697
39539SOL     OW22208   1.044   7.583   0.649 -0.1984  0.7298  0.3944
39539SOL    HW122209   0.978   7.648   0.623 -0.6967  0.0702 -0.0574
39539SOL    HW222210   1.066   7.606   0.739 -2.2213  0.0722  1.1359
39540SOL     OW22211   7.199  10.317   9.547 -0.0651 -0.4975 -0.1054
39540SOL    HW122212   7.291  10.342   9.539 -0.1757 -0.1646 -0.3628
39540SOL    HW222213   7.199  10.223   9.531  0.2470 -0.5212  0.0246
39541SOL     OW22214   5.330   5.332   3.348 -0.4669 -0.2212 -0.2852
39541SOL    HW122215   5.337   5.298   3.437  1.4961  1.1703  0.1778
39541SOL    HW222216   5.389   5.277   3.296  1.8419  1.5355  0.2474
39542SOL     OW22217   2.368   0.990   7.001  0.0730  0.1278 -0.0511
39542SOL    HW122218   2.401   1.064   6.949 -1.0039  0.8888  0.2935
39542SOL    HW222219   2.443   0.963   7.054  1.0643 -0.3719 -1.6360
39543SOL     OW22220   3.071  10.090   2.209 -0.2422  0.2869  0.2824
39543SOL    HW122221   3.072  10.008   2.259  0.0505  0.6310  0.8512
39543SOL    HW222222   3.159  10.127   2.222 -0.5168  0.9138  0.3989
39544SOL     OW22223  10.061   9.638   8.068 -0.2296 -0.7562 -0.1668
39544SOL    HW122224   9.986   9.698   8.074 -0.8447 -1.2551 -2.0968
39544SOL    HW222225  10.038   9.565   8.126 -0.1878  0.1176  0.9849
39545SOL     OW22226   2.969   8.664  10.894 -0.0143  0.1078  0.3165
39545SOL    HW122227   2.979   8.756  10.868 -0.1080  0.3138  0.9848
39545SOL    HW222228   2.976   8.666  10.989 -0.7175 -0.4889  0.3855
39546SOL     OW22229   2.582   2.877   8.159  0.3303  0.1060 -0.0087
39546SOL    HW122230   2.533   2.933   8.218  2.9685  1.1726  1.3263
39546SOL    HW222231   2.561   2.788   8.188 -0.2246  0.5426  0.9855
39547SOL     OW22232   1.782   1.536   9.133 -0.0653 -0.3477 -0.0013
39547SOL    HW122233   1.787   1.445   9.103 -1.4835 -1.0640  1.7605
39547SOL    HW222234   1.786   1.530   9.228  0.1342  1.4909  0.1363
39548SOL     OW22235   7.780   8.999   9.805 -0.1476  1.1997  0.4221
39548SOL    HW122236   7.733   8.919   9.828 -1.0351  0.8921 -2.1306
39548SOL    HW222237   7.752   9.062   9.871  0.0552 -0.3841  2.1054
39549SOL     OW22238   3.208   1.148   4.171 -0.3540 -0.1741  0.7173
39549SOL    HW122239   3.266   1.221   4.154  0.1838 -0.5408  0.9461
39549SOL    HW222240   3.234   1.116   4.258 -0.0466 -1.1225  0.2857
39550SOL     OW22241   4.660  10.195   4.422  0.2551  0.0755  0.3430
39550SOL    HW122242   4.721  10.168   4.354  1.0812  1.3324  0.5637
39550SOL    HW222243   4.682  10.140   4.497  2.1533  1.5274  0.9001
39551SOL     OW22244   7.354   4.680   0.656  0.6042  0.0845 -1.2332
39551SOL    HW122245   7.308   4.650   0.578  0.5690  2.1119 -2.0638
39551SOL    HW222246   7.434   4.628   0.658  0.0524 -0.8287 -1.9215
39552SOL     OW22247   0.333  10.273   1.891 -0.3107  0.5662 -0.0610
39552SOL    HW122248   0.378  10.212   1.832 -0.6112  0.6440 -0.3779
39552SOL    HW222249   0.242  10.243   1.892 -0.3452  0.6754  0.2221
39553SOL     OW22250  11.042   0.723   4.078  0.2476 -0.0623  0.2691
39553SOL    HW122251  11.113   0.670   4.042 -0.9014 -0.8945 -0.8355
39553SOL    HW222252  10.963   0.692   4.033 -0.7860  1.0249  1.2674
39554SOL     OW22253   5.601   7.621   0.881  0.4752 -0.0051  0.1035
39554SOL    HW122254   5.531   7.598   0.821 -0.4032  0.8836  0.7502
39554SOL    HW222255   5.592   7.558   0.953  1.9411 -1.4999 -0.9360
39555SOL     OW22256   9.561   6.509   2.321  0.5782  0.0810  0.0858
39555SOL    HW122257   9.594   6.489   2.233  3.7932  0.9719  0.9522
39555SOL    HW222258   9.616   6.457   2.380 -1.6911 -0.7015  1.6178
39556SOL     OW22259   9.778   5.347   6.777  0.3449 -0.3082 -0.0057
39556SOL    HW122260   9.823   5.384   6.701 -0.6235  0.2391 -0.3395
39556SOL    HW222261   9.696   5.396   6.782  0.2817 -0.5055  1.2537
39557SOL     OW22262   4.418   4.875   1.451 -0.1474  0.2830  0.6106
39557SOL    HW122263   4.488   4.919   1.500 -0.7037  0.5390  1.1915
39557SOL    HW222264   4.451   4.786   1.437  0.0238  0.2093  1.4503
39558SOL     OW22265   8.391   8.437   5.649  0.2905 -0.8410 -0.0429
39558SOL    HW122266   8.423   8.353   5.682 -2.7478 -1.4696  1.6112
39558SOL    HW222267   8.323   8.464   5.710  0.1011  2.1406 -1.3501
39559SOL     OW22268   8.574   2.126   6.204  0.6361 -0.2738 -0.0259
39559SOL    HW122269   8.579   2.208   6.252 -1.2573 -1.3149  2.1951
39559SOL    HW222270   8.660   2.086   6.213  0.8498  0.4030  0.9501
39560SOL     OW22271   4.211   5.269   6.385 -0.3853 -0.6922  0.4478
39560SOL    HW122272   4.120   5.252   6.361 -0.6303 -0.0727  0.8933
39560SOL    HW222273   4.215   5.365   6.395  0.7125 -0.5293 -1.1602
39561SOL     OW22274   7.462   4.767  10.460  0.4805 -0.2404  0.6727
39561SOL    HW122275   7.549   4.783  10.497  1.2700  0.3521 -1.3190
39561SOL    HW222276   7.476   4.765  10.366 -1.5673 -0.9056  0.3365
39562SOL     OW22277   7.324   5.693  10.023  0.0109  0.2475  0.7422
39562SOL    HW122278   7.294   5.776   9.988 -1.0657  0.0850  1.2430
39562SOL    HW222279   7.399   5.715  10.079  1.1840  0.6062 -0.8956
39563SOL     OW22280   3.751  10.588   7.989  1.1545  0.1571  0.1038
39563SOL    HW122281   3.657  10.591   7.973  0.4847  0.8013  3.3311
39563SOL    HW222282   3.781  10.678   7.973  1.2103 -0.0079 -0.7576
39564SOL     OW22283   0.380  10.470   7.702  0.2356 -0.5024 -0.5697
39564SOL    HW122284   0.338  10.519   7.772 -0.3604 -2.4616  0.5146
39564SOL    HW222285   0.313  10.462   7.634  0.2555 -0.0611 -0.6443
39565SOL     OW22286   3.951   3.132  10.195 -0.8275 -0.5958 -0.3210
39565SOL    HW122287   4.027   3.108  10.248 -2.1467 -0.8662  1.5441
39565SOL    HW222288   3.916   3.048  10.164 -0.8738 -0.5381 -0.4257
39566SOL     OW22289   7.903  10.838   2.816  0.2394  0.2851 -0.6384
39566SOL    HW122290   7.957  10.914   2.838 -0.4838  0.5555  0.2623
39566SOL    HW222291   7.938  10.808   2.732  1.0151  1.1621 -0.6541
39567SOL     OW22292   0.966   1.626   8.592 -0.5733  0.1885 -0.3858
39567SOL    HW122293   1.010   1.572   8.525  1.5656  0.0710  1.0132
39567SOL    HW222294   0.895   1.571   8.624 -2.0341  0.4661 -2.9133
39568SOL     OW22295   5.031   6.643   4.202  0.2181 -0.3573 -0.3555
39568SOL    HW122296   4.960   6.682   4.152  1.2934  0.0186 -1.6593
39568SOL    HW222297   5.007   6.657   4.294 -0.0156  2.3845 -0.7525
39569SOL     OW22298   8.782   0.085   9.816  0.3987 -0.6872  0.2144
39569SOL    HW122299   8.711   0.023   9.798  0.6802 -1.4072  1.4517
39569SOL    HW222300   8.738   0.171   9.819 -0.0379 -0.8321 -1.2451
39570SOL     OW22301   6.153   0.054   1.466  0.6229 -0.1970  0.2077
39570SOL    HW122302   6.151   0.029   1.374 -0.2979  1.8838 -0.3926
39570SOL    HW222303   6.244   0.080   1.482  0.7240 -0.2968 -0.1969
39571SOL     OW22304   2.481   7.295   6.954  0.6525 -0.1161  0.4623
39571SOL    HW122305   2.449   7.267   6.868 -0.5672  1.4747  0.3404
39571SOL    HW222306   2.558   7.348   6.935  0.7061 -0.2186  0.3917
39572SOL     OW22307   1.261   0.348   4.613 -0.0714 -0.1717 -0.0495
39572SOL    HW122308   1.279   0.255   4.601  0.7058 -0.0898  0.4187
39572SOL    HW222309   1.292   0.367   4.702 -0.6178  0.4402  0.0170
39573SOL     OW22310   8.723   3.078   9.293 -0.0334  0.4309 -0.1888
39573SOL    HW122311   8.792   3.144   9.286 -0.4154  0.7689 -0.8028
39573SOL    HW222312   8.695   3.063   9.203 -0.3626 -0.1367  0.0035
39574SOL     OW22313  10.768   7.877   0.675  0.6600  0.2788 -0.2037
39574SOL    HW122314  10.754   7.830   0.757  1.7671  0.1234 -0.0959
39574SOL    HW222315  10.680   7.892   0.641 -0.0206  2.5205  2.2245
39575SOL     OW22316   4.228   4.308   8.716  0.3175  0.5147 -0.0392
39575SOL    HW122317   4.172   4.253   8.661  0.0753  0.3607  0.3544
39575SOL    HW222318   4.274   4.364   8.654  0.3065  0.1095 -0.4218
39576SOL     OW22319   0.819   8.478   4.010  0.4363  0.0238  0.2765
39576SOL    HW122320   0.855   8.553   3.963 -2.6898  0.5603 -1.5207
39576SOL    HW222321   0.884   8.409   3.999  1.0790  0.9484 -2.6054
39577SOL     OW22322   8.309   6.547   3.918  0.4069  0.1309  0.5935
39577SOL    HW122323   8.255   6.559   3.995 -0.2888  0.4157  0.0688
39577SOL    HW222324   8.386   6.498   3.950 -0.2388 -0.4383  1.3074
39578SOL     OW22325   5.814   7.628   7.947  0.1771 -0.2577  0.5245
39578SOL    HW122326   5.776   7.683   8.015  2.2049  0.9134  0.8193
39578SOL    HW222327   5.880   7.576   7.993 -0.8153 -2.0519  0.0154
39579SOL     OW22328   2.075  10.499   4.570 -0.1641 -0.3922  0.1603
39579SOL    HW122329   2.035  10.562   4.509 -0.4253  0.7910  1.4891
39579SOL    HW222330   2.151  10.466   4.524 -0.4679  0.3205 -0.8935
39580SOL     OW22331   6.639   4.977   8.136  0.1221 -0.2641  0.2229
39580SOL    HW122332   6.644   5.073   8.143  2.6622 -0.3175  0.0669
39580SOL    HW222333   6.696   4.945   8.206 -1.0071 -1.6894  0.5192
39581SOL     OW22334   9.536   5.629   5.642 -0.2399 -0.2583  0.2313
39581SOL    HW122335   9.622   5.592   5.658 -0.3261 -0.8509 -0.6298
39581SOL    HW222336   9.499   5.576   5.571 -1.1175  0.2896  0.2574
39582SOL     OW22337   8.277   1.390   8.728  0.1725 -0.3003 -0.6242
39582SOL    HW122338   8.358   1.415   8.683  1.5948  1.5200  2.5228
39582SOL    HW222339   8.217   1.463   8.712  0.2962 -0.1669 -0.4916
39583SOL     OW22340   5.650   1.077  10.586  0.1760 -0.0552 -0.2092
39583SOL    HW122341   5.572   1.112  10.542 -1.0701 -1.2693  0.9356
39583SOL    HW222342   5.640   0.982  10.580  1.5538 -0.2278  0.0086
39584SOL     OW22343   6.241   8.017   6.199  0.1241  0.2014  0.1234
39584SOL    HW122344   6.164   7.963   6.184  0.5465 -0.3046 -0.2572
39584SOL    HW222345   6.291   7.970   6.266  0.2518  0.3710  0.1480
39585SOL     OW22346   1.742   6.908   3.186  0.3859 -0.2814  0.4954
39585SOL    HW122347   1.692   6.832   3.158  0.6787 -0.2156 -0.2379
39585SOL    HW222348   1.827   6.873   3.213  0.1438 -0.3312  1.2050
39586SOL     OW22349   8.878  10.241   1.699 -0.1039 -0.5348  0.3821
39586SOL    HW122350   8.961  10.242   1.747  1.0423 -2.0286 -1.4263
39586SOL    HW222351   8.883  10.163   1.645 -1.9992  0.2473 -1.0290
39587SOL     OW22352   8.080   7.290   1.522  0.3450 -0.1164 -0.1941
39587SOL    HW122353   8.007   7.304   1.583  0.1021  0.4194 -0.5937
39587SOL    HW222354   8.043   7.314   1.437  0.8522 -0.2997 -0.4641
39588SOL     OW22355  11.023   4.120  10.672  0.0592 -0.2581 -0.3680
39588SOL    HW122356  10.948   4.068  10.642 -0.1045  0.6261 -1.5944
39588SOL    HW222357  11.029   4.191  10.608  0.2801  1.2324  1.2356
39589SOL     OW22358   5.415   3.032   4.944 -0.1476 -0.1041  0.1979
39589SOL    HW122359   5.511   3.026   4.941 -0.0425  1.5213 -2.0487
39589SOL    HW222360   5.389   3.041   4.853 -2.3743  0.6405  0.8501
39590SOL     OW22361   4.157   6.886   1.944 -0.2775 -0.3499 -0.0140
39590SOL    HW122362   4.169   6.817   1.879 -0.7391 -0.0507 -0.4213
39590SOL    HW222363   4.246   6.906   1.974 -0.1469 -1.1984  0.1954
39591SOL     OW22364   5.388   9.602  10.910  0.0585  0.2136  0.4811
39591SOL    HW122365   5.459   9.557  10.864 -0.0375  1.5701 -1.0890
39591SOL    HW222366   5.418   9.608  11.001 -0.4231 -3.9564  1.0888
39592SOL     OW22367   3.038   3.133   8.256  0.2942 -0.6018 -0.3535
39592SOL    HW122368   2.989   3.089   8.187  0.4187 -0.2649 -0.6623
39592SOL    HW222369   2.972   3.153   8.323  0.0588 -0.4070 -0.6376
39593SOL     OW22370   4.678   7.228   2.764 -0.4614 -0.0450  0.3187
39593SOL    HW122371   4.741   7.165   2.800  1.2067  0.4738 -1.5130
39593SOL    HW222372   4.690   7.306   2.817  0.7855  0.1882 -0.2807
39594SOL     OW22373   4.808  10.499   2.208 -0.4837  0.1214  0.0570
39594SOL    HW122374   4.764  10.519   2.291 -0.8053 -1.5002  0.3288
39594SOL    HW222375   4.896  10.534   2.218 -0.8831  1.0102  0.5984
39595SOL     OW22376   4.186   9.936   9.753  0.3511  0.2575  0.2148
39595SOL    HW122377   4.146   9.977   9.676 -0.3351 -0.1726  0.3261
39595SOL    HW222378   4.275   9.917   9.726 -0.0457 -0.4149 -0.6902
39596SOL     OW22379   0.539   4.258   0.522 -0.2036  0.4432 -0.0016
39596SOL    HW122380   0.632   4.280   0.514  0.4579 -1.9199  0.4853
39596SOL    HW222381   0.536   4.188   0.587 -2.4665  1.1343  0.7259
39597SOL     OW22382   4.988   3.655   0.940  0.2212 -0.4667  0.2989
39597SOL    HW122383   4.968   3.744   0.913  2.3697 -0.0486 -0.1028
39597SOL    HW222384   5.059   3.665   1.004 -0.6865 -1.8070  1.5795
39598SOL     OW22385   0.517   1.616   3.677  0.5124 -0.1703 -0.1185
39598SOL    HW122386   0.493   1.580   3.762 -0.4347  1.3436  0.3008
39598SOL    HW222387   0.444   1.591   3.619  0.1562  0.5002  0.0260
39599SOL     OW22388   3.301   8.043   3.975  0.5144  0.2456 -0.9339
39599SOL    HW122389   3.322   8.126   4.018  1.5531  0.0313 -0.9829
39599SOL    HW222390   3.371   7.984   4.002 -0.8807 -0.9946  0.1036
39600SOL     OW22391   0.741   3.604   7.881  0.1338 -0.0136 -0.0713
39600SOL    HW122392   0.784   3.634   7.961 -2.3973  0.8710  1.0673
39600SOL    HW222393   0.720   3.685   7.833  0.5419 -0.4681 -1.0520
39601SOL     OW22394   9.133   0.390   9.528  0.2318 -0.5042  0.6187
39601SOL    HW122395   9.218   0.396   9.573  0.1261  1.0152  0.6641
39601SOL    HW222396   9.103   0.481   9.522 -0.7006 -0.8827 -0.7287
39602SOL     OW22397  10.079   2.256   5.009  0.1544 -0.2086 -0.3716
39602SOL    HW122398  10.103   2.338   4.966  1.9078 -1.4509 -1.9076
39602SOL    HW222399  10.136   2.252   5.086  1.2685 -0.7216 -1.1968
39603SOL     OW22400   5.957   1.177   3.929 -0.5273 -0.2879 -0.5475
39603SOL    HW122401   6.041   1.130   3.927 -0.1136  0.4140 -2.7754
39603SOL    HW222402   5.966   1.238   4.002  1.3319  0.4145 -1.2919
39604SOL     OW22403   0.723   5.248   4.133  0.5309 -0.2402  0.3016
39604SOL    HW122404   0.691   5.166   4.170  1.0945 -0.4575  0.3174
39604SOL    HW222405   0.673   5.259   4.052 -0.0695 -0.2180  0.6684
39605SOL     OW22406   8.761   6.465   3.730 -0.0333 -0.5575 -0.2350
39605SOL    HW122407   8.750   6.457   3.635 -0.1589  1.9762 -0.5134
39605SOL    HW222408   8.855   6.470   3.742 -0.0251 -0.6279 -0.2675
39606SOL     OW22409   1.550   5.855  10.411 -0.2170  0.7680 -0.2772
39606SOL    HW122410   1.588   5.770  10.388 -1.1072  0.4198 -0.5354
39606SOL    HW222411   1.455   5.840  10.408 -0.3933  1.8540 -0.6427
39607SOL     OW22412   8.841   9.348  11.092  1.0094  0.3673  0.0053
39607SOL    HW122413   8.851   9.433  11.050  1.5519  0.5096  0.4128
39607SOL    HW222414   8.836   9.367  11.186 -0.7172  0.0928  0.0005
39608SOL     OW22415  10.877   8.070   3.251 -0.0655  0.2360  0.2284
39608SOL    HW122416  10.861   8.062   3.157 -0.4777  0.5241  0.2715
39608SOL    HW222417  10.964   8.034   3.264 -0.0472  0.1069 -0.2523
39609SOL     OW22418   6.918   3.917   3.094 -0.3101 -0.9550 -0.4407
39609SOL    HW122419   6.950   3.925   3.184  0.2155  1.7628 -0.7992
39609SOL    HW222420   6.856   3.990   3.084 -0.1434 -1.0324 -2.3633
39610SOL     OW22421   9.665   1.486  10.953  0.6693 -0.2573  0.0164
39610SOL    HW122422   9.704   1.505  11.038  1.0551 -0.7234 -0.0521
39610SOL    HW222423   9.672   1.391  10.944 -0.5522 -0.3628  0.0315
39611SOL     OW22424   4.427   8.284   4.853 -0.1367  0.4632 -0.0750
39611SOL    HW122425   4.399   8.215   4.793 -0.0856  1.4140 -1.2158
39611SOL    HW222426   4.418   8.244   4.940  0.3176 -1.1222 -0.7138
39612SOL     OW22427   6.399   7.648   9.913  0.0690  0.2000  0.6703
39612SOL    HW122428   6.382   7.642   9.819  1.1163  1.1481  0.3914
39612SOL    HW222429   6.314   7.631   9.954 -0.2508 -1.0043 -0.3993
39613SOL     OW22430  10.043   0.306   7.158  0.3598  0.3530 -0.0401
39613SOL    HW122431   9.995   0.370   7.210  1.0248  0.7861  0.0480
39613SOL    HW222432   9.975   0.246   7.125 -0.0425 -0.1409  1.5938
39614SOL     OW22433   9.990   5.781   5.733 -0.5113  0.2923 -0.1738
39614SOL    HW122434  10.066   5.746   5.780  0.4450 -1.2132 -2.6435
39614SOL    HW222435   9.928   5.709   5.731 -1.4011  1.0165  0.4881
39615SOL     OW22436   2.070   5.842   2.882  0.5416 -0.2709 -0.2392
39615SOL    HW122437   2.029   5.830   2.968  0.0031 -0.9691 -0.5780
39615SOL    HW222438   2.144   5.781   2.882 -0.3540 -1.4070 -0.8102
39616SOL     OW22439   9.172   0.373   9.943  0.4322  0.1398  0.2865
39616SOL    HW122440   9.117   0.444   9.910  0.7905 -0.1802 -1.0885
39616SOL    HW222441   9.111   0.309   9.979 -0.2477 -0.7460 -2.2521
39617SOL     OW22442   7.305   5.118   9.370  0.5565  0.2031  0.2579
39617SOL    HW122443   7.260   5.041   9.404 -0.4755  1.4684  1.9035
39617SOL    HW222444   7.336   5.164   9.448  2.2222  0.8641 -0.7361
39618SOL     OW22445   5.349   0.389  10.195 -0.0892 -0.0519 -0.2568
39618SOL    HW122446   5.328   0.472  10.238  1.2636  0.3177 -0.2459
39618SOL    HW222447   5.425   0.356  10.242 -0.6366 -1.3468 -0.2320
39619SOL     OW22448  10.447   9.506   9.387  0.0048  0.0074 -0.0041
39619SOL    HW122449  10.385   9.488   9.457 -2.3287  0.8761 -1.7149
39619SOL    HW222450  10.393   9.512   9.308  2.3017  0.7017 -1.6311
39620SOL     OW22451   6.607   8.564   4.819 -0.0175 -0.2185  0.3218
39620SOL    HW122452   6.681   8.608   4.862 -0.1917 -0.7212  1.1645
39620SOL    HW222453   6.599   8.607   4.734  0.8143  0.3005  0.4993
39621SOL     OW22454   1.161   0.620   1.938 -0.7898 -0.2773  0.0900
39621SOL    HW122455   1.121   0.582   2.016  0.1975 -1.3658  0.0907
39621SOL    HW222456   1.165   0.548   1.875  0.4849 -0.0202 -0.1492
39622SOL     OW22457   6.198   2.549   7.330 -0.6104  0.0232  0.3659
39622SOL    HW122458   6.292   2.545   7.346 -0.3241 -0.6197 -1.3024
39622SOL    HW222459   6.160   2.497   7.400  0.4314 -1.2347  0.0323
39623SOL     OW22460  10.689   8.947   5.385 -0.0626 -0.5118  0.1218
39623SOL    HW122461  10.612   8.999   5.363  0.2816  0.4946  1.1820
39623SOL    HW222462  10.754   9.012   5.413  1.1449 -1.3508 -0.6794
39624SOL     OW22463  10.148   2.146   9.459  0.3848  0.2577 -0.0963
39624SOL    HW122464  10.212   2.201   9.505  1.3181 -0.3679 -0.6147
39624SOL    HW222465  10.065   2.162   9.505  1.1923 -0.0262  1.5199
39625SOL     OW22466   6.164   1.522   2.475 -0.0024 -0.4159  0.2902
39625SOL    HW122467   6.240   1.556   2.427 -0.9638 -0.8092 -1.6018
39625SOL    HW222468   6.110   1.599   2.492 -0.2064 -0.4133 -0.3271
39626SOL     OW22469  10.118  10.863   3.704 -0.3239  0.5571 -0.6887
39626SOL    HW122470  10.138  10.770   3.712  0.7002  0.9371  2.2758
39626SOL    HW222471  10.190  10.908   3.749 -1.7216  2.6742 -0.4138
39627SOL     OW22472   0.797  10.057   2.541  0.2861 -0.3543 -0.1031
39627SOL    HW122473   0.784  10.148   2.569 -1.1106 -0.2337 -1.0482
39627SOL    HW222474   0.755  10.004   2.609  0.4107 -0.2599  0.0482
39628SOL     OW22475   7.299   4.452  10.732 -0.0169 -0.0521 -0.0642
39628SOL    HW122476   7.361   4.391  10.771 -0.5365 -0.2724  0.4301
39628SOL    HW222477   7.283   4.517  10.800 -0.8060 -0.3467  0.0415
39629SOL     OW22478   6.802   8.136   6.680  0.0281  0.2431 -0.2424
39629SOL    HW122479   6.819   8.202   6.747 -1.2121 -0.8521  1.2177
39629SOL    HW222480   6.708   8.138   6.667  0.3434  1.4342 -3.1205
39630SOL     OW22481   1.415   2.692   6.548 -0.2810 -0.4294 -0.1567
39630SOL    HW122482   1.474   2.633   6.595 -0.6002 -0.7905 -0.2042
39630SOL    HW222483   1.375   2.745   6.616 -0.1679 -0.4263 -0.0924
39631SOL     OW22484   1.539  10.376   1.654  1.1219 -0.2157  0.6327
39631SOL    HW122485   1.493  10.305   1.698 -0.0435 -0.0443 -0.2733
39631SOL    HW222486   1.496  10.383   1.569  2.7524  0.0363 -0.2046
39632SOL     OW22487   0.670   4.397   2.733  0.0154  0.1587  0.0461
39632SOL    HW122488   0.666   4.347   2.652 -0.0023  0.2312  0.0030
39632SOL    HW222489   0.581   4.392   2.768  0.5654 -2.0630  1.3604
39633SOL     OW22490   9.061  10.944   3.838  0.2318 -0.0429 -0.0101
39633SOL    HW122491   9.121  10.965   3.767  0.4562 -0.1458  0.1476
39633SOL    HW222492   8.975  10.941   3.797  0.3691 -0.1767 -0.2913
39634SOL     OW22493   8.619   7.820   0.368 -0.2194 -0.5808 -0.1591
39634SOL    HW122494   8.545   7.761   0.386  0.9759 -1.5055  2.0685
39634SOL    HW222495   8.631   7.813   0.273 -1.5804 -2.1626 -0.2772
39635SOL     OW22496   6.061   9.007   6.364 -0.6986  0.3406  0.2983
39635SOL    HW122497   6.117   8.992   6.440  1.6912  0.6101 -1.3013
39635SOL    HW222498   6.046   9.102   6.364  1.4534  0.7437 -0.8932
39636SOL     OW22499   2.002   9.252   2.425  0.2052 -0.2408  0.1953
39636SOL    HW122500   2.009   9.200   2.345 -0.5637  0.9994 -0.7025
39636SOL    HW222501   2.068   9.213   2.484  2.9154  0.6337 -2.0328
39637SOL     OW22502  10.080   0.655   0.209 -0.5786  0.5113  0.6259
39637SOL    HW122503  10.041   0.568   0.218 -0.3225  0.5090  1.8094
39637SOL    HW222504  10.044   0.706   0.282  0.2365  1.0326  0.6783
39638SOL     OW22505   8.816   0.769   1.877 -0.4546 -0.5862  0.2613
39638SOL    HW122506   8.852   0.686   1.910 -0.3896  0.0631  1.8934
39638SOL    HW222507   8.790   0.749   1.787  2.0760 -1.6503 -0.3210
39639SOL     OW22508   0.295   4.621   3.700  0.0601 -0.1364  0.6388
39639SOL    HW122509   0.204   4.645   3.686  1.1108  3.2884 -1.6009
39639SOL    HW222510   0.323   4.580   3.618  0.4041 -1.8849  1.5815
39640SOL     OW22511   4.143   5.796   9.895 -0.2611 -0.1515  0.4715
39640SOL    HW122512   4.129   5.720   9.951 -0.2137  1.4570  2.8066
39640SOL    HW222513   4.238   5.812   9.900 -0.4588  0.8725  1.1726
39641SOL     OW22514   3.979   5.869  10.713  0.2085 -0.3102 -0.2844
39641SOL    HW122515   3.942   5.783  10.696 -1.2056  0.4302 -1.1603
39641SOL    HW222516   4.071   5.853  10.734 -0.0090 -1.9982 -0.5467
39642SOL     OW22517  10.575   0.459   2.988  0.1054 -0.8190 -0.0794
39642SOL    HW122518  10.633   0.421   2.921  0.9073  0.3619 -0.0870
39642SOL    HW222519  10.584   0.402   3.064 -0.5754 -2.0017 -0.8557
39643SOL     OW22520   0.906   0.891   0.918  0.0831  0.3686  0.4040
39643SOL    HW122521   0.980   0.887   0.979 -0.0708 -0.7242  0.5362
39643SOL    HW222522   0.888   0.984   0.909  0.0966  0.5692  2.0684
39644SOL     OW22523   1.897   3.247  10.684  0.0003  0.5084 -0.2796
39644SOL    HW122524   1.984   3.260  10.645  0.0371 -1.8863 -1.1389
39644SOL    HW222525   1.902   3.291  10.769  2.8372 -1.3609  0.6579
39645SOL     OW22526   1.566   9.280  11.095  0.1549  0.1361  0.0182
39645SOL    HW122527   1.582   9.344  11.166  1.6597  1.1862 -1.1950
39645SOL    HW222528   1.474   9.291  11.074 -0.4726 -0.5492  2.1085
39646SOL     OW22529   6.058   5.818   1.465  1.1023  0.2127 -0.0979
39646SOL    HW122530   6.067   5.830   1.370 -0.6333  2.0465 -0.0852
39646SOL    HW222531   5.986   5.756   1.475  3.3485 -2.5757  0.0550
39647SOL     OW22532   4.924   6.031   3.464  0.4129 -0.4460  0.5242
39647SOL    HW122533   4.976   6.030   3.384 -1.7105 -0.3813 -0.9181
39647SOL    HW222534   4.877   5.948   3.464  0.6399 -0.6106  1.9341
39648SOL     OW22535   0.371   3.757   1.936  0.4054  0.1554 -0.4978
39648SOL    HW122536   0.316   3.748   1.858  2.2668 -2.7035 -1.6372
39648SOL    HW222537   0.313   3.796   2.001 -1.5725  1.5934 -2.9277
39649SOL     OW22538   4.889  10.275   4.185  0.1016 -0.3912 -0.8626
39649SOL    HW122539   4.969  10.267   4.237 -1.6888  0.2155  2.2623
39649SOL    HW222540   4.897  10.361   4.144  0.5918  0.1879  0.3729
39650SOL     OW22541   5.496   8.127   5.986  0.2168 -0.4033  0.5210
39650SOL    HW122542   5.491   8.051   5.928 -1.7428 -1.0722  1.4588
39650SOL    HW222543   5.411   8.170   5.977  0.2312  0.0456  2.1182
39651SOL     OW22544   2.523  10.270   9.421 -0.1529  0.3381 -0.6436
39651SOL    HW122545   2.489  10.300   9.336  0.9178 -0.0817 -1.2456
39651SOL    HW222546   2.602  10.322   9.435  0.0475 -0.0688 -0.2292
39652SOL     OW22547   0.399   7.367   3.418  0.2512 -0.4368  0.4341
39652SOL    HW122548   0.409   7.336   3.507 -0.6162  0.2819  0.7974
39652SOL    HW222549   0.353   7.297   3.372 -0.2245 -0.3728  0.8156
39653SOL     OW22550   4.762   8.218   6.779  0.8102 -0.1143 -0.3227
39653SOL    HW122551   4.720   8.141   6.816  1.6725 -0.0053  0.9497
39653SOL    HW222552   4.841   8.230   6.832  0.6519  1.6871 -0.4479
39654SOL     OW22553  10.201   5.907   4.400 -0.6841  0.8563 -0.8261
39654SOL    HW122554  10.278   5.849   4.399 -1.0398  0.3127  0.5363
39654SOL    HW222555  10.224   5.977   4.340  1.4818  1.4399  0.5287
39655SOL     OW22556   0.716   9.620   4.154  0.3941 -0.7352  1.0102
39655SOL    HW122557   0.698   9.685   4.221  1.5732 -0.3884  1.0150
39655SOL    HW222558   0.696   9.665   4.071  2.0069 -0.0556  0.9639
39656SOL     OW22559   8.704   6.875   0.839  0.1262 -0.1945  0.1296
39656SOL    HW122560   8.746   6.950   0.798 -1.5304  0.4748 -0.4272
39656SOL    HW222561   8.615   6.905   0.861 -0.8455 -2.1680 -0.7788
39657SOL     OW22562   6.135   3.144   1.064 -0.1061  0.4211  0.3705
39657SOL    HW122563   6.170   3.066   1.107 -0.1370  1.6527  2.7518
39657SOL    HW222564   6.064   3.174   1.121  0.2325  2.4810 -0.2203
39658SOL     OW22565   4.827  10.840   4.502  0.4562  0.3188 -0.1959
39658SOL    HW122566   4.839  10.927   4.463 -2.8621  2.5402  3.0630
39658SOL    HW222567   4.869  10.847   4.588  0.2205 -1.3520  0.0781
39659SOL     OW22568   6.250  10.328   3.372 -0.4133  0.1749  0.0788
39659SOL    HW122569   6.223  10.238   3.388 -0.2996  0.0739 -0.2753
39659SOL    HW222570   6.188  10.381   3.420 -1.6355 -0.0303 -1.1958
39660SOL     OW22571   7.219   2.440   8.183 -0.0646  0.2085  0.3774
39660SOL    HW122572   7.147   2.426   8.121 -0.8093 -2.4037  1.6754
39660SOL    HW222573   7.178   2.483   8.258 -0.0424 -0.2235  0.6417
39661SOL     OW22574   7.113   0.877   2.277  0.4788  0.0273 -0.8259
39661SOL    HW122575   7.165   0.806   2.313 -0.2048 -0.5880 -1.0269
39661SOL    HW222576   7.159   0.903   2.197 -0.3022 -1.5596 -1.8581
39662SOL     OW22577   2.477   9.967   0.367  0.4915  0.8118 -0.3406
39662SOL    HW122578   2.472  10.055   0.404 -1.2632  0.8551 -0.5735
39662SOL    HW222579   2.422   9.971   0.288 -0.3388 -0.6966  0.1191
39663SOL     OW22580   4.693  10.484   0.167 -0.1677 -0.0966  1.1400
39663SOL    HW122581   4.630  10.478   0.239 -2.5330  2.9438 -0.4317
39663SOL    HW222582   4.638  10.497   0.089  2.3801  1.2595 -0.5520
39664SOL     OW22583  10.283  10.476   0.246 -0.0566 -0.1632 -0.8531
39664SOL    HW122584  10.325  10.400   0.205 -0.9397 -0.8076 -0.6085
39664SOL    HW222585  10.320  10.478   0.334 -0.5923 -0.7771 -0.6104
39665SOL     OW22586   0.446   2.052   1.332 -0.3163 -0.1488 -0.1332
39665SOL    HW122587   0.493   2.046   1.415  1.2270  1.3352 -0.8243
39665SOL    HW222588   0.491   2.122   1.284 -2.0277 -0.0185 -1.6716
39666SOL     OW22589  10.097   2.456   1.422 -0.0509  0.4545  0.3536
39666SOL    HW122590  10.101   2.429   1.330  0.6492 -0.6361  0.6894
39666SOL    HW222591  10.033   2.527   1.423 -1.1530 -0.4715 -0.7469
39667SOL     OW22592   5.687   2.522  10.360  0.3010 -0.0910 -0.1000
39667SOL    HW122593   5.630   2.445  10.366  0.4700 -0.3381 -1.4541
39667SOL    HW222594   5.698   2.538  10.267  1.6873  0.5360  0.1330
39668SOL     OW22595   7.486   3.325   0.717  0.5566 -0.1328  0.3096
39668SOL    HW122596   7.543   3.403   0.713  0.4862 -0.1223 -0.6175
39668SOL    HW222597   7.526   3.263   0.656 -0.0873 -0.3512  0.1029
39669SOL     OW22598   1.613   4.893   9.418 -0.2662  0.1546  0.0013
39669SOL    HW122599   1.618   4.988   9.413 -0.3592  0.1508 -0.2120
39669SOL    HW222600   1.617   4.873   9.511  0.1207  0.3439  0.0256
39670SOL     OW22601   5.690   7.283   2.512 -0.1447  0.6106 -0.2857
39670SOL    HW122602   5.685   7.248   2.601 -0.8550 -0.4476 -0.7326
39670SOL    HW222603   5.709   7.208   2.457  0.8031  1.3432 -0.9934
39671SOL     OW22604  10.447   8.118   3.984  0.0326  0.0702  0.0305
39671SOL    HW122605  10.521   8.076   4.027 -0.3833 -0.2710  0.4157
39671SOL    HW222606  10.485   8.158   3.906  0.6761  0.1433  0.3710
39672SOL     OW22607   2.820   1.949   0.392 -0.1214  0.1118 -0.3860
39672SOL    HW122608   2.804   2.040   0.369 -0.1446 -0.4798 -3.0790
39672SOL    HW222609   2.913   1.946   0.416  0.3091  0.6059 -1.8864
39673SOL     OW22610   6.543   8.306   4.857  0.2355 -0.6048 -0.3390
39673SOL    HW122611   6.565   8.398   4.840  1.5445 -0.7497  0.4158
39673SOL    HW222612   6.577   8.259   4.781  0.1363 -0.5392 -0.4245
39674SOL     OW22613   6.719   4.232   0.922  0.4959 -0.0659 -0.4620
39674SOL    HW122614   6.625   4.248   0.916  0.4606  1.6655  2.6490
39674SOL    HW222615   6.740   4.185   0.842 -3.2061 -1.6138 -0.7334
39675SOL     OW22616   7.490   2.980   8.490 -0.2048  0.6313 -0.1200
39675SOL    HW122617   7.494   2.961   8.584 -0.5850  1.3574  0.0559
39675SOL    HW222618   7.501   3.075   8.485  0.9904  0.4737 -0.9000
39676SOL     OW22619   2.347   0.292   7.988 -0.4142  0.1680 -0.1818
39676SOL    HW122620   2.366   0.349   7.913  0.0855 -0.2783 -0.3995
39676SOL    HW222621   2.430   0.284   8.034 -0.3251 -0.8838 -0.4996
39677SOL     OW22622   0.003   9.515   9.026 -0.1630 -0.5269  0.0337
39677SOL    HW122623  -0.038   9.453   8.965  1.4458  0.7421 -2.5371
39677SOL    HW222624  -0.066   9.539   9.087 -1.4622 -3.0369 -0.3497
39678SOL     OW22625   0.069   4.815   4.363 -0.1078 -0.3311 -0.4724
39678SOL    HW122626   0.132   4.832   4.433 -0.8401  0.1415  0.0838
39678SOL    HW222627   0.121   4.779   4.292  0.7163 -0.4024  0.1574
39679SOL     OW22628   2.025   7.980   6.765 -0.0740  0.0728  0.0357
39679SOL    HW122629   1.993   8.070   6.758  1.3958  0.5130 -1.4849
39679SOL    HW222630   2.071   7.977   6.849  0.1343  0.8256 -0.0511
39680SOL     OW22631   4.624   2.782   9.584  0.2030  0.9832 -0.3199
39680SOL    HW122632   4.549   2.724   9.597 -0.4886  2.0341  0.5240
39680SOL    HW222633   4.637   2.782   9.489  0.3424 -0.6722 -0.3358
39681SOL     OW22634   7.192  10.118   6.407 -0.9725  0.4769 -0.5311
39681SOL    HW122635   7.175  10.132   6.500 -2.8873  1.6781 -0.9867
39681SOL    HW222636   7.179  10.024   6.394  2.6487 -0.3654  0.9376
39682SOL     OW22637  10.535   2.128   2.020 -0.0458  0.0346 -0.6142
39682SOL    HW122638  10.534   2.206   1.963 -1.9149 -0.7275 -1.7283
39682SOL    HW222639  10.442   2.111   2.038  0.3240 -1.8791 -0.3191
39683SOL     OW22640   9.595   7.985   9.832  0.1854  0.0594  0.1059
39683SOL    HW122641   9.581   7.951   9.920 -0.5235 -0.9053 -0.3607
39683SOL    HW222642   9.512   7.973   9.788  0.2260  1.4816 -0.4083
39684SOL     OW22643   2.706   1.153   9.479 -0.5163 -0.0507  0.7222
39684SOL    HW122644   2.676   1.081   9.533 -2.6367 -1.5236 -2.1329
39684SOL    HW222645   2.780   1.117   9.430 -0.3200  0.3807  0.6920
39685SOL     OW22646  10.016   0.681   3.198  0.4905  0.0464 -0.3697
39685SOL    HW122647  10.089   0.653   3.143 -0.8890 -1.7656 -1.3970
39685SOL    HW222648  10.015   0.619   3.271 -0.5397 -0.5514 -0.8618
39686SOL     OW22649   5.047   0.174   6.040 -0.5557 -1.0483 -0.0176
39686SOL    HW122650   5.080   0.084   6.039  2.9548  0.0483 -3.1728
39686SOL    HW222651   5.003   0.184   5.956 -2.0109 -0.0826  0.8185
39687SOL     OW22652   3.750   9.679   9.222  0.0012 -0.4539  0.1315
39687SOL    HW122653   3.828   9.675   9.167  0.3363  0.4506  0.5254
39687SOL    HW222654   3.712   9.765   9.205 -0.6055 -0.6692  0.3542
39688SOL     OW22655   9.146   0.218  10.551 -0.0804  0.2443  0.3967
39688SOL    HW122656   9.121   0.246  10.639 -1.6173 -1.0660  0.4282
39688SOL    HW222657   9.096   0.275  10.492  1.4199  1.5372  0.3225
39689SOL     OW22658   4.240  11.027   6.493  0.4930  0.4033 -0.0479
39689SOL    HW122659   4.302  10.969   6.537  1.7267  0.1704 -1.9826
39689SOL    HW222660   4.155  11.001   6.527  1.1797 -1.2699  0.5181
39690SOL     OW22661  10.064   4.010   3.513  0.1577 -0.9447  0.2550
39690SOL    HW122662  10.004   4.080   3.538  0.2187 -1.0462  0.6952
39690SOL    HW222663  10.138   4.056   3.471 -0.7366 -0.8996 -1.3630
39691SOL     OW22664  11.034   8.748  11.078  0.3028 -0.5292  0.0422
39691SOL    HW122665  11.117   8.742  11.031  0.4521  0.9185  0.0702
39691SOL    HW222666  10.970   8.773  11.011  0.3192  0.5094  0.3956
39692SOL     OW22667   5.514   3.127   5.796  0.5540  0.2589 -0.2872
39692SOL    HW122668   5.423   3.119   5.766  0.5298  0.9989 -0.4455
39692SOL    HW222669   5.533   3.043   5.837 -0.0690 -0.0563 -0.6157
39693SOL     OW22670   2.184   9.928   3.207 -0.5100 -0.3334 -0.3642
39693SOL    HW122671   2.172   9.856   3.270  0.1306  0.1510  0.3229
39693SOL    HW222672   2.270   9.964   3.227 -1.0459  0.9969 -0.3106
39694SOL     OW22673   5.877   1.459   0.540  0.2003  0.0259 -0.2261
39694SOL    HW122674   5.930   1.539   0.545  0.4418 -0.1765  0.6143
39694SOL    HW222675   5.792   1.485   0.574  0.5966 -0.3173  1.1080
39695SOL     OW22676  10.760   4.035  10.033  0.3174  0.0691  0.3279
39695SOL    HW122677  10.799   4.078  10.109  1.6240  1.3161 -0.9923
39695SOL    HW222678  10.766   4.100   9.963 -0.2839 -1.2578 -1.0066
39696SOL     OW22679   6.994   1.715   9.596  0.0893  0.0379 -0.2064
39696SOL    HW122680   7.005   1.717   9.691  0.8783  1.0938 -0.3069
39696SOL    HW222681   7.022   1.801   9.566 -0.4826 -0.1533 -1.3726
39697SOL     OW22682   7.080   8.566   3.278  0.5997 -1.0231 -0.0516
39697SOL    HW122683   7.112   8.523   3.357 -0.3559  0.6807  1.3267
39697SOL    HW222684   7.083   8.659   3.299  2.0785 -0.3716 -2.7304
39698SOL     OW22685   7.232   3.670  11.037 -0.3481  0.0556  0.4463
39698SOL    HW122686   7.282   3.640  10.961  0.4987  1.1797  0.5220
39698SOL    HW222687   7.146   3.629  11.028  0.1868 -0.9218 -0.3703
39699SOL     OW22688   3.914   3.317   0.871 -0.7521  0.1420  0.2866
39699SOL    HW122689   3.979   3.362   0.818 -0.1132 -1.1547 -0.0664
39699SOL    HW222690   3.944   3.328   0.961 -0.6046  0.4258  0.2036
39700SOL     OW22691   6.107  10.960  10.275  0.4128  0.4046  0.1188
39700SOL    HW122692   6.053  11.018  10.329  0.7761  0.4993  0.3825
39700SOL    HW222693   6.196  10.969  10.311  0.2714 -1.2951  1.0047
39701SOL     OW22694   2.244   7.044  10.940 -0.0271  0.2870  0.3663
39701SOL    HW122695   2.177   7.036  11.008  1.9847  1.5553  2.6241
39701SOL    HW222696   2.291   6.961  10.943 -0.4126  0.0507 -0.0316
39702SOL     OW22697   9.784   0.182   2.485 -0.2756 -0.4763  0.0775
39702SOL    HW122698   9.782   0.120   2.412  1.5074 -0.4347 -0.0539
39702SOL    HW222699   9.708   0.159   2.538 -1.2206 -0.9565 -1.4195
39703SOL     OW22700  10.716   1.777   7.683 -0.3883  0.0956  0.0065
39703SOL    HW122701  10.677   1.814   7.762 -0.2350 -1.6040  0.9333
39703SOL    HW222702  10.807   1.759   7.708 -0.7820 -2.1100  0.1003
39704SOL     OW22703   1.558  11.063   0.032 -0.3949  0.2118 -0.1260
39704SOL    HW122704   1.569  11.149   0.073  1.4214 -0.1755  0.2882
39704SOL    HW222705   1.589  11.001   0.098  0.9315 -0.5403 -1.4109
39705SOL     OW22706  10.759   0.395   0.739 -0.1488  0.0017 -0.3011
39705SOL    HW122707  10.770   0.462   0.671 -0.5199 -0.4729 -0.8396
39705SOL    HW222708  10.716   0.441   0.811  2.1675  1.0468  0.5093
39706SOL     OW22709   4.053   5.289   4.208 -0.2949  0.4422  0.0284
39706SOL    HW122710   4.133   5.342   4.213 -0.1784  0.4599 -1.4535
39706SOL    HW222711   4.065   5.235   4.130 -2.1550  1.1938 -0.8542
39707SOL     OW22712   2.718   7.125   5.361  0.2616 -0.7393 -0.1252
39707SOL    HW122713   2.649   7.060   5.375  1.0220 -0.9906  3.1249
39707SOL    HW222714   2.730   7.166   5.446  2.8339  0.6380 -1.0547
39708SOL     OW22715   9.112   3.005   1.489 -0.0842 -0.0657  0.0523
39708SOL    HW122716   9.022   3.005   1.455 -0.7142 -1.5564  1.6040
39708SOL    HW222717   9.122   3.092   1.528 -1.1010 -0.0984  0.4269
39709SOL     OW22718   4.434   6.145   4.996 -0.0351 -0.6008 -0.1592
39709SOL    HW122719   4.423   6.201   5.073  0.5242  1.0875 -1.2403
39709SOL    HW222720   4.435   6.056   5.031 -0.7759  0.0508  1.6633
39710SOL     OW22721   5.352   5.845   3.686 -0.2440  0.0235 -0.2733
39710SOL    HW122722   5.293   5.877   3.755 -1.1781 -0.8285 -0.6581
39710SOL    HW222723   5.338   5.904   3.612 -0.6541 -0.2061 -0.3800
39711SOL     OW22724   2.109   9.326   0.642  0.1473 -0.3141  0.2946
39711SOL    HW122725   2.116   9.233   0.622 -0.7314 -0.1258 -1.0826
39711SOL    HW222726   2.020   9.338   0.673 -0.2771  0.2831 -1.0582
39712SOL     OW22727   7.396   2.235   3.832 -0.2092 -0.7936  0.2194
39712SOL    HW122728   7.386   2.150   3.876 -0.4886 -1.0077 -0.2498
39712SOL    HW222729   7.412   2.296   3.904  1.4931 -1.4564  0.4469
39713SOL     OW22730   8.427   1.451   2.933  0.7404 -0.1154 -0.5048
39713SOL    HW122731   8.514   1.491   2.925  0.6995 -0.4214 -3.2814
39713SOL    HW222732   8.368   1.513   2.892 -0.4544  0.1555  1.4886
39714SOL     OW22733   5.709   1.791   2.882  0.2988 -0.8784 -0.3292
39714SOL    HW122734   5.773   1.806   2.812  1.5683 -2.9703  0.2936
39714SOL    HW222735   5.693   1.878   2.919  0.1870  0.1770 -2.6559
39715SOL     OW22736   7.894  10.088   6.593 -0.7902 -0.3992 -0.2033
39715SOL    HW122737   7.947  10.072   6.516  0.9173  0.0184  0.8426
39715SOL    HW222738   7.812  10.125   6.559 -0.4952 -1.1981 -1.8562
39716SOL     OW22739  11.010   2.109   8.126 -0.0267  0.0491 -0.4672
39716SOL    HW122740  10.959   2.129   8.204 -0.0006  0.9882 -0.6769
39716SOL    HW222741  11.018   2.014   8.126  3.1769  0.1070  2.7229
39717SOL     OW22742   5.479   7.689   4.642  0.3335 -0.0029 -0.0214
39717SOL    HW122743   5.551   7.720   4.696  0.6716 -0.7430 -0.0333
39717SOL    HW222744   5.469   7.597   4.666 -0.1132 -0.1000 -0.5581
39718SOL     OW22745   0.435   8.142   0.864 -0.0826  0.0773  0.6891
39718SOL    HW122746   0.418   8.057   0.824 -1.5235 -0.1182  1.6293
39718SOL    HW222747   0.428   8.126   0.958  1.4894  0.8654  0.9738
39719SOL     OW22748   3.521   0.345   5.537 -0.0841  0.2070  0.2249
39719SOL    HW122749   3.482   0.386   5.460 -1.3993  1.2377  1.4100
39719SOL    HW222750   3.521   0.251   5.516 -1.3019  0.3832 -0.6357
39720SOL     OW22751   1.653   2.471   0.929  0.2400 -0.1237 -0.7755
39720SOL    HW122752   1.747   2.483   0.941  0.2611  1.0765 -1.9113
39720SOL    HW222753   1.644   2.383   0.891  0.7346 -0.9198  0.8680
39721SOL     OW22754   9.029   2.740   9.823 -0.5400  0.3013  0.1799
39721SOL    HW122755   8.969   2.698   9.760 -2.1625  0.9655  1.2097
39721SOL    HW222756   9.087   2.670   9.851 -2.1010 -0.8785  0.5942
39722SOL     OW22757  10.562   1.008  11.034 -0.1343  0.5195 -0.5409
39722SOL    HW122758  10.517   1.085  11.070  1.7233  0.7296  1.6052
39722SOL    HW222759  10.496   0.940  11.033 -0.9447  1.2322  0.9448
39723SOL     OW22760  10.878   1.560   7.057 -0.1119 -0.2848  0.2202
39723SOL    HW122761  10.874   1.610   7.138 -1.5923 -0.0811  0.0447
39723SOL    HW222762  10.898   1.470   7.084 -0.0281 -0.1042  0.7563
39724SOL     OW22763   1.153   1.026   7.860  0.0428  0.9134  0.4601
39724SOL    HW122764   1.119   1.096   7.917  0.4918  1.2674  0.2920
39724SOL    HW222765   1.139   1.059   7.771 -1.0289  0.1871  0.3417
39725SOL     OW22766   9.593   7.734  10.117 -0.4021 -0.1447  0.7520
39725SOL    HW122767   9.576   7.810  10.173 -0.2118  0.8351 -0.4641
39725SOL    HW222768   9.542   7.663  10.156 -1.1393  0.7822  1.5336
39726SOL     OW22769  10.817   5.586   2.332  0.0497 -0.0670 -0.2366
39726SOL    HW122770  10.756   5.614   2.401  0.3337  1.0613 -0.4221
39726SOL    HW222771  10.900   5.629   2.355  0.6534 -1.1666 -0.2745
39727SOL     OW22772   6.421   8.797   5.745  0.6547 -0.1491 -0.3901
39727SOL    HW122773   6.365   8.811   5.821  1.8826 -1.9918  0.9344
39727SOL    HW222774   6.429   8.884   5.705 -1.5957  0.4944  0.4095
39728SOL     OW22775   1.354   0.790   4.083  0.8470 -0.2668  0.2249
39728SOL    HW122776   1.353   0.774   3.989 -0.1874 -0.3440  0.2458
39728SOL    HW222777   1.439   0.756   4.112  1.6534  0.7623 -0.8396
39729SOL     OW22778  10.315   3.558   1.011  0.1266  0.0348 -0.6272
39729SOL    HW122779  10.319   3.654   1.011  0.5776  0.0188 -0.3437
39729SOL    HW222780  10.222   3.538   1.013  0.0079  0.4717  1.9862
39730SOL     OW22781   4.995   1.589   9.281 -0.0844  0.0759 -0.2689
39730SOL    HW122782   5.038   1.507   9.256  1.6062  0.7878  0.1749
39730SOL    HW222783   5.033   1.611   9.366 -0.3077  1.4528 -0.5039
39731SOL     OW22784   8.998   3.454   6.902 -0.4712 -0.0517  0.7074
39731SOL    HW122785   9.025   3.418   6.987  0.7583  1.5113  1.0399
39731SOL    HW222786   9.036   3.542   6.901 -1.7269  0.5118 -0.8534
39732SOL     OW22787   6.780   2.111  10.690  0.2106 -0.3891  0.0743
39732SOL    HW122788   6.727   2.109  10.769 -0.5104 -3.1208 -0.4013
39732SOL    HW222789   6.742   2.182  10.638 -1.7237 -0.9861  0.5984
39733SOL     OW22790   4.672  10.644   8.058  0.6316  0.0780  0.1040
39733SOL    HW122791   4.682  10.737   8.078  1.0732  0.0939 -0.1689
39733SOL    HW222792   4.692  10.637   7.964 -0.6328 -0.1060 -0.1728
39734SOL     OW22793   4.722   4.575   4.506  0.0859  0.6427 -0.2404
39734SOL    HW122794   4.790   4.509   4.487  1.4912  2.1777 -0.8322
39734SOL    HW222795   4.762   4.631   4.572 -0.8475  1.2426 -0.1735
39735SOL     OW22796   7.012   6.192   9.850 -0.1714 -0.3740 -0.3590
39735SOL    HW122797   7.106   6.205   9.843 -0.1721  0.4587  0.7728
39735SOL    HW222798   6.998   6.171   9.942 -1.1221 -0.1404 -0.4429
39736SOL     OW22799   3.267   5.226   5.048  0.0835  0.0670  0.5187
39736SOL    HW122800   3.232   5.245   4.961  1.4289  0.5739  0.0679
39736SOL    HW222801   3.203   5.166   5.087 -1.3511  1.0630 -0.1948
39737SOL     OW22802   4.609   7.499   0.774 -0.4698  0.2225 -0.5257
39737SOL    HW122803   4.644   7.558   0.707  1.4880 -0.8097 -0.4771
39737SOL    HW222804   4.592   7.556   0.849  1.6938  0.7443 -0.3685
39738SOL     OW22805   5.597   9.894   9.792  0.2575  0.1080 -0.3276
39738SOL    HW122806   5.687   9.923   9.804 -0.1574  1.3631 -0.1058
39738SOL    HW222807   5.550   9.973   9.764 -0.7410 -0.5582 -0.5826
39739SOL     OW22808   5.210   0.406   7.179 -0.1019  0.6992 -0.0157
39739SOL    HW122809   5.164   0.323   7.183 -0.6637  0.8514 -2.2181
39739SOL    HW222810   5.147   0.471   7.209 -0.6636  0.6527 -1.0555
39740SOL     OW22811   6.950   7.230   6.619 -0.3142 -0.2915 -0.0340
39740SOL    HW122812   6.900   7.150   6.635 -1.4977  0.0411 -1.7870
39740SOL    HW222813   7.031   7.200   6.578 -0.8339 -0.6024 -0.8518
39741SOL     OW22814   8.342   8.661  10.619  0.2998 -0.5009  0.5295
39741SOL    HW122815   8.352   8.696  10.708  1.5224 -0.7574  0.5201
39741SOL    HW222816   8.362   8.568  10.628 -0.0242 -0.6162  0.0643
39742SOL     OW22817   7.311   7.454  10.547 -0.1744 -0.3795 -0.3929
39742SOL    HW122818   7.281   7.407  10.469 -0.1797  2.4784 -2.2214
39742SOL    HW222819   7.406   7.460  10.536  0.0476 -1.3504  0.7121
39743SOL     OW22820  10.956   2.341   9.942 -0.2484 -0.0667  0.2819
39743SOL    HW122821  10.901   2.419   9.939  0.1173  0.3653  2.5986
39743SOL    HW222822  10.917   2.288  10.012 -0.7536 -2.2275 -1.5240
39744SOL     OW22823   0.742   3.609   9.649 -0.2627  0.2554 -0.0395
39744SOL    HW122824   0.814   3.553   9.618 -0.6857  0.3265 -1.1955
39744SOL    HW222825   0.665   3.552   9.649 -0.2465  0.2115  1.0862
39745SOL     OW22826   1.655   0.036   3.545 -0.6388  0.4634  0.0509
39745SOL    HW122827   1.595  -0.031   3.512 -1.0080 -0.2871  2.1094
39745SOL    HW222828   1.700  -0.006   3.619 -0.3500  2.2457  0.9438
39746SOL     OW22829  10.486   8.080   2.336  0.0350 -0.3190 -0.8467
39746SOL    HW122830  10.533   8.144   2.282 -1.0056  0.1280 -1.2616
39746SOL    HW222831  10.427   8.133   2.390  0.9494 -0.7711  0.6483
39747SOL     OW22832   7.487   6.072   9.103 -0.6074  0.2436 -0.1590
39747SOL    HW122833   7.436   5.994   9.082  0.6835 -0.7742  0.3482
39747SOL    HW222834   7.444   6.108   9.181  0.9356 -2.1435  1.9500
39748SOL     OW22835   1.516   3.795   8.584  0.0869  0.3980 -0.1688
39748SOL    HW122836   1.520   3.827   8.494  0.8949 -1.1496 -0.7313
39748SOL    HW222837   1.492   3.703   8.575  0.8531  0.0480  1.1458
39749SOL     OW22838  10.371   0.510  10.327 -0.3914 -0.7674 -0.4561
39749SOL    HW122839  10.428   0.531  10.401 -1.2367  0.1937 -0.0490
39749SOL    HW222840  10.333   0.425  10.349  1.1687 -1.6401 -0.9381
39750SOL     OW22841   3.097   9.889  11.066  0.3773 -0.6496  0.2367
39750SOL    HW122842   3.135   9.801  11.064 -2.5138 -2.0371 -1.2170
39750SOL    HW222843   3.027   9.886  11.000 -0.9944  2.1901  1.3849
39751SOL     OW22844   8.634   5.164   4.649 -0.5784 -0.1428 -0.4149
39751SOL    HW122845   8.680   5.247   4.640 -1.7561  0.9592  2.6008
39751SOL    HW222846   8.542   5.186   4.636 -1.0868 -0.5517  2.0529
39752SOL     OW22847   3.325   8.052   2.132  0.0336  0.1846  0.3981
39752SOL    HW122848   3.267   8.122   2.162 -0.0497 -0.6497  2.3804
39752SOL    HW222849   3.358   8.082   2.047 -0.8002  2.1299  0.7099
39753SOL     OW22850   5.142   9.867   8.199 -0.6773  0.1904 -0.6403
39753SOL    HW122851   5.221   9.872   8.253 -1.2613 -1.3118  0.4205
39753SOL    HW222852   5.152   9.785   8.150 -1.3098  0.2887 -0.9446
39754SOL     OW22853   2.385   4.720   4.960 -0.1428  0.3990  0.1248
39754SOL    HW122854   2.291   4.702   4.956 -0.3406  1.5641 -1.3695
39754SOL    HW222855   2.393   4.788   5.027 -0.5168  1.0796 -0.5090
39755SOL     OW22856   8.810   0.911   6.092  0.0378  0.6883 -0.0339
39755SOL    HW122857   8.778   0.910   6.001  0.7159  0.7649 -0.2832
39755SOL    HW222858   8.832   0.820   6.110  0.7208  0.8053 -0.2526
39756SOL     OW22859   8.737   1.251   8.319 -0.0040 -0.0868  0.0377
39756SOL    HW122860   8.672   1.314   8.351  2.3827  4.7578 -3.4725
39756SOL    HW222861   8.763   1.202   8.397 -1.1162  4.2714  3.5669
39757SOL     OW22862   7.269   5.245   6.838 -0.2807  0.4060 -1.0195
39757SOL    HW122863   7.183   5.207   6.857 -0.2649  0.5753 -0.5747
39757SOL    HW222864   7.325   5.170   6.819  0.2581 -0.0420  1.8211
39758SOL     OW22865  10.673   7.826   3.846 -0.4218  0.2738  0.6375
39758SOL    HW122866  10.746   7.875   3.810 -0.6641 -0.0368 -0.3158
39758SOL    HW222867  10.648   7.874   3.925 -0.2350  1.3028  0.0850
39759SOL     OW22868   7.290   5.854   9.169 -0.1128  0.0236 -0.0082
39759SOL    HW122869   7.246   5.938   9.153  1.7312  1.4026  1.6473
39759SOL    HW222870   7.267   5.831   9.258 -0.0396 -0.8913 -0.2176
39760SOL     OW22871   0.317  10.951   5.786 -0.3251 -0.0066 -0.1900
39760SOL    HW122872   0.325  10.955   5.881 -1.7723  1.9294 -0.0812
39760SOL    HW222873   0.364  11.028   5.754 -1.8682  0.7285 -0.8213
39761SOL     OW22874   6.322   7.794   3.563 -0.0825  0.2287 -0.6075
39761SOL    HW122875   6.400   7.826   3.517  0.1296 -0.7220 -0.9267
39761SOL    HW222876   6.338   7.816   3.655 -0.2773  1.6757 -0.8963
39762SOL     OW22877   3.768  10.241   6.569  0.0372  1.0796 -0.7182
39762SOL    HW122878   3.829  10.171   6.550 -0.5579  0.5775 -0.8104
39762SOL    HW222879   3.820  10.321   6.560  0.8100  0.6449 -0.2575
39763SOL     OW22880   9.412   8.115  10.907 -0.1270  0.6435  0.6864
39763SOL    HW122881   9.422   8.158  10.822  3.2111 -1.6388 -0.2952
39763SOL    HW222882   9.390   8.185  10.968  1.4823  3.1007 -1.3665
39764SOL     OW22883   2.393  10.679   4.537 -0.6297 -0.2366  0.0770
39764SOL    HW122884   2.362  10.714   4.454  1.0395 -1.5772 -1.2030
39764SOL    HW222885   2.355  10.736   4.604 -1.4743  1.2946 -1.6381
39765SOL     OW22886   2.010   5.906   1.662  0.1249 -0.3697  0.4054
39765SOL    HW122887   1.952   5.982   1.660  0.1187 -0.3653  0.7679
39765SOL    HW222888   2.091   5.937   1.621 -0.2256 -0.4577 -0.3603
39766SOL     OW22889  10.898   3.349   7.311 -0.5499 -0.3263  0.0171
39766SOL    HW122890  10.887   3.383   7.223 -0.1257  0.3113  0.2058
39766SOL    HW222891  10.808   3.339   7.344 -0.6872  0.4350 -0.1123
39767SOL     OW22892   5.670   4.756   5.628  0.6598 -0.1755 -0.4427
39767SOL    HW122893   5.652   4.691   5.696 -0.2611  0.3861 -0.1344
39767SOL    HW222894   5.752   4.727   5.588 -0.8367 -2.8701 -1.8716
39768SOL     OW22895   6.327  10.999   6.016  0.6249  0.2244 -0.3153
39768SOL    HW122896   6.378  10.971   6.092  1.3843  0.0105 -0.8990
39768SOL    HW222897   6.387  10.991   5.942 -0.0983  0.4617 -0.9386
39769SOL     OW22898   7.216   3.220   5.313 -0.0722  0.2762 -0.2348
39769SOL    HW122899   7.163   3.269   5.376  0.6807  0.9972 -0.1399
39769SOL    HW222900   7.237   3.138   5.358  1.5626  1.3161  1.0322
39770SOL     OW22901   5.443   8.742   7.463  0.2364  0.3535 -0.8443
39770SOL    HW122902   5.459   8.706   7.550  2.0161 -1.4966 -1.8438
39770SOL    HW222903   5.403   8.670   7.414  0.3448  0.9684 -1.8779
39771SOL     OW22904   8.797   4.188   8.353 -0.1842 -0.2609  0.1210
39771SOL    HW122905   8.884   4.182   8.392  1.3875 -0.7425 -3.1151
39771SOL    HW222906   8.771   4.279   8.365 -0.1865 -0.5668  2.8802
39772SOL     OW22907   8.963   5.033   2.812  0.4234 -0.0029  0.1336
39772SOL    HW122908   9.005   4.955   2.775 -2.9750 -2.6325  1.2033
39772SOL    HW222909   8.990   5.034   2.904 -0.7701 -1.0101  0.5324
39773SOL     OW22910   6.440  10.343   5.445  0.6809 -0.1245 -0.5170
39773SOL    HW122911   6.425  10.276   5.378  0.6612  0.1399 -0.7757
39773SOL    HW222912   6.355  10.387   5.453  1.1556  1.0510 -1.6291
39774SOL     OW22913   4.197   8.763   7.813 -0.0630  0.4335  0.3414
39774SOL    HW122914   4.221   8.781   7.722  3.0626  0.0012  0.9827
39774SOL    HW222915   4.202   8.849   7.855  1.0216  0.2531  0.5963
39775SOL     OW22916   3.502   6.919   0.124  0.0290  0.0826 -0.0666
39775SOL    HW122917   3.473   6.931   0.033  0.6984  1.1805 -0.1597
39775SOL    HW222918   3.589   6.958   0.126  0.7195 -1.4346  0.6624
39776SOL     OW22919   8.294  10.203   2.715 -0.4664  0.4521 -0.3714
39776SOL    HW122920   8.258  10.155   2.641  0.3663 -0.1357 -0.4111
39776SOL    HW222921   8.224  10.201   2.781 -0.9455  0.3730 -0.8719
39777SOL     OW22922   6.327   5.890   2.167  0.3451 -0.1102  0.1009
39777SOL    HW122923   6.392   5.821   2.153  1.8150  1.1164  0.6710
39777SOL    HW222924   6.350   5.927   2.252  0.7385  2.2922 -0.9918
39778SOL     OW22925   8.785   2.709   2.272  0.4611 -0.6976 -0.2798
39778SOL    HW122926   8.838   2.695   2.351 -0.7793  0.9666  0.9159
39778SOL    HW222927   8.704   2.663   2.289 -0.6211  1.3274  0.3746
39779SOL     OW22928   3.390   1.633   4.387  0.1024 -0.3995  0.2790
39779SOL    HW122929   3.477   1.665   4.411 -0.1297 -0.1108  0.7602
39779SOL    HW222930   3.378   1.553   4.438 -0.0452 -0.2577  0.4694
39780SOL     OW22931   9.810   5.661   8.342 -0.0771  0.2115 -0.0161
39780SOL    HW122932   9.721   5.694   8.356 -0.0849 -0.0368  0.5227
39780SOL    HW222933   9.806   5.569   8.368  0.3446  0.2072  0.0366
39781SOL     OW22934   6.044   6.800   3.259  0.2057 -0.4624  0.5208
39781SOL    HW122935   6.105   6.815   3.187  0.1295 -1.3848  0.2583
39781SOL    HW222936   6.003   6.886   3.272  0.9745 -0.0244  0.1772
39782SOL     OW22937   5.798   3.361   4.869 -0.1615 -0.2708 -0.4172
39782SOL    HW122938   5.893   3.349   4.860 -0.1525  0.7786 -2.1677
39782SOL    HW222939   5.789   3.437   4.926  0.0207 -0.6016  0.0654
39783SOL     OW22940   3.440   8.891   9.736  0.6775  0.7075  0.3993
39783SOL    HW122941   3.459   8.916   9.645  0.1035 -0.1875  0.0221
39783SOL    HW222942   3.381   8.817   9.728  0.4434  0.7657  1.5199
39784SOL     OW22943  11.097   5.430   1.591 -0.2813  0.1919 -0.4114
39784SOL    HW122944  11.078   5.454   1.682  2.1594 -1.9933  0.8222
39784SOL    HW222945  11.028   5.368   1.568 -0.7395  0.5169  0.0567
39785SOL     OW22946   9.056  10.381   3.331 -0.2781 -0.1994 -0.2611
39785SOL    HW122947   9.062  10.288   3.351 -2.0596 -0.4786 -0.8411
39785SOL    HW222948   9.019  10.421   3.410 -1.7049 -0.3771 -0.8106
39786SOL     OW22949   9.308   0.902   8.618  0.3812 -0.1306  0.4096
39786SOL    HW122950   9.329   0.889   8.710  1.6569 -0.3716  0.0948
39786SOL    HW222951   9.390   0.930   8.578  0.2303 -1.4980 -0.9436
39787SOL     OW22952   9.707   9.523   7.767 -0.0846  0.1685 -0.3430
39787SOL    HW122953   9.742   9.596   7.818  0.1702  1.2820 -2.0224
39787SOL    HW222954   9.678   9.460   7.832  1.8691  0.7183  1.1598
39788SOL     OW22955   1.269   3.273  10.688  0.1023  0.5212 -0.6471
39788SOL    HW122956   1.286   3.353  10.639  1.0065  2.1987  2.1559
39788SOL    HW222957   1.337   3.272  10.757 -1.5741 -1.1694  1.1205
39789SOL     OW22958  10.099   9.019   1.454 -0.2232 -0.1454  0.0059
39789SOL    HW122959  10.131   9.024   1.544  1.1516  1.0009 -0.5044
39789SOL    HW222960  10.170   8.976   1.406 -0.1314  0.9127 -0.8497
39790SOL     OW22961   8.565   3.319   9.360 -0.0321  0.1355 -0.3196
39790SOL    HW122962   8.565   3.228   9.389  0.3798  0.2335 -0.0157
39790SOL    HW222963   8.617   3.366   9.425 -0.9567  0.7429  0.0059
39791SOL     OW22964   6.647   6.832   5.704  0.3836  0.6045  0.2108
39791SOL    HW122965   6.559   6.801   5.680  1.1606 -0.0194 -2.0193
39791SOL    HW222966   6.706   6.766   5.667  1.9293  2.6149 -1.0545
39792SOL     OW22967   3.497   6.601   0.136  0.1936 -0.4123 -0.4653
39792SOL    HW122968   3.504   6.654   0.056  1.1977 -0.5775 -0.4959
39792SOL    HW222969   3.480   6.665   0.205  0.9108 -0.0882 -0.5786
39793SOL     OW22970   5.147   2.998   5.955 -0.0241  0.7645  0.3116
39793SOL    HW122971   5.179   3.062   5.891 -0.1655  1.9377  1.3759
39793SOL    HW222972   5.227   2.966   5.998  0.1767 -0.8741 -1.1662
39794SOL     OW22973   0.000   7.255   5.983  0.2325 -0.8769  0.0039
39794SOL    HW122974   0.086   7.223   5.956  0.4557 -1.6894  1.5060
39794SOL    HW222975  -0.049   7.175   6.004 -0.5431 -0.3767  0.1355
39795SOL     OW22976   4.466   0.475  10.231 -0.2054 -0.2305  0.2126
39795SOL    HW122977   4.444   0.563  10.260  1.0645 -0.0944  0.8247
39795SOL    HW222978   4.396   0.452  10.170  0.4792  1.9585 -1.5133
39796SOL     OW22979   6.003  10.143  11.034  0.3518 -0.2470 -0.2355
39796SOL    HW122980   5.918  10.100  11.048  0.8412 -1.2454 -0.2324
39796SOL    HW222981   6.065  10.071  11.023  1.1482  0.4718 -0.5938
39797SOL     OW22982   2.396   6.421   4.659  0.1271  0.0369  0.2345
39797SOL    HW122983   2.310   6.449   4.630 -1.0547 -2.7169  0.7890
39797SOL    HW222984   2.433   6.374   4.584  0.9333  0.6539  0.2177
39798SOL     OW22985   6.628   3.183   1.464 -0.4134  0.2227  0.1267
39798SOL    HW122986   6.713   3.227   1.462 -0.4539  0.3081  0.2371
39798SOL    HW222987   6.645   3.099   1.507 -0.1585 -0.2609 -0.8808
39799SOL     OW22988   3.841   4.846   8.771  0.0253  0.4435  0.4427
39799SOL    HW122989   3.845   4.881   8.682  1.2464 -2.1453 -0.6484
39799SOL    HW222990   3.815   4.920   8.825 -3.5262  1.5268 -2.3714
39800SOL     OW22991   6.340   5.757   2.617 -0.1194  0.6529  0.3373
39800SOL    HW122992   6.398   5.792   2.550  1.1985 -0.3315  0.9155
39800SOL    HW222993   6.321   5.668   2.587  1.6865 -0.3376  1.9350
39801SOL     OW22994   2.594   1.801   8.877 -0.3402 -0.4027 -0.0617
39801SOL    HW122995   2.570   1.871   8.937 -1.7354 -0.6305 -0.3320
39801SOL    HW222996   2.575   1.720   8.926  0.9313 -0.6194  0.1192
39802SOL     OW22997   8.715   1.479   0.088 -0.6735  0.4329 -0.6420
39802SOL    HW122998   8.795   1.531   0.083  0.5091 -0.6146  3.4773
39802SOL    HW222999   8.645   1.542   0.106 -0.6477  1.2042 -2.9354
39803SOL     OW23000   1.151   4.363   3.322  0.2504  0.2144  0.2909
39803SOL    HW123001   1.221   4.400   3.269  0.1481  1.7760  1.1999
39803SOL    HW223002   1.197   4.326   3.398  0.2358 -0.4601 -0.0175
39804SOL     OW23003   5.596   7.955   2.719  0.8969 -0.3579 -0.3361
39804SOL    HW123004   5.546   7.939   2.799 -0.1442  0.6023 -0.7732
39804SOL    HW223005   5.530   7.963   2.650  1.7718 -1.0091 -1.2734
39805SOL     OW23006   8.138   8.789   7.907 -0.5320 -0.0396  0.2434
39805SOL    HW123007   8.203   8.769   7.839 -0.0117  0.6511  0.5295
39805SOL    HW223008   8.181   8.854   7.962 -1.5707  0.6105  0.2993
39806SOL     OW23009   9.222   5.122   4.437 -0.0910 -0.4201  0.0475
39806SOL    HW123010   9.244   5.197   4.381 -0.8901  0.3899  0.7898
39806SOL    HW223011   9.304   5.098   4.478 -0.1947  1.4888  1.5094
39807SOL     OW23012   5.444   1.490   4.024  0.1045  0.2799 -0.4781
39807SOL    HW123013   5.350   1.472   4.016  0.2874 -0.4768 -1.0856
39807SOL    HW223014   5.475   1.494   3.934  0.7771 -0.1853 -0.2710
39808SOL     OW23015  10.289   4.678   4.055 -0.5269  0.2201  0.0768
39808SOL    HW123016  10.269   4.766   4.088  1.2362  0.2085  1.3276
39808SOL    HW223017  10.343   4.638   4.124 -0.0180 -1.2946 -1.1320
39809SOL     OW23018   9.788   8.512   0.848  0.0398 -0.1576  0.1577
39809SOL    HW123019   9.713   8.524   0.790 -1.1460 -1.6233  1.3246
39809SOL    HW223020   9.864   8.540   0.795 -1.0890 -0.5158 -1.7304
39810SOL     OW23021   9.722  10.006   2.115 -0.0883 -0.1066  0.9944
39810SOL    HW123022   9.802   9.981   2.068 -0.1524  0.7770  0.3740
39810SOL    HW223023   9.677  10.065   2.054 -0.6867  0.2395  1.7653
39811SOL     OW23024   9.220   4.595   3.447  0.0322  0.2621  0.0241
39811SOL    HW123025   9.202   4.679   3.403  2.4844  0.8436 -0.0614
39811SOL    HW223026   9.172   4.599   3.529 -3.4731 -0.2037 -1.8282
39812SOL     OW23027   9.449   4.762   9.525 -0.3502 -0.0448 -0.1986
39812SOL    HW123028   9.537   4.736   9.499 -0.2678  0.3039 -0.2797
39812SOL    HW223029   9.450   4.761   9.620 -0.5953 -1.1412 -0.1966
39813SOL     OW23030   0.879   3.841   8.089  0.5078  0.2873  0.0409
39813SOL    HW123031   0.947   3.905   8.110 -0.1726  0.6201  1.3158
39813SOL    HW223032   0.927   3.762   8.065  1.3897  1.3298 -1.9400
39814SOL     OW23033   7.889   6.598   5.762 -0.1955 -0.2290 -0.4538
39814SOL    HW123034   7.860   6.689   5.749 -0.2256 -0.1189  0.3373
39814SOL    HW223035   7.919   6.571   5.675 -0.4573  0.4385 -0.7689
39815SOL     OW23036   6.100   8.139  10.896 -0.3088 -0.1411  0.2973
39815SOL    HW123037   6.099   8.044  10.887 -0.0636 -0.1161 -0.0229
39815SOL    HW223038   6.121   8.154  10.989  0.2930 -0.3985  0.2096
39816SOL     OW23039   2.956   8.824   4.893 -0.2563 -0.4359 -0.2543
39816SOL    HW123040   2.926   8.787   4.976 -0.7896 -0.9945 -0.6925
39816SOL    HW223041   2.894   8.792   4.828 -1.1661  1.7353 -0.5702
39817SOL     OW23042   9.253   5.901   9.153 -0.2928  0.1291 -0.2171
39817SOL    HW123043   9.253   5.806   9.154  1.6335  0.0728  0.2586
39817SOL    HW223044   9.223   5.925   9.066 -1.1021 -0.8933 -0.2343
39818SOL     OW23045   9.744   9.041   8.401 -0.4446  0.2994  0.0718
39818SOL    HW123046   9.706   9.112   8.349 -0.5022 -0.1759 -0.5417
39818SOL    HW223047   9.702   8.962   8.368  0.6364 -0.1736 -0.2119
39819SOL     OW23048  10.343   3.133   9.565 -0.0833 -0.1243  0.4122
39819SOL    HW123049  10.396   3.105   9.639  0.3199 -1.5378 -0.3834
39819SOL    HW223050  10.255   3.099   9.584  0.2534 -1.4228 -0.2258
39820SOL     OW23051   5.123   7.005   0.421 -0.0822  0.0195  0.0243
39820SOL    HW123052   5.175   7.015   0.341  0.9097  0.5376  0.7174
39820SOL    HW223053   5.036   6.981   0.389 -0.2563  2.1665 -1.3177
39821SOL     OW23054   2.998   8.245   5.842  0.2947  0.3279 -0.0472
39821SOL    HW123055   3.092   8.230   5.842  0.3684  0.6668  1.2242
39821SOL    HW223056   2.985   8.322   5.787  0.5830 -0.5820 -1.4348
39822SOL     OW23057   5.163   0.325   2.875 -0.8310  0.2667  0.7206
39822SOL    HW123058   5.232   0.353   2.935 -1.7082 -3.3833  3.8128
39822SOL    HW223059   5.209   0.278   2.806  0.0289  2.2031 -0.0839
39823SOL     OW23060   2.829   7.668   2.334  0.0691  0.2615 -0.3229
39823SOL    HW123061   2.818   7.762   2.323  0.4726  0.3167 -0.2663
39823SOL    HW223062   2.782   7.647   2.415  0.6642  0.5529  0.1093
39824SOL     OW23063   7.070   3.028   3.440 -0.4076 -0.1851 -0.1445
39824SOL    HW123064   7.112   2.945   3.462 -0.1464  0.0114  0.0931
39824SOL    HW223065   7.058   3.024   3.345  0.3372 -0.1526 -0.2441
39825SOL     OW23066   8.234   6.897  10.510  0.4719 -0.1935  0.2417
39825SOL    HW123067   8.190   6.957  10.571  1.6825  1.6926 -0.6326
39825SOL    HW223068   8.175   6.822  10.504 -1.6163  1.2944  0.6784
39826SOL     OW23069   7.955  10.039   5.082 -0.2579 -0.5131 -0.0392
39826SOL    HW123070   7.882  10.028   5.143  0.6046 -0.4705  1.0464
39826SOL    HW223071   7.935  10.120   5.035 -0.5285 -0.0493  0.8385
39827SOL     OW23072   4.217  10.438   7.933  0.6473 -0.4039  0.3837
39827SOL    HW123073   4.138  10.485   7.959  1.0359  0.7197 -0.3680
39827SOL    HW223074   4.269  10.503   7.886  0.3642 -2.0926 -2.4439
39828SOL     OW23075   5.029   9.979   7.838  0.4977  0.1785 -0.0505
39828SOL    HW123076   5.085  10.028   7.778  0.5837  1.6074  1.1365
39828SOL    HW223077   5.005  10.042   7.906 -1.0857 -0.8893  0.4468
39829SOL     OW23078   2.276   8.050   5.245 -0.1577  0.3683  0.4375
39829SOL    HW123079   2.293   8.131   5.294  0.9993  0.0008  0.6826
39829SOL    HW223080   2.290   7.980   5.309 -4.6674 -0.0565  1.2832
39830SOL     OW23081   5.331   5.327   4.213 -0.1842 -0.0037  0.1273
39830SOL    HW123082   5.404   5.265   4.213  0.5916  0.8645  1.0824
39830SOL    HW223083   5.372   5.411   4.194 -0.8576  0.5768  1.1813
39831SOL     OW23084   1.445  10.718   4.700 -0.1122 -0.5446  0.2480
39831SOL    HW123085   1.539  10.710   4.715 -0.1693 -0.8578  0.4665
39831SOL    HW223086   1.422  10.804   4.737  0.2572 -0.0014 -0.7463
39832SOL     OW23087   5.126   3.311   4.865  0.4734 -0.5853  0.4650
39832SOL    HW123088   5.123   3.377   4.935  0.3105 -1.9129  1.7519
39832SOL    HW223089   5.204   3.259   4.885 -0.9501 -2.5471  1.1602
39833SOL     OW23090   6.566   1.256   3.348  0.3018 -0.5276  0.8237
39833SOL    HW123091   6.639   1.208   3.386  1.7604  1.0223  0.1124
39833SOL    HW223092   6.504   1.267   3.420  0.4291 -2.4493  1.2715
39834SOL     OW23093   7.117   2.603   7.298 -0.0356 -0.2745  0.2780
39834SOL    HW123094   7.167   2.522   7.295 -0.6957 -0.8003  2.0189
39834SOL    HW223095   7.101   2.618   7.391 -0.3974  1.5748 -0.0363
39835SOL     OW23096   3.448   2.982   5.750  0.4032 -0.3070 -0.0245
39835SOL    HW123097   3.520   2.958   5.808 -0.4871 -0.2313  1.1652
39835SOL    HW223098   3.461   3.076   5.733  0.0355 -0.0505  1.0313
39836SOL     OW23099   1.083   9.744   5.657 -0.2346  0.1936  0.1364
39836SOL    HW123100   0.997   9.785   5.657 -0.0263  0.6319  0.3555
39836SOL    HW223101   1.145   9.817   5.651  0.0927 -0.1665 -2.0268
39837SOL     OW23102   9.137   5.916   9.937  0.7409  0.2026 -0.2150
39837SOL    HW123103   9.181   5.844   9.893  0.7498  0.3383 -0.4323
39837SOL    HW223104   9.108   5.880  10.020 -0.0385 -0.3099 -0.6939
39838SOL     OW23105   7.710   2.717   2.984  0.0401 -0.0431  0.2862
39838SOL    HW123106   7.702   2.788   3.047  0.6473 -1.7894  2.4815
39838SOL    HW223107   7.634   2.661   3.000 -1.6052  1.0496 -2.8631
39839SOL     OW23108   1.617   8.527   6.453  0.1644  0.2759  0.0772
39839SOL    HW123109   1.553   8.522   6.382 -1.2302 -2.0919  1.3718
39839SOL    HW223110   1.687   8.582   6.418 -1.2017  0.5329 -2.5113
39840SOL     OW23111  10.044   0.507  10.199  0.2759 -0.3021  0.1960
39840SOL    HW123112   9.965   0.559  10.185  1.6064  2.0774  1.0132
39840SOL    HW223113  10.017   0.437  10.258 -0.8288  1.7054  2.1961
39841SOL     OW23114   9.331   7.257   0.816  0.2346  0.2339  0.4511
39841SOL    HW123115   9.331   7.213   0.731  2.7449 -0.6869  0.8250
39841SOL    HW223116   9.240   7.255   0.845 -0.6151  0.2384 -2.0219
39842SOL     OW23117   2.454   9.429   7.147  0.5896 -0.7500  0.5469
39842SOL    HW123118   2.542   9.467   7.137  0.4988 -0.4419  0.8974
39842SOL    HW223119   2.404   9.464   7.073 -0.3361  2.2396  2.3894
39843SOL     OW23120   2.439   8.305   0.664 -0.6222 -0.1005  0.3946
39843SOL    HW123121   2.483   8.363   0.602 -0.7025 -0.8108 -0.3500
39843SOL    HW223122   2.470   8.217   0.641 -2.2247 -0.5913  0.0125
39844SOL     OW23123   0.718   1.726   8.765  0.2447  0.4586  0.1206
39844SOL    HW123124   0.750   1.770   8.844  0.9483  0.0785  0.0589
39844SOL    HW223125   0.775   1.758   8.695  1.5982 -1.4153  0.2638
39845SOL     OW23126   0.189   7.764   2.293  0.0250  0.0724  0.1150
39845SOL    HW123127   0.130   7.808   2.232  0.9254 -0.7058 -1.3878
39845SOL    HW223128   0.137   7.693   2.330 -0.9925  1.4502  1.4663
39846SOL     OW23129   6.398   3.483   9.244 -0.3957 -0.3458 -0.1099
39846SOL    HW123130   6.342   3.469   9.168 -1.1824 -1.3512  0.6255
39846SOL    HW223131   6.485   3.499   9.207 -0.7886 -0.6685 -1.2219
39847SOL     OW23132   3.740   9.970   8.659 -0.7363  0.4510  0.2570
39847SOL    HW123133   3.664   9.927   8.621  0.7888 -1.2249 -1.0789
39847SOL    HW223134   3.735   9.950   8.752 -1.1101 -1.0145 -0.0538
39848SOL     OW23135   9.449   6.923   8.625 -0.1070  0.0033 -0.1069
39848SOL    HW123136   9.532   6.959   8.659 -0.6499 -0.5562  1.9408
39848SOL    HW223137   9.384   6.990   8.645 -0.6931 -0.9639  1.4468
39849SOL     OW23138   5.590   5.339   6.293 -0.0099 -0.4403 -0.7372
39849SOL    HW123139   5.578   5.289   6.374  0.5130  2.1080  1.0466
39849SOL    HW223140   5.627   5.423   6.322 -0.2911  0.7860 -3.5890
39850SOL     OW23141   9.184   4.375  10.599  0.2312  0.3527  0.3800
39850SOL    HW123142   9.266   4.382  10.650 -0.4447  0.3153  1.5164
39850SOL    HW223143   9.115   4.390  10.664 -0.6971 -0.4291 -0.4052
39851SOL     OW23144  10.587   8.386   1.777  0.6720 -0.4392 -0.6449
39851SOL    HW123145  10.556   8.410   1.865  2.2759 -0.3257 -0.0715
39851SOL    HW223146  10.682   8.380   1.787  0.9473  0.2780 -2.5479
39852SOL     OW23147   0.617   0.234   2.293  0.1444 -0.1502 -0.1722
39852SOL    HW123148   0.667   0.212   2.214  0.6555  0.9478 -0.1853
39852SOL    HW223149   0.672   0.204   2.365  0.8652  1.0415 -0.1882
39853SOL     OW23150   3.355   1.379   3.765  0.2867  0.1910  0.0873
39853SOL    HW123151   3.350   1.302   3.821  0.6876  0.4298  0.4519
39853SOL    HW223152   3.300   1.444   3.808  0.1869  0.2108 -0.0668
39854SOL     OW23153   6.066  10.665   1.761  0.1230  0.1952 -0.5000
39854SOL    HW123154   5.998  10.715   1.715 -0.1590  0.1959 -0.0932
39854SOL    HW223155   6.064  10.698   1.851  0.5560  0.0835 -0.4455
39855SOL     OW23156  10.291   2.374   7.887 -0.4585  0.0845  0.5851
39855SOL    HW123157  10.272   2.329   7.969  0.2148  0.5742  1.0234
39855SOL    HW223158  10.300   2.466   7.912  0.6131  0.1220  0.1105
39856SOL     OW23159   3.257   5.360   5.509 -0.4874 -1.1132 -0.0957
39856SOL    HW123160   3.334   5.417   5.508  1.0639 -3.0765  1.3964
39856SOL    HW223161   3.194   5.405   5.565 -0.0654  0.0215 -0.5009
39857SOL     OW23162   3.172   9.958   7.611 -0.2207 -0.1049 -0.1686
39857SOL    HW123163   3.165   9.954   7.516 -1.0980 -0.5796 -0.0948
39857SOL    HW223164   3.177  10.051   7.631  2.0686 -0.0425 -0.7979
39858SOL     OW23165   0.507   8.428   1.784 -0.5203  0.2884  0.3671
39858SOL    HW123166   0.471   8.344   1.812 -0.1622  0.4865  1.4629
39858SOL    HW223167   0.568   8.453   1.853 -1.8687  2.2565  0.9727
39859SOL     OW23168   3.688  10.635   7.614  0.8127 -0.3505  0.3078
39859SOL    HW123169   3.675  10.728   7.636 -0.9180  0.2649 -2.7405
39859SOL    HW223170   3.728  10.637   7.527  2.8017 -2.5361  1.0831
39860SOL     OW23171   0.134   0.855   8.676  0.1182  0.0224  0.5149
39860SOL    HW123172   0.112   0.932   8.729 -1.9527  0.0045 -0.2281
39860SOL    HW223173   0.224   0.871   8.648  0.7224  0.8162  2.6402
39861SOL     OW23174   1.401   8.463   3.760  0.0115 -0.2799 -0.0884
39861SOL    HW123175   1.489   8.468   3.797  0.2699 -1.4000 -0.4918
39861SOL    HW223176   1.403   8.385   3.704 -0.1921  1.5593 -2.8726
39862SOL     OW23177   1.700   9.766   0.536 -0.3796 -0.2160  0.1317
39862SOL    HW123178   1.620   9.818   0.539 -0.5063 -0.3970 -0.0483
39862SOL    HW223179   1.767   9.821   0.577 -0.4393  0.2206 -0.3554
39863SOL     OW23180   2.687   3.445   6.117  0.0081 -0.0148  0.0875
39863SOL    HW123181   2.624   3.460   6.188 -2.1548 -0.0707 -1.7097
39863SOL    HW223182   2.659   3.362   6.078 -0.2936  1.0975 -2.2157
39864SOL     OW23183   5.104   7.932   1.194 -0.1093 -0.2317 -0.2660
39864SOL    HW123184   5.042   7.914   1.123  0.4402 -2.1845 -0.2970
39864SOL    HW223185   5.067   7.886   1.269 -0.4042  1.3741  0.6172
39865SOL     OW23186   0.702   4.607   5.958  0.0678 -0.0234 -0.1070
39865SOL    HW123187   0.717   4.649   5.873  0.9343 -1.5724 -0.7683
39865SOL    HW223188   0.778   4.549   5.969 -1.5023 -2.0980  0.3022
39866SOL     OW23189   5.258   4.531   2.117  0.0886  0.3612 -0.2574
39866SOL    HW123190   5.354   4.529   2.118  0.1208 -2.7847 -0.5444
39866SOL    HW223191   5.233   4.457   2.061 -2.5098  0.6308  0.4348
39867SOL     OW23192   7.630   4.190   0.994 -0.2321  0.2408  0.0265
39867SOL    HW123193   7.608   4.254   0.926  0.4105  0.1145 -0.3027
39867SOL    HW223194   7.663   4.242   1.066  0.7978  0.2473 -0.4436
39868SOL     OW23195   8.858   9.330   6.527 -0.4565 -0.8572 -0.3353
39868SOL    HW123196   8.770   9.301   6.500 -1.2181 -0.0957  1.1542
39868SOL    HW223197   8.841   9.394   6.596  1.2196  1.2482 -1.7484
39869SOL     OW23198   0.822   7.637   3.549 -0.1157  0.1541  0.0618
39869SOL    HW123199   0.796   7.656   3.639 -0.3068  0.9805 -0.1513
39869SOL    HW223200   0.917   7.631   3.552 -0.0153  1.4266  0.1230
39870SOL     OW23201   3.722   5.550   7.281  0.8507 -0.4556  0.0486
39870SOL    HW123202   3.809   5.509   7.283  0.8326 -0.5042  2.2467
39870SOL    HW223203   3.736   5.638   7.315  0.0694 -0.3971  0.2324
39871SOL     OW23204   1.465   1.056  10.457  0.1442  0.0979  0.2340
39871SOL    HW123205   1.438   0.991  10.392 -2.1803 -0.0120  1.2309
39871SOL    HW223206   1.504   1.005  10.528  0.0633 -0.0339  0.1829
39872SOL     OW23207   9.254   9.554   3.812  0.4992 -0.2116  0.3938
39872SOL    HW123208   9.263   9.547   3.717 -1.4108  0.3938  0.1329
39872SOL    HW223209   9.226   9.467   3.840  0.1564 -0.1411  0.2743
39873SOL     OW23210  10.788  10.280   5.122  0.3371  0.2887  0.0921
39873SOL    HW123211  10.789  10.213   5.190  3.2280 -1.2727 -1.2946
39873SOL    HW223212  10.879  10.285   5.093  0.1196  4.2859 -0.4685
39874SOL     OW23213   8.206   7.200   6.266  0.3398  0.1545 -0.8143
39874SOL    HW123214   8.152   7.122   6.275  0.3994  0.1739 -0.2274
39874SOL    HW223215   8.145   7.269   6.240 -0.2335  0.5197  1.2560
39875SOL     OW23216   5.779   4.734  10.494  0.1179 -0.0636 -0.2998
39875SOL    HW123217   5.735   4.684  10.425 -0.4595 -0.4908  0.3582
39875SOL    HW223218   5.755   4.688  10.575  1.0230  0.2510  0.1603
39876SOL     OW23219   6.414   0.005   8.182 -0.1904 -0.2420 -0.9114
39876SOL    HW123220   6.410   0.063   8.259  0.4740  0.0343 -1.0828
39876SOL    HW223221   6.344  -0.059   8.198 -1.7819  1.3183 -1.3159
39877SOL     OW23222   2.259   3.957   3.794 -0.6039  0.0011 -0.0430
39877SOL    HW123223   2.270   4.048   3.767  0.7575 -0.0204  0.3689
39877SOL    HW223224   2.286   3.906   3.718 -1.7997 -0.0877 -0.4362
39878SOL     OW23225   8.197   2.167   4.984 -0.3994  0.2313 -0.3813
39878SOL    HW123226   8.111   2.132   4.959 -0.0634 -0.3482 -0.7518
39878SOL    HW223227   8.239   2.095   5.031  0.2612  0.1691 -1.0504
39879SOL     OW23228   4.637   1.073   4.196  0.2399  0.0799 -0.5142
39879SOL    HW123229   4.704   1.119   4.146  0.8845 -0.2672 -0.0032
39879SOL    HW223230   4.685   1.035   4.270 -0.9565  2.0748  1.3931
39880SOL     OW23231   6.933   1.927   8.596  0.1722  0.6333 -0.2971
39880SOL    HW123232   6.979   1.976   8.528  0.2603 -0.6360 -1.1898
39880SOL    HW223233   6.956   1.836   8.579  0.9224  0.3198  1.9708
39881SOL     OW23234   7.548   4.741   8.373 -0.0967  0.2665  0.2411
39881SOL    HW123235   7.508   4.791   8.302  1.2432  1.3568  0.2296
39881SOL    HW223236   7.522   4.787   8.453  1.4376  1.2536  0.2097
39882SOL     OW23237   6.263   3.132   5.935 -0.2747  0.3525  0.4360
39882SOL    HW123238   6.248   3.221   5.968 -2.5694 -0.3729  1.5908
39882SOL    HW223239   6.272   3.078   6.013  1.5675 -0.4171 -0.2474
39883SOL     OW23240   0.612  10.491   6.160 -0.5058 -0.4198 -0.1938
39883SOL    HW123241   0.603  10.415   6.218 -1.3622 -0.0056  0.2399
39883SOL    HW223242   0.660  10.555   6.213  0.2614 -0.6639 -0.5768
39884SOL     OW23243   8.764  11.098   0.366  0.3513  0.7126  0.1858
39884SOL    HW123244   8.811  11.031   0.416  0.5903 -0.6524 -1.7310
39884SOL    HW223245   8.704  11.048   0.310 -1.4573  2.2888  0.6504
39885SOL     OW23246   8.094   3.800   4.171  0.0727 -0.2042  0.0605
39885SOL    HW123247   8.035   3.746   4.119 -1.3904  2.4031 -1.1917
39885SOL    HW223248   8.075   3.777   4.262 -1.3205 -0.9231 -0.3901
39886SOL     OW23249   1.128   7.798   0.873 -0.2872  0.4404  0.6007
39886SOL    HW123250   1.101   7.716   0.916  0.4404 -0.5545 -0.7510
39886SOL    HW223251   1.061   7.861   0.899  0.4053  0.0945  3.6380
39887SOL     OW23252  10.510   7.387   0.128 -0.2667 -0.3047 -0.0736
39887SOL    HW123253  10.465   7.428   0.055  0.5087 -0.0989 -0.4493
39887SOL    HW223254  10.545   7.305   0.093 -0.0175 -0.2764  0.1024
39888SOL     OW23255   7.014   3.452   9.731 -0.1130 -0.1121 -0.2207
39888SOL    HW123256   6.937   3.492   9.770  1.5407  2.5333  0.5546
39888SOL    HW223257   7.065   3.420   9.805  0.2581 -0.4376 -0.6113
39889SOL     OW23258  11.051   7.868   6.110 -0.1781 -0.0816  0.3332
39889SOL    HW123259  11.100   7.948   6.127  0.1913 -0.0889 -0.6766
39889SOL    HW223260  10.980   7.895   6.052 -0.0576 -0.4805 -0.0032
39890SOL     OW23261   0.057   3.939   9.158 -0.0640  0.0249  0.0367
39890SOL    HW123262   0.119   3.957   9.229  0.8425 -0.8487 -0.4879
39890SOL    HW223263  -0.029   3.950   9.197  0.3951 -1.2755  1.5329
39891SOL     OW23264   9.192  10.814   4.833  0.0633  0.3853  0.9511
39891SOL    HW123265   9.253  10.740   4.843  0.2556  0.5378  0.9017
39891SOL    HW223266   9.174  10.843   4.922  0.9372  1.0538  0.9215
39892SOL     OW23267   4.228   6.978  10.616 -0.2547 -0.1221 -0.2013
39892SOL    HW123268   4.209   6.887  10.638  0.2441  0.4159  2.9702
39892SOL    HW223269   4.323   6.983  10.616 -0.2755  0.3172 -0.8407
39893SOL     OW23270   2.532   8.587  10.573  0.0584  0.0305 -0.4066
39893SOL    HW123271   2.527   8.495  10.598 -0.1836  0.4125  1.0475
39893SOL    HW223272   2.471   8.631  10.632  0.6562  1.2110 -0.6365
39894SOL     OW23273   6.885   1.791   7.074 -0.3944  0.4326  0.0764
39894SOL    HW123274   6.824   1.777   7.002 -1.3050 -1.1773  1.0893
39894SOL    HW223275   6.849   1.740   7.146  2.1179 -0.5478  0.7612
39895SOL     OW23276   1.378   7.687   6.699 -0.3589  0.1597 -0.0249
39895SOL    HW123277   1.465   7.659   6.671  0.0357 -0.9145  2.0298
39895SOL    HW223278   1.388   7.779   6.723  0.8327 -0.4823  2.2222
39896SOL     OW23279   2.718   0.490   2.403 -0.2349 -0.2404  0.5926
39896SOL    HW123280   2.629   0.494   2.437  0.3617  0.7197  2.1318
39896SOL    HW223281   2.724   0.405   2.360 -1.5302 -0.8066  1.4963
39897SOL     OW23282  10.010   7.425   2.570 -0.0058  0.5299  0.1946
39897SOL    HW123283  10.035   7.495   2.630 -1.2722  1.6530 -0.5288
39897SOL    HW223284  10.058   7.444   2.489 -0.9945  1.0981 -0.2846
39898SOL     OW23285   0.806   1.089  10.585  0.1209 -0.1410 -0.1362
39898SOL    HW123286   0.754   1.169  10.579  1.0037  0.3517 -1.5347
39898SOL    HW223287   0.748   1.020  10.552  0.0473  0.2532 -0.8259
39899SOL     OW23288   9.656   7.804   5.614  0.2822  0.0470 -0.6535
39899SOL    HW123289   9.622   7.893   5.614  0.3062  0.1403  1.9224
39899SOL    HW223290   9.589   7.752   5.658  1.9732 -0.3426  1.7086
39900SOL     OW23291   1.344   6.749   0.330 -0.4831  0.2124 -0.1478
39900SOL    HW123292   1.278   6.771   0.396 -0.3902  2.9224 -0.8382
39900SOL    HW223293   1.294   6.734   0.250 -0.3599  1.8847 -0.5785
39901SOL     OW23294   8.292  10.477   6.614  0.3795 -0.3688 -0.1399
39901SOL    HW123295   8.330  10.557   6.577 -1.4821  1.1180  0.9607
39901SOL    HW223296   8.207  10.468   6.571  0.6250 -1.8928 -0.3658
39902SOL     OW23297   0.474  10.157   1.684  0.4678 -0.4249  0.3249
39902SOL    HW123298   0.444  10.134   1.596 -2.0390  0.7121  0.8038
39902SOL    HW223299   0.559  10.113   1.693  1.1984  0.0898 -2.9465
39903SOL     OW23300   3.590   5.893   7.491  0.2500  0.6041 -0.0991
39903SOL    HW123301   3.675   5.862   7.522  0.1039  2.1505  2.0615
39903SOL    HW223302   3.611   5.972   7.440  0.1373  0.7890  0.1402
39904SOL     OW23303   3.428   7.608  10.063 -0.0179 -0.0966  0.0861
39904SOL    HW123304   3.456   7.643  10.147  1.7359 -0.3900 -0.3161
39904SOL    HW223305   3.462   7.670   9.999 -2.0335  0.5526 -0.4005
39905SOL     OW23306   3.227   6.895   9.394 -0.0370 -0.7009  0.1035
39905SOL    HW123307   3.315   6.912   9.359  0.7978 -1.1801  1.8789
39905SOL    HW223308   3.168   6.936   9.330  1.5410  1.1548 -0.2559
39906SOL     OW23309   2.560  10.786   0.128 -0.1193  0.1726 -0.2778
39906SOL    HW123310   2.498  10.759   0.061  0.0427  1.0270 -0.7811
39906SOL    HW223311   2.641  10.802   0.080  0.3221 -0.3207  0.2870
39907SOL     OW23312   6.296   7.951  10.519  0.6075  0.3880 -0.8232
39907SOL    HW123313   6.318   8.025  10.576 -2.0348  2.3170 -2.0761
39907SOL    HW223314   6.231   7.901  10.569  0.8132  0.1222 -0.8185
39908SOL     OW23315  10.051   4.746   1.947  0.0849  0.1376 -0.2374
39908SOL    HW123316  10.111   4.681   1.982  0.8782  0.7387 -0.4631
39908SOL    HW223317  10.007   4.783   2.024 -2.3810 -2.4852 -0.1987
39909SOL     OW23318   4.798   8.730   1.360  0.3354 -0.0356  0.4610
39909SOL    HW123319   4.855   8.660   1.328 -0.0576 -0.3288  0.3911
39909SOL    HW223320   4.830   8.809   1.317 -0.9180 -0.5940 -1.6055
39910SOL     OW23321   6.843   5.201   5.187  0.5146  0.5857  0.5586
39910SOL    HW123322   6.918   5.167   5.236  2.1183  1.0867 -1.4146
39910SOL    HW223323   6.877   5.216   5.099 -2.0585  0.4119 -0.5348
39911SOL     OW23324   9.909   9.454   1.160 -1.0285  0.8074  0.3078
39911SOL    HW123325   9.937   9.365   1.138 -0.5436  0.7599  1.0946
39911SOL    HW223326   9.838   9.472   1.098 -0.4572  0.2553 -0.5359
39912SOL     OW23327   6.104   2.420   3.142  0.6476 -0.4487 -0.1795
39912SOL    HW123328   6.080   2.509   3.170  0.8864  0.2766 -2.1138
39912SOL    HW223329   6.106   2.369   3.223 -2.5820  0.5378  0.6776
39913SOL     OW23330   5.625   4.477   6.675  0.5007 -0.3847  0.0343
39913SOL    HW123331   5.632   4.480   6.579  1.0988  1.2222  0.1021
39913SOL    HW223332   5.714   4.497   6.706  0.5963 -2.0393  0.9534
39914SOL     OW23333   5.740   8.099   8.056  0.0072  0.2024  0.2124
39914SOL    HW123334   5.815   8.062   8.009 -0.8181  0.4933 -1.4022
39914SOL    HW223335   5.777   8.132   8.138  1.6407  0.2663 -0.5072
39915SOL     OW23336   2.644  10.368   5.403  0.4232  0.3514  0.3175
39915SOL    HW123337   2.599  10.346   5.484  0.0235  0.0037 -0.0002
39915SOL    HW223338   2.667  10.461   5.413 -0.6758  0.6346  0.3359
39916SOL     OW23339   3.704   0.886   7.821  0.0344  0.0251  0.3421
39916SOL    HW123340   3.621   0.928   7.797 -0.1351  1.6698  3.3176
39916SOL    HW223341   3.679   0.797   7.846 -0.5443 -0.0344 -0.4079
39917SOL     OW23342   0.778   1.411   2.209 -0.5923  0.6842  0.0772
39917SOL    HW123343   0.731   1.379   2.133  0.6482 -1.7855  0.2420
39917SOL    HW223344   0.750   1.354   2.281  0.5636  0.9519  0.7775
39918SOL     OW23345   0.833   2.749  10.779 -0.0596  0.2531  0.4586
39918SOL    HW123346   0.795   2.835  10.801 -1.3343  0.0962 -0.9853
39918SOL    HW223347   0.768   2.686  10.808 -0.7556 -0.0458 -1.6192
39919SOL     OW23348  10.094   3.167   6.476 -0.6169  0.1664 -0.4806
39919SOL    HW123349  10.034   3.241   6.484  0.0907  0.5743  2.0587
39919SOL    HW223350  10.060   3.102   6.538  0.9732  0.0469  0.3353
39920SOL     OW23351   6.029   3.631   4.462  0.1330 -0.1172  0.2613
39920SOL    HW123352   6.018   3.667   4.374 -0.3575  2.2458  1.2093
39920SOL    HW223353   5.940   3.615   4.492  0.1220  1.4714  1.1945
39921SOL     OW23354   0.306   1.769   2.112 -0.0294  0.2135  0.4309
39921SOL    HW123355   0.391   1.728   2.124 -1.0145 -2.7431 -1.5711
39921SOL    HW223356   0.264   1.763   2.198 -0.0073 -2.9364  0.3283
39922SOL     OW23357   7.331   8.277   7.512 -0.3277  0.0345 -0.1337
39922SOL    HW123358   7.391   8.218   7.558  0.0411  1.0153  0.6766
39922SOL    HW223359   7.370   8.290   7.426 -0.5591 -1.1067 -0.4327
39923SOL     OW23360   4.768  10.107   3.545 -0.0335 -0.1941 -0.0558
39923SOL    HW123361   4.847  10.092   3.598 -0.0092  0.1621  0.0118
39923SOL    HW223362   4.696  10.103   3.607 -0.0140  0.1089 -0.0078
39924SOL     OW23363   4.014   5.733   6.122 -0.5258 -0.0039  0.2674
39924SOL    HW123364   4.011   5.650   6.168  3.0004 -0.8369 -0.7026
39924SOL    HW223365   3.963   5.793   6.176 -0.2100 -1.9511  2.8750
39925SOL     OW23366   1.528   7.782   9.802  0.4608  0.2405  0.2526
39925SOL    HW123367   1.540   7.840   9.726 -0.7159  1.6230  1.0635
39925SOL    HW223368   1.526   7.694   9.765  0.4413  0.8414 -1.2628
39926SOL     OW23369  10.966   7.219   5.253  0.0533  0.1252  0.3931
39926SOL    HW123370  10.870   7.219   5.259  0.0316 -0.3820  0.0325
39926SOL    HW223371  10.989   7.127   5.242  0.5752  0.2625  0.3538
39927SOL     OW23372   8.746   2.246   5.457  0.2244  0.3919  0.3256
39927SOL    HW123373   8.714   2.199   5.533  0.9203 -1.5758 -0.5406
39927SOL    HW223374   8.734   2.185   5.384  1.0947  1.5936 -0.8730
39928SOL     OW23375   4.629   4.953   4.265  0.5001 -0.1923 -0.2034
39928SOL    HW123376   4.624   4.971   4.359 -0.6777 -0.0129 -0.2795
39928SOL    HW223377   4.622   4.858   4.258 -0.2701 -0.1484 -0.1383
39929SOL     OW23378   3.847  10.294   2.519  0.4074  0.5465 -0.3297
39929SOL    HW123379   3.814  10.325   2.604 -1.6213 -2.0773 -0.0407
39929SOL    HW223380   3.769  10.265   2.472  1.8973 -3.0798 -0.9009
39930SOL     OW23381   7.976   3.135   8.254  0.5754  0.1912  0.3205
39930SOL    HW123382   7.897   3.092   8.219  0.8324  0.0988 -0.1581
39930SOL    HW223383   7.954   3.155   8.345  0.9505 -2.2266  1.0173
39931SOL     OW23384   6.255   4.098  10.213  0.5748  0.4001  0.2077
39931SOL    HW123385   6.246   4.098  10.118  0.0773 -0.5151  0.2450
39931SOL    HW223386   6.256   4.191  10.238  1.7407  0.6750 -0.7792
39932SOL     OW23387   6.842   7.659   9.217 -0.0141 -0.4288  0.1991
39932SOL    HW123388   6.777   7.712   9.263 -0.0098  0.9997 -1.3346
39932SOL    HW223389   6.912   7.721   9.197  0.2425 -1.1438 -1.1721
39933SOL     OW23390   7.478   2.062   3.067 -0.7167  0.3094  0.2470
39933SOL    HW123391   7.552   2.008   3.094 -1.5727 -0.9671  0.1484
39933SOL    HW223392   7.431   2.007   3.004  0.2209  2.4666 -2.5159
39934SOL     OW23393   9.372   5.062   6.074 -0.4022  0.6307 -0.3299
39934SOL    HW123394   9.340   5.104   5.994  0.7473 -0.5515 -1.4502
39934SOL    HW223395   9.451   5.111   6.097 -0.6567  0.8837  0.0239
39935SOL     OW23396   4.976   5.788   9.424 -0.4100 -0.3810 -0.1032
39935SOL    HW123397   5.018   5.869   9.452 -2.7230  0.2789  1.8524
39935SOL    HW223398   4.970   5.735   9.504 -1.6909 -1.1420 -0.6638
39936SOL     OW23399   3.171   3.795   2.493 -0.1879  0.3519  0.2621
39936SOL    HW123400   3.265   3.810   2.482 -0.0180 -0.7726  0.0227
39936SOL    HW223401   3.153   3.812   2.585 -0.1107  2.3292 -0.0499
39937SOL     OW23402   7.611   8.110   2.303  0.3952 -0.1150  0.4114
39937SOL    HW123403   7.563   8.034   2.337 -1.5233  0.5751 -0.6199
39937SOL    HW223404   7.652   8.078   2.223 -0.3389 -0.1109  0.0239
39938SOL     OW23405  10.486   8.219   0.515  0.2472  0.4233  0.6967
39938SOL    HW123406  10.582   8.210   0.514  0.4017  1.8500  0.7177
39938SOL    HW223407  10.460   8.214   0.423  0.1895 -1.1680  0.7716
39939SOL     OW23408   9.077   6.957   0.311 -0.1766 -0.4738  0.2293
39939SOL    HW123409   9.042   6.935   0.398  0.2739 -0.8590  0.3193
39939SOL    HW223410   9.169   6.976   0.327 -0.2820  0.2898 -0.0406
39940SOL     OW23411   1.947   2.090   4.724 -0.3137  0.4471  0.4675
39940SOL    HW123412   1.946   2.058   4.814  1.2575  2.1797  1.1869
39940SOL    HW223413   2.032   2.134   4.715 -1.7978  3.3635 -0.7243
39941SOL     OW23414   4.663   2.142   7.964  0.0669 -0.1707 -0.0836
39941SOL    HW123415   4.605   2.096   7.903 -1.3321 -0.5789  1.4757
39941SOL    HW223416   4.637   2.234   7.957  0.7106 -0.0398 -0.9187
39942SOL     OW23417   4.842   7.062   2.409 -0.2026 -0.1805  0.0355
39942SOL    HW123418   4.842   6.999   2.481 -0.3814 -0.0526  0.1481
39942SOL    HW223419   4.856   7.147   2.452 -2.1369  0.1301  0.1231
39943SOL     OW23420  10.820   8.451   3.687  0.4471 -0.2662  0.0837
39943SOL    HW123421  10.819   8.398   3.607  2.0655 -0.6564  0.2918
39943SOL    HW223422  10.811   8.541   3.656  1.6958 -0.3622 -0.6222
39944SOL     OW23423   3.015   6.742   3.956 -0.3342  0.2159  0.3121
39944SOL    HW123424   3.097   6.729   4.004  0.6101  0.5313 -1.1612
39944SOL    HW223425   2.997   6.836   3.966 -0.7674  0.0616  1.0129
39945SOL     OW23426   7.340   7.897   5.066 -0.5591 -0.2938 -0.6100
39945SOL    HW123427   7.290   7.926   4.990 -2.0252  1.7122  0.9815
39945SOL    HW223428   7.383   7.976   5.098 -0.2383 -1.0095  0.8228
39946SOL     OW23429   9.920   2.138   4.092  0.3006 -0.4335 -0.5450
39946SOL    HW123430   9.943   2.204   4.026 -0.2650  0.0277 -0.2924
39946SOL    HW223431  10.005   2.103   4.121  0.5573 -0.5848 -1.4515
39947SOL     OW23432   7.297   9.881   7.552 -0.0233  0.7139  0.4325
39947SOL    HW123433   7.390   9.868   7.570  0.0982 -0.1795 -0.6972
39947SOL    HW223434   7.252   9.834   7.621  0.4073 -1.2557 -0.5391
39948SOL     OW23435   5.890   3.460   2.174 -0.1157 -0.2637 -0.4488
39948SOL    HW123436   5.797   3.464   2.152 -0.6568 -1.2952  1.4920
39948SOL    HW223437   5.934   3.460   2.089 -1.9344 -0.9645 -1.4423
39949SOL     OW23438   6.185   1.632   9.645 -0.1215  0.0996  0.2579
39949SOL    HW123439   6.274   1.630   9.681 -0.4057  1.5207  1.1295
39949SOL    HW223440   6.172   1.723   9.619 -1.8805  0.3243  1.6762
39950SOL     OW23441   1.770   8.386   8.327  0.1378 -0.0011 -0.4176
39950SOL    HW123442   1.737   8.386   8.237 -0.6390  2.2930 -0.1806
39950SOL    HW223443   1.863   8.404   8.319 -0.3504  2.7034 -0.7094
39951SOL     OW23444   2.410   0.279   6.419 -0.2227  0.1739  0.3366
39951SOL    HW123445   2.461   0.206   6.453 -0.8265 -0.9300 -1.0228
39951SOL    HW223446   2.330   0.280   6.471 -0.8228 -1.0364 -0.5290
39952SOL     OW23447   7.024   3.904   6.323  0.4388  0.6766 -0.9228
39952SOL    HW123448   7.096   3.906   6.386  0.1240  0.2217 -0.5420
39952SOL    HW223449   7.066   3.893   6.238  0.9821  2.9315 -1.0047
39953SOL     OW23450   6.084   6.138   3.556  0.2080  0.3034  0.9484
39953SOL    HW123451   6.128   6.219   3.530 -1.8224  0.3034 -3.4134
39953SOL    HW223452   6.135   6.068   3.516 -0.0710 -0.2571  1.5522
39954SOL     OW23453   9.754   1.064   9.320 -0.2211 -0.1947  0.2412
39954SOL    HW123454   9.828   1.044   9.377 -0.6855  0.0702  0.9633
39954SOL    HW223455   9.788   1.125   9.256  0.1343  0.1134  0.7152
39955SOL     OW23456   2.454   3.156   0.645 -0.8525  0.1274 -0.0417
39955SOL    HW123457   2.489   3.111   0.722 -0.2662  1.5183  0.5445
39955SOL    HW223458   2.459   3.249   0.668 -1.6337  0.5199 -1.3658
39956SOL     OW23459   1.678   2.307   2.751  0.0244  0.6784  0.4678
39956SOL    HW123460   1.758   2.255   2.764  0.1284  0.6793 -0.1444
39956SOL    HW223461   1.696   2.389   2.796 -0.5783 -0.2093  2.4532
39957SOL     OW23462   8.558   8.901   3.676 -0.5069 -0.1172 -0.1477
39957SOL    HW123463   8.604   8.899   3.760 -1.5240 -2.0915  0.4325
39957SOL    HW223464   8.466   8.887   3.700 -0.5736 -3.0691 -1.6829
39958SOL     OW23465   7.565   7.810   2.914 -0.5316 -0.0597 -0.2469
39958SOL    HW123466   7.481   7.767   2.901 -0.4759 -0.5667  0.9850
39958SOL    HW223467   7.542   7.902   2.931 -0.6843  0.2978 -2.1850
39959SOL     OW23468   9.766  10.480   7.854  0.7297 -0.0088 -0.1697
39959SOL    HW123469   9.766  10.561   7.802  1.1654 -0.2668 -0.5739
39959SOL    HW223470   9.857  10.451   7.854  0.5148 -0.6928 -0.3275
39960SOL     OW23471   2.288  10.702   7.155  0.5925 -0.2270  0.4787
39960SOL    HW123472   2.342  10.729   7.229  1.4376 -2.5161  0.7514
39960SOL    HW223473   2.343  10.643   7.104 -0.3331  0.4600 -1.4389
39961SOL     OW23474   8.537   5.652   7.345  0.5789  0.0304  0.3105
39961SOL    HW123475   8.629   5.671   7.329  0.4665  2.0487  1.7061
39961SOL    HW223476   8.491   5.694   7.272  0.6705  0.0515  0.2651
39962SOL     OW23477  10.612   8.012   7.120  0.0625  0.5154 -0.1217
39962SOL    HW123478  10.636   7.920   7.129  0.2687  0.4714 -1.0615
39962SOL    HW223479  10.644   8.053   7.201  3.2835  0.4362 -1.2257
39963SOL     OW23480  10.012   4.389   9.465  0.5548  0.2648  0.7977
39963SOL    HW123481  10.007   4.295   9.482  1.6307 -0.0104 -0.2475
39963SOL    HW223482   9.927   4.410   9.425  0.0205 -0.0924  1.7112
39964SOL     OW23483   9.357   3.676  10.744  0.4178 -0.0216 -0.1174
39964SOL    HW123484   9.407   3.608  10.699 -0.4630  0.7373 -2.3590
39964SOL    HW223485   9.303   3.715  10.676 -0.1250  2.0063  1.3918
39965SOL     OW23486   1.591   5.357   1.683  0.5281  0.0041 -0.4599
39965SOL    HW123487   1.609   5.322   1.596 -0.9233  1.0479 -1.2153
39965SOL    HW223488   1.663   5.419   1.699  0.0351  0.9183 -1.5872
39966SOL     OW23489   4.851   5.410   8.873 -0.3574  0.1877 -0.2969
39966SOL    HW123490   4.890   5.469   8.939 -0.6501 -0.1444  0.1734
39966SOL    HW223491   4.828   5.331   8.921 -0.0958 -0.2662 -0.9042
39967SOL     OW23492   9.487  10.787   3.967 -0.3189 -0.1435 -0.0436
39967SOL    HW123493   9.478  10.829   4.052  0.2790 -1.0724  0.5038
39967SOL    HW223494   9.403  10.745   3.951 -0.7447  0.8072 -0.3571
39968SOL     OW23495   7.514   6.817   0.363 -0.4873  0.1965  0.0490
39968SOL    HW123496   7.537   6.830   0.455 -1.0295  0.0417  0.2077
39968SOL    HW223497   7.565   6.741   0.336  0.6917  1.0318 -0.1561
39969SOL     OW23498   6.923   6.753   0.106  0.2045  0.3975 -0.5757
39969SOL    HW123499   6.859   6.711   0.163  0.4272  0.4314 -0.3042
39969SOL    HW223500   6.869   6.799   0.041 -0.0427 -0.8694 -1.2995
39970SOL     OW23501   6.376   8.047   7.590  0.4367 -0.0406 -0.5645
39970SOL    HW123502   6.316   7.973   7.582  0.3737  0.0468 -0.9223
39970SOL    HW223503   6.450   8.024   7.534  1.2856 -0.6717  0.7454
39971SOL     OW23504   0.493   4.776   4.303 -0.7126 -0.2252 -0.1457
39971SOL    HW123505   0.437   4.727   4.243  1.4522 -2.6389 -0.3837
39971SOL    HW223506   0.582   4.747   4.282  0.4000  1.2901  2.0757
39972SOL     OW23507   3.438   9.382  11.044  0.2032  0.2402  0.1354
39972SOL    HW123508   3.424   9.355  10.953 -1.0703 -0.9393  0.6502
39972SOL    HW223509   3.379   9.456  11.056  0.7914  0.7600 -0.1532
39973SOL     OW23510   0.852   6.251   0.948  0.2317  0.3621 -0.2610
39973SOL    HW123511   0.908   6.205   1.011  0.2759 -0.1429 -0.6657
39973SOL    HW223512   0.838   6.338   0.987  1.5470  0.6055 -0.2940
39974SOL     OW23513   1.247   3.254   4.459  0.0935 -0.0013 -0.2330
39974SOL    HW123514   1.216   3.317   4.394  0.7116  0.1147 -0.4220
39974SOL    HW223515   1.270   3.308   4.535  0.7890  0.0213 -0.4575
39975SOL     OW23516   6.603   5.932   7.941  0.0550  0.3637 -0.6749
39975SOL    HW123517   6.556   5.999   7.892 -1.8424 -1.5124 -1.5960
39975SOL    HW223518   6.641   5.875   7.873  1.8518  0.5814  0.0754
39976SOL     OW23519   1.042   5.075   9.916 -0.0686 -0.3928  0.3455
39976SOL    HW123520   1.119   5.124   9.887 -1.7237  1.9193 -0.4853
39976SOL    HW223521   1.044   5.081  10.012  0.7614 -0.3661  0.3333
39977SOL     OW23522   0.621   4.118   8.591  0.0576 -0.1693 -0.2792
39977SOL    HW123523   0.712   4.095   8.609 -0.1592 -1.6683 -0.9107
39977SOL    HW223524   0.605   4.087   8.502 -0.4615  2.0842 -1.0462
39978SOL     OW23525   2.821   2.250   7.137 -0.2848  0.1428  0.0476
39978SOL    HW123526   2.854   2.309   7.069 -0.2729  0.8265  0.6327
39978SOL    HW223527   2.834   2.298   7.219 -1.0352 -0.3324  0.4599
39979SOL     OW23528   2.627   3.673   2.006  0.1623  0.6259 -0.3838
39979SOL    HW123529   2.674   3.686   2.089  0.0333  1.1720 -0.3866
39979SOL    HW223530   2.553   3.618   2.029  1.1201 -0.7587 -0.4942
39980SOL     OW23531   0.969   2.605   6.927  0.0481 -0.1214  0.3708
39980SOL    HW123532   0.887   2.594   6.879  0.5052 -0.3822 -0.3799
39980SOL    HW223533   1.023   2.531   6.899  1.2624  1.0965 -0.7002
39981SOL     OW23534   8.604   9.843   2.264 -0.4909  0.5567 -0.5634
39981SOL    HW123535   8.557   9.922   2.289  0.9653  1.3139 -0.1123
39981SOL    HW223536   8.651   9.817   2.343  0.4331  0.2662 -1.1833
39982SOL     OW23537   6.594   8.777   0.195 -0.4616  0.1145 -0.0564
39982SOL    HW123538   6.678   8.747   0.159 -0.1870 -0.0333  0.6793
39982SOL    HW223539   6.543   8.802   0.119  0.0514 -0.3225 -0.5565
39983SOL     OW23540   1.870   9.797   6.049  0.7304  0.0250  0.3355
39983SOL    HW123541   1.902   9.837   6.130 -3.9511  3.4280  0.9395
39983SOL    HW223542   1.900   9.856   5.980  0.3511  0.1641  0.2849
39984SOL     OW23543   4.041   9.820   3.026  0.0671  0.3767  0.1631
39984SOL    HW123544   3.989   9.768   3.087 -0.4986 -0.7776 -1.2348
39984SOL    HW223545   4.104   9.758   2.989  1.5103  1.4292  0.7609
39985SOL     OW23546   8.208   3.882   4.554  0.1484 -0.0591  0.3664
39985SOL    HW123547   8.141   3.939   4.590 -0.3884  0.3713 -1.2451
39985SOL    HW223548   8.160   3.808   4.517  0.0221  1.7889 -3.8547
39986SOL     OW23549   0.044   2.971   2.428 -0.1480  0.0502  0.3671
39986SOL    HW123550  -0.014   2.907   2.387 -0.5816 -0.0145  1.0646
39986SOL    HW223551  -0.006   3.053   2.426 -0.1495  0.0580  0.7188
39987SOL     OW23552   2.859   3.241   7.390 -0.0500  0.4486  0.6919
39987SOL    HW123553   2.874   3.306   7.321 -0.9378 -0.9120 -0.8566
39987SOL    HW223554   2.787   3.278   7.442 -0.3002  0.8647  0.0641
39988SOL     OW23555   0.448   8.954   1.710 -0.6604  0.7743  0.9635
39988SOL    HW123556   0.486   8.967   1.624  0.3123 -2.8075  0.7263
39988SOL    HW223557   0.508   8.999   1.770  1.4229 -0.7895  0.1598
39989SOL     OW23558   3.998   8.701   4.004 -0.1613 -0.6638 -0.0071
39989SOL    HW123559   3.990   8.650   3.923  1.1085 -1.2474  0.2047
39989SOL    HW223560   3.962   8.786   3.982 -0.0977 -0.9055 -1.1185
39990SOL     OW23561   2.712   3.537   9.934  0.2420 -0.2119  0.4768
39990SOL    HW123562   2.737   3.625   9.962  0.6317  0.2298 -1.1254
39990SOL    HW223563   2.683   3.548   9.843 -0.5796 -1.6022  0.5356
39991SOL     OW23564   7.808   5.486   1.771 -0.5964 -0.5787  0.6984
39991SOL    HW123565   7.881   5.432   1.802 -0.9026 -0.4480  1.6943
39991SOL    HW223566   7.763   5.432   1.707  0.3620 -0.6675  0.0822
39992SOL     OW23567   8.994   3.927   2.680  0.0876  0.4191  0.5800
39992SOL    HW123568   8.927   3.870   2.643  0.7284 -1.0852  1.6371
39992SOL    HW223569   9.030   3.878   2.754  0.1587  2.5268  2.0388
39993SOL     OW23570   2.554   2.306   7.102 -0.8166 -0.4732 -0.2692
39993SOL    HW123571   2.519   2.277   7.019 -1.1746  0.6834 -0.5429
39993SOL    HW223572   2.645   2.275   7.103 -0.3796  0.6401 -1.7061
39994SOL     OW23573   1.468   1.491   7.306  0.0593 -0.3230 -0.1553
39994SOL    HW123574   1.430   1.579   7.295  0.3725 -0.3198 -1.4517
39994SOL    HW223575   1.561   1.507   7.326  0.1479 -0.3512 -0.5330
39995SOL     OW23576   4.506  10.724   2.463  0.0690  0.4380 -0.0002
39995SOL    HW123577   4.565  10.650   2.447  0.5800  1.0134 -0.8894
39995SOL    HW223578   4.418  10.688   2.450  0.3420  0.1256 -1.0772
39996SOL     OW23579   6.697   6.128   6.039  0.4323  0.0741  0.6208
39996SOL    HW123580   6.767   6.180   5.997 -0.2484  0.5100 -0.0024
39996SOL    HW223581   6.657   6.188   6.102 -0.2165  0.2548  0.0521
39997SOL     OW23582   0.954   3.592   1.145  0.1258 -0.2941 -0.3882
39997SOL    HW123583   1.017   3.585   1.073  0.7876 -1.6089  0.2785
39997SOL    HW223584   0.880   3.640   1.108 -0.2983 -2.3613 -2.5086
39998SOL     OW23585   9.509   2.807   6.956 -0.2350  0.1372 -0.2090
39998SOL    HW123586   9.425   2.831   6.993 -0.8998 -0.5298 -1.2337
39998SOL    HW223587   9.518   2.713   6.973  0.7151  0.3683  0.6592
39999SOL     OW23588   3.259   7.841   8.846  0.3541  0.4078  0.3231
39999SOL    HW123589   3.318   7.862   8.772  0.4506  0.6714  0.4735
39999SOL    HW223590   3.172   7.867   8.815  0.4178  0.6728  0.3625
40000SOL     OW23591  10.195   7.911   5.168 -0.0418 -0.1489  0.3280
40000SOL    HW123592  10.153   7.842   5.117  0.2581 -0.7873  0.9345
40000SOL    HW223593  10.275   7.931   5.120  0.9753 -1.7589  1.2627
40001SOL     OW23594   1.351   0.771   6.713  0.0215 -0.3056 -0.2782
40001SOL    HW123595   1.430   0.721   6.696  0.4678 -0.1821  1.2242
40001SOL    HW223596   1.346   0.776   6.809 -1.5467  0.0940 -0.3464
40002SOL     OW23597  10.890   1.571   7.422  0.5267 -0.1626  0.1963
40002SOL    HW123598  10.848   1.655   7.406  0.3970 -0.3396 -0.4429
40002SOL    HW223599  10.820   1.506   7.414  0.6387 -0.3400  0.6081
40003SOL     OW23600   3.086   3.571   8.010  0.4562  0.9210 -0.0853
40003SOL    HW123601   3.125   3.613   8.087  2.1445 -0.8330  0.1048
40003SOL    HW223602   3.159   3.526   7.969 -1.0360 -0.9198 -0.8563
40004SOL     OW23603   5.092  10.793   8.805  0.4635 -0.1504  0.6203
40004SOL    HW123604   5.148  10.799   8.883  1.6890  2.9395 -0.3697
40004SOL    HW223605   5.028  10.863   8.816 -1.4980 -1.7954  0.3274
40005SOL     OW23606   4.100  10.735   9.642 -0.1869 -0.1174 -0.3925
40005SOL    HW123607   4.018  10.699   9.677  0.8840 -2.1460  0.2343
40005SOL    HW223608   4.130  10.669   9.580 -0.1040  1.6542 -2.3300
40006SOL     OW23609  11.052   3.560   7.021 -0.2241 -0.3894  0.2381
40006SOL    HW123610  11.098   3.489   7.067  0.1733  0.0411  0.5117
40006SOL    HW223611  11.117   3.630   7.015 -0.0975 -0.6199 -1.4432
40007SOL     OW23612  10.849   5.045   4.446 -0.3401 -0.1631 -0.0585
40007SOL    HW123613  10.808   5.042   4.532 -1.4147 -0.1270 -0.5394
40007SOL    HW223614  10.874   4.955   4.428  2.0034  0.1743  1.2304
40008SOL     OW23615   0.446   1.855   3.794  0.7052 -0.4127  0.4167
40008SOL    HW123616   0.503   1.778   3.790  1.2658  0.0174 -0.0115
40008SOL    HW223617   0.466   1.896   3.879 -0.1301 -1.1268  0.9858
40009SOL     OW23618   5.472   9.884   5.397  0.0214 -0.4396 -0.5532
40009SOL    HW123619   5.415   9.823   5.351 -1.2420  0.4303 -0.2037
40009SOL    HW223620   5.413   9.949   5.434  1.1399 -0.1559  0.8603
40010SOL     OW23621   4.684   0.162   1.377  0.5748 -0.0037  0.2591
40010SOL    HW123622   4.621   0.115   1.323  0.2278  1.0231 -0.2668
40010SOL    HW223623   4.704   0.102   1.449 -1.4970 -0.1315  0.7810
40011SOL     OW23624   7.386   4.390   8.357  0.2022 -0.6772  0.2221
40011SOL    HW123625   7.304   4.342   8.348 -0.0338  0.0099 -2.1313
40011SOL    HW223626   7.393   4.410   8.450 -1.4646 -2.1594  0.7117
40012SOL     OW23627   6.000   9.146   5.352 -0.0442 -0.5688 -0.1147
40012SOL    HW123628   6.070   9.182   5.298 -0.5912  2.3167  0.9565
40012SOL    HW223629   5.919   9.168   5.305 -0.4432  0.5533  1.0472
40013SOL     OW23630  10.049   8.353   9.849  0.0727  0.3057 -0.1871
40013SOL    HW123631   9.984   8.337   9.781 -0.9468 -0.3729  0.9222
40013SOL    HW223632  10.107   8.419   9.811 -0.6353  0.1619 -1.5963
40014SOL     OW23633   0.941   4.990   1.386 -0.1754  1.0498 -0.2075
40014SOL    HW123634   0.868   5.052   1.389 -1.0325  0.0639  0.2310
40014SOL    HW223635   0.998   5.016   1.458 -0.4111  1.4783 -0.1743
40015SOL     OW23636   5.330  10.388   0.181  0.2495  0.5950 -0.5206
40015SOL    HW123637   5.360  10.338   0.257 -1.5684  0.7432  0.3617
40015SOL    HW223638   5.284  10.324   0.127  0.6691  0.6943 -1.0021
40016SOL     OW23639   7.012   2.464   9.385  0.3073  0.2781 -0.0051
40016SOL    HW123640   6.993   2.487   9.477  0.2349 -1.5362  0.4758
40016SOL    HW223641   7.073   2.391   9.391 -0.0704 -0.1792 -1.4124
40017SOL     OW23642   5.571  10.894   2.411  0.4327 -0.2754  0.0957
40017SOL    HW123643   5.615  10.978   2.430  1.6138 -0.4778 -1.4604
40017SOL    HW223644   5.641  10.839   2.375 -0.3257 -1.9643  1.1123
40018SOL     OW23645   6.204   4.270   7.754 -0.2662 -0.3729  0.3344
40018SOL    HW123646   6.213   4.365   7.743  0.5652 -0.5386 -0.5550
40018SOL    HW223647   6.132   4.246   7.696 -1.0009 -0.1924  1.1508
40019SOL     OW23648   7.230  10.436   2.883 -0.1416 -0.1825  0.8535
40019SOL    HW123649   7.312  10.387   2.877  0.0466  0.2040  0.1427
40019SOL    HW223650   7.240  10.491   2.960  0.0825 -0.4713  1.0311
40020SOL     OW23651   9.897   9.798   1.651  0.1513  0.0393 -0.4131
40020SOL    HW123652   9.974   9.844   1.618 -0.6207  0.6894 -1.3429
40020SOL    HW223653   9.833   9.803   1.580 -1.5931  1.5316  1.1384
40021SOL     OW23654   0.347   9.903   2.121  0.7140  0.0179  0.1060
40021SOL    HW123655   0.391   9.909   2.036  0.6190 -0.6691  0.0023
40021SOL    HW223656   0.315   9.992   2.138 -0.6493 -0.1662 -1.3188
40022SOL     OW23657   1.424   7.418  10.128 -0.4655 -0.1573 -0.3829
40022SOL    HW123658   1.491   7.463  10.179 -0.5781 -1.3371  0.8514
40022SOL    HW223659   1.471   7.381  10.053 -0.2221  1.2192 -0.9300
40023SOL     OW23660   1.758   0.826   4.447 -0.0085  0.7735  0.4185
40023SOL    HW123661   1.754   0.730   4.439  1.3033  0.7329 -0.1097
40023SOL    HW223662   1.670   0.852   4.472  0.0101 -0.7188  2.2524
40024SOL     OW23663   5.911   1.381   5.330  0.0101 -0.4509  0.6344
40024SOL    HW123664   5.924   1.457   5.387 -0.2624 -0.1734  0.3331
40024SOL    HW223665   5.998   1.343   5.321  0.9410  1.9291 -2.1410
40025SOL     OW23666   5.501   3.262   8.318  0.4689 -0.3094  0.4210
40025SOL    HW123667   5.415   3.221   8.320  0.7616 -1.2539 -2.4437
40025SOL    HW223668   5.507   3.302   8.232  2.0766  1.6987  1.3729
40026SOL     OW23669   9.611   6.466   6.421  0.3210  0.0308 -0.0693
40026SOL    HW123670   9.550   6.434   6.354 -2.8423  0.7092  2.2033
40026SOL    HW223671   9.605   6.561   6.415  1.0610  0.1095  0.3022
40027SOL     OW23672   9.000   0.811  10.653 -0.1645 -0.0681 -0.1777
40027SOL    HW123673   8.952   0.887  10.618  0.7328  0.3768 -0.4911
40027SOL    HW223674   8.970   0.738  10.599 -0.1679  0.2839 -0.6709
40028SOL     OW23675   4.060   4.860   9.237 -0.3574 -0.2388  0.1392
40028SOL    HW123676   4.121   4.933   9.231 -1.4542  0.7863  1.1212
40028SOL    HW223677   4.047   4.847   9.331 -1.5818 -0.4916 -0.0550
40029SOL     OW23678   7.509   8.630   1.910  0.1987  0.2225 -1.0085
40029SOL    HW123679   7.498   8.709   1.858  1.2024 -0.4726 -2.3225
40029SOL    HW223680   7.434   8.575   1.886 -0.4810  0.7162 -0.1190
40030SOL     OW23681   5.925   6.346   3.232  0.0336  0.0392 -0.4362
40030SOL    HW123682   5.936   6.415   3.297 -1.1510  1.0279 -1.2255
40030SOL    HW223683   6.002   6.354   3.176 -0.5672  1.4575 -1.1295
40031SOL     OW23684   2.363   6.362   9.577  0.4031  0.5917  0.2973
40031SOL    HW123685   2.275   6.383   9.609 -1.3582  1.2618 -4.3061
40031SOL    HW223686   2.413   6.442   9.592  0.7543 -0.1025  3.8617
40032SOL     OW23687   7.155   1.626   1.902  0.0135  0.0011 -0.1327
40032SOL    HW123688   7.240   1.617   1.945  0.6538 -0.8440 -1.4905
40032SOL    HW223689   7.100   1.559   1.942 -0.1334  0.7660  0.9805
40033SOL     OW23690   6.669   3.126   5.381  0.1531 -0.4438  0.6440
40033SOL    HW123691   6.742   3.179   5.350 -0.1555  0.0745  0.7945
40033SOL    HW223692   6.702   3.082   5.459  0.5334 -0.7758  0.2952
40034SOL     OW23693  10.804   3.665   6.260  0.0086  0.1519 -0.6214
40034SOL    HW123694  10.762   3.612   6.327  0.4178 -1.0270 -1.2724
40034SOL    HW223695  10.864   3.722   6.309 -1.5128  1.1350  0.2224
40035SOL     OW23696   3.280   3.242   8.200 -0.0937 -0.3810  0.4080
40035SOL    HW123697   3.296   3.294   8.279 -0.4202  1.7325 -0.8326
40035SOL    HW223698   3.192   3.206   8.213 -0.4286  0.5129  0.7350
40036SOL     OW23699  10.852   2.281   2.155  0.9865  0.5364  0.6219
40036SOL    HW123700  10.849   2.191   2.124 -1.5547  1.0433 -0.8522
40036SOL    HW223701  10.777   2.290   2.212  0.7948  1.8797  0.2045
40037SOL     OW23702   8.401   3.841   3.433 -0.6720  0.6754  0.3672
40037SOL    HW123703   8.384   3.864   3.342 -0.9406 -2.8149 -0.6068
40037SOL    HW223704   8.468   3.773   3.429 -2.6798 -1.6473  2.4644
40038SOL     OW23705   2.446   9.126   1.781  0.0154  0.1508  0.4571
40038SOL    HW123706   2.523   9.183   1.780  0.8078 -0.8675  1.3960
40038SOL    HW223707   2.411   9.132   1.692  1.8344 -0.2314 -0.3366
40039SOL     OW23708   1.727   9.720   4.266 -0.1150 -0.2522 -0.0792
40039SOL    HW123709   1.807   9.765   4.239 -0.9785  0.4460 -1.5509
40039SOL    HW223710   1.713   9.652   4.200 -0.4325 -0.7698  0.4998
40040SOL     OW23711  10.930   5.790  10.575 -0.0701 -0.0766  0.7861
40040SOL    HW123712  10.980   5.824  10.501 -0.6906 -0.1479  0.3276
40040SOL    HW223713  10.840   5.818  10.559 -1.2076 -3.9297 -1.0084
40041SOL     OW23714   3.713   2.969   9.677  0.4407 -0.0703 -0.1197
40041SOL    HW123715   3.671   3.012   9.751 -0.1603  1.6301 -1.3907
40041SOL    HW223716   3.731   2.880   9.708 -4.1140 -0.9850  0.5189
40042SOL     OW23717   6.649   2.253   5.969  0.2439 -0.0607 -0.1690
40042SOL    HW123718   6.595   2.323   6.008  0.4488 -0.2188  0.4075
40042SOL    HW223719   6.585   2.192   5.931  0.0358  0.0627 -0.0224
40043SOL     OW23720   4.036   4.890   6.956 -1.0629 -0.5505 -1.0065
40043SOL    HW123721   3.955   4.841   6.943 -0.5443 -1.7604  0.0889
40043SOL    HW223722   4.018   4.946   7.031  0.1909 -3.5727  1.7996
40044SOL     OW23723   8.019   9.809   0.788  0.1553  0.4458  0.6407
40044SOL    HW123724   7.934   9.771   0.765  0.0424  0.4173  1.0965
40044SOL    HW223725   8.045   9.858   0.710 -0.5066  0.8502  0.6622
40045SOL     OW23726   3.696   3.216   3.924 -0.0140  0.0151 -0.5607
40045SOL    HW123727   3.620   3.172   3.962 -0.2114  1.3869  0.7404
40045SOL    HW223728   3.743   3.147   3.878 -1.6505 -1.0214 -0.7883
40046SOL     OW23729   6.498   7.166   6.205  0.1609  0.0561 -0.0157
40046SOL    HW123730   6.585   7.201   6.183 -0.0215  0.7081  0.2781
40046SOL    HW223731   6.463   7.228   6.268  0.2991 -1.2747  1.4395
40047SOL     OW23732   4.551   9.752   7.830 -0.2591 -0.1248 -0.3572
40047SOL    HW123733   4.460   9.782   7.837 -0.1600  0.0156  0.3990
40047SOL    HW223734   4.553   9.668   7.876 -0.1420 -0.4500 -0.9381
40048SOL     OW23735   5.081   1.475   2.237  0.1461  0.2317 -0.4149
40048SOL    HW123736   5.008   1.478   2.299  0.9494  0.2584  0.5497
40048SOL    HW223737   5.059   1.403   2.178  0.6310 -1.6173  1.5522
40049SOL     OW23738   0.381   9.841   1.648  0.0477  0.1297  0.1166
40049SOL    HW123739   0.287   9.829   1.635 -0.0335  0.0910  0.7165
40049SOL    HW223740   0.407   9.902   1.579 -1.0365  2.7164  1.8317
40050SOL     OW23741   9.822   2.802   8.190  0.0797 -0.1247 -0.2642
40050SOL    HW123742   9.758   2.805   8.120  0.1070 -2.0852 -0.4158
40050SOL    HW223743   9.861   2.715   8.184  1.1435  0.1977  1.2559
40051SOL     OW23744  10.580   9.184   7.355  0.1642 -0.1548  0.5370
40051SOL    HW123745  10.584   9.271   7.394 -0.5542 -0.0559  0.4119
40051SOL    HW223746  10.601   9.198   7.263  0.5226 -0.1888  0.6120
40052SOL     OW23747   9.228   4.927  10.154 -0.3311 -0.0277  0.6081
40052SOL    HW123748   9.292   4.968  10.213 -1.9838  0.6733  1.9830
40052SOL    HW223749   9.197   4.999  10.098  0.3525 -0.4516 -0.3495
40053SOL     OW23750  10.629  10.783   4.533  0.4447  0.0762  0.1391
40053SOL    HW123751  10.706  10.740   4.570  0.5481 -0.5800 -0.8065
40053SOL    HW223752  10.661  10.868   4.502  1.5380 -1.2960 -2.9103
40054SOL     OW23753   2.802   7.390   2.489  0.0989  0.1762  0.2777
40054SOL    HW123754   2.861   7.433   2.549  1.2718  0.6616 -1.1658
40054SOL    HW223755   2.858   7.354   2.420 -1.2965  1.6159 -1.7479
40055SOL     OW23756   5.496   8.475   2.932  0.3475  0.5478  0.9408
40055SOL    HW123757   5.471   8.409   2.997 -0.3436  2.5480  2.8184
40055SOL    HW223758   5.446   8.452   2.854 -0.4231 -0.7325  1.7771
40056SOL     OW23759   9.445   2.028   0.327  0.1364 -0.2598 -0.2343
40056SOL    HW123760   9.389   1.950   0.316 -1.0351  0.6392 -0.9040
40056SOL    HW223761   9.386   2.102   0.311  0.8395  0.8474  1.9681
40057SOL     OW23762   3.301   4.765   7.925 -0.1648 -0.0550  0.6547
40057SOL    HW123763   3.362   4.828   7.887 -0.6169 -0.7988 -1.4876
40057SOL    HW223764   3.336   4.680   7.898 -0.4417 -0.6628  2.1208
40058SOL     OW23765   4.369   9.106   7.354  0.7923 -0.2785  0.2396
40058SOL    HW123766   4.374   9.190   7.399  1.1695  0.1870 -0.6584
40058SOL    HW223767   4.326   9.125   7.271 -1.4557 -1.4243  1.0512
40059SOL     OW23768   3.942   1.819   6.634  0.4943  0.7024  0.3994
40059SOL    HW123769   3.961   1.887   6.697 -0.8595 -0.0432  1.6712
40059SOL    HW223770   3.899   1.864   6.561 -0.9801  1.1649  1.5101
40060SOL     OW23771   6.629   1.919   8.537 -0.4393 -0.1194  0.7758
40060SOL    HW123772   6.721   1.921   8.565 -0.4938  0.9276  0.9194
40060SOL    HW223773   6.634   1.905   8.442 -0.1407 -0.1346  0.7909
40061SOL     OW23774   5.748   2.007   1.677  0.2748 -0.0008  0.3854
40061SOL    HW123775   5.680   1.959   1.631 -0.4584  1.9814 -0.7415
40061SOL    HW223776   5.807   1.940   1.710 -1.4722 -1.7045  0.2085
40062SOL     OW23777   2.413   6.130   5.702 -0.4775 -0.9092 -0.2314
40062SOL    HW123778   2.470   6.206   5.700 -1.0670 -0.2879  2.5974
40062SOL    HW223779   2.370   6.130   5.616 -0.0844  1.6092 -0.4983
40063SOL     OW23780  10.084   6.036   1.253 -0.4611 -0.0958 -0.0474
40063SOL    HW123781  10.080   6.071   1.164 -3.3254  0.1103  0.0694
40063SOL    HW223782  10.142   5.960   1.246 -0.8910 -0.2950 -2.1982
40064SOL     OW23783   9.853   2.701   3.072  0.2709  0.4596  0.1440
40064SOL    HW123784   9.846   2.717   3.166 -1.7213  2.3127 -0.2206
40064SOL    HW223785   9.943   2.674   3.058  0.3177 -1.0008  2.7221
40065SOL     OW23786   5.389   6.144   3.314  1.2213  0.5657  0.0439
40065SOL    HW123787   5.324   6.204   3.352 -0.3010  0.1090 -1.7204
40065SOL    HW223788   5.359   6.057   3.340  1.3932  0.3768 -0.3913
40066SOL     OW23789   1.765   0.478  10.358  0.5099  0.0841  0.5018
40066SOL    HW123790   1.783   0.530  10.280  2.0506  0.5989  1.1561
40066SOL    HW223791   1.754   0.388  10.326  3.3512 -0.1199 -0.1549
40067SOL     OW23792   8.790   7.668   3.104 -0.0888 -0.1466 -0.3168
40067SOL    HW123793   8.797   7.637   3.014 -3.3621 -2.1626 -0.0525
40067SOL    HW223794   8.724   7.738   3.100 -0.5061 -0.4812  0.5186
40068SOL     OW23795   4.297   5.069  10.124 -0.0774 -0.1663 -0.3012
40068SOL    HW123796   4.245   5.010  10.179 -0.0755 -0.6694 -0.8295
40068SOL    HW223797   4.381   5.075  10.169 -0.7614  1.1424  0.8923
40069SOL     OW23798  10.717   9.436   2.969  0.1324  0.2881  0.1054
40069SOL    HW123799  10.739   9.404   3.057  0.4549 -0.5027 -0.2587
40069SOL    HW223800  10.791   9.491   2.945  0.5082 -0.2857 -0.0652
40070SOL     OW23801   2.323   9.855   5.037  0.5609 -0.6114 -0.0217
40070SOL    HW123802   2.311   9.948   5.057  1.7538 -0.5339  0.3849
40070SOL    HW223803   2.417   9.840   5.046  0.4588 -1.7385 -0.6285
40071SOL     OW23804   7.642   3.096   9.075 -0.3520  0.0412  0.6821
40071SOL    HW123805   7.547   3.091   9.086 -0.4918  0.9630  0.0400
40071SOL    HW223806   7.667   3.175   9.123  0.0807 -0.1485  0.7718
40072SOL     OW23807   0.848   0.390   1.518 -0.4043  0.1858 -0.1817
40072SOL    HW123808   0.893   0.431   1.444 -0.2686 -1.0096 -0.7699
40072SOL    HW223809   0.764   0.361   1.483 -0.4435 -0.1709  0.1974
40073SOL     OW23810   9.736  11.098  10.406 -0.0686  0.2653  0.6552
40073SOL    HW123811   9.808  11.063  10.353  0.8436  1.2903  1.1874
40073SOL    HW223812   9.778  11.159  10.467 -1.2769  0.2064  1.5903
40074SOL     OW23813   5.143   0.608   9.684 -0.4943 -0.3683  0.8352
40074SOL    HW123814   5.179   0.545   9.746  1.1967  2.0321  2.4916
40074SOL    HW223815   5.125   0.686   9.737  4.3291  3.1747 -1.8630
40075SOL     OW23816   2.559  10.129   0.078 -0.9419 -0.0285 -0.8193
40075SOL    HW123817   2.580  10.214   0.117  0.0745 -0.4249 -0.4728
40075SOL    HW223818   2.466  10.118   0.095 -0.8870  0.5984 -0.0255
40076SOL     OW23819   8.174   8.775   6.042 -0.5310  0.3630 -0.4000
40076SOL    HW123820   8.223   8.725   6.107 -0.7157  0.3918 -0.2390
40076SOL    HW223821   8.095   8.724   6.027 -2.1215  1.9332  1.8559
40077SOL     OW23822   2.843  10.182   9.268  0.2312 -0.1894  0.1734
40077SOL    HW123823   2.865  10.208   9.357  2.6478  2.1972 -0.9871
40077SOL    HW223824   2.828  10.264   9.221 -2.7991 -1.4236 -1.3024
40078SOL     OW23825   5.227   2.615   5.307  0.0450  0.5166  0.0951
40078SOL    HW123826   5.278   2.648   5.232 -1.8682  0.4027 -1.3085
40078SOL    HW223827   5.145   2.664   5.304 -0.5353 -0.3120  1.4505
40079SOL     OW23828   7.834   1.938   5.824 -0.2137  0.5935 -0.4322
40079SOL    HW123829   7.881   2.014   5.859  2.6519 -1.0627 -0.3005
40079SOL    HW223830   7.762   1.923   5.885  1.5216  0.9142  1.8343
40080SOL     OW23831   7.195   9.432  10.197  0.2581  0.9211 -0.1358
40080SOL    HW123832   7.154   9.382  10.126  2.0416 -0.3561 -0.3535
40080SOL    HW223833   7.243   9.366  10.247 -1.5911  1.6534  2.8180
40081SOL     OW23834  11.104   2.670   6.315  0.2311 -0.0169  0.3067
40081SOL    HW123835  11.174   2.615   6.351 -1.6904 -1.7903  1.5383
40081SOL    HW223836  11.071   2.719   6.390  0.0381  0.7133 -0.2446
40082SOL     OW23837   9.378   1.460  10.629 -0.4579  0.5342  0.2835
40082SOL    HW123838   9.307   1.407  10.665  1.0843 -1.2217  0.9055
40082SOL    HW223839   9.443   1.396  10.599  2.1178  1.9877  2.2910
40083SOL     OW23840   9.050   4.580  10.141 -0.0992  0.6299 -0.1530
40083SOL    HW123841   9.058   4.498  10.093 -1.9742  0.3498 -0.0671
40083SOL    HW223842   9.077   4.559  10.230  0.7212  0.4564 -0.4353
40084SOL     OW23843   1.859   7.252   1.728  0.3747  0.0935  0.2366
40084SOL    HW123844   1.898   7.338   1.710 -0.8075  0.3783 -1.2227
40084SOL    HW223845   1.929   7.189   1.712  0.7759  0.6898 -0.3915
40085SOL     OW23846   3.304   1.633   6.031  0.3926  0.0184  0.2706
40085SOL    HW123847   3.340   1.694   6.096  0.1725 -0.3696  0.7598
40085SOL    HW223848   3.352   1.552   6.045 -0.2899 -0.3418  0.5646
40086SOL     OW23849   5.897   8.155   0.110  0.0737  0.1468 -0.2455
40086SOL    HW123850   5.971   8.216   0.114 -0.7984  1.1656  1.5041
40086SOL    HW223851   5.929   8.076   0.154  1.0906 -0.6051 -2.2048
40087SOL     OW23852   2.926  10.720   3.305  0.0580 -0.1244  0.3800
40087SOL    HW123853   2.952  10.812   3.307  1.2099 -0.3462 -1.5713
40087SOL    HW223854   2.830  10.723   3.301  0.0591  0.9616  0.6831
40088SOL     OW23855   8.798  10.591   5.017  0.2452 -0.3829  0.0078
40088SOL    HW123856   8.871  10.555   5.067 -0.2539 -1.6790 -0.1521
40088SOL    HW223857   8.832  10.673   4.981  0.9062  0.1442  1.7095
40089SOL     OW23858   5.571   3.770   4.356  0.0211 -0.2673  0.2204
40089SOL    HW123859   5.574   3.696   4.294 -0.7365 -0.2794  0.1801
40089SOL    HW223860   5.497   3.823   4.325  0.2047  0.2024  0.5864
40090SOL     OW23861   1.397   0.960   2.154  0.3506 -0.3570 -0.1133
40090SOL    HW123862   1.370   0.882   2.201 -0.7494 -0.0247 -0.1686
40090SOL    HW223863   1.454   0.928   2.084 -0.5100 -1.1683 -0.4570
40091SOL     OW23864   2.150   8.029   8.143  0.0558 -0.3878  0.3147
40091SOL    HW123865   2.208   7.993   8.077 -0.2358  0.5702 -0.4949
40091SOL    HW223866   2.160   8.124   8.134 -2.6206 -0.1249 -0.8223
40092SOL     OW23867   9.568   4.941   0.639 -0.5642  0.3332 -0.0391
40092SOL    HW123868   9.544   4.942   0.731  0.2308  0.6474  0.1680
40092SOL    HW223869   9.640   5.004   0.631  0.4944 -0.8931 -0.5580
40093SOL     OW23870   1.153   0.087   2.080  0.0947  0.1655  0.0642
40093SOL    HW123871   1.062   0.113   2.096 -0.2381 -1.1561  0.4892
40093SOL    HW223872   1.190   0.074   2.168 -0.1331 -1.9030 -0.0915
40094SOL     OW23873   6.798   9.288   6.039  0.0503  0.2713  0.7815
40094SOL    HW123874   6.739   9.355   6.005  1.3304  1.6637  1.1776
40094SOL    HW223875   6.808   9.226   5.966 -0.7226  0.7988  0.2050
40095SOL     OW23876   2.449  10.398   4.510  0.0109  0.7341 -0.2821
40095SOL    HW123877   2.420  10.489   4.504 -2.0268  0.3194  1.7304
40095SOL    HW223878   2.536  10.404   4.549 -0.6282  1.8261  1.0949
40096SOL     OW23879   4.212   4.555   9.323 -0.0562 -0.5206 -0.0785
40096SOL    HW123880   4.267   4.630   9.348 -1.3295  0.1722  0.7273
40096SOL    HW223881   4.267   4.479   9.342  0.3355  0.1211  1.5634
40097SOL     OW23882  10.678   2.381   8.118  0.2679 -0.4160  0.3270
40097SOL    HW123883  10.650   2.469   8.092  0.2044 -0.8541 -1.2372
40097SOL    HW223884  10.612   2.323   8.080  0.3975 -1.1553  1.2078
40098SOL     OW23885   6.572   2.086   5.771 -0.2082 -0.3194  0.3288
40098SOL    HW123886   6.567   1.993   5.750 -0.6938 -0.2218 -0.0078
40098SOL    HW223887   6.482   2.111   5.790 -0.2908  0.3896 -0.9139
40099SOL     OW23888   6.482   2.519   8.337  0.1407 -0.0010  0.0338
40099SOL    HW123889   6.530   2.458   8.393 -0.1803 -1.0200 -0.7679
40099SOL    HW223890   6.393   2.518   8.373  0.2594  0.4425  0.3589
40100SOL     OW23891   7.783   8.943  10.262  0.3341  0.5835 -0.1919
40100SOL    HW123892   7.778   8.874  10.196  1.2833 -0.9710  1.2678
40100SOL    HW223893   7.782   9.025  10.212 -1.4342 -0.4208 -1.9561
40101SOL     OW23894   5.553   7.170   1.568  0.7909  0.6244  0.1373
40101SOL    HW123895   5.621   7.105   1.550 -0.4188 -0.3663 -1.0251
40101SOL    HW223896   5.578   7.246   1.515  0.2083 -0.2995 -1.5463
40102SOL     OW23897   8.459   0.072  10.259 -0.2381  0.1460 -0.8372
40102SOL    HW123898   8.498  -0.015  10.266  0.0810  0.2854 -0.8985
40102SOL    HW223899   8.420   0.088  10.346  0.8628  0.4947 -0.3959
40103SOL     OW23900   9.417   5.704   5.291  0.2113 -0.4292  0.0778
40103SOL    HW123901   9.403   5.798   5.287 -2.1066 -0.7334  0.0325
40103SOL    HW223902   9.508   5.693   5.263 -0.3624  1.5526 -3.1805
40104SOL     OW23903   8.232   1.296   5.721 -0.4376 -0.5453 -0.1141
40104SOL    HW123904   8.283   1.357   5.774 -0.3371 -0.5994 -0.1487
40104SOL    HW223905   8.159   1.349   5.688  0.0594 -0.2519 -0.7635
40105SOL     OW23906   4.847   6.209  10.272  0.1365  0.7704  0.0881
40105SOL    HW123907   4.824   6.194  10.364 -3.7922 -3.8612 -1.2480
40105SOL    HW223908   4.908   6.138  10.251 -0.6790  0.4599 -1.3052
40106SOL     OW23909   7.787   9.084   0.825 -0.2109  0.0091 -0.4842
40106SOL    HW123910   7.775   9.097   0.731 -2.6807 -0.9600 -0.3703
40106SOL    HW223911   7.706   9.117   0.864  1.7442  2.7620  1.6238
40107SOL     OW23912   9.572   2.385   7.446  0.1471 -0.6072  0.1778
40107SOL    HW123913   9.478   2.371   7.451  0.1781 -0.7051  0.4925
40107SOL    HW223914   9.607   2.348   7.527  0.3647  0.1503  0.4399
40108SOL     OW23915   2.915   7.288   9.032 -0.0111 -0.0847  0.5255
40108SOL    HW123916   2.848   7.267   9.097  0.3833 -0.4444  0.8211
40108SOL    HW223917   2.898   7.380   9.009  0.0434  0.1426  1.3708
40109SOL     OW23918   5.220   2.180   1.601 -0.2788 -0.2332  0.6345
40109SOL    HW123919   5.184   2.257   1.557  0.6519 -1.5497 -2.7473
40109SOL    HW223920   5.289   2.215   1.658  0.2241  1.4907 -0.9242
40110SOL     OW23921   5.690   5.400   2.969  0.4857  0.1284  0.1271
40110SOL    HW123922   5.700   5.314   3.009  1.1317 -0.2928 -0.9042
40110SOL    HW223923   5.622   5.389   2.903  1.2499  0.1375 -0.6868
40111SOL     OW23924   4.164   4.928  10.355  0.4400 -0.7146 -0.1935
40111SOL    HW123925   4.190   4.995  10.418 -0.8997 -0.8473  0.5320
40111SOL    HW223926   4.068   4.931  10.355  0.2854 -3.4521  0.7394
40112SOL     OW23927   0.567   1.959   3.552  0.9535  0.1160 -0.9811
40112SOL    HW123928   0.628   2.026   3.583  0.5590  0.6201 -1.2787
40112SOL    HW223929   0.547   1.907   3.630  0.4973  0.9510 -0.5317
40113SOL     OW23930   7.778   0.987   9.016 -0.0279  0.1153 -0.3851
40113SOL    HW123931   7.775   0.910   9.074 -0.5190 -0.4390 -1.1257
40113SOL    HW223932   7.833   1.050   9.063 -0.5782 -0.2359  0.7836
40114SOL     OW23933   7.176   7.967  10.191  0.0318 -0.0895  0.1612
40114SOL    HW123934   7.209   7.877  10.191  0.7563 -0.0779  4.8034
40114SOL    HW223935   7.081   7.958  10.203 -0.0846 -0.1798 -0.7569
40115SOL     OW23936   6.418   4.872   7.397  0.1008 -0.1505 -0.0518
40115SOL    HW123937   6.417   4.779   7.374 -0.4689 -0.0308 -0.5605
40115SOL    HW223938   6.510   4.893   7.412  0.2149 -0.8338  0.2209
40116SOL     OW23939   1.202  10.944  10.180 -0.1158  0.1433 -0.5266
40116SOL    HW123940   1.204  10.926  10.086  0.9623  3.2122 -1.2169
40116SOL    HW223941   1.113  10.976  10.196 -0.2460 -0.2128 -0.5314
40117SOL     OW23942   2.728   3.045   1.731 -0.4332 -0.0934 -0.2726
40117SOL    HW123943   2.634   3.059   1.743 -0.2474 -0.8524  2.8262
40117SOL    HW223944   2.761   3.128   1.697 -1.7731  1.3275  1.7390
40118SOL     OW23945   6.706   3.711   8.668 -0.5393 -0.4288  0.5323
40118SOL    HW123946   6.750   3.712   8.754 -1.9199 -0.6990  1.2638
40118SOL    HW223947   6.649   3.788   8.670 -0.3669 -0.2725 -0.2770
40119SOL     OW23948   4.996   8.217  10.114  0.5754 -0.2758  0.0588
40119SOL    HW123949   4.939   8.144  10.088 -1.8757  2.1645 -2.1117
40119SOL    HW223950   4.957   8.249  10.195  0.5135 -0.2557  0.0212
40120SOL     OW23951   4.739   4.756   7.809 -0.2722 -0.0081 -0.5236
40120SOL    HW123952   4.673   4.716   7.866  1.1318  1.9989  2.8053
40120SOL    HW223953   4.822   4.717   7.837  0.3910  0.3275 -1.9291
40121SOL     OW23954   1.499  10.125   9.727 -0.3887 -0.2534 -0.5235
40121SOL    HW123955   1.405  10.131   9.708 -0.5972 -3.6744 -1.1670
40121SOL    HW223956   1.542  10.162   9.650 -1.1926  0.3324 -0.7062
40122SOL     OW23957   3.373   5.684   6.226  0.3318 -0.1510  0.1805
40122SOL    HW123958   3.290   5.721   6.255 -0.6077 -2.5625  0.8303
40122SOL    HW223959   3.351   5.637   6.145  1.3950  0.3796 -0.4414
40123SOL     OW23960  10.222   4.490   0.398  0.0801 -0.1402 -0.0117
40123SOL    HW123961  10.218   4.453   0.486  0.0321 -0.0878  0.0078
40123SOL    HW223962  10.201   4.583   0.410 -2.1784 -0.5659 -0.3789
40124SOL     OW23963   4.418   4.678   0.446 -0.3743  0.0030 -0.2111
40124SOL    HW123964   4.469   4.599   0.428 -1.0971 -0.7218  0.8009
40124SOL    HW223965   4.464   4.720   0.519  0.6368  1.1313 -1.4619
40125SOL     OW23966   3.721   3.697   4.111  0.3130  0.0937 -0.1182
40125SOL    HW123967   3.797   3.652   4.147  0.9849  0.2193 -1.3280
40125SOL    HW223968   3.658   3.627   4.094  0.0951  0.0002  0.9757
40126SOL     OW23969  10.165   5.522   0.211 -0.4672  0.0724  0.1838
40126SOL    HW123970  10.214   5.500   0.290 -0.6677  2.4404  1.0287
40126SOL    HW223971  10.226   5.503   0.139  1.0317  1.1816  1.1174
40127SOL     OW23972   8.082   2.892   9.520 -0.0055  0.2802 -0.2548
40127SOL    HW123973   8.127   2.854   9.595 -0.1661  1.9808  0.7474
40127SOL    HW223974   8.004   2.934   9.557 -0.6575  0.2410 -1.5203
40128SOL     OW23975   1.356   7.397   9.489  0.4778  0.5357  0.0843
40128SOL    HW123976   1.417   7.427   9.557 -0.4060 -2.6876  2.5848
40128SOL    HW223977   1.403   7.330   9.442 -0.3037 -0.2949  0.4500
40129SOL     OW23978   2.484   1.945   1.562  0.5653 -0.4106  0.5556
40129SOL    HW123979   2.452   1.939   1.472  0.1455  1.4812  0.5359
40129SOL    HW223980   2.561   1.888   1.564  0.6023 -0.4609 -1.0123
40130SOL     OW23981   2.760  10.795  11.061 -0.3646  0.2365  0.2805
40130SOL    HW123982   2.817  10.871  11.076  1.1815 -0.5444 -1.1942
40130SOL    HW223983   2.804  10.746  10.991 -1.9818 -1.3502  0.2979
40131SOL     OW23984   1.109   2.116   2.146 -0.3542  1.3198 -0.6275
40131SOL    HW123985   1.080   2.064   2.071 -0.2196 -0.2110  0.3437
40131SOL    HW223986   1.044   2.186   2.153 -2.8001 -0.8689  0.2685
40132SOL     OW23987   3.291   3.702  10.918  0.5136  0.2883  0.0293
40132SOL    HW123988   3.263   3.651  10.995 -0.5710 -0.5715 -0.9066
40132SOL    HW223989   3.229   3.774  10.913  0.7606  0.5091  0.1171
40133SOL     OW23990   8.995   6.441   7.329 -0.5708  0.2293 -0.3387
40133SOL    HW123991   9.082   6.406   7.310  0.3663  1.3596  1.5609
40133SOL    HW223992   9.011   6.525   7.372 -2.6583  1.2029 -1.2693
40134SOL     OW23993   8.990   3.337   4.835  0.0440  0.5913 -0.4931
40134SOL    HW123994   9.065   3.377   4.793 -0.1692  0.6217 -0.8544
40134SOL    HW223995   9.009   3.243   4.835  0.7145  0.7123  0.6992
40135SOL     OW23996   5.959  10.377   6.431  0.6116  0.1237 -0.2367
40135SOL    HW123997   5.918  10.290   6.429 -0.2656  0.5377 -0.5022
40135SOL    HW223998   5.985  10.389   6.522  0.1367 -0.1459 -0.0647
40136SOL     OW23999  10.186   0.293   3.048 -0.2924  0.0301  0.7106
40136SOL    HW124000  10.237   0.266   2.971  2.1962  0.4055  2.1164
40136SOL    HW224001  10.105   0.328   3.011  0.6060 -0.2081 -1.7138
40137SOL     OW24002   6.463   0.523  10.504 -0.2314 -0.1788  0.1056
40137SOL    HW124003   6.548   0.559  10.478 -0.2655 -0.1706  0.0041
40137SOL    HW224004   6.402   0.558  10.440 -0.2386 -0.5566 -0.0963
40138SOL     OW24005   3.334  11.061   3.655  0.2247 -0.5207  0.4469
40138SOL    HW124006   3.423  11.025   3.650  0.4141  0.0250 -2.6150
40138SOL    HW224007   3.348  11.156   3.658 -0.1031 -0.2489 -2.9330
40139SOL     OW24008   9.428   0.063   0.938  0.4974 -0.0914  0.2583
40139SOL    HW124009   9.420   0.142   0.993  0.1214 -1.1218  1.7526
40139SOL    HW224010   9.339   0.049   0.905  0.8018  0.7463 -0.9719
40140SOL     OW24011   6.455   1.628   7.529  0.0175  0.1819  0.2314
40140SOL    HW124012   6.435   1.536   7.510  0.9487  0.0560 -0.2163
40140SOL    HW224013   6.430   1.640   7.621 -1.7543 -0.0290 -0.1948
40141SOL     OW24014   6.187   6.817   7.124  0.1993 -0.1792 -0.4689
40141SOL    HW124015   6.157   6.905   7.105  0.9180  0.0552 -0.5426
40141SOL    HW224016   6.281   6.818   7.104 -0.2500 -1.7291 -3.2946
40142SOL     OW24017   5.801   2.289   4.825 -0.5255 -0.2310 -0.2238
40142SOL    HW124018   5.868   2.233   4.785 -0.3280  0.9343 -1.5988
40142SOL    HW224019   5.742   2.228   4.869  0.2017 -1.4421 -0.8804
40143SOL     OW24020  10.056   1.405   5.736  0.0051 -0.0277  0.0069
40143SOL    HW124021  10.093   1.436   5.653 -0.6560 -1.1074 -0.7278
40143SOL    HW224022   9.962   1.418   5.726 -0.5847 -3.8891 -1.1947
40144SOL     OW24023   3.543   1.111   0.665 -0.2513 -0.2594 -0.2423
40144SOL    HW124024   3.591   1.194   0.658 -2.6580  1.3044  0.4103
40144SOL    HW224025   3.533   1.081   0.575  0.3756  0.3204 -0.5118
40145SOL     OW24026   6.225   3.257   9.254 -0.3234 -0.4472  0.3749
40145SOL    HW124027   6.270   3.338   9.233  1.0548 -1.6839 -1.8914
40145SOL    HW224028   6.199   3.221   9.169 -1.4740 -2.0530  1.3493
40146SOL     OW24029   2.942   8.181   0.110  0.0175  0.2098  0.1274
40146SOL    HW124030   3.003   8.198   0.038 -0.0737  0.4598  0.1101
40146SOL    HW224031   2.880   8.117   0.075  1.2791 -1.3945  0.6750
40147SOL     OW24032   4.426   2.694   1.578 -0.7600 -0.5349 -0.3581
40147SOL    HW124033   4.381   2.610   1.582 -0.2908 -0.7718  0.1037
40147SOL    HW224034   4.361   2.758   1.606  0.1756 -1.2796  4.3528
40148SOL     OW24035   6.510   3.559   3.119  0.4154 -0.0061  0.3769
40148SOL    HW124036   6.424   3.592   3.091  0.5337 -1.3158 -1.8177
40148SOL    HW224037   6.492   3.510   3.199 -1.0859 -1.0394 -0.5352
40149SOL     OW24038   1.654   1.438   6.126 -0.6622 -0.0638 -0.0018
40149SOL    HW124039   1.568   1.427   6.167 -0.1231  1.7012  1.7285
40149SOL    HW224040   1.639   1.502   6.056 -0.8044  0.0097  0.0969
40150SOL     OW24041   8.435   4.784   5.834  0.7950  0.5604 -0.2034
40150SOL    HW124042   8.370   4.750   5.897  0.2179  0.0366 -1.0529
40150SOL    HW224043   8.517   4.741   5.859  0.3310 -0.5367 -0.4964
40151SOL     OW24044   7.091   2.087   8.423 -0.6080  0.2613 -0.7498
40151SOL    HW124045   7.155   2.033   8.469 -1.0776  0.8907  0.6907
40151SOL    HW224046   7.100   2.062   8.331  0.7293 -0.6477 -0.3938
40152SOL     OW24047   0.853   9.764   7.108  0.1778  0.2115 -0.0341
40152SOL    HW124048   0.766   9.776   7.145 -0.4702 -0.5162 -1.2574
40152SOL    HW224049   0.859   9.831   7.040  0.7734  0.5611  0.3500
40153SOL     OW24050   6.926  10.360   9.525  0.1258 -0.6003 -0.1529
40153SOL    HW124051   7.015  10.356   9.560 -0.2809  2.0729  1.4962
40153SOL    HW224052   6.901  10.452   9.534 -2.2113 -0.9313 -2.1914
40154SOL     OW24053   0.305   4.859   2.179 -0.1174 -0.2870  0.1814
40154SOL    HW124054   0.242   4.930   2.189  0.3461  0.2331 -0.4863
40154SOL    HW224055   0.293   4.828   2.089  0.9416  0.1869 -0.1420
40155SOL     OW24056  10.497   6.266   2.921  0.0742 -0.5407  0.0604
40155SOL    HW124057  10.542   6.190   2.958  0.4979 -0.1249  0.4084
40155SOL    HW224058  10.497   6.331   2.992 -0.1402 -0.1541 -0.2881
40156SOL     OW24059   4.149   2.790   6.861  0.1041 -0.2165 -0.3107
40156SOL    HW124060   4.064   2.801   6.818 -0.2818 -1.7287  0.0048
40156SOL    HW224061   4.128   2.753   6.946  1.1101 -1.3724 -0.5411
40157SOL     OW24062   9.433  10.711   7.922 -0.0756 -0.1156  0.2664
40157SOL    HW124063   9.366  10.728   7.855  1.4745  2.5215 -0.7588
40157SOL    HW224064   9.516  10.716   7.875  1.1086  2.3338  2.3789
40158SOL     OW24065   7.309   7.985   8.655 -0.0864 -0.2029  0.3933
40158SOL    HW124066   7.261   8.006   8.735 -0.3697  1.7776 -0.2574
40158SOL    HW224067   7.397   8.020   8.670  0.0910 -0.5350  0.1395
40159SOL     OW24068  10.465   8.663   4.577  0.0473  0.1576  0.6135
40159SOL    HW124069  10.526   8.613   4.631 -0.2039 -0.3785  0.4112
40159SOL    HW224070  10.395   8.689   4.637 -0.6630 -1.1549  0.4105
40160SOL     OW24071   2.336   5.801   2.813 -0.5287  0.3501  0.0156
40160SOL    HW124072   2.351   5.894   2.795 -0.2116  0.2829 -0.0826
40160SOL    HW224073   2.423   5.766   2.833 -0.5475 -0.0494 -0.5467
40161SOL     OW24074   4.256  11.031   5.872  0.2394  0.2127  0.0656
40161SOL    HW124075   4.213  11.047   5.788  0.5705 -0.1729 -0.1835
40161SOL    HW224076   4.272  11.118   5.908 -1.3672  0.3626  0.4938
40162SOL     OW24077   6.829  11.012   0.201  0.3402  0.0755 -0.0773
40162SOL    HW124078   6.860  11.067   0.129  0.6250 -1.0921 -0.8720
40162SOL    HW224079   6.747  11.053   0.229  2.1927  2.9602  1.7216
40163SOL     OW24080   4.803   4.261   6.923 -0.1359 -0.0681  0.2222
40163SOL    HW124081   4.898   4.267   6.937 -0.0386 -0.7572 -0.0824
40163SOL    HW224082   4.765   4.309   6.996  0.4474  0.0271  0.4735
40164SOL     OW24083   6.029   0.310  10.669 -0.1438  0.1958  0.2038
40164SOL    HW124084   6.041   0.310  10.574  0.0015  0.9660  0.2164
40164SOL    HW224085   5.995   0.223  10.689  1.1554 -0.4767 -0.3755
40165SOL     OW24086   1.348   4.930   0.468  0.2806  0.3934 -0.1210
40165SOL    HW124087   1.263   4.892   0.449  0.6855 -0.5943 -0.0451
40165SOL    HW224088   1.374   4.975   0.388 -0.3443  0.7722 -0.1112
40166SOL     OW24089   9.507   5.828   3.640  0.5521  0.2987 -0.2189
40166SOL    HW124090   9.471   5.873   3.716 -1.0912 -0.0390 -0.7469
40166SOL    HW224091   9.535   5.743   3.673 -3.4679 -1.3522 -0.4708
40167SOL     OW24092   2.393   1.273   1.338  0.6720  0.1065  0.2847
40167SOL    HW124093   2.378   1.206   1.271 -1.7381 -0.7291  1.5379
40167SOL    HW224094   2.486   1.267   1.357  1.0067 -1.0709 -1.4865
40168SOL     OW24095   6.901   1.024   6.282 -0.5493  0.2497  0.5483
40168SOL    HW124096   6.930   1.074   6.205  0.9082 -0.3913  0.6462
40168SOL    HW224097   6.844   0.956   6.246  0.1741 -0.0839  0.0181
40169SOL     OW24098   5.768   8.306   1.139  0.1644  0.2811  0.1120
40169SOL    HW124099   5.858   8.291   1.110  0.3328 -0.1098  0.8119
40169SOL    HW224100   5.733   8.218   1.157  0.2340  0.5089  1.5372
40170SOL     OW24101   3.108   7.271   1.445 -0.4886 -0.1951  0.2862
40170SOL    HW124102   3.166   7.289   1.519 -0.6734 -1.2680  0.7101
40170SOL    HW224103   3.118   7.178   1.429 -0.7969 -0.0566 -0.7629
40171SOL     OW24104  10.102   4.750   7.772  0.2316 -0.2160 -0.0696
40171SOL    HW124105  10.186   4.760   7.817  0.3099 -3.3794  0.7078
40171SOL    HW224106  10.126   4.740   7.679  0.4449  1.4778 -0.2309
40172SOL     OW24107  10.902   6.100   7.707  0.5089 -0.4884 -0.6308
40172SOL    HW124108  10.967   6.085   7.776 -1.4177  0.0314  1.3970
40172SOL    HW224109  10.952   6.090   7.626  2.8766 -1.1915  0.7897
40173SOL     OW24110   5.656   3.279   3.669  0.0228 -0.1888  0.2379
40173SOL    HW124111   5.586   3.213   3.666  1.2731 -1.5027 -1.5632
40173SOL    HW224112   5.700   3.271   3.585  1.1467  1.9730  0.5662
40174SOL     OW24113   0.954   7.789   4.470 -0.1120 -0.2839  0.7643
40174SOL    HW124114   1.002   7.790   4.553  0.5805 -1.9155  0.4284
40174SOL    HW224115   0.950   7.881   4.444 -1.3141  0.4348  3.1052
40175SOL     OW24116   6.880  10.612   7.278 -0.2769 -0.2633 -0.0341
40175SOL    HW124117   6.944  10.611   7.207  0.2435 -0.6042  0.4307
40175SOL    HW224118   6.899  10.533   7.329  1.4746  1.5479  2.3182
40176SOL     OW24119   6.428   8.758   2.794 -0.4859 -0.2442 -0.1952
40176SOL    HW124120   6.494   8.756   2.725  1.1143  0.6423  1.2572
40176SOL    HW224121   6.405   8.666   2.807 -0.3669 -0.4701 -1.4750
40177SOL     OW24122  10.985   9.893   7.879 -0.4363  0.3903  0.1317
40177SOL    HW124123  11.079   9.896   7.898 -0.8139  0.3005  2.2048
40177SOL    HW224124  10.956   9.983   7.887 -0.4812  0.4752 -0.8796
40178SOL     OW24125   6.084   7.238   4.695 -0.4140 -0.4828  0.0361
40178SOL    HW124126   6.075   7.158   4.747  0.0017 -1.7061 -1.6905
40178SOL    HW224127   6.164   7.280   4.728  0.0656 -1.4456  0.1160
40179SOL     OW24128   9.779   2.329   4.495 -0.1788  0.1124  0.0945
40179SOL    HW124129   9.740   2.416   4.496 -0.4231  0.0379 -0.8746
40179SOL    HW224130   9.764   2.294   4.583 -1.2883  0.5365  0.0970
40180SOL     OW24131   4.744   8.657   8.779 -0.3654  0.2109  0.4460
40180SOL    HW124132   4.704   8.741   8.802 -1.0655 -0.3350  1.2862
40180SOL    HW224133   4.675   8.592   8.796 -0.0142 -0.4911 -0.6869
40181SOL     OW24134   7.589  10.040  10.519 -0.5159 -0.3054 -0.3457
40181SOL    HW124135   7.641  10.016  10.443  0.7807  0.9987  0.0610
40181SOL    HW224136   7.639  10.007  10.594 -0.5463  0.4855  0.0347
40182SOL     OW24137   4.974   2.511   2.951  0.1932  0.0114 -0.3358
40182SOL    HW124138   5.043   2.575   2.936 -0.1425  0.4683  0.0112
40182SOL    HW224139   5.014   2.427   2.931  0.4753  0.3760 -1.3322
40183SOL     OW24140   4.595   1.320   0.439 -0.3724 -0.3822  0.4934
40183SOL    HW124141   4.545   1.399   0.459 -1.0014 -0.3111 -1.2042
40183SOL    HW224142   4.681   1.351   0.410 -0.6438 -0.2882 -0.2438
40184SOL     OW24143   8.144   8.175   9.266 -0.5614 -0.5122  0.0415
40184SOL    HW124144   8.093   8.102   9.300 -1.2014 -0.6236 -1.1252
40184SOL    HW224145   8.184   8.142   9.185 -0.3314  0.2285 -0.1569
40185SOL     OW24146   1.470   7.175   1.005  0.0312 -0.6036  0.0822
40185SOL    HW124147   1.410   7.249   1.003 -0.0412 -0.6726 -0.6969
40185SOL    HW224148   1.511   7.175   0.918  0.2815 -1.2685  0.1928
40186SOL     OW24149   5.448   2.199   9.672  0.1907 -0.0076  0.2235
40186SOL    HW124150   5.386   2.269   9.688  0.2465 -0.4975  2.9659
40186SOL    HW224151   5.496   2.189   9.754  1.2084 -2.2613 -0.5539
40187SOL     OW24152   3.328  10.595   6.285  0.2594  0.5333 -0.0013
40187SOL    HW124153   3.414  10.556   6.272  1.1719  2.4185 -0.0411
40187SOL    HW224154   3.266  10.527   6.259  1.7308 -0.7649 -0.2630
40188SOL     OW24155   2.657   3.498   4.927  0.2932 -0.0872 -0.1507
40188SOL    HW124156   2.584   3.456   4.972  1.8711  0.0093  2.7619
40188SOL    HW224157   2.622   3.582   4.898 -0.7908 -0.0605  1.1379
40189SOL     OW24158  10.101   1.529   2.450 -0.7504  0.0982 -0.3859
40189SOL    HW124159  10.194   1.534   2.430 -0.3012  0.5410  1.6222
40189SOL    HW224160  10.078   1.437   2.435  0.3383 -0.3200  0.4072
40190SOL     OW24161   0.159   9.551   1.134  0.3180 -0.4465  0.0404
40190SOL    HW124162   0.087   9.522   1.188  1.0618 -0.8587  0.8261
40190SOL    HW224163   0.121   9.620   1.079 -0.7000 -0.7656  0.3224
40191SOL     OW24164   7.937   0.741   4.998  0.5969 -0.1931  0.5600
40191SOL    HW124165   7.869   0.767   5.061  1.1578  0.0989  1.0557
40191SOL    HW224166   8.011   0.798   5.018  0.9706 -0.4663 -0.0177
40192SOL     OW24167   8.274   5.502   3.353 -0.3369 -0.2256 -0.0940
40192SOL    HW124168   8.183   5.477   3.342 -0.9921  1.5575  0.9300
40192SOL    HW224169   8.277   5.595   3.330  1.1296 -0.1287  0.3722
40193SOL     OW24170   4.251   8.780   0.232  0.3660  0.0409  0.1171
40193SOL    HW124171   4.207   8.852   0.277  2.3846  1.6339 -0.3069
40193SOL    HW224172   4.341   8.810   0.221  0.3806 -0.9116 -3.5938
40194SOL     OW24173   4.910   4.355   0.115 -0.4501 -0.1681 -0.0024
40194SOL    HW124174   5.005   4.344   0.118 -0.0411  2.4127 -1.1925
40194SOL    HW224175   4.879   4.280   0.063  1.0805 -0.3353 -0.7201
40195SOL     OW24176   7.959   6.679   5.111 -0.0793 -0.1099  0.0089
40195SOL    HW124177   7.943   6.611   5.176  0.5612 -0.2174  0.0663
40195SOL    HW224178   8.034   6.728   5.145 -1.1968  1.3088  0.4822
40196SOL     OW24179   3.918   5.113   2.937  0.2642  0.0648  0.2160
40196SOL    HW124180   3.920   5.101   3.032 -0.9040 -0.7998  0.1407
40196SOL    HW224181   3.877   5.034   2.903  2.9855 -0.8543 -1.2410
40197SOL     OW24182   7.626   9.289   3.388  0.4142  0.4481 -0.3513
40197SOL    HW124183   7.548   9.335   3.355  0.3991  1.1340  0.5995
40197SOL    HW224184   7.700   9.338   3.352  0.4177 -0.1617 -1.1971
40198SOL     OW24185   6.361   1.435   8.040 -0.3272 -0.6368 -0.1211
40198SOL    HW124186   6.413   1.440   7.959 -2.0070  1.1449 -1.1703
40198SOL    HW224187   6.415   1.479   8.106 -0.0933  0.4561 -0.9995
40199SOL     OW24188   1.144   6.655   5.465  0.0411 -0.1382 -0.4717
40199SOL    HW124189   1.178   6.666   5.554 -0.9201  1.7478 -0.2829
40199SOL    HW224190   1.216   6.684   5.409  0.0697  0.2813 -0.2256
40200SOL     OW24191  10.001  10.081   3.506 -0.4309 -0.6200  0.1583
40200SOL    HW124192   9.914  10.083   3.545 -1.8688  0.2666 -2.8448
40200SOL    HW224193   9.988  10.044   3.419  2.8144 -3.9110  0.7866
40201SOL     OW24194   3.271   1.694   3.105  0.4837  0.1196  0.5596
40201SOL    HW124195   3.244   1.775   3.149  1.9700 -0.9618  3.7793
40201SOL    HW224196   3.363   1.709   3.082  0.8018 -0.6310  1.2795
40202SOL     OW24197   1.872   7.966   2.949 -0.1362 -0.6162  0.0432
40202SOL    HW124198   1.847   7.897   3.010  1.4985 -1.3656 -0.1016
40202SOL    HW224199   1.923   8.027   3.002 -0.2631 -0.3172 -0.1768
40203SOL     OW24200   6.281  10.394   1.280  0.1521  0.1850  0.4339
40203SOL    HW124201   6.268  10.299   1.286 -0.1757  0.0163 -2.0186
40203SOL    HW224202   6.212  10.430   1.335 -0.4836 -0.9912  0.4577
40204SOL     OW24203   5.579   0.420   2.442  0.5177  0.0194 -0.7470
40204SOL    HW124204   5.603   0.440   2.352 -2.2919  2.0201 -1.1769
40204SOL    HW224205   5.616   0.493   2.493  0.8383 -0.3190 -0.4928
40205SOL     OW24206   7.284   0.214   3.946  0.1576 -0.2599  0.2436
40205SOL    HW124207   7.239   0.189   4.027  1.1598  0.5399  1.0731
40205SOL    HW224208   7.307   0.306   3.959  0.1085 -0.0507 -1.0692
40206SOL     OW24209   9.759   5.141   6.464 -0.0921 -0.2531  0.4205
40206SOL    HW124210   9.835   5.149   6.521  1.0855  1.5314 -1.2306
40206SOL    HW224211   9.710   5.223   6.478 -0.3563 -0.2776 -0.3058
40207SOL     OW24212   9.650   2.110   0.017 -0.2852  0.2443 -0.1461
40207SOL    HW124213   9.660   2.099  -0.077 -1.8523 -0.7331 -0.2271
40207SOL    HW224214   9.590   2.184   0.027 -0.2822  0.2186  0.0734
40208SOL     OW24215   0.239   7.330   9.607 -0.1097  0.2344  1.0841
40208SOL    HW124216   0.321   7.296   9.643  1.0032  1.4634 -0.1604
40208SOL    HW224217   0.258   7.422   9.586 -1.5032  0.2918 -0.1116
40209SOL     OW24218   9.945   7.950   8.846 -0.2849  0.4274 -0.1034
40209SOL    HW124219   9.880   7.996   8.900 -0.3700  2.4169 -1.7733
40209SOL    HW224220   9.992   8.020   8.802  1.5661 -1.0637 -0.5923
40210SOL     OW24221   0.366   8.530   3.798  0.3996 -0.1612 -0.5768
40210SOL    HW124222   0.346   8.455   3.742  0.3976 -1.3755  0.9794
40210SOL    HW224223   0.419   8.588   3.743  2.2470 -2.3006 -1.2305
40211SOL     OW24224   1.890   0.557   8.353 -0.5110 -0.1053 -0.0504
40211SOL    HW124225   1.910   0.507   8.273 -1.6146 -0.8809  0.1407
40211SOL    HW224226   1.847   0.636   8.321 -1.7034 -0.8003 -0.1953
40212SOL     OW24227  10.086   0.057   3.946  0.4689  0.8561  0.1146
40212SOL    HW124228  10.098   0.141   3.901  3.0000 -0.2467 -1.5208
40212SOL    HW224229  10.175   0.028   3.966 -0.3491 -1.3430  0.8181
40213SOL     OW24230   6.155   6.315   4.355  0.0973 -0.0696 -0.5338
40213SOL    HW124231   6.092   6.334   4.285  0.4331  1.1344 -0.5247
40213SOL    HW224232   6.196   6.233   4.327 -0.0273  0.2007 -1.5685
40214SOL     OW24233   3.329   8.671   2.886  0.2848 -0.1172  0.3645
40214SOL    HW124234   3.343   8.682   2.792 -0.3782  0.3194  0.3126
40214SOL    HW224235   3.239   8.639   2.894  0.5747 -0.8449  0.8130
40215SOL     OW24236   7.812   3.193   2.813  0.3811 -0.0032 -0.9845
40215SOL    HW124237   7.812   3.289   2.811  1.1478  0.0080 -0.7001
40215SOL    HW224238   7.734   3.170   2.864  0.6233  0.4914 -0.3788
40216SOL     OW24239   8.325   3.336   2.970 -0.1849 -0.0615 -0.2251
40216SOL    HW124240   8.242   3.368   3.006 -0.5286 -1.8378  0.6598
40216SOL    HW224241   8.306   3.322   2.877 -1.2531 -1.4769  0.1637
40217SOL     OW24242   4.301   4.830   7.055  0.0619 -0.0812  0.0409
40217SOL    HW124243   4.294   4.807   7.147  0.5610  1.3871  0.4613
40217SOL    HW224244   4.210   4.845   7.027 -0.0724 -0.3196  0.3418
40218SOL     OW24245   1.603   3.074   2.956 -0.3280  0.1463  0.7264
40218SOL    HW124246   1.571   2.984   2.944  1.0263 -0.1535 -0.9493
40218SOL    HW224247   1.665   3.087   2.885 -1.5410  2.9369  0.0657
40219SOL     OW24248   7.520   4.872   0.526 -0.8309 -0.3220 -0.4834
40219SOL    HW124249   7.557   4.804   0.469 -2.3932 -0.5567 -1.2767
40219SOL    HW224250   7.466   4.823   0.588 -2.1430  0.2016 -1.1954
40220SOL     OW24251  10.550   2.051   0.662  0.3389  0.4760 -0.1666
40220SOL    HW124252  10.462   2.054   0.623  0.3838 -3.6629 -1.1012
40220SOL    HW224253  10.534   2.030   0.754  0.4015  3.0673  0.5130
40221SOL     OW24254   8.910   6.002   6.783  0.3989 -0.7752  0.2810
40221SOL    HW124255   8.841   5.968   6.726  0.5976 -0.9419  0.1335
40221SOL    HW224256   8.865   6.051   6.850  0.2049  0.1991 -0.5438
40222SOL     OW24257   6.107   3.919   9.523 -0.3151 -0.6574  0.0901
40222SOL    HW124258   6.096   3.986   9.591 -1.2472 -0.9534  0.2403
40222SOL    HW224259   6.080   3.963   9.443  0.8463 -0.2878 -0.1197
40223SOL     OW24260   7.610  10.421   0.926 -1.0567  1.1039  0.4707
40223SOL    HW124261   7.562  10.352   0.879 -1.3536  2.1125 -0.7769
40223SOL    HW224262   7.547  10.494   0.932 -0.8988  1.1417  2.1466
40224SOL     OW24263   8.372   9.878   1.689 -0.0564  0.0606 -0.0171
40224SOL    HW124264   8.428   9.940   1.735  0.0873 -0.1433  0.0837
40224SOL    HW224265   8.356   9.918   1.604  2.5729 -1.1456 -1.1732
40225SOL     OW24266   8.877   6.097   1.993  0.4783 -0.2226 -0.7113
40225SOL    HW124267   8.840   6.046   1.921  0.6571  0.2441 -1.1388
40225SOL    HW224268   8.838   6.184   1.983  0.3410 -0.2155 -0.1154
40226SOL     OW24269   7.107   2.544   3.912  0.2630 -0.1527 -0.3601
40226SOL    HW124270   7.049   2.612   3.945 -0.1143 -0.9726  0.7370
40226SOL    HW224271   7.188   2.590   3.891 -0.2237  0.7418 -0.3212
40227SOL     OW24272   0.378  10.893   3.681  0.0181  0.2891 -0.4420
40227SOL    HW124273   0.385  10.977   3.728 -0.7267  0.7207 -1.0857
40227SOL    HW224274   0.451  10.894   3.620  0.8517 -0.1699  0.5183
40228SOL     OW24275   3.453   5.818   9.282  0.1816 -0.4988  0.0087
40228SOL    HW124276   3.365   5.802   9.316 -0.3050 -0.6162 -1.2627
40228SOL    HW224277   3.511   5.800   9.356 -0.8568 -0.5265  0.8270
40229SOL     OW24278   5.057   6.791  10.815 -0.6846 -0.7299  0.2028
40229SOL    HW124279   5.131   6.740  10.781 -0.1063 -0.4745  1.0329
40229SOL    HW224280   5.095   6.875  10.840 -1.4622 -0.2133 -0.3037
40230SOL     OW24281   1.091   6.244  10.839  0.3132  0.2560  0.3247
40230SOL    HW124282   1.040   6.315  10.800  0.3885  0.2153  0.1533
40230SOL    HW224283   1.123   6.281  10.922  0.3785  0.4332  0.2204
40231SOL     OW24284   8.458   3.025   5.782 -0.1204  0.1473 -0.5358
40231SOL    HW124285   8.516   3.052   5.711  0.0396  0.7517 -0.1838
40231SOL    HW224286   8.500   2.948   5.820 -0.1664 -0.1317 -1.0442
40232SOL     OW24287   3.436   0.962  11.064 -0.1894  0.3483 -0.0082
40232SOL    HW124288   3.378   1.009  11.004  0.2423  0.6091 -0.2257
40232SOL    HW224289   3.497   1.028  11.096  0.1172  0.0372  0.0609
40233SOL     OW24290   7.738   9.714  10.354 -0.0480  0.3216 -0.1508
40233SOL    HW124291   7.752   9.806  10.332 -0.3417  0.4031 -0.0017
40233SOL    HW224292   7.780   9.666  10.283  1.5686  0.5424  0.6188
40234SOL     OW24293   6.390   9.640   6.018 -0.2863  0.5787  0.3094
40234SOL    HW124294   6.337   9.625   5.939  0.5300 -0.6671 -0.0370
40234SOL    HW224295   6.374   9.731   6.040 -2.2310  0.3816 -0.0281
40235SOL     OW24296   8.442   0.489   0.904 -0.4803 -0.0588  0.1044
40235SOL    HW124297   8.429   0.555   0.972 -0.3003 -0.4916  0.5638
40235SOL    HW224298   8.475   0.538   0.829  0.8163  0.2187  0.8300
40236SOL     OW24299   4.261   6.727   8.133  0.2313 -0.2117 -0.0150
40236SOL    HW124300   4.284   6.749   8.223  0.0815 -1.0954  0.2500
40236SOL    HW224301   4.297   6.639   8.120  1.1446  0.3039 -1.1576
40237SOL     OW24302   6.812   1.454   8.810  0.1849  0.0339 -0.1086
40237SOL    HW124303   6.800   1.359   8.806 -0.9670  0.1370  0.5573
40237SOL    HW224304   6.770   1.487   8.731  0.1504  0.0304 -0.0917
40238SOL     OW24305   9.423   2.213   5.695  0.0733  0.3779  0.5705
40238SOL    HW124306   9.354   2.278   5.704 -0.9757 -0.6220  0.0818
40238SOL    HW224307   9.438   2.181   5.784 -2.2473 -1.4823  0.4031
40239SOL     OW24308   4.484   8.491   5.669  0.4762  0.9725 -0.4134
40239SOL    HW124309   4.465   8.573   5.714  0.2603  1.4873 -1.4280
40239SOL    HW224310   4.559   8.511   5.613  0.9651  0.2427 -0.0327
40240SOL     OW24311   9.654   0.385   5.725  0.0274 -0.5995 -0.1729
40240SOL    HW124312   9.700   0.367   5.643  0.7970  2.4812 -0.5310
40240SOL    HW224313   9.723   0.404   5.788 -0.5966  1.0284  0.0849
40241SOL     OW24314   4.246  10.217   8.087  0.5500  0.2117  0.2297
40241SOL    HW124315   4.182  10.238   8.156  0.5071 -0.6641  0.4737
40241SOL    HW224316   4.241  10.290   8.027  2.3666  2.2729  2.3845
40242SOL     OW24317   4.924   9.701   7.839 -0.0680  0.2021  1.1951
40242SOL    HW124318   4.944   9.792   7.820  0.3992 -0.1532 -0.0931
40242SOL    HW224319   5.009   9.657   7.837 -0.4887 -0.6205 -0.3531
40243SOL     OW24320   1.083   7.893   3.509 -0.4543 -0.2266 -0.7138
40243SOL    HW124321   0.990   7.873   3.512 -0.6332  0.1646  4.0841
40243SOL    HW224322   1.126   7.812   3.535  0.1159  0.6585  1.3205
40244SOL     OW24323   9.267  10.513   8.078 -0.3317 -0.3491  0.1059
40244SOL    HW124324   9.205  10.577   8.115  0.5832  0.8541 -0.3928
40244SOL    HW224325   9.312  10.560   8.009  0.2107 -1.6275 -0.4401
40245SOL     OW24326   1.974   7.195   2.426  0.3013  0.3677  0.2692
40245SOL    HW124327   2.014   7.204   2.513  0.5922 -0.0538  0.1852
40245SOL    HW224328   1.895   7.249   2.430 -1.1647 -1.7061  1.7040
40246SOL     OW24329   1.011   8.074   0.736  0.0764 -0.1114  0.2946
40246SOL    HW124330   0.938   8.120   0.694 -0.2175  1.8450  2.7164
40246SOL    HW224331   1.019   7.992   0.687 -3.4322 -0.1962 -0.3821
40247SOL     OW24332   1.508   4.319   3.363  0.4012 -0.3794  0.2139
40247SOL    HW124333   1.430   4.299   3.414  0.4556  0.2532  0.5687
40247SOL    HW224334   1.581   4.289   3.417  0.4237 -0.5704  0.0796
40248SOL     OW24335   1.986   7.795   7.248 -0.1031  0.5476 -0.2690
40248SOL    HW124336   1.966   7.888   7.254 -1.7547  0.1363  2.9373
40248SOL    HW224337   2.043   7.777   7.323  0.1735 -1.0040 -0.8083
40249SOL     OW24338   1.108  10.659   0.829  0.2215 -0.2921  0.1232
40249SOL    HW124339   1.137  10.714   0.756  1.9226 -0.6004  0.5120
40249SOL    HW224340   1.060  10.587   0.787  0.0342  0.2284 -0.5777
40250SOL     OW24341   1.924   4.596   8.760  0.7422 -0.2473  0.4628
40250SOL    HW124342   1.875   4.531   8.811  0.5876  0.5689  1.3760
40250SOL    HW224343   1.870   4.675   8.764  1.0283  0.0161 -0.4683
40251SOL     OW24344   7.028   5.760   8.740 -0.0730  0.3220 -0.1034
40251SOL    HW124345   6.964   5.699   8.704  0.6631 -0.0464 -0.8339
40251SOL    HW224346   6.994   5.847   8.718  0.3344  0.1110 -1.7136
40252SOL     OW24347   6.694   4.722   5.291 -0.1560  0.5347 -0.7752
40252SOL    HW124348   6.716   4.808   5.254  1.1596 -0.5169 -2.6133
40252SOL    HW224349   6.778   4.677   5.299 -0.8666 -0.7475 -0.2462
40253SOL     OW24350   1.029   7.130   5.890  0.3391 -0.3352  0.3535
40253SOL    HW124351   1.038   7.207   5.835  0.2674  0.4960  1.4757
40253SOL    HW224352   0.935   7.125   5.909  0.2654 -1.0172 -0.1436
40254SOL     OW24353   7.164   5.683   6.948  0.3274  0.3485 -0.6144
40254SOL    HW124354   7.188   5.772   6.921  1.8122  0.0234 -0.4466
40254SOL    HW224355   7.210   5.670   7.031 -0.3593 -0.3748 -0.3329
40255SOL     OW24356   3.353   6.799   6.600  0.1026 -0.7068  0.2084
40255SOL    HW124357   3.386   6.714   6.569 -2.0431 -1.7676  0.6925
40255SOL    HW224358   3.345   6.789   6.695  0.4909  0.3004  0.3626
40256SOL     OW24359   1.844   3.411   0.167 -0.8160  0.5063  0.2535
40256SOL    HW124360   1.771   3.459   0.127 -0.3013  0.3470 -0.8886
40256SOL    HW224361   1.809   3.323   0.183 -0.3237 -0.1655 -2.0879
40257SOL     OW24362   4.658   4.991   5.887  0.3472 -0.3904 -0.3662
40257SOL    HW124363   4.684   4.902   5.862  0.4831 -0.1541 -1.0839
40257SOL    HW224364   4.596   5.017   5.819  0.2656  0.0426 -0.1244
40258SOL     OW24365   9.493   1.258   8.481 -0.3573 -0.0125  0.1303
40258SOL    HW124366   9.406   1.283   8.451  0.0714  1.1301 -0.2095
40258SOL    HW224367   9.484   1.246   8.576 -0.9329 -0.1410  0.0608
40259SOL     OW24368   6.267   1.004   2.284 -0.3253 -0.2111  0.1824
40259SOL    HW124369   6.329   1.069   2.315 -1.1633  0.4507  0.5280
40259SOL    HW224370   6.316   0.921   2.283  0.7616  0.4152 -0.2988
40260SOL     OW24371  10.529  10.228   1.846  0.4016  0.1106  0.2270
40260SOL    HW124372  10.443  10.237   1.888  1.5775 -0.4586  2.9630
40260SOL    HW224373  10.525  10.143   1.802 -0.2344 -0.2087  0.8704
40261SOL     OW24374   9.661   1.371   1.793  0.1898 -0.1033  0.0143
40261SOL    HW124375   9.723   1.411   1.855  0.6244 -0.9260  0.1311
40261SOL    HW224376   9.716   1.342   1.720 -0.1753 -0.1302 -0.2500
40262SOL     OW24377   5.098   5.504   7.129  0.6571 -0.2711 -0.6982
40262SOL    HW124378   5.022   5.450   7.105 -0.3276  1.6288 -2.1903
40262SOL    HW224379   5.091   5.514   7.224  0.3597 -1.9426 -0.4965
40263SOL     OW24380  10.755   3.801   5.298 -0.0651  0.5664  0.0296
40263SOL    HW124381  10.846   3.779   5.313 -0.6825 -0.8585  2.1724
40263SOL    HW224382  10.726   3.844   5.379 -1.2305  1.2993 -0.7284
40264SOL     OW24383   1.817   1.152   1.123  0.1792  0.1337  0.0204
40264SOL    HW124384   1.741   1.093   1.128  0.2165  0.0318 -0.4984
40264SOL    HW224385   1.779   1.240   1.123  0.0203  0.0752 -0.6964
40265SOL     OW24386   4.892   0.233   3.734  0.0602  0.0198 -0.4254
40265SOL    HW124387   4.868   0.154   3.685 -1.1999  0.3229 -0.3525
40265SOL    HW224388   4.821   0.294   3.715 -0.2670  0.2862  1.4417
40266SOL     OW24389   6.919   8.876   3.308 -0.1774 -0.1331 -0.0873
40266SOL    HW124390   6.846   8.840   3.358  1.1986 -0.5463  1.7295
40266SOL    HW224391   6.996   8.852   3.358  1.1146  1.6623 -1.1033
40267SOL     OW24392   7.223   0.572   3.396 -0.2398 -0.5822  0.2120
40267SOL    HW124393   7.172   0.495   3.371 -1.3826  0.4807 -0.8511
40267SOL    HW224394   7.298   0.571   3.338 -1.9871  0.9055 -2.2892
40268SOL     OW24395   5.718   4.198   8.124 -0.0689 -0.1373 -0.0974
40268SOL    HW124396   5.647   4.233   8.070 -0.0489 -2.1488 -1.5408
40268SOL    HW224397   5.737   4.268   8.186 -2.0917  1.1568 -0.8124
40269SOL     OW24398   3.104   1.979   2.686  0.0397  0.1932  0.5003
40269SOL    HW124399   3.110   1.899   2.634  0.2253 -0.5476  1.6173
40269SOL    HW224400   3.011   1.985   2.709  0.0097  0.3504  0.3360
40270SOL     OW24401   5.264  10.669   9.063 -0.2565  0.0059 -0.1628
40270SOL    HW124402   5.298  10.758   9.071  1.5224 -0.6009 -0.4747
40270SOL    HW224403   5.282  10.629   9.147  1.0623 -0.7171 -0.7610
40271SOL     OW24404   3.548   5.792  10.988  0.4417 -0.2023 -0.4320
40271SOL    HW124405   3.476   5.731  11.003  1.1291 -1.2758 -1.2874
40271SOL    HW224406   3.508   5.868  10.947 -0.2850 -0.5430 -0.3570
40272SOL     OW24407  10.254   8.380   6.325  0.4686  0.3137  0.0459
40272SOL    HW124408  10.264   8.413   6.414 -1.5551  1.0868  0.0612
40272SOL    HW224409  10.270   8.456   6.269 -0.6506  0.4662 -0.0990
40273SOL     OW24410   4.565   1.140   6.403  0.2656  0.4036  0.1309
40273SOL    HW124411   4.481   1.173   6.371 -0.0204 -0.6506 -0.2436
40273SOL    HW224412   4.541   1.071   6.464  0.8390  1.3949  1.5379
40274SOL     OW24413  10.463   1.436   4.714  0.2592  0.3785  0.0843
40274SOL    HW124414  10.546   1.465   4.753  0.5783  0.4638 -0.6473
40274SOL    HW224415  10.447   1.498   4.643  0.3120 -0.5018 -0.7142
40275SOL     OW24416   0.973   2.590   0.608 -0.2588 -0.2073  0.2813
40275SOL    HW124417   0.919   2.511   0.615  1.5872 -1.4443  1.3263
40275SOL    HW224418   0.982   2.604   0.514 -2.0685 -0.1494  0.0779
40276SOL     OW24419   5.552   5.624   9.787 -0.0911  0.4645  0.2133
40276SOL    HW124420   5.492   5.555   9.817 -0.4095 -0.0467 -1.4688
40276SOL    HW224421   5.507   5.706   9.809 -0.5628  0.1095  0.5978
40277SOL     OW24422   0.040   0.182   5.880 -0.3272  0.6093  0.3515
40277SOL    HW124423   0.132   0.210   5.887  0.0811 -1.0509  2.6360
40277SOL    HW224424   0.045   0.088   5.862 -1.6520  0.9233 -2.0059
40278SOL     OW24425   2.548   9.708   0.175  0.2873  0.5754 -0.0188
40278SOL    HW124426   2.563   9.629   0.227  0.0010  0.4648 -0.1026
40278SOL    HW224427   2.465   9.691   0.130  0.4959  0.7025 -0.4510
40279SOL     OW24428   3.658   0.872   5.506 -0.2538  0.2003  0.8490
40279SOL    HW124429   3.669   0.923   5.586 -0.3637  2.6914 -0.6121
40279SOL    HW224430   3.566   0.883   5.483 -0.6763 -1.9861  1.2516
40280SOL     OW24431   5.283   9.005   3.752 -0.3185 -0.1409  0.1321
40280SOL    HW124432   5.230   9.011   3.673 -0.1406  1.6000  0.1201
40280SOL    HW224433   5.334   9.086   3.754  1.1448 -1.0352  0.9987
40281SOL     OW24434  10.912   1.258  10.361  0.0517  0.1220 -0.3529
40281SOL    HW124435  10.936   1.176  10.317  0.8576  0.1860 -0.0569
40281SOL    HW224436  10.824   1.278  10.329 -0.2575 -0.9870 -0.2522
40282SOL     OW24437  10.263  11.096   6.271 -0.1605 -0.1969 -0.2973
40282SOL    HW124438  10.323  11.119   6.341  0.2935  1.6638 -1.2279
40282SOL    HW224439  10.292  11.010   6.241  2.5937  0.9887 -1.2724
40283SOL     OW24440   6.143   4.059  11.087  0.1288 -0.5958 -0.3061
40283SOL    HW124441   6.117   3.975  11.048 -0.9785 -0.5778  0.3682
40283SOL    HW224442   6.126   4.123  11.018  0.3224 -0.8349 -0.5806
40284SOL     OW24443   5.759   8.055   7.672 -0.1996  0.2048 -0.3412
40284SOL    HW124444   5.826   8.013   7.619  0.3930  0.0242  0.5219
40284SOL    HW224445   5.722   8.123   7.616  1.2162  0.7937 -0.5973
40285SOL     OW24446   0.666   3.547   2.701  0.1422 -0.1397 -0.1622
40285SOL    HW124447   0.755   3.577   2.721  1.1293 -0.6004 -3.3159
40285SOL    HW224448   0.671   3.451   2.707 -0.3044 -0.1388  0.2352
40286SOL     OW24449   0.956   4.173   5.949 -0.0635  0.0453  0.0867
40286SOL    HW124450   0.976   4.174   5.856  1.7822 -0.5424  0.4269
40286SOL    HW224451   0.893   4.102   5.960 -1.5475  1.1646 -0.8969
40287SOL     OW24452   1.938   5.520   7.259  0.0954  0.0623  0.2923
40287SOL    HW124453   1.920   5.514   7.353  0.3598  1.8189  0.4832
40287SOL    HW224454   1.885   5.593   7.229  0.6674  0.0659 -0.7586
40288SOL     OW24455   6.790   9.063   5.579 -0.0713  0.2009 -0.0514
40288SOL    HW124456   6.836   8.982   5.559  0.6469  0.4985  0.3717
40288SOL    HW224457   6.706   9.055   5.533 -0.6500 -1.4318  1.1975
40289SOL     OW24458   7.663   0.158   2.769  0.0043  0.8520 -0.0928
40289SOL    HW124459   7.751   0.129   2.745 -0.6011 -0.5565 -0.7370
40289SOL    HW224460   7.674   0.204   2.852  1.3658  0.8673 -0.2658
40290SOL     OW24461   9.520   9.080   5.290 -0.1341 -0.3971 -0.3742
40290SOL    HW124462   9.500   9.003   5.343  0.0224 -0.8920 -1.0225
40290SOL    HW224463   9.436   9.106   5.252 -0.0329 -0.8101 -0.8911
40291SOL     OW24464   0.378  11.107   0.511  0.0775  0.3206 -0.3870
40291SOL    HW124465   0.291  11.090   0.546 -0.3624  0.2039 -1.4959
40291SOL    HW224466   0.364  11.120   0.417  1.2925  0.0255 -0.6255
40292SOL     OW24467   0.125   1.604   0.515  0.1360 -0.1731 -0.1473
40292SOL    HW124468   0.071   1.529   0.540  1.3143 -0.4670  1.7342
40292SOL    HW224469   0.109   1.669   0.583  0.9668  0.3244 -0.4074
40293SOL     OW24470   5.306  11.020   9.489 -0.1645 -0.0243  0.2595
40293SOL    HW124471   5.354  10.975   9.559 -0.2461 -0.6138 -0.0551
40293SOL    HW224472   5.250  10.952   9.452  0.5266  0.0602 -0.9649
40294SOL     OW24473  10.781   4.596   2.008  0.0589 -0.2149  0.2699
40294SOL    HW124474  10.874   4.610   2.025 -0.0547  0.8551  0.0821
40294SOL    HW224475  10.737   4.623   2.089 -0.3325  2.9460 -0.8325
40295SOL     OW24476   3.221   1.316   0.791  0.0808  0.2301  0.2039
40295SOL    HW124477   3.259   1.233   0.820  2.6649  0.7970 -1.2827
40295SOL    HW224478   3.197   1.361   0.873  1.8737 -0.5570  1.2103
40296SOL     OW24479   2.581   6.862   2.667  0.3155  0.1749 -0.2499
40296SOL    HW124480   2.634   6.810   2.606 -2.0393 -0.4338 -1.9255
40296SOL    HW224481   2.545   6.933   2.614 -0.5607  0.5539  0.8034
40297SOL     OW24482   0.279   5.993   1.603 -0.3780  0.1413  0.2484
40297SOL    HW124483   0.339   6.067   1.617 -2.7845  2.0079  1.3319
40297SOL    HW224484   0.280   5.946   1.686  0.3663 -0.4640 -0.0947
40298SOL     OW24485   5.237   6.767   5.472 -0.3598 -0.2141  0.3191
40298SOL    HW124486   5.319   6.777   5.424  0.1464  0.8439  1.3476
40298SOL    HW224487   5.229   6.673   5.487 -0.5235 -0.5758 -1.7656
40299SOL     OW24488   8.686   0.581   4.994 -0.4502  0.3564 -0.2395
40299SOL    HW124489   8.614   0.569   4.932 -0.4185  2.4387 -0.7621
40299SOL    HW224490   8.644   0.588   5.079 -0.7540  0.3674 -0.3884
40300SOL     OW24491   8.445   1.791   8.376 -0.2015 -0.2656 -0.1133
40300SOL    HW124492   8.434   1.813   8.283 -1.0219  0.8345  0.2301
40300SOL    HW224493   8.380   1.844   8.421  2.1042  1.4667  1.3992
40301SOL     OW24494   0.183   4.466   7.245 -0.4930 -0.0727 -0.1991
40301SOL    HW124495   0.134   4.387   7.265  1.4912 -1.8537 -1.8870
40301SOL    HW224496   0.267   4.455   7.290 -0.2013  1.0811 -0.4211
40302SOL     OW24497  11.083   9.128  11.003 -0.1900 -0.1026  0.3993
40302SOL    HW124498  11.144   9.200  11.020  0.3999 -0.6973  0.8409
40302SOL    HW224499  11.111   9.092  10.919 -0.0843 -0.2167  0.4827
40303SOL     OW24500   4.798   0.931   5.500 -0.4215  0.6071 -0.1428
40303SOL    HW124501   4.830   1.020   5.488  0.7799  0.1586 -0.4445
40303SOL    HW224502   4.763   0.930   5.589 -3.5958  2.2615 -1.2396
40304SOL     OW24503  10.979   9.487   7.136 -0.2766 -0.2144  0.2622
40304SOL    HW124504  10.957   9.474   7.229 -0.0880  1.2794  0.5343
40304SOL    HW224505  11.027   9.407   7.112 -1.0457 -0.9904  1.2131
40305SOL     OW24506   9.134   0.557   5.068 -0.2793 -0.5474  0.4300
40305SOL    HW124507   9.070   0.490   5.044 -0.7547 -0.3315  1.0656
40305SOL    HW224508   9.214   0.507   5.086  0.0516 -0.7350 -1.3463
40306SOL     OW24509   7.867   8.374   9.252 -0.3037  0.3285 -0.3375
40306SOL    HW124510   7.906   8.323   9.181 -1.0080 -1.7916  0.7012
40306SOL    HW224511   7.939   8.426   9.287  0.7049 -0.7037 -0.8078
40307SOL     OW24512   0.135   7.395  10.048 -0.4199  0.1940  0.0537
40307SOL    HW124513   0.159   7.459   9.982 -1.8656  2.0428  1.2409
40307SOL    HW224514   0.081   7.331  10.001  1.5974 -0.5995 -1.2864
40308SOL     OW24515   2.972   8.982   0.692 -0.0764  0.3906 -0.1232
40308SOL    HW124516   3.029   9.059   0.701  2.3344 -1.3099  0.1190
40308SOL    HW224517   3.026   8.908   0.721 -2.5114 -1.3527  0.2751
40309SOL     OW24518   0.907   8.886   7.045  0.1044  0.1230 -0.7335
40309SOL    HW124519   0.945   8.933   7.119 -0.4341 -0.0264 -0.3518
40309SOL    HW224520   0.852   8.951   7.000 -1.2562 -0.2945  0.2403
40310SOL     OW24521  10.876   5.342   2.694  0.3041  0.2561 -0.1106
40310SOL    HW124522  10.918   5.270   2.742 -0.6688 -0.0437  0.3181
40310SOL    HW224523  10.903   5.421   2.741 -1.1204 -0.0724  1.3597
40311SOL     OW24524   5.036   1.876   5.180 -0.0821 -0.1965  0.1616
40311SOL    HW124525   5.038   1.820   5.257  0.9609  0.7049  0.8191
40311SOL    HW224526   5.128   1.897   5.163 -0.3262 -0.0672 -1.0965
40312SOL     OW24527   2.788   0.751   4.958  0.3566  0.1343 -0.3323
40312SOL    HW124528   2.702   0.736   4.919  0.1152  0.7886 -0.0651
40312SOL    HW224529   2.774   0.737   5.052  0.4572  0.5573 -0.2499
40313SOL     OW24530   3.338   9.502   9.601  0.7058  0.0424 -0.0995
40313SOL    HW124531   3.328   9.409   9.620  0.9030  0.5041  2.6515
40313SOL    HW224532   3.418   9.508   9.549  0.7610 -1.2978 -0.1900
40314SOL     OW24533   7.107   9.867   2.540  0.0568  0.0352 -0.0082
40314SOL    HW124534   7.185   9.919   2.521 -0.4808  0.8447 -0.0826
40314SOL    HW224535   7.081   9.894   2.628  0.1827 -0.6558  0.2478
40315SOL     OW24536   7.662   7.830   4.294 -0.0065 -0.4259  0.0983
40315SOL    HW124537   7.704   7.747   4.316  0.6012  0.1784  1.2771
40315SOL    HW224538   7.735   7.893   4.290 -0.6707  0.4271  1.1268
40316SOL     OW24539   8.095   1.211   4.416 -0.6753 -0.0742 -0.1981
40316SOL    HW124540   8.125   1.301   4.427  0.4186 -0.3889 -0.4329
40316SOL    HW224541   8.035   1.196   4.489  1.0211  0.0876  1.3252
40317SOL     OW24542   6.443   5.531   9.955  0.1243  0.3557 -0.3092
40317SOL    HW124543   6.361   5.578   9.970 -0.1730 -0.2841  0.1405
40317SOL    HW224544   6.436   5.499   9.865 -0.8736 -1.0914  0.2433
40318SOL     OW24545   6.375   6.275   2.918  0.2227  0.1454 -0.1523
40318SOL    HW124546   6.358   6.356   2.966  1.9447  0.9280 -0.7639
40318SOL    HW224547   6.459   6.244   2.953  0.3561 -0.5253 -1.0233
40319SOL     OW24548   6.092   9.263   9.551 -0.3909 -0.0537 -0.1005
40319SOL    HW124549   6.110   9.350   9.585  1.2917 -0.9098  1.3536
40319SOL    HW224550   6.062   9.213   9.627  0.5975 -1.2408 -0.4524
40320SOL     OW24551   2.105   6.560   2.217  0.8993 -0.0754  0.7396
40320SOL    HW124552   2.147   6.570   2.303  0.7120 -1.4312  1.0193
40320SOL    HW224553   2.124   6.642   2.171  1.2620  0.5519  1.9614
40321SOL     OW24554   6.552   7.563   0.532  0.2983  0.1202  0.8840
40321SOL    HW124555   6.503   7.518   0.463 -0.9431  1.1708  1.0404
40321SOL    HW224556   6.623   7.503   0.555 -1.1150 -1.6137  0.8837
40322SOL     OW24557   4.038   1.140   1.491  0.3997 -0.1735  0.3972
40322SOL    HW124558   4.080   1.131   1.576  1.4299  0.1285 -0.0597
40322SOL    HW224559   4.002   1.053   1.472  0.5624 -0.3582  0.9281
40323SOL     OW24560   1.933   9.992  10.823 -0.2991  0.5944  0.5011
40323SOL    HW124561   1.888   9.936  10.887  1.0871  1.2593  2.1280
40323SOL    HW224562   2.026   9.977  10.839  0.0877  1.1710 -1.0493
40324SOL     OW24563   7.070   4.733   1.196 -0.0500  0.1260  0.4627
40324SOL    HW124564   6.993   4.778   1.162 -0.7149 -0.3518  1.2789
40324SOL    HW224565   7.059   4.642   1.168  0.9317  0.3054 -0.5883
40325SOL     OW24566   7.475  10.309   2.888  0.2090  0.6434 -0.3397
40325SOL    HW124567   7.533  10.267   2.824 -1.1786 -1.3609 -0.3769
40325SOL    HW224568   7.495  10.265   2.970 -0.8105  0.3715 -0.2332
40326SOL     OW24569   3.818   7.043   4.506 -0.5032  0.2362  0.0762
40326SOL    HW124570   3.833   7.137   4.519 -0.9913  0.4283 -0.6776
40326SOL    HW224571   3.835   7.029   4.413  0.4189 -0.5969  0.3526
40327SOL     OW24572   2.789   3.376   6.581  0.4363  0.7583  0.1051
40327SOL    HW124573   2.830   3.459   6.557  0.8064  0.0294 -1.9258
40327SOL    HW224574   2.703   3.377   6.539 -0.1533  0.6764  1.2437
40328SOL     OW24575   6.436   2.740   8.606 -0.0526  0.5230  0.0211
40328SOL    HW124576   6.442   2.647   8.629 -0.1416  0.8468  1.4467
40328SOL    HW224577   6.408   2.783   8.687  0.2093  1.8308 -0.5556
40329SOL     OW24578   2.231   2.752   0.584 -0.3238  0.0469 -0.0598
40329SOL    HW124579   2.247   2.795   0.668 -0.1526  0.7791 -0.4573
40329SOL    HW224580   2.138   2.729   0.587  0.2453 -2.3511  1.4046
40330SOL     OW24581   0.092   5.628   3.756  0.0622 -0.0807 -0.3159
40330SOL    HW124582   0.138   5.561   3.705  2.6833 -0.4624  2.3373
40330SOL    HW224583   0.057   5.581   3.832  1.1574  1.3484  1.1232
40331SOL     OW24584  10.541   6.804   6.228 -0.1284 -0.1099  0.2796
40331SOL    HW124585  10.513   6.716   6.255 -2.9955  0.5235 -0.2984
40331SOL    HW224586  10.582   6.790   6.143 -0.6552 -0.9121  0.1376
40332SOL     OW24587   8.249   9.669   8.297 -0.4887  0.2094 -0.4122
40332SOL    HW124588   8.256   9.640   8.388  1.0654 -1.8834 -1.1248
40332SOL    HW224589   8.182   9.611   8.259  1.0938 -1.1131 -1.3188
40333SOL     OW24590   5.349   3.535   1.986 -0.2104  0.3356  0.1290
40333SOL    HW124591   5.338   3.541   1.891  0.4666  0.4047  0.0525
40333SOL    HW224592   5.297   3.606   2.021  0.4037  0.9858 -0.2557
40334SOL     OW24593   0.779   5.766   9.613 -0.5594  0.0973 -0.1052
40334SOL    HW124594   0.771   5.821   9.535 -2.0023  0.1260  0.0334
40334SOL    HW224595   0.709   5.796   9.671 -1.3383 -1.7832  0.0208
40335SOL     OW24596   4.972  10.980   2.848  0.2275  0.1074  0.0767
40335SOL    HW124597   5.029  10.944   2.916  0.6239 -1.2540 -0.9438
40335SOL    HW224598   4.913  10.909   2.825  0.5756  0.2834 -1.5206
40336SOL     OW24599   9.141   7.010   2.393 -0.2579  0.0887 -0.1426
40336SOL    HW124600   9.073   6.953   2.355  0.3608 -0.5251 -0.3523
40336SOL    HW224601   9.150   7.081   2.330  0.9647 -1.0740 -1.3345
40337SOL     OW24602   6.564   2.685   0.158 -0.5267 -0.0089  0.4360
40337SOL    HW124603   6.488   2.685   0.217 -0.3859 -3.1943  0.7629
40337SOL    HW224604   6.530   2.717   0.075 -2.9585 -3.3956 -0.0882
40338SOL     OW24605  10.312   8.055  10.058 -0.0727 -0.6711 -0.4044
40338SOL    HW124606  10.296   8.015  10.143 -2.1464 -0.8746 -0.8460
40338SOL    HW224607  10.325   8.148  10.077  0.1085 -0.8147  0.1931
40339SOL     OW24608   1.642   2.028   4.901  0.2471 -0.0403  0.4558
40339SOL    HW124609   1.608   1.993   4.819  0.5762  0.5128  0.0699
40339SOL    HW224610   1.715   1.971   4.924 -0.4734 -0.7915  0.8977
40340SOL     OW24611   1.799   4.911  10.244 -0.0410  0.2411 -0.0294
40340SOL    HW124612   1.797   4.973  10.317 -0.4508 -0.7773  0.8504
40340SOL    HW224613   1.875   4.856  10.260 -0.7316 -0.6683  0.2317
40341SOL     OW24614   9.269   3.594   7.803 -0.1339 -0.5895  0.3125
40341SOL    HW124615   9.332   3.522   7.791 -0.3268 -0.5382 -1.2038
40341SOL    HW224616   9.319   3.673   7.783 -1.0319 -0.6588 -2.6279
40342SOL     OW24617   4.182   0.270   0.102  0.4081 -0.0536 -0.3150
40342SOL    HW124618   4.240   0.223   0.042  1.1750  0.6403 -0.1374
40342SOL    HW224619   4.241   0.323   0.156 -0.4841  2.0481 -1.3154
40343SOL     OW24620   6.483  10.282   2.606 -0.1142 -0.5239 -0.1198
40343SOL    HW124621   6.454  10.246   2.690 -1.0751  0.4621 -0.0106
40343SOL    HW224622   6.404  10.318   2.567  0.5403  0.0798 -0.9219
40344SOL     OW24623   4.997   0.625   3.545 -0.1063  0.0469 -0.0394
40344SOL    HW124624   4.933   0.696   3.532  0.9945  0.8876 -1.0924
40344SOL    HW224625   5.053   0.656   3.616  0.4592  0.3204 -0.5924
40345SOL     OW24626   5.553   8.356   0.589  0.2575 -0.3878  0.7399
40345SOL    HW124627   5.522   8.442   0.616  0.7860  0.1286 -0.2198
40345SOL    HW224628   5.614   8.330   0.657 -0.1315 -0.1394  1.1892
40346SOL     OW24629   9.780   5.458   0.070  0.5743  0.7689  0.4913
40346SOL    HW124630   9.750   5.512  -0.004 -2.0267  0.9253  1.5326
40346SOL    HW224631   9.703   5.406   0.094  1.2476  0.8754  3.2299
40347SOL     OW24632   5.831   9.677  10.240 -0.4534  0.1240  0.6171
40347SOL    HW124633   5.889   9.748  10.269 -0.7585  0.2835  0.8506
40347SOL    HW224634   5.754   9.685  10.297 -0.2917 -0.6911  0.9583
40348SOL     OW24635   3.288   5.218   3.915  0.0841 -0.4911 -0.7511
40348SOL    HW124636   3.277   5.128   3.883 -0.2220  0.4304 -3.5291
40348SOL    HW224637   3.382   5.229   3.925  0.2170 -0.8123 -1.5208
40349SOL     OW24638   1.712   4.433   8.840 -0.4084  0.2270 -0.4368
40349SOL    HW124639   1.694   4.345   8.875 -0.2423  0.1495 -0.5462
40349SOL    HW224640   1.630   4.458   8.797 -0.5425  0.2324 -0.1828
40350SOL     OW24641   9.524   5.018   8.737  0.7375 -0.2205 -0.0545
40350SOL    HW124642   9.445   5.038   8.687 -1.1292  1.0185  3.1286
40350SOL    HW224643   9.582   4.975   8.673 -1.5173  0.8954 -3.1220
40351SOL     OW24644   1.676   6.534   0.949 -0.1436  0.2047 -0.1282
40351SOL    HW124645   1.759   6.582   0.946 -1.1538  2.0406  0.0825
40351SOL    HW224646   1.652   6.532   1.041 -0.0268 -0.9115 -0.1102
40352SOL     OW24647   5.858   5.794   6.029  0.5515 -0.1237 -0.2713
40352SOL    HW124648   5.923   5.830   6.089 -0.9136  0.0767  1.2779
40352SOL    HW224649   5.905   5.783   5.946  2.4592  0.2552  0.7044
40353SOL     OW24650   8.162  10.713   5.070 -0.3610  0.1337 -0.3769
40353SOL    HW124651   8.194  10.629   5.038  0.9815  0.5888 -0.2962
40353SOL    HW224652   8.081  10.693   5.116 -0.7616 -0.9310 -1.4943
40354SOL     OW24653   9.792  10.433   2.830  0.5998  0.7720 -0.2015
40354SOL    HW124654   9.803  10.491   2.906  0.0248  0.1041  0.4044
40354SOL    HW224655   9.802  10.345   2.866 -3.0665  0.2218 -0.1871
40355SOL     OW24656   4.972  11.000   3.396 -0.3663 -0.2436 -0.3001
40355SOL    HW124657   5.003  11.074   3.345 -0.7472 -0.6181 -1.0858
40355SOL    HW224658   5.032  10.996   3.471 -0.4722  0.9734 -0.1342
40356SOL     OW24659   4.648   9.348   9.274 -0.1535  0.0333 -0.2321
40356SOL    HW124660   4.714   9.284   9.301  0.7018  0.6874 -0.7371
40356SOL    HW224661   4.608   9.310   9.196 -0.9168 -0.7168  0.5094
40357SOL     OW24662   7.025   5.841  10.130 -0.5475  0.1727  0.0642
40357SOL    HW124663   7.120   5.855  10.126 -0.3220 -0.7117  1.6039
40357SOL    HW224664   6.988   5.929  10.138  0.2277  0.4610  0.6134
40358SOL     OW24665   6.117   2.590   8.632 -0.6487  0.8100  0.1960
40358SOL    HW124666   6.174   2.602   8.708 -0.7655  0.4105  0.3487
40358SOL    HW224667   6.061   2.668   8.631 -0.1600  1.1590  0.0959
40359SOL     OW24668   1.385   6.811   3.186  0.2348 -0.3054  0.0795
40359SOL    HW124669   1.383   6.892   3.136  0.7410 -0.8777 -0.8982
40359SOL    HW224670   1.293   6.790   3.202  0.0846  0.1208 -0.2036
40360SOL     OW24671   4.215   5.602   1.524 -0.1918 -0.1132 -0.5848
40360SOL    HW124672   4.243   5.511   1.515 -0.8491 -0.2248 -1.7243
40360SOL    HW224673   4.120   5.599   1.509 -0.5786  0.4742  1.5091
40361SOL     OW24674   6.206   3.598   0.211  0.1831 -0.3002  0.3904
40361SOL    HW124675   6.169   3.602   0.123 -0.2560 -1.2743  0.5229
40361SOL    HW224676   6.165   3.522   0.252 -0.3990  0.7288  1.8078
40362SOL     OW24677   2.393   2.221   6.474 -1.1569  0.6443  0.1513
40362SOL    HW124678   2.323   2.255   6.530 -0.3986  2.3601  0.1243
40362SOL    HW224679   2.351   2.206   6.390 -1.4087  2.2930 -0.0607
40363SOL     OW24680   6.058   0.577   5.513  0.0657 -0.2408  0.2401
40363SOL    HW124681   6.061   0.605   5.421 -0.8272  2.0348  0.8634
40363SOL    HW224682   6.131   0.515   5.520 -0.1535 -0.8811 -2.1055
40364SOL     OW24683   3.215   8.249   6.978 -0.1183  0.4951  0.1106
40364SOL    HW124684   3.264   8.248   6.896  1.0057  1.2963  0.7325
40364SOL    HW224685   3.242   8.170   7.023  0.3114  0.7378  0.2828
40365SOL     OW24686   6.461   3.552   6.151 -0.2582 -0.3585  0.2027
40365SOL    HW124687   6.367   3.552   6.134 -0.4132  0.6016  0.9790
40365SOL    HW224688   6.472   3.487   6.220 -0.2919 -0.7473 -0.1531
40366SOL     OW24689   2.797   0.291   3.494 -0.2352 -0.4361  0.4104
40366SOL    HW124690   2.712   0.252   3.517 -2.2438  0.7476 -3.8035
40366SOL    HW224691   2.774   0.367   3.441  3.5685  1.1229  0.6926
40367SOL     OW24692   5.471   0.686   7.232 -0.2535  0.6383  0.4388
40367SOL    HW124693   5.564   0.704   7.241 -0.0899 -0.5716  1.4445
40367SOL    HW224694   5.429   0.771   7.242  0.7179  1.1468  0.3094
40368SOL     OW24695  10.849   7.118   0.933 -0.1711  0.6564  0.1711
40368SOL    HW124696  10.788   7.049   0.959 -0.7863  1.0730 -0.1417
40368SOL    HW224697  10.835   7.129   0.839  0.9959  0.1761 -0.0685
40369SOL     OW24698   3.477   1.859   4.685 -0.3467  0.8313 -0.1863
40369SOL    HW124699   3.517   1.829   4.767 -0.1574 -0.1999 -0.6381
40369SOL    HW224700   3.503   1.793   4.621 -1.1930  1.1785 -0.8985
40370SOL     OW24701   5.476  11.040   4.092  0.3004  0.6709  0.1694
40370SOL    HW124702   5.422  11.026   4.014 -0.1436  0.1529  0.5591
40370SOL    HW224703   5.527  10.960   4.101  0.4036  0.7596  0.3678
40371SOL     OW24704   1.539   7.426   9.181 -0.1144  0.3721  0.2273
40371SOL    HW124705   1.596   7.435   9.105 -0.1142 -0.2488  0.1496
40371SOL    HW224706   1.590   7.374   9.243  0.2704  1.7013  1.0537
40372SOL     OW24707   8.998   6.723   9.336 -0.3385 -0.0561 -0.5085
40372SOL    HW124708   9.061   6.695   9.402 -0.1949 -0.4469 -0.8107
40372SOL    HW224709   8.913   6.718   9.381 -0.2423 -0.3324 -0.3580
40373SOL     OW24710   2.463   4.836   5.675 -0.2058 -0.2239 -0.6427
40373SOL    HW124711   2.543   4.812   5.628  0.1098 -0.7284  0.1372
40373SOL    HW224712   2.405   4.761   5.664  0.6299 -1.2460  1.4535
40374SOL     OW24713   3.856   8.423   0.689  0.0069  0.2910  1.2195
40374SOL    HW124714   3.821   8.474   0.616  0.0192  0.7827  1.5520
40374SOL    HW224715   3.802   8.345   0.692 -0.3510  0.5273  1.0315
40375SOL     OW24716   6.299   2.771   2.743 -0.4209 -0.3224 -0.1834
40375SOL    HW124717   6.234   2.839   2.728  0.6529  0.5570 -1.0926
40375SOL    HW224718   6.314   2.733   2.656  0.7319 -0.0548 -0.1187
40376SOL     OW24719   8.612   5.380   0.158 -0.0573 -0.0289 -0.2949
40376SOL    HW124720   8.603   5.290   0.189 -0.2173 -0.0465 -0.3929
40376SOL    HW224721   8.613   5.373   0.063 -1.1048  0.1590 -0.3338
40377SOL     OW24722   6.632   4.026   3.742  0.1026 -0.1319 -0.5874
40377SOL    HW124723   6.664   4.049   3.655  0.0177  0.5900 -0.4329
40377SOL    HW224724   6.698   3.966   3.777  1.4016  1.4346 -0.2156
40378SOL     OW24725   2.264   0.593   8.839 -0.2329 -0.0421  0.5015
40378SOL    HW124726   2.261   0.552   8.753  1.8898  0.6369  0.0361
40378SOL    HW224727   2.225   0.679   8.825 -1.2573 -0.4806  0.5927
40379SOL     OW24728   5.941   8.964   3.456 -0.0517 -0.0494 -0.2051
40379SOL    HW124729   5.860   9.001   3.421 -0.7400 -2.6538 -1.6793
40379SOL    HW224730   5.912   8.902   3.523  0.7821 -0.2450 -0.0213
40380SOL     OW24731   2.223   5.606   8.815 -0.5085 -0.4398 -0.0263
40380SOL    HW124732   2.183   5.588   8.900 -1.1119 -0.5700 -0.3329
40380SOL    HW224733   2.155   5.584   8.751 -0.2257  0.1003 -0.5245
40381SOL     OW24734   1.866   2.484  10.977 -0.1004 -0.0701  0.4526
40381SOL    HW124735   1.930   2.552  10.997 -0.7891  0.8102 -0.2267
40381SOL    HW224736   1.870   2.424  11.051  1.5781 -0.1009  0.3732
40382SOL     OW24737   9.495   9.112  10.653 -0.5645  0.5622  0.4679
40382SOL    HW124738   9.472   9.175  10.722 -0.8371 -0.5036  1.3749
40382SOL    HW224739   9.475   9.027  10.691  0.1207 -0.1004 -0.6162
40383SOL     OW24740  10.286   6.120   9.790 -0.5433  0.0046  0.0597
40383SOL    HW124741  10.245   6.184   9.847 -2.1776 -2.0487  1.3143
40383SOL    HW224742  10.222   6.104   9.720 -0.2223 -0.3803 -0.1570
40384SOL     OW24743   5.627   5.585   7.543 -0.2915 -0.2067  0.3125
40384SOL    HW124744   5.680   5.637   7.483  0.4506  0.5292  1.5557
40384SOL    HW224745   5.677   5.584   7.624 -2.4623  1.1572  1.8015
40385SOL     OW24746   8.853   9.009   2.240 -0.4989  0.3341  0.5257
40385SOL    HW124747   8.896   8.926   2.260 -0.2247 -0.1046 -1.6615
40385SOL    HW224748   8.828   9.002   2.148 -3.3425  1.4367  1.0838
40386SOL     OW24749   7.778   4.944   5.522  0.9027 -0.5238 -0.4447
40386SOL    HW124750   7.815   4.931   5.609  1.9317 -0.5520 -0.8643
40386SOL    HW224751   7.710   4.878   5.514 -0.1237  0.3365  0.8201
40387SOL     OW24752   8.567  10.040   9.392 -0.3260  0.3952  0.0649
40387SOL    HW124753   8.625   9.996   9.454 -0.9127  0.4909  0.6883
40387SOL    HW224754   8.626  10.089   9.335  0.2823 -0.4406 -0.0515
40388SOL     OW24755   4.349   5.512   0.064  0.2073 -0.0962  0.1728
40388SOL    HW124756   4.311   5.592   0.100  0.7875 -0.2272  1.1306
40388SOL    HW224757   4.380   5.536  -0.023 -0.2224  0.5391  0.1881
40389SOL     OW24758   3.168   0.111   4.152  0.4223  0.6507  0.5511
40389SOL    HW124759   3.255   0.123   4.191  0.5399 -0.8215  0.7762
40389SOL    HW224760   3.110   0.162   4.208  1.1755  2.1411  0.0693
40390SOL     OW24761   5.510   3.494   6.202  0.2861 -0.5625 -0.0728
40390SOL    HW124762   5.474   3.505   6.290  1.6844 -0.4136  0.5025
40390SOL    HW224763   5.535   3.582   6.175  1.3694 -0.8204  0.0587
40391SOL     OW24764   1.736   0.876   6.452 -0.1622  0.2558  0.0210
40391SOL    HW124765   1.824   0.894   6.486 -0.1119  2.0643 -0.9570
40391SOL    HW224766   1.707   0.959   6.415 -1.8723 -0.5861 -0.6354
40392SOL     OW24767   6.325   6.136   5.689  0.2985  0.2564 -0.0150
40392SOL    HW124768   6.401   6.108   5.637  1.0125  0.9420  0.6164
40392SOL    HW224769   6.316   6.229   5.668 -0.7551  0.0419 -0.5396
40393SOL     OW24770   8.254   2.391   4.881 -0.2936  0.1152 -0.2211
40393SOL    HW124771   8.322   2.423   4.940  1.8415  0.5047 -2.6808
40393SOL    HW224772   8.229   2.306   4.917  1.6628 -0.1297  0.7094
40394SOL     OW24773   3.293  10.337   2.877 -0.0117 -0.7079  0.3287
40394SOL    HW124774   3.353  10.274   2.916 -1.9273 -2.3392  0.7881
40394SOL    HW224775   3.287  10.311   2.786 -0.1907 -0.6752  0.3315
40395SOL     OW24776   9.163   0.791   6.228 -0.2421 -0.4720 -0.0785
40395SOL    HW124777   9.092   0.743   6.186 -2.3279  2.7033 -0.5443
40395SOL    HW224778   9.119   0.844   6.295  2.1452 -0.5728  1.7021
40396SOL     OW24779  10.713   4.177   8.598  0.2117 -0.6953  1.0203
40396SOL    HW124780  10.667   4.095   8.581  0.3672 -1.2236  2.9085
40396SOL    HW224781  10.805   4.156   8.582  0.4674 -1.4468  3.0537
40397SOL     OW24782   4.998   4.465   2.404  0.4477  0.6868 -0.0250
40397SOL    HW124783   4.967   4.538   2.458  0.2974  1.0556 -0.5923
40397SOL    HW224784   5.090   4.487   2.386  0.3638  0.8084 -0.3098
40398SOL     OW24785   5.924   4.213   2.275  0.0448  0.1922  0.8805
40398SOL    HW124786   5.907   4.183   2.364  1.1725 -0.7442  0.8027
40398SOL    HW224787   6.005   4.168   2.250  0.1943  1.0919 -0.3114
40399SOL     OW24788   1.960   3.644   8.162  0.3426  0.4784 -0.1800
40399SOL    HW124789   1.951   3.736   8.136  0.1312 -0.1076 -2.3524
40399SOL    HW224790   2.050   3.621   8.139 -0.3278 -0.5001 -2.0622
40400SOL     OW24791   8.841   4.093   1.684  0.4061 -0.4453 -0.0050
40400SOL    HW124792   8.893   4.018   1.655  1.0361 -0.6250  1.4764
40400SOL    HW224793   8.751   4.071   1.659  0.8817 -0.5972 -1.6855
40401SOL     OW24794   6.902   4.563  11.022  0.9157  0.6494 -0.1063
40401SOL    HW124795   6.855   4.558  10.938 -0.1889  0.2636  0.5091
40401SOL    HW224796   6.948   4.479  11.029  0.8424  0.5990 -0.2272
40402SOL     OW24797   2.232   4.586   0.291  0.2312  0.1907  0.2820
40402SOL    HW124798   2.144   4.582   0.254  0.1896 -0.7839  0.4702
40402SOL    HW224799   2.285   4.533   0.231  0.4374 -0.2630  0.8654
40403SOL     OW24800   4.203   0.023   1.193  0.4586 -0.7863 -0.1323
40403SOL    HW124801   4.187  -0.054   1.138  0.7253 -0.2376 -0.9832
40403SOL    HW224802   4.295   0.044   1.179  0.2308  0.0727 -0.4069
40404SOL     OW24803   6.099   3.025   9.715  0.1926 -0.7544 -0.2810
40404SOL    HW124804   6.004   3.038   9.710  0.0667 -1.0151  1.0782
40404SOL    HW224805   6.118   2.963   9.645 -0.7382 -1.1679 -0.1824
40405SOL     OW24806   3.552  10.942   7.234  0.0445 -0.1855 -0.3952
40405SOL    HW124807   3.479  10.997   7.207 -0.5958 -0.0135  1.4905
40405SOL    HW224808   3.600  10.924   7.154 -2.0459 -0.2805 -1.7050
40406SOL     OW24809   6.442   7.193   1.545  0.1287 -0.0923  0.2790
40406SOL    HW124810   6.461   7.287   1.544 -0.7872  0.1007 -0.9652
40406SOL    HW224811   6.527   7.151   1.531  0.6124  0.5231  1.2957
40407SOL     OW24812  10.485  10.229   4.550  0.0061  0.3366 -0.3583
40407SOL    HW124813  10.399  10.260   4.521  0.6773  1.0976 -1.6211
40407SOL    HW224814  10.530  10.203   4.469  1.3018  0.8160  0.1789
40408SOL     OW24815   6.184   8.672   8.880 -0.0589 -0.0743  0.2986
40408SOL    HW124816   6.170   8.588   8.923 -1.6236  0.1970  0.3926
40408SOL    HW224817   6.174   8.737   8.949  2.2753  0.1977  0.4691
40409SOL     OW24818   4.545   3.248   0.286 -0.0611  0.1754 -0.1432
40409SOL    HW124819   4.573   3.339   0.283 -0.6691  0.3812  0.2427
40409SOL    HW224820   4.622   3.200   0.318  0.6976  0.3517 -1.6364
40410SOL     OW24821  10.385   7.080   3.715  0.1835  0.1653  0.1303
40410SOL    HW124822  10.364   7.024   3.790 -2.7833  0.2516 -0.4891
40410SOL    HW224823  10.415   7.162   3.754 -1.7305  0.3687  1.3456
40411SOL     OW24824   6.679  10.635   7.463  0.0968  0.1086 -0.0598
40411SOL    HW124825   6.761  10.625   7.414 -0.7719 -0.3570 -1.5011
40411SOL    HW224826   6.668  10.552   7.509 -0.5119 -0.6220 -1.4477
40412SOL     OW24827   1.573   7.374   6.223  1.1289  0.5417 -0.1938
40412SOL    HW124828   1.603   7.463   6.242  0.7988  0.3367  1.3815
40412SOL    HW224829   1.478   7.377   6.235  1.2745 -0.3676  1.4870
40413SOL     OW24830   9.160   7.241   9.144  0.7623 -0.7221  0.6386
40413SOL    HW124831   9.199   7.156   9.164 -0.2976 -1.0835  1.2460
40413SOL    HW224832   9.092   7.221   9.079  1.1363 -0.1904  0.0679
40414SOL     OW24833   3.844   4.725   9.710 -0.2343  0.7005  0.6286
40414SOL    HW124834   3.750   4.714   9.726  0.1561 -0.0564  2.6922
40414SOL    HW224835   3.879   4.636   9.714  0.8488  1.1619  2.0435
40415SOL     OW24836   4.874   5.691   3.244  0.0333 -0.0757 -0.1331
40415SOL    HW124837   4.940   5.752   3.213 -0.8007  1.0202  0.1883
40415SOL    HW224838   4.908   5.659   3.328  0.2788  0.2588 -0.1040
40416SOL     OW24839   7.690   1.516   7.302  0.2553 -0.1823  0.2493
40416SOL    HW124840   7.702   1.601   7.260  1.5454  0.4322  1.7687
40416SOL    HW224841   7.718   1.453   7.235  0.2188  0.6408 -0.5613
40417SOL     OW24842   2.101   5.254   9.999 -0.1606  0.9709 -0.3347
40417SOL    HW124843   2.036   5.192  10.032 -0.8263  1.8048 -0.0170
40417SOL    HW224844   2.064   5.340  10.020  0.0115  1.5135 -2.0957
40418SOL     OW24845  10.844   2.864   2.471  0.0217 -0.3297 -0.2706
40418SOL    HW124846  10.893   2.861   2.553  0.4158 -0.2173 -0.5017
40418SOL    HW224847  10.853   2.955   2.441 -1.4287  0.0406  0.3522
40419SOL     OW24848   5.311   2.038   9.480  0.3046  0.3495 -0.4638
40419SOL    HW124849   5.364   2.089   9.541 -0.9744 -2.4105  3.2922
40419SOL    HW224850   5.374   2.006   9.415  2.2077  1.6212  0.6460
40420SOL     OW24851   7.844   8.689   5.231  0.0600  0.4357 -0.1591
40420SOL    HW124852   7.918   8.717   5.176  1.1036  0.0866  1.0273
40420SOL    HW224853   7.885   8.659   5.312 -1.3849 -0.0075  0.4239
40421SOL     OW24854   1.171   5.589   7.154 -0.0265  0.0439 -0.3633
40421SOL    HW124855   1.161   5.545   7.239  0.8721 -0.8637 -0.6989
40421SOL    HW224856   1.199   5.677   7.176  2.2286 -0.7625  0.3029
40422SOL     OW24857   1.708   3.754   9.514  0.2282  0.2292  0.1692
40422SOL    HW124858   1.692   3.724   9.424  1.4115 -2.0196  0.6590
40422SOL    HW224859   1.632   3.808   9.534 -0.8320 -0.4865 -1.6500
40423SOL     OW24860   8.304   6.399   2.921  0.6595 -0.1720 -0.6414
40423SOL    HW124861   8.390   6.358   2.921  0.5323 -0.4522 -1.3161
40423SOL    HW224862   8.264   6.372   2.838  0.5329  1.2227 -1.0627
40424SOL     OW24863   8.622   6.936   6.616  0.1300  0.1704  0.2014
40424SOL    HW124864   8.702   6.902   6.576 -0.1538  0.7658 -0.8985
40424SOL    HW224865   8.647   7.019   6.656  0.6293 -0.8562  2.1523
40425SOL     OW24866   7.991   2.676   3.634 -0.6355  0.2020 -0.2715
40425SOL    HW124867   7.976   2.601   3.691  0.2220  0.9037  0.9296
40425SOL    HW224868   8.062   2.725   3.676 -0.9097  1.4868 -1.2170
40426SOL     OW24869   5.009   9.778   1.845  0.1325  0.2268 -0.5407
40426SOL    HW124870   5.102   9.769   1.866 -0.1535 -0.0956  0.6257
40426SOL    HW224871   4.983   9.860   1.886 -0.1679  0.1630 -0.6031
40427SOL     OW24872   4.049   4.481   3.312  0.5548 -0.6281 -0.0981
40427SOL    HW124873   3.960   4.447   3.316  0.3704 -0.1306  0.1130
40427SOL    HW224874   4.090   4.451   3.393  0.1766  0.2177  0.4308
40428SOL     OW24875   2.260   8.299   9.010  0.5411 -0.4768 -0.1873
40428SOL    HW124876   2.301   8.270   9.092 -2.1896 -0.7358  1.2121
40428SOL    HW224877   2.228   8.219   8.969 -0.6219 -0.1430  0.0093
40429SOL     OW24878   7.718   1.922   9.900 -0.0254  0.1178 -0.7098
40429SOL    HW124879   7.630   1.891   9.881 -0.1690  0.5036 -0.6817
40429SOL    HW224880   7.771   1.890   9.826 -0.2432  0.1248 -0.8717
40430SOL     OW24881   3.096   0.208  10.813  0.1230 -0.4816 -0.2704
40430SOL    HW124882   3.060   0.283  10.764  0.7532 -1.7082 -2.8040
40430SOL    HW224883   3.026   0.142  10.809  0.2910 -0.6886  0.2660
40431SOL     OW24884   7.367  10.002   2.195 -0.0304 -0.1658 -0.7944
40431SOL    HW124885   7.343   9.957   2.277  0.0746  1.8880  0.4300
40431SOL    HW224886   7.284  10.031   2.158  0.0386  0.6634 -0.3282
40432SOL     OW24887   4.603   4.608   1.282 -0.1145  0.7299  0.1712
40432SOL    HW124888   4.664   4.550   1.237  0.2728  1.0103  0.3308
40432SOL    HW224889   4.641   4.695   1.273  0.4329  0.6887  1.7800
40433SOL     OW24890  10.041   2.298   7.792 -0.6699 -0.5228  0.5320
40433SOL    HW124891  10.034   2.208   7.761 -0.8957  0.0765 -1.2954
40433SOL    HW224892  10.129   2.325   7.766 -1.3783  0.4580 -0.9832
40434SOL     OW24893   6.239   9.799   2.276 -0.2266  0.3488 -0.3170
40434SOL    HW124894   6.320   9.827   2.317 -0.9994  0.5017  1.1563
40434SOL    HW224895   6.175   9.867   2.299 -0.8909 -0.0138 -1.0366
40435SOL     OW24896   9.886   5.912   0.148 -0.5344  0.8892 -0.4457
40435SOL    HW124897   9.798   5.883   0.173 -0.5995  0.7440 -0.8359
40435SOL    HW224898   9.942   5.837   0.168 -0.5680  0.8170 -0.6195
40436SOL     OW24899   7.706   1.097   5.107  0.0699 -0.2123 -0.1567
40436SOL    HW124900   7.617   1.082   5.075  0.0743  1.0683 -0.8445
40436SOL    HW224901   7.741   1.010   5.123 -1.2278 -0.7437 -0.1000
40437SOL     OW24902   2.390   0.669   4.523  0.0200 -0.2191 -0.2578
40437SOL    HW124903   2.348   0.726   4.587 -3.4757 -1.2656 -1.3954
40437SOL    HW224904   2.424   0.729   4.456  0.9042  0.6996  0.9687
40438SOL     OW24905   3.687   4.242   0.184  0.5244 -0.4301 -0.4447
40438SOL    HW124906   3.630   4.166   0.198  0.4089 -0.2759 -0.0774
40438SOL    HW224907   3.756   4.232   0.249 -0.2672  0.5352  0.5835
40439SOL     OW24908   8.921   5.991  10.686  0.2532 -0.3563 -0.1726
40439SOL    HW124909   9.006   5.952  10.706  0.8536  1.0010  0.0206
40439SOL    HW224910   8.882   6.008  10.772  0.6159  0.7723 -0.2249
40440SOL     OW24911   3.723   4.422   5.592  0.1151 -0.4576 -0.3256
40440SOL    HW124912   3.734   4.495   5.531  1.3807 -0.3288  0.0287
40440SOL    HW224913   3.754   4.346   5.544 -1.9063 -0.9348 -0.9662
40441SOL     OW24914   6.637   0.394   0.185  0.4397 -0.3350 -0.2575
40441SOL    HW124915   6.553   0.429   0.156  0.4477 -0.3726 -0.3282
40441SOL    HW224916   6.701   0.457   0.152  0.5283 -0.8897 -1.1929
40442SOL     OW24917   1.496   3.243   0.903 -0.2783 -0.5260 -0.1980
40442SOL    HW124918   1.439   3.318   0.922  0.9338  0.5053 -0.4755
40442SOL    HW224919   1.511   3.247   0.809 -1.8553 -2.3945 -0.6094
40443SOL     OW24920  10.578   2.657   1.211 -0.5282 -0.0632 -0.4460
40443SOL    HW124921  10.500   2.711   1.227 -0.5339 -0.7123  2.0272
40443SOL    HW224922  10.624   2.656   1.295  1.0164 -1.5057 -1.2626
40444SOL     OW24923   8.240   9.894   8.819 -0.0143  0.3610 -0.3165
40444SOL    HW124924   8.289   9.861   8.895 -0.4063  0.5503  0.0208
40444SOL    HW224925   8.299   9.958   8.780 -0.6175  1.8226  1.0594
40445SOL     OW24926   9.885   6.228   4.403 -0.8694 -0.0073 -0.1882
40445SOL    HW124927   9.948   6.209   4.472 -0.6451 -0.2759 -0.4636
40445SOL    HW224928   9.906   6.317   4.375  0.1549 -0.4985 -1.0722
40446SOL     OW24929   8.025   8.858   1.450 -0.1388 -0.1982  0.0844
40446SOL    HW124930   8.102   8.856   1.507  0.1577  0.0360 -0.3020
40446SOL    HW224931   8.037   8.937   1.396  0.2199 -1.0706 -1.1651
40447SOL     OW24932   5.200   9.127  10.098 -0.0709 -0.3115 -0.1738
40447SOL    HW124933   5.158   9.051  10.057  0.3311  0.0963 -1.3996
40447SOL    HW224934   5.243   9.092  10.176 -0.5631 -1.1869 -0.2845
40448SOL     OW24935   6.749   5.875   6.917 -0.7181  0.4135  0.3845
40448SOL    HW124936   6.673   5.824   6.945 -0.1663 -0.9033 -0.4115
40448SOL    HW224937   6.775   5.836   6.833 -0.2529  2.0045 -0.2610
40449SOL     OW24938   6.200   2.994   8.176  0.4846  0.6340 -0.3158
40449SOL    HW124939   6.122   2.944   8.153 -1.5123  2.3249  2.2444
40449SOL    HW224940   6.249   2.937   8.235  1.9311 -0.8613 -2.7435
40450SOL     OW24941   0.854   5.268   7.484 -0.2855  0.2374 -0.3481
40450SOL    HW124942   0.773   5.238   7.524  0.0319  1.2331  1.1154
40450SOL    HW224943   0.910   5.191   7.483 -1.1179 -0.3824 -1.0854
40451SOL     OW24944   8.059   5.564   8.203 -0.2922  0.3881 -0.0493
40451SOL    HW124945   8.017   5.545   8.287 -0.3008 -2.6482 -0.6293
40451SOL    HW224946   7.992   5.548   8.137  0.7620 -1.3138 -0.7980
40452SOL     OW24947   6.684   7.865   4.287 -0.1021  0.3914  0.4843
40452SOL    HW124948   6.615   7.911   4.336 -0.7271  0.8048 -0.7462
40452SOL    HW224949   6.749   7.933   4.267 -0.5186  0.5314 -0.4326
40453SOL     OW24950   9.556   9.312   5.457  0.3594 -0.4595  0.0416
40453SOL    HW124951   9.569   9.335   5.549  1.7393 -3.6866  0.7766
40453SOL    HW224952   9.530   9.220   5.458  0.1283 -0.5106 -2.7938
40454SOL     OW24953   2.553   2.430   8.193  0.0327 -0.1293 -0.0425
40454SOL    HW124954   2.507   2.381   8.260  0.8918 -2.3728 -0.9801
40454SOL    HW224955   2.546   2.522   8.220 -1.5185 -0.7551  1.8830
40455SOL     OW24956   8.333   7.165   3.880 -0.2510  0.3894  0.4721
40455SOL    HW124957   8.396   7.126   3.940 -0.6109 -0.6516  0.1896
40455SOL    HW224958   8.275   7.216   3.937 -0.5811 -0.5746  1.0292
40456SOL     OW24959  11.040   8.795   3.428  0.0374 -0.0684 -0.1351
40456SOL    HW124960  10.961   8.743   3.438 -0.1573  0.1963 -0.3022
40456SOL    HW224961  11.081   8.793   3.515 -0.9935  1.1541  0.4174
40457SOL     OW24962   4.573   6.448   5.187  0.1193  0.0594  0.3931
40457SOL    HW124963   4.622   6.472   5.265 -0.1421  0.4644  0.4361
40457SOL    HW224964   4.538   6.531   5.153 -0.4426 -0.2021  0.3063
40458SOL     OW24965   3.285  10.210   1.819  0.2757  0.4725  0.6612
40458SOL    HW124966   3.288  10.151   1.744 -0.3659 -0.3477  1.2673
40458SOL    HW224967   3.377  10.234   1.834  0.7710 -1.7361  1.4699
40459SOL     OW24968   2.057   3.026   3.623 -0.2599 -0.3936  0.5871
40459SOL    HW124969   2.074   3.090   3.693  2.6401 -1.4010  0.9550
40459SOL    HW224970   2.024   2.949   3.670 -0.6062 -0.2752  0.5407
40460SOL     OW24971   1.279   1.825   0.611 -0.6084 -0.2214 -0.1212
40460SOL    HW124972   1.251   1.844   0.701  0.9881 -1.8332  0.7943
40460SOL    HW224973   1.337   1.898   0.588 -1.6506  0.6045 -0.1666
40461SOL     OW24974   9.340   5.773   8.615  0.1687 -0.1184  0.3997
40461SOL    HW124975   9.426   5.804   8.642 -0.6947  1.0564  2.0131
40461SOL    HW224976   9.309   5.840   8.554  0.2978 -0.3947  0.0342
40462SOL     OW24977   9.626   5.485   5.304 -0.0337  1.0321  0.6091
40462SOL    HW124978   9.653   5.393   5.301 -0.6872  0.8382  0.5394
40462SOL    HW224979   9.707   5.533   5.323  0.1429  0.3555  1.6761
40463SOL     OW24980   8.455   2.269   7.772  0.2843 -0.1286  0.3820
40463SOL    HW124981   8.382   2.328   7.792  0.7960  0.2700  1.1462
40463SOL    HW224982   8.532   2.325   7.777  0.5663 -0.2669 -1.6775
40464SOL     OW24983   9.996   6.008   8.477 -0.5228  0.5466 -0.1354
40464SOL    HW124984  10.022   5.917   8.492 -1.1205  0.4306  0.2436
40464SOL    HW224985  10.069   6.060   8.511  0.1703  0.2088 -1.0448
40465SOL     OW24986   7.904   1.077   9.492  0.1107  0.1195 -0.4488
40465SOL    HW124987   7.937   0.991   9.467 -2.6389 -1.9030  2.2366
40465SOL    HW224988   7.955   1.101   9.569  0.4875  0.6580 -0.8588
40466SOL     OW24989   6.157  10.644   9.286  0.1952  0.7172 -0.6802
40466SOL    HW124990   6.132  10.552   9.293  2.2264  0.0553 -1.3590
40466SOL    HW224991   6.156  10.676   9.376  3.0739 -1.0819  0.1416
40467SOL     OW24992   7.405   6.742   2.555  0.1315 -0.3122  0.6159
40467SOL    HW124993   7.389   6.652   2.526 -0.1027 -0.8609  2.3335
40467SOL    HW224994   7.426   6.790   2.474 -0.0011 -1.8336 -0.3651
40468SOL     OW24995   4.505   5.665   3.438  0.1228  0.1998  0.1313
40468SOL    HW124996   4.596   5.694   3.432  0.0818  0.9057  2.1392
40468SOL    HW224997   4.472   5.705   3.519 -2.3732  0.9889 -1.1635
40469SOL     OW24998   5.918  10.743   6.543  0.6386 -0.3001  0.1463
40469SOL    HW124999   5.860  10.703   6.479 -2.6853  2.6909  0.9230
40469SOL    HW225000   5.948  10.824   6.501 -0.7640  1.1841  1.8402
40470SOL     OW25001  10.315   4.797   8.828  0.0250  0.2312 -0.2999
40470SOL    HW125002  10.235   4.759   8.791  0.2211 -0.9119  0.3772
40470SOL    HW225003  10.350   4.853   8.759  0.0847 -1.3936 -1.6642
40471SOL     OW25004   8.784   1.280   4.548 -0.5633  0.4974  0.2000
40471SOL    HW125005   8.848   1.321   4.607 -1.0607  1.8947 -0.1813
40471SOL    HW225006   8.761   1.198   4.590 -0.2381  1.0527  1.5006
40472SOL     OW25007   8.069   5.969   0.577 -0.8024 -0.3208 -0.0893
40472SOL    HW125008   8.098   5.932   0.660  0.6052 -0.9845 -0.8426
40472SOL    HW225009   7.986   5.926   0.559 -0.4529 -1.1831  0.3184
40473SOL     OW25010   1.904   5.650   7.722 -0.3211  0.1318 -0.6722
40473SOL    HW125011   1.841   5.682   7.786 -0.0837 -0.1549 -0.2876
40473SOL    HW225012   1.939   5.569   7.761  1.2701  0.9837 -0.2369
40474SOL     OW25013   7.683   3.618   7.295  0.4466 -0.3578  0.0398
40474SOL    HW125014   7.600   3.666   7.288  1.4609  1.3362 -1.2354
40474SOL    HW225015   7.725   3.654   7.373  0.7316  0.0873 -0.3097
40475SOL     OW25016   7.892   0.867  10.957 -0.1705  0.2888  0.2872
40475SOL    HW125017   7.877   0.790  10.902  0.7871  1.3244 -1.5069
40475SOL    HW225018   7.819   0.926  10.937  1.7971  2.0267 -2.4902
40476SOL     OW25019   8.594   3.105   9.562 -0.3993 -0.2422 -0.1402
40476SOL    HW125020   8.502   3.081   9.546 -0.1682 -1.8691  0.7329
40476SOL    HW225021   8.641   3.022   9.561  0.6890  0.2724  1.8587
40477SOL     OW25022   8.165   8.060   8.458 -0.6215  0.8924  0.1511
40477SOL    HW125023   8.232   7.994   8.479 -0.3600  1.5808  1.6355
40477SOL    HW225024   8.108   8.017   8.394  0.0198 -0.4777  0.4602
40478SOL     OW25025   2.441   2.415   4.263 -0.2095 -0.7036 -0.1904
40478SOL    HW125026   2.451   2.493   4.317  3.1237 -0.1638 -1.3387
40478SOL    HW225027   2.478   2.344   4.315 -2.3791 -1.4180  0.4738
40479SOL     OW25028   9.236   9.617   6.797 -0.2450  0.3149 -0.2336
40479SOL    HW125029   9.264   9.533   6.834 -0.1075 -0.6559 -2.4344
40479SOL    HW225030   9.152   9.599   6.756 -0.6244  1.4831 -0.0253
40480SOL     OW25031   4.969   7.151   4.542 -0.3694 -0.4462 -0.2833
40480SOL    HW125032   4.879   7.129   4.568 -0.0107 -2.5668 -0.6472
40480SOL    HW225033   4.961   7.182   4.452 -0.7744 -0.3035 -0.2018
40481SOL     OW25034   8.232   6.953   8.748 -0.6219  0.3630  0.0328
40481SOL    HW125035   8.288   6.879   8.770  0.6331  0.3192 -2.8915
40481SOL    HW225036   8.270   7.027   8.796  0.8730 -0.0367 -0.4764
40482SOL     OW25037   5.615   9.595   1.785 -0.3641 -0.1850  0.2081
40482SOL    HW125038   5.581   9.506   1.790 -1.4574  0.2573  1.0606
40482SOL    HW225039   5.593   9.625   1.697 -3.1137  0.3946  0.9834
40483SOL     OW25040   6.138   5.824   8.494 -0.2206 -0.3333  1.1721
40483SOL    HW125041   6.119   5.900   8.438 -1.2379 -1.1136  0.4129
40483SOL    HW225042   6.144   5.860   8.582  1.3209  0.9115  0.6072
40484SOL     OW25043   7.514   4.768   2.625 -0.2047 -0.6083 -0.0852
40484SOL    HW125044   7.500   4.693   2.568 -2.0106 -0.0281 -0.4923
40484SOL    HW225045   7.569   4.827   2.574 -0.2511 -0.8944 -0.4672
40485SOL     OW25046   4.064   5.069   7.151 -0.4775  0.1564 -0.0509
40485SOL    HW125047   4.072   5.009   7.226 -0.0907 -0.7227 -0.7826
40485SOL    HW225048   3.982   5.116   7.167 -1.7126 -1.7945 -0.3140
40486SOL     OW25049   8.366   6.874   7.230 -0.4723  0.0004 -0.0054
40486SOL    HW125050   8.407   6.935   7.169  0.6755 -0.9773 -0.2702
40486SOL    HW225051   8.432   6.861   7.298 -1.9310  1.4897  1.7934
40487SOL     OW25052  10.029   8.193   8.685 -0.4594  0.1587 -0.0314
40487SOL    HW125053  10.121   8.200   8.661 -0.0996 -1.3256  0.7704
40487SOL    HW225054   9.982   8.238   8.615  0.8275  0.3380 -0.8075
40488SOL     OW25055   2.398   3.525   2.829 -0.1068  0.1162 -0.1755
40488SOL    HW125056   2.320   3.516   2.884 -0.1789  0.7771 -0.1579
40488SOL    HW225057   2.448   3.445   2.845 -0.5551 -0.0978  0.1741
40489SOL     OW25058   7.659   4.924   5.030 -0.5553  0.4795 -0.0478
40489SOL    HW125059   7.661   4.828   5.032  0.8497  0.4889  1.5404
40489SOL    HW225060   7.566   4.946   5.025 -0.9053 -0.9605 -0.2749
40490SOL     OW25061   2.917   0.599   5.448  0.2650  0.3119 -0.2852
40490SOL    HW125062   2.983   0.629   5.386  1.4127  1.7862  1.5267
40490SOL    HW225063   2.940   0.643   5.530 -2.6217  0.4206  0.5804
40491SOL     OW25064   8.585   9.402   0.491  0.4936  0.3585 -0.4784
40491SOL    HW125065   8.665   9.443   0.524  1.2234  0.1320 -1.8815
40491SOL    HW225066   8.591   9.311   0.519  0.0905  0.6241  0.5030
40492SOL     OW25067   1.644   4.130   6.047  0.0563  0.3374 -0.1729
40492SOL    HW125068   1.612   4.067   5.982 -1.9391  0.9513  0.1516
40492SOL    HW225069   1.674   4.076   6.120 -0.6126 -0.2717 -0.3392
40493SOL     OW25070   2.876   1.544   3.287 -0.3279  0.1266  0.1077
40493SOL    HW125071   2.889   1.526   3.194 -1.2824 -0.9068  0.1608
40493SOL    HW225072   2.836   1.631   3.289 -0.8872 -0.1111 -0.4849
40494SOL     OW25073  11.018   2.799   1.896 -0.3021 -0.0854  0.1151
40494SOL    HW125074  10.941   2.748   1.870 -0.1481 -0.0967 -0.3293
40494SOL    HW225075  11.092   2.747   1.866 -0.1494  0.5905 -0.7151
40495SOL     OW25076   7.536  10.834   9.688 -0.2023  0.1428  0.6190
40495SOL    HW125077   7.613  10.866   9.735  0.9650 -0.4249 -0.8238
40495SOL    HW225078   7.503  10.910   9.641  0.6579 -0.0400 -0.2958
40496SOL     OW25079   5.254   3.917   7.744 -0.3358  0.3275 -0.2943
40496SOL    HW125080   5.315   3.916   7.670 -0.4896 -0.8432 -0.4219
40496SOL    HW225081   5.291   3.854   7.806 -0.0483  1.5166  0.7750
40497SOL     OW25082   1.984   0.804   6.621 -0.2830 -0.1606  0.2221
40497SOL    HW125083   1.992   0.808   6.716  1.4517 -1.5601  0.1751
40497SOL    HW225084   2.066   0.841   6.588  0.0163 -1.5623 -0.6727
40498SOL     OW25085  10.939   2.835   2.726  0.0978 -0.4474  0.4590
40498SOL    HW125086  10.844   2.825   2.739 -0.2864  0.1305 -1.6283
40498SOL    HW225087  10.973   2.746   2.733 -0.4516 -0.5676  2.0659
40499SOL     OW25088   4.698   5.778   0.464  0.3670 -0.4003 -0.4211
40499SOL    HW125089   4.787   5.805   0.485 -0.8584  2.3340  2.0268
40499SOL    HW225090   4.681   5.703   0.521  0.8981 -0.5267 -0.4284
40500SOL     OW25091   2.492  10.554   4.179 -1.1950 -0.0943 -0.5761
40500SOL    HW125092   2.483  10.554   4.084 -0.9985  0.3572 -0.5942
40500SOL    HW225093   2.434  10.623   4.210 -1.0579 -0.0624 -0.3850
40501SOL     OW25094   8.432   9.516   7.856  0.3519  0.3417  0.2616
40501SOL    HW125095   8.413   9.431   7.894 -2.3073  0.5966 -0.2977
40501SOL    HW225096   8.509   9.501   7.801 -0.1363 -1.7413  0.0577
40502SOL     OW25097   6.254   2.903   3.670 -0.2069 -0.0833 -0.2800
40502SOL    HW125098   6.328   2.866   3.622 -0.4857  0.3883 -1.1076
40502SOL    HW225099   6.215   2.965   3.608 -0.6377  0.4771  0.5370
40503SOL     OW25100   6.636   3.741   0.700  0.1697 -0.1698  0.8766
40503SOL    HW125101   6.649   3.648   0.720 -1.3067 -0.7976 -0.8251
40503SOL    HW225102   6.666   3.750   0.610  2.1722  1.5112  1.6192
40504SOL     OW25103   2.927   0.116   5.278 -0.0286 -0.5117 -0.2609
40504SOL    HW125104   2.924   0.187   5.343  2.4423  1.2654 -1.8996
40504SOL    HW225105   2.836   0.105   5.251 -0.6888  1.0011  1.1169
40505SOL     OW25106   0.342   5.117   5.057  0.0005 -0.4855 -0.2608
40505SOL    HW125107   0.305   5.155   4.978  2.3588  0.8548 -0.8146
40505SOL    HW225108   0.422   5.168   5.074  0.7768 -2.1836  1.6995
40506SOL     OW25109   9.830   4.158   6.292 -0.1700  0.4409  0.4150
40506SOL    HW125110   9.771   4.089   6.321  0.7651 -0.5684 -0.0073
40506SOL    HW225111   9.839   4.143   6.197  1.4635 -0.0058  0.6182
40507SOL     OW25112   5.886   8.417   3.061  0.6122  0.2148 -1.2592
40507SOL    HW125113   5.802   8.402   3.104  1.2416 -1.5376 -0.5418
40507SOL    HW225114   5.864   8.452   2.975 -0.9138 -1.3565 -1.5588
40508SOL     OW25115  10.103   7.133   4.647  0.5629  0.3954  0.8762
40508SOL    HW125116  10.061   7.204   4.696  1.2370  1.5499 -0.1554
40508SOL    HW225117  10.049   7.124   4.568  0.0085 -0.8276  1.3704
40509SOL     OW25118   7.779   3.958   9.156  0.9732  0.2722 -0.4867
40509SOL    HW125119   7.808   3.913   9.235 -0.0005  1.9922  0.9496
40509SOL    HW225120   7.686   3.936   9.148  0.4653  1.9711  0.2824
40510SOL     OW25121   9.120   8.876   9.167  0.1674  0.4114  0.2535
40510SOL    HW125122   9.036   8.878   9.122 -0.1526 -1.0146  0.7197
40510SOL    HW225123   9.182   8.847   9.100  0.0452  0.2192  0.2214
40511SOL     OW25124   2.468   6.748   7.827 -0.1090  0.0085 -0.2670
40511SOL    HW125125   2.489   6.823   7.883 -0.6464 -0.0232 -0.0183
40511SOL    HW225126   2.395   6.704   7.871 -0.8576  0.2457 -1.2357
40512SOL     OW25127   5.933   2.284   4.538 -0.2464  0.3871 -0.1539
40512SOL    HW125128   5.973   2.366   4.567 -1.5470  0.8852  0.2943
40512SOL    HW225129   5.951   2.281   4.444 -1.2262  1.8175 -0.4173
40513SOL     OW25130   1.434   9.494   3.930 -0.1290  0.4295 -0.3496
40513SOL    HW125131   1.422   9.436   4.005 -1.0004 -2.5526 -2.6321
40513SOL    HW225132   1.345   9.513   3.900  0.1985 -0.8074 -2.2651
40514SOL     OW25133   3.881   6.472   4.236 -0.5695  0.4703  0.1976
40514SOL    HW125134   3.864   6.539   4.302  2.7055  0.4638  1.2319
40514SOL    HW225135   3.940   6.515   4.173  0.2074 -0.9062 -0.0610
40515SOL     OW25136   3.930   1.186   2.662  0.2921 -0.2954 -0.4832
40515SOL    HW125137   3.862   1.247   2.633 -1.2422 -0.4121  2.4760
40515SOL    HW225138   3.969   1.153   2.581 -3.0417 -0.0488 -2.3653
40516SOL     OW25139  10.600  10.291   4.921 -0.3996 -0.0582  0.2577
40516SOL    HW125140  10.585  10.199   4.897 -0.6304 -0.0503  0.3713
40516SOL    HW225141  10.685  10.290   4.966  0.0277 -0.0761 -0.5202
40517SOL     OW25142   8.574   6.862   4.227  0.0032  0.2627 -0.2080
40517SOL    HW125143   8.567   6.932   4.293 -1.5375 -0.0033 -0.0635
40517SOL    HW225144   8.568   6.781   4.278  1.0142  0.0149 -0.4618
40518SOL     OW25145   8.662  10.309   1.843 -0.1499  0.5569 -0.1466
40518SOL    HW125146   8.748  10.301   1.803  1.1364  0.8109  2.3869
40518SOL    HW225147   8.646  10.403   1.849  1.9301  0.8967  4.0581
40519SOL     OW25148   8.873   5.386   0.550  1.0976  0.5357  0.2987
40519SOL    HW125149   8.807   5.434   0.501  2.0139  0.7415 -0.7702
40519SOL    HW225150   8.911   5.452   0.608  0.4944  0.4513  0.8064
40520SOL     OW25151   5.739   9.537   0.128 -1.0072 -0.6232  0.2831
40520SOL    HW125152   5.741   9.452   0.172 -0.2116 -0.0601  1.3760
40520SOL    HW225153   5.767   9.600   0.195 -2.9454  0.7075 -0.0793
40521SOL     OW25154   1.266   1.880   4.615  0.1441 -0.5043 -0.1266
40521SOL    HW125155   1.266   1.872   4.710  3.2730 -2.3449 -0.1438
40521SOL    HW225156   1.214   1.806   4.584 -1.4143  0.4563  0.0878
40522SOL     OW25157   4.718   9.327   8.179  0.3624  0.2999 -0.1107
40522SOL    HW125158   4.646   9.265   8.176  1.0681 -0.5885  0.6881
40522SOL    HW225159   4.736   9.348   8.087 -0.1837 -0.3204 -0.3628
40523SOL     OW25160   2.497  10.117   4.279  0.0621 -0.0619 -0.1144
40523SOL    HW125161   2.447  10.199   4.280  0.9960  0.5973 -2.0539
40523SOL    HW225162   2.583  10.140   4.314 -0.1819 -0.6192  0.8801
40524SOL     OW25163   6.861  10.106   1.996  0.0386  0.2783  0.2346
40524SOL    HW125164   6.767  10.126   1.992  0.2451  1.3267  0.3037
40524SOL    HW225165   6.883  10.077   1.908 -0.5869 -1.1506  0.5246
40525SOL     OW25166   9.288   8.847   5.267  0.0538  0.2324  0.0744
40525SOL    HW125167   9.263   8.831   5.358  1.1756 -0.2764  0.3080
40525SOL    HW225168   9.246   8.930   5.245 -0.3145  0.3154  1.0240
40526SOL     OW25169   6.580   1.001   6.508 -0.0793  0.0033  0.1888
40526SOL    HW125170   6.663   0.956   6.523 -0.3208 -0.6142 -0.2740
40526SOL    HW225171   6.559   1.041   6.592  1.8049  2.1211 -0.2484
40527SOL     OW25172   3.476   5.168   5.255 -0.1061 -0.3765  0.0840
40527SOL    HW125173   3.569   5.146   5.256 -0.0001 -0.3578 -2.4248
40527SOL    HW225174   3.474   5.263   5.243 -0.4111 -0.4848 -0.8158
40528SOL     OW25175   5.730   4.411   1.289 -0.2636  0.3673 -0.0945
40528SOL    HW125176   5.810   4.456   1.261  1.6610 -0.4230  3.5527
40528SOL    HW225177   5.694   4.466   1.358 -2.4841  0.2692 -1.0893
40529SOL     OW25178   1.790   1.404   6.832 -0.1576  0.1409  0.2617
40529SOL    HW125179   1.718   1.343   6.821 -0.9158  0.9164  0.7424
40529SOL    HW225180   1.790   1.457   6.753  0.4302 -0.3985 -0.1075
40530SOL     OW25181  11.086   8.302   7.779  0.1784  0.0388  0.4586
40530SOL    HW125182  11.119   8.371   7.836 -0.9080  1.6563 -0.7826
40530SOL    HW225183  11.156   8.236   7.777 -0.0927 -0.5678  4.2856
40531SOL     OW25184   9.038   0.641   0.095  0.5848 -0.0368  0.3055
40531SOL    HW125185   8.950   0.679   0.098  0.7546  0.5247 -0.9901
40531SOL    HW225186   9.095   0.711   0.127  0.7004  0.1582 -0.3015
40532SOL     OW25187   1.871   7.570   6.601 -0.1259 -0.1209  0.2011
40532SOL    HW125188   1.874   7.491   6.547 -0.6866 -0.6436  0.9234
40532SOL    HW225189   1.907   7.544   6.685  0.8020  0.7087  0.0901
40533SOL     OW25190   8.343   1.083   1.719 -0.1370  0.3108  0.4559
40533SOL    HW125191   8.380   1.083   1.807 -0.0740 -0.1926  0.4318
40533SOL    HW225192   8.305   0.996   1.709 -0.5526  0.5245  0.1552
40534SOL     OW25193   8.760  10.384   6.980  0.0910  0.0965 -0.5584
40534SOL    HW125194   8.773  10.440   6.904 -0.9785  0.3762 -0.5455
40534SOL    HW225195   8.734  10.444   7.050  0.5698 -0.2206 -0.1014
40535SOL     OW25196   5.542  10.292  10.408  0.5383 -0.2554  0.5865
40535SOL    HW125197   5.625  10.338  10.416 -0.4770  1.5351  1.4844
40535SOL    HW225198   5.511  10.284  10.499 -1.7106  1.9986  0.1235
40536SOL     OW25199  10.920   6.528   7.085  0.4232 -0.2958 -0.1596
40536SOL    HW125200  10.984   6.457   7.078  0.6896 -0.0654 -0.0748
40536SOL    HW225201  10.835   6.484   7.083  0.5896 -0.6268 -0.0260
40537SOL     OW25202   9.787   1.700   0.241 -0.0479  1.4062  0.5157
40537SOL    HW125203   9.692   1.706   0.245 -0.1812  0.0139 -0.1314
40537SOL    HW225204   9.818   1.761   0.308 -1.3750  2.1777  0.4453
40538SOL     OW25205   9.252   6.473   9.360  0.2253  0.3346 -0.6303
40538SOL    HW125206   9.164   6.461   9.398  0.1166  1.3987 -0.5165
40538SOL    HW225207   9.308   6.415   9.412  0.0974  1.8191  1.2749
40539SOL     OW25208  10.672   5.336   0.918  0.0329 -0.2307 -0.0404
40539SOL    HW125209  10.585   5.375   0.912  0.7204  1.6258  1.2295
40539SOL    HW225210  10.707   5.342   0.829  0.3789  2.8813  0.1801
40540SOL     OW25211  10.929  10.794  10.597 -0.1928  0.1234  0.4775
40540SOL    HW125212  10.949  10.808  10.689 -1.5974 -0.7270  0.9471
40540SOL    HW225213  10.847  10.842  10.583 -1.0302 -1.3102  0.2016
40541SOL     OW25214   1.426   4.002  10.294  0.3963  0.3216 -0.2148
40541SOL    HW125215   1.406   4.031  10.205 -0.2496  1.1867  0.1930
40541SOL    HW225216   1.400   4.076  10.349 -1.2868 -0.9937  0.8831
40542SOL     OW25217  10.184   3.009   7.831 -0.2753 -0.2440 -0.4446
40542SOL    HW125218  10.152   3.086   7.877  0.1032  0.4994 -1.3851
40542SOL    HW225219  10.224   3.044   7.751  1.4418 -1.2621 -0.0814
40543SOL     OW25220   3.063  10.433   0.100  0.2544 -0.0669  0.1976
40543SOL    HW125221   3.070  10.405   0.008 -0.9138  0.8350 -0.1876
40543SOL    HW225222   2.981  10.395   0.131 -0.4722  1.4066  0.1841
40544SOL     OW25223  10.870   8.192   1.049 -0.0056 -0.2378 -0.0351
40544SOL    HW125224  10.775   8.192   1.054  0.0365 -1.0426  0.8271
40544SOL    HW225225  10.897   8.272   1.095 -0.3235  1.1387 -2.1139
40545SOL     OW25226  10.783   5.407   5.025 -1.0721  0.2454  0.6452
40545SOL    HW125227  10.787   5.313   5.041 -1.3376 -0.2221 -1.6940
40545SOL    HW225228  10.867   5.441   5.056 -0.3928 -1.0075  0.2339
40546SOL     OW25229   6.962   5.506   2.276  0.9097 -0.0979 -0.1490
40546SOL    HW125230   6.876   5.531   2.242  0.9805 -0.5958 -0.7162
40546SOL    HW225231   6.956   5.520   2.370  0.3514  0.2829 -0.2359
40547SOL     OW25232   0.576   8.071   3.362  0.0940  0.3262  0.1793
40547SOL    HW125233   0.588   7.978   3.378  0.0105  0.0619 -1.2130
40547SOL    HW225234   0.489   8.091   3.398 -0.1400 -0.2578 -0.0626
40548SOL     OW25235   9.007   3.231  10.474 -0.2371  0.1260 -0.4415
40548SOL    HW125236   9.046   3.205  10.391  0.5099 -0.4389  0.0704
40548SOL    HW225237   8.963   3.314  10.456 -1.0250 -0.5376 -1.6576
40549SOL     OW25238   6.252   2.946   4.561 -0.2591 -0.3307 -0.2339
40549SOL    HW125239   6.207   2.883   4.504 -1.5277  1.4569 -1.3274
40549SOL    HW225240   6.239   2.911   4.649  0.9611 -2.6970 -0.9104
40550SOL     OW25241   4.772   8.281   5.523 -0.1650 -0.0795  1.1162
40550SOL    HW125242   4.802   8.193   5.549  0.6324  0.6510  2.8654
40550SOL    HW225243   4.695   8.265   5.469  0.3584 -1.8791  0.8192
40551SOL     OW25244   3.819  10.291   0.680  0.4796  0.2210  0.0304
40551SOL    HW125245   3.870  10.268   0.602  0.0884 -2.0222  0.3712
40551SOL    HW225246   3.738  10.329   0.646  0.8952  0.5617 -0.6062
40552SOL     OW25247   6.997   9.572   5.953 -0.2190  0.2999  0.4301
40552SOL    HW125248   6.990   9.642   6.019  4.8815  0.3136  1.3683
40552SOL    HW225249   6.997   9.491   6.004 -0.7987 -0.0502 -0.1081
40553SOL     OW25250   9.848   3.772  10.984 -0.1976  0.0402 -0.2576
40553SOL    HW125251   9.825   3.760  10.892  0.2025 -0.3285 -0.3133
40553SOL    HW225252   9.786   3.719  11.032 -0.7407  0.6450 -0.2784
40554SOL     OW25253   1.375   7.861   6.963 -0.3215 -0.0992  0.2653
40554SOL    HW125254   1.470   7.863   6.954 -0.3783  1.7142 -0.3368
40554SOL    HW225255   1.343   7.911   6.888 -1.6491  0.8090  1.3925
40555SOL     OW25256   9.678  10.562  10.404  0.6392 -0.1222 -0.4463
40555SOL    HW125257   9.627  10.554  10.485 -0.2418  1.0378 -0.8623
40555SOL    HW225258   9.620  10.527  10.336  1.4516 -1.2771 -0.5786
40556SOL     OW25259   9.548   6.347   0.371  1.0037  0.2649  0.3774
40556SOL    HW125260   9.511   6.376   0.287  0.2266 -1.0520  0.2320
40556SOL    HW225261   9.584   6.426   0.410  1.3623  0.9113 -1.1903
40557SOL     OW25262   3.094   3.865  10.336 -0.4116  0.3065  0.1564
40557SOL    HW125263   3.138   3.826  10.412 -0.5765 -0.3549 -0.0732
40557SOL    HW225264   3.026   3.921  10.374  0.3617  1.0260  0.5056
40558SOL     OW25265   5.106   2.962  10.883  0.0308 -0.1150 -0.3904
40558SOL    HW125266   5.143   2.924  10.803  2.3597  1.0645  0.0694
40558SOL    HW225267   5.023   2.915  10.894  0.8939 -2.2174 -2.0025
40559SOL     OW25268   2.734   2.118   5.003 -0.5445 -0.1355  0.0635
40559SOL    HW125269   2.711   2.137   5.094 -0.2545  1.2309 -0.1233
40559SOL    HW225270   2.774   2.199   4.971 -2.0038 -0.0669 -1.7417
40560SOL     OW25271   5.492   6.069   5.147 -0.4880 -0.7337 -0.0924
40560SOL    HW125272   5.422   6.046   5.207 -0.6803 -0.2655 -0.1290
40560SOL    HW225273   5.465   6.153   5.109  0.6111  0.0264  0.7229
40561SOL     OW25274   0.696   8.985  10.424  0.2522 -0.5961 -0.0196
40561SOL    HW125275   0.784   9.009  10.398  1.3050  0.0865  3.6561
40561SOL    HW225276   0.641   9.012  10.350  2.6855  2.3239 -0.9614
40562SOL     OW25277   3.606  10.919   7.741 -0.4270  0.4068  0.4798
40562SOL    HW125278   3.619  10.970   7.662 -0.0442  1.9953  1.5161
40562SOL    HW225279   3.513  10.899   7.742 -0.8404  2.1639  0.6329
40563SOL     OW25280   6.091   3.847  10.931  0.4689  0.0395  0.1115
40563SOL    HW125281   6.105   3.845  10.836 -1.2825 -0.5701 -0.1817
40563SOL    HW225282   6.139   3.771  10.964 -0.5351 -0.9445 -0.5916
40564SOL     OW25283   6.080   8.460   9.020  0.1677 -0.7587  0.1831
40564SOL    HW125284   6.048   8.410   9.096  0.9339 -2.4917 -0.5698
40564SOL    HW225285   6.013   8.447   8.953 -1.3422  2.1393  0.9763
40565SOL     OW25286   4.698   4.587   4.946 -0.6230 -0.3145 -0.0269
40565SOL    HW125287   4.732   4.498   4.935 -0.9676 -0.3683 -0.6990
40565SOL    HW225288   4.767   4.634   4.993 -0.4094 -0.9167  0.2671
40566SOL     OW25289   9.981  10.072   1.492  0.1454 -0.0756 -0.1897
40566SOL    HW125290  10.022  10.016   1.426  0.4119  0.5111 -0.5284
40566SOL    HW225291  10.030  10.054   1.572  0.9339  0.4484 -0.5403
40567SOL     OW25292   0.351   4.988   2.931 -0.0075 -0.5484 -0.2509
40567SOL    HW125293   0.381   4.964   2.844 -1.0183  1.5076 -1.2282
40567SOL    HW225294   0.262   4.954   2.936 -1.4680  2.6822 -1.6637
40568SOL     OW25295   7.979   1.652   7.015  0.2144  0.0502 -0.1077
40568SOL    HW125296   7.914   1.689   6.955 -0.0764  2.3186  1.4955
40568SOL    HW225297   7.998   1.722   7.078  1.0104 -1.9503  2.0592
40569SOL     OW25298   9.658  10.880   2.474 -0.5308  0.4744  0.0019
40569SOL    HW125299   9.728  10.935   2.509  0.1995 -1.3124  1.5561
40569SOL    HW225300   9.697  10.836   2.399 -0.5914  0.8785 -0.2660
40570SOL     OW25301   2.801   3.909   8.401 -0.0384  0.0463  0.5918
40570SOL    HW125302   2.784   3.920   8.308 -0.8771  1.4710  0.8813
40570SOL    HW225303   2.891   3.938   8.413  1.2423 -3.2154 -0.2381
40571SOL     OW25304   4.287   2.243   5.486  0.4001 -0.4368  0.2315
40571SOL    HW125305   4.349   2.171   5.499  0.4915 -0.4754 -0.3667
40571SOL    HW225306   4.206   2.213   5.527  1.0129 -0.0183  1.8191
40572SOL     OW25307   3.449   8.219   5.372  0.6728  0.3671 -0.1034
40572SOL    HW125308   3.471   8.177   5.289 -0.6677  0.6400 -0.6254
40572SOL    HW225309   3.478   8.309   5.361  0.8666  0.3044 -0.1154
40573SOL     OW25310   4.825   0.120   8.113  0.1678 -0.3973 -0.2665
40573SOL    HW125311   4.773   0.077   8.045 -1.4442 -1.1605  1.3569
40573SOL    HW225312   4.898   0.060   8.128 -1.3982 -2.1228  1.1013
40574SOL     OW25313   8.081   2.060   4.041 -0.8956 -0.5549  0.5239
40574SOL    HW125314   8.057   2.150   4.062 -0.4493 -0.2792 -0.1110
40574SOL    HW225315   8.093   2.017   4.126  0.7333  0.4921  0.8668
40575SOL     OW25316   4.634   9.666   8.190 -0.4922 -0.5206  0.4059
40575SOL    HW125317   4.636   9.594   8.127 -0.1382  1.0473 -1.4900
40575SOL    HW225318   4.544   9.668   8.223 -1.1615 -0.3633 -1.3435
40576SOL     OW25319   5.710   3.615   0.793  0.3897  0.6710  0.6194
40576SOL    HW125320   5.648   3.675   0.753  0.2209  0.5373  0.6800
40576SOL    HW225321   5.676   3.528   0.774  0.8856  0.5813  0.1293
40577SOL     OW25322   9.091  10.708   3.017  0.0702 -0.2618 -0.3689
40577SOL    HW125323   9.183  10.706   3.040  0.0828  0.3659 -0.3410
40577SOL    HW225324   9.061  10.618   3.028  0.3392 -0.2080  0.9919
40578SOL     OW25325   7.312   6.434   8.560  0.0722  0.0804  0.6551
40578SOL    HW125326   7.264   6.388   8.492 -3.0966  0.3377  2.5286
40578SOL    HW225327   7.352   6.365   8.612 -1.9412 -0.4817  1.5489
40579SOL     OW25328   1.525  10.873   0.551  0.2105 -0.1933  0.5478
40579SOL    HW125329   1.570  10.917   0.480 -1.5695 -0.3210 -0.7338
40579SOL    HW225330   1.573  10.897   0.630  2.0756  0.1661 -0.6594
40580SOL     OW25331   7.757   3.274   8.851  0.1605  0.2563 -0.0526
40580SOL    HW125332   7.666   3.305   8.848 -0.2557 -0.8221  0.8294
40580SOL    HW225333   7.791   3.310   8.933  1.1479  2.1897 -1.2281
40581SOL     OW25334   9.259   0.377   4.262 -0.1815 -0.1512 -0.5110
40581SOL    HW125335   9.268   0.427   4.181  1.2443 -0.4831 -0.5825
40581SOL    HW225336   9.257   0.444   4.331  2.1671  0.0678 -0.5667
40582SOL     OW25337   4.909   2.539   9.222 -0.8436  0.3042 -0.1489
40582SOL    HW125338   4.995   2.577   9.206 -1.1033  1.0796  0.2500
40582SOL    HW225339   4.918   2.494   9.306  0.3275 -3.1930 -1.9401
40583SOL     OW25340   6.235   1.902   9.602  0.1103  0.1863  0.0188
40583SOL    HW125341   6.173   1.972   9.580  0.5393  0.6188  0.1658
40583SOL    HW225342   6.321   1.940   9.584  0.5763  0.9146  3.1903
40584SOL     OW25343   8.206   3.754   7.736 -0.1887 -0.3974  0.1580
40584SOL    HW125344   8.299   3.746   7.756 -0.3270  0.2480  1.1223
40584SOL    HW225345   8.180   3.666   7.709  0.5727 -0.7152  0.4342
40585SOL     OW25346  10.847  10.889   9.085 -0.4031  0.0758 -0.0024
40585SOL    HW125347  10.756  10.859   9.080 -0.0899 -0.9049 -0.0116
40585SOL    HW225348  10.861  10.906   9.178 -0.1235 -1.3418  0.2366
40586SOL     OW25349   5.192  10.166   0.070  0.1749 -0.6844  0.0830
40586SOL    HW125350   5.201  10.087   0.124  1.0909 -1.8141 -1.6194
40586SOL    HW225351   5.115  10.149   0.016  0.5317 -0.5431 -0.4778
40587SOL     OW25352   2.198   3.858   5.120 -0.0450 -0.4100  0.7510
40587SOL    HW125353   2.220   3.905   5.040 -1.4060  0.0196  0.6138
40587SOL    HW225354   2.263   3.887   5.184  0.6070 -0.2052  0.0103
40588SOL     OW25355   4.136   9.570   7.245  0.2597 -0.5320 -0.2781
40588SOL    HW125356   4.125   9.540   7.155  1.3476  0.2688 -0.7081
40588SOL    HW225357   4.067   9.526   7.294 -1.3661  0.2139 -1.7835
40589SOL     OW25358   0.703   3.897  10.095  0.4393  0.5482  0.2474
40589SOL    HW125359   0.765   3.827  10.117  1.8551  1.4090 -0.8118
40589SOL    HW225360   0.719   3.914  10.002 -0.8271  1.3714  0.1648
40590SOL     OW25361   8.320   9.161   3.218 -0.3901 -0.2257  0.4799
40590SOL    HW125362   8.371   9.213   3.280 -0.6296 -1.5899  1.8852
40590SOL    HW225363   8.230   9.171   3.248 -0.6221 -0.2204 -0.1970
40591SOL     OW25364   4.374   0.174   0.729  0.2026  0.4308 -0.2838
40591SOL    HW125365   4.413   0.233   0.664 -1.9711 -0.0387 -2.1509
40591SOL    HW225366   4.440   0.107   0.743  0.8208  0.6436 -1.9397
40592SOL     OW25367   4.697   0.580   1.606  0.3559  0.0505  0.0353
40592SOL    HW125368   4.621   0.632   1.578  0.0992 -0.8207 -0.9671
40592SOL    HW225369   4.715   0.524   1.531  2.6783  0.9792 -0.1623
40593SOL     OW25370   1.044   1.355   6.288 -0.5086 -0.7628 -0.4899
40593SOL    HW125371   1.096   1.286   6.330  0.3306 -0.8218 -1.5565
40593SOL    HW225372   0.961   1.313   6.267 -0.0327 -1.4465 -1.0556
40594SOL     OW25373   3.802   3.087   8.711  0.3969 -0.3578 -0.0066
40594SOL    HW125374   3.758   3.163   8.748 -0.2560 -0.6980 -0.0713
40594SOL    HW225375   3.881   3.122   8.670 -0.2732  0.3730 -0.6902
40595SOL     OW25376   7.117   4.867   3.842  0.1835 -0.3795 -0.1314
40595SOL    HW125377   7.086   4.820   3.765  0.5660 -0.4416 -0.2540
40595SOL    HW225378   7.211   4.879   3.826  0.1288  0.2643 -0.0204
40596SOL     OW25379   8.382   4.962   3.226 -0.1204  0.2381 -0.0617
40596SOL    HW125380   8.472   4.960   3.192  0.0606 -1.6392  0.4150
40596SOL    HW225381   8.393   4.961   3.321 -0.6315 -0.6525  0.0000
40597SOL     OW25382   6.124   5.216  10.274 -0.5960 -0.3983 -0.0744
40597SOL    HW125383   6.188   5.248  10.337 -0.9191  1.2039 -0.5168
40597SOL    HW225384   6.039   5.239  10.313 -0.8262 -0.3922 -0.5776
40598SOL     OW25385   4.566   7.285   3.173  0.1954  0.0620  0.0131
40598SOL    HW125386   4.619   7.326   3.105 -0.3831  1.1760  0.2236
40598SOL    HW225387   4.492   7.344   3.186 -1.4003 -1.6846 -0.6260
40599SOL     OW25388   5.765   0.783   4.942 -0.0334  0.1289 -0.1677
40599SOL    HW125389   5.810   0.851   4.992  0.7001 -0.4797  0.0216
40599SOL    HW225390   5.744   0.824   4.858 -0.3397  0.8341  0.2418
40600SOL     OW25391  10.766   0.498  10.630  0.0133 -0.2936 -0.9587
40600SOL    HW125392  10.849   0.462  10.660 -0.9816 -0.0563  2.3959
40600SOL    HW225393  10.745   0.567  10.692 -1.0275  2.2060 -3.8088
40601SOL     OW25394   5.073   8.167   6.600 -0.0901  0.4901 -0.6223
40601SOL    HW125395   5.133   8.235   6.569  0.9611 -1.2476 -2.6577
40601SOL    HW225396   4.990   8.188   6.557  0.0108  0.8976 -0.6274
40602SOL     OW25397   0.220   2.500   6.369  0.0129 -0.3387 -0.6815
40602SOL    HW125398   0.180   2.419   6.399 -0.7204 -0.5971 -2.2789
40602SOL    HW225399   0.269   2.475   6.290  1.4079  0.4160 -0.0961
40603SOL     OW25400  10.918   9.753   6.269 -0.6435 -0.0973  0.3011
40603SOL    HW125401  10.910   9.659   6.279  1.3263 -0.2346  0.9617
40603SOL    HW225402  10.871   9.790   6.344 -3.1525 -0.4170 -1.0065
40604SOL     OW25403   9.940   0.033   0.373  0.1066  0.3217 -0.2204
40604SOL    HW125404   9.912   0.122   0.395  0.4571  0.4735 -0.3768
40604SOL    HW225405   9.860  -0.011   0.344 -0.2157  0.3493  0.5917
40605SOL     OW25406   1.004  10.238  10.056 -0.5031  0.2902 -0.2447
40605SOL    HW125407   1.099  10.238  10.072 -0.6305  0.0671  0.5995
40605SOL    HW225408   0.971  10.171  10.115 -1.2676  0.8590 -0.0133
40606SOL     OW25409   9.107   1.916   3.488 -0.5829  0.1994 -0.3843
40606SOL    HW125410   9.128   1.906   3.395 -0.9466 -1.2353 -0.3404
40606SOL    HW225411   9.084   2.008   3.498  0.4516  0.6025 -1.5028
40607SOL     OW25412   3.427   1.769   3.434 -0.2679  0.0754  0.0121
40607SOL    HW125413   3.438   1.776   3.529 -0.2957 -1.3109  0.1450
40607SOL    HW225414   3.373   1.844   3.410 -1.3005 -0.2163  1.2929
40608SOL     OW25415   3.684  10.662   6.364 -0.7954  0.0463 -0.1575
40608SOL    HW125416   3.716  10.721   6.433  0.3483 -1.4005  0.6082
40608SOL    HW225417   3.719  10.700   6.283 -0.2829  0.5531  0.2864
40609SOL     OW25418   6.526   9.674   3.472  0.1716 -0.4585 -0.0954
40609SOL    HW125419   6.496   9.670   3.563  0.1534 -0.5500 -0.1045
40609SOL    HW225420   6.601   9.615   3.469  0.1582 -0.4730 -0.1445
40610SOL     OW25421   0.591   3.146   7.283  0.0349  0.3927  0.1640
40610SOL    HW125422   0.668   3.202   7.288  0.6696 -0.3809 -0.6804
40610SOL    HW225423   0.627   3.058   7.267 -0.8973 -0.3469  1.8129
40611SOL     OW25424   6.216   0.502   9.825  0.1412 -0.1123  0.1138
40611SOL    HW125425   6.218   0.407   9.835 -1.1500 -0.3218 -1.3988
40611SOL    HW225426   6.186   0.534   9.910 -0.3595 -1.1129  0.3276
40612SOL     OW25427  10.271   3.626   4.497  0.3741 -0.3253  0.6406
40612SOL    HW125428  10.243   3.664   4.580 -1.0172  1.7486 -0.6997
40612SOL    HW225429  10.198   3.570   4.469 -0.3596  1.1058 -0.4274
40613SOL     OW25430   7.010   8.274   5.772  0.2727  0.2821 -0.9053
40613SOL    HW125431   6.956   8.227   5.709  0.8587 -0.3044 -0.9892
40613SOL    HW225432   7.097   8.234   5.763  0.6664  1.0510 -0.6234
40614SOL     OW25433   1.595   3.672   3.357 -0.2664 -0.2738  0.7485
40614SOL    HW125434   1.643   3.618   3.421  0.3279 -0.3553  0.2462
40614SOL    HW225435   1.614   3.762   3.383 -0.1444 -0.3056  0.7715
40615SOL     OW25436   0.701   5.171  10.203 -0.2430 -0.0729 -0.1039
40615SOL    HW125437   0.714   5.077  10.214  0.9654  0.0998  0.1539
40615SOL    HW225438   0.790   5.206  10.192 -0.6289  1.0903  0.3073
40616SOL     OW25439   9.369   7.710   9.275 -0.3137  0.1088  0.0166
40616SOL    HW125440   9.326   7.639   9.227  0.5885 -1.1720  1.0223
40616SOL    HW225441   9.301   7.745   9.333 -1.8044  2.5587 -2.9622
40617SOL     OW25442   6.361   3.928   1.433 -0.5026  0.1683 -0.0759
40617SOL    HW125443   6.456   3.940   1.438 -0.4193 -0.2535 -0.5396
40617SOL    HW225444   6.324   4.004   1.478  0.0581 -1.0457  2.6110
40618SOL     OW25445   2.381   5.289   8.838 -0.0385  0.0069 -0.1926
40618SOL    HW125446   2.322   5.216   8.821 -0.2615 -0.0109  0.6030
40618SOL    HW225447   2.392   5.332   8.753  0.6671 -1.3602 -0.8196
40619SOL     OW25448   7.995   0.827   4.494 -0.5537  0.1391  0.0393
40619SOL    HW125449   7.931   0.897   4.480 -0.9204  0.2220  1.8932
40619SOL    HW225450   7.952   0.767   4.555  1.1085  0.2098  1.3489
40620SOL     OW25451   3.393   7.592   2.050  0.3316  0.5406  0.8186
40620SOL    HW125452   3.370   7.632   2.133  1.4142  2.0143  0.4445
40620SOL    HW225453   3.359   7.652   1.984  0.7296  0.1226  0.2201
40621SOL     OW25454   1.444  11.082   5.511 -0.2401 -0.3395 -0.1725
40621SOL    HW125455   1.381  11.145   5.476  1.0836  1.2208  0.1515
40621SOL    HW225456   1.491  11.051   5.434  0.7279  0.9317 -0.1313
40622SOL     OW25457   6.011   4.732  10.964  0.3759  0.0761 -0.2576
40622SOL    HW125458   5.942   4.666  10.958  0.6670 -0.2210 -0.3121
40622SOL    HW225459   6.012   4.757  11.056  1.4121 -1.2192  0.1084
40623SOL     OW25460   0.298   6.905   7.217 -0.2700 -0.0154 -0.4189
40623SOL    HW125461   0.252   6.822   7.208  0.9483 -0.6987 -0.5389
40623SOL    HW225462   0.329   6.906   7.308  0.5003 -0.1227 -0.6735
40624SOL     OW25463   0.657   9.345   4.043  0.4038 -0.2513 -0.1074
40624SOL    HW125464   0.699   9.431   4.030 -0.6180  0.1066 -1.1871
40624SOL    HW225465   0.565   9.365   4.056  0.3438 -1.1238  0.9877
40625SOL     OW25466   5.018   7.638   7.728 -0.1587  0.2932 -0.3208
40625SOL    HW125467   4.968   7.711   7.764 -0.6316  0.2422 -0.8678
40625SOL    HW225468   5.062   7.600   7.804 -0.0502  1.0310 -0.0016
40626SOL     OW25469   0.623   2.404   3.273  0.5783  0.0885 -0.0874
40626SOL    HW125470   0.647   2.323   3.320 -1.9348 -0.5650  0.2043
40626SOL    HW225471   0.621   2.378   3.181  0.8539  0.1123 -0.1005
40627SOL     OW25472  10.759  10.453   6.331 -0.2519 -0.0427 -0.7502
40627SOL    HW125473  10.778  10.503   6.411 -0.2968  1.1675 -1.4762
40627SOL    HW225474  10.825  10.383   6.331 -1.2887 -1.1025  1.1946
40628SOL     OW25475  10.061   3.481   6.992 -0.1491 -0.1068  0.1577
40628SOL    HW125476  10.098   3.424   7.060 -0.0093  1.6025  1.5700
40628SOL    HW225477  10.006   3.422   6.940  3.0166 -2.3714 -0.9399
40629SOL     OW25478  10.972   3.583   1.215 -0.0714  0.5346 -0.3206
40629SOL    HW125479  10.925   3.646   1.269  0.3994  0.8432 -0.2612
40629SOL    HW225480  11.018   3.637   1.151 -0.7956  0.1654 -1.1743
40630SOL     OW25481   2.071   1.299   5.524 -0.3695  0.4804  0.1002
40630SOL    HW125482   2.082   1.205   5.536 -1.5228  0.4098  0.7019
40630SOL    HW225483   2.157   1.336   5.542  0.5780 -0.5950 -1.8768
40631SOL     OW25484   1.639   7.030   1.156 -0.2260 -0.0957  0.6265
40631SOL    HW125485   1.583   7.041   1.080  1.0974  1.5880 -0.1608
40631SOL    HW225486   1.605   7.092   1.220 -0.5084 -0.5542  0.9303
40632SOL     OW25487   8.453   4.709   4.939 -0.2206  0.2147  0.4833
40632SOL    HW125488   8.359   4.690   4.931 -0.8734  2.4836  1.7032
40632SOL    HW225489   8.459   4.767   5.015  2.0851  0.7838 -0.0511
40633SOL     OW25490   0.684  10.081  10.903 -0.0617  0.6481  0.2754
40633SOL    HW125491   0.698  10.155  10.962 -1.7660  1.6181 -0.4567
40633SOL    HW225492   0.623  10.114  10.837  0.5748 -0.8671 -1.1464
40634SOL     OW25493  10.728   9.219   1.272 -0.4220 -0.3366 -1.0250
40634SOL    HW125494  10.800   9.273   1.306  0.9050 -1.8832 -1.2646
40634SOL    HW225495  10.728   9.236   1.178 -0.0736 -0.6845 -1.0867
40635SOL     OW25496  10.862   2.075   6.919  0.1495 -0.2584  0.3748
40635SOL    HW125497  10.859   1.979   6.913 -1.4985 -0.3239  1.3953
40635SOL    HW225498  10.796   2.104   6.856  2.0591  0.3602 -1.4427
40636SOL     OW25499   9.616   3.795   0.667 -0.3846 -0.3139  0.2164
40636SOL    HW125500   9.540   3.754   0.625  0.2359 -0.7299 -0.5294
40636SOL    HW225501   9.593   3.888   0.671 -1.2352 -0.5334  0.6661
40637SOL     OW25502   4.776  10.278   1.294  0.2820  0.0850 -0.2760
40637SOL    HW125503   4.822  10.300   1.375  1.4411 -2.0714 -0.2975
40637SOL    HW225504   4.685  10.303   1.311  0.8980  1.7509  0.8316
40638SOL     OW25505   2.761   7.230   7.627  0.0217 -0.4046  0.5744
40638SOL    HW125506   2.736   7.215   7.536  1.5023 -1.0707  0.2388
40638SOL    HW225507   2.723   7.315   7.649 -1.6427 -0.9321 -0.1624
40639SOL     OW25508   7.852   3.454   5.360  0.0869 -0.3006  0.6626
40639SOL    HW125509   7.760   3.434   5.340  0.1171  1.6162 -1.9320
40639SOL    HW225510   7.896   3.370   5.358 -0.9779 -0.9037 -2.1651
40640SOL     OW25511   5.220   6.104   8.645 -0.1774 -0.0140 -0.3103
40640SOL    HW125512   5.251   6.018   8.675  0.3645  0.4025  0.3615
40640SOL    HW225513   5.125   6.092   8.633 -0.0519 -0.8018 -0.5837
40641SOL     OW25514   0.623   5.916   1.655 -0.3053  0.1288  0.0356
40641SOL    HW125515   0.651   5.862   1.729 -0.1587 -0.5137 -0.4828
40641SOL    HW225516   0.527   5.915   1.661 -0.3182  2.2689  1.7626
40642SOL     OW25517   9.285   7.152   8.616 -0.1328  0.1381  0.0139
40642SOL    HW125518   9.201   7.113   8.640 -0.3269  0.7714  0.3690
40642SOL    HW225519   9.263   7.234   8.574  0.3547  1.9458  3.0137
40643SOL     OW25520  10.846   4.506   2.728 -0.5504  0.5519 -0.7702
40643SOL    HW125521  10.756   4.482   2.746 -0.0243 -0.1448  1.0814
40643SOL    HW225522  10.850   4.600   2.745 -0.5476  0.2721  0.8863
40644SOL     OW25523   8.551   8.320   0.386  0.8001 -0.3683  0.1508
40644SOL    HW125524   8.615   8.249   0.391 -0.0718 -1.1358  0.7566
40644SOL    HW225525   8.583   8.386   0.448  1.8040 -0.0588 -0.6761
40645SOL     OW25526   5.998   4.118   7.608  0.2367 -0.0115 -0.0415
40645SOL    HW125527   6.003   4.091   7.699  0.9628  0.1086 -0.0401
40645SOL    HW225528   5.914   4.162   7.600  0.0619 -0.2472  0.5095
40646SOL     OW25529   6.877   5.095   6.405  0.4833 -0.0120  0.3225
40646SOL    HW125530   6.858   5.067   6.494  1.2047 -2.1567 -0.1388
40646SOL    HW225531   6.971   5.116   6.406  0.5195 -0.1544  0.0347
40647SOL     OW25532   9.023   0.609   9.935  0.5892 -0.2164 -0.2477
40647SOL    HW125533   9.062   0.650  10.012  0.7534 -1.0243  0.1048
40647SOL    HW225534   8.973   0.680   9.893  2.7645  0.9801 -0.9714
40648SOL     OW25535   2.340   2.639   2.017  0.1017 -0.2065  0.2804
40648SOL    HW125536   2.322   2.714   2.074  0.5982  0.0150  0.1490
40648SOL    HW225537   2.393   2.674   1.946 -0.6271 -0.4561 -0.4050
40649SOL     OW25538   0.283   0.561   0.524 -0.6296  0.5256  0.0818
40649SOL    HW125539   0.239   0.609   0.453  0.7668  0.1072 -1.1133
40649SOL    HW225540   0.240   0.476   0.525  0.4967 -0.1122 -1.5138
40650SOL     OW25541   6.222   0.946   4.429 -0.2711  0.1085 -0.4147
40650SOL    HW125542   6.142   0.936   4.379 -0.3245 -1.1857 -0.1089
40650SOL    HW225543   6.278   0.874   4.400  0.3471  0.3378  0.1755
40651SOL     OW25544   4.183   4.323  11.106  0.2697  0.1241 -0.1435
40651SOL    HW125545   4.222   4.345  11.190  0.9941  1.4238 -0.7936
40651SOL    HW225546   4.170   4.407  11.062 -0.3274 -0.5109 -1.2400
40652SOL     OW25547   1.900   1.181   7.242  0.2596 -0.0047  0.2399
40652SOL    HW125548   1.819   1.157   7.287  0.1413 -0.7479 -0.3338
40652SOL    HW225549   1.892   1.140   7.156  0.5616  1.2320 -0.3920
40653SOL     OW25550   8.431   1.063   1.988 -0.0275 -0.2053 -0.1907
40653SOL    HW125551   8.370   1.071   2.061 -0.2583 -1.5928 -0.1939
40653SOL    HW225552   8.490   0.992   2.014  2.0677  1.5476  0.1124
40654SOL     OW25553   4.887   9.251   8.432  0.4427  0.5263 -0.0798
40654SOL    HW125554   4.863   9.161   8.409 -1.1136  0.7619  0.5134
40654SOL    HW225555   4.930   9.245   8.517  1.0488  0.2823 -0.3932
40655SOL     OW25556   7.710   3.337   5.628  0.5407 -0.0922 -0.5435
40655SOL    HW125557   7.731   3.389   5.550  2.2613  0.3662  0.1527
40655SOL    HW225558   7.659   3.397   5.683 -0.0935 -0.1880 -1.0171
40656SOL     OW25559   2.857   8.413   6.483 -0.0753  0.0495 -0.6916
40656SOL    HW125560   2.782   8.405   6.543  0.9554  1.7311  0.9228
40656SOL    HW225561   2.819   8.444   6.401 -1.4902 -2.0280 -0.8941
40657SOL     OW25562   1.829   6.108   9.043 -0.0725 -0.0613 -0.5361
40657SOL    HW125563   1.884   6.043   8.999  1.2999 -0.4206  1.5778
40657SOL    HW225564   1.756   6.057   9.079 -0.4498  0.0267 -1.1478
40658SOL     OW25565   7.727   0.030   8.449 -0.3000 -0.0932  0.1094
40658SOL    HW125566   7.768  -0.019   8.378  0.4951  2.6606 -1.4622
40658SOL    HW225567   7.634   0.009   8.442 -0.3393  0.5858 -2.2267
40659SOL     OW25568   4.776  10.573   4.959 -0.0479 -0.0061  0.4890
40659SOL    HW125569   4.761  10.663   4.986  2.2299  0.6412 -0.2035
40659SOL    HW225570   4.779  10.523   5.040  1.6428  1.0734  1.1427
40660SOL     OW25571   6.583   1.304   5.860  0.1224 -0.3148  0.1501
40660SOL    HW125572   6.496   1.270   5.841  0.1196 -0.5570  0.5873
40660SOL    HW225573   6.599   1.280   5.951 -0.0962  1.3116  0.6478
40661SOL     OW25574   6.506   0.793   3.558 -0.3160 -0.0709 -0.1418
40661SOL    HW125575   6.467   0.714   3.594  0.1452 -0.3048 -0.1418
40661SOL    HW225576   6.600   0.784   3.575 -0.0850 -0.1823 -1.3770
40662SOL     OW25577   3.730   5.202   0.124 -0.0860  0.9444  0.7085
40662SOL    HW125578   3.814   5.198   0.079 -0.0982  0.8836  0.6908
40662SOL    HW225579   3.750   5.237   0.211  0.0252  0.4909  0.8670
40663SOL     OW25580  10.219   9.422  10.076  0.1629  0.1859 -0.1002
40663SOL    HW125581  10.139   9.372  10.088 -0.2219  0.3468 -1.7990
40663SOL    HW225582  10.233   9.466  10.160 -1.7479  0.4647  0.1014
40664SOL     OW25583   5.480   3.139   7.010 -0.1247 -0.5979  0.5547
40664SOL    HW125584   5.386   3.129   6.993 -0.0788 -0.6235  0.3157
40664SOL    HW225585   5.492   3.101   7.097 -0.2011 -1.3236  0.2535
40665SOL     OW25586   6.719   7.639   3.096  0.7635 -0.2496 -0.1405
40665SOL    HW125587   6.814   7.647   3.088  0.6409  0.0934 -1.4812
40665SOL    HW225588   6.697   7.562   3.043  0.0053  1.3702 -2.3071
40666SOL     OW25589   2.400   1.482  10.191 -0.0555  0.0194 -0.2861
40666SOL    HW125590   2.373   1.492  10.282 -1.1943 -0.3976 -0.5540
40666SOL    HW225591   2.319   1.459  10.145  0.6023 -0.3165 -1.3077
40667SOL     OW25592   5.549   5.267   8.613  0.2848 -0.7837  0.1195
40667SOL    HW125593   5.513   5.192   8.566  0.9043 -1.6511  0.9751
40667SOL    HW225594   5.541   5.340   8.552 -1.4107 -1.2863 -0.2973
40668SOL     OW25595   5.818   9.358   4.354  0.2292 -0.1439  0.0025
40668SOL    HW125596   5.825   9.281   4.410  0.0012 -0.4104 -0.3318
40668SOL    HW225597   5.825   9.324   4.265 -4.4826 -0.4898 -0.5029
40669SOL     OW25598   4.719   0.990   1.412 -0.4206  0.7304 -0.2406
40669SOL    HW125599   4.664   0.979   1.335  0.5725 -0.4163 -0.8235
40669SOL    HW225600   4.667   0.956   1.485 -0.6639  0.1064 -0.7006
40670SOL     OW25601   1.707   1.487   4.415 -0.2847  0.1798 -0.3851
40670SOL    HW125602   1.759   1.562   4.388  1.1506 -1.1857 -1.5851
40670SOL    HW225603   1.715   1.485   4.511  0.6973  0.8382 -0.4456
40671SOL     OW25604   4.067   2.592   9.936 -0.0898 -0.1273 -0.5865
40671SOL    HW125605   4.151   2.559   9.968 -0.5521  0.4799  1.4186
40671SOL    HW225606   4.057   2.677   9.980 -2.3594 -0.7853  0.2938
40672SOL     OW25607   5.868  10.417   0.135  0.4656 -0.1870 -0.3911
40672SOL    HW125608   5.925  10.344   0.110 -0.7519 -0.2004 -3.4695
40672SOL    HW225609   5.780  10.381   0.131 -0.0801  1.1076 -0.5396
40673SOL     OW25610  10.708   0.890   0.287  0.4630 -0.2385 -0.4922
40673SOL    HW125611  10.683   0.916   0.199  2.6409  1.0023 -0.8269
40673SOL    HW225612  10.788   0.840   0.276  0.0138 -1.2745  0.7095
40674SOL     OW25613   2.896   6.859   1.025  0.0142 -0.3856  0.0293
40674SOL    HW125614   2.867   6.949   1.009  0.8726  0.0803  0.9718
40674SOL    HW225615   2.849   6.807   0.960 -1.8560  0.5113  0.5903
40675SOL     OW25616   2.659   1.684   8.492 -0.0907 -0.4640  1.2188
40675SOL    HW125617   2.632   1.664   8.403 -0.6943 -0.2729  1.3544
40675SOL    HW225618   2.677   1.778   8.492 -1.2516 -0.2237  1.5766
40676SOL     OW25619   2.800   1.162   8.686 -0.3794  0.0080 -0.3159
40676SOL    HW125620   2.767   1.129   8.770 -2.1623  1.8445 -0.1956
40676SOL    HW225621   2.846   1.088   8.648 -2.2412 -1.9049  0.8715
40677SOL     OW25622   1.938  10.376   5.697  0.3168 -0.4303 -0.1841
40677SOL    HW125623   1.905  10.308   5.638 -1.4234 -1.1319  1.5063
40677SOL    HW225624   1.912  10.459   5.655  1.8360 -0.7412 -1.8994
40678SOL     OW25625   7.252   0.025   6.878 -0.0920  0.4945  0.5911
40678SOL    HW125626   7.315  -0.027   6.828  0.7048  1.5862  0.4298
40678SOL    HW225627   7.278   0.011   6.969 -0.2479  0.1479  0.5837
40679SOL     OW25628   0.275   6.539  10.793 -0.6474  0.6208 -0.0940
40679SOL    HW125629   0.233   6.466  10.839 -0.8335  0.7290 -0.0921
40679SOL    HW225630   0.239   6.618  10.834  0.6917  0.7216  0.9463
40680SOL     OW25631  10.677   9.126   4.376 -0.3551  0.1980 -0.1694
40680SOL    HW125632  10.684   9.032   4.394  0.3773  0.0022 -1.3146
40680SOL    HW225633  10.665   9.167   4.462 -1.7204 -1.0132  0.2570
40681SOL     OW25634   4.261   6.765   4.650  0.2483  0.0636 -0.3128
40681SOL    HW125635   4.274   6.860   4.647  1.4687 -0.1128 -2.3143
40681SOL    HW225636   4.336   6.732   4.700  0.1682  0.1095 -0.1628
40682SOL     OW25637  10.010   3.718   1.278  0.5930  0.2982  0.6044
40682SOL    HW125638   9.966   3.782   1.223  1.6553  1.2427  0.7978
40682SOL    HW225639  10.031   3.646   1.219  0.3834  0.6366  0.1086
40683SOL     OW25640   3.291   2.651   7.533 -0.0469  0.6532  0.3298
40683SOL    HW125641   3.335   2.698   7.462 -0.0492  0.3028  0.0913
40683SOL    HW225642   3.226   2.712   7.566 -1.7065  0.0180 -1.5515
40684SOL     OW25643  10.766   6.601   7.727  0.3536 -1.0844  0.1473
40684SOL    HW125644  10.697   6.665   7.745  2.5414  1.5642 -0.1858
40684SOL    HW225645  10.818   6.598   7.807  1.5914 -0.6755 -0.6213
40685SOL     OW25646   0.254   3.855   0.694  0.4397  0.3904  0.2809
40685SOL    HW125647   0.229   3.935   0.649 -0.5373 -1.1924 -2.2054
40685SOL    HW225648   0.334   3.826   0.649  0.8193  0.0020  1.1836
40686SOL     OW25649   9.922   6.718   4.940  0.1138 -0.1733 -0.6222
40686SOL    HW125650  10.005   6.748   4.903  1.2466 -2.0694  0.2069
40686SOL    HW225651   9.936   6.722   5.035 -0.1102 -1.9709 -0.4744
40687SOL     OW25652   8.428   3.806   8.470  0.3002  0.3826 -0.2758
40687SOL    HW125653   8.355   3.798   8.408  1.2157 -0.4079 -1.2951
40687SOL    HW225654   8.464   3.892   8.452  0.0771  0.4735 -0.2957
40688SOL     OW25655   1.702   5.811   9.786 -0.0252 -0.0797  0.3295
40688SOL    HW125656   1.795   5.831   9.773 -0.0522  0.7681  1.2688
40688SOL    HW225657   1.701   5.744   9.854 -0.1156  0.8017  1.2314
40689SOL     OW25658   5.681   0.199   2.182 -0.0614 -0.7405 -0.1618
40689SOL    HW125659   5.758   0.146   2.204  1.2376  0.6535 -1.0437
40689SOL    HW225660   5.704   0.287   2.213 -2.4446 -0.7399  1.9313
40690SOL     OW25661   3.760   8.914  10.357 -0.1177 -0.1852  0.1006
40690SOL    HW125662   3.720   8.957  10.281  0.3429 -0.8527 -0.5222
40690SOL    HW225663   3.768   8.985  10.421 -2.6318 -0.0764  0.4146
40691SOL     OW25664   7.194   4.648  10.878 -0.1578  0.0887  0.1088
40691SOL    HW125665   7.125   4.695  10.831 -0.2369 -0.4711 -0.3430
40691SOL    HW225666   7.189   4.681  10.968 -1.7706 -0.7773  0.3636
40692SOL     OW25667   4.571   4.181   6.825 -0.0460 -0.7415  0.0571
40692SOL    HW125668   4.534   4.134   6.899 -1.4137  0.2000  0.0033
40692SOL    HW225669   4.655   4.214   6.857 -0.9989  0.3931  1.5056
40693SOL     OW25670   0.924   8.542   3.605 -0.0817  0.1563 -0.3831
40693SOL    HW125671   0.964   8.570   3.687  1.0820 -2.0423 -0.1438
40693SOL    HW225672   0.954   8.607   3.540  1.4178  0.2521  0.3701
40694SOL     OW25673   7.567   8.675   0.115  0.1070  0.0180  0.4581
40694SOL    HW125674   7.484   8.626   0.122  0.9669 -1.5070  0.4178
40694SOL    HW225675   7.605   8.670   0.203  0.0322  0.9813  0.5541
40695SOL     OW25676   7.474   5.180   9.115 -0.0773  0.3892 -0.3355
40695SOL    HW125677   7.521   5.260   9.141  1.6153  0.1246 -2.3506
40695SOL    HW225678   7.451   5.138   9.198  0.8736  1.9141  0.7492
40696SOL     OW25679   5.102   5.122   3.580 -0.1810  0.0874 -0.1496
40696SOL    HW125680   5.196   5.136   3.588 -0.5710  1.9592  1.9610
40696SOL    HW225681   5.078   5.071   3.657 -1.0573  0.5570 -0.0998
40697SOL     OW25682   2.199   8.687   8.575 -0.1248 -0.0510 -0.0726
40697SOL    HW125683   2.149   8.635   8.512 -1.4226  1.7868 -0.6397
40697SOL    HW225684   2.236   8.758   8.523 -0.1485  0.7755  1.0104
40698SOL     OW25685   3.047   6.267   5.248 -0.0410  0.3582 -0.6982
40698SOL    HW125686   3.069   6.228   5.164 -0.7664 -2.3307  0.2493
40698SOL    HW225687   2.992   6.202   5.291  1.3467  1.0277  2.3772
40699SOL     OW25688   4.271   4.304   4.561 -0.3664 -0.8038  0.0589
40699SOL    HW125689   4.345   4.346   4.605 -0.1990 -0.9477 -0.0861
40699SOL    HW225690   4.299   4.295   4.470 -1.0211  0.2265 -0.2688
40700SOL     OW25691   7.579   9.867   9.967 -0.0817 -0.3132  1.1482
40700SOL    HW125692   7.602   9.788   9.919 -0.3333 -0.2734  0.9634
40700SOL    HW225693   7.563   9.838  10.056 -1.0251 -0.6009  0.8938
40701SOL     OW25694   6.086   8.985   7.116 -0.7277  0.3734  0.0948
40701SOL    HW125695   6.024   8.996   7.187 -0.2028 -3.2238  1.3489
40701SOL    HW225696   6.063   8.900   7.077  2.7725 -0.7824  0.1324
40702SOL     OW25697   2.470   0.381   2.904 -0.0828  0.0048 -0.4913
40702SOL    HW125698   2.438   0.291   2.900  0.6472 -0.4459  1.9399
40702SOL    HW225699   2.565   0.372   2.893  0.1502  0.2831  1.1013
40703SOL     OW25700   2.227   1.680   9.180  0.0282 -0.4938  0.9603
40703SOL    HW125701   2.180   1.605   9.143  0.6839 -0.7784  0.6790
40703SOL    HW225702   2.317   1.648   9.193  0.5551  0.5136 -0.0475
40704SOL     OW25703   0.072   2.520   2.432 -0.0006  0.3291 -0.2892
40704SOL    HW125704   0.129   2.448   2.404  0.1624  0.2568  0.2159
40704SOL    HW225705  -0.017   2.486   2.420  0.0669  0.2950 -0.6981
40705SOL     OW25706   2.885  10.013   3.287 -0.1140  0.5816 -0.1870
40705SOL    HW125707   2.908   9.963   3.208  1.5245  0.4128  0.3499
40705SOL    HW225708   2.949  10.084   3.289  0.6352 -0.0913  1.5964
40706SOL     OW25709   3.146   5.494   6.749  0.2541  0.1317  0.4714
40706SOL    HW125710   3.098   5.569   6.783  1.0281  0.0683  1.7817
40706SOL    HW225711   3.084   5.421   6.754 -0.4385  0.6191 -0.6265
40707SOL     OW25712  10.228   7.941   8.261  0.2886 -0.0326  0.5319
40707SOL    HW125713  10.244   8.028   8.225  0.1115  0.2680  1.1598
40707SOL    HW225714  10.156   7.906   8.208 -0.9027  0.9465  1.4501
40708SOL     OW25715   2.516   8.157   1.655  0.3294  0.4339 -0.0029
40708SOL    HW125716   2.492   8.067   1.635 -1.2658  0.9362 -0.5347
40708SOL    HW225717   2.475   8.209   1.586 -0.8332  1.7648  1.5965
40709SOL     OW25718  10.113   6.326   4.583  0.0170  0.5157  0.0736
40709SOL    HW125719  10.137   6.413   4.552  0.7774 -0.3224 -1.8994
40709SOL    HW225720  10.195   6.289   4.617 -0.3174  0.5863  0.9769
40710SOL     OW25721  10.266   9.373   9.572  0.1077  0.6252 -0.4277
40710SOL    HW125722  10.189   9.327   9.539 -1.5337  2.9242 -0.0645
40710SOL    HW225723  10.271   9.346   9.664 -2.4867  3.0157  0.5575
40711SOL     OW25724   0.638   0.143   3.915  0.1300  0.0194  0.1540
40711SOL    HW125725   0.716   0.130   3.970  0.2775  1.2018  0.2688
40711SOL    HW225726   0.670   0.194   3.841 -0.7028  1.4394  0.7317
40712SOL     OW25727   2.335   5.861   7.903 -0.0721  0.2640  0.2183
40712SOL    HW125728   2.353   5.914   7.980  0.4987  0.1946  0.1350
40712SOL    HW225729   2.419   5.855   7.857 -0.1106 -0.7455  0.2563
40713SOL     OW25730   5.069   1.456   8.276 -0.3097 -0.5764  0.0357
40713SOL    HW125731   5.003   1.499   8.331  0.7215  1.2856 -0.0848
40713SOL    HW225732   5.147   1.452   8.331  0.7699  1.3924 -1.1961
40714SOL     OW25733   0.671  10.715   7.625  0.7143 -0.1413  0.3694
40714SOL    HW125734   0.617  10.761   7.560  0.3852 -0.2147  0.5903
40714SOL    HW225735   0.647  10.623   7.615  0.9074 -0.1918  0.3677
40715SOL     OW25736  10.018   1.017   6.037 -0.2138  0.6124  0.2876
40715SOL    HW125737  10.006   1.036   6.130 -1.5057  0.5533  0.1531
40715SOL    HW225738   9.930   0.994   6.006 -0.6621  4.3254 -1.7877
40716SOL     OW25739   1.243  10.706   1.051  0.3853 -0.2742  0.0426
40716SOL    HW125740   1.202  10.680   0.968  0.6774 -0.0677 -0.1693
40716SOL    HW225741   1.185  10.773   1.086  1.4527  1.3856 -1.1619
40717SOL     OW25742  10.645   0.674   7.198  0.7128  0.6038 -0.1733
40717SOL    HW125743  10.555   0.704   7.188 -0.0952 -1.5885 -0.0200
40717SOL    HW225744  10.682   0.733   7.264 -1.1794  0.4910  1.0897
40718SOL     OW25745   2.153   3.254   3.004  0.4615  0.0334  0.5359
40718SOL    HW125746   2.225   3.191   2.999  1.0078  0.7181 -1.6228
40718SOL    HW225747   2.076   3.203   2.979  0.4577 -0.3558  1.3292
40719SOL     OW25748   5.658   9.830   6.891 -0.4112 -0.3526  0.2325
40719SOL    HW125749   5.744   9.831   6.848 -0.4443 -1.2284  0.1316
40719SOL    HW225750   5.625   9.919   6.881  0.9465  0.3028  1.2112
40720SOL     OW25751   8.491   0.709   3.502 -0.1713 -0.2570 -0.5460
40720SOL    HW125752   8.430   0.665   3.443  0.3496 -1.4339 -0.2613
40720SOL    HW225753   8.477   0.666   3.587  1.0881 -0.6336 -0.5025
40721SOL     OW25754   1.512  10.959   2.104 -0.4232 -0.3529 -0.2741
40721SOL    HW125755   1.531  10.866   2.114  0.4146 -0.4445 -2.1894
40721SOL    HW225756   1.459  10.964   2.025  0.7160  0.8914 -1.0090
40722SOL     OW25757   3.246   7.886   9.901  0.3678 -0.0833 -0.6082
40722SOL    HW125758   3.274   7.820   9.838 -0.7289 -0.1369 -1.0610
40722SOL    HW225759   3.282   7.968   9.866  0.2668 -0.1990 -0.9980
40723SOL     OW25760   2.884   4.138   9.672 -0.4076  0.1519  0.2253
40723SOL    HW125761   2.944   4.179   9.610  0.1491 -0.2703  0.4716
40723SOL    HW225762   2.912   4.172   9.757 -0.6804  0.1418  0.3192
40724SOL     OW25763   7.524   0.630   4.426  0.4102  0.0150  0.2103
40724SOL    HW125764   7.429   0.644   4.422  0.4867  0.3995 -0.3319
40724SOL    HW225765   7.559   0.713   4.459  0.5596 -0.1295  0.4174
40725SOL     OW25766  10.737  10.659  10.392  0.2150  0.4783 -0.4146
40725SOL    HW125767  10.673  10.640  10.460 -0.5443  0.5869 -1.0859
40725SOL    HW225768  10.817  10.683  10.440  0.3244 -1.3918  0.4517
40726SOL     OW25769   8.819   3.919   1.196 -0.1183  0.8272  0.2517
40726SOL    HW125770   8.869   4.001   1.194  1.4430 -0.0916  0.0101
40726SOL    HW225771   8.837   3.883   1.283 -0.0574  0.2957  0.0169
40727SOL     OW25772   6.101   0.212   5.724  0.7515 -0.4027  0.1052
40727SOL    HW125773   6.013   0.209   5.685  0.8269 -1.9755  0.0040
40727SOL    HW225774   6.150   0.271   5.667  0.1379 -0.6163 -0.6639
40728SOL     OW25775  11.035   9.991   2.171  0.2657  0.5550  0.2143
40728SOL    HW125776  11.117   9.941   2.175 -0.7828 -1.2879 -0.3904
40728SOL    HW225777  11.003   9.991   2.261 -0.7644 -1.7795 -0.0779
40729SOL     OW25778   3.676   7.760   2.860  0.1351 -0.3553  0.2604
40729SOL    HW125779   3.605   7.814   2.896  1.1350  0.9942  0.2721
40729SOL    HW225780   3.631   7.695   2.806 -1.1049  0.6123  0.0708
40730SOL     OW25781   4.128   4.714   1.325  0.1810 -0.6019  0.1020
40730SOL    HW125782   4.200   4.671   1.279  0.5174 -0.9793  0.9480
40730SOL    HW225783   4.064   4.735   1.257  0.3042 -1.8656 -0.4342
40731SOL     OW25784   1.775   7.319   4.765 -0.4948 -0.0503 -0.1113
40731SOL    HW125785   1.765   7.400   4.816 -1.6537  0.1846 -0.6791
40731SOL    HW225786   1.808   7.255   4.829 -0.8978  0.5162  0.6870
40732SOL     OW25787   3.773  10.218  10.070 -0.0593 -0.3837 -0.1497
40732SOL    HW125788   3.713  10.171  10.127 -0.1345 -2.1261 -1.5887
40732SOL    HW225789   3.859  10.208  10.112 -0.5434  1.2617  1.3797
40733SOL     OW25790   0.604   1.931   2.775 -0.1981  0.1261 -0.2946
40733SOL    HW125791   0.556   1.918   2.694 -0.1565  0.8507 -0.4393
40733SOL    HW225792   0.667   1.859   2.777 -0.0190  0.2521 -1.0393
40734SOL     OW25793   2.786   8.446   2.510  0.5442 -0.7239  0.4748
40734SOL    HW125794   2.771   8.515   2.575  0.6900 -0.8635  0.6572
40734SOL    HW225795   2.750   8.482   2.429 -0.3493 -0.8639  0.7956
40735SOL     OW25796   1.314   1.171   6.919  0.3193 -0.3599  0.2818
40735SOL    HW125797   1.372   1.188   6.993 -0.2920  0.7680  0.5328
40735SOL    HW225798   1.359   1.106   6.866  1.5715  0.1233  0.7369
40736SOL     OW25799  10.724   8.143   4.650  0.0369  0.1812  0.4339
40736SOL    HW125800  10.672   8.177   4.576  0.5896  1.5600  0.6452
40736SOL    HW225801  10.675   8.170   4.728  0.0703 -0.2136  0.5897
40737SOL     OW25802   3.935  10.469   6.795 -0.5234 -0.1390 -0.1234
40737SOL    HW125803   3.855  10.514   6.822  0.0101  1.0482 -0.4483
40737SOL    HW225804   3.909  10.421   6.716 -0.7199  1.0442 -0.8222
40738SOL     OW25805   1.042   4.542   1.841  0.2983  0.3076 -0.4172
40738SOL    HW125806   1.001   4.559   1.756 -0.1192 -1.2587 -0.5573
40738SOL    HW225807   1.021   4.451   1.860 -0.3696  0.8631  1.7985
40739SOL     OW25808   7.710   6.900   0.077  0.1445 -0.3059  0.5304
40739SOL    HW125809   7.648   6.970   0.098 -1.9295 -1.5399 -1.1398
40739SOL    HW225810   7.680   6.825   0.128  2.7175  0.0506  2.7954
40740SOL     OW25811   0.810   1.142   0.894 -0.7354 -0.4161 -0.9127
40740SOL    HW125812   0.826   1.216   0.835 -1.0179  0.0926 -0.3739
40740SOL    HW225813   0.736   1.171   0.948 -0.0727 -0.5877  0.1293
40741SOL     OW25814   1.077   6.821   4.135  0.6970 -0.0097 -0.0101
40741SOL    HW125815   1.068   6.780   4.049 -0.1934  1.0682 -0.4546
40741SOL    HW225816   1.027   6.903   4.128  0.0058 -0.2334  1.7467
40742SOL     OW25817   1.885   9.367  11.094 -0.7748  0.0102 -0.2174
40742SOL    HW125818   1.842   9.427  11.034 -1.1823  0.3724  0.4206
40742SOL    HW225819   1.877   9.281  11.052 -0.9475  0.2735 -0.7303
40743SOL     OW25820  10.154   6.206   5.559  0.4841  0.2883 -0.1721
40743SOL    HW125821  10.150   6.298   5.585 -1.9061  0.2322 -0.1257
40743SOL    HW225822  10.181   6.159   5.638 -1.5896  0.6449  0.7972
40744SOL     OW25823   6.829   9.250   7.768 -0.5226 -0.3256 -0.1559
40744SOL    HW125824   6.848   9.271   7.859  0.4173 -1.0182 -0.1832
40744SOL    HW225825   6.871   9.165   7.753 -1.5793 -0.7372 -0.9347
40745SOL     OW25826   5.841   1.196   9.555  0.1818 -0.3069  0.5075
40745SOL    HW125827   5.909   1.257   9.583 -1.1804  1.5369 -0.0411
40745SOL    HW225828   5.876   1.159   9.474  0.8938 -0.0116  0.6679
40746SOL     OW25829  10.313   7.048  10.220  0.1728 -0.0722  0.0388
40746SOL    HW125830  10.305   6.996  10.139 -1.8350  1.6161 -0.9268
40746SOL    HW225831  10.365   7.124  10.194  0.7434 -0.2160  0.7376
40747SOL     OW25832   2.624   9.444   5.138 -0.4753 -0.1475  0.5464
40747SOL    HW125833   2.544   9.393   5.128 -0.9270  0.2006  2.1836
40747SOL    HW225834   2.694   9.379   5.142 -0.8824 -0.5571  1.0634
40748SOL     OW25835   0.460   5.649  10.116 -0.2919 -0.8061  0.1660
40748SOL    HW125836   0.446   5.660  10.210  1.3867  0.8021  0.2883
40748SOL    HW225837   0.382   5.602  10.085 -1.1443 -0.8676  2.2413
40749SOL     OW25838   2.104   0.736   3.345  0.6617  0.0742 -0.7109
40749SOL    HW125839   2.137   0.647   3.332  0.0496 -0.3036  0.2333
40749SOL    HW225840   2.008   0.726   3.342  0.5891  0.9158 -1.9094
40750SOL     OW25841   4.296   6.252   5.873  0.5102 -0.0019  0.1717
40750SOL    HW125842   4.354   6.328   5.865  1.1355 -0.4934 -0.0143
40750SOL    HW225843   4.275   6.228   5.783 -1.7810  1.4915  0.2043
40751SOL     OW25844   2.465   3.803   8.476  0.1898 -0.2471  0.2428
40751SOL    HW125845   2.545   3.807   8.528 -0.0080 -1.2613  0.6597
40751SOL    HW225846   2.429   3.716   8.494 -0.0280 -0.5316 -1.3860
40752SOL     OW25847  10.051   3.809   6.722 -0.5349  0.2755  0.0299
40752SOL    HW125848  10.114   3.776   6.785 -0.2088  0.7970 -0.0119
40752SOL    HW225849  10.094   3.800   6.637 -0.6435  0.3261 -0.0314
40753SOL     OW25850   2.716   4.722  10.370 -0.0592 -0.1906 -0.6983
40753SOL    HW125851   2.764   4.717  10.288  1.1328  0.0249 -0.0320
40753SOL    HW225852   2.731   4.636  10.412  0.3405  0.1305 -0.1699
40754SOL     OW25853  11.102   8.727   6.352  0.4626  0.0984  0.1203
40754SOL    HW125854  11.116   8.812   6.310 -0.7889  0.2833  0.0493
40754SOL    HW225855  11.166   8.725   6.423 -0.8944  2.0418  1.4914
40755SOL     OW25856  10.405   3.036   0.403 -0.1206 -0.6509 -0.4598
40755SOL    HW125857  10.392   3.023   0.497 -1.3320 -2.8976 -0.8678
40755SOL    HW225858  10.459   2.961   0.376  0.7796  0.3227 -1.4730
40756SOL     OW25859   6.801   4.425   6.009 -0.1782 -0.0067  0.0036
40756SOL    HW125860   6.739   4.407   5.939  1.6331  1.6433 -2.1477
40756SOL    HW225861   6.884   4.387   5.978  0.0577 -2.1202  2.7608
40757SOL     OW25862   2.227   6.838   0.751  0.1315  0.1627 -0.3335
40757SOL    HW125863   2.227   6.753   0.706 -2.1055  1.0585 -2.2482
40757SOL    HW225864   2.238   6.902   0.681 -1.3871  1.5660  0.6401
40758SOL     OW25865   8.908   3.759   2.062  0.4652  0.1363  0.1023
40758SOL    HW125866   8.863   3.745   2.145  0.8653 -0.0957  0.2859
40758SOL    HW225867   8.969   3.685   2.056  1.0858  0.6458  0.0487
40759SOL     OW25868   3.264   4.895   3.081  0.5106 -0.4631 -0.2634
40759SOL    HW125869   3.254   4.800   3.074 -0.1597 -0.4573  0.4586
40759SOL    HW225870   3.301   4.922   2.997 -0.3934 -1.2162 -0.9159
40760SOL     OW25871   4.868   6.078   8.315  0.1384 -0.3090 -0.5234
40760SOL    HW125872   4.957   6.047   8.306 -0.2177 -1.1907 -1.0995
40760SOL    HW225873   4.854   6.085   8.410  0.1666 -2.1476 -0.3528
40761SOL     OW25874   6.546   5.552   1.148 -0.0129 -0.3813  0.3014
40761SOL    HW125875   6.487   5.492   1.102  0.4778 -0.0286 -0.8268
40761SOL    HW225876   6.495   5.581   1.224 -0.8905 -0.9093 -0.0644
40762SOL     OW25877   7.063   7.509   5.956 -0.4255 -0.4954  0.3844
40762SOL    HW125878   7.094   7.561   5.881  0.7720 -0.7899  0.6477
40762SOL    HW225879   6.968   7.511   5.949 -0.3400 -1.0065 -1.4822
40763SOL     OW25880   1.035  10.620   6.156  0.5438  0.0589  0.0868
40763SOL    HW125881   1.116  10.624   6.207 -0.5566  0.1387  1.9393
40763SOL    HW225882   1.002  10.709   6.158  0.7136  0.1586 -1.2064
40764SOL     OW25883   8.441   3.698   8.713  0.0820 -0.7562  0.4916
40764SOL    HW125884   8.405   3.756   8.780  2.5378  1.3769  0.1288
40764SOL    HW225885   8.408   3.734   8.631  1.2238 -0.1537  0.2895
40765SOL     OW25886   7.707   8.147   5.048  0.3502 -0.4121 -0.0387
40765SOL    HW125887   7.736   8.157   5.138 -0.6788 -0.9691  0.3701
40765SOL    HW225888   7.745   8.222   5.002 -0.9439  1.1784  1.3366
40766SOL     OW25889  10.906   9.051   1.378 -0.4600  0.1494 -0.5081
40766SOL    HW125890  10.813   9.068   1.384 -0.2556  0.9922  0.3431
40766SOL    HW225891  10.918   8.968   1.424 -0.7486  0.1619 -0.4096
40767SOL     OW25892   3.184   9.148   6.103 -0.4249  0.0523 -0.3480
40767SOL    HW125893   3.203   9.143   6.196  0.6554 -1.8763 -0.6038
40767SOL    HW225894   3.246   9.212   6.069 -1.6771  1.7207  0.4068
40768SOL     OW25895   7.656   2.214   8.186  0.5206  0.3162  1.0628
40768SOL    HW125896   7.568   2.248   8.199  0.6564  1.7444 -1.1301
40768SOL    HW225897   7.710   2.262   8.248  0.0120  0.8265  1.1234
40769SOL     OW25898  10.238  10.485   7.584 -0.2836 -0.0068 -0.8531
40769SOL    HW125899  10.194  10.476   7.500 -1.1523 -1.1890 -0.3109
40769SOL    HW225900  10.167  10.496   7.647  0.3078  0.0614 -0.1823
40770SOL     OW25901   7.891   7.881   0.435 -0.8483 -0.6278  0.5028
40770SOL    HW125902   7.799   7.862   0.417 -1.2582  0.1884  1.6058
40770SOL    HW225903   7.926   7.913   0.352 -1.5537 -0.9490  0.0766
40771SOL     OW25904   3.100   8.298   3.918 -0.2244  0.2199  0.3268
40771SOL    HW125905   3.064   8.353   3.988 -1.2079 -1.4914  1.2401
40771SOL    HW225906   3.065   8.337   3.838 -1.3164  0.6275  0.9758
40772SOL     OW25907  10.929   0.432   4.102 -0.3019 -0.0982 -0.2598
40772SOL    HW125908  10.894   0.484   4.029  1.3896 -0.0898 -1.1202
40772SOL    HW225909  10.859   0.370   4.123 -1.1372  0.4356 -1.3565
40773SOL     OW25910   5.312   9.321   9.452  0.4694 -0.2550  0.2072
40773SOL    HW125911   5.315   9.369   9.535  0.5023  1.3279 -0.6733
40773SOL    HW225912   5.404   9.305   9.430  0.5154  0.4991 -0.1681
40774SOL     OW25913   1.175   8.781   8.064 -0.8786  0.3926 -0.0336
40774SOL    HW125914   1.171   8.821   8.151  1.7378 -0.8324  0.7386
40774SOL    HW225915   1.228   8.841   8.012 -1.8440  0.7666 -0.6097
40775SOL     OW25916   4.765   5.451   6.551 -0.4453 -0.4065  0.4034
40775SOL    HW125917   4.779   5.519   6.616 -2.0481  0.9456 -0.5718
40775SOL    HW225918   4.670   5.443   6.544 -0.3958  0.1984 -2.3807
40776SOL     OW25919   7.483   3.982  10.412  0.3395  0.6964 -0.5569
40776SOL    HW125920   7.571   3.978  10.374 -0.0279 -1.4175 -1.2710
40776SOL    HW225921   7.425   3.954  10.342 -0.6050 -0.7648  0.7652
40777SOL     OW25922   6.329   1.354   4.294 -0.1066 -0.6735  0.0199
40777SOL    HW125923   6.257   1.375   4.353 -0.2658  0.8102 -0.6634
40777SOL    HW225924   6.400   1.327   4.352 -1.2563 -2.4816  0.6975
40778SOL     OW25925  10.127   7.179   6.976 -0.4395  0.2264  0.0155
40778SOL    HW125926  10.053   7.162   6.918 -1.2204  1.0943  0.7334
40778SOL    HW225927  10.111   7.123   7.053 -0.5308  0.6693  0.3203
40779SOL     OW25928   5.829   6.455   9.896  0.4345 -0.2305  0.0147
40779SOL    HW125929   5.923   6.463   9.881  0.2417 -0.6644 -1.5798
40779SOL    HW225930   5.820   6.372   9.944  0.7916 -0.6465 -0.6298
40780SOL     OW25931   9.141   9.992   7.193 -0.5407 -0.2262 -0.3942
40780SOL    HW125932   9.205  10.061   7.209 -1.4289  0.4261  0.5087
40780SOL    HW225933   9.188   9.927   7.141  0.1280  1.3831 -1.9294
40781SOL     OW25934   4.053   1.602   7.699  0.3035 -0.5039 -0.4618
40781SOL    HW125935   3.996   1.604   7.776 -0.0570  1.1022 -0.7228
40781SOL    HW225936   4.139   1.631   7.732  0.3798 -0.7028 -0.4886
40782SOL     OW25937  10.907   8.958   7.015 -0.2147  0.2329  0.0479
40782SOL    HW125938  10.847   8.950   7.089  0.0361  0.7792  0.3192
40782SOL    HW225939  10.863   8.914   6.943 -0.8302  0.4160  0.3090
40783SOL     OW25940   7.302   9.655   5.550  0.3752 -0.4641 -0.2299
40783SOL    HW125941   7.303   9.633   5.643 -0.2958  0.2402 -0.0558
40783SOL    HW225942   7.337   9.577   5.507  0.8680 -0.7234  0.6236
40784SOL     OW25943   2.614   9.373   2.731  0.3616 -0.2646  0.1654
40784SOL    HW125944   2.674   9.345   2.661  1.3262  0.3619  0.7200
40784SOL    HW225945   2.606   9.467   2.718  0.7322 -0.1063  1.0229
40785SOL     OW25946  10.224   9.546   1.698  0.4286  0.8426 -0.0102
40785SOL    HW125947  10.308   9.540   1.652  0.1875 -0.4491 -0.3047
40785SOL    HW225948  10.164   9.581   1.633  0.4888  0.7058 -0.1403
40786SOL     OW25949   2.167   9.403   9.894  0.1621  0.0904  0.3710
40786SOL    HW125950   2.201   9.456   9.966  3.3092  0.2615 -1.0485
40786SOL    HW225951   2.153   9.316   9.932  3.0086 -0.1859  1.0213
40787SOL     OW25952   3.527  11.017   5.397 -0.6329 -0.1205  0.3781
40787SOL    HW125953   3.546  10.952   5.465  0.9784  0.0412  0.1190
40787SOL    HW225954   3.610  11.063   5.384 -1.1681  0.4971 -1.0261
40788SOL     OW25955   3.704   2.986   6.586 -0.1782  0.0661  0.2117
40788SOL    HW125956   3.689   2.896   6.559  1.1403 -0.7583  2.0676
40788SOL    HW225957   3.795   3.004   6.563  0.0431  0.3616  1.2559
40789SOL     OW25958   5.221   5.827   6.965  0.4834 -0.4440 -0.2588
40789SOL    HW125959   5.157   5.881   7.012 -0.9601 -1.0883 -1.4263
40789SOL    HW225960   5.293   5.816   7.027  0.0630  1.3747  0.6280
40790SOL     OW25961   1.355   9.645   0.587 -0.0849  0.1829  0.4614
40790SOL    HW125962   1.398   9.710   0.532 -1.0787  0.8474  0.4331
40790SOL    HW225963   1.380   9.668   0.676 -0.0395  0.2974  0.4185
40791SOL     OW25964   9.712   9.457   8.482  0.8765 -0.0838  0.2232
40791SOL    HW125965   9.780   9.461   8.549  0.0358 -1.6561  1.2399
40791SOL    HW225966   9.632   9.435   8.531 -0.1024  0.3748 -1.1014
40792SOL     OW25967   2.374   7.448   5.042 -0.7356 -0.3960 -0.4405
40792SOL    HW125968   2.364   7.407   4.956  0.8726  1.1218 -1.4202
40792SOL    HW225969   2.454   7.500   5.034 -1.3512  0.9475  1.5162
40793SOL     OW25970   6.534   7.336   3.323  0.4249  0.6189 -0.2127
40793SOL    HW125971   6.455   7.305   3.368 -0.6997  1.3501 -1.5730
40793SOL    HW225972   6.581   7.256   3.300 -0.9062  0.0425 -1.0532
40794SOL     OW25973   6.874   6.741   1.537  0.0045  0.2254  0.3084
40794SOL    HW125974   6.925   6.679   1.485 -0.2930  1.5892 -1.6821
40794SOL    HW225975   6.921   6.824   1.530 -0.4298  0.6212  1.6730
40795SOL     OW25976   7.421   3.373   1.709 -0.0415  0.5471 -0.3263
40795SOL    HW125977   7.436   3.338   1.621 -1.4532  0.7941 -0.6835
40795SOL    HW225978   7.326   3.373   1.719  0.1127 -0.7823  1.7416
40796SOL     OW25979   6.277   7.475   1.711 -0.6342  0.0659 -0.0289
40796SOL    HW125980   6.202   7.440   1.759 -1.7173  1.0986 -0.9223
40796SOL    HW225981   6.246   7.484   1.621  1.3407 -1.8269 -0.9933
40797SOL     OW25982   5.534   2.591   8.895  0.3105 -0.7560  0.2982
40797SOL    HW125983   5.560   2.516   8.948  0.0772  0.1873  1.8023
40797SOL    HW225984   5.555   2.667   8.949  0.5256  0.2837 -1.1783
40798SOL     OW25985   0.262   4.218   0.653  0.2179 -0.2587 -0.0124
40798SOL    HW125986   0.262   4.314   0.662  0.7524 -0.3933  1.8513
40798SOL    HW225987   0.198   4.189   0.718  0.1652 -1.1790 -0.4750
40799SOL     OW25988   9.073   0.898   2.961 -0.3941  0.1036  0.9192
40799SOL    HW125989   9.047   0.975   3.012 -0.3851  1.3332 -0.8356
40799SOL    HW225990   9.165   0.913   2.940 -1.1953  1.3260 -2.1767
40800SOL     OW25991   2.739   9.870  10.302 -0.0631  0.1521  0.1405
40800SOL    HW125992   2.757   9.872  10.208 -0.6787  0.3855  0.0243
40800SOL    HW225993   2.796   9.800  10.336  0.8944  0.7234 -0.2416
40801SOL     OW25994   0.263   3.710   0.234  0.2076 -0.1732  0.5105
40801SOL    HW125995   0.263   3.660   0.152 -1.7997 -1.0274  0.9637
40801SOL    HW225996   0.292   3.646   0.300  0.4388  0.1046  0.6790
40802SOL     OW25997   0.903   7.875   1.665  0.6615 -0.4204 -0.4764
40802SOL    HW125998   0.863   7.825   1.736  0.5073 -0.9765 -0.9471
40802SOL    HW225999   0.839   7.945   1.646  1.3372  0.5924  0.8647
40803SOL     OW26000   9.447  10.614   5.341 -0.7011 -0.1625  0.2314
40803SOL    HW126001   9.374  10.556   5.316 -2.3466  1.7646  0.3263
40803SOL    HW226002   9.495  10.628   5.259 -1.1596 -0.4914 -0.1007
40804SOL     OW26003   5.345   1.828   7.284  0.1097  0.3933 -0.1187
40804SOL    HW126004   5.284   1.798   7.351  0.3265  0.1188 -0.0423
40804SOL    HW226005   5.352   1.923   7.298  1.0690  0.1801  1.0293
40805SOL     OW26006   4.458  10.649   8.650 -0.2312  0.2182 -0.0343
40805SOL    HW126007   4.499  10.566   8.674  0.4342  0.3133 -0.7985
40805SOL    HW226008   4.369  10.626   8.623  0.3926 -0.4574 -1.6101
40806SOL     OW26009   4.510  10.489   4.856  0.5879 -0.0293 -0.1652
40806SOL    HW126010   4.600  10.520   4.843  0.8908 -1.4462 -1.9601
40806SOL    HW226011   4.485  10.451   4.771 -0.6189 -2.3072  1.0908
40807SOL     OW26012   8.989   8.920   2.939 -0.2360 -0.4683 -0.2147
40807SOL    HW126013   9.005   8.891   3.029 -1.4281  0.6621  0.3959
40807SOL    HW226014   9.053   8.989   2.924  0.0711 -0.7692 -0.2965
40808SOL     OW26015   2.200   7.947   8.922 -0.3657  0.2411  0.1207
40808SOL    HW126016   2.215   7.895   8.843  1.4586 -1.1182  1.2986
40808SOL    HW226017   2.125   8.002   8.900 -0.8903 -1.2027 -2.0130
40809SOL     OW26018   5.975   0.583   2.617  0.5767 -0.0991 -0.1674
40809SOL    HW126019   5.977   0.657   2.679 -0.1045  0.5774 -0.9322
40809SOL    HW226020   6.044   0.524   2.648  0.7437  0.5819  0.7987
40810SOL     OW26021   3.365   6.833   5.298 -0.0154 -0.0346 -0.1186
40810SOL    HW126022   3.426   6.885   5.351 -1.0169 -0.9459  2.0773
40810SOL    HW226023   3.400   6.839   5.209  2.2446  0.9296  0.7333
40811SOL     OW26024   1.668   1.528  10.430  0.0443 -0.1008  0.5654
40811SOL    HW126025   1.643   1.444  10.391 -0.1598  0.0400  0.3891
40811SOL    HW226026   1.585   1.568  10.455  0.0769  0.4276 -0.1457
40812SOL     OW26027   5.756   8.433   2.836 -0.2543  0.2736 -0.2566
40812SOL    HW126028   5.745   8.341   2.810 -0.1079  0.1695  0.0351
40812SOL    HW226029   5.672   8.456   2.877  0.1297 -0.1136  0.7832
40813SOL     OW26030   4.717   1.740   7.092 -0.8000  0.2780 -0.3096
40813SOL    HW126031   4.685   1.830   7.097  0.8899  1.0426 -1.9676
40813SOL    HW226032   4.780   1.734   7.164 -2.0852 -0.1437  0.8208
40814SOL     OW26033   6.434   6.622  10.426 -0.3291 -0.2922  0.1763
40814SOL    HW126034   6.365   6.685  10.404 -1.1668 -0.9460  0.8627
40814SOL    HW226035   6.438   6.623  10.522  0.9450  0.0675  0.1394
40815SOL     OW26036   7.917   0.134   5.049  0.5960 -0.1684 -0.4109
40815SOL    HW126037   7.892   0.195   4.979  1.6805  0.6667 -0.1112
40815SOL    HW226038   8.013   0.137   5.050  0.6058 -0.0159  1.2163
40816SOL     OW26039  10.096   7.981   6.363 -0.5881  0.8329 -0.0404
40816SOL    HW126040  10.023   7.928   6.331 -1.2940  1.7926 -0.0795
40816SOL    HW226041  10.122   8.034   6.287 -0.5052  1.1995  0.2421
40817SOL     OW26042   3.076   7.372   5.113 -0.6568  0.1953 -0.5245
40817SOL    HW126043   3.059   7.392   5.021  0.3639 -1.8828 -1.2145
40817SOL    HW226044   3.169   7.391   5.125 -0.6681 -0.0466 -0.0519
40818SOL     OW26045   1.412   9.624   6.481  0.0734 -0.2530 -0.3702
40818SOL    HW126046   1.370   9.587   6.403 -0.2761  1.2600 -0.9326
40818SOL    HW226047   1.370   9.580   6.554 -2.7843  1.3666 -0.8914
40819SOL     OW26048   3.798   7.965   5.894 -0.1257 -0.8190 -0.5023
40819SOL    HW126049   3.829   8.048   5.931  2.2567 -1.4591 -0.8928
40819SOL    HW226050   3.760   7.918   5.969  0.9395 -0.4453  0.3027
40820SOL     OW26051   0.550   9.622  10.087  0.6642  0.4243  0.2097
40820SOL    HW126052   0.602   9.696  10.057  0.3190  1.6395  2.3661
40820SOL    HW226053   0.575   9.611  10.179 -0.8492 -0.7472  0.5219
40821SOL     OW26054   6.687   8.464  10.163  0.3842  0.0681  0.0498
40821SOL    HW126055   6.656   8.374  10.168 -2.8899  0.9496 -1.2553
40821SOL    HW226056   6.681   8.496  10.253  2.0492 -1.0859  0.6109
40822SOL     OW26057  10.694   8.005   9.443  0.6182 -0.1444  0.0555
40822SOL    HW126058  10.643   7.938   9.396  0.3004  0.4489 -0.4538
40822SOL    HW226059  10.784   7.970   9.443  0.2132 -1.2859  1.1187
40823SOL     OW26060   4.723   1.501   8.699 -0.3762 -0.3688  0.5165
40823SOL    HW126061   4.719   1.511   8.794  1.1857  0.2464  0.5485
40823SOL    HW226062   4.702   1.588   8.665  0.5198 -0.2024  0.3617
40824SOL     OW26063   7.623   7.420   0.415 -0.0984  0.0901  0.6478
40824SOL    HW126064   7.705   7.407   0.366 -0.9371 -0.6058 -0.6186
40824SOL    HW226065   7.643   7.391   0.504  0.9037 -0.5052  0.2438
40825SOL     OW26066   9.409   1.641   4.793  0.1661  0.1977 -0.1080
40825SOL    HW126067   9.344   1.707   4.771 -0.7971 -1.3013 -1.9869
40825SOL    HW226068   9.489   1.691   4.810 -0.5126  1.8487 -1.4971
40826SOL     OW26069   7.333   7.950   7.174  0.5107 -1.2675 -0.0905
40826SOL    HW126070   7.362   8.035   7.139  1.3479 -1.4194  0.2066
40826SOL    HW226071   7.250   7.933   7.130  1.0208 -0.9471 -1.2183
40827SOL     OW26072   1.510   8.562   1.478  0.6951  0.3126  0.2773
40827SOL    HW126073   1.575   8.621   1.517  2.3793 -0.6789 -0.8708
40827SOL    HW226074   1.553   8.528   1.400 -1.5445  0.1849 -0.9882
40828SOL     OW26075   5.912   3.389   8.441  0.6808  0.0992 -0.2663
40828SOL    HW126076   5.967   3.339   8.381  0.2112 -1.8044  0.7957
40828SOL    HW226077   5.826   3.389   8.401  1.1862  2.2469 -1.4598
40829SOL     OW26078   8.143   6.837   5.225  0.0189  0.4658 -0.1409
40829SOL    HW126079   8.218   6.859   5.169  0.4781 -0.6309  0.0247
40829SOL    HW226080   8.176   6.850   5.315 -0.3627  1.1223 -0.0918
40830SOL     OW26081   6.217   9.372   7.369  0.0152  0.2605 -0.8584
40830SOL    HW126082   6.302   9.405   7.342  0.5278 -1.5442 -1.5587
40830SOL    HW226083   6.230   9.279   7.383 -1.2400  0.3483  1.5831
40831SOL     OW26084   4.905   6.989   9.245 -0.1229  0.0227  0.2647
40831SOL    HW126085   4.896   7.006   9.339 -2.3748 -1.3002  0.3682
40831SOL    HW226086   4.926   7.074   9.207  0.8199  0.5854  1.9396
40832SOL     OW26087   4.385  10.125   3.393 -0.3564 -0.2007 -0.3790
40832SOL    HW126088   4.322  10.194   3.370  0.4245  0.0894 -1.8409
40832SOL    HW226089   4.331  10.048   3.409 -1.1360  0.2534 -0.7262
40833SOL     OW26090   1.082   4.574  10.930  0.1273  0.2918 -0.4998
40833SOL    HW126091   1.120   4.487  10.915 -1.5191 -0.3074 -1.4959
40833SOL    HW226092   1.108   4.625  10.853  1.1436  0.7140  0.1134
40834SOL     OW26093   8.046   0.498   8.419  0.0077  0.0348  0.7495
40834SOL    HW126094   8.118   0.439   8.399 -0.5964 -0.8926  1.2209
40834SOL    HW226095   7.981   0.443   8.463 -1.0176  0.8214  0.2844
40835SOL     OW26096   8.107   6.108   1.629  0.4028 -0.3096 -0.5250
40835SOL    HW126097   8.185   6.071   1.588  1.0405  0.8746 -0.4300
40835SOL    HW226098   8.076   6.040   1.688  0.5085 -1.3563 -1.6295
40836SOL     OW26099   9.822   8.942   1.408  0.3679  0.0747 -0.3309
40836SOL    HW126100   9.819   8.890   1.488 -1.6735  1.7332  0.7633
40836SOL    HW226101   9.892   9.005   1.423 -0.2610  0.6261  0.3306
40837SOL     OW26102   3.786   1.826   2.899 -0.0911 -0.0539 -0.1502
40837SOL    HW126103   3.744   1.911   2.886 -0.3203 -0.1294  0.0829
40837SOL    HW226104   3.866   1.830   2.846  0.1225  0.4652  0.2035
40838SOL     OW26105  10.724   4.359   0.298 -0.3840  0.6799  0.8455
40838SOL    HW126106  10.712   4.366   0.203  2.5517 -0.4868  0.2538
40838SOL    HW226107  10.665   4.289   0.325  1.5526 -1.8256 -0.9437
40839SOL     OW26108   4.638   6.448  10.862  0.1402  0.1406 -0.2458
40839SOL    HW126109   4.550   6.459  10.825 -0.0837 -0.2764  0.1589
40839SOL    HW226110   4.695   6.499  10.804 -0.1136 -0.9919 -1.5493
40840SOL     OW26111   6.949   7.586  10.304  0.5218  0.0740  0.4774
40840SOL    HW126112   6.979   7.549  10.221 -0.0592  0.3141  0.1525
40840SOL    HW226113   6.917   7.674  10.282  0.9530  0.3955  1.0673
40841SOL     OW26114   1.012   3.664   7.329  0.4527  0.2077  0.2807
40841SOL    HW126115   0.937   3.720   7.308 -0.6382 -1.5884 -0.8119
40841SOL    HW226116   1.016   3.601   7.257  1.2638 -1.4939  1.7517
40842SOL     OW26117   9.705   2.714   0.590 -0.5208 -0.1393  0.2375
40842SOL    HW126118   9.758   2.790   0.568 -0.6306  0.0651  0.6601
40842SOL    HW226119   9.692   2.668   0.507 -1.8898  1.2220 -0.3521
40843SOL     OW26120   1.717   1.427   0.900 -0.1841 -0.6366  0.7513
40843SOL    HW126121   1.715   1.397   0.991 -0.8627  2.7237  1.9692
40843SOL    HW226122   1.810   1.423   0.876  0.6404  1.9293  2.9943
40844SOL     OW26123   9.991   3.575   1.041 -0.2609  0.3461 -0.3000
40844SOL    HW126124   9.902   3.580   1.005 -0.4523  0.7114  0.2132
40844SOL    HW226125   9.988   3.503   1.103 -0.1435  0.2323 -0.4256
40845SOL     OW26126   5.196   3.089   1.427 -0.0999  0.3481  0.3715
40845SOL    HW126127   5.212   3.006   1.473  1.3170  1.1412  1.3920
40845SOL    HW226128   5.265   3.094   1.361  0.4285  1.1640  0.9732
40846SOL     OW26129   2.958   9.968   4.137 -0.2276  0.0353  0.1096
40846SOL    HW126130   2.948  10.064   4.138  0.9290  0.1655  0.1954
40846SOL    HW226131   2.980   9.947   4.047 -1.5026 -0.2877 -0.1537
40847SOL     OW26132   1.922   2.534   0.956 -0.0901  0.2504  0.0198
40847SOL    HW126133   2.006   2.510   0.995 -0.0425 -1.6709 -1.0952
40847SOL    HW226134   1.941   2.547   0.863 -0.8591  0.7485 -0.0821
40848SOL     OW26135   1.742   8.243   9.620  0.2317  0.4908  0.2749
40848SOL    HW126136   1.663   8.287   9.651 -0.2390  0.9622 -1.4742
40848SOL    HW226137   1.776   8.301   9.551  0.3362 -1.2036 -1.1730
40849SOL     OW26138   6.461   3.935   5.226 -0.0980  0.8274  0.4713
40849SOL    HW126139   6.445   3.850   5.268  2.1747  0.4585  0.6970
40849SOL    HW226140   6.409   3.931   5.145 -0.5366 -0.5203  0.7823
40850SOL     OW26141  10.516   6.555   5.249 -0.2663 -0.2416  0.0878
40850SOL    HW126142  10.590   6.503   5.281  0.5478 -0.0877 -1.4335
40850SOL    HW226143  10.439   6.502   5.267  0.5263 -1.9840 -1.3518
40851SOL     OW26144   0.799   0.433   8.483  0.3867  0.3865 -0.2079
40851SOL    HW126145   0.746   0.360   8.451  2.2742 -0.7458 -0.9041
40851SOL    HW226146   0.873   0.436   8.424  2.8804 -0.2993  2.6419
40852SOL     OW26147   0.861   1.036   1.662  0.6566 -0.3536 -0.3114
40852SOL    HW126148   0.854   1.096   1.736  1.4122  0.4115 -0.8398
40852SOL    HW226149   0.866   0.949   1.701  1.1142  0.0500  0.5413
40853SOL     OW26150   1.077   9.091   3.304  0.5666  0.1039  0.5891
40853SOL    HW126151   1.058   9.015   3.249  0.3211 -0.1405  1.0039
40853SOL    HW226152   1.157   9.128   3.267  0.8376 -0.5130  0.5433
40854SOL     OW26153   1.489   9.521  10.549 -0.1195  0.1003  1.1370
40854SOL    HW126154   1.471   9.515  10.643 -0.4708 -2.2906  0.9788
40854SOL    HW226155   1.516   9.432  10.524  1.3366  1.0020 -0.7717
40855SOL     OW26156   2.967   8.483   3.740 -0.0189  0.7286 -0.1110
40855SOL    HW126157   2.926   8.520   3.662  0.1010  0.0909 -0.4852
40855SOL    HW226158   2.903   8.498   3.810 -0.1191  1.3177 -0.3197
40856SOL     OW26159   6.283   4.966   6.061  0.2367  0.4493  0.0840
40856SOL    HW126160   6.216   4.899   6.070 -0.6336  1.4759  1.7472
40856SOL    HW226161   6.240   5.036   6.011 -0.9076  2.1614  3.1799
40857SOL     OW26162   3.290   2.639   5.257 -0.0011  0.2299  0.2631
40857SOL    HW126163   3.372   2.627   5.209  0.3727  0.6228  0.7921
40857SOL    HW226164   3.255   2.723   5.226 -0.2683  0.0074 -0.0481
40858SOL     OW26165   7.946   6.065   4.108  0.0268  0.3012 -0.4798
40858SOL    HW126166   7.920   6.004   4.039 -2.8756 -1.1703  1.6815
40858SOL    HW226167   7.871   6.124   4.117  0.1066  0.1425  1.6474
40859SOL     OW26168   1.329   1.595   1.272  0.7063 -0.5702  0.0637
40859SOL    HW126169   1.255   1.627   1.324 -1.1867 -1.2031 -2.0931
40859SOL    HW226170   1.348   1.667   1.211  1.3524 -0.7194  0.0798
40860SOL     OW26171  10.912   8.235   6.547 -0.5826 -0.0329 -0.2444
40860SOL    HW126172  10.831   8.284   6.542 -0.2093  0.5923 -0.3009
40860SOL    HW226173  10.966   8.284   6.609 -0.6553 -1.0455  0.6626
40861SOL     OW26174   9.047  10.912   2.529 -0.2844 -0.1389 -0.5190
40861SOL    HW126175   8.989  10.944   2.460 -1.2906 -0.7491  0.0186
40861SOL    HW226176   9.037  10.975   2.600  0.3325  0.1885 -0.7149
40862SOL     OW26177  11.074   0.150   4.068  0.5148 -0.4900  0.1706
40862SOL    HW126178  11.009   0.152   4.138  0.3361  0.3220 -0.0032
40862SOL    HW226179  11.050   0.224   4.012  3.0861  1.4779  1.4556
40863SOL     OW26180   8.888   7.185   6.799 -0.8015 -0.1487  0.9732
40863SOL    HW126181   8.843   7.269   6.803  0.3389  0.5609 -0.3641
40863SOL    HW226182   8.868   7.151   6.712 -1.4190 -1.3899  1.5680
40864SOL     OW26183   3.342   9.246   8.275 -0.3546  0.1533 -0.1732
40864SOL    HW126184   3.333   9.337   8.246 -0.2871 -0.0598 -0.8665
40864SOL    HW226185   3.431   9.221   8.248 -0.2141  0.0166  0.4012
40865SOL     OW26186   9.113   5.027   2.261 -0.1189 -0.8928  0.1301
40865SOL    HW126187   9.021   5.013   2.237  0.3638 -0.6233 -2.1302
40865SOL    HW226188   9.138   5.105   2.212  1.1252 -0.4932  1.3562
40866SOL     OW26189   3.606   8.177   4.206  0.3970  0.1046  0.2076
40866SOL    HW126190   3.669   8.236   4.166  0.7963  0.8625  1.8569
40866SOL    HW226191   3.565   8.229   4.275 -0.6814 -0.9510  0.3856
40867SOL     OW26192   6.883   7.518   4.640 -0.1066  0.3341  0.5582
40867SOL    HW126193   6.808   7.516   4.580 -0.9693  0.0184  1.6137
40867SOL    HW226194   6.959   7.505   4.584 -0.8242  0.7819 -0.5571
40868SOL     OW26195   4.670   8.649   9.224  0.1040  0.3807 -0.2165
40868SOL    HW126196   4.718   8.699   9.158  0.3360  0.4681  0.0152
40868SOL    HW226197   4.609   8.712   9.262 -0.0906  0.3083 -0.4098
40869SOL     OW26198   3.550   2.464   8.854  0.1676 -0.4072 -0.0426
40869SOL    HW126199   3.540   2.417   8.937 -0.9657  0.4600  0.3417
40869SOL    HW226200   3.470   2.516   8.847 -0.5806 -1.7586 -2.5338
40870SOL     OW26201   5.866   4.712   1.030 -0.7416  0.1028 -0.7518
40870SOL    HW126202   5.875   4.745   1.119 -0.3722 -1.5445 -0.1338
40870SOL    HW226203   5.915   4.774   0.976  2.3703 -0.8888  0.7034
40871SOL     OW26204   4.891   9.689   0.718 -0.0951 -0.3068  0.1153
40871SOL    HW126205   4.901   9.685   0.813  0.2426  0.5428  0.1230
40871SOL    HW226206   4.977   9.664   0.683 -0.7595 -2.5960 -0.0303
40872SOL     OW26207   2.956   7.509   3.893  0.0843 -0.0624  0.4410
40872SOL    HW126208   2.999   7.428   3.866  1.8702  0.5076  1.4465
40872SOL    HW226209   2.924   7.547   3.811  0.0696 -1.2955 -0.1460
40873SOL     OW26210   9.265   0.168  10.221 -0.6595  0.6054 -0.2163
40873SOL    HW126211   9.309   0.179  10.306 -1.5483  0.7577  0.2284
40873SOL    HW226212   9.334   0.185  10.157 -0.2898  1.8487  0.4648
40874SOL     OW26213   8.886   5.017   9.872 -0.2607  0.2230  0.0451
40874SOL    HW126214   8.836   4.936   9.861 -1.0260  0.8222 -1.1575
40874SOL    HW226215   8.956   4.994   9.932 -1.2398 -0.9871  0.7815
40875SOL     OW26216   3.618   9.040   4.777  0.4055 -0.2037  0.0197
40875SOL    HW126217   3.545   9.068   4.722  0.6946 -0.2857 -0.4134
40875SOL    HW226218   3.584   8.967   4.828 -0.7561  1.6925  2.0937
40876SOL     OW26219   2.891   9.263   1.286 -0.4617  0.5516  0.3056
40876SOL    HW126220   2.827   9.289   1.220  0.4110  0.6950 -0.5089
40876SOL    HW226221   2.841   9.216   1.352 -1.4211  0.7890 -0.2432
40877SOL     OW26222   2.087   0.404   5.598  0.1941 -0.4269 -0.2444
40877SOL    HW126223   2.021   0.467   5.628 -0.3515 -1.2901  0.4234
40877SOL    HW226224   2.166   0.456   5.587 -0.6616  0.7058 -1.3744
40878SOL     OW26225   4.804   1.977   0.003 -0.1290 -0.8423 -0.0999
40878SOL    HW126226   4.738   2.020   0.057 -0.1293 -1.2437  0.2251
40878SOL    HW226227   4.871   1.949   0.065  1.4591  1.4571 -0.6269
40879SOL     OW26228   9.685  10.298   2.593 -0.0918  0.4768  0.0668
40879SOL    HW126229   9.601  10.253   2.583 -0.2312  0.1921  2.0550
40879SOL    HW226230   9.751  10.230   2.575 -0.3019  0.2929 -0.0158
40880SOL     OW26231  10.818   4.228   7.231  0.3066  0.0620 -0.5236
40880SOL    HW126232  10.808   4.311   7.279 -1.3062  0.6644 -1.8294
40880SOL    HW226233  10.836   4.164   7.300 -1.3375  0.9905  0.8677
40881SOL     OW26234   9.500   7.210   9.002 -0.5329 -0.3872 -0.4113
40881SOL    HW126235   9.431   7.157   9.040 -0.7121 -0.9650 -1.5191
40881SOL    HW226236   9.581   7.162   9.021 -0.6729 -0.9587 -1.2079
40882SOL     OW26237   8.082   4.925   3.054 -0.2172  0.0044  0.1262
40882SOL    HW126238   8.005   4.898   3.105 -0.4595 -0.2008 -0.3345
40882SOL    HW226239   8.121   4.842   3.025 -0.5221  0.1257 -0.6553
40883SOL     OW26240   9.739   2.011   0.815 -0.0350  0.4408  0.2402
40883SOL    HW126241   9.794   1.934   0.801 -0.0216  0.3644  0.7015
40883SOL    HW226242   9.670   1.981   0.873 -0.0299  0.7789  0.4241
40884SOL     OW26243   4.372   7.200   2.644 -0.2140 -0.3348 -0.2704
40884SOL    HW126244   4.424   7.130   2.604  0.2261 -1.4230  2.0047
40884SOL    HW226245   4.307   7.153   2.697 -1.6590  1.0152 -0.8017
40885SOL     OW26246   4.327   8.040   3.312 -0.4262 -0.0315 -0.2950
40885SOL    HW126247   4.422   8.031   3.321 -0.1103  1.9827 -1.2268
40885SOL    HW226248   4.306   8.124   3.353 -1.3875  0.8776 -2.4889
40886SOL     OW26249   5.629  10.594   9.323  0.1177 -0.1998 -0.3356
40886SOL    HW126250   5.648  10.685   9.347 -0.5561  0.5967 -2.6024
40886SOL    HW226251   5.534  10.586   9.336  0.2679 -0.8285  0.5023
40887SOL     OW26252   5.800  10.104   6.220  0.6097 -0.0349 -0.1336
40887SOL    HW126253   5.727  10.089   6.160  1.1646 -0.4448 -0.7302
40887SOL    HW226254   5.878  10.098   6.164  1.1852 -1.0765  0.7329
40888SOL     OW26255   4.324   4.579   1.192  0.1162 -0.0949  0.4928
40888SOL    HW126256   4.329   4.484   1.200 -0.6984 -0.2954 -1.0696
40888SOL    HW226257   4.406   4.611   1.230  0.8471 -1.4819  0.1314
40889SOL     OW26258   4.270  10.562   1.436  0.1469  0.2308 -0.9236
40889SOL    HW126259   4.208  10.568   1.362 -0.1497  1.6173 -0.5905
40889SOL    HW226260   4.322  10.484   1.417 -0.3802  0.1721 -2.2510
40890SOL     OW26261   2.262   9.530   8.020  0.0595  0.2167  0.3053
40890SOL    HW126262   2.203   9.591   7.976 -2.0220  0.1305  2.7597
40890SOL    HW226263   2.212   9.449   8.028  0.5710  0.0458  2.2289
40891SOL     OW26264   4.195   7.423   9.384  0.3501 -0.0228  0.2766
40891SOL    HW126265   4.157   7.338   9.362  1.2861 -0.7633  1.4218
40891SOL    HW226266   4.124   7.485   9.370  0.0231 -0.7757 -1.9229
40892SOL     OW26267   6.180   5.496   7.711 -0.2421  0.6836 -0.6129
40892SOL    HW126268   6.092   5.467   7.686 -0.6268  1.8544 -0.6592
40892SOL    HW226269   6.183   5.485   7.806 -0.2306  0.1206 -0.6726
40893SOL     OW26270   8.388   7.542   7.129 -0.6202  0.1660 -0.0724
40893SOL    HW126271   8.428   7.582   7.206 -0.1293 -0.1403 -0.1663
40893SOL    HW226272   8.323   7.606   7.100 -0.1080  0.7253  0.0061
40894SOL     OW26273   4.069   0.730   6.104 -0.1298  0.1246  0.1367
40894SOL    HW126274   3.976   0.751   6.105 -0.0372  0.5510  1.1786
40894SOL    HW226275   4.113   0.815   6.104  0.2546 -0.0662  0.7511
40895SOL     OW26276   5.012   5.100   2.505  0.2849  0.7525  0.1221
40895SOL    HW126277   4.973   5.187   2.516  0.9318  0.8346  2.2227
40895SOL    HW226278   5.105   5.117   2.488  0.1716  0.4655 -0.8926
40896SOL     OW26279  10.634   6.035   8.483  0.1417 -0.0269  0.2408
40896SOL    HW126280  10.587   6.105   8.528 -0.6716 -0.0315 -0.5629
40896SOL    HW226281  10.566   5.987   8.436  0.6541 -1.5094  0.9568
40897SOL     OW26282   6.104   3.470   9.821 -0.1323 -0.3316 -0.4771
40897SOL    HW126283   6.132   3.513   9.902 -0.1904  0.4699 -0.8768
40897SOL    HW226284   6.044   3.533   9.780  0.0603 -0.6383 -1.2463
40898SOL     OW26285   8.073  10.817   0.664  0.1062  0.5433 -0.3762
40898SOL    HW126286   8.108  10.854   0.745  1.2618  0.6015 -0.8742
40898SOL    HW226287   8.021  10.741   0.691  1.3052 -0.0385  0.3657
40899SOL     OW26288   2.792  10.060   6.823  0.2400 -0.2302 -0.8710
40899SOL    HW126289   2.798   9.964   6.829  0.6934 -0.1297  1.4590
40899SOL    HW226290   2.765  10.087   6.911 -0.8237  1.7468 -1.7426
40900SOL     OW26291   5.846   7.735   6.960  0.0509 -0.0883 -0.1392
40900SOL    HW126292   5.928   7.689   6.939  0.4987  0.7754 -0.3074
40900SOL    HW226293   5.777   7.680   6.923  0.6418 -0.1357 -1.1855
40901SOL     OW26294   6.177   1.355   5.298  0.0337 -0.3714  0.3055
40901SOL    HW126295   6.197   1.424   5.235 -0.3445  2.8056  3.3462
40901SOL    HW226296   6.256   1.348   5.352 -0.3615 -1.5048  0.7762
40902SOL     OW26297  10.317   9.537   5.087  0.1784 -0.1197 -0.3769
40902SOL    HW126298  10.227   9.546   5.056 -0.9254  0.2946  2.5821
40902SOL    HW226299  10.369   9.524   5.008 -2.6357 -1.8558 -2.1250
40903SOL     OW26300   8.720   1.310   2.821  0.6251  0.0553 -0.3951
40903SOL    HW126301   8.681   1.251   2.886  2.0006  0.3004  0.6949
40903SOL    HW226302   8.662   1.386   2.820  0.3175 -0.1675  0.1654
40904SOL     OW26303   8.596   6.804   4.720  0.1905  0.0973  0.5321
40904SOL    HW126304   8.660   6.872   4.701 -1.6023  1.8293  0.2424
40904SOL    HW226305   8.575   6.766   4.635 -0.6156  0.9797  0.3086
40905SOL     OW26306  10.842   9.037  11.027 -0.4041 -0.9449  0.1571
40905SOL    HW126307  10.779   9.106  11.047 -0.8825 -0.6271 -2.2036
40905SOL    HW226308  10.925   9.082  11.014 -0.8822 -0.6151 -2.2095
40906SOL     OW26309   7.066  10.023   1.488  0.3394 -0.0480 -0.2113
40906SOL    HW126310   7.149  10.065   1.509  0.4820 -0.9221  1.1013
40906SOL    HW226311   7.089   9.954   1.425  0.4045  0.4933 -0.7939
40907SOL     OW26312   5.722   7.133   4.345  0.4998  0.3111 -0.0353
40907SOL    HW126313   5.788   7.137   4.414  0.1496  1.9384  0.2509
40907SOL    HW226314   5.757   7.069   4.282  1.7055  0.1606  0.7458
40908SOL     OW26315  11.079   7.588   0.703  0.0401  0.3411 -0.0890
40908SOL    HW126316  11.034   7.656   0.653  0.4048 -0.3903 -1.4591
40908SOL    HW226317  11.031   7.508   0.683  2.5307 -0.7113 -2.6001
40909SOL     OW26318   4.697   7.191   7.734  0.5014 -0.3631  0.0839
40909SOL    HW126319   4.687   7.284   7.716  1.0229 -0.1330  0.9368
40909SOL    HW226320   4.788   7.182   7.761  0.1311 -0.9239  1.1688
40910SOL     OW26321   7.544   9.291   1.431 -0.4668  0.3756  0.0264
40910SOL    HW126322   7.610   9.359   1.417  0.1513 -0.0342  0.8788
40910SOL    HW226323   7.476   9.334   1.483  0.6228 -0.0133  1.8639
40911SOL     OW26324   2.269   4.029   0.205 -0.1364 -0.1451 -0.4220
40911SOL    HW126325   2.201   3.962   0.207  0.9898 -1.3556  1.3215
40911SOL    HW226326   2.350   3.979   0.195  0.6013  1.1203 -0.8726
40912SOL     OW26327   0.904   7.727  10.477  0.0460 -0.2621  0.5434
40912SOL    HW126328   0.941   7.692  10.396 -1.3310  1.6662 -1.0071
40912SOL    HW226329   0.899   7.652  10.536  1.4500 -1.6363 -0.9982
40913SOL     OW26330   2.511   3.286  10.423 -0.0187  0.1334 -0.0614
40913SOL    HW126331   2.600   3.292  10.389  0.2462  1.2067  0.7777
40913SOL    HW226332   2.474   3.208  10.381  1.8391 -1.2567  0.7706
40914SOL     OW26333  10.759   8.327   6.791  0.4010 -0.5897 -0.1730
40914SOL    HW126334  10.724   8.385   6.723 -1.3366 -1.9236 -0.4786
40914SOL    HW226335  10.701   8.340   6.866  0.8435 -0.9369  0.2364
40915SOL     OW26336   1.714   9.864   2.082  0.1617 -0.5753  0.1234
40915SOL    HW126337   1.678   9.936   2.031  0.7271 -0.3093  0.0936
40915SOL    HW226338   1.702   9.787   2.026 -0.5762 -0.5330  0.2178
40916SOL     OW26339  10.944  10.602   0.338  0.2069 -0.0762 -0.0375
40916SOL    HW126340  10.874  10.655   0.299 -0.9032 -0.7250  1.0055
40916SOL    HW226341  11.024  10.644   0.308 -0.6264  1.1830 -0.6308
40917SOL     OW26342   1.126   8.547   7.698  0.0248 -0.2599  0.0003
40917SOL    HW126343   1.210   8.514   7.664 -0.6998 -1.1094 -1.0224
40917SOL    HW226344   1.139   8.551   7.793  0.7338 -1.8144 -0.0047
40918SOL     OW26345   3.694   4.225   8.448  0.2036 -0.3054  0.0528
40918SOL    HW126346   3.680   4.249   8.540 -1.6168  0.0294 -0.2851
40918SOL    HW226347   3.699   4.129   8.449 -1.8470 -0.4452  0.2872
40919SOL     OW26348   7.382   0.522  10.824  0.7672  0.2906 -0.4022
40919SOL    HW126349   7.333   0.476  10.893  0.0089  0.4119 -0.8449
40919SOL    HW226350   7.446   0.575  10.872  0.4976  0.0919  0.1947
40920SOL     OW26351  10.098   5.815   6.073  0.7928 -0.5453 -0.1776
40920SOL    HW126352  10.095   5.735   6.021 -0.8918 -0.6458  0.0022
40920SOL    HW226353  10.012   5.818   6.117  0.5700  1.6332 -0.6362
40921SOL     OW26354   7.345   3.122   8.770  0.1169  0.1448 -0.6002
40921SOL    HW126355   7.302   3.197   8.811  0.6710  1.4696 -2.3206
40921SOL    HW226356   7.275   3.078   8.721 -0.1356 -0.2464  0.1093
40922SOL     OW26357   5.683  10.447   6.008 -0.6353 -0.2175  0.2064
40922SOL    HW126358   5.754  10.476   5.951 -1.1025 -0.2311 -0.3850
40922SOL    HW226359   5.710  10.361   6.039 -0.1713 -0.0160  0.3793
40923SOL     OW26360   5.475  10.019  10.391  0.2779 -0.0605 -0.2309
40923SOL    HW126361   5.478  10.092  10.329 -0.0967  0.8363  0.7663
40923SOL    HW226362   5.499  10.059  10.475  1.8242 -1.4479  0.0426
40924SOL     OW26363   2.935   2.178   5.301 -0.2589 -0.5059  0.2824
40924SOL    HW126364   2.962   2.119   5.371 -2.8207 -1.1367  0.8376
40924SOL    HW226365   2.982   2.146   5.224  0.4416 -1.5980  1.1267
40925SOL     OW26366   4.353   9.397   1.572 -0.1757  0.0045 -0.4324
40925SOL    HW126367   4.345   9.435   1.660 -0.2357  1.5667 -1.0789
40925SOL    HW226368   4.280   9.335   1.566 -0.0146 -0.3169  0.6960
40926SOL     OW26369  10.461   2.865   6.687  0.5162 -0.2403  0.0821
40926SOL    HW126370  10.479   2.773   6.709  3.4676  0.5018  1.3028
40926SOL    HW226371  10.548   2.907   6.687 -0.7149  2.5294 -0.5639
40927SOL     OW26372   6.749  10.200   0.998  0.3599  0.0143 -0.2055
40927SOL    HW126373   6.800  10.211   0.917  1.1838 -1.0803  0.1485
40927SOL    HW226374   6.794  10.256   1.062 -0.2615  0.8406 -0.4748
40928SOL     OW26375   5.699   5.258   4.871  0.3686 -0.2750  0.1627
40928SOL    HW126376   5.611   5.296   4.867  0.5410  0.1337  0.1900
40928SOL    HW226377   5.722   5.240   4.780  0.6133  0.4589  0.0705
40929SOL     OW26378   7.433   6.645   1.233 -0.0044 -0.0038  0.1130
40929SOL    HW126379   7.514   6.654   1.182  0.9205 -0.1233  1.5052
40929SOL    HW226380   7.447   6.567   1.286 -1.5127 -0.6754 -0.4302
40930SOL     OW26381   6.009   4.210   8.238  0.2328  0.1960  0.5110
40930SOL    HW126382   5.984   4.290   8.284 -0.0708 -0.0758  0.8259
40930SOL    HW226383   6.033   4.239   8.150 -0.4860  0.5576  0.4302
40931SOL     OW26384   7.730   8.767  10.056 -0.2429  0.4923 -0.1083
40931SOL    HW126385   7.744   8.672  10.053  1.1408  0.6976 -1.2534
40931SOL    HW226386   7.638   8.777  10.081  0.5959 -1.0783  4.7596
40932SOL     OW26387   5.938   7.602   0.523 -0.6834 -0.3030  0.7277
40932SOL    HW126388   5.927   7.679   0.466 -1.3671  0.2338  1.5561
40932SOL    HW226389   6.011   7.626   0.581  2.0569 -2.0123 -1.7439
40933SOL     OW26390   1.179   4.910   4.659 -0.2979  0.2244 -0.0777
40933SOL    HW126391   1.084   4.911   4.670 -0.3258  1.0858 -0.3195
40933SOL    HW226392   1.198   4.986   4.604  0.3493 -1.0857 -1.7463
40934SOL     OW26393   7.305   0.691   8.532 -0.5393 -0.5607  0.0126
40934SOL    HW126394   7.395   0.724   8.521 -1.0997  0.4679 -2.0024
40934SOL    HW226395   7.292   0.690   8.627  0.7860  1.6381  0.3057
40935SOL     OW26396   2.238  10.308   2.269 -0.2179  1.0137 -0.1980
40935SOL    HW126397   2.152  10.266   2.256 -0.5303  1.1707  1.2099
40935SOL    HW226398   2.290  10.278   2.195 -1.5649  1.1233 -1.2375
40936SOL     OW26399   4.472   7.620   6.245  0.3499  0.2903  0.1112
40936SOL    HW126400   4.555   7.628   6.197  0.3470  1.0441  0.2096
40936SOL    HW226401   4.407   7.655   6.184  0.4349  1.8719  0.8792
40937SOL     OW26402   7.049   0.823   4.185 -0.0665 -0.2696 -0.0079
40937SOL    HW126403   7.124   0.784   4.140  2.3956  0.4266  3.0887
40937SOL    HW226404   7.032   0.765   4.259  0.3368  1.7625  1.7862
40938SOL     OW26405  10.743  10.605   7.392  0.2186 -0.0697  0.2425
40938SOL    HW126406  10.677  10.563   7.447 -1.2953  0.9555 -0.7198
40938SOL    HW226407  10.786  10.533   7.346 -1.1926 -0.6971 -0.1427
40939SOL     OW26408   4.584   7.701   0.974 -0.5175  0.4225  0.4512
40939SOL    HW126409   4.508   7.673   1.025 -0.2605 -1.2039  0.0180
40939SOL    HW226410   4.560   7.786   0.938 -2.7124 -0.6216 -0.7583
40940SOL     OW26411   4.018   0.328   1.630 -0.1506 -0.1658 -0.2928
40940SOL    HW126412   4.071   0.253   1.654  0.9724  0.7464  0.2018
40940SOL    HW226413   3.979   0.305   1.546  0.6470 -1.0560 -0.4334
40941SOL     OW26414   4.346  10.755   2.092 -0.0017 -0.0413  1.0473
40941SOL    HW126415   4.300  10.721   2.168  0.4579  3.9939  3.4073
40941SOL    HW226416   4.279  10.762   2.024 -1.3808 -0.1560  2.3498
40942SOL     OW26417   6.824   3.251   2.118  0.5319  0.4594 -0.2316
40942SOL    HW126418   6.867   3.334   2.136 -1.2175  1.1458  1.0980
40942SOL    HW226419   6.742   3.275   2.075 -0.0959 -0.5378  0.3607
40943SOL     OW26420   4.151   2.087   5.061 -0.0560  0.2575 -0.0921
40943SOL    HW126421   4.179   2.025   5.128  1.4832  0.2462 -0.6861
40943SOL    HW226422   4.217   2.157   5.065 -1.7715  1.9185  0.6046
40944SOL     OW26423   5.564   9.574   0.530 -0.5086 -0.0051 -0.5164
40944SOL    HW126424   5.519   9.490   0.541 -0.7538  0.1880 -0.0097
40944SOL    HW226425   5.622   9.580   0.606 -1.3577  0.8155  0.0844
40945SOL     OW26426   2.329   4.205   3.695  0.1403 -0.0108 -0.2903
40945SOL    HW126427   2.337   4.151   3.616  1.6972 -0.4342  0.1311
40945SOL    HW226428   2.249   4.256   3.681 -0.3002 -0.9934 -1.5707
40946SOL     OW26429   5.162   5.778   0.680  0.1078  0.5511  0.1825
40946SOL    HW126430   5.163   5.867   0.716  0.6540  0.2097  1.0440
40946SOL    HW226431   5.100   5.783   0.608  0.2302  1.6684  0.1244
40947SOL     OW26432   6.905   8.776   3.052 -0.1896  0.4896 -0.3685
40947SOL    HW126433   6.851   8.838   3.003 -2.9059 -1.6820 -0.4085
40947SOL    HW226434   6.889   8.798   3.143 -1.6391 -0.4353 -0.3664
40948SOL     OW26435  11.066  10.648   7.180 -0.2314  0.0847  0.7640
40948SOL    HW126436  10.983  10.675   7.219 -0.5166 -1.6150  1.4342
40948SOL    HW226437  11.129  10.714   7.210 -1.0934  0.6773  1.3197
40949SOL     OW26438   2.089   5.042  10.465  0.4327 -0.8636  0.1419
40949SOL    HW126439   2.161   4.979  10.461  0.7301 -0.4984 -0.4955
40949SOL    HW226440   2.124   5.116  10.515  0.2732 -0.9714  0.4113
40950SOL     OW26441   1.831   7.931   5.207  0.2458  0.5417 -0.2288
40950SOL    HW126442   1.751   7.879   5.198  0.1660  0.6356 -0.0630
40950SOL    HW226443   1.856   7.920   5.299  0.9530 -0.2677 -0.4948
40951SOL     OW26444   9.347   7.660   4.729  0.0054 -0.4680 -0.0109
40951SOL    HW126445   9.276   7.711   4.689 -0.6132 -1.1698  0.1630
40951SOL    HW226446   9.388   7.614   4.655  0.1749 -0.1904 -0.0910
40952SOL     OW26447   4.055   3.020   3.359  0.4451 -0.4231 -0.3091
40952SOL    HW126448   4.110   3.005   3.435  0.9056 -1.2428 -0.7881
40952SOL    HW226449   4.053   2.936   3.314 -1.2428 -0.4328 -0.2808
40953SOL     OW26450   3.457   7.998   8.292  0.1297 -0.3214  0.2716
40953SOL    HW126451   3.493   7.987   8.205 -0.7129 -1.2252  0.0104
40953SOL    HW226452   3.461   8.092   8.309  0.3624 -0.1478 -0.7150
40954SOL     OW26453   5.338   4.804   7.356  0.4413 -0.3045 -0.3113
40954SOL    HW126454   5.407   4.823   7.420  0.7850  1.0029 -1.0169
40954SOL    HW226455   5.348   4.873   7.290 -0.6008 -0.9757 -1.1990
40955SOL     OW26456   1.509   6.231   1.355 -0.3303 -0.0636 -0.4143
40955SOL    HW126457   1.450   6.306   1.363 -0.4185 -0.0912 -0.8188
40955SOL    HW226458   1.518   6.199   1.445 -1.9824 -0.8576 -0.5006
40956SOL     OW26459   6.740   2.416   1.437  0.3225 -0.5429  0.1027
40956SOL    HW126460   6.765   2.504   1.410  1.5750 -0.6293  0.8942
40956SOL    HW226461   6.705   2.427   1.526  1.2831 -0.9312  0.5453
40957SOL     OW26462   5.755   9.870   3.149  0.3266  0.5923  0.3580
40957SOL    HW126463   5.812   9.815   3.202 -0.2365 -1.4506 -1.0710
40957SOL    HW226464   5.667   9.836   3.165  0.2240 -0.8602 -2.6244
40958SOL     OW26465   8.574   7.997   8.390 -0.3880  0.2414  0.0016
40958SOL    HW126466   8.507   7.946   8.344 -1.9139  0.8953  1.3886
40958SOL    HW226467   8.581   8.078   8.339 -0.8318  0.2725 -0.0138
40959SOL     OW26468   4.222  10.816  10.027  0.7917  0.1835 -0.4534
40959SOL    HW126469   4.225  10.910  10.010  0.7875 -0.1054 -2.3268
40959SOL    HW226470   4.267  10.777   9.952 -0.2024 -1.3592 -0.2924
40960SOL     OW26471   8.857   6.903   4.042  0.0607 -0.2951  0.0552
40960SOL    HW126472   8.780   6.854   4.015 -0.4585 -1.4441  3.2528
40960SOL    HW226473   8.822   6.982   4.084  0.4806 -1.3324  2.4899
40961SOL     OW26474   0.786   7.275   8.495  0.0694  0.3815 -0.2181
40961SOL    HW126475   0.723   7.212   8.460  0.7228 -0.6419  0.3810
40961SOL    HW226476   0.738   7.358   8.498 -1.0580 -0.2427 -0.3365
40962SOL     OW26477  10.851   7.654   2.596  0.4061  0.4163 -0.5231
40962SOL    HW126478  10.762   7.686   2.609  1.6152  4.2041 -0.2843
40962SOL    HW226479  10.840   7.563   2.567 -3.3491 -0.3066  2.3836
40963SOL     OW26480   3.191   3.786   5.058  0.2355 -0.2770  1.0027
40963SOL    HW126481   3.115   3.748   5.102 -1.0810  1.1090  0.0250
40963SOL    HW226482   3.167   3.877   5.043  1.2800 -0.2945 -1.1189
40964SOL     OW26483   0.121   8.392   0.742  0.6511  0.2426 -0.1273
40964SOL    HW126484   0.145   8.366   0.831 -0.5734  0.4129  0.2681
40964SOL    HW226485   0.075   8.475   0.753 -0.6988 -0.3920 -0.7733
40965SOL     OW26486   3.490   0.479   4.356  0.5341 -0.1701 -0.0845
40965SOL    HW126487   3.529   0.453   4.273  0.2303  0.8256 -0.5615
40965SOL    HW226488   3.395   0.478   4.340  0.4733  0.0418  0.2425
40966SOL     OW26489   6.414   4.622   3.272 -1.0812 -0.2846  0.5313
40966SOL    HW126490   6.463   4.633   3.190 -1.5100  0.1879  0.3320
40966SOL    HW226491   6.364   4.541   3.259  0.2502 -1.2204  1.0565
40967SOL     OW26492   1.139   8.919   6.890  0.1784  0.1126 -0.1227
40967SOL    HW126493   1.059   8.917   6.943  0.4820  0.0260  0.3372
40967SOL    HW226494   1.201   8.865   6.938  0.4344 -0.0350 -0.6131
40968SOL     OW26495   9.633   8.373   9.572 -0.0181 -0.1519  0.2646
40968SOL    HW126496   9.591   8.415   9.497 -0.2703  0.9753  1.0189
40968SOL    HW226497   9.726   8.369   9.548 -0.4125 -2.3557 -1.2681
40969SOL     OW26498   7.865  10.316   0.485 -0.4715 -0.3524  0.4305
40969SOL    HW126499   7.858  10.290   0.577 -2.2282 -1.2388  0.1008
40969SOL    HW226500   7.778  10.352   0.465  0.3360  1.1513 -0.5116
40970SOL     OW26501   3.742   4.893   5.112 -0.1103 -0.8915  0.0196
40970SOL    HW126502   3.796   4.864   5.186  1.4355 -0.0632 -0.7396
40970SOL    HW226503   3.750   4.988   5.113 -0.2037 -0.8638 -1.1144
40971SOL     OW26504   6.888  10.121   2.275 -0.4999 -0.2431  0.7898
40971SOL    HW126505   6.857  10.088   2.191  0.5527 -1.8901  0.9949
40971SOL    HW226506   6.809  10.150   2.321 -1.1926 -0.2422 -0.3741
40972SOL     OW26507   8.144   0.624   1.549 -0.7190 -0.3125  0.5150
40972SOL    HW126508   8.207   0.552   1.539  0.3942  0.8291 -1.2105
40972SOL    HW226509   8.141   0.665   1.462  0.3164  3.0017  1.8786
40973SOL     OW26510   1.328   5.065  10.872 -0.1774  0.1552 -0.5223
40973SOL    HW126511   1.286   5.143  10.837  0.4835  0.5322 -0.5074
40973SOL    HW226512   1.421   5.089  10.878 -0.3033  0.2807  1.9171
40974SOL     OW26513   6.550   1.532   2.083 -0.0166  0.2472 -0.7052
40974SOL    HW126514   6.550   1.585   2.003  0.5911  2.3821  0.6380
40974SOL    HW226515   6.642   1.526   2.108 -0.1780 -0.6387 -0.2957
40975SOL     OW26516   8.395   2.468   8.853  0.4238 -0.4103 -0.0669
40975SOL    HW126517   8.335   2.528   8.897  1.2608  0.6568 -0.3664
40975SOL    HW226518   8.405   2.504   8.765  2.5547  0.2263  0.3786
40976SOL     OW26519   9.954   2.036  10.063  0.2357 -0.5269 -0.0404
40976SOL    HW126520   9.932   1.988   9.982 -1.3680 -0.1524  0.1370
40976SOL    HW226521   9.996   1.970  10.119  1.2903 -0.8162 -1.1242
40977SOL     OW26522  10.280   4.517   6.794 -0.0462  0.9207 -0.4637
40977SOL    HW126523  10.197   4.548   6.829  1.1941  2.2132  1.5471
40977SOL    HW226524  10.326   4.596   6.768  1.0536  0.3398 -0.3445
40978SOL     OW26525   9.029   3.616   5.408  0.0742  0.0663 -0.2288
40978SOL    HW126526   8.983   3.599   5.491 -0.2282  1.2916 -0.1283
40978SOL    HW226527   8.960   3.638   5.347  0.2744 -1.0838 -0.9008
40979SOL     OW26528   5.744   2.489   8.430 -0.1053 -0.5142  0.2852
40979SOL    HW126529   5.730   2.543   8.508 -0.1288  1.7173 -1.1717
40979SOL    HW226530   5.661   2.442   8.418 -0.4151 -0.1926  1.0959
40980SOL     OW26531   1.396   7.334   3.227 -0.2258 -0.3126 -0.4274
40980SOL    HW126532   1.313   7.353   3.270 -0.6257  0.9410 -1.6691
40980SOL    HW226533   1.450   7.292   3.295 -2.1188 -1.9050  0.1825
40981SOL     OW26534   2.356   1.335   0.557  0.2407 -0.3314 -0.2793
40981SOL    HW126535   2.400   1.331   0.642 -0.8180  3.3865  0.6041
40981SOL    HW226536   2.306   1.253   0.552  1.8923 -1.5456  1.7198
40982SOL     OW26537   9.857   7.606   1.863  0.0353 -0.2455  0.0170
40982SOL    HW126538   9.772   7.649   1.858  0.9364  1.5607 -1.3732
40982SOL    HW226539   9.865   7.557   1.781 -0.0226 -1.1576  0.5474
40983SOL     OW26540   0.682   6.463   9.423  0.5455  0.0437 -0.1259
40983SOL    HW126541   0.728   6.512   9.355  0.0521  0.5815 -0.0738
40983SOL    HW226542   0.596   6.444   9.386 -0.2004  1.4452  0.8128
40984SOL     OW26543  10.150   8.677   0.891 -0.3093 -0.4679  0.3778
40984SOL    HW126544  10.211   8.610   0.922 -0.4724 -0.9699 -0.3493
40984SOL    HW226545  10.094   8.696   0.966  0.1068 -0.7207  0.7591
40985SOL     OW26546   7.962   6.787   4.550  0.8381  0.6466 -0.2165
40985SOL    HW126547   7.890   6.849   4.539  0.1040 -0.2348 -0.5540
40985SOL    HW226548   7.935   6.732   4.623 -0.2331 -1.5264 -2.1317
40986SOL     OW26549   5.010  10.874   4.691  0.2474  0.2796  0.0655
40986SOL    HW126550   5.098  10.905   4.709  0.7549 -0.9753 -0.1925
40986SOL    HW226551   4.965  10.878   4.776  0.7711  0.2192  0.3464
40987SOL     OW26552   8.108   4.649   2.986 -0.2616 -0.3264 -0.2505
40987SOL    HW126553   8.142   4.578   2.932 -0.0229 -1.0282  0.7984
40987SOL    HW226554   8.174   4.662   3.054 -0.8569  0.0917  0.2599
40988SOL     OW26555  10.010   8.975   1.032  0.4224  0.2486  0.1101
40988SOL    HW126556  10.034   8.900   1.085 -0.2136  0.3662  0.5864
40988SOL    HW226557   9.945   8.941   0.970 -0.2921  0.5089  0.6994
40989SOL     OW26558   5.045   3.849   6.041  0.1111  0.7577 -0.3242
40989SOL    HW126559   5.033   3.771   6.095 -0.7832  0.4597 -0.9220
40989SOL    HW226560   5.139   3.866   6.043  0.5455 -1.2111 -1.3370
40990SOL     OW26561   2.832   4.563  10.179  0.1101 -0.3420  0.5676
40990SOL    HW126562   2.757   4.531  10.128 -0.2224 -0.3899  1.0826
40990SOL    HW226563   2.862   4.486  10.228 -0.3631  0.0031  1.4129
40991SOL     OW26564   8.493   9.197  10.054  0.4136  0.4396  0.4526
40991SOL    HW126565   8.581   9.185  10.019  0.3845  0.7857  0.2574
40991SOL    HW226566   8.472   9.113  10.095 -0.3244 -0.7023 -2.0630
40992SOL     OW26567   6.048   4.047   1.188 -0.5471  0.1331 -0.1666
40992SOL    HW126568   6.102   3.981   1.232  0.4014  0.7843 -0.3122
40992SOL    HW226569   6.061   4.126   1.240 -0.3656  0.6092 -0.9310
40993SOL     OW26570   1.009   2.908   6.245  0.2094 -0.1575 -0.5402
40993SOL    HW126571   0.984   2.982   6.301  1.8669  0.8258 -1.0293
40993SOL    HW226572   0.942   2.841   6.262  0.8255 -0.0690  2.8977
40994SOL     OW26573   6.493   0.025   4.705  0.0824 -0.8052 -0.6431
40994SOL    HW126574   6.561   0.084   4.674  1.6216 -0.9088  2.2562
40994SOL    HW226575   6.520  -0.061   4.675  0.1854 -0.6014 -1.1442
40995SOL     OW26576   5.159   2.297   7.790  0.7957  0.3135  0.0875
40995SOL    HW126577   5.095   2.328   7.853 -0.8144  0.9655 -1.7731
40995SOL    HW226578   5.181   2.374   7.738  1.7613 -0.2974 -0.4333
40996SOL     OW26579  10.450   3.410   0.005  0.0592  0.2216  0.7751
40996SOL    HW126580  10.455   3.389   0.098 -0.0205  2.0177  1.2057
40996SOL    HW226581  10.377   3.471  -0.003 -1.2250 -1.3985 -0.7950
40997SOL     OW26582   4.879   9.533   2.939 -0.3572 -0.6948 -0.0227
40997SOL    HW126583   4.972   9.525   2.918  0.2413  0.2642  1.9938
40997SOL    HW226584   4.847   9.603   2.883  0.2347 -0.7556 -0.4421
40998SOL     OW26585   0.549   4.102  10.645  0.1683  0.4361 -0.0540
40998SOL    HW126586   0.464   4.134  10.613 -0.0571 -0.3858 -0.3103
40998SOL    HW226587   0.576   4.038  10.578  0.1993 -0.5258  0.8529
40999SOL     OW26588   8.634   7.512   5.398  0.2440  0.2812 -0.2731
40999SOL    HW126589   8.569   7.446   5.375 -0.6923  0.0877  2.5168
40999SOL    HW226590   8.616   7.585   5.339 -1.6913 -0.2649 -0.4212
41000SOL     OW26591   0.354   8.915   3.706  0.1360  0.1515 -0.1877
41000SOL    HW126592   0.328   8.913   3.798  1.1747  1.0091  0.1537
41000SOL    HW226593   0.346   9.008   3.682  1.8589  0.2913 -0.3345
41001SOL     OW26594   6.564   4.316   6.621 -0.1952 -0.5559  0.3502
41001SOL    HW126595   6.588   4.408   6.632 -0.6610 -0.1703 -1.4592
41001SOL    HW226596   6.530   4.289   6.706 -0.2225  1.0061  0.8577
41002SOL     OW26597   8.668   2.089  10.663  0.1458 -0.3879 -0.3816
41002SOL    HW126598   8.715   2.047  10.736 -1.4375 -0.8156  0.4296
41002SOL    HW226599   8.726   2.161  10.636  1.1993 -0.7996  0.6647
41003SOL     OW26600   2.465   6.822   3.360  0.3846 -0.0712  0.3961
41003SOL    HW126601   2.537   6.823   3.424  0.6371 -0.9813  0.1430
41003SOL    HW226602   2.495   6.761   3.292 -1.0593 -1.2913  0.7949
41004SOL     OW26603   8.057   5.214   0.058  0.1832 -0.1492  0.2365
41004SOL    HW126604   7.981   5.270   0.051  0.4079  0.2759  1.1410
41004SOL    HW226605   8.026   5.136   0.104 -0.1630 -0.8624 -1.1396
41005SOL     OW26606   2.243   1.708   5.029 -0.2225 -0.3405 -0.5388
41005SOL    HW126607   2.163   1.656   5.035  0.9925 -2.1031  1.8063
41005SOL    HW226608   2.298   1.677   5.100  1.2131  3.2223  0.1503
41006SOL     OW26609   1.520   8.999   9.823 -0.0538 -0.1462 -0.2900
41006SOL    HW126610   1.490   8.955   9.902  0.3000  0.9332  0.4732
41006SOL    HW226611   1.480   9.086   9.828 -1.2519 -0.5400 -2.0683
41007SOL     OW26612  10.844   2.804   9.528  0.3690  0.1909  0.3588
41007SOL    HW126613  10.773   2.782   9.589  0.3100  0.2363  0.3073
41007SOL    HW226614  10.867   2.721   9.486  0.0926  0.2457  0.1024
41008SOL     OW26615   6.039   3.335   0.787 -0.1430  0.4716  0.4674
41008SOL    HW126616   6.026   3.417   0.835 -1.3235 -0.1389  1.2414
41008SOL    HW226617   5.951   3.298   0.777  0.3674 -0.7413  0.2227
41009SOL     OW26618   8.582   6.464   5.436 -0.1630  0.0156  0.1078
41009SOL    HW126619   8.538   6.389   5.476 -0.3042  0.1815  0.2593
41009SOL    HW226620   8.629   6.506   5.508  0.2910 -0.1880 -0.0581
41010SOL     OW26621   8.956  10.898   6.957 -0.2030  0.3031  0.0475
41010SOL    HW126622   8.995  10.978   6.992 -0.2100  0.6413 -0.6906
41010SOL    HW226623   8.990  10.828   7.013  0.0677  0.7869  0.4942
41011SOL     OW26624   3.249   8.688   9.754 -0.1077 -0.4749  0.0700
41011SOL    HW126625   3.206   8.638   9.823  0.1846 -0.7150  0.0844
41011SOL    HW226626   3.282   8.621   9.694  0.9020 -0.3474  0.4503
41012SOL     OW26627   8.503   2.322  10.142  0.2445  0.3403  0.2124
41012SOL    HW126628   8.502   2.228  10.161 -1.1049  0.5342  1.1761
41012SOL    HW226629   8.595   2.347  10.153  0.4883 -0.7128  0.7261
41013SOL     OW26630   8.303   2.492   3.602  0.3929  0.5876  0.1159
41013SOL    HW126631   8.279   2.554   3.671  0.6038  0.8179 -0.0137
41013SOL    HW226632   8.281   2.406   3.637  0.4340  0.7104  0.4409
41014SOL     OW26633   6.326   6.612   1.243  0.2755 -0.5292 -0.1180
41014SOL    HW126634   6.267   6.539   1.221 -1.8093  1.0994 -0.2427
41014SOL    HW226635   6.413   6.574   1.240 -0.6556 -2.7409 -1.3234
41015SOL     OW26636   2.396   3.319   0.935  0.0025 -0.8017 -0.0842
41015SOL    HW126637   2.305   3.292   0.923  0.1548 -1.4237  0.1001
41015SOL    HW226638   2.416   3.373   0.859 -1.2050  1.2562  0.9692
41016SOL     OW26639   5.900   9.524  10.630 -0.5252  0.0019  0.1062
41016SOL    HW126640   5.835   9.524  10.699 -0.4981 -0.1660  0.1310
41016SOL    HW226641   5.881   9.602  10.578  0.2374  0.8363  1.0429
41017SOL     OW26642   0.721   7.370   3.468 -0.3195 -0.1288 -0.4888
41017SOL    HW126643   0.772   7.446   3.496  1.0060 -1.0423 -0.3757
41017SOL    HW226644   0.636   7.383   3.511  0.3519  0.5674  0.7101
41018SOL     OW26645   8.806  10.629   4.233  0.0181 -0.5270  0.5978
41018SOL    HW126646   8.776  10.678   4.310 -0.0377  0.1502  0.1539
41018SOL    HW226647   8.901  10.644   4.231  0.0813 -0.8907  0.7694
41019SOL     OW26648   2.786   4.646   2.698  0.1133  0.4404  0.9433
41019SOL    HW126649   2.740   4.571   2.735 -0.1769  0.0792 -0.1363
41019SOL    HW226650   2.877   4.616   2.688 -0.0632  0.1210  0.2380
41020SOL     OW26651   6.803   3.867   9.880 -0.0453 -0.6695  0.4709
41020SOL    HW126652   6.812   3.937   9.945  0.3876 -0.2737 -0.0133
41020SOL    HW226653   6.716   3.880   9.843 -1.2408 -2.2142  2.4815
41021SOL     OW26654   4.534   3.186   3.125  0.1395 -0.7984 -0.4167
41021SOL    HW126655   4.628   3.173   3.119  0.2368  0.1863 -1.0875
41021SOL    HW226656   4.500   3.099   3.149  1.1691 -1.2475 -0.5275
41022SOL     OW26657   8.658  11.039   1.574  0.8465 -0.1999 -0.1267
41022SOL    HW126658   8.702  10.956   1.555  0.0335 -0.3555 -1.4558
41022SOL    HW226659   8.689  11.099   1.506  0.8933  0.3890  0.4066
41023SOL     OW26660   8.519   8.791   3.254 -0.4107 -0.4223  0.1667
41023SOL    HW126661   8.566   8.742   3.322  0.5903  0.8453  0.4315
41023SOL    HW226662   8.427   8.766   3.265 -0.5101  0.7115  2.9010
41024SOL     OW26663   0.327   6.447   4.988 -0.0362  0.2144 -0.3339
41024SOL    HW126664   0.253   6.464   5.046 -0.4245  1.5948 -1.1925
41024SOL    HW226665   0.346   6.532   4.948  1.5959 -0.2541 -0.6289
41025SOL     OW26666   2.759   0.773  10.273  0.8284  0.4153 -0.1137
41025SOL    HW126667   2.758   0.805  10.183  0.0863  2.1136  0.4652
41025SOL    HW226668   2.813   0.835  10.320  0.4973  0.0309  0.7880
41026SOL     OW26669   5.128   2.922   4.895  0.3053 -0.3088 -0.6668
41026SOL    HW126670   5.157   2.973   4.820 -0.1860  1.7688  0.4819
41026SOL    HW226671   5.207   2.905   4.945  0.6289 -1.6713 -1.5936
41027SOL     OW26672   6.879   0.909   3.648 -0.2514 -0.4120 -0.0532
41027SOL    HW126673   6.906   0.966   3.720  0.3298 -0.1536 -0.4681
41027SOL    HW226674   6.904   0.821   3.676  0.5313 -0.2373 -0.2035
41028SOL     OW26675   8.589   9.883   5.702 -0.2176 -0.0881 -0.4250
41028SOL    HW126676   8.642   9.960   5.681  0.2153  0.1558  1.3512
41028SOL    HW226677   8.626   9.813   5.649 -0.5015  0.8736 -1.9437
41029SOL     OW26678   2.655   9.283   1.832 -0.3288  0.2844 -0.3308
41029SOL    HW126679   2.653   9.377   1.854  0.5270  0.4631 -0.9754
41029SOL    HW226680   2.747   9.264   1.816 -0.3513 -0.9225  0.7961
41030SOL     OW26681   0.519   2.958   6.397 -0.0828  0.2437 -0.0137
41030SOL    HW126682   0.441   2.911   6.370 -0.9541 -0.1656  2.8949
41030SOL    HW226683   0.581   2.889   6.422  0.6387  0.5935 -0.7900
41031SOL     OW26684   6.195   2.884   9.496  0.7592  0.2925 -0.5362
41031SOL    HW126685   6.157   2.797   9.504 -0.3507  0.8358  0.2716
41031SOL    HW226686   6.289   2.868   9.485  0.5003 -1.0133 -1.0146
41032SOL     OW26687   4.315   0.994   0.105  0.1655  0.4681 -0.6036
41032SOL    HW126688   4.252   0.937   0.062  1.2224  0.3860 -2.1391
41032SOL    HW226689   4.264   1.071   0.132 -0.4671  0.7833 -2.5489
41033SOL     OW26690   7.008   5.985   7.878 -0.1102 -0.3454  0.3631
41033SOL    HW126691   7.031   6.076   7.898  0.0868  0.0475 -1.4621
41033SOL    HW226692   6.974   5.950   7.960  1.5115  0.8206  1.5917
41034SOL     OW26693   8.746   0.521   0.776  0.0612 -0.5625  0.2067
41034SOL    HW126694   8.693   0.600   0.789 -0.5130 -1.0866  1.0933
41034SOL    HW226695   8.785   0.504   0.862  2.0657  0.0608 -0.5044
41035SOL     OW26696  10.177   0.919   2.676 -0.3419  0.6225  0.2864
41035SOL    HW126697  10.182   1.010   2.647 -1.8570  0.2620 -1.2650
41035SOL    HW226698  10.210   0.920   2.766  2.0135  2.2662 -0.5050
41036SOL     OW26699   5.708   3.466   6.998 -0.4252  0.5141  0.2337
41036SOL    HW126700   5.687   3.423   7.081 -1.0838 -1.7658 -1.0461
41036SOL    HW226701   5.633   3.450   6.942  0.5569  0.8454 -1.2412
41037SOL     OW26702   4.543   3.331   0.024 -0.0545  0.4267 -0.1901
41037SOL    HW126703   4.530   3.295   0.112  0.2021  0.5439 -0.1027
41037SOL    HW226704   4.546   3.254  -0.033 -2.3063  0.4246 -0.3902
41038SOL     OW26705   2.748   2.821   3.584  0.0443  0.8667 -0.3179
41038SOL    HW126706   2.802   2.881   3.534  0.0532  0.6857 -0.5279
41038SOL    HW226707   2.807   2.750   3.610 -0.0350  0.7934 -0.3352
41039SOL     OW26708  10.646   8.481   8.491 -0.6814 -0.2711  0.1471
41039SOL    HW126709  10.626   8.398   8.536 -0.3171  0.3063  1.4075
41039SOL    HW226710  10.669   8.454   8.402 -0.7955 -1.5049  0.4623
41040SOL     OW26711   7.510  10.388   4.333  0.3181 -0.0075  0.4622
41040SOL    HW126712   7.549  10.474   4.348  2.9251 -0.9843 -0.2568
41040SOL    HW226713   7.515  10.343   4.417  1.5341 -0.3943  0.2024
41041SOL     OW26714  10.662   9.209   0.036 -0.1458  0.4708 -0.5863
41041SOL    HW126715  10.610   9.289   0.046 -0.3341  0.2458  0.2762
41041SOL    HW226716  10.720   9.209   0.112  1.1921  0.7675 -1.5708
41042SOL     OW26717   9.923   0.171   3.322  0.6627 -0.4172 -0.0606
41042SOL    HW126718   9.907   0.198   3.232  0.5479 -0.0776  0.0607
41042SOL    HW226719   9.877   0.087   3.330 -2.4897  1.2301  0.7251
41043SOL     OW26720   3.231   7.775   6.809  0.5103  0.2370  0.8330
41043SOL    HW126721   3.152   7.804   6.855  0.1560  0.6489 -0.0114
41043SOL    HW226722   3.233   7.680   6.823 -0.0968  0.2279  0.9103
41044SOL     OW26723  10.255   6.234   0.298  0.2544  0.2191  0.1505
41044SOL    HW126724  10.217   6.267   0.217 -0.6599 -1.2516 -0.0669
41044SOL    HW226725  10.188   6.177   0.335  1.7790 -1.5563  0.3562
41045SOL     OW26726   3.485   6.314   2.238  0.1040  0.0566  0.4538
41045SOL    HW126727   3.525   6.256   2.172 -0.2617  1.8613 -1.4591
41045SOL    HW226728   3.541   6.304   2.315  1.7161 -0.7071 -0.7454
41046SOL     OW26729   1.975   0.094   2.316 -0.7760  0.4411  0.0580
41046SOL    HW126730   2.013   0.181   2.310 -1.2244  0.5419 -2.4837
41046SOL    HW226731   1.882   0.107   2.296 -1.2353 -0.3855  1.5487
41047SOL     OW26732   7.378  10.427  11.087  0.3105  0.2035 -0.6105
41047SOL    HW126733   7.396  10.514  11.123 -0.6598  0.5415 -0.9245
41047SOL    HW226734   7.415  10.430  10.998  0.1156  0.3605 -0.6874
41048SOL     OW26735   0.736   3.076   9.087 -0.3983  0.0681  0.2483
41048SOL    HW126736   0.686   3.059   9.166 -0.1903 -0.8983  0.1776
41048SOL    HW226737   0.825   3.049   9.108 -0.1762  0.5327 -0.0675
41049SOL     OW26738   4.130   6.438   1.990  0.1585  0.4720  0.1890
41049SOL    HW126739   4.067   6.405   1.926 -0.0155  0.3298  0.4312
41049SOL    HW226740   4.087   6.514   2.028  0.1365  0.3779  0.3510
41050SOL     OW26741   8.417   8.961   0.748 -0.2311 -0.4001  0.2992
41050SOL    HW126742   8.362   9.020   0.697 -0.0389 -0.9290 -0.5382
41050SOL    HW226743   8.355   8.904   0.794 -0.4490 -2.0696 -1.8972
41051SOL     OW26744   0.976  10.541   7.363  0.2060 -0.5128  0.0761
41051SOL    HW126745   0.903  10.526   7.423 -0.7006 -2.2380 -1.3815
41051SOL    HW226746   1.046  10.483   7.394 -0.0377 -0.9401 -0.1783
41052SOL     OW26747   9.694   5.050   4.448 -0.0521 -0.2078 -0.0782
41052SOL    HW126748   9.735   5.135   4.458 -0.4707 -0.0843  0.6416
41052SOL    HW226749   9.724   5.019   4.363  0.6143  0.3733 -0.0616
41053SOL     OW26750   9.575   9.525   7.467 -0.3587 -0.0409 -0.0828
41053SOL    HW126751   9.559   9.431   7.459  1.4331 -0.3327 -0.6799
41053SOL    HW226752   9.603   9.552   7.380 -1.3397  1.1834 -0.0507
41054SOL     OW26753   7.945   0.156   0.260 -0.4838  0.4174  0.4125
41054SOL    HW126754   7.888   0.084   0.286 -2.0197  1.5075  0.1905
41054SOL    HW226755   7.995   0.122   0.186 -0.1217 -0.8771  1.2212
41055SOL     OW26756   2.044   9.677   9.901 -0.0988 -0.4924  0.8764
41055SOL    HW126757   1.999   9.597   9.874 -1.2896 -0.2034  1.8590
41055SOL    HW226758   1.982   9.747   9.880  0.8584  0.1654  0.1821
41056SOL     OW26759   7.807   6.798   1.307 -0.0866 -0.3430  0.4329
41056SOL    HW126760   7.758   6.756   1.236 -2.2895 -0.1089  1.7116
41056SOL    HW226761   7.750   6.870   1.336  1.2702  0.2828  1.6817
41057SOL     OW26762  10.534   3.525   9.820  0.2966  0.1143  0.0868
41057SOL    HW126763  10.611   3.580   9.805 -0.4955  1.1922 -0.1649
41057SOL    HW226764  10.463   3.571   9.774 -1.1171  0.6918  2.6525
41058SOL     OW26765  10.740   5.717   1.369 -0.0685  0.5035  0.3934
41058SOL    HW126766  10.781   5.750   1.289  2.4968  0.2923  1.5045
41058SOL    HW226767  10.692   5.639   1.342  1.8312 -0.3255 -0.7881
41059SOL     OW26768   6.999   0.065   6.561 -0.0579 -0.3727  0.4874
41059SOL    HW126769   7.019   0.086   6.652 -0.5782  1.1350  0.2758
41059SOL    HW226770   7.023  -0.028   6.552  2.1673  0.0327  1.5259
41060SOL     OW26771   6.124   1.937   9.838  0.5664 -0.6241 -0.4440
41060SOL    HW126772   6.043   1.923   9.790  1.1539  1.5184 -2.1792
41060SOL    HW226773   6.193   1.918   9.775  1.4240 -0.8610  0.5310
41061SOL     OW26774  10.915   6.353   5.172  0.2379 -0.0597  0.1963
41061SOL    HW126775  10.856   6.400   5.232  0.6536  0.6123  0.0917
41061SOL    HW226776  10.992   6.334   5.224  0.1886 -0.3789  0.1544
41062SOL     OW26777   5.141   3.239   6.235  0.5517  0.2285 -0.2438
41062SOL    HW126778   5.228   3.253   6.198  0.6158  1.5050  0.3423
41062SOL    HW226779   5.146   3.279   6.323  0.1881 -2.0219  0.8726
41063SOL     OW26780   8.492   9.489   3.614  0.1479 -0.6467  0.2083
41063SOL    HW126781   8.505   9.402   3.650 -1.3189 -0.7788  0.4894
41063SOL    HW226782   8.397   9.498   3.606  0.0789  1.7639  2.3406
41064SOL     OW26783   7.441   7.941   1.075 -0.1800 -0.1800  0.1817
41064SOL    HW126784   7.501   7.876   1.112 -0.3184  0.8622  2.4521
41064SOL    HW226785   7.392   7.894   1.008  0.2851 -2.1882  1.1850
41065SOL     OW26786   8.387   1.147  10.010  0.4635 -0.5991 -0.3659
41065SOL    HW126787   8.423   1.158  10.098  1.3898 -0.3015 -0.7713
41065SOL    HW226788   8.433   1.071   9.974  3.2798  1.6970 -2.1084
41066SOL     OW26789   9.076   1.142  11.052  0.0841 -0.2658  0.5839
41066SOL    HW126790   9.168   1.119  11.064  0.1258 -1.3193 -1.3302
41066SOL    HW226791   9.059   1.126  10.959 -2.0027  0.0233  0.8627
41067SOL     OW26792   9.258   3.372   2.963 -0.2982 -0.2514 -0.3231
41067SOL    HW126793   9.176   3.358   3.011 -0.0470 -2.0359 -0.3796
41067SOL    HW226794   9.246   3.327   2.880  1.8397 -3.3546  0.9010
41068SOL     OW26795   6.521   8.041   9.644 -0.4732 -0.0392  0.2082
41068SOL    HW126796   6.455   8.085   9.699  1.4161 -0.1540  2.7526
41068SOL    HW226797   6.558   7.974   9.701  1.4082 -0.4072 -1.3543
41069SOL     OW26798   5.949   0.715   8.537 -0.6024 -0.2852 -0.0946
41069SOL    HW126799   5.945   0.636   8.592  2.6780 -1.1720 -0.9083
41069SOL    HW226800   5.938   0.682   8.448  0.1185  0.2409 -0.3912
41070SOL     OW26801   7.131   0.835   3.422 -0.2833  0.5936  0.0471
41070SOL    HW126802   7.055   0.793   3.462  0.2853  0.7661  1.3768
41070SOL    HW226803   7.184   0.763   3.389 -1.7956  0.5225 -2.4750
41071SOL     OW26804   5.890   5.961   3.604 -0.4871  0.3117  0.1551
41071SOL    HW126805   5.856   5.921   3.523 -1.3500  0.0422  0.6383
41071SOL    HW226806   5.959   6.020   3.574  0.1983 -0.8637 -0.6535
41072SOL     OW26807   5.177   1.143   6.207 -0.4793  0.1769 -0.4574
41072SOL    HW126808   5.163   1.094   6.288 -0.4300 -0.3239 -0.7444
41072SOL    HW226809   5.131   1.092   6.140 -1.2730  1.0490 -0.6033
41073SOL     OW26810  10.360   8.508   9.217  0.0595  0.0426 -0.2650
41073SOL    HW126811  10.386   8.596   9.192 -0.3084 -0.4503 -2.5812
41073SOL    HW226812  10.268   8.516   9.240  0.1112  0.3032 -0.1412
41074SOL     OW26813   6.167   3.504   7.850  0.0070  0.6056  0.1932
41074SOL    HW126814   6.227   3.577   7.835 -0.4862  0.9622 -0.0915
41074SOL    HW226815   6.151   3.505   7.944  0.7292  0.2810  0.3228
41075SOL     OW26816   8.115   0.694   1.273 -0.1322  0.4033  0.0732
41075SOL    HW126817   8.101   0.778   1.231 -0.8104  0.2719  0.0233
41075SOL    HW226818   8.173   0.646   1.213 -0.1248  0.6553 -0.1209
41076SOL     OW26819   8.986   0.867   5.449  0.0670  0.4210 -0.1548
41076SOL    HW126820   9.008   0.960   5.448 -0.5783  0.6492  1.9042
41076SOL    HW226821   9.070   0.822   5.457  0.3759  0.7939 -1.1038
41077SOL     OW26822   3.645   1.858   0.746 -0.3252 -0.0059 -0.3265
41077SOL    HW126823   3.561   1.902   0.759  0.3661  0.7276  2.1938
41077SOL    HW226824   3.658   1.808   0.827  0.6722 -1.8871 -1.5752
41078SOL     OW26825   7.758   9.504   2.718 -0.0491 -0.6879 -0.6441
41078SOL    HW126826   7.737   9.526   2.627 -1.1185 -1.4623 -0.6056
41078SOL    HW226827   7.755   9.408   2.720  1.7189 -0.7655 -0.1783
41079SOL     OW26828   9.354   7.578   1.174  0.2680  0.3195 -0.5213
41079SOL    HW126829   9.316   7.646   1.230  0.0976  1.0615 -1.5114
41079SOL    HW226830   9.283   7.555   1.113  0.7477  0.2378 -1.0583
41080SOL     OW26831   5.968   5.704   6.686 -0.3899  0.2876 -0.0551
41080SOL    HW126832   6.003   5.646   6.619  0.5102 -0.2599  0.8627
41080SOL    HW226833   5.980   5.657   6.768  1.1311  2.0663  0.8314
41081SOL     OW26834   9.646   6.285   8.425  0.1566 -0.2873 -0.1458
41081SOL    HW126835   9.672   6.311   8.513  0.7041  1.4970 -0.7805
41081SOL    HW226836   9.601   6.362   8.390 -0.0171 -0.9433 -1.4235
41082SOL     OW26837   6.545   8.971   8.039  0.0049 -0.1227 -0.3573
41082SOL    HW126838   6.534   8.886   7.997  0.2160 -1.0019  1.2819
41082SOL    HW226839   6.523   9.034   7.971  0.5488 -1.4533 -1.8390
41083SOL     OW26840   5.238   1.334  11.077  0.1772 -0.0571 -0.0294
41083SOL    HW126841   5.250   1.292  11.162  0.2543  1.1245  0.5692
41083SOL    HW226842   5.286   1.278  11.015  0.8182 -0.4827  0.8359
41084SOL     OW26843   4.294   4.346   2.563 -0.0226  0.1801 -0.9060
41084SOL    HW126844   4.367   4.312   2.511  0.2665 -0.3794 -0.1468
41084SOL    HW226845   4.320   4.436   2.584  0.9360 -0.3336  0.2095
41085SOL     OW26846   1.924   1.619   2.790 -0.2289 -0.1966  0.2634
41085SOL    HW126847   1.928   1.714   2.800 -1.5341  0.0906 -1.4666
41085SOL    HW226848   1.937   1.604   2.697  0.0697 -1.7293  0.5365
41086SOL     OW26849   3.759   1.077   3.789 -0.6643  0.5594  0.4416
41086SOL    HW126850   3.670   1.049   3.809  0.6247 -3.8401  1.1502
41086SOL    HW226851   3.776   1.044   3.701  0.3642  1.1135  0.4091
41087SOL     OW26852   5.625   8.911   5.920 -0.2998  0.0255  0.0847
41087SOL    HW126853   5.666   8.835   5.962 -1.2611  0.4989  2.0149
41087SOL    HW226854   5.696   8.952   5.870  0.8433 -0.7953  0.9709
41088SOL     OW26855  10.753   0.897   3.277 -0.5004 -0.1485  0.1910
41088SOL    HW126856  10.713   0.837   3.213  0.1386  0.1337 -0.4892
41088SOL    HW226857  10.703   0.883   3.357 -1.3071 -0.5332 -0.3616
41089SOL     OW26858   5.277   4.234  10.428 -0.2211  0.3115 -0.4886
41089SOL    HW126859   5.314   4.247  10.516  3.1721 -0.9588 -1.5446
41089SOL    HW226860   5.192   4.194  10.444  0.5805 -0.5946  2.2479
41090SOL     OW26861  10.409  11.100  11.026 -0.8001 -0.2193  0.7495
41090SOL    HW126862  10.471  11.152  10.974 -0.6384 -1.3786 -0.2752
41090SOL    HW226863  10.431  11.120  11.117 -1.1663  1.9694  0.4133
41091SOL     OW26864   0.796  10.609   4.503 -0.1123  0.5642  0.3728
41091SOL    HW126865   0.706  10.643   4.504 -0.6538 -0.7585 -0.3543
41091SOL    HW226866   0.805  10.564   4.588 -0.8001 -0.8485 -0.2652
41092SOL     OW26867  10.423   5.032   4.620  0.1581 -0.2268  0.0844
41092SOL    HW126868  10.369   4.983   4.682  0.2701  0.3037  0.6024
41092SOL    HW226869  10.375   5.113   4.605  0.8838  0.3123  0.6633
41093SOL     OW26870   8.001   8.029   1.684 -0.1981 -0.2525  0.0316
41093SOL    HW126871   8.071   8.007   1.746 -0.5722  1.0741  0.9783
41093SOL    HW226872   7.989   8.123   1.694 -1.4107 -0.2899 -0.8658
41094SOL     OW26873   7.555   8.427   6.231  0.0374 -0.3115  0.1182
41094SOL    HW126874   7.480   8.427   6.173  0.2271 -1.1697 -0.1349
41094SOL    HW226875   7.518   8.439   6.319 -0.3053  0.2320 -0.0978
41095SOL     OW26876   1.705   3.054  10.081  0.0794  0.0103 -0.2683
41095SOL    HW126877   1.693   3.148  10.065 -0.3955 -0.1624 -0.9985
41095SOL    HW226878   1.740   3.049  10.170 -0.4792  0.8428  0.0123
41096SOL     OW26879  10.702   7.172   0.664 -1.2676 -0.2564 -0.5195
41096SOL    HW126880  10.755   7.124   0.601  0.1272  0.6104 -0.0322
41096SOL    HW226881  10.639   7.221   0.609 -0.2027  0.3425 -1.2453
41097SOL     OW26882   1.843  10.379   9.714 -0.0983 -0.1475 -0.6185
41097SOL    HW126883   1.790  10.417   9.644  0.0286 -1.4380 -1.4452
41097SOL    HW226884   1.907  10.447   9.735 -0.2178  0.3096 -1.6555
41098SOL     OW26885  10.153   2.771   5.695  0.2727 -0.7750  0.5937
41098SOL    HW126886  10.133   2.679   5.675 -0.2421 -0.4291 -0.5393
41098SOL    HW226887  10.243   2.769   5.727 -0.0515 -1.7910  1.5201
41099SOL     OW26888   5.132   4.199   9.866  0.7207 -0.0006 -0.1266
41099SOL    HW126889   5.134   4.259   9.792 -0.6123 -0.0331 -0.2073
41099SOL    HW226890   5.065   4.234   9.924  1.2075 -0.4108  0.7045
41100SOL     OW26891   6.600   8.305   1.901  0.0458  0.9092 -0.2052
41100SOL    HW126892   6.621   8.254   1.979  0.8035  0.2357 -0.8296
41100SOL    HW226893   6.564   8.386   1.934 -2.0690 -0.3615  0.8297
41101SOL     OW26894   6.007  10.175   4.790 -0.1575  0.3049  0.6247
41101SOL    HW126895   6.049  10.111   4.848 -0.7569 -3.3278 -2.5624
41101SOL    HW226896   6.078  10.213   4.740  0.1269  1.7630  2.0419
41102SOL     OW26897  10.106   9.816   8.833 -0.3838 -0.1283  0.1443
41102SOL    HW126898  10.079   9.889   8.778  0.1779 -1.3728 -1.8668
41102SOL    HW226899  10.044   9.746   8.814 -0.6793 -0.3476  1.7453
41103SOL     OW26900   9.031   8.457   8.465 -0.2115 -0.5654 -0.7470
41103SOL    HW126901   8.969   8.429   8.398 -0.9436 -0.4132 -0.1550
41103SOL    HW226902   9.008   8.549   8.482  1.2170 -0.0105 -1.6423
41104SOL     OW26903  10.736   4.404   6.990  0.5022  0.4928  0.5891
41104SOL    HW126904  10.662   4.369   6.940  1.2202 -2.3926  1.3557
41104SOL    HW226905  10.696   4.430   7.074  0.2011 -0.1822  0.6628
41105SOL     OW26906   5.996   2.404   6.164  0.1016  0.1102 -0.0529
41105SOL    HW126907   5.982   2.443   6.250  0.1880  0.4325 -0.1815
41105SOL    HW226908   5.982   2.476   6.103 -0.1713 -0.1666 -0.3203
41106SOL     OW26909   4.512   0.147   9.822  0.2147  0.3467  0.1227
41106SOL    HW126910   4.594   0.102   9.803 -0.2083  0.1296 -1.3446
41106SOL    HW226911   4.538   0.232   9.858  1.0349 -0.5590  1.8040
41107SOL     OW26912   3.805   6.588   8.904  0.2729 -0.2440 -0.2328
41107SOL    HW126913   3.730   6.545   8.862  0.6023  1.1409 -2.3726
41107SOL    HW226914   3.805   6.676   8.868  2.5531 -0.0021  0.2218
41108SOL     OW26915   8.909   1.155   3.598  0.0942 -0.5986 -0.2568
41108SOL    HW126916   8.910   1.249   3.616  1.3015 -0.6956  0.2738
41108SOL    HW226917   8.835   1.121   3.648 -0.5137  0.1032 -0.6637
41109SOL     OW26918   1.548   3.665  10.610  0.0268 -0.0324 -0.4640
41109SOL    HW126919   1.604   3.738  10.635  0.2978 -0.5532  0.5353
41109SOL    HW226920   1.610   3.594  10.590 -0.2300 -1.0549  2.0415
41110SOL     OW26921   0.012   3.261   4.831  0.2733  0.2717 -0.1841
41110SOL    HW126922   0.069   3.192   4.864 -0.5975 -0.1951  0.3728
41110SOL    HW226923   0.045   3.341   4.873  1.4504  0.2677 -1.0346
41111SOL     OW26924   6.163   1.583  10.059  0.0164 -0.1646 -0.1731
41111SOL    HW126925   6.223   1.657  10.054 -1.5357  1.2369  0.7770
41111SOL    HW226926   6.084   1.613  10.013 -0.3671 -1.5293 -0.4550
41112SOL     OW26927   6.524   6.415   6.509 -0.4000 -0.2097  0.6487
41112SOL    HW126928   6.467   6.457   6.573  0.7958  1.4505  0.6855
41112SOL    HW226929   6.596   6.378   6.560 -0.9831 -1.5510  0.5263
41113SOL     OW26930   4.109  10.360   8.509 -0.1433  0.3725 -0.8623
41113SOL    HW126931   4.070  10.343   8.594 -1.6853  0.0691 -1.5979
41113SOL    HW226932   4.141  10.450   8.515 -0.4352  0.4309 -0.0386
41114SOL     OW26933   9.560   3.333   0.784  0.2614  0.0479 -0.1799
41114SOL    HW126934   9.572   3.336   0.690  1.3894  0.8316 -0.0252
41114SOL    HW226935   9.476   3.288   0.796  0.5966 -0.9921 -1.5052
41115SOL     OW26936   1.834   5.146   8.517 -0.3814 -0.3413  0.2259
41115SOL    HW126937   1.780   5.155   8.595  2.1173 -1.3097  2.1774
41115SOL    HW226938   1.893   5.222   8.520 -0.3272 -0.3288 -0.8153
41116SOL     OW26939   4.941   4.597   5.951 -0.0398 -0.2633  0.2859
41116SOL    HW126940   4.997   4.673   5.962 -2.0897  1.4477 -0.5098
41116SOL    HW226941   4.904   4.580   6.038 -0.4717  0.4135  0.2409
41117SOL     OW26942   7.915   7.449   0.310  0.1750  0.3574  0.0498
41117SOL    HW126943   7.985   7.410   0.363 -0.3503 -1.6149 -0.5909
41117SOL    HW226944   7.940   7.427   0.220 -0.4035  1.1377 -0.3065
41118SOL     OW26945   1.883   4.761   6.094 -0.2534  0.1120  0.4552
41118SOL    HW126946   1.971   4.755   6.131 -0.1921 -2.0557  0.1127
41118SOL    HW226947   1.862   4.854   6.096  1.6309  0.5642  1.4951
41119SOL     OW26948   4.999   0.289   7.472 -0.1250  0.0785 -0.4015
41119SOL    HW126949   5.029   0.209   7.516 -1.3090 -0.4886 -0.5907
41119SOL    HW226950   4.921   0.315   7.521  0.1509  1.0317 -0.4514
41120SOL     OW26951   9.756   6.601   7.487  0.0931  0.8488 -0.3613
41120SOL    HW126952   9.850   6.585   7.483 -0.1960 -1.0838 -0.4454
41120SOL    HW226953   9.737   6.654   7.410  1.0538  0.9341 -0.5467
41121SOL     OW26954   8.123   5.298   2.956 -0.2409  0.4271  0.1937
41121SOL    HW126955   8.115   5.258   3.042 -0.0948 -0.0633 -0.0109
41121SOL    HW226956   8.050   5.358   2.950  0.9194  2.0538  1.4723
41122SOL     OW26957   9.759  10.257   4.360  0.4412 -0.1623  0.2451
41122SOL    HW126958   9.804  10.317   4.300 -0.5519  0.3401 -0.0159
41122SOL    HW226959   9.798  10.171   4.341  0.3057  0.0228 -0.9630
41123SOL     OW26960   1.462   5.046   9.957 -0.2349  0.0851  0.7297
41123SOL    HW126961   1.555   5.030   9.977 -0.2229 -2.1051 -0.7283
41123SOL    HW226962   1.440   5.125  10.006  2.5426  0.9923  0.6744
41124SOL     OW26963   5.254  10.546  10.014  0.2722 -0.3171 -0.0505
41124SOL    HW126964   5.264  10.485   9.941 -2.1061 -1.2725  0.3255
41124SOL    HW226965   5.267  10.492  10.092 -2.3932 -0.5784  0.3025
41125SOL     OW26966   9.210   6.156   9.531 -0.2960 -0.6590  0.5801
41125SOL    HW126967   9.135   6.097   9.537 -1.6722  0.9274  0.0713
41125SOL    HW226968   9.240   6.148   9.441  1.2267 -2.4738  1.1955
41126SOL     OW26969   9.723   8.775   5.542  0.1586  0.0842  0.2728
41126SOL    HW126970   9.784   8.828   5.491 -1.5155  1.1116 -0.7375
41126SOL    HW226971   9.637   8.815   5.527 -1.4419 -3.5540 -1.5045
41127SOL     OW26972   0.097   0.589   1.502 -0.1754  0.0661  0.3330
41127SOL    HW126973   0.175   0.598   1.448 -0.6324 -1.5649 -0.7130
41127SOL    HW226974   0.028   0.631   1.451 -0.1954  0.4634  0.6905
41128SOL     OW26975   5.147   0.278   3.841 -0.6162 -0.1429  0.7107
41128SOL    HW126976   5.137   0.370   3.864 -0.0433  0.7475 -2.1859
41128SOL    HW226977   5.066   0.255   3.797  0.5163  0.0403 -1.5859
41129SOL     OW26978   7.973   5.679   7.032 -0.3063 -0.0509  0.2626
41129SOL    HW126979   7.925   5.605   6.994  0.0081  0.1441 -0.5379
41129SOL    HW226980   8.065   5.653   7.030 -0.3723 -0.5522  2.0876
41130SOL     OW26981   3.851   3.983   2.189 -0.3769 -0.3765 -0.0112
41130SOL    HW126982   3.877   3.918   2.124 -1.5528  0.5288 -1.4500
41130SOL    HW226983   3.852   4.066   2.141 -0.1887  0.4796  1.4344
41131SOL     OW26984   9.783   1.694   1.079  0.1778 -0.3053 -0.0497
41131SOL    HW126985   9.797   1.662   1.168  2.0348 -4.6474 -1.6083
41131SOL    HW226986   9.870   1.690   1.038 -0.8800 -0.0428 -2.5021
41132SOL     OW26987   8.871   2.884   5.744  0.1628  0.1811  0.0298
41132SOL    HW126988   8.938   2.821   5.718 -0.2280  0.7374 -2.5983
41132SOL    HW226989   8.836   2.918   5.662 -0.8112  2.6158  1.3231
41133SOL     OW26990   7.558   7.450  10.783 -0.0663 -0.0608 -0.4079
41133SOL    HW126991   7.630   7.418  10.838 -0.0692 -0.5373 -0.6781
41133SOL    HW226992   7.596   7.522  10.732  0.0525  0.0921 -0.1060
41134SOL     OW26993   5.686   4.445  10.636 -0.1009  0.3422 -0.9996
41134SOL    HW126994   5.615   4.504  10.612 -0.7656 -0.0482 -0.0664
41134SOL    HW226995   5.654   4.358  10.615  0.6698  0.2504 -1.8770
41135SOL     OW26996   4.903   3.669   6.159 -0.0598  0.7083 -0.0283
41135SOL    HW126997   4.864   3.625   6.235 -0.7281  2.6112  0.7958
41135SOL    HW226998   4.840   3.738   6.138  2.1545  2.9949  0.4421
41136SOL     OW26999   5.069   1.179   6.906 -0.9742 -0.5130 -0.2355
41136SOL    HW127000   5.096   1.187   6.814 -0.4591 -0.9564 -0.1243
41136SOL    HW227001   5.144   1.212   6.956 -0.8668 -1.1973  0.0576
41137SOL     OW27002   2.280   4.835   0.052  0.3868 -0.0883 -0.7540
41137SOL    HW127003   2.194   4.794   0.046  1.5262 -2.6536 -0.7786
41137SOL    HW227004   2.307   4.823   0.143  0.3544  1.6237 -0.4741
41138SOL     OW27005  10.550  10.186   1.505  0.0782 -0.6496  0.2877
41138SOL    HW127006  10.458  10.200   1.483  0.1834  0.8032  0.6737
41138SOL    HW227007  10.595  10.187   1.421 -0.4526 -3.6021 -0.1485
41139SOL     OW27008   3.777   5.895   0.482 -0.7383  0.2274 -0.0942
41139SOL    HW127009   3.832   5.925   0.410  1.0190  0.7105  1.3838
41139SOL    HW227010   3.691   5.933   0.464 -1.4372 -2.5080 -3.7715
41140SOL     OW27011   6.505   7.791   1.349  0.3078  0.2583 -0.5089
41140SOL    HW127012   6.537   7.701   1.353  0.8779  0.4685  2.9371
41140SOL    HW227013   6.416   7.786   1.385  0.1165  1.0089 -0.8613
41141SOL     OW27014   7.828   6.624   6.333 -0.2040  0.1208 -0.1889
41141SOL    HW127015   7.745   6.667   6.310 -0.9098 -0.8615  0.4788
41141SOL    HW227016   7.895   6.686   6.303 -1.0731 -0.2250 -3.1790
41142SOL     OW27017   5.791   9.030  11.071  0.3305  0.0978 -0.4874
41142SOL    HW127018   5.837   8.946  11.067  0.5721  0.2272 -0.4874
41142SOL    HW227019   5.764   9.039  11.162  1.5877  0.6881 -0.1492
41143SOL     OW27020  10.883  10.884   5.898  0.3785  0.3225  0.1091
41143SOL    HW127021  10.865  10.819   5.830 -0.1243 -0.1913  0.7203
41143SOL    HW227022  10.971  10.863   5.928  0.0631 -0.3527  0.5893
41144SOL     OW27023   2.717   6.066   4.123  0.3024  0.4229 -0.2611
41144SOL    HW127024   2.734   5.985   4.076  0.7296  1.2472 -1.6109
41144SOL    HW227025   2.641   6.104   4.080  0.7648  1.2536 -0.3734
41145SOL     OW27026   2.917   0.494   3.217  0.2305 -0.7220  0.0819
41145SOL    HW127027   2.882   0.583   3.212 -0.4637 -0.9743  0.3069
41145SOL    HW227028   3.000   0.504   3.264  0.6975 -0.0519 -0.8429
41146SOL     OW27029   5.944   0.482   8.675 -0.0962  0.2433 -0.1746
41146SOL    HW127030   6.022   0.434   8.703 -0.0876  0.6234  0.4958
41146SOL    HW227031   5.874   0.416   8.676  0.4299 -0.3887 -1.9826
41147SOL     OW27032   5.288   2.756   2.619 -0.4905 -0.1584  0.4245
41147SOL    HW127033   5.292   2.755   2.523 -0.0562  0.1605  0.4368
41147SOL    HW227034   5.339   2.833   2.644  0.2825 -0.8260  0.9501
41148SOL     OW27035   9.855   5.206   1.784 -0.0760 -0.0824  0.4215
41148SOL    HW127036   9.901   5.171   1.708  0.2839 -0.9671  1.0406
41148SOL    HW227037   9.905   5.283   1.809  1.3452 -1.2777  1.3521
41149SOL     OW27038   5.663   9.149   2.735  0.2199  0.6722  0.1939
41149SOL    HW127039   5.669   9.205   2.658 -3.4153 -0.0873 -0.8497
41149SOL    HW227040   5.676   9.060   2.702 -3.2901  0.1273 -0.1595
41150SOL     OW27041   3.970   6.777   3.277 -0.5729  0.0307 -0.1639
41150SOL    HW127042   3.930   6.846   3.330  0.4053 -0.2616  0.9854
41150SOL    HW227043   3.982   6.818   3.191  0.8181  1.6570  0.7232
41151SOL     OW27044   1.643   8.012   2.537 -0.0138 -0.2744  0.0647
41151SOL    HW127045   1.658   8.035   2.445 -0.2771  0.4820  0.2036
41151SOL    HW227046   1.726   8.032   2.581  0.6504 -2.1140 -0.2571
41152SOL     OW27047   7.142   6.262   6.570 -0.0677  0.6621  0.1832
41152SOL    HW127048   7.164   6.356   6.565 -0.3191  0.6516 -1.8841
41152SOL    HW227049   7.099   6.243   6.487 -0.3440 -1.2301  0.7166
41153SOL     OW27050  10.159   1.170   4.189 -0.0890 -0.0165 -0.2820
41153SOL    HW127051  10.118   1.159   4.104  1.2118 -1.1398 -0.7920
41153SOL    HW227052  10.102   1.232   4.235 -1.0284  0.2958 -1.8020
41154SOL     OW27053   6.786   7.229   4.563 -0.0073  0.1359 -0.6662
41154SOL    HW127054   6.790   7.293   4.492 -1.0057 -0.4920 -1.3216
41154SOL    HW227055   6.729   7.160   4.529  0.4708 -0.7566  0.2950
41155SOL     OW27056   9.638   0.687   0.089 -0.4518 -0.1728 -0.1163
41155SOL    HW127057   9.680   0.693   0.174  0.1850  1.4812 -0.5012
41155SOL    HW227058   9.545   0.679   0.108 -0.2801 -0.1599  0.7400
41156SOL     OW27059   0.090   8.990   8.691 -0.0106  0.5056 -0.1982
41156SOL    HW127060   0.103   9.081   8.715 -0.2933  0.7204 -0.8208
41156SOL    HW227061   0.000   8.970   8.719  0.2660  0.2235  0.5072
41157SOL     OW27062   3.815   3.514  10.505 -0.0528 -0.1284  0.2304
41157SOL    HW127063   3.830   3.508  10.410  2.4352  0.1061  0.5429
41157SOL    HW227064   3.838   3.604  10.527 -0.2457 -0.2862  1.1317
41158SOL     OW27065   1.743   2.870   2.656  0.1434 -0.4038  0.1380
41158SOL    HW127066   1.671   2.826   2.701  0.4452 -0.4583  0.5715
41158SOL    HW227067   1.764   2.945   2.712  0.5973 -0.5370  0.1459
41159SOL     OW27068   2.701   1.351   6.448  0.5287  0.3273 -0.3526
41159SOL    HW127069   2.617   1.311   6.470  0.7139  0.9538  1.7073
41159SOL    HW227070   2.766   1.283   6.467  0.5897  0.3488 -0.4825
41160SOL     OW27071   0.397   6.202  10.110 -0.0274 -0.4234 -0.3251
41160SOL    HW127072   0.426   6.291  10.091 -1.1618 -0.1704 -0.9705
41160SOL    HW227073   0.321   6.189  10.053 -1.1386 -1.0725  1.2394
41161SOL     OW27074   4.330   0.871  10.534  0.4887  0.1579 -0.2436
41161SOL    HW127075   4.379   0.797  10.569  0.2466 -0.1976 -0.6489
41161SOL    HW227076   4.308   0.924  10.611  0.0633 -0.5502  0.1275
41162SOL     OW27077  10.888   3.810  10.012 -0.1321 -0.5625  0.5233
41162SOL    HW127078  10.972   3.856  10.015  0.1066 -0.9929  0.5090
41162SOL    HW227079  10.823   3.879   9.999  0.2672 -0.2828  0.0236
41163SOL     OW27080   7.160   7.360   9.414 -0.1563  0.2394 -0.0222
41163SOL    HW127081   7.245   7.386   9.377  0.3255 -2.0306 -0.6330
41163SOL    HW227082   7.182   7.313   9.494 -0.6761 -1.7810 -1.0095
41164SOL     OW27083  10.885   2.614  10.505  0.1481  0.2664  0.4355
41164SOL    HW127084  10.941   2.601  10.581 -1.3980  1.9637  1.9670
41164SOL    HW227085  10.799   2.580  10.531 -0.0582 -0.5527 -1.1522
41165SOL     OW27086   8.482   3.171  10.100 -0.0433 -0.0192 -0.1036
41165SOL    HW127087   8.538   3.217  10.038 -0.4452 -0.3867 -0.7431
41165SOL    HW227088   8.530   3.174  10.183  1.2927 -1.0304 -0.8217
41166SOL     OW27089   6.584   8.381   3.685  0.2221 -0.3104  0.1915
41166SOL    HW127090   6.603   8.325   3.760 -0.2884 -2.3219 -1.1232
41166SOL    HW227091   6.489   8.394   3.689  0.3900  0.8939  0.7431
41167SOL     OW27092   7.444   5.461   8.531 -0.2105  0.9029  0.5301
41167SOL    HW127093   7.383   5.533   8.540 -2.7980 -0.8821 -1.1436
41167SOL    HW227094   7.442   5.439   8.438  2.3058  0.1111  0.5722
41168SOL     OW27095   9.225   1.066   5.165  0.0532  0.5242 -0.0463
41168SOL    HW127096   9.287   1.077   5.238  1.3072  0.7568 -1.1093
41168SOL    HW227097   9.147   1.114   5.193  0.4276  0.4245  1.2302
41169SOL     OW27098   8.555  10.296   1.028  0.2177 -0.1282  0.3270
41169SOL    HW127099   8.527  10.374   0.980 -0.6165 -1.3398 -1.2347
41169SOL    HW227100   8.650  10.302   1.030  0.2407  0.2722 -0.9865
41170SOL     OW27101   6.448   5.716   8.048  0.2502 -0.4084 -0.7085
41170SOL    HW127102   6.477   5.796   8.004  2.4160  0.2437  1.7056
41170SOL    HW227103   6.443   5.739   8.141  2.9668 -3.4985  0.4003
41171SOL     OW27104   5.309   2.448   4.583  0.8717 -0.5548 -0.1990
41171SOL    HW127105   5.252   2.515   4.545  0.0271 -1.8583 -1.3524
41171SOL    HW227106   5.378   2.497   4.627 -0.0643  1.0640 -0.4602
41172SOL     OW27107   0.618   0.324   2.878  0.3704  0.4334  0.0371
41172SOL    HW127108   0.593   0.280   2.959 -1.4649  1.4948  0.0899
41172SOL    HW227109   0.567   0.281   2.810  1.0428  0.3207 -0.4120
41173SOL     OW27110   8.205   1.126   6.527  0.4727 -0.0862  0.0604
41173SOL    HW127111   8.124   1.168   6.497 -0.9395 -2.0300  0.9261
41173SOL    HW227112   8.189   1.105   6.619  2.0496 -0.3396  0.3070
41174SOL     OW27113   2.179   5.983   8.315  0.2109 -0.2808 -0.1424
41174SOL    HW127114   2.107   6.043   8.295 -0.0024  0.2511  1.9609
41174SOL    HW227115   2.153   5.941   8.397  2.8769  0.9553  1.4469
41175SOL     OW27116   1.378   8.196  10.888 -0.4152  0.1796 -0.2551
41175SOL    HW127117   1.374   8.243  10.971 -2.2047  1.1329 -0.8500
41175SOL    HW227118   1.465   8.217  10.852 -0.9572  2.6464 -0.2616
41176SOL     OW27119   1.509   0.958   8.921  0.1511 -0.3023  0.5407
41176SOL    HW127120   1.433   0.930   8.971 -1.7698 -1.3321 -2.6522
41176SOL    HW227121   1.579   0.899   8.949 -0.7804 -0.7290  2.0787
41177SOL     OW27122   7.747   3.860   8.177 -0.1682 -0.1204  0.1068
41177SOL    HW127123   7.759   3.766   8.162  1.2525  0.1783 -0.8089
41177SOL    HW227124   7.700   3.891   8.100  0.7913  0.1818 -0.3708
41178SOL     OW27125   7.761   1.651   5.615 -0.0374  0.0682 -1.0330
41178SOL    HW127126   7.792   1.575   5.566 -1.2261 -2.2302  1.5474
41178SOL    HW227127   7.675   1.670   5.578 -0.9088 -1.6199  0.0080
41179SOL     OW27128   6.512   6.896   9.453 -0.0839 -0.1966 -0.6762
41179SOL    HW127129   6.511   6.883   9.548 -2.7536  0.6918 -0.5118
41179SOL    HW227130   6.580   6.962   9.438  0.4823 -0.4724  0.5898
41180SOL     OW27131  10.263   3.854   9.496 -0.1336 -1.0612 -0.1945
41180SOL    HW127132  10.199   3.849   9.568 -0.6416  0.7039 -0.4680
41180SOL    HW227133  10.339   3.806   9.528 -0.6441 -0.9790  1.2108
41181SOL     OW27134  10.050  10.278   6.721  0.1111 -0.4239 -0.3825
41181SOL    HW127135  10.108  10.350   6.748 -1.2961  0.0287  1.5897
41181SOL    HW227136  10.108  10.220   6.671  2.6714 -0.6462  2.5032
41182SOL     OW27137   4.691   1.180   9.251 -0.5066 -0.5227 -0.0109
41182SOL    HW127138   4.651   1.101   9.216 -0.4051  0.3096 -2.1566
41182SOL    HW227139   4.768   1.195   9.196 -0.7291  1.2482  0.0910
41183SOL     OW27140   2.726   1.535   7.288 -0.1434 -0.2766 -0.1615
41183SOL    HW127141   2.658   1.551   7.353 -2.2046 -0.8581 -2.0620
41183SOL    HW227142   2.783   1.470   7.330 -1.5267 -0.8262  0.9860
41184SOL     OW27143   4.272   6.175   3.301 -0.2659 -0.2380  0.6506
41184SOL    HW127144   4.313   6.210   3.380  1.4635  0.3670 -0.4541
41184SOL    HW227145   4.327   6.101   3.275 -1.1833 -0.8403  0.3470
41185SOL     OW27146   6.865   4.554   9.008 -0.2034 -1.1556  0.3061
41185SOL    HW127147   6.788   4.497   9.014 -1.5458  0.5411  0.1649
41185SOL    HW227148   6.895   4.544   8.918 -0.5681 -1.4642  0.2136
41186SOL     OW27149   2.416   3.359   5.557  0.1823  0.0268  0.4381
41186SOL    HW127150   2.452   3.409   5.630 -2.3876  0.3272  1.5909
41186SOL    HW227151   2.392   3.275   5.595 -1.8430  0.4381  0.1640
41187SOL     OW27152   2.671   8.438   2.254  0.0855  0.2048  0.0081
41187SOL    HW127153   2.607   8.507   2.271  0.9200  1.0854 -0.3492
41187SOL    HW227154   2.709   8.460   2.169 -0.2726 -1.2121 -0.5569
41188SOL     OW27155   1.350   3.666   5.070 -0.3725  0.2629  0.0698
41188SOL    HW127156   1.286   3.655   5.141  1.3756 -3.0306  1.3568
41188SOL    HW227157   1.305   3.635   4.992 -0.7685 -0.9258  0.7408
41189SOL     OW27158   3.082   4.530   8.026  0.4885 -0.1808  0.0540
41189SOL    HW127159   3.172   4.538   7.997  0.6087  1.0169  0.6903
41189SOL    HW227160   3.088   4.529   8.122 -0.1973  0.2706  0.1063
41190SOL     OW27161   3.114  11.102   8.196  0.1362 -0.5153  0.1265
41190SOL    HW127162   3.169  11.119   8.120  0.4641 -0.2959  0.4139
41190SOL    HW227163   3.126  11.009   8.214 -2.0661 -1.2714 -1.7685
41191SOL     OW27164   1.705   5.052   0.876 -0.1144  0.2071 -0.0031
41191SOL    HW127165   1.753   4.997   0.814 -0.3541 -0.4751  0.4154
41191SOL    HW227166   1.615   5.021   0.871 -0.7443  2.0489 -1.4428
41192SOL     OW27167  10.043   1.915   1.804  0.6474  0.3123 -0.2788
41192SOL    HW127168   9.949   1.916   1.787  0.5344  1.7081  0.2813
41192SOL    HW227169  10.062   2.003   1.837  2.4896  0.7308 -2.2275
41193SOL     OW27170   0.549   6.910   9.112  0.0885  0.2055 -0.4285
41193SOL    HW127171   0.547   6.996   9.070 -0.9938  0.0895 -0.6303
41193SOL    HW227172   0.641   6.883   9.106  0.3847  1.2058 -0.6395
41194SOL     OW27173   2.664   2.053   6.334 -0.6740  0.3211  0.0966
41194SOL    HW127174   2.694   2.054   6.425  0.4499  0.9238 -0.2589
41194SOL    HW227175   2.625   1.966   6.323 -1.7443  0.5911  1.4229
41195SOL     OW27176   6.199   6.006   3.232 -0.2479  0.1796  0.3279
41195SOL    HW127177   6.242   5.962   3.306  0.0139 -0.7559 -0.3611
41195SOL    HW227178   6.114   5.965   3.225  0.0332 -0.3025 -0.3802
41196SOL     OW27179   2.994   2.220  10.810 -0.0505 -0.7422  0.3788
41196SOL    HW127180   3.030   2.227  10.721 -1.3921 -1.4541 -0.2553
41196SOL    HW227181   2.900   2.228  10.798 -0.1466  1.3488  2.0115
41197SOL     OW27182   8.855   2.932   4.498  0.3617 -0.1528 -0.1145
41197SOL    HW127183   8.910   2.862   4.534  0.8998 -0.5400 -1.5965
41197SOL    HW227184   8.765   2.903   4.514  0.5791 -0.1969  1.0807
41198SOL     OW27185   6.142   5.495   4.107 -0.0509  0.2865 -0.0474
41198SOL    HW127186   6.079   5.449   4.052 -0.4778  0.8427 -0.0425
41198SOL    HW227187   6.130   5.457   4.194 -0.0632  0.0749 -0.1418
41199SOL     OW27188   7.924   4.543   8.280  0.0289 -0.1086  0.7296
41199SOL    HW127189   7.855   4.551   8.214  0.7294 -0.6523 -0.0965
41199SOL    HW227190   8.005   4.560   8.231  0.7848 -2.8645  0.8675
41200SOL     OW27191   4.342   1.603   0.374 -0.4505  0.3938 -0.0007
41200SOL    HW127192   4.383   1.562   0.451  0.0618 -1.6167 -1.2470
41200SOL    HW227193   4.342   1.696   0.393  3.6186  0.4594  0.6888
41201SOL     OW27194   3.951   4.636   2.976 -0.3525  0.9615  0.0727
41201SOL    HW127195   4.001   4.571   3.026  0.4289  1.5719  0.1013
41201SOL    HW227196   3.976   4.621   2.885 -1.4598  0.1240 -0.1124
41202SOL     OW27197   9.464   1.485   2.261 -0.4617  0.8164 -0.1060
41202SOL    HW127198   9.419   1.502   2.178 -0.3445  0.0348 -0.3344
41202SOL    HW227199   9.514   1.405   2.245  1.1139  1.7149  0.0980
41203SOL     OW27200   3.187   3.243   1.018  0.0499 -0.1689 -0.3145
41203SOL    HW127201   3.212   3.303   0.948 -0.9809  0.2278 -0.3612
41203SOL    HW227202   3.134   3.176   0.975 -0.0695 -0.2702 -0.0180
41204SOL     OW27203   3.147   2.330   7.037  0.0217  0.0364 -0.1026
41204SOL    HW127204   3.166   2.236   7.042  1.0307  0.2266 -0.2816
41204SOL    HW227205   3.142   2.358   7.129 -2.7034 -0.6375  0.0339
41205SOL     OW27206   0.996   4.195   6.793 -0.6293  0.1259  0.0660
41205SOL    HW127207   1.016   4.217   6.884 -1.8248  0.2451  0.3167
41205SOL    HW227208   1.024   4.272   6.743  1.5147 -0.5571  0.1006
41206SOL     OW27209   1.722   0.085  10.657  0.3805  0.1326  0.4194
41206SOL    HW127210   1.683   0.099  10.570  0.3230 -0.9032  0.2560
41206SOL    HW227211   1.760   0.169  10.680  0.1290  0.5125 -0.4809
41207SOL     OW27212   4.655  10.304   6.378  1.1180 -0.1945 -0.2339
41207SOL    HW127213   4.733  10.282   6.430  1.3776 -0.9430 -0.9174
41207SOL    HW227214   4.600  10.226   6.383 -0.3049  0.8336  1.4418
41208SOL     OW27215   5.353   3.299   2.815 -0.5360 -0.2971  0.3040
41208SOL    HW127216   5.337   3.390   2.841  0.2595  0.0170 -0.2875
41208SOL    HW227217   5.311   3.291   2.729  2.2683  0.5181 -1.2403
41209SOL     OW27218   4.497   5.078   9.931 -0.2143 -0.3275  0.2209
41209SOL    HW127219   4.493   5.165   9.891  0.7618 -0.0893  0.6134
41209SOL    HW227220   4.409   5.064   9.967 -0.6423  0.1046 -0.6385
41210SOL     OW27221   1.148   0.672   8.247  0.8063  0.4467 -0.0101
41210SOL    HW127222   1.194   0.626   8.177  0.9488  0.5178  0.0354
41210SOL    HW227223   1.100   0.742   8.202 -0.2518 -0.3753 -0.2048
41211SOL     OW27224   5.316   5.044   1.774 -0.5082  0.7472  0.0978
41211SOL    HW127225   5.349   4.982   1.709  0.3787  2.7773 -1.4978
41211SOL    HW227226   5.233   5.074   1.739 -0.3063  1.4253  0.1876
41212SOL     OW27227   2.740   2.639  11.103  0.4395 -0.4658  0.5828
41212SOL    HW127228   2.728   2.731  11.079  1.7711  0.0174  1.6458
41212SOL    HW227229   2.806   2.641  11.173 -1.0897 -2.0506  2.1541
41213SOL     OW27230   7.427   2.177   7.357 -0.3660  0.2215 -0.0207
41213SOL    HW127231   7.431   2.256   7.411  0.1241  0.4275 -0.3441
41213SOL    HW227232   7.503   2.126   7.385  1.5396  1.5774 -2.3701
41214SOL     OW27233   9.289   9.263   9.160  0.3352  0.7783 -0.2963
41214SOL    HW127234   9.266   9.341   9.210  0.5252  0.5083  0.2135
41214SOL    HW227235   9.233   9.268   9.082 -0.7979  0.6093  0.4744
41215SOL     OW27236  10.193  10.833   1.037  0.0722  0.0778  0.0091
41215SOL    HW127237  10.240  10.809   0.956  0.8097  0.5762  0.2817
41215SOL    HW227238  10.106  10.859   1.007 -0.0713 -0.9212 -0.4994
41216SOL     OW27239   0.800   4.967   9.924 -0.2788 -0.1679  0.3881
41216SOL    HW127240   0.878   4.996   9.877  1.5318 -0.5478  2.9668
41216SOL    HW227241   0.784   4.878   9.892  0.0286  0.0790 -0.4799
41217SOL     OW27242   8.875   2.872   8.137 -0.0479  0.4821 -0.4092
41217SOL    HW127243   8.947   2.823   8.177 -0.8882  0.6641  1.4345
41217SOL    HW227244   8.918   2.942   8.088  1.0530  0.8905  1.0606
41218SOL     OW27245   5.212   3.163   1.898 -0.2474 -0.5774 -0.9652
41218SOL    HW127246   5.197   3.070   1.881  1.2005 -0.6136 -2.3811
41218SOL    HW227247   5.207   3.203   1.811 -0.0693  0.5387 -0.4659
41219SOL     OW27248   4.878   5.428  10.210  0.4718  0.0876 -0.1648
41219SOL    HW127249   4.856   5.487  10.282 -0.4524 -1.5072  0.9301
41219SOL    HW227250   4.966   5.396  10.231  0.6702  0.5110 -0.3580
41220SOL     OW27251   5.746   6.775   0.787  0.2858 -0.2877  0.1384
41220SOL    HW127252   5.657   6.744   0.807  0.0744 -0.2755 -0.7526
41220SOL    HW227253   5.803   6.720   0.840 -0.3073  0.6070  1.7935
41221SOL     OW27254   9.036   6.439   9.508 -0.0653 -0.4694 -0.1101
41221SOL    HW127255   8.967   6.484   9.459  0.5053  0.2602 -0.2600
41221SOL    HW227256   8.989   6.380   9.566 -0.7683 -1.2674 -1.4336
41222SOL     OW27257   4.282   0.454   0.295 -0.0928 -0.0767  0.8283
41222SOL    HW127258   4.323   0.539   0.286 -0.2157  0.0237  1.2053
41222SOL    HW227259   4.355   0.392   0.301  0.0309 -0.2594 -1.5822
41223SOL     OW27260   5.094   9.821   9.326  0.1114  0.1726 -0.4604
41223SOL    HW127261   5.159   9.850   9.390  0.4254 -0.3546 -0.5318
41223SOL    HW227262   5.108   9.727   9.319 -0.6484  0.0546 -0.4954
41224SOL     OW27263   5.973   6.948   6.727 -0.6801 -0.2852 -0.2379
41224SOL    HW127264   5.991   6.886   6.798  0.2590  0.0600 -0.1605
41224SOL    HW227265   5.980   7.034   6.768 -1.2558 -0.1131 -0.5027
41225SOL     OW27266   6.903   5.574  10.359  0.0660  0.1863 -1.0157
41225SOL    HW127267   6.947   5.639  10.414  0.9660 -0.8395 -0.4676
41225SOL    HW227268   6.930   5.595  10.270 -1.5093  1.9488 -1.1318
41226SOL     OW27269   2.196   5.653   3.980  0.6124 -0.0022  0.1881
41226SOL    HW127270   2.255   5.607   3.920  0.9169  0.4286  0.1434
41226SOL    HW227271   2.124   5.593   3.994 -0.2822  0.4928 -1.8884
41227SOL     OW27272   0.437   8.130   7.737 -0.0914  0.5256 -0.5348
41227SOL    HW127273   0.380   8.200   7.767  0.6497 -0.0068  2.4267
41227SOL    HW227274   0.526   8.166   7.742  0.1222  0.1461 -1.3800
41228SOL     OW27275   8.833  10.413   9.101  0.2126 -0.1453 -0.6639
41228SOL    HW127276   8.920  10.396   9.065  0.6047  0.9235 -0.2682
41228SOL    HW227277   8.773  10.400   9.027  0.8379  0.3913 -1.2776
41229SOL     OW27278   5.743   1.697   1.030  0.0438 -0.0705  0.3649
41229SOL    HW127279   5.792   1.640   0.971 -1.2057  1.4309 -2.2860
41229SOL    HW227280   5.803   1.768   1.051  0.9237 -1.2388  2.0617
41230SOL     OW27281   5.840   0.247   5.633  0.3661 -0.2705 -0.2877
41230SOL    HW127282   5.794   0.221   5.713  1.3596 -2.7867 -0.4535
41230SOL    HW227283   5.806   0.335   5.614 -1.3924 -0.4144  1.7513
41231SOL     OW27284   2.171   1.809   7.609  0.4286 -0.0887  0.5252
41231SOL    HW127285   2.221   1.871   7.557 -1.3248  0.4007 -0.6781
41231SOL    HW227286   2.094   1.859   7.638 -0.5078 -1.3936  0.4041
41232SOL     OW27287   8.632   3.867  10.652  0.7881  0.0558 -0.0511
41232SOL    HW127288   8.548   3.826  10.673  0.1851  0.4728 -1.4770
41232SOL    HW227289   8.680   3.867  10.734 -1.2899  1.4167  1.2631
41233SOL     OW27290   7.079   3.254   8.652 -0.8262 -0.2094  0.8347
41233SOL    HW127291   7.023   3.331   8.650  0.5335  0.8132 -0.8685
41233SOL    HW227292   7.167   3.288   8.640 -0.2485 -2.0605 -0.6343
41234SOL     OW27293   4.725   4.405   9.552  0.2277 -0.0448 -0.1010
41234SOL    HW127294   4.658   4.473   9.557 -0.0366 -0.2919 -0.2454
41234SOL    HW227295   4.803   4.450   9.520  0.2695  0.3428  0.5438
41235SOL     OW27296  10.423   0.586   3.669  0.1488 -0.1635 -0.4223
41235SOL    HW127297  10.473   0.505   3.675  1.1365  0.3031 -1.7695
41235SOL    HW227298  10.406   0.597   3.575 -1.1637  0.4909 -0.1335
41236SOL     OW27299   7.841   1.971   6.394 -0.1585  0.3073  0.0113
41236SOL    HW127300   7.770   1.912   6.421  1.5243 -2.2145 -0.7793
41236SOL    HW227301   7.908   1.961   6.462  1.6971 -1.6832 -1.9583
41237SOL     OW27302   1.520   1.322  10.314  0.3102 -0.0362  0.0364
41237SOL    HW127303   1.499   1.250  10.373 -0.2866 -0.2764 -0.4546
41237SOL    HW227304   1.438   1.340  10.267  0.2220  1.5647  0.7693
41238SOL     OW27305   8.311   8.557   0.994  0.2682 -0.2798 -0.2496
41238SOL    HW127306   8.217   8.568   0.979  0.5567  0.6048 -1.5598
41238SOL    HW227307   8.330   8.469   0.961  0.1090  0.0336 -1.2202
41239SOL     OW27308   2.861   9.286   2.234 -0.3976 -0.1939  0.4732
41239SOL    HW127309   2.768   9.272   2.215 -0.0531 -0.2226 -1.3597
41239SOL    HW227310   2.884   9.364   2.184  1.1904 -1.7617 -1.3548
41240SOL     OW27311   0.784  10.719   7.168 -0.3593  0.4887 -0.1464
41240SOL    HW127312   0.842  10.762   7.231  0.8949 -1.5787  0.1820
41240SOL    HW227313   0.735  10.656   7.221  0.3063 -0.8770 -1.1149
41241SOL     OW27314   3.855   4.658   1.407  0.2145  0.3654  0.4566
41241SOL    HW127315   3.843   4.585   1.346  1.1004 -1.4672  2.3087
41241SOL    HW227316   3.945   4.685   1.395 -0.1226  1.1835 -0.2463
41242SOL     OW27317   7.918   6.648   1.784 -0.5995 -0.1777 -0.1560
41242SOL    HW127318   7.896   6.712   1.717 -0.4128 -1.5793 -1.6227
41242SOL    HW227319   7.965   6.579   1.737  0.9517 -0.4773  1.6922
41243SOL     OW27320   0.459   8.386   1.136  0.2250 -0.0386 -0.1101
41243SOL    HW127321   0.409   8.434   1.070 -0.1927 -1.5100 -0.8944
41243SOL    HW227322   0.415   8.406   1.218  1.0813  2.2668 -0.1261
41244SOL     OW27323   7.443   4.193   0.349  0.0328 -0.0119  0.0107
41244SOL    HW127324   7.350   4.205   0.368 -0.1060 -2.1372  1.0126
41244SOL    HW227325   7.448   4.107   0.306  1.6890 -1.0641  2.0798
41245SOL     OW27326   2.781   7.227   8.758 -0.8341  0.0304 -0.3401
41245SOL    HW127327   2.841   7.297   8.784  0.0957 -1.0484  0.5327
41245SOL    HW227328   2.694   7.260   8.781 -0.5385  1.3549 -1.0340
41246SOL     OW27329   2.157   7.408   6.670  0.5345  0.1822  0.4912
41246SOL    HW127330   2.204   7.491   6.665  0.3919  0.2643  0.5181
41246SOL    HW227331   2.086   7.424   6.732  0.6709 -0.0423  0.7066
41247SOL     OW27332   1.910   6.913   4.615  0.5285  0.1051  0.0553
41247SOL    HW127333   1.978   6.980   4.613  2.8473 -2.0706  0.9035
41247SOL    HW227334   1.934   6.856   4.688 -2.5565 -0.5035  0.7661
41248SOL     OW27335   6.100   9.494   9.348 -0.0122  0.0443 -0.4717
41248SOL    HW127336   6.156   9.435   9.399 -0.3889  0.2248  0.1557
41248SOL    HW227337   6.162   9.554   9.305  0.3771 -0.8486 -1.1849
41249SOL     OW27338   9.687   4.369   1.784  0.3754  0.2582 -0.1378
41249SOL    HW127339   9.638   4.442   1.746 -2.8269 -1.3967  0.4739
41249SOL    HW227340   9.668   4.295   1.727  1.1549 -0.7707  0.8907
41250SOL     OW27341   6.592   3.344   5.227 -0.1041  0.2530 -0.3818
41250SOL    HW127342   6.606   3.258   5.266  0.3838 -1.3928 -3.8257
41250SOL    HW227343   6.672   3.393   5.248  0.4706 -0.8140 -0.0248
41251SOL     OW27344   2.636   1.396   9.863 -0.0229 -0.4547  0.0276
41251SOL    HW127345   2.587   1.447   9.799 -0.1389  0.4144  0.7867
41251SOL    HW227346   2.611   1.434   9.948  0.8485 -0.9537  0.5193
41252SOL     OW27347   7.226   0.448   5.634  0.5796 -0.6287  0.5698
41252SOL    HW127348   7.189   0.376   5.684 -0.0172  0.0837  1.1934
41252SOL    HW227349   7.313   0.419   5.609  0.2598 -1.6434  0.6105
41253SOL     OW27350   7.735   4.524   9.898  0.5310 -0.0590  0.3754
41253SOL    HW127351   7.680   4.477   9.835  0.4733 -1.1884  1.2491
41253SOL    HW227352   7.822   4.525   9.857  0.3382 -0.1473 -0.0452
41254SOL     OW27353   6.805  10.179   9.310 -0.2374 -0.1316 -0.4016
41254SOL    HW127354   6.839  10.203   9.396  0.1132  2.4821 -1.1909
41254SOL    HW227355   6.723  10.133   9.328 -0.6051  1.1155  1.3121
41255SOL     OW27356   6.557   7.009   4.792  0.0735  0.2998 -0.2534
41255SOL    HW127357   6.470   6.970   4.806  0.2284  0.1715  0.3727
41255SOL    HW227358   6.605   6.942   4.743  0.7932 -0.9620  2.0076
41256SOL     OW27359   2.956   9.453   8.291 -0.0846  0.3928 -0.1816
41256SOL    HW127360   3.013   9.483   8.220  2.7240  0.2137  1.8516
41256SOL    HW227361   2.926   9.367   8.264  1.8792 -0.1676 -0.6996
41257SOL     OW27362   1.556   1.127  10.054 -0.1114  0.1232  0.0201
41257SOL    HW127363   1.510   1.087   9.981 -0.3293  1.1213 -0.3959
41257SOL    HW227364   1.505   1.103  10.131 -0.3449 -0.2356 -0.2468
41258SOL     OW27365   7.331   8.905   5.726 -0.1733 -0.3249  0.1151
41258SOL    HW127366   7.390   8.970   5.687 -1.0100  0.0829 -0.4933
41258SOL    HW227367   7.331   8.925   5.819  0.8582 -0.5008  0.1675
41259SOL     OW27368   5.501   7.820   9.215 -0.2366 -0.3309  0.4744
41259SOL    HW127369   5.512   7.847   9.124 -0.6199  0.4334  0.6501
41259SOL    HW227370   5.442   7.745   9.210 -0.7302  0.0730  0.1352
41260SOL     OW27371   6.539   8.932   9.651 -0.3769  0.5456 -0.5002
41260SOL    HW127372   6.555   8.839   9.667  0.6487  0.9923  1.4889
41260SOL    HW227373   6.626   8.968   9.631 -0.8162  1.0374 -1.5781
41261SOL     OW27374   2.849   4.232   3.207 -0.0121 -0.1911  0.6233
41261SOL    HW127375   2.892   4.267   3.285  1.2226 -1.0914  0.3874
41261SOL    HW227376   2.850   4.137   3.219 -0.8351 -0.2876  0.0276
41262SOL     OW27377   5.042   1.754  11.088 -0.3921 -0.1892  0.0954
41262SOL    HW127378   5.004   1.721  11.007 -0.8310  0.7006 -0.0711
41262SOL    HW227379   4.969   1.792  11.137 -0.0686 -0.3655  0.7380
41263SOL     OW27380   8.439   6.124   9.545  0.6446 -0.4370 -0.1654
41263SOL    HW127381   8.499   6.170   9.486  0.2536 -0.0809 -0.2957
41263SOL    HW227382   8.487   6.046   9.573  2.0118  0.8707  1.3975
41264SOL     OW27383   6.505   5.202   6.273  0.6601  0.2737 -0.0810
41264SOL    HW127384   6.576   5.247   6.227  1.3209 -0.9020 -0.2498
41264SOL    HW227385   6.431   5.208   6.213  1.1100  0.0337 -0.6747
41265SOL     OW27386   0.969   4.433   2.939 -0.3736  0.1610  0.5982
41265SOL    HW127387   0.916   4.501   2.898  0.7745  0.1274 -1.0043
41265SOL    HW227388   1.057   4.446   2.905  0.1845 -1.2283  1.4027
41266SOL     OW27389   7.570   0.742   3.003  0.0772 -0.8062 -0.1442
41266SOL    HW127390   7.594   0.754   2.911 -0.3419  1.7911  0.0161
41266SOL    HW227391   7.601   0.654   3.025  1.4857 -0.9306 -2.3633
41267SOL     OW27392   7.140   5.564   5.617  0.1048 -0.2244  0.1071
41267SOL    HW127393   7.163   5.589   5.528  1.9404 -2.4195 -0.1377
41267SOL    HW227394   7.046   5.545   5.613 -0.2377  1.4552 -0.8580
41268SOL     OW27395   8.636   3.636  10.122 -0.7572 -0.0248 -0.3885
41268SOL    HW127396   8.596   3.702  10.177 -1.4678 -0.9205  0.2097
41268SOL    HW227397   8.567   3.570  10.110 -0.3191 -0.2968 -1.5800
41269SOL     OW27398   6.515   3.605   0.190 -0.4300 -0.8911 -0.5055
41269SOL    HW127399   6.530   3.510   0.194  0.9021 -0.6596  2.3519
41269SOL    HW227400   6.459   3.624   0.265  2.3403  0.9704  1.2590
41270SOL     OW27401   4.045   0.151   3.648  0.5009  0.3038 -0.3930
41270SOL    HW127402   4.057   0.072   3.595  1.8489  0.8536 -0.9742
41270SOL    HW227403   4.119   0.207   3.624  0.8659  0.8019  1.7091
41271SOL     OW27404  10.235   2.569   1.716  0.0873  0.4426  0.1470
41271SOL    HW127405  10.249   2.539   1.626 -2.5218 -0.2598 -0.0923
41271SOL    HW227406  10.179   2.646   1.708 -0.8162 -0.0758  1.1671
41272SOL     OW27407   8.991   8.984   6.317  0.0352 -0.0367  0.4376
41272SOL    HW127408   8.958   8.895   6.326 -0.1817  0.0875  0.8894
41272SOL    HW227409   9.076   8.984   6.361  0.9720 -0.5184 -1.2709
41273SOL     OW27410   3.613   8.883   6.883 -0.0319 -0.4000  0.0867
41273SOL    HW127411   3.572   8.802   6.850 -2.1676  0.7978 -0.3826
41273SOL    HW227412   3.629   8.864   6.976 -0.7519 -1.3023  0.0532
41274SOL     OW27413   4.472   0.576  11.004 -0.2215  0.0143 -0.0376
41274SOL    HW127414   4.435   0.535  10.926 -0.1611  1.0334 -0.6232
41274SOL    HW227415   4.487   0.667  10.978  0.6830  0.1409  0.8677
41275SOL     OW27416   0.467   2.629   2.404  0.3060 -0.3305  0.4871
41275SOL    HW127417   0.507   2.616   2.490 -0.4581 -1.8472  0.6382
41275SOL    HW227418   0.540   2.623   2.343  0.5023 -1.9120  0.8420
41276SOL     OW27419   7.947   7.227   1.295 -0.4523 -0.1784 -0.3033
41276SOL    HW127420   7.974   7.147   1.249  0.7344  1.2986 -2.3254
41276SOL    HW227421   7.884   7.268   1.237 -0.3825  0.7902  0.2956
41277SOL     OW27422   8.796   7.547   6.043 -0.1173  0.0624  0.2961
41277SOL    HW127423   8.778   7.493   5.966 -1.8389  1.5103 -0.4050
41277SOL    HW227424   8.785   7.489   6.117  0.4209 -1.0845 -0.4962
41278SOL     OW27425   9.816   8.979   6.382  0.1664  0.8875 -0.3799
41278SOL    HW127426   9.763   8.923   6.439  0.1487 -0.1131 -1.3494
41278SOL    HW227427   9.896   8.994   6.432 -0.9114  2.2800  1.0355
41279SOL     OW27428  10.282   5.708   0.695  0.4768 -0.5414 -0.1933
41279SOL    HW127429  10.195   5.669   0.685 -0.0434  0.7449 -0.9958
41279SOL    HW227430  10.279   5.754   0.778  0.2889 -0.2735 -0.3466
41280SOL     OW27431  10.723   8.024   7.404 -0.1087 -0.1342 -0.3741
41280SOL    HW127432  10.745   7.948   7.460  0.4784  0.5142  0.2992
41280SOL    HW227433  10.628   8.027   7.404 -0.1357 -0.7261 -0.2077
41281SOL     OW27434   9.438   5.095   3.194  0.1510 -0.4324 -0.3234
41281SOL    HW127435   9.430   5.176   3.144  0.8091  0.9312  1.6510
41281SOL    HW227436   9.363   5.043   3.168 -0.6756  1.1003 -1.1519
41282SOL     OW27437   0.905   2.352   4.070  0.2432 -0.0034 -0.8427
41282SOL    HW127438   0.995   2.385   4.073 -0.6269  2.7692 -2.0557
41282SOL    HW227439   0.879   2.345   4.161  1.1240  0.9380 -0.5027
41283SOL     OW27440  10.977   2.104   9.789 -0.1296  0.1657 -0.5756
41283SOL    HW127441  10.909   2.046   9.825 -0.6291  0.2159 -1.4186
41283SOL    HW227442  10.970   2.184   9.841  0.7308 -0.5992  0.7663
41284SOL     OW27443   8.946   4.204   8.691  0.4233 -0.6019 -0.0303
41284SOL    HW127444   8.954   4.135   8.757  0.6116 -0.7706 -0.2247
41284SOL    HW227445   8.894   4.164   8.621 -1.0388  0.0499  0.6432
41285SOL     OW27446   9.545  11.027   0.726 -0.3370  0.0246  0.2175
41285SOL    HW127447   9.506  11.077   0.798  1.6785  1.8385  0.1819
41285SOL    HW227448   9.599  10.961   0.770 -0.0886  0.3167  0.3581
41286SOL     OW27449   5.969   7.231   8.728 -0.5802  0.5242  0.4543
41286SOL    HW127450   5.890   7.265   8.686  0.4976  0.3259 -1.9059
41286SOL    HW227451   5.963   7.136   8.718  0.7433  0.5662 -1.4879
41287SOL     OW27452   3.316   0.553   9.342 -0.4513 -0.2088 -0.1420
41287SOL    HW127453   3.273   0.609   9.406  1.2806  1.7104 -0.5693
41287SOL    HW227454   3.270   0.570   9.260  0.5127  1.2005 -0.4215
41288SOL     OW27455   5.223   3.147   5.750  0.3247  0.3251  0.2305
41288SOL    HW127456   5.266   3.167   5.667  1.5050 -1.7727  0.2827
41288SOL    HW227457   5.165   3.222   5.766 -2.1795 -0.4409 -3.8912
41289SOL     OW27458   0.122   1.918   4.325  0.0481  0.0362  0.8513
41289SOL    HW127459   0.111   2.010   4.348 -0.4593 -0.4360  2.7070
41289SOL    HW227460   0.087   1.911   4.236 -1.2011  1.3747  1.1960
41290SOL     OW27461   1.812   1.984   8.209 -0.0655  0.7480 -0.5678
41290SOL    HW127462   1.760   1.909   8.182  0.2748  0.7231 -1.1720
41290SOL    HW227463   1.902   1.956   8.198  0.0728  1.0568 -0.2556
41291SOL     OW27464   0.028   2.405   9.742 -0.3025 -0.0593 -0.4839
41291SOL    HW127465  -0.046   2.395   9.801  0.6238  0.8540  0.8888
41291SOL    HW227466   0.067   2.317   9.739  0.9316  0.3106  2.1037
41292SOL     OW27467   4.881   2.543   7.072 -0.2664  0.2219 -0.0920
41292SOL    HW127468   4.816   2.601   7.031 -0.2973  0.1468 -0.1504
41292SOL    HW227469   4.834   2.502   7.145 -0.1374  0.5461  0.1734
41293SOL     OW27470   2.447  10.096   1.422  0.0103  0.3897 -0.1439
41293SOL    HW127471   2.403  10.180   1.422 -0.1559  0.3007  0.0735
41293SOL    HW227472   2.474  10.082   1.513  2.5320  1.5231 -0.6062
41294SOL     OW27473   6.193   3.960   2.891 -0.1181 -0.0984 -0.1476
41294SOL    HW127474   6.146   3.928   2.814 -1.7427 -1.1556  1.1976
41294SOL    HW227475   6.124   3.975   2.956  1.0743  1.8799  0.7668
41295SOL     OW27476   3.479   5.892   8.578  0.0638 -0.3020 -0.6426
41295SOL    HW127477   3.525   5.971   8.605 -0.9830  0.5883 -1.3557
41295SOL    HW227478   3.387   5.916   8.582 -0.2994 -1.7082 -0.2442
41296SOL     OW27479   0.224   5.456   3.576  0.1837 -0.1442 -0.2881
41296SOL    HW127480   0.218   5.368   3.540  0.6696 -0.1025 -0.4710
41296SOL    HW227481   0.306   5.491   3.542  0.4367  0.0538  0.5018
41297SOL     OW27482   9.291   9.777  11.042  0.9169 -0.0185 -0.4002
41297SOL    HW127483   9.272   9.687  11.068  1.8791 -0.8482 -2.3469
41297SOL    HW227484   9.302   9.773  10.947 -0.7496  2.4833 -0.8208
41298SOL     OW27485   4.683   4.382  10.628  0.3104  0.0097  0.2830
41298SOL    HW127486   4.640   4.331  10.559  0.4935  0.0603  0.1317
41298SOL    HW227487   4.694   4.320  10.700 -0.2410  0.0598  0.4181
41299SOL     OW27488   7.569   5.348   9.393 -0.0829  0.6329 -0.6443
41299SOL    HW127489   7.552   5.346   9.487  1.0096  1.0981 -0.4263
41299SOL    HW227490   7.541   5.436   9.366 -1.2243  0.1975 -0.9332
41300SOL     OW27491   2.061   9.891   4.619 -0.2815 -0.3410 -0.6216
41300SOL    HW127492   2.000   9.895   4.693 -1.2243 -0.2027 -1.3930
41300SOL    HW227493   2.148   9.886   4.660 -0.7285  0.6030  0.4907
41301SOL     OW27494  11.020   0.830   3.732 -0.3188  0.1352 -0.1725
41301SOL    HW127495  11.069   0.833   3.650  1.3666  0.1396  0.7890
41301SOL    HW227496  11.049   0.907   3.780 -2.1542  0.7792 -0.0006
41302SOL     OW27497   4.286   3.060   6.305  0.0252 -0.1191 -0.7807
41302SOL    HW127498   4.284   3.134   6.366  1.0239 -0.5244 -0.2202
41302SOL    HW227499   4.366   3.013   6.328  1.2237  0.5046 -3.3680
41303SOL     OW27500   9.040   5.378   4.361 -0.2942 -0.4904  0.1934
41303SOL    HW127501   9.063   5.424   4.442  1.5460 -0.2221 -0.4254
41303SOL    HW227502   9.016   5.290   4.391  2.2851 -1.0236  0.9485
41304SOL     OW27503   1.362   4.193   5.492 -0.1521  0.6648  0.1816
41304SOL    HW127504   1.268   4.181   5.506  0.1602 -0.7594  1.2983
41304SOL    HW227505   1.393   4.108   5.460  1.0383  0.5114  1.6187
41305SOL     OW27506   2.683  11.004   3.534  0.1401  0.0780 -0.0103
41305SOL    HW127507   2.622  11.074   3.560 -1.4377 -1.2417 -0.0169
41305SOL    HW227508   2.677  11.001   3.439  1.2347  0.7837 -0.1255
41306SOL     OW27509   4.213   3.990   2.874 -0.1895 -0.2544 -0.6509
41306SOL    HW127510   4.266   4.062   2.910 -1.0873  0.0486  0.1180
41306SOL    HW227511   4.273   3.916   2.869  0.4112  0.1882 -0.1657
41307SOL     OW27512   4.505   6.843   7.933 -0.0180 -0.4204 -0.0689
41307SOL    HW127513   4.426   6.831   7.986 -1.1192  1.3711 -1.1991
41307SOL    HW227514   4.526   6.936   7.942  1.8871 -0.8278  0.0603
41308SOL     OW27515   6.733   1.707  11.049  0.2117 -0.0505  0.1337
41308SOL    HW127516   6.707   1.719  10.958 -0.9129 -1.1821  0.2944
41308SOL    HW227517   6.653   1.683  11.095  1.0151 -0.8637  1.1692
41309SOL     OW27518   4.423   4.293   5.855  0.1748 -0.7402  0.1981
41309SOL    HW127519   4.400   4.251   5.772  0.8710 -2.0013  0.6109
41309SOL    HW227520   4.515   4.269   5.869 -0.1712 -1.2940  1.7479
41310SOL     OW27521   5.778   0.276   2.932 -0.3050 -0.0350  0.0877
41310SOL    HW127522   5.763   0.355   2.985 -0.2902 -0.1536  0.2678
41310SOL    HW227523   5.763   0.203   2.993 -0.6718 -0.1763 -0.1678
41311SOL     OW27524   2.023   9.725  10.504 -0.0170  0.0804 -0.5537
41311SOL    HW127525   1.937   9.761  10.483 -0.1569  0.3047  0.3569
41311SOL    HW227526   2.075   9.740  10.425 -0.8792 -0.2956 -1.2139
41312SOL     OW27527   0.111  10.444   7.263  0.5019  0.0444  0.1450
41312SOL    HW127528   0.057  10.366   7.246  0.4444  0.2462 -0.6399
41312SOL    HW227529   0.062  10.516   7.223  1.1123  0.3055 -0.1471
41313SOL     OW27530   5.535   6.706  10.201 -0.3273 -0.5951 -0.5355
41313SOL    HW127531   5.571   6.655  10.273  0.4887  0.3803 -0.2265
41313SOL    HW227532   5.564   6.796  10.218  0.0057 -0.3597 -2.1454
41314SOL     OW27533   6.039   9.346   7.850  0.3566 -0.3369  0.1641
41314SOL    HW127534   6.007   9.323   7.937  0.7854  1.1104  0.7450
41314SOL    HW227535   5.960   9.365   7.799  0.1555  0.9343  0.9025
41315SOL     OW27536   6.344   2.862   7.644 -0.1087 -0.1920  0.0866
41315SOL    HW127537   6.401   2.785   7.648 -1.0439 -0.9988 -1.2055
41315SOL    HW227538   6.263   2.834   7.684  0.4384  1.0450  2.1703
41316SOL     OW27539   8.649   3.023   0.788  0.7974  0.3956  0.0657
41316SOL    HW127540   8.610   3.049   0.871  1.2529 -0.9848  0.7323
41316SOL    HW227541   8.664   3.106   0.742 -3.6374  1.0319 -0.6248
41317SOL     OW27542  10.584   4.446   2.783  0.0750 -0.0069 -0.3436
41317SOL    HW127543  10.498   4.473   2.816 -0.2888 -1.3563 -0.1512
41317SOL    HW227544  10.566   4.372   2.725  1.1525 -0.7725  0.2614
41318SOL     OW27545   6.779   1.460   7.671 -0.5729 -0.0443  0.6335
41318SOL    HW127546   6.787   1.551   7.644 -0.4802  0.1793  1.3779
41318SOL    HW227547   6.868   1.434   7.695 -0.1316 -1.1166 -1.9156
41319SOL     OW27548   9.587   2.693  10.890 -0.2241  0.5472  0.3277
41319SOL    HW127549   9.681   2.675  10.882 -0.6801 -1.3111 -1.3118
41319SOL    HW227550   9.564   2.661  10.978  0.2268 -1.2907 -0.1872
41320SOL     OW27551   0.195   0.406   5.218  0.0319  0.3423 -0.1713
41320SOL    HW127552   0.213   0.325   5.265 -0.5192 -1.0821 -2.2553
41320SOL    HW227553   0.100   0.414   5.219  0.0869  1.0796  0.1632
41321SOL     OW27554   5.785   7.689   1.672 -0.1395  0.0165  0.0819
41321SOL    HW127555   5.709   7.743   1.649  0.2101  2.0424  3.1444
41321SOL    HW227556   5.751   7.622   1.730 -0.1614 -1.7161 -1.8232
41322SOL     OW27557   9.645   7.569   5.963  0.4184  0.5106  0.1980
41322SOL    HW127558   9.668   7.481   5.992  1.3783  0.7341  0.1347
41322SOL    HW227559   9.696   7.627   6.018 -1.2402  1.1066  1.1900
41323SOL     OW27560  10.940   6.353   4.486 -0.0809 -0.3135 -0.0173
41323SOL    HW127561  10.845   6.336   4.490 -0.1850  0.3812  0.7316
41323SOL    HW227562  10.951   6.411   4.411 -0.4867  0.9569  0.8680
41324SOL     OW27563  10.303   4.504   6.172 -0.5712  0.0204  0.6584
41324SOL    HW127564  10.360   4.431   6.195  0.3266 -0.3157 -2.2377
41324SOL    HW227565  10.218   4.463   6.155 -0.1034 -0.3880 -0.8312
41325SOL     OW27566   8.187   8.193  10.632  0.2471 -0.1469  0.0053
41325SOL    HW127567   8.116   8.209  10.695  1.0043 -0.1903  0.8941
41325SOL    HW227568   8.158   8.236  10.552 -1.5769 -1.6483 -0.1981
41326SOL     OW27569  10.693  10.942  10.561 -0.1658 -0.1638 -0.5706
41326SOL    HW127570  10.618  10.935  10.621  0.6729 -0.7753  0.4300
41326SOL    HW227571  10.730  11.029  10.580 -0.0515 -0.2536 -0.3844
41327SOL     OW27572   6.693   2.507   4.147 -0.3478 -0.8968 -0.2192
41327SOL    HW127573   6.717   2.549   4.064  0.2255 -2.1783 -0.7296
41327SOL    HW227574   6.603   2.479   4.133 -0.1937 -1.2701 -0.4818
41328SOL     OW27575   4.232   3.453   9.621 -0.1790 -0.5483 -0.2925
41328SOL    HW127576   4.206   3.361   9.615 -0.0941 -0.5187 -1.3575
41328SOL    HW227577   4.315   3.452   9.668 -0.1816 -1.0182 -0.2932
41329SOL     OW27578   7.072   5.063   4.253 -0.1578 -0.3443 -0.8246
41329SOL    HW127579   7.026   5.014   4.185 -0.9455  0.0736 -0.6107
41329SOL    HW227580   7.005   5.120   4.291  0.2549 -0.6090  0.3431
41330SOL     OW27581   7.888   9.582   1.075  0.4005  0.0511 -0.7484
41330SOL    HW127582   7.902   9.509   1.015  0.4048  0.4017 -1.1715
41330SOL    HW227583   7.976   9.613   1.097  0.4857 -1.0874  0.6995
41331SOL     OW27584   0.758   4.172  10.847 -0.3480  0.0018  0.0012
41331SOL    HW127585   0.740   4.084  10.882 -0.9861 -0.0760 -0.4942
41331SOL    HW227586   0.730   4.167  10.755 -0.4639  0.7535 -0.0078
41332SOL     OW27587   4.565  10.267   5.628 -0.3320  0.4213 -0.1221
41332SOL    HW127588   4.612  10.265   5.544 -1.0885  0.6574 -0.5621
41332SOL    HW227589   4.633  10.285   5.693  0.1825  0.7810 -0.7487
41333SOL     OW27590  10.869   1.485   3.963  0.2882 -0.4390 -0.0451
41333SOL    HW127591  10.950   1.445   3.932  0.8336  0.9885 -0.5072
41333SOL    HW227592  10.896   1.565   4.008 -0.8041 -0.3910  0.5878
41334SOL     OW27593   3.619   2.558   2.373  0.2363 -0.0510 -0.2525
41334SOL    HW127594   3.545   2.502   2.395  0.9966 -0.4501  1.3620
41334SOL    HW227595   3.600   2.641   2.417  0.4914  0.0260 -0.2864
41335SOL     OW27596  10.036   5.652   0.743  0.5811 -0.3409 -0.1473
41335SOL    HW127597   9.953   5.695   0.763  1.1203  0.9346 -0.5419
41335SOL    HW227598  10.016   5.596   0.668  0.0133 -0.2546 -0.0649
41336SOL     OW27599   1.282   8.142   0.367 -0.2768  0.2369  0.6503
41336SOL    HW127600   1.250   8.062   0.409  1.1287 -0.6857  0.0578
41336SOL    HW227601   1.278   8.209   0.436  0.3148 -0.8097  1.7435
41337SOL     OW27602   4.093   5.525   5.197 -0.5201 -0.2004  0.0968
41337SOL    HW127603   4.017   5.471   5.217 -0.2629 -0.4554  0.4058
41337SOL    HW227604   4.056   5.609   5.170 -0.9143 -0.3990  0.0113
41338SOL     OW27605  10.503   8.996   9.313  0.5945  0.5452  0.4052
41338SOL    HW127606  10.451   8.921   9.284 -1.7444  1.9974  0.5860
41338SOL    HW227607  10.489   9.000   9.408  1.0170  0.9852  0.4537
41339SOL     OW27608   1.972   7.712   9.015 -0.6543  0.5576  0.3868
41339SOL    HW127609   1.957   7.805   9.037 -0.5042  0.3071  1.6444
41339SOL    HW227610   2.052   7.690   9.061 -0.4691 -0.1000 -0.2461
41340SOL     OW27611   9.879   2.933   9.171  0.0156  0.1756 -0.2127
41340SOL    HW127612   9.912   3.020   9.193  0.4158 -0.2418  0.8808
41340SOL    HW227613   9.820   2.911   9.243  0.3464 -0.6866 -0.2007
41341SOL     OW27614  10.521   3.223  10.158 -0.0639  0.2677 -0.0072
41341SOL    HW127615  10.582   3.264  10.096 -1.3015  1.2825 -0.5981
41341SOL    HW227616  10.447   3.196  10.104 -0.5380 -0.1214  0.8292
41342SOL     OW27617   1.130   7.172   3.077  0.0348 -0.2911  0.0470
41342SOL    HW127618   1.058   7.141   3.022  0.6355  0.5303 -1.2492
41342SOL    HW227619   1.107   7.262   3.097  0.6339 -0.0654 -0.2704
41343SOL     OW27620   0.148   9.758   2.943  0.7751 -0.2664  0.4870
41343SOL    HW127621   0.117   9.720   3.025  0.5725 -0.7532  0.1894
41343SOL    HW227622   0.069   9.790   2.901  1.0403  1.3783  1.1670
41344SOL     OW27623   7.401   6.294   3.301  0.2517 -0.3515 -0.0325
41344SOL    HW127624   7.431   6.272   3.213  1.0858 -1.7043  0.5513
41344SOL    HW227625   7.313   6.329   3.288  1.0015  1.0879 -1.5429
41345SOL     OW27626   0.225   2.118   4.065  0.1196 -0.1246  0.1126
41345SOL    HW127627   0.254   2.148   3.979  3.0654 -0.5665  0.8293
41345SOL    HW227628   0.175   2.038   4.047  2.5382 -1.4664 -1.1670
41346SOL     OW27629   0.410   4.445   0.372 -0.6351 -0.2364  0.5424
41346SOL    HW127630   0.443   4.363   0.407 -0.1537 -0.6625 -0.8411
41346SOL    HW227631   0.483   4.480   0.319 -0.3457  1.7340  2.1128
41347SOL     OW27632   2.300   7.976   7.881  0.0308  0.0241  0.4040
41347SOL    HW127633   2.280   7.887   7.911  2.6977 -0.3447  1.3562
41347SOL    HW227634   2.386   7.968   7.839 -0.9646  1.6559 -2.1960
41348SOL     OW27635   7.277   5.610   4.097  0.3014 -0.4415 -0.3483
41348SOL    HW127636   7.242   5.657   4.172 -0.2369 -0.4097 -0.6151
41348SOL    HW227637   7.294   5.678   4.032  0.6241 -0.4853 -0.3103
41349SOL     OW27638   2.175  10.498   0.487 -0.0153 -0.1044 -0.7690
41349SOL    HW127639   2.154  10.408   0.513 -0.0560 -0.7397 -2.8060
41349SOL    HW227640   2.203  10.541   0.568  3.2479 -2.8833 -0.1808
41350SOL     OW27641   3.303   6.792   6.870  0.3182  0.1541 -0.1257
41350SOL    HW127642   3.250   6.869   6.889  0.4022  0.6050 -1.5640
41350SOL    HW227643   3.247   6.718   6.893  0.1847  0.6198  1.1345
41351SOL     OW27644  10.724  10.101   3.862 -0.8688  0.2485  0.0502
41351SOL    HW127645  10.664  10.064   3.797 -0.4051 -0.4819  0.0343
41351SOL    HW227646  10.804  10.118   3.813 -0.2100 -1.1488  0.6106
41352SOL     OW27647   0.642   7.322   1.659  0.4928 -0.2593 -0.0188
41352SOL    HW127648   0.640   7.368   1.743  1.4218 -0.8380  0.3367
41352SOL    HW227649   0.550   7.308   1.637  0.2151 -1.6328  1.7667
41353SOL     OW27650   2.102   2.166   1.354  0.0725  0.1525 -0.7078
41353SOL    HW127651   2.080   2.093   1.297  2.4563 -1.1672 -0.0830
41353SOL    HW227652   2.018   2.204   1.379 -1.2766 -2.4918 -0.9209
41354SOL     OW27653   2.403   1.356   5.267  0.5013  0.2749 -0.3925
41354SOL    HW127654   2.315   1.328   5.241  0.0333  1.0906  0.2421
41354SOL    HW227655   2.438   1.400   5.190  0.1876  0.3226 -0.5085
41355SOL     OW27656   7.821   9.308   5.143  0.0055 -0.5186 -0.3457
41355SOL    HW127657   7.915   9.312   5.162  0.4215  1.0568 -2.3090
41355SOL    HW227658   7.781   9.277   5.224  1.5384  4.7985  2.9741
41356SOL     OW27659  10.881   0.291   2.499 -0.5819  0.2376 -0.1790
41356SOL    HW127660  10.875   0.210   2.549  2.2633  0.4611  0.7042
41356SOL    HW227661  10.900   0.263   2.409 -0.6639 -0.0836 -0.0946
41357SOL     OW27662   5.184   8.879   4.670 -0.3078 -0.2001  0.2053
41357SOL    HW127663   5.246   8.808   4.649 -2.2302 -1.2711 -2.5087
41357SOL    HW227664   5.098   8.837   4.667 -1.5132  2.1545 -1.2417
41358SOL     OW27665   1.013   5.065   6.587  0.2534 -0.3710  0.1334
41358SOL    HW127666   0.938   5.071   6.528  0.9062  2.1361 -0.5174
41358SOL    HW227667   1.072   5.135   6.560  0.1422  1.6445  4.3524
41359SOL     OW27668   5.536   6.771   8.579  0.0108 -0.1901 -0.8465
41359SOL    HW127669   5.506   6.777   8.670 -0.1299  0.5065 -0.9388
41359SOL    HW227670   5.603   6.703   8.581  0.3083  0.1112 -0.1413
41360SOL     OW27671  10.026   4.763   9.278  0.7660  0.4046  0.3397
41360SOL    HW127672   9.942   4.748   9.233  1.4663  2.7829 -2.0718
41360SOL    HW227673  10.013   4.846   9.324  1.3680  0.0588  1.1424
41361SOL     OW27674   2.243   4.171   5.374 -0.1292 -0.0506  0.3397
41361SOL    HW127675   2.165   4.180   5.319 -0.2463 -0.2782  0.4718
41361SOL    HW227676   2.288   4.255   5.364 -1.2090  0.7022  1.5412
41362SOL     OW27677   4.297   8.986   4.309 -0.4061  0.1178  0.1278
41362SOL    HW127678   4.351   8.995   4.387 -0.6456 -0.1759  0.3294
41362SOL    HW227679   4.217   8.944   4.340 -1.0667  1.2228 -0.0344
41363SOL     OW27680   5.182   6.142   1.124  0.7606  0.3300 -0.2531
41363SOL    HW127681   5.230   6.207   1.175  0.8553 -0.4699  0.7005
41363SOL    HW227682   5.093   6.177   1.118  1.0703  1.0716 -0.7047
41364SOL     OW27683   3.065  10.452   5.604 -0.5428  0.4915  0.1816
41364SOL    HW127684   3.056  10.425   5.512  2.5792 -0.5277  0.0454
41364SOL    HW227685   3.110  10.379   5.646 -1.3622  1.1971  2.4175
41365SOL     OW27686   6.305   9.847   7.825 -0.0765 -0.9116  0.2746
41365SOL    HW127687   6.244   9.898   7.879  0.4798 -0.4326  0.4591
41365SOL    HW227688   6.356   9.912   7.778  0.4102 -1.3071  0.2484
41366SOL     OW27689   5.956   9.101  10.605 -0.1924  0.2058  0.0998
41366SOL    HW127690   5.917   9.085  10.519  0.1863  1.2274 -0.2874
41366SOL    HW227691   5.923   9.031  10.660  0.7442 -1.3727 -1.2439
41367SOL     OW27692   3.403   5.011  10.257  0.0633 -0.0046 -0.1772
41367SOL    HW127693   3.329   4.951  10.268  0.2201 -0.3264 -0.8828
41367SOL    HW227694   3.365   5.087  10.212 -0.0188  0.2159  0.2491
41368SOL     OW27695   3.626   2.716   1.432  0.0357 -0.1478  0.2385
41368SOL    HW127696   3.616   2.805   1.396  1.0829  0.8985  2.3464
41368SOL    HW227697   3.684   2.672   1.370  0.4589  1.0447 -0.2432
41369SOL     OW27698   7.446   5.833   1.195 -0.3609  0.3276  0.4004
41369SOL    HW127699   7.415   5.846   1.105  1.3015  2.2122  0.0131
41369SOL    HW227700   7.526   5.781   1.185  0.9597  2.2472  0.5202
41370SOL     OW27701   4.782   6.336   9.801 -0.5176  0.2820  0.3023
41370SOL    HW127702   4.797   6.329   9.706 -0.7690 -2.8739  0.3753
41370SOL    HW227703   4.844   6.274   9.839 -1.9341 -0.1887  1.9836
41371SOL     OW27704   4.809   0.162   5.734  0.0214  0.2154 -0.3042
41371SOL    HW127705   4.770   0.142   5.819 -2.2867  1.9402 -0.8518
41371SOL    HW227706   4.806   0.257   5.728 -0.1895  0.1190 -2.4644
41372SOL     OW27707   4.239   6.441   5.212  0.1535  0.1178 -0.6935
41372SOL    HW127708   4.308   6.426   5.276 -1.2595  1.7135  1.3681
41372SOL    HW227709   4.276   6.506   5.151  0.8577  0.0615 -0.3333
41373SOL     OW27710  10.254  10.034   2.176  0.3830 -0.4015  0.2980
41373SOL    HW127711  10.255   9.960   2.115 -0.8369  0.2052 -0.4731
41373SOL    HW227712  10.346  10.047   2.197  0.5984 -2.5759  1.0011
41374SOL     OW27713   5.870   0.131   6.456  0.1068  0.5204  0.1013
41374SOL    HW127714   5.801   0.129   6.389  0.8255 -0.6748 -0.6457
41374SOL    HW227715   5.906   0.220   6.450 -0.6963  0.8376 -0.1943
41375SOL     OW27716  10.634   9.408   3.900  0.4487 -1.0204 -0.5135
41375SOL    HW127717  10.662   9.360   3.978  1.3320 -0.4562 -0.4645
41375SOL    HW227718  10.683   9.366   3.829  0.9256 -0.4649 -0.5240
41376SOL     OW27719   7.909   0.782   9.885  0.5833  0.3083  0.3182
41376SOL    HW127720   7.940   0.705   9.935  1.0779 -0.0806 -0.5689
41376SOL    HW227721   7.935   0.857   9.939 -0.7260 -0.1613  1.6524
41377SOL     OW27722   2.245   6.768  10.593  0.0426  0.0655  0.2462
41377SOL    HW127723   2.181   6.837  10.574  0.3335 -0.1279 -1.6679
41377SOL    HW227724   2.295   6.759  10.511 -1.0321 -3.5088 -0.1731
41378SOL     OW27725   6.383   7.092   5.268 -0.8096 -0.3697 -0.0198
41378SOL    HW127726   6.410   7.066   5.180 -2.1550 -0.0328 -0.5557
41378SOL    HW227727   6.390   7.188   5.267 -0.7341 -0.3729  0.2671
41379SOL     OW27728   7.510   4.424   9.214  0.6322 -0.5273 -0.0360
41379SOL    HW127729   7.539   4.498   9.268  1.0929 -0.6532 -0.1042
41379SOL    HW227730   7.591   4.388   9.178  0.3442 -0.5732 -0.6475
41380SOL     OW27731   9.061   3.166   2.846  0.3754 -0.0069  0.0918
41380SOL    HW127732   9.025   3.087   2.805  0.9980 -0.1347 -0.2247
41380SOL    HW227733   9.048   3.235   2.780  0.6367 -0.0381  0.0059
41381SOL     OW27734   4.712  10.500   8.783  0.4929  0.1193  0.3124
41381SOL    HW127735   4.744  10.460   8.864  1.9258 -1.7169 -1.0775
41381SOL    HW227736   4.764  10.580   8.774  0.8332 -0.0381  0.8405
41382SOL     OW27737   7.289   4.551   5.971  0.1779  0.5791  0.1757
41382SOL    HW127738   7.220   4.494   5.936 -1.4704  1.0826  2.3640
41382SOL    HW227739   7.243   4.628   6.003  1.7131  0.8349  1.9531
41383SOL     OW27740   0.509   1.388   4.110  0.1962  0.1797  0.0144
41383SOL    HW127741   0.526   1.344   4.193  0.5339 -0.1682 -0.2389
41383SOL    HW227742   0.580   1.360   4.053 -1.6255 -1.9682 -1.3539
41384SOL     OW27743   5.669   1.402   8.965 -0.4912  0.5547 -0.3347
41384SOL    HW127744   5.705   1.443   9.044 -0.5794  0.0368 -0.0183
41384SOL    HW227745   5.651   1.312   8.991  0.4747  0.0741 -1.2471
41385SOL     OW27746   0.323   9.397   5.852 -0.0501  0.1562 -0.1374
41385SOL    HW127747   0.257   9.335   5.821 -0.7418  0.4088  0.7912
41385SOL    HW227748   0.335   9.375   5.944  0.4923  0.6991 -0.0740
41386SOL     OW27749   6.686   3.918  10.518 -0.1645  0.3996 -0.6983
41386SOL    HW127750   6.655   3.953  10.601 -0.8448 -1.8441  0.0825
41386SOL    HW227751   6.613   3.931  10.457  0.2137  1.7520 -0.8934
41387SOL     OW27752   8.131   2.578  10.325 -0.3433 -0.2624 -0.6566
41387SOL    HW127753   8.172   2.655  10.364 -0.1257 -1.8832  2.6992
41387SOL    HW227754   8.192   2.550  10.258  0.4436  1.4470 -0.7177
41388SOL     OW27755   7.689   5.613   3.086 -0.2309  0.2124  0.8779
41388SOL    HW127756   7.753   5.557   3.043  0.4633 -0.2641  2.4409
41388SOL    HW227757   7.715   5.702   3.061  0.4519 -0.0273  0.7057
41389SOL     OW27758   8.912   6.848   8.885  0.1479  0.3444  0.6144
41389SOL    HW127759   8.915   6.936   8.922  2.6319  0.0046  1.4106
41389SOL    HW227760   8.843   6.803   8.935 -0.3369  1.4753  0.9900
41390SOL     OW27761   5.385   0.205  10.546  0.0389 -0.1160 -0.1460
41390SOL    HW127762   5.358   0.129  10.495  1.9280 -1.4939  0.7857
41390SOL    HW227763   5.388   0.173  10.637 -2.1834  1.9516  0.7762
41391SOL     OW27764   0.976   0.091   8.700 -0.3060  0.0656 -0.7506
41391SOL    HW127765   1.011   0.003   8.689 -0.9761 -0.0684 -1.9950
41391SOL    HW227766   1.024   0.144   8.637 -2.2140 -0.1104 -2.4489
41392SOL     OW27767   9.193   5.333   8.592 -0.1469 -0.2469  0.4906
41392SOL    HW127768   9.184   5.406   8.653  0.4612 -0.3904  0.7664
41392SOL    HW227769   9.120   5.342   8.531  0.5209  1.2201 -0.1300
41393SOL     OW27770   4.613   0.833   5.761 -0.0939  0.5705  0.3539
41393SOL    HW127771   4.706   0.808   5.761 -0.3240 -0.4507 -1.2554
41393SOL    HW227772   4.567   0.753   5.734 -1.4399  1.1084  0.9645
41394SOL     OW27773   5.211   5.315   3.887  0.0383 -0.7563 -0.1358
41394SOL    HW127774   5.183   5.309   3.795  0.1885  0.5008 -0.2727
41394SOL    HW227775   5.136   5.280   3.936 -1.6566  2.0080 -0.5368
41395SOL     OW27776   2.916   2.230   9.936  0.3883  0.4164 -0.6406
41395SOL    HW127777   2.878   2.242   9.849  1.6600  0.0046 -1.2799
41395SOL    HW227778   2.900   2.138   9.957  2.2950 -0.1744 -1.5801
41396SOL     OW27779   8.619   0.103   6.692 -0.0480 -0.2184  0.0944
41396SOL    HW127780   8.542   0.119   6.637 -1.0312  2.3790  2.0285
41396SOL    HW227781   8.665   0.187   6.692  0.7243 -0.6094  2.0001
41397SOL     OW27782   3.253   4.270   9.813  0.0961 -0.4387 -0.7361
41397SOL    HW127783   3.280   4.200   9.872  2.9760  2.6230  1.9554
41397SOL    HW227784   3.159   4.281   9.829 -0.0825 -2.5706 -0.0727
41398SOL     OW27785   1.160   7.002   5.118  0.5032 -0.9313  0.9033
41398SOL    HW127786   1.242   7.030   5.160  0.5264  1.0266 -0.2940
41398SOL    HW227787   1.099   7.073   5.137  0.1287 -0.6515 -1.1651
41399SOL     OW27788   0.151   0.159   6.836 -0.5436 -0.3837 -0.5418
41399SOL    HW127789   0.140   0.064   6.843  0.8650 -0.4934  0.7744
41399SOL    HW227790   0.198   0.183   6.916  0.5243  1.1943 -1.5936
41400SOL     OW27791  10.687   9.485   7.415  0.3791  0.1049  0.0260
41400SOL    HW127792  10.674   9.457   7.506 -0.7965 -0.4561 -0.2944
41400SOL    HW227793  10.779   9.509   7.411  0.4957 -0.0242  1.3246
41401SOL     OW27794   9.736   2.614  11.108 -0.7639 -0.2253  1.1168
41401SOL    HW127795   9.655   2.576  11.143  0.2359 -0.7520  3.0092
41401SOL    HW227796   9.798   2.542  11.106 -0.6108 -0.1223 -1.5149
41402SOL     OW27797   4.622   0.160   6.507 -0.0273  0.0420  0.1954
41402SOL    HW127798   4.643   0.114   6.426  1.1321  0.9149 -0.0220
41402SOL    HW227799   4.528   0.179   6.499  0.1654  0.5329 -1.1767
41403SOL     OW27800   6.922   4.843   2.096 -0.1179 -0.2916  0.0378
41403SOL    HW127801   6.892   4.765   2.049  0.7885 -0.7321  0.1713
41403SOL    HW227802   6.903   4.916   2.038 -0.8337 -0.6244 -0.1563
41404SOL     OW27803   7.869   1.389   1.951  0.4440 -0.8764  0.1159
41404SOL    HW127804   7.817   1.350   1.881  0.0048 -0.8271  0.4081
41404SOL    HW227805   7.950   1.338   1.952  0.8976 -0.2179 -1.1024
41405SOL     OW27806   3.121   3.356   3.001 -0.5580  0.0456 -0.6606
41405SOL    HW127807   3.165   3.291   2.946 -0.4598 -1.5849  1.2252
41405SOL    HW227808   3.028   3.334   2.995 -0.4719 -0.6910  0.4440
41406SOL     OW27809   7.240   5.174   1.839 -0.4676  0.0047  0.4877
41406SOL    HW127810   7.186   5.100   1.813 -0.1865  0.1039 -0.4337
41406SOL    HW227811   7.256   5.162   1.933  0.8896 -1.9738  0.0519
41407SOL     OW27812   9.151  10.285   9.422 -0.0260 -0.3294 -0.2729
41407SOL    HW127813   9.202  10.308   9.345 -2.2696  1.2956 -1.3568
41407SOL    HW227814   9.158  10.189   9.427  1.9156 -0.2846 -1.1573
41408SOL     OW27815   6.676   9.111   3.537 -0.4383  0.0854  0.2485
41408SOL    HW127816   6.723   9.042   3.491 -2.4155 -1.8941  1.0212
41408SOL    HW227817   6.671   9.183   3.473 -2.9720 -2.4720 -2.7678
41409SOL     OW27818   9.542   3.728   7.892  0.5385 -0.3408 -0.2026
41409SOL    HW127819   9.561   3.821   7.907  2.9958 -0.9592  0.9698
41409SOL    HW227820   9.626   3.684   7.902 -0.7567 -2.8533  0.4492
41410SOL     OW27821   0.023   5.853   3.248 -0.2061  0.2696 -0.2258
41410SOL    HW127822   0.054   5.809   3.327 -0.6475 -0.0008 -0.1950
41410SOL    HW227823  -0.071   5.837   3.248 -0.0692 -0.7045 -1.3868
41411SOL     OW27824   6.078   7.589   9.104  0.2287 -0.3011 -0.1072
41411SOL    HW127825   6.022   7.662   9.079 -1.4640 -1.1552  1.0175
41411SOL    HW227826   6.065   7.524   9.034  0.7344 -0.0617 -0.4344
41412SOL     OW27827   6.222  10.686   2.604 -0.0906  0.5473 -0.5446
41412SOL    HW127828   6.310  10.722   2.611  0.1012  0.1059 -0.6546
41412SOL    HW227829   6.164  10.756   2.634  0.4090  0.2533  1.1746
41413SOL     OW27830   5.620   0.671   8.080  0.3652  0.5463 -0.2710
41413SOL    HW127831   5.695   0.669   8.020  0.3669  0.6912 -0.2726
41413SOL    HW227832   5.550   0.628   8.032 -0.1645  2.2634 -1.0895
41414SOL     OW27833   9.460   4.427   8.897  0.5865 -0.4246 -0.4552
41414SOL    HW127834   9.384   4.405   8.951  1.1633  0.7522  0.8726
41414SOL    HW227835   9.531   4.374   8.932  0.8024 -0.1729 -0.5117
41415SOL     OW27836   6.571   7.105   5.758 -0.3399 -0.4100  0.5647
41415SOL    HW127837   6.639   7.169   5.777 -1.0903  0.7486 -0.4580
41415SOL    HW227838   6.613   7.020   5.769  1.5797  0.2644 -1.1322
41416SOL     OW27839   2.498   7.386   5.987  0.0043 -0.6329 -0.1148
41416SOL    HW127840   2.548   7.393   6.068 -0.0285 -0.6916 -0.0900
41416SOL    HW227841   2.489   7.477   5.957  0.8644 -0.6770 -0.5671
41417SOL     OW27842   4.234   9.891   8.144  0.3927  0.5987  0.3475
41417SOL    HW127843   4.203   9.939   8.067  0.5617  3.0191  1.6929
41417SOL    HW227844   4.266   9.959   8.203  3.0029 -1.3688  1.3843
41418SOL     OW27845   3.467   7.091   7.082  0.2004  0.2532 -0.6674
41418SOL    HW127846   3.506   7.022   7.029 -1.2383 -1.5128  0.4497
41418SOL    HW227847   3.404   7.046   7.138 -2.5472  2.7430 -1.4712
41419SOL     OW27848   7.474   3.721  10.488  0.1996  0.3942  0.5971
41419SOL    HW127849   7.402   3.735  10.550 -0.1754  1.6885 -0.0897
41419SOL    HW227850   7.497   3.808  10.459 -0.3178 -0.2156 -1.8456
41420SOL     OW27851   2.578   8.557   3.466  0.3413 -0.1929 -0.2450
41420SOL    HW127852   2.504   8.615   3.486  0.5486  0.7744 -2.1083
41420SOL    HW227853   2.537   8.475   3.441  0.0191 -0.5864  1.4154
41421SOL     OW27854  10.466  10.519   3.329  0.3131  0.2286 -0.2319
41421SOL    HW127855  10.396  10.454   3.328 -0.6581  1.2133  0.6562
41421SOL    HW227856  10.547  10.468   3.332 -0.4264 -0.9272  0.9979
41422SOL     OW27857  10.792   6.023   8.750 -0.2829  0.0014 -0.0114
41422SOL    HW127858  10.771   6.116   8.752 -0.5358 -0.0407  2.0883
41422SOL    HW227859  10.794   6.000   8.657 -1.3998  1.8283 -0.5304
41423SOL     OW27860   9.977  10.005  10.892 -0.4945  0.4225 -0.2439
41423SOL    HW127861  10.071  10.000  10.873  0.2809  1.5774  2.7355
41423SOL    HW227862   9.936  10.019  10.807  1.8128 -1.8116 -1.8919
41424SOL     OW27863   3.860  10.976   1.808 -0.2085  0.2863  0.0666
41424SOL    HW127864   3.912  10.924   1.746 -0.3785  0.7770 -0.4952
41424SOL    HW227865   3.827  10.911   1.871  0.7839 -0.0757  0.2331
41425SOL     OW27866   8.884   4.607   8.115 -0.1957  0.1960 -0.4933
41425SOL    HW127867   8.794   4.639   8.122 -1.2254 -2.6305  0.8067
41425SOL    HW227868   8.884   4.552   8.037  0.9776  1.6018 -1.5441
41426SOL     OW27869   7.709  10.314   1.738  0.3750 -0.2834  0.5354
41426SOL    HW127870   7.686  10.329   1.647 -1.7137  3.8790  1.4895
41426SOL    HW227871   7.656  10.238   1.764 -1.7460  0.6126 -0.9231
41427SOL     OW27872   2.293   6.521   0.425 -0.4574 -0.3793  0.0653
41427SOL    HW127873   2.247   6.509   0.342 -0.6498  0.6991  0.0032
41427SOL    HW227874   2.344   6.601   0.413 -2.6926  1.4779  1.9122
41428SOL     OW27875   0.065   0.950   9.179 -0.2858  0.4290 -0.2415
41428SOL    HW127876  -0.022   0.988   9.189  0.3710  1.3584  3.1102
41428SOL    HW227877   0.052   0.856   9.188 -0.9509  0.5745  0.4066
41429SOL     OW27878  10.354   6.980   3.965 -0.0690  0.4154 -0.1805
41429SOL    HW127879  10.389   6.925   4.035  1.7076 -0.2589 -1.5174
41429SOL    HW227880  10.296   6.922   3.916 -0.8989  0.7420  0.3877
41430SOL     OW27881  10.891  10.788   9.943 -0.2151 -0.1512  0.0661
41430SOL    HW127882  10.875  10.703   9.901  0.8698 -0.6813  0.6818
41430SOL    HW227883  10.824  10.794  10.011 -0.1641 -0.6093  0.1598
41431SOL     OW27884  10.250   6.110   2.102 -0.3428 -0.0903 -0.1358
41431SOL    HW127885  10.156   6.116   2.120 -0.7866 -1.0418 -1.8789
41431SOL    HW227886  10.260   6.143   2.012  0.7534 -1.2931 -0.4973
41432SOL     OW27887   5.610   1.252  10.076 -0.0388  0.4323 -0.2532
41432SOL    HW127888   5.702   1.264  10.054 -0.3725 -0.8937 -2.6203
41432SOL    HW227889   5.587   1.166  10.040 -2.3269  0.9557 -0.1951
41433SOL     OW27890   4.996   6.757  10.238  0.1826  0.1088 -0.0336
41433SOL    HW127891   4.999   6.663  10.258  1.4383  0.1534  0.0671
41433SOL    HW227892   5.085   6.778  10.209  0.0023  1.3382  0.2623
41434SOL     OW27893  10.462   7.327   1.793 -0.5414  0.3028 -0.1325
41434SOL    HW127894  10.486   7.324   1.701 -1.9755  0.4371 -0.5331
41434SOL    HW227895  10.399   7.399   1.799 -2.2435 -1.1902  0.5040
41435SOL     OW27896   3.858   6.947   5.750  0.0292 -0.0573 -0.7082
41435SOL    HW127897   3.943   6.989   5.762  0.0566 -0.3260  0.1537
41435SOL    HW227898   3.804   6.982   5.821 -0.5041 -0.0787 -1.0994
41436SOL     OW27899  10.682   1.153   1.359  0.0869  0.2116  0.6649
41436SOL    HW127900  10.759   1.111   1.320 -0.8368 -0.3193 -0.6397
41436SOL    HW227901  10.698   1.149   1.454  1.6506  0.1065  0.4222
41437SOL     OW27902   1.494   9.703   9.368  0.4450 -0.2017  0.6064
41437SOL    HW127903   1.580   9.680   9.402 -0.0566 -1.0913  1.3560
41437SOL    HW227904   1.472   9.633   9.307  0.0244 -0.3012  0.8609
41438SOL     OW27905   8.261   9.577   0.223 -0.5869 -0.2095 -0.0587
41438SOL    HW127906   8.311   9.530   0.156  1.1816  0.4553  0.7143
41438SOL    HW227907   8.228   9.655   0.178 -1.3271 -0.8727 -0.6921
41439SOL     OW27908   6.984   1.833   2.394 -0.6922 -0.6246  0.4339
41439SOL    HW127909   6.910   1.780   2.367 -1.5527  0.7792 -0.0648
41439SOL    HW227910   7.018   1.870   2.312  0.6613 -1.3401  0.6362
41440SOL     OW27911   5.421   8.769   0.059  0.0585  0.1328  0.2410
41440SOL    HW127912   5.333   8.775   0.023 -0.6512  0.2029  1.9326
41440SOL    HW227913   5.410   8.729   0.145  1.4272  2.0576  1.3831
41441SOL     OW27914   8.310   1.318   0.780 -0.0395 -0.2286 -0.0636
41441SOL    HW127915   8.400   1.347   0.769 -0.3739  0.5273 -0.9287
41441SOL    HW227916   8.265   1.394   0.818 -0.4364 -0.4032 -0.1787
41442SOL     OW27917   5.248   2.284   6.836 -0.5686  0.2529  0.4815
41442SOL    HW127918   5.161   2.325   6.838  0.0370  1.5947  0.8257
41442SOL    HW227919   5.306   2.350   6.875  0.8227 -0.0400 -0.9885
41443SOL     OW27920   4.992   4.205   8.991  0.4685 -0.1666 -0.2027
41443SOL    HW127921   4.897   4.207   8.987  0.4796 -0.3218 -0.5313
41443SOL    HW227922   5.020   4.288   8.952  0.4879 -0.4037 -0.6929
41444SOL     OW27923   6.743   8.205   7.549 -0.0584  0.0856 -0.5848
41444SOL    HW127924   6.836   8.195   7.567 -0.1769 -0.7691 -0.4235
41444SOL    HW227925   6.724   8.141   7.481  0.0758  2.2749 -2.8076
41445SOL     OW27926  10.784   7.143   1.228 -0.2182  0.4385  0.4787
41445SOL    HW127927  10.768   7.154   1.134  0.6695  0.0492  0.2685
41445SOL    HW227928  10.697   7.133   1.266 -0.5341 -0.9263 -0.5128
41446SOL     OW27929   4.432   2.604   9.675  0.2829  0.0645  0.1821
41446SOL    HW127930   4.511   2.562   9.639  0.0735 -1.7430  1.6582
41446SOL    HW227931   4.361   2.573   9.619  0.4046  0.3349 -0.1267
41447SOL     OW27932   6.632  10.061   4.139 -0.5365  0.0875 -0.1421
41447SOL    HW127933   6.579  10.086   4.063  0.6654  0.9154 -0.7232
41447SOL    HW227934   6.592   9.979   4.169 -0.9646 -0.3324 -1.7474
41448SOL     OW27935   0.722   7.072  10.391  0.2834 -0.5815  0.7163
41448SOL    HW127936   0.744   7.035  10.476  2.6360  0.5540  0.6672
41448SOL    HW227937   0.792   7.134  10.372 -2.0576  1.9356 -0.3984
41449SOL     OW27938  10.052   1.189   2.838  0.9139  0.2246 -0.1236
41449SOL    HW127939  10.053   1.101   2.876  0.2895  0.8568  1.4511
41449SOL    HW227940   9.959   1.211   2.833  1.0983  1.8375  2.1472
41450SOL     OW27941  10.854  10.891   5.388 -0.1208  0.1662 -0.0384
41450SOL    HW127942  10.766  10.854   5.380 -0.6975  1.3468  0.6420
41450SOL    HW227943  10.912  10.815   5.383 -1.1001 -0.5405 -1.5162
41451SOL     OW27944  10.124   0.277   9.331  0.5855 -0.4744  0.1506
41451SOL    HW127945  10.197   0.237   9.377 -0.6269 -3.8139 -0.5085
41451SOL    HW227946  10.049   0.264   9.389  0.2137  1.6797  0.2285
41452SOL     OW27947   1.644   0.682   5.134 -0.0827  0.3110 -0.3560
41452SOL    HW127948   1.722   0.646   5.092 -0.6202 -0.9275 -0.3038
41452SOL    HW227949   1.591   0.606   5.158 -0.5846  1.0559  1.0365
41453SOL     OW27950   0.488   1.336   8.446 -0.1980  0.1039  0.2007
41453SOL    HW127951   0.517   1.413   8.495  1.3162 -1.2249  1.4773
41453SOL    HW227952   0.438   1.284   8.510  0.2892 -0.8091 -0.1522
41454SOL     OW27953   5.696   5.908   1.405 -0.1045  0.0799 -0.2831
41454SOL    HW127954   5.630   5.918   1.336 -0.2963  0.4325 -0.0506
41454SOL    HW227955   5.742   5.992   1.406  0.0617 -0.0121 -0.1481
41455SOL     OW27956   9.943   8.900   8.996  0.3829  0.4349 -0.2398
41455SOL    HW127957   9.968   8.857   9.078  1.1651  0.1191 -0.6369
41455SOL    HW227958   9.850   8.919   9.007 -1.0276 -4.4944 -1.3410
41456SOL     OW27959  10.977   7.095   2.836  0.2834 -0.8509 -0.1590
41456SOL    HW127960  10.992   7.137   2.752 -2.2194  1.7251  0.5545
41456SOL    HW227961  10.888   7.061   2.831 -1.1633  2.1398  2.3824
41457SOL     OW27962   1.001   0.760   8.552  0.3178 -0.2537  0.1037
41457SOL    HW127963   1.012   0.782   8.460 -2.1730  1.0641  0.0347
41457SOL    HW227964   0.985   0.844   8.595 -1.5954 -1.1043  1.1768
41458SOL     OW27965   1.243   1.374   2.340  0.0401  0.1880 -0.0121
41458SOL    HW127966   1.318   1.355   2.397 -0.6412  0.3446  0.9538
41458SOL    HW227967   1.247   1.306   2.272  0.9128  0.0460  0.1698
41459SOL     OW27968   7.682   2.606   5.394 -0.3392 -0.1833  0.2934
41459SOL    HW127969   7.740   2.661   5.446 -0.2695 -0.2117  0.2457
41459SOL    HW227970   7.630   2.559   5.459 -0.5890  0.1406  0.3296
41460SOL     OW27971   4.045   8.697   6.307 -0.4339 -0.1606  0.5292
41460SOL    HW127972   3.955   8.729   6.317 -0.7721 -0.9289  0.0396
41460SOL    HW227973   4.081   8.748   6.235 -0.7998 -0.5197  0.0905
41461SOL     OW27974   8.893  10.483   9.360  0.4796 -0.0059  0.3581
41461SOL    HW127975   8.909  10.406   9.414 -1.0925  0.2323  1.2238
41461SOL    HW227976   8.850  10.449   9.281  1.7235 -0.2209 -0.2582
41462SOL     OW27977   0.142   3.139   6.836 -0.2690  0.2139  0.1858
41462SOL    HW127978   0.106   3.175   6.917 -0.0148 -0.7133  0.7166
41462SOL    HW227979   0.230   3.111   6.858 -0.3581 -0.4732 -0.2853
41463SOL     OW27980   5.670   3.933   8.216  0.2126 -0.0464 -0.5402
41463SOL    HW127981   5.739   3.871   8.193 -0.1435 -0.4483 -0.5283
41463SOL    HW227982   5.689   4.011   8.163  1.6180  0.4724  0.6342
41464SOL     OW27983   6.286  10.530  10.982  0.3854 -0.4559 -0.2494
41464SOL    HW127984   6.225  10.597  11.014 -1.3156 -0.4340 -3.1466
41464SOL    HW227985   6.367  10.576  10.965 -0.1726  0.4913 -0.3993
41465SOL     OW27986   0.913   8.808   9.658  0.1816 -0.4273  0.2608
41465SOL    HW127987   0.944   8.765   9.738  0.0465  0.5604  0.8568
41465SOL    HW227988   0.818   8.800   9.663  0.0369  1.4067  1.2541
41466SOL     OW27989   6.353   8.554   5.586  0.6046 -0.4003 -0.5774
41466SOL    HW127990   6.283   8.494   5.611 -0.1559  0.9663  0.7754
41466SOL    HW227991   6.384   8.590   5.669  1.9973  0.0362 -1.2616
41467SOL     OW27992   9.653   7.071   8.736  0.1717 -0.2968 -0.2092
41467SOL    HW127993   9.659   7.101   8.827 -1.5664  0.7060 -0.3734
41467SOL    HW227994   9.743   7.070   8.704  0.7025  0.3460  1.2023
41468SOL     OW27995   0.669   3.009   6.142 -0.3417 -0.4249 -0.5274
41468SOL    HW127996   0.629   2.973   6.222 -1.1680 -2.2487 -1.6892
41468SOL    HW227997   0.762   3.016   6.163 -0.5559 -0.7881  0.6403
41469SOL     OW27998   7.779   6.551   9.046 -0.0460  0.3314 -0.4978
41469SOL    HW127999   7.815   6.477   9.094 -1.2052 -0.1636 -0.3557
41469SOL    HW228000   7.736   6.604   9.112  0.6984  1.0949 -0.6137
41470SOL     OW28001   1.363  10.296   0.849  0.6572  0.0554 -0.5027
41470SOL    HW128002   1.273  10.277   0.824  0.1063  0.3503  1.1120
41470SOL    HW228003   1.366  10.392   0.854  0.3727  0.0091  1.6083
41471SOL     OW28004   4.811   5.263   4.778 -0.0677  0.2073  0.0450
41471SOL    HW128005   4.891   5.235   4.821 -0.1941  0.3767  0.3980
41471SOL    HW228006   4.797   5.200   4.708 -0.5390 -0.8209  1.0314
41472SOL     OW28007   1.380   0.035   4.381  0.0611  0.7191  0.4732
41472SOL    HW128008   1.455  -0.015   4.412  0.4795  0.4500 -0.9198
41472SOL    HW228009   1.326   0.047   4.459  0.4274 -1.0623  1.0609
41473SOL     OW28010   1.687   5.079   6.368 -0.0644  0.3915 -0.2407
41473SOL    HW128011   1.651   5.032   6.293 -1.2746 -1.2585  1.3116
41473SOL    HW228012   1.616   5.134   6.398  0.8161  2.0234 -1.0011
41474SOL     OW28013   5.248   7.679  11.077  0.3463 -0.0629 -0.0772
41474SOL    HW128014   5.276   7.627  11.152  1.3658 -0.2905 -0.5967
41474SOL    HW228015   5.323   7.735  11.057 -0.5502  1.3061  0.1755
41475SOL     OW28016   2.309   7.037   5.372 -0.4134  0.7070 -0.3274
41475SOL    HW128017   2.351   7.040   5.457  0.4748 -0.0666 -0.7145
41475SOL    HW228018   2.333   7.120   5.330 -1.9081  1.6675  0.6195
41476SOL     OW28019   8.564   7.951   5.343 -0.5090  0.5283 -0.4979
41476SOL    HW128020   8.512   8.026   5.373 -0.3087  0.3523  0.3116
41476SOL    HW228021   8.499   7.882   5.328 -0.6862  0.8322 -1.1688
41477SOL     OW28022   2.913   5.446  10.777 -0.2826 -0.3381  0.4989
41477SOL    HW128023   2.920   5.502  10.700 -1.2061 -1.0394 -0.1124
41477SOL    HW228024   2.839   5.389  10.758 -1.3309  0.2906  2.4225
41478SOL     OW28025   0.153   5.306   5.757 -0.2479  0.3672 -0.2567
41478SOL    HW128026   0.249   5.307   5.759 -0.1668 -2.1756  0.5665
41478SOL    HW228027   0.130   5.217   5.731 -2.3851  0.7809  0.0304
41479SOL     OW28028   4.225   1.119   4.282  0.2184  0.0425 -0.0278
41479SOL    HW128029   4.238   1.166   4.365 -1.6722  0.1152  0.2680
41479SOL    HW228030   4.172   1.043   4.306 -0.5623  0.1978 -1.1977
41480SOL     OW28031   2.393   3.221   5.873 -0.4970  0.6688 -0.3927
41480SOL    HW128032   2.427   3.162   5.806  2.3311  2.5616 -0.7797
41480SOL    HW228033   2.440   3.197   5.953 -3.3879 -1.1502  0.9449
41481SOL     OW28034   4.503   0.930   7.585 -0.0739  0.0975 -0.0117
41481SOL    HW128035   4.408   0.927   7.573 -0.0321 -0.5033 -0.2109
41481SOL    HW228036   4.539   0.891   7.506  0.3353  0.1783  0.1304
41482SOL     OW28037   1.654   8.486   3.815  0.4488  0.2701  0.5457
41482SOL    HW128038   1.734   8.451   3.775  0.6894  1.5507 -0.1388
41482SOL    HW228039   1.654   8.449   3.904  2.3057  0.9644  0.8846
41483SOL     OW28040   8.151   1.403   2.232 -0.3469  0.2550 -0.0633
41483SOL    HW128041   8.152   1.330   2.169 -2.5689  0.6799 -0.6797
41483SOL    HW228042   8.058   1.420   2.247  0.1335  2.0041  1.2233
41484SOL     OW28043   0.032   6.749   4.906 -0.1080  0.1971 -0.2395
41484SOL    HW128044  -0.053   6.786   4.882 -0.0237  0.6355  0.1365
41484SOL    HW228045   0.043   6.770   4.998  0.2485 -0.1786 -0.1904
41485SOL     OW28046   1.232   6.164   1.695 -0.3891 -0.1245 -0.2080
41485SOL    HW128047   1.239   6.204   1.781  1.7789  2.8340 -1.5847
41485SOL    HW228048   1.312   6.114   1.684 -0.7029 -0.5808 -0.4884
41486SOL     OW28049   2.827   7.463   2.158 -0.3141  0.2488 -0.3749
41486SOL    HW128050   2.832   7.522   2.233 -0.4904 -0.1672 -0.0340
41486SOL    HW228051   2.801   7.519   2.085  0.8037  0.8447 -0.3384
41487SOL     OW28052   2.971   8.486   1.736 -0.1540 -0.8308 -0.9741
41487SOL    HW128053   2.998   8.553   1.799 -2.8075 -0.6152  0.0297
41487SOL    HW228054   2.993   8.403   1.779  0.6847 -0.6568 -1.0509
41488SOL     OW28055   4.821   2.066   9.230  0.0569  0.4997 -0.0417
41488SOL    HW128056   4.781   2.048   9.315 -1.4852  1.1712 -0.5981
41488SOL    HW228057   4.843   1.979   9.195 -2.2783 -0.0430 -0.3323
41489SOL     OW28058   8.975   5.191   0.755 -0.2308  0.3336 -0.2127
41489SOL    HW128059   9.069   5.176   0.748 -0.6385 -1.8757 -2.8104
41489SOL    HW228060   8.959   5.270   0.704  0.1814  0.3659 -0.2912
41490SOL     OW28061   5.099   5.365   2.877  0.5844 -0.2511  1.0114
41490SOL    HW128062   5.166   5.414   2.926  1.5204 -0.1190 -0.3369
41490SOL    HW228063   5.144   5.286   2.848  0.0501 -0.3326  0.3932
41491SOL     OW28064   7.081   6.956   7.865 -0.6900 -0.3281 -0.0081
41491SOL    HW128065   7.057   7.025   7.927 -0.7225  0.2090 -0.6104
41491SOL    HW228066   7.111   7.003   7.787 -0.4342 -0.9958 -0.3186
41492SOL     OW28067   6.262   8.560   1.290 -0.2348 -0.0439  0.1526
41492SOL    HW128068   6.290   8.509   1.365 -0.9584 -1.8388 -0.7508
41492SOL    HW228069   6.343   8.591   1.250  0.2151 -0.4297  0.7494
41493SOL     OW28070   0.888   1.992   4.236 -0.0127  0.2669  0.2632
41493SOL    HW128071   0.957   2.027   4.179  0.4747  0.0723  0.7243
41493SOL    HW228072   0.846   1.924   4.184 -1.0705  1.5910 -0.7122
41494SOL     OW28073   0.239   0.287   0.529 -0.0055  0.1781  0.1920
41494SOL    HW128074   0.157   0.293   0.578  1.0178  3.4338  1.8032
41494SOL    HW228075   0.289   0.219   0.576 -0.3322  0.9197  1.6836
41495SOL     OW28076   8.650   4.016   6.337 -0.0570  0.0616  0.3761
41495SOL    HW128077   8.579   4.050   6.282  1.1289 -0.6482 -1.7468
41495SOL    HW228078   8.606   3.969   6.407 -1.6802  0.6600 -0.2021
41496SOL     OW28079   5.792   1.024   9.775  0.2333  0.1974  0.3451
41496SOL    HW128080   5.818   1.089   9.710 -0.9475  0.1246 -0.2151
41496SOL    HW228081   5.724   0.972   9.732 -1.2044  0.6866  1.9065
41497SOL     OW28082   8.044   9.687   8.895  1.0727 -0.0835 -0.0500
41497SOL    HW128083   8.095   9.758   8.857  0.4078  0.4836  0.1037
41497SOL    HW228084   7.980   9.664   8.827  0.1653  0.6361  0.5394
41498SOL     OW28085   8.699   3.624  10.529  0.6672  0.1766 -0.5339
41498SOL    HW128086   8.677   3.717  10.532  0.0420  0.1192 -2.1190
41498SOL    HW228087   8.733   3.604  10.616 -1.5330  1.3017  0.6658
41499SOL     OW28088   4.619   9.800   0.484 -0.0782 -0.6265 -0.4397
41499SOL    HW128089   4.612   9.755   0.567  0.1551  1.2217  0.6424
41499SOL    HW228090   4.704   9.844   0.488  0.5979 -1.6577 -2.2846
41500SOL     OW28091   4.607   2.677   3.809  0.4730 -0.1746  0.3421
41500SOL    HW128092   4.586   2.714   3.723 -2.3182 -1.5876  0.3316
41500SOL    HW228093   4.573   2.741   3.872 -1.6446 -1.1931  0.3190
41501SOL     OW28094   3.154   1.656  10.457  0.2759 -0.1495  0.3486
41501SOL    HW128095   3.075   1.624  10.413  2.1484 -2.6649 -1.4443
41501SOL    HW228096   3.186   1.581  10.506  1.2239  1.0374  1.6077
41502SOL     OW28097   1.696   3.969  10.185 -0.3267  0.3514  0.0198
41502SOL    HW128098   1.628   3.982  10.251 -1.0580  1.7186 -0.9539
41502SOL    HW228099   1.664   3.896  10.132 -0.4554  0.2272  0.2656
41503SOL     OW28100   9.251   6.020  10.661 -0.7757 -0.0673  0.8467
41503SOL    HW128101   9.279   5.983  10.745  1.0824  0.3486  0.4547
41503SOL    HW228102   9.259   6.114  10.674  0.5665 -0.0249 -0.0977
41504SOL     OW28103   8.758   7.300   6.579 -0.2137  0.4030  0.1578
41504SOL    HW128104   8.670   7.327   6.603 -0.6774 -2.1969  1.6897
41504SOL    HW228105   8.746   7.243   6.503  0.4839  2.2754 -1.4246
41505SOL     OW28106  10.464   1.675  10.288  0.1258 -0.1174 -0.1487
41505SOL    HW128107  10.452   1.613  10.216  1.7193 -0.4517 -0.1705
41505SOL    HW228108  10.558   1.672  10.306 -0.1321  0.5192  1.4525
41506SOL     OW28109   3.360   2.220   9.415 -0.0052 -0.5599 -0.3942
41506SOL    HW128110   3.271   2.200   9.388 -0.0928 -1.0568  0.2554
41506SOL    HW228111   3.351   2.278   9.490  0.2054 -1.3249  0.2289
41507SOL     OW28112   2.985   6.070   3.499  0.0069  0.4837 -0.1828
41507SOL    HW128113   3.038   6.031   3.429 -1.9412  0.5937 -1.7893
41507SOL    HW228114   2.951   6.151   3.462  0.5628  1.6362  1.6575
41508SOL     OW28115   3.365   7.386   3.655  0.4347  0.1545  0.2454
41508SOL    HW128116   3.433   7.387   3.722 -0.0870 -1.1512  0.8222
41508SOL    HW228117   3.377   7.303   3.609 -0.8893 -0.2128  0.5047
41509SOL     OW28118   0.655   3.824   7.717  0.1276  0.0672 -0.0317
41509SOL    HW128119   0.659   3.914   7.686 -2.3678  0.0891 -0.4844
41509SOL    HW228120   0.651   3.771   7.637 -1.4157 -0.1968  0.1783
41510SOL     OW28121   0.057  10.635   2.974  0.0968  0.0504  0.5016
41510SOL    HW128122   0.036  10.699   2.906  2.5072  2.2978  1.6635
41510SOL    HW228123   0.041  10.680   3.056 -2.5584 -2.5325  1.5862
41511SOL     OW28124   4.465   2.894   7.135 -0.1670 -1.0470 -0.5969
41511SOL    HW128125   4.423   2.810   7.154 -0.4458 -0.5392  1.2445
41511SOL    HW228126   4.460   2.942   7.218 -2.0856  1.7051 -2.1640
41512SOL     OW28127   1.300   7.566  10.368 -0.2381 -0.4143 -0.3147
41512SOL    HW128128   1.206   7.580  10.382  0.1813  0.8658  1.5734
41512SOL    HW228129   1.334   7.653  10.346  0.7117 -0.5459  0.5575
41513SOL     OW28130   0.566  11.032   7.165  0.4639  0.5254 -0.0157
41513SOL    HW128131   0.600  11.103   7.219 -0.6129  2.5100 -1.7914
41513SOL    HW228132   0.623  11.031   7.088 -1.8266  2.3208 -1.9133
41514SOL     OW28133   4.972   0.724  11.059 -0.5781 -0.7060  0.0561
41514SOL    HW128134   4.919   0.751  11.134  2.1507  0.8046  1.6007
41514SOL    HW228135   4.991   0.805  11.013  0.6077 -1.1718 -0.2914
41515SOL     OW28136  10.374   5.118   8.968 -0.7132  0.2752 -0.2121
41515SOL    HW128137  10.432   5.147   8.897  0.1573  0.3523  0.5187
41515SOL    HW228138  10.362   5.195   9.022  0.6700 -0.3725  1.0979
41516SOL     OW28139   8.983   3.223   9.325 -0.0934 -0.4968 -0.3087
41516SOL    HW128140   9.026   3.142   9.297 -1.6402 -1.0129 -1.3502
41516SOL    HW228141   9.028   3.292   9.275  1.8585 -0.5388  1.2783
41517SOL     OW28142  10.142  10.924   5.935  0.1519  0.0090 -0.6366
41517SOL    HW128143  10.109  10.842   5.901  1.0499 -0.2868 -0.8120
41517SOL    HW228144  10.154  10.980   5.858  1.0575 -0.2515 -0.6915
41518SOL     OW28145   9.659   3.304  11.095 -0.1140 -0.3261  0.1021
41518SOL    HW128146   9.715   3.293  11.173 -0.3215 -0.0004  0.3000
41518SOL    HW228147   9.677   3.393  11.065 -0.1128 -0.4158 -0.1623
41519SOL     OW28148   3.931   4.408  10.563  0.2434  0.0354 -0.2330
41519SOL    HW128149   3.911   4.407  10.656  0.0804  0.5334 -0.2588
41519SOL    HW228150   4.024   4.390  10.558  0.0744 -0.9785 -0.0347
41520SOL     OW28151   7.238   3.118   7.531 -0.0429 -0.2905 -0.7824
41520SOL    HW128152   7.274   3.122   7.443 -1.9533  1.0138 -1.5728
41520SOL    HW228153   7.245   3.208   7.564  2.1310 -1.0459  1.1005
41521SOL     OW28154   9.887   4.129   1.735  0.1103 -0.0173  0.1020
41521SOL    HW128155   9.859   4.209   1.780 -0.4500 -0.0774 -0.1244
41521SOL    HW228156   9.857   4.141   1.645 -1.1799 -1.0462  0.3564
41522SOL     OW28157   8.540   6.176   3.801  0.0194  0.4968  0.1726
41522SOL    HW128158   8.484   6.103   3.774  0.3263  0.5395 -0.6052
41522SOL    HW228159   8.592   6.197   3.723  0.6557  0.8848  0.6887
41523SOL     OW28160   2.959   7.126  10.984  0.0425 -0.2466  1.1427
41523SOL    HW128161   2.864   7.118  10.968 -0.1849  0.2230  2.1840
41523SOL    HW228162   2.973   7.076  11.064  0.2410  1.7101  2.3759
41524SOL     OW28163   8.144   8.089   2.606 -0.2236  0.2932  0.5922
41524SOL    HW128164   8.069   8.146   2.621 -0.7842 -0.9207  2.9790
41524SOL    HW228165   8.187   8.084   2.692  0.7638 -1.5238  0.0462
41525SOL     OW28166   5.158   5.580   8.952 -0.4946  0.0381  0.4050
41525SOL    HW128167   5.141   5.533   9.034  1.5068  0.0724  0.9052
41525SOL    HW228168   5.190   5.512   8.892 -0.9238  0.1893  0.0036
41526SOL     OW28169   7.932  10.033  10.982  0.0761  0.7670  0.0101
41526SOL    HW128170   7.981   9.999  11.057  0.2685  1.3911  0.1791
41526SOL    HW228171   7.852  10.069  11.020 -0.9071 -0.9400 -0.3515
41527SOL     OW28172   7.866   7.758   2.308 -0.4463  0.0398 -0.1923
41527SOL    HW128173   7.899   7.823   2.369 -0.2737 -1.6692  1.6302
41527SOL    HW228174   7.933   7.690   2.306 -1.7728 -1.3369  0.0723
41528SOL     OW28175   1.923   2.279   6.389 -0.0820  0.4559  0.1986
41528SOL    HW128176   1.959   2.205   6.340 -0.3281  1.6874 -1.9577
41528SOL    HW228177   1.996   2.308   6.444  1.0528  0.5594 -1.3016
41529SOL     OW28178   5.348   1.050   5.572 -0.1124 -0.0195 -0.4050
41529SOL    HW128179   5.342   0.967   5.525 -0.8812  0.5193 -1.3046
41529SOL    HW228180   5.422   1.040   5.632 -1.1180 -1.8912  0.5918
41530SOL     OW28181   0.756   8.136   8.285 -0.0723 -0.7993  0.4974
41530SOL    HW128182   0.745   8.230   8.269 -1.6399 -1.1844 -1.0227
41530SOL    HW228183   0.752   8.127   8.380 -1.1115  0.5542  0.6108
41531SOL     OW28184   5.317   9.306   3.323 -0.6157  0.2710 -0.2651
41531SOL    HW128185   5.273   9.325   3.240 -0.5668  1.5076 -0.0264
41531SOL    HW228186   5.247   9.283   3.383 -0.6442 -0.7173 -0.6632
41532SOL     OW28187   6.205  11.050   4.708 -0.0625  0.2622  0.1496
41532SOL    HW128188   6.281  11.103   4.684 -0.5313  0.0074 -2.0841
41532SOL    HW228189   6.135  11.081   4.651 -0.7449 -1.7290 -0.1894
41533SOL     OW28190   8.039   1.716   2.455  0.2553 -0.0700  0.2887
41533SOL    HW128191   8.105   1.654   2.485 -0.6578 -0.6017  1.3090
41533SOL    HW228192   8.014   1.765   2.534 -1.3281 -0.6291  0.1792
41534SOL     OW28193   3.870   9.796  10.359  0.0453  0.6874  1.0488
41534SOL    HW128194   3.801   9.789  10.425 -0.9655  1.1972  0.0872
41534SOL    HW228195   3.836   9.860  10.296  0.7885 -0.0991 -0.1915
41535SOL     OW28196   1.220   7.431   8.797  0.4165 -0.1206  0.2804
41535SOL    HW128197   1.139   7.419   8.747 -0.0149 -2.0231  1.3225
41535SOL    HW228198   1.275   7.357   8.773  1.4027  0.5339  0.4476
41536SOL     OW28199   9.875   0.976   2.930 -0.0164 -0.1684  0.2831
41536SOL    HW128200   9.961   0.935   2.925 -0.2181 -0.4729 -0.9854
41536SOL    HW228201   9.822   0.930   2.864 -0.6910  1.0855 -0.0900
41537SOL     OW28202   7.995   9.435   4.097 -0.2651  0.2637 -0.5478
41537SOL    HW128203   7.994   9.368   4.029  1.3073 -0.5234  0.1456
41537SOL    HW228204   8.037   9.392   4.172  0.8723  2.0299 -0.1083
41538SOL     OW28205   4.033   5.645   6.612  0.0057 -0.1093  0.1524
41538SOL    HW128206   3.938   5.649   6.608 -0.0104  0.1969  0.6557
41538SOL    HW228207   4.058   5.587   6.540 -0.3520  2.1857 -1.9347
41539SOL     OW28208   1.495   7.157   7.087  0.3217  0.0671  0.1414
41539SOL    HW128209   1.419   7.168   7.030  1.8816  1.5596 -1.7923
41539SOL    HW228210   1.464   7.181   7.174 -1.3593  0.8802 -0.6396
41540SOL     OW28211   3.205   9.208   0.421 -0.6824 -0.3997 -0.1094
41540SOL    HW128212   3.196   9.288   0.368  1.2715 -0.0586  0.0278
41540SOL    HW228213   3.130   9.212   0.482 -1.0680  0.9180 -0.6283
41541SOL     OW28214   2.137   4.713   4.576  0.7692  0.0608  0.5461
41541SOL    HW128215   2.120   4.623   4.548  1.7169  0.0487 -0.0372
41541SOL    HW228216   2.105   4.767   4.504  0.0075  0.2114  0.9878
41542SOL     OW28217   1.013   0.436   8.320 -0.4467 -0.1074  0.1516
41542SOL    HW128218   0.995   0.423   8.227  0.1695 -1.8575  0.2552
41542SOL    HW228219   1.085   0.499   8.322 -1.1641  0.7670 -0.4992
41543SOL     OW28220   4.269   9.771   5.535  0.2994 -0.5692 -0.2274
41543SOL    HW128221   4.315   9.687   5.541  1.0149 -0.0967  1.4737
41543SOL    HW228222   4.339   9.836   5.528  0.1445  0.2968  3.8533
41544SOL     OW28223  10.953   5.486   9.499 -0.0151  0.0729 -0.2426
41544SOL    HW128224  10.901   5.566   9.493  0.9691  1.1237  3.0525
41544SOL    HW228225  11.041   5.515   9.519  0.5062 -1.8238  0.4694
41545SOL     OW28226   7.644   5.031   6.987  0.1988 -0.0478 -0.3102
41545SOL    HW128227   7.605   5.055   6.903  2.6985  0.8226 -1.3175
41545SOL    HW228228   7.641   4.936   6.989 -1.9815 -0.0393 -0.2439
41546SOL     OW28229   0.603   2.576   4.221 -0.4585 -0.0430  0.2157
41546SOL    HW128230   0.626   2.497   4.269 -0.3702 -0.2896 -0.2318
41546SOL    HW228231   0.612   2.552   4.129  1.9307  1.1619  0.0562
41547SOL     OW28232  10.813   6.065   4.971  0.3467  0.3605 -0.0387
41547SOL    HW128233  10.875   6.101   4.908  0.7418  1.0966  0.7543
41547SOL    HW228234  10.730   6.107   4.950  0.6220  1.1104  0.3437
41548SOL     OW28235   9.364   5.623   9.784  0.4583 -0.3293  0.0105
41548SOL    HW128236   9.400   5.694   9.837 -2.9414  1.9594 -0.4008
41548SOL    HW228237   9.274   5.612   9.816 -0.1162 -2.3119 -2.0263
41549SOL     OW28238   6.903   5.481   0.553  0.0449  0.5242  0.2353
41549SOL    HW128239   6.936   5.393   0.571  0.3993  0.5873 -0.1026
41549SOL    HW228240   6.847   5.501   0.628 -2.3421 -1.1274 -0.9670
41550SOL     OW28241   6.405   9.573   5.053  0.3626 -0.6918 -0.0232
41550SOL    HW128242   6.408   9.482   5.023  0.1062 -0.9801  0.8028
41550SOL    HW228243   6.312   9.590   5.068  0.4290 -0.3489  0.0095
41551SOL     OW28244   7.357   3.823   1.584  0.6895  0.0113 -0.0811
41551SOL    HW128245   7.338   3.771   1.662  0.1459  1.0007  0.4717
41551SOL    HW228246   7.432   3.780   1.544  0.4717 -0.9850  0.5469
41552SOL     OW28247   0.387   1.442   3.879  0.3566 -0.5301  0.3429
41552SOL    HW128248   0.398   1.352   3.846  1.0050 -0.7430  1.0953
41552SOL    HW228249   0.409   1.436   3.972  0.4769  0.4245  0.3855
41553SOL     OW28250   9.695   8.455   0.262 -0.0897 -0.4474 -0.2185
41553SOL    HW128251   9.651   8.447   0.346  0.8493  3.7688  0.9127
41553SOL    HW228252   9.625   8.448   0.197 -0.9549 -2.8054  0.8768
41554SOL     OW28253   7.036   6.357   4.162 -0.3617 -0.0987 -0.0480
41554SOL    HW128254   7.119   6.310   4.164  2.0505  3.6661  1.7628
41554SOL    HW228255   7.033   6.398   4.076 -0.6553 -0.6815 -0.3189
41555SOL     OW28256   9.976   4.680   8.707  0.0116  0.5278 -0.0413
41555SOL    HW128257  10.017   4.618   8.768  0.6994  0.1442 -0.8765
41555SOL    HW228258   9.887   4.646   8.694  0.0980  0.2106  0.1868
41556SOL     OW28259   4.872   8.278  10.982  0.2432  0.0944 -0.2893
41556SOL    HW128260   4.810   8.253  10.914  0.3814  1.2179 -0.8652
41556SOL    HW228261   4.931   8.204  10.991 -0.8857 -0.8016 -0.0673
41557SOL     OW28262  10.881   9.100   7.718  0.7569 -0.3089 -0.1392
41557SOL    HW128263  10.872   9.038   7.790  0.6715 -0.0919  0.0388
41557SOL    HW228264  10.956   9.155   7.742  0.6818 -0.1879 -0.1796
41558SOL     OW28265   9.857   6.398  10.963  0.9763 -0.7511 -0.5657
41558SOL    HW128266   9.805   6.333  10.914 -0.9563  0.4278 -0.1680
41558SOL    HW228267   9.807   6.413  11.043  3.7657 -2.1771  1.6229
41559SOL     OW28268   9.198   1.685   5.726  0.7593 -0.0717 -0.1825
41559SOL    HW128269   9.128   1.648   5.673  0.5399 -1.7094  1.1763
41559SOL    HW228270   9.248   1.740   5.665 -1.4981  0.9210 -1.2481
41560SOL     OW28271   1.698   1.148   5.634 -0.1287 -0.2742 -0.2374
41560SOL    HW128272   1.777   1.099   5.662 -0.2776 -1.2951 -1.5091
41560SOL    HW228273   1.732   1.222   5.584  0.0317 -0.7808 -0.8870
41561SOL     OW28274   6.058   8.472   4.948  0.5713  0.4867 -0.5312
41561SOL    HW128275   6.104   8.550   4.979  0.3498  0.9127 -1.2554
41561SOL    HW228276   6.079   8.467   4.855  0.9233 -0.5614 -0.4120
41562SOL     OW28277   4.982   5.555   3.479  0.1513  0.3322 -0.2474
41562SOL    HW128278   5.047   5.555   3.550  0.6166  1.1088 -0.6552
41562SOL    HW228279   4.948   5.466   3.478  0.1117  0.3120  0.9736
41563SOL     OW28280   6.723   1.634   0.470 -0.2369  0.2868 -0.0613
41563SOL    HW128281   6.760   1.579   0.539  0.5722  3.4010  2.1976
41563SOL    HW228282   6.633   1.603   0.460 -0.2003 -0.6218  1.9818
41564SOL     OW28283  10.898  10.185   6.369 -0.0469 -0.0363 -0.2949
41564SOL    HW128284  10.924  10.121   6.302 -0.4726  0.7597 -1.2448
41564SOL    HW228285  10.840  10.136   6.427  1.0205 -0.9739  0.0265
41565SOL     OW28286   4.634   8.973   7.335 -0.0132 -0.5703 -0.8726
41565SOL    HW128287   4.616   8.881   7.316 -1.0017 -1.4807  3.4326
41565SOL    HW228288   4.548   9.013   7.347  0.3898 -0.1612  1.0877
41566SOL     OW28289   2.631   6.577   0.649 -0.4139  0.5593 -0.1202
41566SOL    HW128290   2.617   6.523   0.727 -0.3987  1.9505  0.8805
41566SOL    HW228291   2.713   6.544   0.612 -0.5871 -0.3364  0.2658
41567SOL     OW28292   4.218   0.723   1.548  0.1817  0.0461 -0.4795
41567SOL    HW128293   4.212   0.708   1.454 -0.5928 -1.6878 -0.1921
41567SOL    HW228294   4.258   0.810   1.556 -1.5327  1.1016 -2.4048
41568SOL     OW28295  10.803   8.199   8.468 -0.2645 -0.0236 -0.0915
41568SOL    HW128296  10.738   8.182   8.536 -0.9342  0.6706 -0.5343
41568SOL    HW228297  10.852   8.275   8.500 -1.6907  1.3942 -1.0955
41569SOL     OW28298   0.083   1.549   3.798 -0.2443  0.3841 -0.7161
41569SOL    HW128299   0.102   1.606   3.873  0.7729  0.5151 -1.0638
41569SOL    HW228300   0.081   1.608   3.723 -1.9859  0.3596 -0.7213
41570SOL     OW28301   9.205   8.386   9.184 -0.1803  0.4120  0.1986
41570SOL    HW128302   9.162   8.403   9.269 -1.1905  1.5877 -0.5098
41570SOL    HW228303   9.273   8.322   9.204  0.0321  1.1439  2.0235
41571SOL     OW28304  10.550   1.004  10.396 -0.2174 -0.5390 -0.1895
41571SOL    HW128305  10.580   1.042  10.314  0.2749  0.5790  0.4787
41571SOL    HW228306  10.540   0.911  10.377 -0.6437 -0.2156 -1.6487
41572SOL     OW28307   7.930   7.628   1.628 -0.2522  0.6823 -0.1223
41572SOL    HW128308   7.853   7.637   1.684 -0.3297 -0.2532 -0.0622
41572SOL    HW228309   7.946   7.534   1.624  0.5729  0.8323 -0.5693
41573SOL     OW28310   6.987   6.576  10.598 -0.1543  0.6788  0.1365
41573SOL    HW128311   6.950   6.638  10.534  1.6987  2.6021  0.8212
41573SOL    HW228312   6.918   6.565  10.663 -0.6936  1.6438 -0.2514
41574SOL     OW28313   7.046   8.809   1.507 -0.1954  0.0560 -0.0843
41574SOL    HW128314   7.054   8.902   1.485 -0.1188  0.1615  0.3807
41574SOL    HW228315   6.955   8.798   1.534  0.0970  0.2528  1.0133
41575SOL     OW28316   6.590   3.457   9.058 -0.4549 -0.3031 -0.4951
41575SOL    HW128317   6.641   3.487   9.133 -0.3251 -0.7380 -0.4093
41575SOL    HW228318   6.587   3.533   8.999  0.5031 -0.3551 -0.6161
41576SOL     OW28319   7.533   3.558   3.664 -0.4862 -0.2012  0.0212
41576SOL    HW128320   7.586   3.554   3.584 -1.0281 -2.3772 -0.2928
41576SOL    HW228321   7.596   3.542   3.734 -0.3832 -0.6559 -0.1723
41577SOL     OW28322   2.091   6.073   9.446 -0.5973  0.2191  0.4254
41577SOL    HW128323   2.157   6.050   9.381  0.6479  2.7057  0.6763
41577SOL    HW228324   2.008   6.058   9.402  0.1914  0.0497 -1.0768
41578SOL     OW28325   2.846   3.267   8.800  0.2668 -0.1008 -0.3232
41578SOL    HW128326   2.867   3.359   8.818  1.7197 -0.7096  1.4004
41578SOL    HW228327   2.852   3.224   8.886  1.0665 -2.0802 -1.3180
41579SOL     OW28328   6.970   0.602   2.426 -0.6093 -0.7664 -0.3950
41579SOL    HW128329   6.959   0.544   2.501  0.1961 -0.4865 -0.0449
41579SOL    HW228330   6.957   0.690   2.461  1.2067 -0.5210 -0.2416
41580SOL     OW28331   7.708  10.851   8.084  0.1619 -0.2002 -0.0653
41580SOL    HW128332   7.720  10.848   8.179 -0.2005  0.5925  0.0090
41580SOL    HW228333   7.756  10.929   8.055 -1.6944  0.9390 -0.2167
41581SOL     OW28334   8.568   0.116   7.356  0.2662 -0.2236 -0.8004
41581SOL    HW128335   8.652   0.155   7.331  1.8148 -2.2125  0.9422
41581SOL    HW228336   8.525   0.184   7.407  1.1747  0.5518 -1.0300
41582SOL     OW28337   8.474  10.027   0.926 -0.4148 -0.2186  0.2641
41582SOL    HW128338   8.510  10.114   0.946  3.1647 -1.0032 -1.8769
41582SOL    HW228339   8.469  10.025   0.830  1.5994 -2.9744  0.0945
41583SOL     OW28340   1.598   5.163  10.869 -0.2727  0.3454  0.1962
41583SOL    HW128341   1.657   5.088  10.870 -1.2392 -0.4318  0.6430
41583SOL    HW228342   1.607   5.202  10.956  2.3477  2.5181 -0.8938
41584SOL     OW28343   1.182   0.045   9.201 -0.1698 -0.4634 -0.2087
41584SOL    HW128344   1.256   0.089   9.242 -0.7499  0.0100  0.3471
41584SOL    HW228345   1.106   0.074   9.251 -1.1319  1.3745 -2.5506
41585SOL     OW28346   6.709   3.363   8.153  0.1439 -0.6480 -0.3117
41585SOL    HW128347   6.792   3.409   8.169  0.3116 -1.9091  3.0823
41585SOL    HW228348   6.648   3.433   8.129  1.1031  0.9653  1.6358
41586SOL     OW28349   5.659   8.727   7.742 -0.2404 -0.8776 -0.3717
41586SOL    HW128350   5.688   8.690   7.826  1.2726  1.5337  0.2611
41586SOL    HW228351   5.740   8.740   7.692 -0.7361  1.1047 -0.7108
41587SOL     OW28352   1.518   3.885   8.321  0.3735  0.2412 -0.7118
41587SOL    HW128353   1.549   3.974   8.339  0.0970 -0.0554  1.4381
41587SOL    HW228354   1.427   3.896   8.293 -0.2761  0.5652  1.3586
41588SOL     OW28355   0.303   4.886   0.444 -0.5823  0.3390 -0.1246
41588SOL    HW128356   0.318   4.972   0.483  0.1559 -0.3183  1.1482
41588SOL    HW228357   0.375   4.875   0.382  2.0068 -1.0095  2.7925
41589SOL     OW28358   8.242  10.978   0.141 -0.5447 -0.1761 -0.1604
41589SOL    HW128359   8.337  10.980   0.145 -0.3279 -3.3104 -1.5392
41589SOL    HW228360   8.216  10.927   0.218 -0.9399 -1.1727 -0.9412
41590SOL     OW28361   2.631   7.830   9.991  0.2724 -0.2485  0.3266
41590SOL    HW128362   2.640   7.907   9.935  0.0479 -0.7151 -0.3638
41590SOL    HW228363   2.681   7.762   9.946 -0.1695 -0.7114  0.5275
41591SOL     OW28364   9.881   8.504   5.234  0.0868  0.9234  0.0621
41591SOL    HW128365   9.788   8.517   5.253 -0.2590 -0.6051 -0.4387
41591SOL    HW228366   9.882   8.461   5.148  1.2177  0.4053  0.3164
41592SOL     OW28367   8.772   1.169   2.574  0.7522 -0.1300 -0.0107
41592SOL    HW128368   8.762   1.228   2.649  1.4745  2.1319 -1.5800
41592SOL    HW228369   8.853   1.198   2.531 -0.5273 -0.1086 -2.6433
41593SOL     OW28370   0.377   6.520   9.743  0.3451  0.2426  0.3475
41593SOL    HW128371   0.456   6.467   9.735  0.8752  0.9119  1.0256
41593SOL    HW228372   0.354   6.515   9.836  1.1783  2.2533  0.7114
41594SOL     OW28373  10.929   4.619  10.268 -0.2859 -0.3902 -0.2457
41594SOL    HW128374  11.017   4.612  10.305 -0.5256 -2.0352  0.0887
41594SOL    HW228375  10.925   4.708  10.234  1.3273 -0.1103  0.1830
41595SOL     OW28376  10.569   5.457   1.346 -0.6216  0.7123  0.0408
41595SOL    HW128377  10.498   5.429   1.287 -1.1188 -1.0341  1.3664
41595SOL    HW228378  10.526   5.511   1.412 -0.6866 -0.0304  0.6251
41596SOL     OW28379   5.262  10.712   2.548 -0.6977 -0.0479 -0.5778
41596SOL    HW128380   5.287  10.725   2.639 -2.9777 -2.0742  0.4684
41596SOL    HW228381   5.258  10.800   2.511 -0.2637  0.8691  1.4303
41597SOL     OW28382   1.300   0.561   6.350 -0.2755 -0.3932 -0.0776
41597SOL    HW128383   1.374   0.532   6.297 -1.5715 -0.6078 -1.8762
41597SOL    HW228384   1.271   0.483   6.397  0.7170 -0.2637  0.7820
41598SOL     OW28385   2.969   1.664   2.604 -0.8201 -0.0525 -0.0860
41598SOL    HW128386   2.922   1.615   2.536  0.4747 -0.8191 -0.4494
41598SOL    HW228387   3.057   1.676   2.569 -0.4744  0.5950  0.9575
41599SOL     OW28388   6.424  10.802   4.656  0.0447 -0.1441  0.3352
41599SOL    HW128389   6.367  10.876   4.676 -0.8638 -1.3222  2.3031
41599SOL    HW228390   6.502  10.816   4.710 -0.0318 -0.5053  0.5414
41600SOL     OW28391   7.961   8.107   3.849 -0.0540  0.1629 -0.1996
41600SOL    HW128392   7.941   8.198   3.829 -2.0107  0.5087  2.6668
41600SOL    HW228393   7.885   8.058   3.815  0.7259 -0.3709 -1.2347
41601SOL     OW28394   5.447   6.766   5.276 -0.0719  0.0648 -0.0787
41601SOL    HW128395   5.537   6.769   5.242 -1.0429 -0.9230 -3.0041
41601SOL    HW228396   5.402   6.837   5.233 -0.7917  0.4676  1.2739
41602SOL     OW28397   0.579   6.989   4.098 -0.0439 -0.6562  0.0361
41602SOL    HW128398   0.506   7.021   4.045 -0.3339 -0.0907  0.7572
41602SOL    HW228399   0.595   7.059   4.162  1.3757 -0.6097 -0.3440
41603SOL     OW28400   7.456   3.268   4.431 -0.5820 -0.1995  0.2116
41603SOL    HW128401   7.533   3.262   4.375 -0.2278  0.6403  0.5914
41603SOL    HW228402   7.437   3.177   4.455  0.4804 -0.3953  0.3781
41604SOL     OW28403  10.141   0.486   4.662 -0.4191 -0.3738  0.4397
41604SOL    HW128404  10.186   0.432   4.727 -2.1712 -0.8116  1.3468
41604SOL    HW228405  10.117   0.426   4.592 -1.9810 -0.7216  1.2443
41605SOL     OW28406   2.885   3.339   1.171 -0.0462  0.3713 -0.4354
41605SOL    HW128407   2.808   3.353   1.227  0.8086 -0.2598  0.9429
41605SOL    HW228408   2.958   3.332   1.232  1.1177  0.8637 -1.7195
41606SOL     OW28409   9.122   9.158   0.507 -0.1845 -0.1231  0.0449
41606SOL    HW128410   9.166   9.112   0.578 -0.5015 -1.4716 -0.6156
41606SOL    HW228411   9.192   9.188   0.449  0.0516  0.6812  0.7220
41607SOL     OW28412   8.675   7.779   9.275 -0.0738  0.0153 -0.5255
41607SOL    HW128413   8.765   7.796   9.248  0.1230 -1.5441 -0.9429
41607SOL    HW228414   8.659   7.688   9.250 -1.2857 -0.1920  0.8659
41608SOL     OW28415   2.120   9.450   6.023  0.3734 -0.6399  0.0629
41608SOL    HW128416   2.211   9.428   6.003  0.8263  0.7003  0.5516
41608SOL    HW228417   2.081   9.473   5.939  0.9737  0.4293  0.0570
41609SOL     OW28418   7.325   1.879   5.974  0.3185 -0.4045  0.5558
41609SOL    HW128419   7.262   1.952   5.975 -0.4933 -1.0941  0.9796
41609SOL    HW228420   7.313   1.836   6.058  0.7240 -1.0900  0.2736
41610SOL     OW28421   0.743   2.492  10.878  0.0780 -0.5715  0.0333
41610SOL    HW128422   0.816   2.463  10.933  0.9620  0.7790 -0.3604
41610SOL    HW228423   0.678   2.524  10.940  1.1052  1.0305  0.3722
41611SOL     OW28424   8.358   9.392   6.750  0.2787  0.3599  0.9757
41611SOL    HW128425   8.365   9.358   6.839 -0.4689 -0.9025  0.5645
41611SOL    HW228426   8.447   9.386   6.715  1.0516  2.7494  2.2464
41612SOL     OW28427   9.063   4.613   8.451 -0.0668 -0.1217  0.4350
41612SOL    HW128428   9.002   4.567   8.393 -1.6816 -0.0427  1.9849
41612SOL    HW228429   9.026   4.701   8.459  1.7558  0.8038 -0.7009
41613SOL     OW28430   9.753   6.897   2.690 -0.4866  0.0665 -0.4676
41613SOL    HW128431   9.812   6.946   2.748  0.6925 -2.1808  0.3545
41613SOL    HW228432   9.673   6.888   2.741 -1.2715  2.2328 -1.1807
41614SOL     OW28433   8.126   3.891   7.087  0.7097  0.2590  0.1294
41614SOL    HW128434   8.117   3.886   7.182 -0.9822 -0.1116 -0.0236
41614SOL    HW228435   8.119   3.985   7.067  0.9604  0.3266  0.3583
41615SOL     OW28436   6.325   7.601   7.517 -0.0424 -0.3743 -0.5907
41615SOL    HW128437   6.302   7.510   7.538  0.8064 -0.8311 -1.5417
41615SOL    HW228438   6.356   7.597   7.427  1.2724  0.6253 -0.2126
41616SOL     OW28439   7.196   8.125   4.042 -0.4457 -0.0176  0.0742
41616SOL    HW128440   7.155   8.083   4.117  2.0093  0.6665  1.9465
41616SOL    HW228441   7.253   8.058   4.005  1.3402  0.7101  1.3440
41617SOL     OW28442   9.413   7.105   2.214  0.0079 -0.6000  0.3216
41617SOL    HW128443   9.350   7.172   2.240 -0.1060 -0.3929 -0.4688
41617SOL    HW228444   9.372   7.022   2.239  0.8411 -0.3436  2.8035
41618SOL     OW28445   6.549   0.127   1.885 -0.0726 -0.6383  0.0305
41618SOL    HW128446   6.616   0.077   1.839 -0.6635 -1.9134  0.5229
41618SOL    HW228447   6.598   0.181   1.948  0.5404 -0.9147 -0.2069
41619SOL     OW28448   3.362  10.719   5.357  0.5689 -0.1770 -0.5884
41619SOL    HW128449   3.303  10.750   5.287  1.4622  0.5419 -1.0488
41619SOL    HW228450   3.371  10.625   5.340 -1.5575 -0.5999  0.3511
41620SOL     OW28451  10.754   3.311   3.682  0.5406  0.5829  0.3907
41620SOL    HW128452  10.744   3.244   3.749  0.2593  0.6313  0.4012
41620SOL    HW228453  10.743   3.394   3.728 -1.3286  0.5889  0.0441
41621SOL     OW28454   9.156   3.993   4.591 -0.0964  0.3187  0.1541
41621SOL    HW128455   9.120   4.081   4.604  1.2941  0.8588  0.5554
41621SOL    HW228456   9.250   4.004   4.605  0.1435 -1.1680 -0.1739
41622SOL     OW28457   6.695  11.056   0.578 -0.0822 -0.7261 -0.2536
41622SOL    HW128458   6.648  10.985   0.622  1.0754  0.0440  2.4408
41622SOL    HW228459   6.626  11.104   0.531 -1.0305 -2.9323 -1.2389
41623SOL     OW28460   8.366   1.570   6.579  0.0172  0.3416 -0.0672
41623SOL    HW128461   8.437   1.633   6.573  0.7458 -0.4043  0.4017
41623SOL    HW228462   8.399   1.493   6.532 -0.3796 -0.0974  0.3653
41624SOL     OW28463   6.310   2.329   1.551 -0.3079  0.4871 -0.5557
41624SOL    HW128464   6.344   2.243   1.526 -0.8183  0.8363 -2.6694
41624SOL    HW228465   6.302   2.377   1.468 -0.4077  2.4485  0.5128
41625SOL     OW28466   0.964   0.259   0.004 -0.5836  0.0457  0.5830
41625SOL    HW128467   0.990   0.213   0.084 -1.5609 -0.4119  0.6538
41625SOL    HW228468   1.038   0.247  -0.056 -0.2966 -0.5305  1.0437
41626SOL     OW28469   8.124  10.012   7.297 -0.7914 -0.2065  0.4372
41626SOL    HW128470   8.069   9.963   7.236 -1.0705 -0.6430  1.0295
41626SOL    HW228471   8.081  10.097   7.305 -1.6028 -0.6672  1.1734
41627SOL     OW28472  10.438   1.093   7.437  0.3399 -0.1318 -0.2035
41627SOL    HW128473  10.482   1.055   7.360 -2.3027 -1.1074 -1.3506
41627SOL    HW228474  10.452   1.187   7.428 -0.9709 -0.0809 -2.6971
41628SOL     OW28475   1.713   1.208   3.372  0.5817 -0.1131  0.1437
41628SOL    HW128476   1.748   1.257   3.297  0.1643 -0.4299 -0.2654
41628SOL    HW228477   1.777   1.139   3.387  1.4225  0.8139  1.0289
41629SOL     OW28478   6.606  10.575   1.037 -0.3970 -0.0682  0.1360
41629SOL    HW128479   6.641  10.511   0.976 -1.5508  0.6143 -1.2941
41629SOL    HW228480   6.552  10.633   0.984 -0.2911  1.4411  1.5540
41630SOL     OW28481   3.324   9.233   9.632 -0.6417  0.1978 -0.7463
41630SOL    HW128482   3.357   9.168   9.569  0.4211  0.6234 -0.6472
41630SOL    HW228483   3.248   9.191   9.672  0.7430 -1.5243  0.2227
41631SOL     OW28484   5.708   7.516   4.325 -0.6449  0.1436 -0.3285
41631SOL    HW128485   5.775   7.585   4.324 -1.2905  0.8456 -3.0011
41631SOL    HW228486   5.732   7.457   4.253 -1.0413 -1.5251  0.8478
41632SOL     OW28487   0.844   5.171   3.265  0.1021  0.9097  0.0775
41632SOL    HW128488   0.931   5.197   3.295  0.4439 -0.0515 -0.0591
41632SOL    HW228489   0.860   5.130   3.180 -0.4677  0.5529  0.1407
41633SOL     OW28490   8.367  10.434   1.707  0.0987  0.0074  0.3299
41633SOL    HW128491   8.396  10.525   1.707 -1.4870  0.5337  0.8116
41633SOL    HW228492   8.304  10.428   1.778 -1.2566 -0.9747 -0.8836
41634SOL     OW28493   5.356  10.899   8.724  0.0407  0.0313  0.4380
41634SOL    HW128494   5.394  10.965   8.782  0.7417  0.4914 -0.5186
41634SOL    HW228495   5.282  10.863   8.774  0.8410  0.1442  1.7509
41635SOL     OW28496   2.539   6.710  10.104  0.4030 -0.4298 -0.5450
41635SOL    HW128497   2.498   6.777  10.158  0.5690 -1.0144  0.3198
41635SOL    HW228498   2.623   6.748  10.078  0.4514 -0.2574 -0.1456
41636SOL     OW28499   9.334   8.265   9.927  0.5633  0.1230  0.0013
41636SOL    HW128500   9.379   8.259  10.012 -2.8527 -0.8242  1.9188
41636SOL    HW228501   9.241   8.264   9.949 -0.4934 -0.0905 -3.8120
41637SOL     OW28502   2.826   8.146   1.717 -0.2674  0.2232  0.3596
41637SOL    HW128503   2.904   8.172   1.766 -0.1320  1.1588 -0.3278
41637SOL    HW228504   2.804   8.223   1.665 -1.8829  0.1064  0.8266
41638SOL     OW28505   0.365  10.733   4.322 -0.2623 -0.4848 -0.1648
41638SOL    HW128506   0.338  10.798   4.257 -0.2308  0.7412  0.9958
41638SOL    HW228507   0.283  10.692   4.350 -0.4066 -0.2072 -0.1722
41639SOL     OW28508   9.359   2.700   8.488 -0.9447  0.1830  0.1610
41639SOL    HW128509   9.374   2.605   8.495 -1.0152 -0.4255 -4.5396
41639SOL    HW228510   9.275   2.707   8.442 -0.3718  2.4298 -0.6614
41640SOL     OW28511   9.485   5.281   9.564  0.4643 -0.0551 -0.4748
41640SOL    HW128512   9.540   5.289   9.486  0.5372 -0.9171 -0.5296
41640SOL    HW228513   9.428   5.206   9.545 -1.8101  1.7180 -1.0354
41641SOL     OW28514   3.969   2.875   5.431 -0.1792  0.4011  0.2603
41641SOL    HW128515   3.929   2.905   5.512 -0.7286 -0.9493  0.5102
41641SOL    HW228516   4.062   2.864   5.453 -0.2025  0.7010  0.5132
41642SOL     OW28517   6.148   5.492   5.032  0.4277  0.3991  0.6926
41642SOL    HW128518   6.197   5.499   4.950  0.0189 -0.8982  0.3262
41642SOL    HW228519   6.068   5.445   5.010  1.5741 -2.5974  2.2972
41643SOL     OW28520   8.065   0.339   3.876  0.0918 -0.9507 -0.0280
41643SOL    HW128521   8.060   0.264   3.818 -0.6621 -0.8997 -0.0310
41643SOL    HW228522   8.114   0.405   3.827 -0.3901 -0.9691 -0.5391
41644SOL     OW28523   9.904   6.619   1.355 -0.6180 -0.6259 -0.8638
41644SOL    HW128524   9.890   6.707   1.391  0.0748 -0.9766  0.3190
41644SOL    HW228525   9.847   6.615   1.278 -0.7841  0.7952 -0.8377
41645SOL     OW28526   8.288   2.150   5.741 -0.0721 -0.1498 -0.5067
41645SOL    HW128527   8.374   2.116   5.765  0.4038 -0.7328 -2.8194
41645SOL    HW228528   8.291   2.242   5.768  2.0214  0.3582 -2.1719
41646SOL     OW28529  10.421   1.657   6.388 -0.6837  0.1118  0.0743
41646SOL    HW128530  10.430   1.685   6.298  0.3058  0.8192  0.3859
41646SOL    HW228531  10.493   1.699   6.435 -0.8398 -0.6927  1.0897
41647SOL     OW28532   1.853   9.570   6.669 -0.5493  0.4903  0.4136
41647SOL    HW128533   1.851   9.531   6.581  1.3437 -1.6622  1.2188
41647SOL    HW228534   1.763   9.565   6.699 -0.8084 -1.1090 -0.4813
41648SOL     OW28535   2.895   6.788   6.516  0.2196  0.8287 -0.3856
41648SOL    HW128536   2.899   6.720   6.583  0.1529 -0.1761 -1.3622
41648SOL    HW228537   2.908   6.870   6.563  3.7106 -0.0266  0.4416
41649SOL     OW28538   0.967   1.191   5.798  0.5345 -0.4740 -0.3443
41649SOL    HW128539   0.901   1.125   5.778  1.4033 -1.2572 -0.6922
41649SOL    HW228540   0.952   1.261   5.735  1.2354 -1.5086 -1.7230
41650SOL     OW28541   9.770   0.913   8.717 -0.2464 -0.2538  0.4391
41650SOL    HW128542   9.793   0.923   8.809  1.4436 -2.4158  0.3442
41650SOL    HW228543   9.845   0.948   8.669 -1.1112  0.8559 -0.1608
41651SOL     OW28544  10.622   0.222   0.364  0.2092 -0.2647 -0.3857
41651SOL    HW128545  10.567   0.148   0.338 -0.2315  0.1196 -0.5469
41651SOL    HW228546  10.645   0.203   0.455  0.9234 -1.0992 -0.7294
41652SOL     OW28547   6.496   6.505   9.659  0.0164  0.1571  0.2288
41652SOL    HW128548   6.583   6.515   9.621 -0.3763 -1.5639 -1.2652
41652SOL    HW228549   6.510   6.517   9.753  2.0516 -1.0218  0.1429
41653SOL     OW28550   8.521   6.830   3.704  0.1757  0.2625 -0.0778
41653SOL    HW128551   8.571   6.778   3.767 -1.6597 -0.8341  0.5662
41653SOL    HW228552   8.587   6.879   3.655  1.7163  0.8810  2.4420
41654SOL     OW28553  10.090   9.212   3.521 -0.3016 -0.5179 -0.3503
41654SOL    HW128554  10.165   9.220   3.462 -0.7754  1.7756 -0.7555
41654SOL    HW228555  10.030   9.153   3.476 -0.8727  1.5626 -2.5167
41655SOL     OW28556   9.305   0.636   1.067 -0.8671 -0.3731 -0.0555
41655SOL    HW128557   9.332   0.583   1.142 -2.3030 -0.6833  0.2832
41655SOL    HW228558   9.316   0.727   1.097  1.8903 -0.3883 -0.7446
41656SOL     OW28559   7.791  10.584   8.452  0.2342 -0.5392 -0.3946
41656SOL    HW128560   7.825  10.582   8.541  0.8765  1.3351 -0.5651
41656SOL    HW228561   7.802  10.494   8.420  0.5884 -1.0844  1.1660
41657SOL     OW28562   8.113   4.880  10.984 -0.0982  0.3595 -0.2184
41657SOL    HW128563   8.110   4.955  11.044 -0.0979  0.8360 -0.7977
41657SOL    HW228564   8.201   4.884  10.945 -0.0338 -0.0521 -0.1209
41658SOL     OW28565   3.925   9.940   6.262 -0.4241  0.3708 -0.5360
41658SOL    HW128566   3.904   9.893   6.182 -2.4785 -0.8654  0.6327
41658SOL    HW228567   3.989   9.884   6.307 -1.0709 -0.1599 -0.2501
41659SOL     OW28568   1.570   6.048   9.219 -0.1651  0.1054 -0.0004
41659SOL    HW128569   1.475   6.047   9.229 -0.1871 -0.6381 -0.2587
41659SOL    HW228570   1.595   5.956   9.209  0.5211  0.3398 -0.5212
41660SOL     OW28571   1.336   2.390   6.885 -0.1908  0.1699  0.1920
41660SOL    HW128572   1.393   2.465   6.868  0.2512 -0.3261 -0.6085
41660SOL    HW228573   1.391   2.314   6.867 -1.0010 -0.3255 -0.2543
41661SOL     OW28574   7.162   4.612   7.862 -0.5390 -0.9382 -0.3616
41661SOL    HW128575   7.118   4.691   7.893  0.5886 -0.9408  1.3808
41661SOL    HW228576   7.178   4.560   7.941  1.5172 -1.4517 -1.0574
41662SOL     OW28577   3.883   0.617   8.712 -0.1434 -0.5169  0.1692
41662SOL    HW128578   3.969   0.659   8.707 -1.1302  1.6160  0.0342
41662SOL    HW228579   3.867   0.607   8.806  0.7476 -2.1121  0.1891
41663SOL     OW28580   6.804   2.493  10.188 -0.2267 -0.4513  0.0654
41663SOL    HW128581   6.876   2.446  10.145 -1.3443 -2.0771 -0.1161
41663SOL    HW228582   6.725   2.456  10.149 -1.2346 -0.6717  2.1845
41664SOL     OW28583   5.870   2.602   0.125 -0.1665  0.0085  0.4615
41664SOL    HW128584   5.814   2.595   0.048 -0.4720  0.6139  0.6165
41664SOL    HW228585   5.937   2.666   0.099  0.4494 -0.7017  0.2813
41665SOL     OW28586   1.655   0.166   3.960 -0.3103 -0.0701  0.1888
41665SOL    HW128587   1.618   0.128   4.040 -0.3370 -0.7161 -0.1174
41665SOL    HW228588   1.635   0.101   3.893  0.7971 -0.1230 -0.1048
41666SOL     OW28589   2.078   2.313   5.505 -0.1934 -0.3326 -0.4801
41666SOL    HW128590   2.004   2.321   5.445  0.5889  1.9049 -1.2606
41666SOL    HW228591   2.112   2.225   5.489 -0.1052  0.1126 -3.2667
41667SOL     OW28592   2.229   9.707   8.736 -0.1305 -0.4511 -0.8430
41667SOL    HW128593   2.258   9.649   8.666 -0.6945 -2.2107  0.2795
41667SOL    HW228594   2.220   9.649   8.812 -0.9625  1.0869  0.2964
41668SOL     OW28595  11.099   1.094   8.372 -0.2928  0.0586  0.5109
41668SOL    HW128596  11.153   1.032   8.324 -0.4696 -0.6642  1.2299
41668SOL    HW228597  11.019   1.101   8.320 -0.1364 -0.0521  0.2521
41669SOL     OW28598   8.450   9.455   1.330 -0.2884  0.4680  0.3092
41669SOL    HW128599   8.468   9.549   1.340  0.1301  0.2451  2.0328
41669SOL    HW228600   8.357   9.451   1.310 -0.2798  1.2608  0.0658
41670SOL     OW28601   3.313   7.822   2.267 -0.3184  0.3040  0.6737
41670SOL    HW128602   3.300   7.894   2.206 -0.1305  0.7774  1.1864
41670SOL    HW228603   3.237   7.765   2.252 -0.2259  0.3619 -0.0583
41671SOL     OW28604   1.355   8.935   1.205 -0.9739 -0.0953 -0.2914
41671SOL    HW128605   1.351   8.893   1.119  1.0193 -0.2887 -0.3301
41671SOL    HW228606   1.437   8.903   1.244 -0.7807  1.6189  0.8115
41672SOL     OW28607  10.392   1.007   1.914 -0.6804 -0.4161  0.4384
41672SOL    HW128608  10.487   1.015   1.926 -0.5304 -1.6686  0.2547
41672SOL    HW228609  10.378   0.913   1.901 -1.6543  0.0363 -2.2004
41673SOL     OW28610   0.035   3.933   5.092  0.0847 -0.1734 -0.5335
41673SOL    HW128611   0.126   3.913   5.074  0.3136 -0.5037  0.8763
41673SOL    HW228612  -0.014   3.871   5.037  0.7419 -1.5365  0.3694
41674SOL     OW28613   4.336   5.186   9.202 -0.7258 -0.3322 -0.1219
41674SOL    HW128614   4.263   5.159   9.147 -0.0415  0.5709 -1.5618
41674SOL    HW228615   4.410   5.192   9.141  0.3108 -0.2745  1.1093
41675SOL     OW28616   8.499   6.666  10.285 -0.1414  0.7430 -0.3235
41675SOL    HW128617   8.423   6.687  10.230  0.2583 -0.5154 -1.3934
41675SOL    HW228618   8.473   6.587  10.333  0.3039  0.6049 -0.3109
41676SOL     OW28619   6.032   1.677   0.570 -0.1497  0.0873  0.2394
41676SOL    HW128620   6.113   1.659   0.618 -0.8438  0.0009  1.3837
41676SOL    HW228621   6.030   1.773   0.563 -0.0772  0.1041  0.4357
41677SOL     OW28622   4.269   1.353   7.718  0.5934  0.7301 -0.0246
41677SOL    HW128623   4.267   1.448   7.707 -1.2155  0.6737 -0.5399
41677SOL    HW228624   4.274   1.318   7.629 -1.4468  0.3755 -0.0712
41678SOL     OW28625   0.626   6.058  11.071 -0.0366  0.1496 -1.0982
41678SOL    HW128626   0.658   6.146  11.048 -1.2207  1.1092  0.6719
41678SOL    HW228627   0.535   6.059  11.042 -0.8231  0.4971  1.2189
41679SOL     OW28628   1.919   1.289   3.952 -0.1856 -0.8571  0.1581
41679SOL    HW128629   1.828   1.310   3.933  0.2043  0.9025  0.0545
41679SOL    HW228630   1.944   1.350   4.022  1.1238 -0.7861 -0.3415
41680SOL     OW28631   0.360   8.235   1.952  0.8763  0.0181 -0.0863
41680SOL    HW128632   0.328   8.158   2.000  0.0303 -0.6304 -1.6278
41680SOL    HW228633   0.418   8.279   2.014 -0.5354 -0.5172  1.7168
41681SOL     OW28634   6.631  10.858   7.669  0.4798 -0.1574  0.4083
41681SOL    HW128635   6.567  10.883   7.735 -0.1594 -0.7609  0.0324
41681SOL    HW228636   6.709  10.835   7.719  0.6364  1.2343  0.8293
41682SOL     OW28637   3.432   0.134   0.401 -0.0387 -0.0965  0.0346
41682SOL    HW128638   3.475   0.191   0.336  0.9583 -0.5586  0.2700
41682SOL    HW228639   3.347   0.175   0.416  0.0231  0.4422 -0.9952
41683SOL     OW28640   1.988   3.835   0.865 -0.2212 -0.4140 -0.4020
41683SOL    HW128641   1.924   3.812   0.798 -0.9280  1.1213 -0.3009
41683SOL    HW228642   1.949   3.806   0.947 -0.8919  0.6482 -0.3244
41684SOL     OW28643   9.867   8.100   5.367  0.1948  0.1112 -0.2812
41684SOL    HW128644   9.822   8.180   5.391 -1.5707 -1.5899  2.7309
41684SOL    HW228645   9.809   8.057   5.303 -0.6421 -0.3252  0.7449
41685SOL     OW28646  10.014   3.643   3.256  0.1803 -0.0916  0.4023
41685SOL    HW128647  10.075   3.632   3.329 -0.0574 -1.2944  0.4354
41685SOL    HW228648  10.069   3.644   3.178  0.3922  0.7010  0.5506
41686SOL     OW28649   2.078  10.433   6.401  0.5015  0.0457  0.4602
41686SOL    HW128650   2.081  10.346   6.442 -0.3480 -0.4688 -0.5477
41686SOL    HW228651   2.067  10.493   6.475  2.0454 -0.5944  1.2691
41687SOL     OW28652   5.909   8.385   7.063 -0.3933  0.4140 -0.2166
41687SOL    HW128653   5.984   8.385   7.123  0.5253  1.5327 -1.3174
41687SOL    HW228654   5.851   8.317   7.097  1.5118 -1.0910  0.1682
41688SOL     OW28655   5.736   6.788   3.679  0.8218 -0.5798  0.0102
41688SOL    HW128656   5.790   6.794   3.757 -1.7679  2.0494  1.8246
41688SOL    HW228657   5.757   6.866   3.628  0.7912 -1.0433 -0.7377
41689SOL     OW28658   3.645   3.271   1.672  0.0488  0.1365 -0.0083
41689SOL    HW128659   3.690   3.284   1.588  0.1056 -0.5349 -0.0916
41689SOL    HW228660   3.610   3.182   1.666 -0.6662  0.3940  0.3526
41690SOL     OW28661   6.832   1.524   4.228 -0.1388 -0.4339  0.3085
41690SOL    HW128662   6.878   1.468   4.290  1.3406 -0.0154 -0.3603
41690SOL    HW228663   6.798   1.463   4.163  2.1042 -0.6027 -0.8285
41691SOL     OW28664   6.556   7.134   0.537 -0.1776  0.1437  0.3039
41691SOL    HW128665   6.478   7.090   0.570 -0.6832  0.9940  0.2606
41691SOL    HW228666   6.549   7.128   0.442  0.4611 -0.8832  0.3053
41692SOL     OW28667  10.767   1.588   8.593  0.3486  0.4759  0.4514
41692SOL    HW128668  10.707   1.533   8.645  0.0944 -0.1125 -0.4331
41692SOL    HW228669  10.762   1.674   8.634 -0.9786  0.3950  0.5148
41693SOL     OW28670   5.734   1.827   6.225  0.3396 -0.3913  0.0479
41693SOL    HW128671   5.817   1.857   6.188 -0.3782  0.5645 -0.8632
41693SOL    HW228672   5.667   1.868   6.170 -0.8040  1.1605  2.4239
41694SOL     OW28673   4.949   4.998  10.041 -0.4330 -0.1672  0.4065
41694SOL    HW128674   4.872   4.951  10.007 -1.0106 -0.5363  2.1586
41694SOL    HW228675   4.958   4.968  10.131  1.1063  0.7348  0.5842
41695SOL     OW28676  10.559   7.016   5.653 -0.2342 -0.0502  0.6340
41695SOL    HW128677  10.531   7.095   5.606  1.4879 -0.4960 -1.3195
41695SOL    HW228678  10.493   6.951   5.632  0.3923 -0.1776 -1.1132
41696SOL     OW28679   7.862   8.034   9.479 -0.1513  0.3735 -0.3829
41696SOL    HW128680   7.809   7.972   9.528  0.1787  0.7996  0.5291
41696SOL    HW228681   7.825   8.120   9.500  1.4268  0.7744  1.0244
41697SOL     OW28682   3.065   4.117   8.425  0.2227 -0.3068  0.0864
41697SOL    HW128683   3.134   4.183   8.422 -1.9489  2.0501 -0.6874
41697SOL    HW228684   3.022   4.122   8.339 -2.1707 -0.2535  1.2128
41698SOL     OW28685   6.570   4.965   1.826  0.8583  0.3807 -0.4009
41698SOL    HW128686   6.565   5.023   1.902  0.2338  0.3843 -0.4356
41698SOL    HW228687   6.663   4.958   1.806  0.9505  1.1867 -0.2593
41699SOL     OW28688  10.634   6.464   4.812 -0.0678  0.4702  0.1769
41699SOL    HW128689  10.589   6.521   4.749  0.2549  1.8717  1.1560
41699SOL    HW228690  10.715   6.511   4.833  1.0911 -1.2263 -0.3118
41700SOL     OW28691   4.413   5.869   1.090 -0.0323 -0.1774 -0.1349
41700SOL    HW128692   4.397   5.906   1.003 -1.3116 -2.7358 -1.0806
41700SOL    HW228693   4.329   5.836   1.119  1.0749 -2.8169  0.3486
41701SOL     OW28694   6.733   6.814  11.034 -0.1722 -0.0149  0.1182
41701SOL    HW128695   6.641   6.812  11.060 -0.6381 -0.5236 -1.4199
41701SOL    HW228696   6.738   6.882  10.967  1.1245  1.7662  1.9358
41702SOL     OW28697   7.254   4.367   3.021 -0.1455 -0.2288  0.0267
41702SOL    HW128698   7.262   4.285   2.973 -0.1437 -0.0703 -0.2430
41702SOL    HW228699   7.168   4.361   3.064  1.0193 -1.6478  2.4021
41703SOL     OW28700   0.102  10.182   8.206  0.1662 -0.5471  0.4364
41703SOL    HW128701   0.162  10.113   8.232 -0.5970 -1.3441  0.1195
41703SOL    HW228702   0.053  10.203   8.286  0.3361 -0.4227  0.5099
41704SOL     OW28703   2.121   4.237   2.723 -0.1900 -1.0222 -0.0636
41704SOL    HW128704   2.043   4.199   2.682 -1.0263 -0.2885  0.8021
41704SOL    HW228705   2.097   4.245   2.815  0.8133 -0.5109  0.1563
41705SOL     OW28706   0.030   3.631   3.479  0.4313  0.3252  0.6600
41705SOL    HW128707   0.124   3.628   3.462 -0.0415 -1.1531 -2.5336
41705SOL    HW228708   0.007   3.541   3.502 -0.5025  0.0846 -1.0592
41706SOL     OW28709   6.274   5.411  10.854 -0.0414 -0.1227 -0.2509
41706SOL    HW128710   6.241   5.385  10.941  1.2478 -0.2231  0.2307
41706SOL    HW228711   6.332   5.340  10.828  0.7744  0.6158 -0.5090
41707SOL     OW28712   2.494   1.804  10.607  0.3916  0.1025  0.6528
41707SOL    HW128713   2.539   1.837  10.685 -2.2797  0.0011  2.3340
41707SOL    HW228714   2.456   1.720  10.635 -2.1259  0.9073 -0.1422
41708SOL     OW28715   0.504   3.969   5.817  0.3749  0.0381 -0.3033
41708SOL    HW128716   0.569   3.989   5.885 -0.7361  1.5363  0.3807
41708SOL    HW228717   0.513   4.038   5.753  0.0062 -0.1970 -0.6173
41709SOL     OW28718   1.656   5.204   8.696 -0.3101  0.5732 -0.3876
41709SOL    HW128719   1.608   5.133   8.737  0.7265 -0.7265 -1.3479
41709SOL    HW228720   1.605   5.283   8.718  0.0629 -0.0196  3.1567
41710SOL     OW28721   3.870   9.408   8.578  0.4168  0.0664 -0.8813
41710SOL    HW128722   3.889   9.351   8.653 -0.9469 -1.8285 -1.9095
41710SOL    HW228723   3.802   9.467   8.610 -0.9244 -1.4178 -0.8707
41711SOL     OW28724   1.816   9.969   1.621 -0.0395 -0.2470  0.3873
41711SOL    HW128725   1.793   9.880   1.650 -0.6097 -0.4495 -0.6447
41711SOL    HW228726   1.801  10.024   1.698  0.1500 -1.0172  0.9833
41712SOL     OW28727   3.684   7.648   4.543  0.2593  0.1111  0.0188
41712SOL    HW128728   3.589   7.635   4.550  0.2623  0.4386  0.8116
41712SOL    HW228729   3.707   7.611   4.459 -0.7113  0.7848 -0.5689
41713SOL     OW28730   7.973  10.943   2.249 -0.2920 -0.1103  0.2204
41713SOL    HW128731   7.920  10.971   2.174  0.3966 -0.3731 -0.3822
41713SOL    HW228732   7.990  10.850   2.233 -0.9701 -0.4301  1.2321
41714SOL     OW28733  10.613   1.622   2.199 -0.2000 -0.4290 -0.3485
41714SOL    HW128734  10.632   1.547   2.255 -0.8627 -0.3950 -0.0714
41714SOL    HW228735  10.672   1.691   2.232  0.4798 -0.8435 -0.6675
41715SOL     OW28736   8.183   2.809   4.234  0.2475  0.2048 -0.7088
41715SOL    HW128737   8.110   2.863   4.203 -0.3107 -0.8908 -1.4094
41715SOL    HW228738   8.185   2.823   4.329 -0.3785  0.8450 -0.7832
41716SOL     OW28739   6.736   2.013   6.650 -0.2252 -0.4142  0.3885
41716SOL    HW128740   6.710   2.105   6.649  0.5228 -0.1390  2.1207
41716SOL    HW228741   6.680   1.971   6.585  1.2409  1.7098 -2.4230
41717SOL     OW28742   3.952   6.426   7.413 -0.1091  0.0535  1.0363
41717SOL    HW128743   4.025   6.475   7.376 -1.5682  0.8115 -1.0269
41717SOL    HW228744   3.971   6.422   7.506  1.3755  2.2838  0.9078
41718SOL     OW28745   9.636   1.259   1.337  0.3488 -0.0263  0.1772
41718SOL    HW128746   9.686   1.259   1.419 -2.6238  0.0617  2.1407
41718SOL    HW228747   9.605   1.350   1.329  0.1317 -0.1812 -0.7448
41719SOL     OW28748   8.118   8.404   0.018 -0.3715 -0.5762  0.3516
41719SOL    HW128749   8.089   8.390   0.108 -0.1211  1.7999  0.8609
41719SOL    HW228750   8.076   8.485  -0.009 -1.0785 -1.6368 -1.9946
41720SOL     OW28751  10.442   1.406   1.282  0.1727  0.0482 -0.5712
41720SOL    HW128752  10.445   1.417   1.377  1.1575  1.1114 -0.7057
41720SOL    HW228753  10.376   1.469   1.253  0.1868  0.0376 -0.6254
41721SOL     OW28754   9.399  10.223  10.434 -0.1836  0.3378  0.4468
41721SOL    HW128755   9.397  10.291  10.367  0.5132  2.0396  2.0470
41721SOL    HW228756   9.469  10.164  10.407 -0.5783  0.4114 -0.8079
41722SOL     OW28757   0.496   7.029   3.199  0.2116 -0.0946  0.6171
41722SOL    HW128758   0.549   7.027   3.279 -0.2594 -0.1807  0.9263
41722SOL    HW228759   0.558   7.007   3.129  0.5246 -0.4900  1.0124
41723SOL     OW28760   0.823   1.640   4.873  0.7008 -0.1044  0.1457
41723SOL    HW128761   0.804   1.662   4.781  1.1248  0.3598  0.1651
41723SOL    HW228762   0.873   1.558   4.868 -0.7547 -1.0277  0.0652
41724SOL     OW28763   3.510   7.305   6.888  0.0228  0.4148  0.1907
41724SOL    HW128764   3.488   7.263   6.971  0.4369  0.0086  0.1010
41724SOL    HW228765   3.550   7.236   6.836  0.3844  0.8301 -0.0944
41725SOL     OW28766   4.718   1.888   3.384 -0.3773 -0.1403  0.5674
41725SOL    HW128767   4.632   1.904   3.421 -0.5672  2.7223 -0.8575
41725SOL    HW228768   4.708   1.807   3.333 -1.9074 -0.3815  1.2123
41726SOL     OW28769  10.840   8.314   1.758 -0.5108 -0.4680  0.3200
41726SOL    HW128770  10.882   8.232   1.732 -0.0351 -1.0303  2.6074
41726SOL    HW228771  10.913   8.374   1.776 -0.7729 -0.3390  0.9991
41727SOL     OW28772   0.373   5.390   9.468 -0.0244  0.0681  0.4880
41727SOL    HW128773   0.417   5.367   9.386  0.0708  0.0311  0.5499
41727SOL    HW228774   0.435   5.444   9.515  0.4234 -0.9422  1.0920
41728SOL     OW28775  10.026   2.653   1.110 -0.2296  0.4787 -0.7971
41728SOL    HW128776   9.994   2.587   1.048 -1.1685  0.0553  0.1090
41728SOL    HW228777  10.120   2.658   1.093 -0.2172 -0.7368 -1.2155
41729SOL     OW28778   9.341   2.069   3.927 -0.4897  0.1905  0.3263
41729SOL    HW128779   9.313   2.074   3.836  1.1254  2.0577 -0.1346
41729SOL    HW228780   9.274   2.117   3.975 -0.1749  1.2109 -0.2216
41730SOL     OW28781   2.973   4.749   0.337  0.1608 -0.3821 -0.0119
41730SOL    HW128782   2.923   4.671   0.359  1.0128 -0.5514  1.5327
41730SOL    HW228783   2.978   4.750   0.242 -1.6809 -1.0211 -0.1562
41731SOL     OW28784   3.626   1.723  10.932  0.1417 -0.0386 -0.1777
41731SOL    HW128785   3.709   1.742  10.975  0.4598 -1.8899  0.1516
41731SOL    HW228786   3.567   1.792  10.961  0.8183 -0.2500  1.9085
41732SOL     OW28787   9.439   8.043   6.713 -0.5421  0.1530 -0.5359
41732SOL    HW128788   9.429   8.082   6.800  1.6882 -0.5929  0.1084
41732SOL    HW228789   9.486   8.109   6.662 -0.6686  0.0569 -0.7833
41733SOL     OW28790   7.832   9.757   9.252  0.7343  0.0424  0.1750
41733SOL    HW128791   7.865   9.816   9.184  0.7050  0.4076  0.4703
41733SOL    HW228792   7.903   9.695   9.267  1.2686  0.7639  0.7395
41734SOL     OW28793   9.289   6.178   9.930  0.4713 -0.0056 -0.0782
41734SOL    HW128794   9.246   6.096   9.906  0.1680  0.6220 -1.8232
41734SOL    HW228795   9.225   6.224   9.984 -0.6250  0.4141 -1.6863
41735SOL     OW28796   8.195   2.831   3.790 -0.3448  0.0133 -0.3583
41735SOL    HW128797   8.143   2.897   3.743 -2.0463 -1.5798 -0.8360
41735SOL    HW228798   8.141   2.809   3.866  0.0497 -1.0369 -0.3728
41736SOL     OW28799   0.159   7.411   5.673 -1.0525  0.1268 -0.2748
41736SOL    HW128800   0.207   7.478   5.722 -0.5626 -0.0819 -0.4633
41736SOL    HW228801   0.149   7.339   5.735 -3.0710  0.9880  0.5007
41737SOL     OW28802   5.953   4.446   2.506 -0.3153  0.4341  0.0820
41737SOL    HW128803   5.897   4.401   2.442 -0.4020 -0.1162  0.5382
41737SOL    HW228804   6.034   4.395   2.506  0.4155  1.5388 -0.9732
41738SOL     OW28805   4.857   1.200  11.023  0.4011 -0.1819  0.1454
41738SOL    HW128806   4.874   1.276  10.967 -0.3251  0.4731  0.7982
41738SOL    HW228807   4.763   1.182  11.011  0.4312 -0.5847  0.4906
41739SOL     OW28808   4.698   5.458   5.022  0.4566  0.0054  0.3492
41739SOL    HW128809   4.774   5.410   4.991  0.8519  0.8782 -0.0739
41739SOL    HW228810   4.640   5.464   4.946  0.7594  0.8588  0.1775
41740SOL     OW28811   0.216   8.060  10.507  0.7238 -0.2852  0.0274
41740SOL    HW128812   0.160   7.996  10.551  1.0815 -0.6197 -0.0060
41740SOL    HW228813   0.257   8.011  10.435 -1.1332  0.6215 -1.7796
41741SOL     OW28814   4.060   6.637   4.093  0.0881  0.8017  0.3764
41741SOL    HW128815   4.125   6.708   4.086  0.9810 -0.0909 -1.0639
41741SOL    HW228816   4.034   6.621   4.002  0.3911 -1.1280  0.5959
41742SOL     OW28817   7.004   4.484   1.117  0.2889  0.4468 -0.0316
41742SOL    HW128818   7.044   4.452   1.036  0.0688 -1.2113  0.4733
41742SOL    HW228819   7.038   4.426   1.185  0.1327  1.5452  1.0148
41743SOL     OW28820   2.859   0.237   0.922  0.0128  0.0481 -0.5418
41743SOL    HW128821   2.933   0.179   0.936 -0.2599 -0.3709 -0.7998
41743SOL    HW228822   2.783   0.178   0.917 -0.1587  0.3499 -1.6802
41744SOL     OW28823  10.750   6.588   0.234  0.0894 -0.1883  0.0251
41744SOL    HW128824  10.842   6.603   0.254 -0.0671  0.8202  0.0109
41744SOL    HW228825  10.740   6.493   0.239  1.0368 -0.2767  0.4225
41745SOL     OW28826  10.924   5.157   5.656 -0.2594  0.8912  0.0021
41745SOL    HW128827  10.935   5.229   5.594 -1.0992  0.6932 -0.3827
41745SOL    HW228828  11.011   5.146   5.695  0.7174 -0.0047 -2.2546
41746SOL     OW28829   9.408   3.988   7.043  0.1111 -0.0153  0.0749
41746SOL    HW128830   9.394   3.997   6.949  1.7311 -0.0880 -0.2073
41746SOL    HW228831   9.330   3.942   7.074 -0.1656 -0.5698 -1.3396
41747SOL     OW28832   2.628   2.644   6.517 -0.5611 -0.2120 -0.0432
41747SOL    HW128833   2.586   2.577   6.463 -2.1645 -0.4611  1.4151
41747SOL    HW228834   2.716   2.609   6.534 -0.5214 -0.7770 -1.3066
41748SOL     OW28835   9.628  10.096  10.357  0.4067 -0.7918  0.6078
41748SOL    HW128836   9.675  10.178  10.370  0.9457 -0.8867 -0.6100
41748SOL    HW228837   9.696  10.029  10.357 -0.0068 -1.2279  1.3861
41749SOL     OW28838   7.578  10.701   6.676 -0.1741 -0.5367 -0.3542
41749SOL    HW128839   7.549  10.724   6.764 -0.5926 -0.7644 -0.4318
41749SOL    HW228840   7.651  10.761   6.658 -0.8385  0.3098 -0.3063
41750SOL     OW28841   6.897  10.069   4.130 -0.9196  0.1289  0.5878
41750SOL    HW128842   6.903  10.134   4.060 -0.2346  1.1362  1.5460
41750SOL    HW228843   6.811  10.028   4.118 -1.3913  1.2617 -0.0004
41751SOL     OW28844   8.935   4.351   1.476  0.0827 -0.2741 -0.1792
41751SOL    HW128845   8.982   4.400   1.408  0.0672 -0.3024 -0.2101
41751SOL    HW228846   8.985   4.269   1.485  0.5896  0.1028  0.4626
41752SOL     OW28847   1.953   3.785   9.684  0.1972  0.2663  0.4250
41752SOL    HW128848   1.937   3.879   9.673  0.7879  0.1348 -2.0661
41752SOL    HW228849   1.870   3.744   9.660  0.7057  0.0745 -1.0962
41753SOL     OW28850   2.996   7.614   1.337  0.2397  0.8351 -0.2780
41753SOL    HW128851   3.088   7.609   1.312  0.4420  1.0405  0.3810
41753SOL    HW228852   2.953   7.658   1.264  0.9564  2.2129  0.0935
41754SOL     OW28853   7.007   9.642   8.026  0.3278 -0.3144 -0.2106
41754SOL    HW128854   6.926   9.636   7.975  0.3756 -1.6633 -0.1587
41754SOL    HW228855   7.006   9.563   8.081  1.8368 -0.5063 -0.4371
41755SOL     OW28856   1.274   7.179   6.537 -0.0661 -0.0758 -0.2593
41755SOL    HW128857   1.324   7.224   6.606 -1.2395 -1.0540  1.3087
41755SOL    HW228858   1.185   7.211   6.548 -0.1541  0.2562 -1.8008
41756SOL     OW28859   9.983   4.980   8.668 -0.0024  0.1613 -0.6670
41756SOL    HW128860  10.033   4.996   8.588  2.9115 -0.1786  0.9420
41756SOL    HW228861   9.975   4.885   8.673 -0.0350  0.1741 -0.4743
41757SOL     OW28862   6.689   7.159   8.142  0.1520 -0.1201  0.3558
41757SOL    HW128863   6.643   7.191   8.219  2.9513  2.6658  1.0661
41757SOL    HW228864   6.689   7.064   8.152 -2.0885 -0.0174  2.1876
41758SOL     OW28865   0.180  10.658   1.024 -0.1202  0.5882  0.4594
41758SOL    HW128866   0.096  10.620   1.047 -0.3842  0.6838 -0.3116
41758SOL    HW228867   0.245  10.591   1.046 -0.5018  0.0461 -0.0381
41759SOL     OW28868   8.296   2.878   1.941 -0.1688  0.1524  1.3287
41759SOL    HW128869   8.256   2.883   1.855  1.6618  1.2449  0.4911
41759SOL    HW228870   8.276   2.962   1.983  2.2440  1.3038  0.3674
41760SOL     OW28871   2.401   9.010   8.990 -0.4086 -0.1348 -0.2424
41760SOL    HW128872   2.339   9.019   8.918  0.0128 -0.1458 -0.6079
41760SOL    HW228873   2.429   9.099   9.010  0.1133 -0.2011 -0.6577
41761SOL     OW28874   4.319  10.997   7.371  0.3847 -0.0554 -0.1446
41761SOL    HW128875   4.361  10.954   7.446 -1.4193 -0.1511  0.8792
41761SOL    HW228876   4.339  11.090   7.383 -0.1330 -0.0363  0.6379
41762SOL     OW28877   0.487  10.416   5.723  0.4920  0.1362 -0.4784
41762SOL    HW128878   0.458  10.440   5.811  2.2923 -1.4792  0.6263
41762SOL    HW228879   0.420  10.355   5.692 -0.3589  1.0172 -0.4154
41763SOL     OW28880   6.625  10.228   1.883  0.2752  0.5824 -0.5717
41763SOL    HW128881   6.619  10.319   1.854 -0.0923  0.9438  0.5745
41763SOL    HW228882   6.577  10.227   1.966 -0.4266 -0.8393 -0.9850
41764SOL     OW28883   6.509   9.182   3.123 -0.2288  0.2200  0.0914
41764SOL    HW128884   6.422   9.153   3.149 -0.2280 -0.9173 -1.0409
41764SOL    HW228885   6.539   9.114   3.063  1.0354  1.1019 -0.3086
41765SOL     OW28886   6.141   8.048   0.561  0.1570 -0.3602 -0.5966
41765SOL    HW128887   6.184   8.130   0.585  0.1299 -0.2250 -0.9945
41765SOL    HW228888   6.204   7.980   0.585 -0.7687 -0.4284  1.9909
41766SOL     OW28889   7.474   5.440   6.948 -0.3024  0.4108 -0.1409
41766SOL    HW128890   7.533   5.402   6.882 -0.3663  0.5886 -0.3009
41766SOL    HW228891   7.441   5.519   6.907  0.4614  1.0764  0.4984
41767SOL     OW28892   9.425   4.645   7.687 -0.1383  0.2828 -0.0199
41767SOL    HW128893   9.388   4.717   7.635 -0.5293  0.7548  0.8748
41767SOL    HW228894   9.506   4.681   7.723 -1.5390  1.2352  2.4617
41768SOL     OW28895   2.091   6.451   9.576  0.2655 -0.1096 -0.4163
41768SOL    HW128896   2.041   6.402   9.641  1.0057 -2.4849 -1.5184
41768SOL    HW228897   2.025   6.495   9.523 -0.4179  0.4421  0.8673
41769SOL     OW28898   0.042   2.027   7.376  0.0639  0.4180  0.2505
41769SOL    HW128899   0.032   1.932   7.376  0.2979  0.3814 -0.8724
41769SOL    HW228900   0.137   2.041   7.367  0.2972  0.7720  2.6932
41770SOL     OW28901   9.955   0.351   2.911 -0.3311 -0.0975  0.0536
41770SOL    HW128902   9.999   0.432   2.936  0.3799 -0.6269  0.5616
41770SOL    HW228903   9.969   0.343   2.817 -0.8270  0.6112 -0.0872
41771SOL     OW28904  10.892   6.591   2.064  0.4080  0.9077 -0.3521
41771SOL    HW128905  10.927   6.634   2.142 -0.7777  1.5376 -0.1448
41771SOL    HW228906  10.967   6.584   2.005  0.6829  3.3243 -0.4123
41772SOL     OW28907   8.870   2.321   4.632  0.0736  0.5859 -0.3831
41772SOL    HW128908   8.923   2.360   4.702 -0.8771  0.5434  0.3972
41772SOL    HW228909   8.800   2.384   4.617 -0.9796 -0.3833  0.2719
41773SOL     OW28910   7.938   9.419  10.988 -0.0619  0.2965  0.0884
41773SOL    HW128911   7.844   9.412  11.002 -0.0205  0.2256  0.3438
41773SOL    HW228912   7.963   9.500  11.031 -0.0003  0.2944  0.0567
41774SOL     OW28913   9.962   5.087  10.628 -0.5021 -0.1840 -0.0498
41774SOL    HW128914  10.044   5.065  10.583 -0.4900 -1.8652  0.7238
41774SOL    HW228915   9.988   5.102  10.719 -1.1048 -1.2774  0.3185
41775SOL     OW28916   3.743   9.269   1.863 -0.1929  0.0490  0.8310
41775SOL    HW128917   3.665   9.322   1.879 -0.4398  0.0208 -0.2356
41775SOL    HW228918   3.717   9.181   1.888 -1.2535 -0.3800 -1.5382
41776SOL     OW28919  10.549  10.518   6.168  0.3249 -0.0213 -0.5023
41776SOL    HW128920  10.612  10.533   6.098  0.8803  4.0716  0.5791
41776SOL    HW228921  10.600  10.481   6.240  0.4755 -0.9912 -1.0964
41777SOL     OW28922  10.129   1.362   8.489  0.3332 -0.4413  0.0576
41777SOL    HW128923  10.034   1.364   8.493  0.3221 -0.2738 -0.2483
41777SOL    HW228924  10.156   1.311   8.566  0.0059 -0.3358  0.2407
41778SOL     OW28925   4.138   6.353   3.494  0.1171  0.6387  0.1590
41778SOL    HW128926   4.153   6.299   3.416  1.5559  0.6861  0.3727
41778SOL    HW228927   4.167   6.441   3.468 -0.2069  0.8423  0.4787
41779SOL     OW28928   7.822   9.102   0.062  0.6670 -0.1717  0.5810
41779SOL    HW128929   7.903   9.055   0.079  1.3697  1.3653  1.6903
41779SOL    HW228930   7.820   9.173   0.127  0.4240  2.2667 -1.8652
41780SOL     OW28931   0.089   4.795   1.767 -0.0016 -0.2570  0.4183
41780SOL    HW128932   0.036   4.816   1.843  0.8747  1.0238  0.7054
41780SOL    HW228933   0.069   4.864   1.704 -0.7167 -1.2955 -0.5472
41781SOL     OW28934   8.776   8.871   0.001 -0.2008 -0.0359  0.3654
41781SOL    HW128935   8.704   8.888  -0.060 -0.7043  1.7747  1.3684
41781SOL    HW228936   8.733   8.853   0.085  0.4945  0.1535  0.7712
41782SOL     OW28937   0.611   9.073   1.230  0.2362  0.3099 -0.3643
41782SOL    HW128938   0.706   9.076   1.221  0.2728 -1.9052 -1.1620
41782SOL    HW228939   0.595   9.000   1.290 -0.9792  0.1092 -0.9028
41783SOL     OW28940   7.805  10.876   6.633  0.1985  0.0082 -0.4821
41783SOL    HW128941   7.830  10.935   6.705  0.4252  0.3681 -0.8489
41783SOL    HW228942   7.883  10.821   6.619  0.2993  0.2030 -0.7081
41784SOL     OW28943   3.798   5.823  10.406 -0.9771 -0.6601 -0.4367
41784SOL    HW128944   3.772   5.779  10.325 -4.8232  0.2333  0.1105
41784SOL    HW228945   3.817   5.751  10.467 -0.2005 -1.3797 -1.4983
41785SOL     OW28946  10.825   9.666   0.164  0.4348  0.1984  0.2700
41785SOL    HW128947  10.854   9.576   0.149 -1.4411 -0.3192 -0.5620
41785SOL    HW228948  10.763   9.683   0.093 -0.2083  1.7028  1.1454
41786SOL     OW28949   1.718   1.854   2.629 -0.4149 -0.1491  0.3923
41786SOL    HW128950   1.652   1.813   2.685 -0.2800  0.0654  0.7170
41786SOL    HW228951   1.785   1.885   2.691  0.4243 -1.1437  0.0120
41787SOL     OW28952   7.445   5.933   3.655 -0.6609 -0.3958  0.0590
41787SOL    HW128953   7.443   6.018   3.612 -0.1356 -1.8619 -3.1722
41787SOL    HW228954   7.517   5.940   3.718 -0.5736  1.5123 -0.1989
41788SOL     OW28955   1.932   5.627   4.493 -0.5807 -0.3793 -0.6572
41788SOL    HW128956   1.917   5.633   4.588 -1.1793 -0.5420 -0.7388
41788SOL    HW228957   1.909   5.714   4.460  0.2004 -0.1342 -0.5855
41789SOL     OW28958   7.415   0.489   6.907 -0.7307  0.1448 -0.1323
41789SOL    HW128959   7.499   0.444   6.908 -0.9761 -0.3293 -0.4727
41789SOL    HW228960   7.350   0.419   6.905 -1.2074  0.4374  2.1395
41790SOL     OW28961   0.401   4.991   0.867  0.4087  0.3101  0.7177
41790SOL    HW128962   0.449   5.074   0.867 -0.7738  1.0094  1.4024
41790SOL    HW228963   0.311   5.015   0.848  0.0312 -0.8158  1.0036
41791SOL     OW28964   0.939   4.945   7.809 -0.1424 -0.2075 -0.2489
41791SOL    HW128965   0.869   4.991   7.763 -0.7934  0.4280  1.3105
41791SOL    HW228966   0.948   4.862   7.763 -2.6563 -0.7471  0.1014
41792SOL     OW28967  10.328   2.100   0.512 -0.4936 -0.1879  0.2996
41792SOL    HW128968  10.385   2.110   0.436  0.3698  0.0800  0.9610
41792SOL    HW228969  10.272   2.177   0.510  0.3970  0.4801  0.6431
41793SOL     OW28970   4.431   9.535  10.765 -0.5812  0.2719  0.4096
41793SOL    HW128971   4.489   9.609  10.786 -0.6695  0.8088 -1.1565
41793SOL    HW228972   4.351   9.576  10.732 -1.8382 -0.4638  2.3056
41794SOL     OW28973   6.250   1.294  10.785 -0.4481 -0.8711  0.2903
41794SOL    HW128974   6.175   1.269  10.839 -1.7228  2.3907  0.2239
41794SOL    HW228975   6.290   1.368  10.831  0.1299  0.1914 -1.7927
41795SOL     OW28976   6.231   2.121   4.462  0.0236  0.1791  0.2727
41795SOL    HW128977   6.214   2.105   4.369 -2.0455  2.0479  0.2357
41795SOL    HW228978   6.157   2.081   4.507  0.4966  0.1397  1.0366
41796SOL     OW28979   8.865   0.654   6.920  0.0463 -0.4384 -0.0591
41796SOL    HW128980   8.802   0.675   6.989 -0.1636 -2.6040  0.4673
41796SOL    HW228981   8.943   0.706   6.942 -0.8488  0.7846  0.3726
41797SOL     OW28982   8.933  10.321   2.345 -0.0549 -0.0620 -0.6194
41797SOL    HW128983   8.951  10.240   2.394  0.4139 -0.7609 -1.8838
41797SOL    HW228984   8.963  10.391   2.403  0.4446 -0.8490  0.1109
41798SOL     OW28985   8.602   2.592   1.298  0.0099  0.7477 -0.2775
41798SOL    HW128986   8.674   2.567   1.356  0.0670  0.4013 -0.4946
41798SOL    HW228987   8.632   2.673   1.256  0.5259  0.2840 -0.8105
41799SOL     OW28988   4.863   0.936   2.141  0.1393 -0.1522 -0.2919
41799SOL    HW128989   4.946   0.974   2.112 -0.6931  1.2620 -0.9292
41799SOL    HW228990   4.881   0.906   2.231  0.5316  3.0899  0.8380
41800SOL     OW28991   6.936   6.948   2.509  0.1179 -0.9201  0.0088
41800SOL    HW128992   6.945   6.925   2.417  3.2813  0.2213 -0.0748
41800SOL    HW228993   6.986   6.881   2.556  2.4101  0.9830  0.4311
41801SOL     OW28994   4.360   8.462   4.262 -0.9247 -0.1829  0.1638
41801SOL    HW128995   4.306   8.408   4.203 -1.7170  1.4233 -0.6462
41801SOL    HW228996   4.326   8.444   4.349 -1.2192 -0.9379 -0.1006
41802SOL     OW28997   9.599   8.995   9.915 -0.1294 -0.0636 -0.6929
41802SOL    HW128998   9.548   8.988   9.996  1.3776 -0.2684  0.2862
41802SOL    HW228999   9.644   8.911   9.908  0.8507  0.4677 -0.9707
41803SOL     OW29000   6.384   4.952  10.750  0.4936 -0.4798 -0.0625
41803SOL    HW129001   6.410   4.904  10.672 -1.0549 -0.4930 -0.6042
41803SOL    HW229002   6.351   4.884  10.810 -1.7209 -0.1826 -0.8383
41804SOL     OW29003   0.665  10.312  11.077  0.2687  0.1246 -0.5485
41804SOL    HW129004   0.700  10.260  11.149  0.8442 -0.8029 -1.4686
41804SOL    HW229005   0.578  10.338  11.106  0.4247 -0.3912  0.4025
41805SOL     OW29006   1.155   7.326  10.199  0.2062  0.1589 -0.1323
41805SOL    HW129007   1.154   7.335  10.103  1.3941  1.4648 -0.0450
41805SOL    HW229008   1.242   7.356  10.225 -0.5792  1.1623  1.4858
41806SOL     OW29009   8.474   1.415   6.964  0.2733 -0.1962 -0.0766
41806SOL    HW129010   8.428   1.360   6.901  1.9120 -0.6252 -0.9749
41806SOL    HW229011   8.560   1.430   6.924  1.1501  0.0359  1.7706
41807SOL     OW29012   7.816   0.656   4.604  0.5615 -0.4369  0.4435
41807SOL    HW129013   7.744   0.719   4.611  1.8857  0.9754  2.7460
41807SOL    HW229014   7.828   0.624   4.693  1.8287 -1.7699 -0.1785
41808SOL     OW29015   4.804   0.361   7.649  0.1812  0.2876 -0.1864
41808SOL    HW129016   4.816   0.270   7.677  1.4103  0.2106 -0.8909
41808SOL    HW229017   4.720   0.361   7.602 -0.9512  0.0146  1.7202
41809SOL     OW29018   1.260   1.217  10.250 -0.7866  0.2456 -0.3423
41809SOL    HW129019   1.244   1.179  10.336 -2.6513  1.9205  0.1217
41809SOL    HW229020   1.242   1.310  10.261 -0.3964  0.6141 -2.3907
41810SOL     OW29021  10.627   7.754   7.823 -0.0169 -0.1693  0.3940
41810SOL    HW129022  10.588   7.808   7.891  1.0921  1.8816 -0.4775
41810SOL    HW229023  10.700   7.807   7.789 -0.6854 -0.9184 -2.5588
41811SOL     OW29024   6.736   9.511   3.491 -0.1855  0.3808  0.1550
41811SOL    HW129025   6.719   9.431   3.441 -2.0548  1.0226 -0.3642
41811SOL    HW229026   6.815   9.493   3.541 -0.0449 -1.4431 -0.6494
41812SOL     OW29027   1.656   5.955   0.373 -0.1896  0.1806 -0.3939
41812SOL    HW129028   1.748   5.959   0.397  0.2661  0.2363 -2.0491
41812SOL    HW229029   1.634   6.044   0.344 -0.3043 -0.2003 -1.5363
41813SOL     OW29030   5.165   3.857   3.221  0.3255 -0.0166  0.2418
41813SOL    HW129031   5.251   3.815   3.224  0.3072 -0.6026 -3.1617
41813SOL    HW229032   5.103   3.784   3.218  0.1381  0.1274 -2.8693
41814SOL     OW29033   0.805   5.976   6.879  0.5197 -0.5298 -0.1020
41814SOL    HW129034   0.881   6.035   6.882 -0.2800  0.5765 -0.7072
41814SOL    HW229035   0.806   5.931   6.963  0.9930  0.5912  0.5223
41815SOL     OW29036   5.023   6.539   3.339  0.2509  0.4146 -0.2364
41815SOL    HW129037   5.038   6.604   3.270  1.6679  0.1485 -0.2061
41815SOL    HW229038   4.931   6.514   3.329  0.2733  0.8172 -1.6445
41816SOL     OW29039   5.008   5.352   1.569  0.2885 -0.0799 -0.2033
41816SOL    HW129040   5.069   5.414   1.608 -1.3774  0.6550  1.3952
41816SOL    HW229041   4.925   5.400   1.565 -0.6485 -1.6558 -0.4986
41817SOL     OW29042   5.330   1.099   4.700  0.0903 -0.3530  0.2856
41817SOL    HW129043   5.318   1.090   4.605 -0.1715 -0.1640  0.2983
41817SOL    HW229044   5.243   1.124   4.732 -0.2023 -1.9096  0.7740
41818SOL     OW29045   0.172   3.446   7.268 -0.3762 -0.0802  0.2935
41818SOL    HW129046   0.259   3.406   7.275 -0.2730  0.1659  0.4053
41818SOL    HW229047   0.186   3.538   7.287 -0.2262  0.4829 -2.2856
41819SOL     OW29048   1.084   5.283   5.995  0.0861  0.6266 -0.0866
41819SOL    HW129049   1.090   5.233   5.914 -1.3223  1.9713 -1.0905
41819SOL    HW229050   1.170   5.273   6.036  0.7148 -0.3673 -1.5672
41820SOL     OW29051   1.417   0.938   7.856 -0.1060  0.1568 -0.2602
41820SOL    HW129052   1.325   0.965   7.848 -0.0001  0.7716  0.4716
41820SOL    HW229053   1.460   0.975   7.779 -0.2962  0.6269 -0.1404
41821SOL     OW29054   8.578  10.434   3.468 -0.3308 -0.1047 -0.3725
41821SOL    HW129055   8.565  10.529   3.460  1.3405  0.2446  0.6973
41821SOL    HW229056   8.489  10.399   3.480 -0.9890  1.2956 -0.9463
41822SOL     OW29057   0.643   9.483  10.576 -0.2017 -0.4493  0.2823
41822SOL    HW129058   0.703   9.428  10.526  0.6143  0.8549 -0.2355
41822SOL    HW229059   0.603   9.424  10.640  1.7663 -1.3473  0.7582
41823SOL     OW29060   3.017   7.330   2.282 -0.2963  0.3000  0.1428
41823SOL    HW129061   2.960   7.384   2.227 -2.0382 -0.9154  0.6819
41823SOL    HW229062   3.102   7.335   2.239 -0.5117  2.9432 -0.1712
41824SOL     OW29063   9.358   4.778   7.953 -0.1114  0.4004  0.0483
41824SOL    HW129064   9.325   4.828   7.878  0.6327 -1.0300 -1.3063
41824SOL    HW229065   9.288   4.716   7.974 -0.1155  0.4547  0.1954
41825SOL     OW29066   6.929   4.534   5.758  0.1041 -0.0263  0.0493
41825SOL    HW129067   6.857   4.592   5.736  0.3630  0.5503  0.6719
41825SOL    HW229068   6.937   4.475   5.683 -0.8134  0.0941 -0.1481
41826SOL     OW29069   9.762   4.064   1.466 -0.2091 -0.3285  0.7822
41826SOL    HW129070   9.696   4.078   1.535  0.4582 -0.7607  1.5230
41826SOL    HW229071   9.804   3.982   1.490  3.0313  1.6031  2.3848
41827SOL     OW29072   9.428   0.989   4.238 -0.3620  0.2999  0.3266
41827SOL    HW129073   9.385   0.917   4.283 -2.6954  2.7742  2.4684
41827SOL    HW229074   9.380   0.997   4.155  0.7231 -1.2524 -0.5030
41828SOL     OW29075   2.024   8.693   1.623  0.5545 -0.2196 -0.4539
41828SOL    HW129076   2.084   8.738   1.562  0.4868  2.8648  1.5257
41828SOL    HW229077   2.068   8.700   1.708 -1.6388  0.2726  0.6999
41829SOL     OW29078   1.093   5.642   6.493  0.3337 -0.1364  0.0873
41829SOL    HW129079   1.078   5.584   6.419 -0.0599  1.9416 -1.5675
41829SOL    HW229080   1.179   5.679   6.478 -0.0801  0.9152  0.2210
41830SOL     OW29081   7.705   7.134  10.362 -0.1109  0.2365 -0.6066
41830SOL    HW129082   7.689   7.043  10.387 -1.5917 -0.0298 -2.3434
41830SOL    HW229083   7.659   7.186  10.428  1.6667 -0.1683  1.0510
41831SOL     OW29084   6.927   9.832   8.222  0.3301 -0.1587 -0.1404
41831SOL    HW129085   6.947   9.753   8.171  0.1250  0.6472 -1.5262
41831SOL    HW229086   6.941   9.904   8.161  0.1115  0.8655  0.9779
41832SOL     OW29087   5.882   0.121   6.732 -0.0959 -0.3610  0.2001
41832SOL    HW129088   5.867   0.124   6.637 -1.0161  0.4803  0.3574
41832SOL    HW229089   5.925   0.037   6.747 -1.1329 -1.0931 -0.8030
41833SOL     OW29090   9.562   6.551   6.096  0.3603  0.0617 -0.2412
41833SOL    HW129091   9.617   6.489   6.049 -1.2373 -0.1760 -1.9271
41833SOL    HW229092   9.497   6.496   6.141 -0.6076  0.4280 -1.1428
41834SOL     OW29093   9.743   3.303   9.468 -0.5003 -0.1716  0.4078
41834SOL    HW129094   9.688   3.381   9.479 -3.0977 -1.4679 -2.0658
41834SOL    HW229095   9.832   3.338   9.462 -1.5763  2.6988 -1.0655
41835SOL     OW29096   3.978   7.667   0.065  0.1654 -0.3466  0.3220
41835SOL    HW129097   4.052   7.672   0.126  0.0056 -1.4770  0.6319
41835SOL    HW229098   3.981   7.577   0.032  0.5499  0.3827 -1.7423
41836SOL     OW29099   5.400   6.417   2.036 -0.0648 -1.2057  0.2614
41836SOL    HW129100   5.487   6.387   2.010 -0.3122 -0.9657 -0.9126
41836SOL    HW229101   5.387   6.379   2.123  1.3598 -0.9196  0.6363
41837SOL     OW29102   8.178   9.557   1.139 -0.1586  0.0695 -0.1526
41837SOL    HW129103   8.141   9.484   1.190  0.2470 -0.0463 -0.0253
41837SOL    HW229104   8.220   9.613   1.205 -1.9148  1.3190 -0.0135
41838SOL     OW29105   9.293   2.684   4.409  0.3392 -0.2817 -0.8789
41838SOL    HW129106   9.278   2.652   4.498  0.9294 -1.0727 -1.0590
41838SOL    HW229107   9.269   2.777   4.413  0.2031 -0.3471  0.0625
41839SOL     OW29108   7.100   9.131   4.448 -0.2921  0.0197  0.1322
41839SOL    HW129109   7.087   9.037   4.461 -1.2822  0.0611 -0.4461
41839SOL    HW229110   7.060   9.172   4.524 -0.2310 -0.0141  0.1819
41840SOL     OW29111   4.953   4.817   9.235  0.3869  0.3394 -0.1118
41840SOL    HW129112   4.973   4.903   9.272  0.7495  0.4266 -0.5026
41840SOL    HW229113   5.038   4.779   9.215  0.1889  0.6776 -1.7249
41841SOL     OW29114   3.855   7.310   7.700 -0.4067 -0.6319 -0.2197
41841SOL    HW129115   3.774   7.263   7.679 -1.0870  0.5512 -0.2942
41841SOL    HW229116   3.845   7.336   7.791  0.2458 -1.1526  0.0119
41842SOL     OW29117   0.828   6.359   2.498 -0.0239 -0.6748 -0.2402
41842SOL    HW129118   0.744   6.376   2.540  0.3298  0.0064  0.2207
41842SOL    HW229119   0.808   6.354   2.405 -0.2112  2.5442 -0.5054
41843SOL     OW29120   0.567   5.904   9.724 -0.0475 -0.4449 -0.6069
41843SOL    HW129121   0.521   5.982   9.694 -0.7146 -0.7061 -0.2703
41843SOL    HW229122   0.539   5.892   9.814  1.2235 -0.2106 -0.1514
41844SOL     OW29123   4.110   3.927   9.932  0.4207 -0.6865  0.0178
41844SOL    HW129124   4.174   3.912   9.863  1.8631 -0.9954  1.3712
41844SOL    HW229125   4.051   3.852   9.927 -0.0638 -0.2491 -1.4350
41845SOL     OW29126   6.717   1.722   2.867  0.8119  0.0670 -0.2291
41845SOL    HW129127   6.719   1.759   2.778 -0.4209  1.2110  0.1908
41845SOL    HW229128   6.631   1.745   2.901  0.6999 -1.6276  0.7630
41846SOL     OW29129   0.806   6.186   7.472  0.0836  0.1604 -0.3049
41846SOL    HW129130   0.865   6.130   7.522 -0.1564  0.9744  0.9192
41846SOL    HW229131   0.747   6.125   7.428  0.3212 -0.5676  0.3779
41847SOL     OW29132   0.970   4.027   0.050 -0.5451  0.0066  0.7192
41847SOL    HW129133   1.029   4.058  -0.018 -1.0323 -1.0595 -0.2089
41847SOL    HW229134   0.986   3.933   0.056 -0.9667 -0.0232  1.6405
41848SOL     OW29135   0.709   6.318   2.246  0.4874 -0.6447 -0.2038
41848SOL    HW129136   0.747   6.231   2.229  3.5085  0.3631  0.8184
41848SOL    HW229137   0.672   6.344   2.162  3.2957 -1.2412 -1.7595
41849SOL     OW29138   9.560  10.652   7.414  0.1938 -0.0969 -0.1979
41849SOL    HW129139   9.514  10.650   7.330 -0.5881 -1.5394  0.2270
41849SOL    HW229140   9.567  10.560   7.440 -0.6855  0.3430  1.8742
41850SOL     OW29141   4.852   6.351   8.891  0.3336  0.2624  0.1534
41850SOL    HW129142   4.925   6.301   8.855 -0.7378  0.5476 -2.7167
41850SOL    HW229143   4.807   6.289   8.949  0.2822 -1.4603 -1.6297
41851SOL     OW29144   6.556   5.351   2.756 -0.8096 -0.1074 -0.0074
41851SOL    HW129145   6.593   5.266   2.781  0.3748  0.4432  0.1936
41851SOL    HW229146   6.564   5.354   2.661  1.9078  0.9255  0.1519
41852SOL     OW29147   6.708   7.089   3.150  0.2700 -0.5843 -0.0753
41852SOL    HW129148   6.724   7.000   3.181 -0.1946 -0.3296  0.9114
41852SOL    HW229149   6.613   7.095   3.141  0.3111 -0.2354 -0.2853
41853SOL     OW29150   3.856   7.731   1.278  0.4133  0.0116 -0.2384
41853SOL    HW129151   3.936   7.783   1.276  0.9388 -0.6166  1.7879
41853SOL    HW229152   3.849   7.693   1.190  0.5048  2.6928 -1.4835
41854SOL     OW29153   6.139   1.322   9.930  0.3314 -0.3933  0.2351
41854SOL    HW129154   6.134   1.405   9.976  0.1489 -0.7056  0.7925
41854SOL    HW229155   6.208   1.273   9.975 -0.1142 -0.8513  0.4421
41855SOL     OW29156   4.238  10.383   7.409 -0.1422 -0.2539 -0.5965
41855SOL    HW129157   4.293  10.461   7.401  0.4118 -0.5785 -0.0880
41855SOL    HW229158   4.293  10.311   7.376  0.0030 -0.6838  0.5228
41856SOL     OW29159   9.675   1.951   6.338  0.6018 -0.3411 -0.7813
41856SOL    HW129160   9.667   1.855   6.336 -0.5400 -0.2509 -1.2063
41856SOL    HW229161   9.607   1.982   6.278  0.1613  0.7831  0.2634
41857SOL     OW29162   0.002   2.492   8.130 -0.7953 -0.4269 -0.2709
41857SOL    HW129163  -0.018   2.423   8.193  0.2112 -0.2877  0.2449
41857SOL    HW229164  -0.035   2.571   8.170 -2.7452 -0.7711 -1.2959
41858SOL     OW29165   5.686   8.268   4.810  0.3988 -0.3428  0.3881
41858SOL    HW129166   5.745   8.285   4.737  0.1730 -0.2586  0.2220
41858SOL    HW229167   5.693   8.346   4.866 -0.4160  0.1852 -0.2221
41859SOL     OW29168   0.237   0.136   3.973  0.3753 -0.0379  0.2161
41859SOL    HW129169   0.307   0.122   4.037  0.5828  0.1166  0.0249
41859SOL    HW229170   0.159   0.152   4.025  0.5825  0.2749  0.4305
41860SOL     OW29171   4.538   2.043   3.810 -0.6643 -0.2876 -0.4975
41860SOL    HW129172   4.508   2.126   3.773 -2.1937 -0.0659  1.0993
41860SOL    HW229173   4.516   2.050   3.903  0.8515 -1.7617  0.0130
41861SOL     OW29174   5.822   0.144   8.147  0.1210 -0.1148 -0.6344
41861SOL    HW129175   5.829   0.048   8.154  0.0865 -0.0217  1.2237
41861SOL    HW229176   5.888   0.168   8.083 -0.0196 -1.4082 -1.2975
41862SOL     OW29177  10.436   3.681   9.073  0.0748 -0.6286 -0.4640
41862SOL    HW129178  10.470   3.759   9.117  0.1644 -1.0326  0.2090
41862SOL    HW229179  10.467   3.688   8.983 -1.7308  1.1911 -1.0080
41863SOL     OW29180   0.526   6.038   7.604 -0.2152 -0.1102  0.3032
41863SOL    HW129181   0.450   6.004   7.651 -0.5531  0.4303  0.1526
41863SOL    HW229182   0.507   6.020   7.512 -0.3144  0.3260  0.2373
41864SOL     OW29183  11.065   5.918  10.370  0.0311  0.5862 -0.4555
41864SOL    HW129184  11.075   5.838  10.318 -0.7713  0.3761 -0.2973
41864SOL    HW229185  11.063   5.988  10.306  0.0142  0.4158 -0.6438
41865SOL     OW29186   7.349   8.458   2.415  0.5647  0.1403  0.0783
41865SOL    HW129187   7.256   8.461   2.439  0.2222  1.3135 -1.2634
41865SOL    HW229188   7.383   8.382   2.463 -1.3573 -1.0912 -0.3631
41866SOL     OW29189   7.054   5.836   2.328 -0.0915  0.0273  0.1687
41866SOL    HW129190   7.082   5.808   2.241  0.4108  0.8523  0.0659
41866SOL    HW229191   6.961   5.812   2.331  0.1095 -0.8692 -0.2308
41867SOL     OW29192   2.530   5.659   7.331  0.4863 -0.1797 -0.4839
41867SOL    HW129193   2.450   5.663   7.383  1.1594 -0.6533  0.6320
41867SOL    HW229194   2.594   5.711   7.381  1.0786 -0.4258 -0.9711
41868SOL     OW29195   3.700   2.221   7.563 -0.1681 -0.7962 -0.0558
41868SOL    HW129196   3.711   2.261   7.476  0.1153 -1.3654 -0.2824
41868SOL    HW229197   3.778   2.167   7.575  1.2562  1.4487  1.7485
41869SOL     OW29198   0.396   4.187   7.229  0.5361  0.2002  0.2080
41869SOL    HW129199   0.451   4.246   7.281  1.8206 -0.0242 -0.8509
41869SOL    HW229200   0.376   4.236   7.150  2.6186 -1.1112 -1.2442
41870SOL     OW29201   0.496   0.024  10.125 -0.4019  0.4117 -0.0800
41870SOL    HW129202   0.462  -0.055  10.083 -0.5888  1.2046 -1.5148
41870SOL    HW229203   0.591   0.014  10.124 -0.4525 -0.0925  0.3560
41871SOL     OW29204   0.228   3.543   6.525 -0.0979  0.4017 -0.2085
41871SOL    HW129205   0.254   3.479   6.459 -1.2269  0.6147 -0.8739
41871SOL    HW229206   0.183   3.491   6.592 -1.8370  0.5695 -1.1888
41872SOL     OW29207   1.235   6.511   8.659 -0.0009 -0.2404  0.2122
41872SOL    HW129208   1.308   6.520   8.721 -1.7146  1.8382  2.1105
41872SOL    HW229209   1.231   6.596   8.614 -0.0870 -1.0111 -1.3192
41873SOL     OW29210   6.444   3.344   4.277 -0.0850 -0.1616  0.3167
41873SOL    HW129211   6.404   3.296   4.204 -0.3038 -0.2124  0.4699
41873SOL    HW229212   6.521   3.293   4.300 -0.9652 -1.1172  1.2761
41874SOL     OW29213   3.920   7.621   0.507  0.2248  0.0583 -0.4438
41874SOL    HW129214   3.849   7.598   0.567 -0.2693 -0.3707 -1.1826
41874SOL    HW229215   3.881   7.616   0.420  0.3231  2.8436 -0.7348
41875SOL     OW29216   3.752  11.096   8.368  0.1037  0.1886 -0.1970
41875SOL    HW129217   3.714  11.148   8.438  0.7978 -0.2909  0.5593
41875SOL    HW229218   3.691  11.106   8.295 -0.0310  1.6383  0.0847
41876SOL     OW29219   2.952   9.879   7.828  0.2395 -0.4490 -0.1826
41876SOL    HW129220   2.985   9.931   7.755 -0.6710  1.0888  0.4509
41876SOL    HW229221   2.991   9.919   7.906 -0.4464 -0.7205  0.3125
41877SOL     OW29222   9.810   7.253   8.869  0.1955 -0.3934  0.2832
41877SOL    HW129223   9.759   7.297   8.937  0.2606  0.7315 -0.3707
41877SOL    HW229224   9.898   7.246   8.907  1.0894  3.0437 -0.7108
41878SOL     OW29225   1.279   7.288   6.929 -0.0311  0.2707  0.3539
41878SOL    HW129226   1.207   7.282   6.992 -0.6180  0.4235 -0.3007
41878SOL    HW229227   1.249   7.350   6.863 -0.6692 -2.0358 -1.6877
41879SOL     OW29228   3.110   9.953   2.618  0.2474  0.1660  0.0502
41879SOL    HW129229   3.096   9.914   2.532  1.8528  1.3457 -0.8072
41879SOL    HW229230   3.035  10.011   2.631 -1.7015 -2.3600  0.9567
41880SOL     OW29231   3.122   9.882   1.268  0.0918  0.3520 -0.4499
41880SOL    HW129232   3.061   9.889   1.195 -0.6475  2.5601  0.3056
41880SOL    HW229233   3.106   9.960   1.322  1.6796 -0.3935  1.2551
41881SOL     OW29234   8.001   4.521   8.919 -0.1470 -0.4155 -0.0432
41881SOL    HW129235   8.091   4.547   8.939 -0.3223  1.7828 -1.8033
41881SOL    HW229236   8.010   4.446   8.860  0.6034  0.5639 -1.2143
41882SOL     OW29237   2.411   9.710  10.874 -0.1994 -0.1795  0.0620
41882SOL    HW129238   2.489   9.754  10.840  0.4510 -1.4567 -0.1274
41882SOL    HW229239   2.431   9.617  10.870 -2.2283 -0.6256 -1.2114
41883SOL     OW29240   3.726   8.526   7.325  0.1711  0.6059 -1.0294
41883SOL    HW129241   3.660   8.594   7.333  0.1883  0.6136 -0.9482
41883SOL    HW229242   3.797   8.555   7.381 -0.6222 -0.4455  0.5868
41884SOL     OW29243   2.885  10.553   6.489 -0.4493  0.2760 -0.1299
41884SOL    HW129244   2.873  10.528   6.398 -1.7572 -0.6510  0.2653
41884SOL    HW229245   2.953  10.620   6.487  1.0422 -1.2032 -1.5565
41885SOL     OW29246   1.494  10.901   8.988  0.2532  0.1506  0.0292
41885SOL    HW129247   1.499  10.968   8.920  0.1679 -0.7359 -0.8723
41885SOL    HW229248   1.401  10.894   9.008  0.1249 -0.5302 -0.7468
41886SOL     OW29249   0.245   1.174   6.774 -0.2160  0.3172 -0.9229
41886SOL    HW129250   0.226   1.248   6.831  0.8381  1.4092 -1.9163
41886SOL    HW229251   0.173   1.173   6.711 -1.8310 -1.4068  0.8281
41887SOL     OW29252   4.377   7.350   2.885 -0.4966 -0.4232  0.1876
41887SOL    HW129253   4.417   7.323   2.803 -0.5402  1.6093 -0.5463
41887SOL    HW229254   4.444   7.404   2.927 -1.2696  0.3161  0.4773
41888SOL     OW29255   4.667   4.872   9.265 -0.4171 -0.1290 -0.6723
41888SOL    HW129256   4.633   4.803   9.208  0.6807 -0.9663 -0.3579
41888SOL    HW229257   4.762   4.866   9.256 -0.2425  0.1398  0.7310
41889SOL     OW29258   6.751   6.953   7.399  0.0310  0.1289  0.2269
41889SOL    HW129259   6.664   6.925   7.428 -0.5722 -0.2628 -1.7684
41889SOL    HW229260   6.748   7.048   7.405 -1.5125  0.3294 -2.1004
41890SOL     OW29261   1.314   1.986   4.315  0.2872 -0.2930  0.5249
41890SOL    HW129262   1.346   2.047   4.381  0.9637 -0.1158  0.0354
41890SOL    HW229263   1.254   1.928   4.363 -0.5787  0.9046  0.9434
41891SOL     OW29264   7.012   0.088   4.546 -0.3553 -0.1629 -0.0680
41891SOL    HW129265   7.061   0.169   4.560  1.8131 -0.7260 -3.3155
41891SOL    HW229266   7.047   0.028   4.612 -1.4273  1.2290  1.8584
41892SOL     OW29267   8.795   1.674   9.735 -0.1139  0.5276  0.0992
41892SOL    HW129268   8.847   1.640   9.808  2.8067 -0.1180 -2.0671
41892SOL    HW229269   8.760   1.757   9.767 -1.8821 -1.2695  3.3165
41893SOL     OW29270   0.018   1.160   1.168 -0.1766  0.2616 -0.2234
41893SOL    HW129271   0.055   1.168   1.256 -0.8915  0.1066  0.1044
41893SOL    HW229272   0.008   1.251   1.139 -2.2960  0.4836  0.9075
41894SOL     OW29273   0.433   5.031   9.905 -0.5285 -0.3231  0.1458
41894SOL    HW129274   0.496   4.980   9.854  1.2527  0.9338  0.9780
41894SOL    HW229275   0.447   5.121   9.877 -1.9259  0.0109  0.4405
41895SOL     OW29276   3.049   3.673   1.352  0.0053 -0.1878  0.2224
41895SOL    HW129277   2.965   3.628   1.367  1.1439 -1.7766  2.3625
41895SOL    HW229278   3.103   3.608   1.308  0.1726  0.8296 -1.1324
41896SOL     OW29279   6.008   6.613   5.050  0.4228 -1.1745 -0.0747
41896SOL    HW129280   6.017   6.528   5.007 -2.5429 -1.6315 -0.0302
41896SOL    HW229281   5.942   6.599   5.118 -0.9760  1.3417 -0.7643
41897SOL     OW29282   5.633   3.947   9.920 -0.4064 -0.0926 -0.1812
41897SOL    HW129283   5.682   3.905   9.991 -0.2368  0.1528 -0.1503
41897SOL    HW229284   5.621   4.037   9.950 -3.0304 -0.7351  0.9250
41898SOL     OW29285   2.521   6.415   2.805 -0.6423 -0.5603  0.4147
41898SOL    HW129286   2.580   6.442   2.876 -1.1839 -0.3112  0.7686
41898SOL    HW229287   2.442   6.386   2.849 -0.2999 -2.2008  0.0239
41899SOL     OW29288   5.032   3.421   0.808 -0.7979 -0.2703 -0.3210
41899SOL    HW129289   5.109   3.373   0.840 -0.6745 -0.4560 -0.8949
41899SOL    HW229290   5.027   3.498   0.866 -1.0027 -0.9654  0.6085
41900SOL     OW29291   8.004   0.697   0.335 -0.3715 -0.1255  0.3526
41900SOL    HW129292   7.911   0.677   0.330 -0.7578  1.5529  0.4368
41900SOL    HW229293   8.023   0.699   0.429 -0.6904  1.3817  0.3992
41901SOL     OW29294  10.141   8.148   3.075 -0.7622  0.1023 -0.6158
41901SOL    HW129295  10.076   8.217   3.059  1.5489  2.8092  0.7933
41901SOL    HW229296  10.192   8.180   3.149  2.5063 -1.5766 -1.9532
41902SOL     OW29297   7.160   0.350   4.637 -0.1448 -0.5099  0.3090
41902SOL    HW129298   7.244   0.332   4.679 -0.0224 -0.3833  0.1210
41902SOL    HW229299   7.133   0.435   4.673  1.3607  1.0732 -1.9843
41903SOL     OW29300   9.555   7.244   2.038  0.3634 -0.0593 -0.1994
41903SOL    HW129301   9.577   7.178   1.972  0.2079 -0.8268  0.4994
41903SOL    HW229302   9.509   7.195   2.106  1.1570  0.5856  0.8277
41904SOL     OW29303   8.966   8.981  10.896 -0.0397 -0.1262  0.1049
41904SOL    HW129304   8.942   8.983  10.988  2.2308  0.7122  0.7480
41904SOL    HW229305   8.943   9.068  10.863 -1.2938 -0.5837 -0.2760
41905SOL     OW29306   4.638   9.641   3.089  0.1627  0.3361  0.0060
41905SOL    HW129307   4.703   9.621   3.021  0.1567  0.0859  0.0714
41905SOL    HW229308   4.557   9.602   3.057  0.0393  0.6656 -0.0835
41906SOL     OW29309   2.081   9.554   0.035 -0.4048  0.4163  0.1883
41906SOL    HW129310   2.024   9.609   0.088 -1.1855  0.7815 -0.9978
41906SOL    HW229311   2.028   9.478   0.012  0.0055  0.1388  0.1466
41907SOL     OW29312   5.868   6.486   4.739  0.2044  0.6081  0.1290
41907SOL    HW129313   5.862   6.521   4.650 -1.0558  1.0570  0.3566
41907SOL    HW229314   5.801   6.535   4.787 -0.8389 -1.3426  0.7468
41908SOL     OW29315   2.959   5.881   8.114 -0.3789  0.1696  0.1440
41908SOL    HW129316   2.937   5.853   8.203  1.6179 -0.3200  0.5379
41908SOL    HW229317   3.030   5.945   8.126 -1.5920  1.8116 -1.0104
41909SOL     OW29318   8.686   2.900   1.210 -0.3509 -0.8840  0.2947
41909SOL    HW129319   8.754   2.878   1.147 -1.3209 -2.6423 -0.2264
41909SOL    HW229320   8.733   2.935   1.286  1.0437 -1.1924 -0.4108
41910SOL     OW29321   0.867   8.035   2.191  0.8750 -0.1899 -0.2817
41910SOL    HW129322   0.778   8.032   2.157  1.2078  1.6385 -1.4787
41910SOL    HW229323   0.897   8.124   2.172  2.0179  0.1356  2.5525
41911SOL     OW29324  10.278   3.283   2.856  0.2991 -0.3006 -0.7244
41911SOL    HW129325  10.328   3.326   2.925 -2.0893 -0.0786  1.0217
41911SOL    HW229326  10.193   3.264   2.897 -0.3642 -2.4831 -2.8500
41912SOL     OW29327   2.023   3.522   0.753  0.5878  0.4524 -0.2542
41912SOL    HW129328   2.060   3.460   0.816 -1.2001  1.4544  1.9163
41912SOL    HW229329   2.099   3.564   0.713  1.7850 -1.1023  0.2846
41913SOL     OW29330   2.726   0.634  11.019  0.1299 -0.0466  0.2495
41913SOL    HW129331   2.795   0.599  11.075 -0.1379  0.6892  1.0592
41913SOL    HW229332   2.723   0.574  10.944  1.0478 -0.5791  0.6251
41914SOL     OW29333   8.586   3.215   8.377 -0.1409 -0.4344  0.7780
41914SOL    HW129334   8.644   3.240   8.450  1.2941 -2.3014  0.3686
41914SOL    HW229335   8.601   3.121   8.367 -0.8203 -0.3451 -1.4911
41915SOL     OW29336   2.614   2.601   8.821 -0.0210 -0.8500  0.0315
41915SOL    HW129337   2.519   2.601   8.807 -0.1861  0.1491  0.9936
41915SOL    HW229338   2.630   2.675   8.879  1.2775 -1.4118  0.4410
41916SOL     OW29339   0.095   7.457   8.150  0.0377  0.7343  0.4390
41916SOL    HW129340   0.012   7.417   8.126  0.5996  1.0633 -2.3362
41916SOL    HW229341   0.136   7.393   8.209 -2.2199  0.6851  2.0768
41917SOL     OW29342   3.095   7.306   0.455  0.0311 -0.3116 -0.7395
41917SOL    HW129343   3.026   7.329   0.393 -0.2852  0.7578 -0.0141
41917SOL    HW229344   3.097   7.379   0.517  1.1481 -0.7925 -0.1786
41918SOL     OW29345   8.898   7.463   0.602 -0.2217  0.0546  0.2375
41918SOL    HW129346   8.861   7.532   0.546 -0.8617 -0.6047 -0.1835
41918SOL    HW229347   8.840   7.388   0.588  1.2472 -1.0205 -0.4090
41919SOL     OW29348   4.193   5.525   7.664  0.3134  0.3760  0.7318
41919SOL    HW129349   4.242   5.607   7.668  0.4223  0.3406  0.1601
41919SOL    HW229350   4.120   5.538   7.724 -1.4973  2.1263 -1.6564
41920SOL     OW29351   3.416  10.128   9.727  0.0736 -0.4338 -0.3948
41920SOL    HW129352   3.406  10.039   9.693 -1.1179 -0.4383 -0.1051
41920SOL    HW229353   3.343  10.138   9.788  1.3175  0.0822  1.0650
41921SOL     OW29354   2.944   1.838   0.803  0.9164 -0.7717 -0.2414
41921SOL    HW129355   2.948   1.926   0.767 -1.5340 -0.7041 -0.5496
41921SOL    HW229356   2.915   1.850   0.893  2.2352 -1.1982  0.2573
41922SOL     OW29357   8.326   6.081   2.821 -0.8669  0.1236  0.6627
41922SOL    HW129358   8.385   6.047   2.755  1.2684  2.1085  1.4429
41922SOL    HW229359   8.252   6.117   2.772 -0.1729 -0.0142 -0.5104
41923SOL     OW29360   4.012   6.750   1.422  0.2562  0.0578 -0.1796
41923SOL    HW129361   3.932   6.755   1.370  0.0039  1.9623  0.3115
41923SOL    HW229362   4.076   6.802   1.372  0.0436  1.8117  1.2558
41924SOL     OW29363   8.773   9.526   2.661 -0.1893 -0.1289 -0.0552
41924SOL    HW129364   8.679   9.524   2.678 -0.2311  0.5089 -0.2110
41924SOL    HW229365   8.808   9.457   2.718 -0.7685 -0.4997 -0.1371
41925SOL     OW29366   1.960   2.865   8.460 -0.1996  0.0882 -0.0133
41925SOL    HW129367   1.911   2.907   8.531  2.3903  0.2875  1.8020
41925SOL    HW229368   1.972   2.775   8.490 -0.1725 -0.1825 -0.8198
41926SOL     OW29369   8.997   1.335   2.895 -0.2381 -0.2251  0.6669
41926SOL    HW129370   8.905   1.345   2.872  0.1684  0.5115 -0.8054
41926SOL    HW229371   9.020   1.418   2.937 -0.3687 -0.6262  1.5534
41927SOL     OW29372   5.385   1.155  10.527 -0.2748 -0.0317  0.1873
41927SOL    HW129373   5.305   1.193  10.564  0.5821 -0.0219  2.1092
41927SOL    HW229374   5.438   1.231  10.502  0.3723  0.0490  1.7039
41928SOL     OW29375  10.320   8.590   6.173  0.5839 -0.3212  0.1389
41928SOL    HW129376  10.320   8.654   6.102  3.8833 -0.7062 -0.3712
41928SOL    HW229377  10.310   8.642   6.253 -1.2536  0.2993 -0.4534
41929SOL     OW29378   9.015   7.766   3.331  0.1397  0.0532 -0.5970
41929SOL    HW129379   8.976   7.733   3.250  0.4370  1.7555 -1.4739
41929SOL    HW229380   8.940   7.796   3.382 -0.0104 -0.5403 -0.4655
41930SOL     OW29381   5.873   8.405   5.626  0.0429 -0.3267 -0.5447
41930SOL    HW129382   5.810   8.440   5.689  0.2818  0.7714 -0.8928
41930SOL    HW229383   5.958   8.436   5.658  0.0544  1.3458 -2.0814
41931SOL     OW29384   5.881   3.756   9.185 -0.6722 -0.1375 -0.0186
41931SOL    HW129385   5.832   3.795   9.258 -0.4756 -1.7253  0.9994
41931SOL    HW229386   5.960   3.721   9.225  0.4741  0.8179 -1.3658
41932SOL     OW29387   6.327   8.146  10.723 -0.4244  0.1453 -0.4770
41932SOL    HW129388   6.255   8.159  10.784 -0.8670 -2.7880 -0.2677
41932SOL    HW229389   6.405   8.141  10.780 -0.2569  1.3689 -0.5545
41933SOL     OW29390   8.826   2.634   5.505  0.4892  0.0507 -0.3735
41933SOL    HW129391   8.861   2.547   5.524  1.8721  0.6566 -0.0175
41933SOL    HW229392   8.773   2.622   5.426  1.3330 -0.9693 -0.8142
41934SOL     OW29393   6.488   9.410   4.214 -0.5620 -0.5484  0.7274
41934SOL    HW129394   6.575   9.417   4.253 -1.5453  0.0070  3.0286
41934SOL    HW229395   6.490   9.471   4.141  1.3014 -1.3735  0.0248
41935SOL     OW29396   6.647   6.655   1.704  0.3771 -0.0238 -0.0916
41935SOL    HW129397   6.727   6.682   1.657 -0.7022  2.0915 -0.8679
41935SOL    HW229398   6.598   6.603   1.640  0.5307 -0.1976 -0.0686
41936SOL     OW29399   3.342   5.832   7.391  0.4545 -0.5535 -0.2972
41936SOL    HW129400   3.310   5.755   7.438 -1.2890  1.5476  2.2830
41936SOL    HW229401   3.421   5.858   7.439  0.9225 -0.6041 -1.0331
41937SOL     OW29402   0.925   6.779   0.150 -0.4163 -0.0424  0.5313
41937SOL    HW129403   1.009   6.742   0.124  0.3998  2.9495 -1.7809
41937SOL    HW229404   0.869   6.769   0.072 -1.7012 -0.5649  1.4821
41938SOL     OW29405   7.304   8.595   0.087  0.1101 -0.3083 -0.0383
41938SOL    HW129406   7.261   8.638   0.162  0.7814 -0.6388  0.5460
41938SOL    HW229407   7.292   8.657   0.015 -1.3457 -0.3904  0.0949
41939SOL     OW29408   3.374   9.144   4.860 -0.2637 -0.1521 -0.0229
41939SOL    HW129409   3.447   9.122   4.918 -0.7148  1.1484  1.0947
41939SOL    HW229410   3.321   9.064   4.857  1.1631 -1.1123 -0.8499
41940SOL     OW29411   1.467   7.557   4.544  0.0008  0.1213  0.4284
41940SOL    HW129412   1.501   7.643   4.569 -0.8386  0.5676  0.0609
41940SOL    HW229413   1.433   7.568   4.456 -2.6493  0.1829  1.3592
41941SOL     OW29414   8.959   8.165   4.975  1.0308  0.1540  0.4101
41941SOL    HW129415   8.979   8.258   4.974  0.5911  0.2618  1.2025
41941SOL    HW229416   8.901   8.152   4.899  0.5512  0.6490  0.6862
41942SOL     OW29417   3.895   2.474   8.626  0.1060  0.0161 -0.1272
41942SOL    HW129418   3.855   2.503   8.708  0.4033 -0.0758  0.0514
41942SOL    HW229419   3.960   2.541   8.606  1.6088 -1.0774  0.8941
41943SOL     OW29420   6.819   0.342   0.375  0.1988  0.2895 -0.1031
41943SOL    HW129421   6.761   0.313   0.445 -0.1844 -1.6239 -1.1264
41943SOL    HW229422   6.763   0.342   0.297  0.9555  0.9833 -0.6612
41944SOL     OW29423   6.240  11.025   6.431 -0.2683  0.2603  0.2096
41944SOL    HW129424   6.305  11.028   6.361 -1.2617  1.3685 -0.7114
41944SOL    HW229425   6.291  11.001   6.509  1.0229 -0.0832 -0.6936
41945SOL     OW29426   6.766   0.388   1.241 -0.1415 -0.0492 -0.1604
41945SOL    HW129427   6.698   0.321   1.236 -0.3480  0.1769 -0.4371
41945SOL    HW229428   6.847   0.341   1.221 -0.1383 -0.4288  0.7077
41946SOL     OW29429   2.395   5.192   0.165 -0.2102 -0.2200  0.3768
41946SOL    HW129430   2.437   5.275   0.144  0.6627 -0.7381  0.0408
41946SOL    HW229431   2.356   5.163   0.083 -0.6632 -0.0710  0.5330
41947SOL     OW29432   5.862   4.361   9.754 -0.2293 -0.2663 -0.2006
41947SOL    HW129433   5.931   4.378   9.818 -0.4880 -2.8832  0.8782
41947SOL    HW229434   5.781   4.363   9.805 -0.7341  0.3694 -0.9989
41948SOL     OW29435  10.796   5.018   0.584  0.4077  0.0691 -0.4698
41948SOL    HW129436  10.751   4.986   0.506 -0.7922  0.1863  0.1448
41948SOL    HW229437  10.857   4.948   0.607 -0.6508 -0.8499 -0.3696
41949SOL     OW29438   5.323   6.796   3.231 -0.2902  0.2957 -0.1009
41949SOL    HW129439   5.265   6.746   3.172  2.8432 -1.2159 -2.1946
41949SOL    HW229440   5.382   6.730   3.268  0.2618  1.7754  1.8036
41950SOL     OW29441   1.304   4.458   8.293 -0.0349 -0.6548  0.6492
41950SOL    HW129442   1.395   4.451   8.264 -0.2346  2.0549 -0.9204
41950SOL    HW229443   1.309   4.495   8.381  0.4086  0.4436  0.1811
41951SOL     OW29444   7.643   0.085   9.950  0.0134 -0.2068  0.5163
41951SOL    HW129445   7.703   0.155   9.923 -2.3266  1.3304 -1.0167
41951SOL    HW229446   7.615   0.110  10.038  0.0011  0.2351  0.3901
41952SOL     OW29447   9.333   7.005   9.404  0.3432  0.2602  0.2090
41952SOL    HW129448   9.343   6.917   9.440 -0.3140  0.4561  0.9014
41952SOL    HW229449   9.357   6.996   9.312  2.8702 -0.0955  0.8291
41953SOL     OW29450   3.665   2.821  10.724 -0.5138 -0.1262  0.4626
41953SOL    HW129451   3.639   2.739  10.766 -0.3830  0.0888  0.9709
41953SOL    HW229452   3.730   2.859  10.783  2.3827 -1.4839 -1.6149
41954SOL     OW29453   3.195   0.087   2.229 -0.0403  0.5525 -0.1187
41954SOL    HW129454   3.199   0.106   2.323  2.5911  2.3338 -0.4671
41954SOL    HW229455   3.102   0.077   2.210 -0.7339  1.3310  2.4782
41955SOL     OW29456   7.409   7.399   7.853  0.2040 -0.4226 -0.5061
41955SOL    HW129457   7.369   7.486   7.860  1.5067  0.1561  0.0974
41955SOL    HW229458   7.464   7.405   7.774 -0.8538 -1.2025 -1.3231
41956SOL     OW29459   7.762   7.434   8.187 -0.6374  0.3630  0.3401
41956SOL    HW129460   7.806   7.508   8.228 -0.8934  0.4421  0.4782
41956SOL    HW229461   7.671   7.463   8.177 -0.0579  1.4861 -2.9179
41957SOL     OW29462   5.980   4.472   4.162 -0.2241  0.1736 -0.0498
41957SOL    HW129463   5.906   4.433   4.115 -0.7587  0.4211  0.5823
41957SOL    HW229464   5.998   4.412   4.234 -0.3000  0.5058  0.2455
41958SOL     OW29465   3.283   6.044  10.411 -0.2227  0.3583  0.3143
41958SOL    HW129466   3.358   6.102  10.421  0.9844 -1.2018  0.5953
41958SOL    HW229467   3.237   6.078  10.334  1.8020  0.2670 -1.0003
41959SOL     OW29468   6.673   0.010   1.506 -0.1149 -0.1830 -0.6095
41959SOL    HW129469   6.649   0.101   1.522  0.4877 -0.3225  1.4665
41959SOL    HW229470   6.630  -0.039   1.576  0.4882 -1.3403 -1.0128
41960SOL     OW29471   2.151   4.830   8.625  0.4202 -0.1899  0.4661
41960SOL    HW129472   2.083   4.794   8.568  0.1743  1.0114 -0.0319
41960SOL    HW229473   2.231   4.784   8.600 -0.1265 -1.3922  0.8363
41961SOL     OW29474   4.086   8.004   8.184  0.0859 -0.0035  0.6358
41961SOL    HW129475   4.079   7.946   8.261 -0.2211  0.7258  1.1684
41961SOL    HW229476   4.004   7.990   8.136  0.3371 -0.5632  0.3602
41962SOL     OW29477  10.582  10.768   3.290  0.4472  0.8876  0.4154
41962SOL    HW129478  10.521  10.698   3.309 -0.6515  1.5194 -0.6361
41962SOL    HW229479  10.646  10.764   3.361 -0.4643 -0.1795  1.2157
41963SOL     OW29480   4.918   6.391   0.608  0.3040 -0.5374  0.1017
41963SOL    HW129481   4.984   6.357   0.548 -0.5861  0.9787 -1.8263
41963SOL    HW229482   4.834   6.362   0.572 -0.2251 -0.0812  0.9302
41964SOL     OW29483   9.960   3.133   0.990  0.1370 -0.3394 -0.2640
41964SOL    HW129484   9.913   3.054   1.015 -1.6110  0.6754 -0.2165
41964SOL    HW229485  10.038   3.134   1.047 -0.6266 -1.2090  0.8299
41965SOL     OW29486   6.758   9.939   8.417  0.0750 -0.8998  0.0513
41965SOL    HW129487   6.684   9.972   8.366  0.0997  0.5002  0.8698
41965SOL    HW229488   6.809   9.887   8.355  1.1580  2.2608 -1.9069
41966SOL     OW29489   7.563   6.174   7.872 -0.5558 -0.2060  0.2117
41966SOL    HW129490   7.609   6.258   7.877  0.4724 -0.7216 -0.1701
41966SOL    HW229491   7.541   6.164   7.780  1.0176 -1.1951 -0.0978
41967SOL     OW29492   3.530   9.611   9.425  0.3280 -0.5801 -0.5156
41967SOL    HW129493   3.452   9.663   9.409  0.6240  1.1864  2.9109
41967SOL    HW229494   3.597   9.651   9.370 -0.6822 -0.9142 -2.0472
41968SOL     OW29495   8.007   2.853   8.764 -0.7296 -0.6310 -0.4611
41968SOL    HW129496   8.072   2.891   8.823 -0.5163 -1.4416 -0.1690
41968SOL    HW229497   7.952   2.927   8.739  1.7709  0.6241 -2.7201
41969SOL     OW29498   9.469   4.755   2.589  0.1983 -0.2321  0.0776
41969SOL    HW129499   9.525   4.732   2.664  0.2618 -1.3444 -0.3028
41969SOL    HW229500   9.517   4.826   2.545  1.0540 -0.7989  0.0677
41970SOL     OW29501   6.694   2.177   5.469 -0.1527 -0.1485  0.0709
41970SOL    HW129502   6.681   2.231   5.548  2.0294 -1.9937  1.8308
41970SOL    HW229503   6.618   2.119   5.467 -0.4482  0.2118  0.5525
41971SOL     OW29504   1.513   1.060   6.417 -0.9025 -0.3266 -0.4617
41971SOL    HW129505   1.462   0.985   6.448  0.4942 -1.3463 -0.5204
41971SOL    HW229506   1.456   1.135   6.430 -2.1992 -1.3522 -0.0227
41972SOL     OW29507   1.403   7.312   2.695 -0.4327 -0.3960 -0.3499
41972SOL    HW129508   1.336   7.270   2.747  0.3765 -1.3201 -0.0290
41972SOL    HW229509   1.412   7.399   2.734  0.6593 -1.2966  1.5676
41973SOL     OW29510   1.277   9.822   0.361  0.0191  0.0045 -0.3088
41973SOL    HW129511   1.235   9.737   0.365  0.3676 -0.1823 -0.5589
41973SOL    HW229512   1.366   9.804   0.330  0.4756  0.3215  0.7638
41974SOL     OW29513   5.935  10.881   4.848 -0.5252  0.4015  0.1865
41974SOL    HW129514   5.956  10.831   4.769 -0.9566 -0.0346  0.3403
41974SOL    HW229515   5.995  10.955   4.847 -0.2896  0.2036 -0.3658
41975SOL     OW29516   9.235   3.747   9.112 -0.1809 -0.1068 -0.0410
41975SOL    HW129517   9.162   3.709   9.064 -0.4850  0.5297 -0.0964
41975SOL    HW229518   9.272   3.812   9.052 -1.6914  2.0105  1.1901
41976SOL     OW29519   1.047   0.182   1.241  0.4453 -0.1175  0.3326
41976SOL    HW129520   1.116   0.240   1.272  1.1266 -1.0589  0.6019
41976SOL    HW229521   0.997   0.236   1.180  2.5006  0.0931 -1.2927
41977SOL     OW29522   6.654   5.731   9.820 -0.8607  0.0020 -0.0781
41977SOL    HW129523   6.684   5.641   9.820 -0.2983  0.1870 -0.2605
41977SOL    HW229524   6.661   5.759   9.728 -0.1700  0.5064  0.1159
41978SOL     OW29525   1.483   3.757  10.339 -0.2926  0.1202  0.0047
41978SOL    HW129526   1.495   3.762  10.434 -0.4077  0.5624 -0.0023
41978SOL    HW229527   1.488   3.848  10.310  1.1953 -0.1233 -0.5979
41979SOL     OW29528   1.172   6.232   8.024 -0.2853  0.0963  0.0630
41979SOL    HW129529   1.245   6.174   8.005  2.1288  1.5705  3.8182
41979SOL    HW229530   1.184   6.306   7.963  2.0758  0.7900  1.2640
41980SOL     OW29531   9.786   5.400  10.534 -0.6977  0.2859 -0.1185
41980SOL    HW129532   9.782   5.401  10.438 -0.1353  1.3473 -0.1421
41980SOL    HW229533   9.775   5.307  10.557  0.4302 -0.1660 -1.2669
41981SOL     OW29534   6.295   9.075   8.556  0.7074 -0.1094  0.4153
41981SOL    HW129535   6.363   9.030   8.605  0.0804 -0.8643  0.6094
41981SOL    HW229536   6.310   9.168   8.573  0.9307 -0.3304  1.4547
41982SOL     OW29537   8.805   0.510   3.917  0.2316  0.1230  0.2124
41982SOL    HW129538   8.813   0.536   3.825 -0.4682 -1.1011 -0.2214
41982SOL    HW229539   8.890   0.470   3.938 -0.6343 -2.5899 -0.9526
41983SOL     OW29540   8.066   0.289   6.356  0.0262 -0.1364 -0.6007
41983SOL    HW129541   8.114   0.246   6.285 -0.2928  0.8324 -1.4205
41983SOL    HW229542   8.093   0.381   6.351 -0.1777 -0.0098  0.3909
41984SOL     OW29543   7.166   6.833   8.561 -0.1538 -0.1681  0.3140
41984SOL    HW129544   7.120   6.901   8.610  0.5450  0.3428  0.2816
41984SOL    HW229545   7.098   6.768   8.540 -0.5337 -0.2415  1.6563
41985SOL     OW29546   1.684   2.483   6.366 -0.0064 -0.5271 -0.3625
41985SOL    HW129547   1.679   2.489   6.461  1.2745  1.4262 -0.3431
41985SOL    HW229548   1.769   2.441   6.349  0.1079 -0.1956 -0.6316
41986SOL     OW29549   5.144   7.684   5.233  0.1646 -0.0398  0.0241
41986SOL    HW129550   5.141   7.600   5.186 -1.4529  0.3079 -0.5418
41986SOL    HW229551   5.153   7.750   5.165  0.5527  0.3066  0.4047
41987SOL     OW29552   6.533   8.581   2.316 -0.1131  0.4563  0.2873
41987SOL    HW129553   6.575   8.502   2.350 -0.9500 -0.9692 -1.7673
41987SOL    HW229554   6.439   8.562   2.319 -0.2698  0.6541 -1.7088
41988SOL     OW29555  10.570   9.265   2.787  1.0342  0.0410 -0.1927
41988SOL    HW129556  10.636   9.319   2.831  1.4355  0.6009 -1.4444
41988SOL    HW229557  10.610   9.178   2.783  1.3347  0.1776 -0.1898
41989SOL     OW29558   9.126   8.394   8.144 -0.3656 -0.2886 -0.1958
41989SOL    HW129559   9.129   8.352   8.059  0.8479 -2.1519  0.6940
41989SOL    HW229560   9.070   8.338   8.198  0.9052 -0.5816  0.8901
41990SOL     OW29561   8.758   6.723   3.820 -0.0838  0.4564 -0.0359
41990SOL    HW129562   8.851   6.738   3.839 -0.2378 -0.0069  1.2302
41990SOL    HW229563   8.756   6.638   3.777  0.1357  0.7643 -0.6573
41991SOL     OW29564   6.957   6.123   6.725  0.2898  0.1048 -0.7341
41991SOL    HW129565   6.925   6.195   6.778  0.9036  0.4041 -0.7632
41991SOL    HW229566   7.032   6.159   6.678 -0.3167 -0.1160 -1.9007
41992SOL     OW29567  10.363   3.848   0.423  0.0870  0.6169 -0.1870
41992SOL    HW129568  10.402   3.852   0.336  0.1903 -0.5812 -0.2144
41992SOL    HW229569  10.333   3.937   0.440 -0.4560  0.7396 -1.6799
41993SOL     OW29570   6.093   3.271   8.256 -0.3634  0.0207  0.1541
41993SOL    HW129571   6.167   3.330   8.249 -1.0501  0.6913 -3.5317
41993SOL    HW229572   6.124   3.188   8.222 -0.9823 -0.0457 -0.2647
41994SOL     OW29573   8.479   9.131   4.905  0.1100  0.0908  0.0035
41994SOL    HW129574   8.543   9.060   4.900  2.7868  2.3181  0.3105
41994SOL    HW229575   8.450   9.131   4.996  1.3586  0.3795  0.4205
41995SOL     OW29576   9.615   7.676   4.305  0.5486  0.0087  0.6805
41995SOL    HW129577   9.631   7.737   4.233 -0.4692  0.1511  0.5522
41995SOL    HW229578   9.688   7.689   4.365  1.4468 -0.1506 -0.3401
41996SOL     OW29579   7.924   1.870   7.621  0.6801  0.0263  0.2210
41996SOL    HW129580   7.928   1.964   7.604  1.6557 -0.1304 -0.5298
41996SOL    HW229581   7.968   1.858   7.704  1.5987  0.1124 -0.2472
41997SOL     OW29582   6.907   0.708   4.815 -0.2222  0.0143 -0.8248
41997SOL    HW129583   6.860   0.791   4.828  0.8325  0.6384 -0.8866
41997SOL    HW229584   6.899   0.663   4.899  2.4637  1.9046  0.5853
41998SOL     OW29585   6.014   4.605   4.665 -0.2193 -0.2201 -0.0823
41998SOL    HW129586   5.960   4.611   4.744 -0.2056  0.6826 -0.1288
41998SOL    HW229587   5.970   4.539   4.611 -2.0286  1.3873 -0.6736
41999SOL     OW29588   7.968  10.510   6.097  0.0015 -0.2025 -0.5037
41999SOL    HW129589   7.988  10.599   6.127  0.2467 -0.8383  1.3835
41999SOL    HW229590   7.934  10.466   6.175 -3.7042 -0.7688 -2.2155
42000SOL     OW29591   7.410  10.122   7.094 -0.1496  0.2245  0.5377
42000SOL    HW129592   7.497  10.148   7.064  0.3389 -1.0652  0.7697
42000SOL    HW229593   7.409  10.142   7.187 -0.4052  0.9758  0.3834
42001SOL     OW29594   0.479   6.469   6.833 -0.4485 -0.2344  0.0191
42001SOL    HW129595   0.417   6.433   6.897 -0.7388 -1.3295 -0.8509
42001SOL    HW229596   0.510   6.550   6.873  0.5726 -1.6431  2.2464
42002SOL     OW29597   4.180   1.909   6.023 -0.1767  0.1873  0.5481
42002SOL    HW129598   4.221   1.823   6.012  3.0507  1.6505  0.1287
42002SOL    HW229599   4.199   1.956   5.942 -2.1287  1.2618  0.6477
42003SOL     OW29600   3.233   4.000   8.679 -0.2943  0.5618 -0.1648
42003SOL    HW129601   3.197   4.045   8.603 -1.6723  0.1798  0.2365
42003SOL    HW229602   3.282   3.926   8.642 -2.1451 -0.4748 -0.6898
42004SOL     OW29603   6.160   2.562   4.111 -0.1041  0.3189 -0.1997
42004SOL    HW129604   6.129   2.550   4.021 -0.3775  1.4168 -0.2744
42004SOL    HW229605   6.099   2.626   4.149 -2.4732 -2.9092  2.0596
42005SOL     OW29606   2.548   7.821   4.586 -0.0007 -0.2823  0.5457
42005SOL    HW129607   2.574   7.902   4.630 -0.2802  0.3656 -0.4368
42005SOL    HW229608   2.491   7.777   4.649 -0.9049  0.9331  0.6211
42006SOL     OW29609   2.473   4.545   6.490  0.2930 -0.7802 -0.2164
42006SOL    HW129610   2.522   4.465   6.472  2.1311  0.3241 -0.4173
42006SOL    HW229611   2.400   4.543   6.429  0.7080 -1.9544 -0.7023
42007SOL     OW29612   8.041   4.753   7.197  0.4290  0.8438  0.3068
42007SOL    HW129613   8.107   4.695   7.159 -0.1810  0.0319  0.4551
42007SOL    HW229614   8.062   4.839   7.162  2.9407  1.0594  2.0986
42008SOL     OW29615   6.737   3.183   6.504  0.3141 -0.1170 -0.0931
42008SOL    HW129616   6.712   3.269   6.472 -0.4919 -0.1092  0.5203
42008SOL    HW229617   6.830   3.191   6.525  1.0614 -0.2915 -2.8905
42009SOL     OW29618   8.684   5.121   1.286  0.0971  0.0409 -0.3122
42009SOL    HW129619   8.693   5.028   1.265  0.2416  0.4265 -2.1314
42009SOL    HW229620   8.592   5.140   1.270  0.3735  0.5184 -1.4083
42010SOL     OW29621   9.702   3.188   5.036 -0.2117 -0.1800 -0.3438
42010SOL    HW129622   9.631   3.159   4.979 -1.1891  0.7517  0.3647
42010SOL    HW229623   9.714   3.117   5.098 -0.4928 -0.3532 -0.4892
42011SOL     OW29624   8.847   1.686   2.772 -0.2906 -0.5675 -0.0139
42011SOL    HW129625   8.803   1.717   2.693  1.5766  0.2738 -0.8029
42011SOL    HW229626   8.939   1.676   2.746  0.3572 -0.4350  1.9869
42012SOL     OW29627   2.484   3.504   8.426 -0.0300  0.6556 -0.0384
42012SOL    HW129628   2.465   3.420   8.469  1.8062 -0.1099 -0.6161
42012SOL    HW229629   2.547   3.546   8.485  0.9157  0.5143 -0.9208
42013SOL     OW29630   0.994  10.866   2.682  0.5333  0.8287 -0.3475
42013SOL    HW129631   0.934  10.799   2.715 -0.4848  0.8756 -2.0176
42013SOL    HW229632   1.039  10.898   2.761 -1.5897  0.7624  0.9831
42014SOL     OW29633   6.678   6.641   7.398  0.1887  0.3182  0.1706
42014SOL    HW129634   6.689   6.728   7.360  1.3846 -0.3955 -1.2251
42014SOL    HW229635   6.586   6.636   7.423 -0.8856  0.6383 -3.2490
42015SOL     OW29636   3.132   1.281  10.312  0.0905 -0.0478 -0.2932
42015SOL    HW129637   3.134   1.189  10.287 -1.5068  0.0664 -0.9268
42015SOL    HW229638   3.119   1.328  10.229 -1.0300  0.6200  0.2411
42016SOL     OW29639   1.862   8.140   0.670  0.0855  0.5041  0.2956
42016SOL    HW129640   1.767   8.140   0.679  0.1435 -0.2788  0.9720
42016SOL    HW229641   1.877   8.171   0.580 -1.0044 -3.4624 -1.5038
42017SOL     OW29642   4.587   3.880  10.063  0.2075 -0.2939  0.1921
42017SOL    HW129643   4.496   3.901  10.083  0.5195  0.3457  0.9458
42017SOL    HW229644   4.602   3.917   9.976 -0.6243 -1.5355 -0.5080
42018SOL     OW29645   6.115   1.207   4.440 -0.0228 -0.2529  0.1074
42018SOL    HW129646   6.046   1.196   4.506 -0.7378 -1.4357 -0.7921
42018SOL    HW229647   6.164   1.124   4.442 -0.5206 -0.6100 -1.3292
42019SOL     OW29648   7.238   4.191   8.511 -0.0132 -0.1367  0.0928
42019SOL    HW129649   7.296   4.123   8.543  0.1868  0.2029  0.4565
42019SOL    HW229650   7.169   4.197   8.576 -0.4323 -0.5069 -0.3163
42020SOL     OW29651   0.560   4.905   3.767 -0.1126 -1.2492  0.1853
42020SOL    HW129652   0.589   4.905   3.858  0.4327  1.6531  0.1028
42020SOL    HW229653   0.624   4.960   3.722 -1.9480 -0.2940 -1.3766
42021SOL     OW29654   7.464   4.456   0.515  0.2341 -0.0973  0.3301
42021SOL    HW129655   7.457   4.452   0.420  0.4377  1.2029  0.2485
42021SOL    HW229656   7.418   4.378   0.546 -2.5711  1.0521 -0.6949
42022SOL     OW29657  10.417   0.332   6.483  0.4357 -0.3443  0.4643
42022SOL    HW129658  10.447   0.355   6.395 -0.3733 -0.6650  0.0882
42022SOL    HW229659  10.335   0.381   6.493 -0.0634 -1.1911  0.5886
42023SOL     OW29660   2.092   6.907   0.008  0.1219  0.6826 -0.4861
42023SOL    HW129661   2.143   6.826   0.011  0.1968  0.6878 -1.3431
42023SOL    HW229662   2.050   6.912   0.094  0.6457  0.0826 -0.1867
42024SOL     OW29663  10.316   8.723   8.766 -0.0988 -0.0328 -0.6163
42024SOL    HW129664  10.249   8.791   8.762  0.7739  0.8971  0.1504
42024SOL    HW229665  10.274   8.651   8.814  0.0935  1.3585  1.8181
42025SOL     OW29666  10.092   3.885  10.307 -0.2728 -0.0626 -0.0749
42025SOL    HW129667  10.125   3.973  10.320 -0.9311  0.0644  0.7694
42025SOL    HW229668  10.165   3.838  10.266 -0.2662  1.1276 -1.5112
42026SOL     OW29669   5.701   1.630   2.545  0.0062  0.6403  0.2191
42026SOL    HW129670   5.688   1.606   2.637  1.5010  2.7446  1.0601
42026SOL    HW229671   5.681   1.550   2.496 -0.7825 -0.5508  2.3685
42027SOL     OW29672   8.167   8.560   9.712 -0.2835 -0.0548  0.2228
42027SOL    HW129673   8.112   8.504   9.767 -0.1463 -0.1558  0.2561
42027SOL    HW229674   8.126   8.646   9.717 -0.2415 -0.0509  0.5301
42028SOL     OW29675   1.298   5.535   3.170 -0.2333 -0.3591  0.5020
42028SOL    HW129676   1.343   5.501   3.093 -0.0684 -2.0294  1.2963
42028SOL    HW229677   1.308   5.467   3.236 -0.9503  0.7419  1.8036
42029SOL     OW29678   7.540   7.496   6.573  0.1949 -0.1849 -0.8809
42029SOL    HW129679   7.514   7.411   6.536  1.2130 -1.3404  0.9421
42029SOL    HW229680   7.634   7.488   6.589 -0.1207  0.2949  1.6752
42030SOL     OW29681   6.122   8.451   7.429 -0.6276 -0.3732 -0.1344
42030SOL    HW129682   6.168   8.524   7.472  1.7428 -0.4555 -2.2876
42030SOL    HW229683   6.141   8.375   7.484 -0.9354  0.1889  0.7570
42031SOL     OW29684   0.558  10.649   8.088  0.4154 -0.0840  0.5219
42031SOL    HW129685   0.541  10.698   8.008  3.7295 -0.8613 -0.8309
42031SOL    HW229686   0.591  10.715   8.150 -1.7488  0.4432  1.2048
42032SOL     OW29687   9.482   7.686   8.372  0.1558 -0.1480  0.1599
42032SOL    HW129688   9.534   7.713   8.448  1.4302 -1.5608 -0.1690
42032SOL    HW229689   9.399   7.656   8.410  0.6609 -0.5593  0.9936
42033SOL     OW29690   5.061   7.836   2.341 -0.1177  0.5228  0.1096
42033SOL    HW129691   5.004   7.904   2.304  0.5638  1.3410  0.5222
42033SOL    HW229692   5.069   7.860   2.433  1.7820  1.0737 -0.1655
42034SOL     OW29693   8.147   4.636   5.166 -0.2168 -0.1883  0.3096
42034SOL    HW129694   8.156   4.576   5.092  0.1669  1.5867 -1.1422
42034SOL    HW229695   8.102   4.712   5.129  0.8610  1.1507  1.6614
42035SOL     OW29696   7.018   7.401   4.071 -0.8631 -0.0558  0.3716
42035SOL    HW129697   6.999   7.313   4.104  1.3573 -0.3263  1.0762
42035SOL    HW229698   7.023   7.390   3.976 -0.6885 -0.6879  0.4477
42036SOL     OW29699   3.111   7.815   2.540  0.4504 -0.6434  0.0947
42036SOL    HW129700   3.129   7.906   2.519  0.0485 -0.6529 -0.3236
42036SOL    HW229701   3.134   7.767   2.460 -0.0843 -0.8095  0.0365
42037SOL     OW29702   3.343   7.385   3.011  0.3544  0.3125 -0.0727
42037SOL    HW129703   3.318   7.382   3.103 -1.6830 -0.9926 -0.6013
42037SOL    HW229704   3.375   7.475   2.998  0.7460  0.5096  1.8763
42038SOL     OW29705   4.046   1.072   2.455  0.2704 -0.3869 -0.1819
42038SOL    HW129706   4.035   1.134   2.383 -1.6175 -1.7450 -1.1864
42038SOL    HW229707   4.135   1.086   2.487  0.0801  2.4618 -0.6485
42039SOL     OW29708   8.205   4.973   5.062 -0.0189  0.0776 -0.3276
42039SOL    HW129709   8.235   5.059   5.034  0.4456 -0.1222 -0.4422
42039SOL    HW229710   8.269   4.945   5.128  1.5230 -1.4267 -2.3468
42040SOL     OW29711   0.744   0.352   3.759  0.3543 -0.1521 -0.0635
42040SOL    HW129712   0.699   0.420   3.809  0.4707 -0.4004  0.3859
42040SOL    HW229713   0.833   0.386   3.747 -0.4054  1.2130 -2.6082
42041SOL     OW29714   3.656   9.221   8.392  0.1216 -0.3925 -0.0166
42041SOL    HW129715   3.728   9.220   8.455  0.1500 -0.2101 -0.0464
42041SOL    HW229716   3.699   9.214   8.306  0.1745  0.7149 -0.0981
42042SOL     OW29717  10.569   7.753   0.450 -0.4743 -0.2959 -0.1821
42042SOL    HW129718  10.476   7.764   0.427 -0.3440 -0.6451 -0.9057
42042SOL    HW229719  10.567   7.729   0.542 -1.0566  0.5083  0.0238
42043SOL     OW29720   3.159  10.342   4.189  0.4386 -0.0122  0.9814
42043SOL    HW129721   3.129  10.433   4.183 -0.8996 -0.4491  0.9123
42043SOL    HW229722   3.213  10.330   4.111 -1.8962 -0.1673 -0.7202
42044SOL     OW29723   6.025   9.654   7.819 -0.0864  0.1590 -0.1161
42044SOL    HW129724   6.087   9.652   7.746  1.0514 -0.3929  0.8228
42044SOL    HW229725   6.059   9.590   7.881 -1.5466 -0.0565  0.4977
42045SOL     OW29726   1.302   4.208   3.057 -0.5513  0.4506 -0.1142
42045SOL    HW129727   1.287   4.276   3.122 -0.5798  1.4835 -1.1880
42045SOL    HW229728   1.221   4.203   3.007 -0.8388 -0.9247  0.4138
42046SOL     OW29729   5.277   5.913   7.477 -0.1786  0.0758  0.3375
42046SOL    HW129730   5.274   5.894   7.571  0.5954  2.3486  0.8950
42046SOL    HW229731   5.192   5.950   7.458 -0.3578 -0.4442  0.1145
42047SOL     OW29732   1.067   5.312  10.961 -0.3722 -0.2919 -0.6425
42047SOL    HW129733   1.098   5.382  10.904 -1.3624 -1.2971 -2.5238
42047SOL    HW229734   1.144   5.287  11.012  0.0884  1.8828 -0.1722
42048SOL     OW29735   1.591  10.118   3.712 -0.6229  0.0397 -0.2629
42048SOL    HW129736   1.574  10.158   3.627 -1.9630 -1.5784 -0.8006
42048SOL    HW229737   1.676  10.075   3.702 -0.3897  0.5464 -0.4966
42049SOL     OW29738   8.746   1.384  10.968 -0.0505  0.1782 -0.3492
42049SOL    HW129739   8.742   1.418  11.058 -3.2021  0.2366 -0.4032
42049SOL    HW229740   8.769   1.292  10.978 -0.6236  0.1172  0.5654
42050SOL     OW29741   3.166   2.714   2.615  0.7691  0.0996 -0.2673
42050SOL    HW129742   3.168   2.678   2.526 -1.0522 -2.2720  0.5403
42050SOL    HW229743   3.187   2.639   2.671 -1.3109  0.7140  1.4560
42051SOL     OW29744   8.559   2.727   5.713 -0.6000 -0.5173  0.7760
42051SOL    HW129745   8.486   2.669   5.734 -0.3159 -0.4272  2.0778
42051SOL    HW229746   8.571   2.717   5.618 -1.3758 -1.6039  0.7767
42052SOL     OW29747   8.009   5.766   5.517  0.4223  0.5003  0.0800
42052SOL    HW129748   8.001   5.710   5.440 -1.3016  1.0334 -0.1638
42052SOL    HW229749   7.949   5.729   5.581  2.0907 -0.1371  1.3428
42053SOL     OW29750   1.848   1.220   5.998  0.7049  0.4058 -0.2662
42053SOL    HW129751   1.791   1.259   6.064 -0.0874 -0.7300 -0.2528
42053SOL    HW229752   1.928   1.199   6.046  0.3265  0.0554  0.2226
42054SOL     OW29753   3.457   2.660   6.325 -0.3751 -0.2473 -0.2469
42054SOL    HW129754   3.410   2.639   6.405 -1.6138  0.5825 -0.7203
42054SOL    HW229755   3.510   2.583   6.306 -0.1078 -0.4760  1.3230
42055SOL     OW29756   2.638   6.295   5.716  0.1184 -0.2739 -0.1275
42055SOL    HW129757   2.715   6.258   5.760 -0.4629  1.7677  2.8846
42055SOL    HW229758   2.663   6.385   5.696 -0.9411 -0.0806 -0.6552
42056SOL     OW29759   7.960   5.242   3.913  0.1403  0.1853 -0.6141
42056SOL    HW129760   7.958   5.287   3.829 -1.2475  3.0237  0.7838
42056SOL    HW229761   7.868   5.222   3.931  0.3173  0.3385  0.5529
42057SOL     OW29762   8.160   0.307   3.039 -0.0544  0.4609  0.1260
42057SOL    HW129763   8.167   0.230   3.095  0.2958 -0.8387 -1.6328
42057SOL    HW229764   8.189   0.380   3.095  1.5982 -0.9632  1.2301
42058SOL     OW29765   8.003   4.975   0.149  0.5442 -0.3093 -0.3170
42058SOL    HW129766   8.016   4.986   0.243 -0.3379  1.2369 -0.3325
42058SOL    HW229767   7.922   4.924   0.142  0.4944 -0.2437 -0.2236
42059SOL     OW29768   9.012   6.462   1.025  0.3594  0.6035  0.2558
42059SOL    HW129769   8.989   6.371   1.008  0.0949  0.6434  0.4009
42059SOL    HW229770   8.945   6.513   0.979 -0.3245  0.7156  1.3449
42060SOL     OW29771   0.114   5.026   2.232  0.1708 -0.3230  0.2117
42060SOL    HW129772   0.113   4.983   2.317 -0.1178  3.0401  2.0417
42060SOL    HW229773   0.030   5.070   2.225  0.7286  0.6156 -1.1843
42061SOL     OW29774   0.037   8.464   4.372 -0.1887  0.3459  0.3078
42061SOL    HW129775   0.091   8.540   4.393  1.1628 -0.3115 -0.6182
42061SOL    HW229776  -0.052   8.491   4.393  0.5721  1.1100  2.9315
42062SOL     OW29777   2.268   4.220   6.571  0.2573  0.8226  0.0850
42062SOL    HW129778   2.295   4.283   6.637  0.8902  1.5738 -0.8636
42062SOL    HW229779   2.306   4.137   6.600 -1.3709  0.6241  1.8390
42063SOL     OW29780   3.919   9.350  11.005  0.0467  0.5944  0.6208
42063SOL    HW129781   3.966   9.275  10.968 -1.2020  0.9403 -1.8438
42063SOL    HW229782   3.860   9.313  11.070 -0.8688 -0.6596 -0.8788
42064SOL     OW29783   9.798   1.120   6.774 -0.5284 -0.2702  0.4107
42064SOL    HW129784   9.826   1.211   6.774  0.2971 -0.4468 -1.8509
42064SOL    HW229785   9.721   1.119   6.716  0.3916 -1.2093 -0.8531
42065SOL     OW29786   3.741   4.501   0.976  0.3158 -0.0073 -0.7838
42065SOL    HW129787   3.744   4.561   0.901 -1.7191 -1.3921 -2.0703
42065SOL    HW229788   3.666   4.445   0.958  1.5310 -2.2909  0.8713
42066SOL     OW29789   7.506  11.060   8.683  0.8565  0.2243  0.1438
42066SOL    HW129790   7.474  11.021   8.602  3.3572 -0.0799 -0.7963
42066SOL    HW229791   7.559  10.991   8.723 -1.2882 -0.0764  2.7589
42067SOL     OW29792  10.657   3.669   7.272  0.5109  0.0847  0.2221
42067SOL    HW129793  10.599   3.723   7.218  0.3534 -0.6148 -0.3208
42067SOL    HW229794  10.683   3.597   7.214  0.2768 -0.7227  1.1030
42068SOL     OW29795   7.138   9.308   1.658  0.0461 -0.3752 -0.5761
42068SOL    HW129796   7.073   9.337   1.594  0.3849 -0.1495 -0.8221
42068SOL    HW229797   7.222   9.322   1.614  0.2158 -2.5605 -1.0870
42069SOL     OW29798   5.190   1.497   4.492 -0.4667  0.0058  0.0736
42069SOL    HW129799   5.181   1.410   4.453  0.0944 -0.2054  0.3897
42069SOL    HW229800   5.238   1.548   4.426 -0.7672  0.0651 -0.0981
42070SOL     OW29801  10.560   1.152   4.576  0.8763 -0.1932  0.7584
42070SOL    HW129802  10.491   1.089   4.598 -0.8056  0.6165 -1.8294
42070SOL    HW229803  10.530   1.234   4.617 -1.0033  0.7097 -2.1145
42071SOL     OW29804   0.373   5.292  10.575 -0.3863  0.7326  0.2518
42071SOL    HW129805   0.328   5.209  10.593 -0.4476  0.4490 -1.0985
42071SOL    HW229806   0.353   5.310  10.483  2.8556  0.2168 -0.6602
42072SOL     OW29807   6.935   2.737   4.038 -0.4259  0.6661 -0.0408
42072SOL    HW129808   6.942   2.741   4.134  2.7607 -0.0926 -0.1311
42072SOL    HW229809   6.914   2.827   4.012 -2.7680  0.6145  1.3564
42073SOL     OW29810   2.448   5.765   0.566 -0.1834 -0.0243  0.4838
42073SOL    HW129811   2.467   5.679   0.527  2.2461 -0.1587  1.7883
42073SOL    HW229812   2.523   5.819   0.541 -0.7551  1.1598  1.2819
42074SOL     OW29813   3.994   2.238   2.632  0.3230 -0.5816 -0.0475
42074SOL    HW129814   3.915   2.285   2.656  1.3016  1.0518  0.0683
42074SOL    HW229815   4.005   2.255   2.538  0.3661 -1.0881 -0.1404
42075SOL     OW29816   4.944   0.840   8.201 -0.5889 -0.3219  0.0912
42075SOL    HW129817   5.037   0.849   8.179 -1.2736  1.8295 -2.3287
42075SOL    HW229818   4.903   0.807   8.121 -2.0893 -0.0712  0.7234
42076SOL     OW29819   1.894   9.083   1.245  0.9706 -0.2872 -0.1713
42076SOL    HW129820   1.988   9.065   1.253  1.1097  0.9455  1.4499
42076SOL    HW229821   1.889   9.156   1.183  0.9041 -1.4665 -1.6181
42077SOL     OW29822   2.788   4.296   5.229 -0.6253 -0.0630 -0.2775
42077SOL    HW129823   2.881   4.296   5.252 -0.9274  0.6175  1.0297
42077SOL    HW229824   2.751   4.370   5.277 -1.9642 -0.6826 -0.3031
42078SOL     OW29825   3.585   9.422   7.774  0.4130 -0.2082 -0.0523
42078SOL    HW129826   3.501   9.394   7.736  0.4623 -0.2827 -0.1062
42078SOL    HW229827   3.646   9.352   7.752  0.4698 -0.1957  0.0636
42079SOL     OW29828   7.959   2.532  10.023  0.5990 -0.5214 -0.0698
42079SOL    HW129829   8.037   2.586  10.035  1.1849 -1.5979  1.2477
42079SOL    HW229830   7.987   2.460   9.967  1.2933 -2.2099  2.2815
42080SOL     OW29831   7.425   1.476   1.498 -0.6211  0.6126 -0.3784
42080SOL    HW129832   7.503   1.508   1.544 -0.6142 -2.1195  1.8093
42080SOL    HW229833   7.352   1.502   1.553 -0.9216  0.1695 -0.5593
42081SOL     OW29834   1.211   7.720   1.191  0.1134 -0.0429 -0.2248
42081SOL    HW129835   1.132   7.673   1.165  0.0567 -0.5686  0.8336
42081SOL    HW229836   1.182   7.810   1.203 -0.1481 -0.0719 -0.6218
42082SOL     OW29837   5.305   5.820   8.463 -0.0249  0.2351  0.5181
42082SOL    HW129838   5.398   5.799   8.454  0.1832  1.2598  0.1281
42082SOL    HW229839   5.262   5.735   8.474  0.7835 -0.3786 -0.7878
42083SOL     OW29840   4.571   9.818   2.278  0.1358 -0.3321 -0.5840
42083SOL    HW129841   4.661   9.852   2.285  0.1184 -0.4907  0.4678
42083SOL    HW229842   4.517   9.895   2.265  0.4720 -0.2819 -1.8597
42084SOL     OW29843   9.292   0.955   4.620  0.1602  0.1848 -0.0457
42084SOL    HW129844   9.246   0.977   4.702  0.4774  2.1893 -0.3706
42084SOL    HW229845   9.241   0.881   4.584 -0.2004 -0.5015  1.7466
42085SOL     OW29846   4.946   9.509   6.498  0.3005 -0.2684  0.0212
42085SOL    HW129847   5.016   9.560   6.458  0.4046 -0.7865 -0.4632
42085SOL    HW229848   4.967   9.508   6.591 -0.1677  1.3011  0.1679
42086SOL     OW29849   1.141   9.877   8.456  0.3593  0.1379  0.0640
42086SOL    HW129850   1.080   9.949   8.471  0.8845  0.3821  1.1628
42086SOL    HW229851   1.227   9.916   8.473  0.8223 -0.2148 -1.3973
42087SOL     OW29852   4.228   1.618   8.833 -0.6425 -0.0829 -0.0584
42087SOL    HW129853   4.248   1.565   8.756 -1.9602 -0.2713 -0.3048
42087SOL    HW229854   4.260   1.706   8.811 -0.6743 -0.2208 -0.6669
42088SOL     OW29855   0.217   6.181   3.683  0.2909  0.0917  0.0154
42088SOL    HW129856   0.230   6.183   3.588 -0.0532  1.5589 -0.0186
42088SOL    HW229857   0.153   6.111   3.697 -0.6830  0.7486 -0.9761
42089SOL     OW29858   7.234   5.595   0.221 -0.2901 -0.5959  0.0487
42089SOL    HW129859   7.229   5.512   0.174 -0.5966  0.4607 -1.8780
42089SOL    HW229860   7.219   5.662   0.155  0.3836  1.0457  1.4539
42090SOL     OW29861   2.524   3.381   9.117 -0.3315  0.3223 -0.1829
42090SOL    HW129862   2.528   3.351   9.208  0.9782  0.5380 -0.1446
42090SOL    HW229863   2.550   3.304   9.065 -1.7469 -0.0030 -0.4386
42091SOL     OW29864   2.951   4.618   5.405  0.6175 -0.1555 -0.2181
42091SOL    HW129865   2.886   4.680   5.439 -0.3197 -1.0109 -0.4094
42091SOL    HW229866   2.900   4.542   5.379  1.4468 -0.0714 -2.3130
42092SOL     OW29867   4.536   0.983   2.491 -0.4701 -0.1800 -0.3659
42092SOL    HW129868   4.626   0.980   2.522 -0.8022 -0.1110  0.6436
42092SOL    HW229869   4.538   0.938   2.407  0.2060 -1.7064  0.4314
42093SOL     OW29870   2.136   4.666   4.948 -0.3951  0.1735  0.2536
42093SOL    HW129871   2.093   4.733   5.000 -1.3071 -1.0661  1.1809
42093SOL    HW229872   2.080   4.655   4.872  0.9489  2.0004 -1.0647
42094SOL     OW29873   2.041   5.593   8.616  1.1632  0.8841  0.3808
42094SOL    HW129874   2.097   5.623   8.545  0.9661  0.4155  0.0185
42094SOL    HW229875   1.954   5.586   8.577  1.6018 -2.5888 -0.3338
42095SOL     OW29876  10.305   4.058   3.079 -0.3145  0.1884 -0.1262
42095SOL    HW129877  10.389   4.062   3.125  0.1463  1.1515 -1.0277
42095SOL    HW229878  10.319   3.995   3.008 -0.1369  0.8578 -0.6916
42096SOL     OW29879   5.750   3.415   2.533 -0.1195  0.1488 -0.0034
42096SOL    HW129880   5.721   3.503   2.558  1.6634  1.1382 -1.1466
42096SOL    HW229881   5.844   3.416   2.549  0.0890 -1.2059 -0.9933
42097SOL     OW29882  10.299   1.076   7.672  0.1349 -0.2983  0.0540
42097SOL    HW129883  10.221   1.101   7.624  0.4209 -0.0772 -0.3011
42097SOL    HW229884  10.370   1.084   7.609  0.4151 -0.7077  0.3140
42098SOL     OW29885   0.679   5.702   0.502  0.2267  0.2272  0.4203
42098SOL    HW129886   0.591   5.731   0.526  0.4805  1.7714 -0.4500
42098SOL    HW229887   0.724   5.781   0.472  1.0802 -0.9685 -1.6698
42099SOL     OW29888   2.313   6.151   0.928  0.0723  0.3240  0.3354
42099SOL    HW129889   2.376   6.133   0.998  1.9229 -0.9414 -1.5592
42099SOL    HW229890   2.347   6.229   0.885 -1.2367  1.2851  0.9592
42100SOL     OW29891   0.925   4.664   1.579  0.0011 -0.2554 -0.0356
42100SOL    HW129892   0.866   4.729   1.617 -0.9877 -0.8364 -0.5334
42100SOL    HW229893   0.966   4.709   1.505 -0.7202 -0.2173 -0.4126
42101SOL     OW29894   1.483   6.644   3.610  0.1301 -0.1078 -0.4903
42101SOL    HW129895   1.483   6.733   3.646  0.1038  0.4946 -1.9181
42101SOL    HW229896   1.573   6.629   3.583 -0.2468  0.3283 -2.1519
42102SOL     OW29897  10.914   6.533   4.275 -0.4359 -0.4627  0.3820
42102SOL    HW129898  10.836   6.529   4.220  0.8802 -0.0753 -1.5857
42102SOL    HW229899  10.941   6.625   4.273  0.4970 -0.7208  0.4085
42103SOL     OW29900   5.248   8.669   0.501  0.2047  0.2189 -0.0735
42103SOL    HW129901   5.312   8.719   0.553  1.8909 -1.4780 -0.4373
42103SOL    HW229902   5.300   8.608   0.451 -1.5981  0.0958 -1.9116
42104SOL     OW29903   8.688  11.048  11.046 -1.0095 -0.0987  0.6401
42104SOL    HW129904   8.760  11.089  11.096 -0.4249  0.7921 -0.8545
42104SOL    HW229905   8.609  11.076  11.092 -0.4474 -0.5761  1.9579
42105SOL     OW29906   7.689   0.102   1.422  0.3356 -0.1164 -0.1433
42105SOL    HW129907   7.759   0.070   1.479  0.1559 -0.3047 -0.0263
42105SOL    HW229908   7.614   0.045   1.441  0.1500  0.0815 -0.2667
42106SOL     OW29909   6.264   3.661   2.677  0.1665 -0.8101  0.3201
42106SOL    HW129910   6.185   3.704   2.644 -0.1704 -1.3712  0.3857
42106SOL    HW229911   6.274   3.693   2.766 -1.1601 -2.3130  1.0312
42107SOL     OW29912   6.749   9.937   0.486  0.0374 -0.0659  0.0481
42107SOL    HW129913   6.799   9.974   0.413 -0.3226  1.4300  0.5369
42107SOL    HW229914   6.786   9.850   0.499  0.5901 -0.0724 -1.4472
42108SOL     OW29915   5.761   1.663   2.185  0.3101  0.6223 -0.1460
42108SOL    HW129916   5.741   1.626   2.099 -0.8535 -0.1165  0.4189
42108SOL    HW229917   5.790   1.587   2.237  0.0893  0.9019  0.3865
42109SOL     OW29918   4.807   1.432   3.295  0.7476 -0.3519  0.2784
42109SOL    HW129919   4.884   1.489   3.305  1.1770 -0.5947 -1.4167
42109SOL    HW229920   4.734   1.492   3.285  1.0768 -0.0807 -0.6039
42110SOL     OW29921  10.015   7.485   3.098  0.7163 -0.4950  0.1555
42110SOL    HW129922   9.928   7.457   3.070  2.2943 -4.7490 -1.3175
42110SOL    HW229923  10.005   7.504   3.192 -2.2045  1.9525 -0.4765
42111SOL     OW29924   6.532   4.596   3.670  0.0895 -0.5972  0.1266
42111SOL    HW129925   6.588   4.661   3.628 -0.3378 -0.5206 -0.3307
42111SOL    HW229926   6.538   4.518   3.614 -1.9660  0.0963 -1.2083
42112SOL     OW29927   3.626   0.713  10.196  0.4361  0.1786 -0.0235
42112SOL    HW129928   3.676   0.743  10.272  0.7010 -1.8426  0.6595
42112SOL    HW229929   3.615   0.619  10.210 -1.6327  0.1683 -1.2910
42113SOL     OW29930   0.049   0.730   5.261 -0.3851 -0.6097  0.5124
42113SOL    HW129931  -0.027   0.746   5.317 -0.3349 -0.9359  0.6748
42113SOL    HW229932   0.028   0.649   5.214 -0.9199  0.2558 -0.7869
42114SOL     OW29933   3.524   0.560   5.260 -0.0890  0.0885 -0.2246
42114SOL    HW129934   3.430   0.566   5.279 -0.3129 -0.8697 -0.9279
42114SOL    HW229935   3.532   0.588   5.169  0.1729 -0.6612 -0.4388
42115SOL     OW29936   2.883   6.401   1.917  0.4431 -0.0476 -0.1865
42115SOL    HW129937   2.846   6.322   1.877  0.2221  0.3333 -0.7353
42115SOL    HW229938   2.874   6.469   1.850  0.2805  0.5420  0.4232
42116SOL     OW29939  10.522   0.323   3.807 -0.2961  0.3257  0.3868
42116SOL    HW129940  10.566   0.396   3.850  0.4213  1.0016 -1.3877
42116SOL    HW229941  10.591   0.258   3.795 -0.2767  0.4802 -0.4213
42117SOL     OW29942   4.934   2.394   7.974 -0.1146  0.4664 -0.3413
42117SOL    HW129943   4.842   2.404   7.949 -0.8117 -1.4402  1.2178
42117SOL    HW229944   4.931   2.354   8.060  2.1948 -0.3262 -0.5722
42118SOL     OW29945   2.285   4.267  10.989 -0.0380  0.1948 -0.4104
42118SOL    HW129946   2.214   4.324  10.957  0.6517  0.6812 -1.0942
42118SOL    HW229947   2.272   4.184  10.944 -1.7473 -0.6438  1.4466
42119SOL     OW29948   1.703  10.891  10.102  0.5169 -0.5876 -0.7355
42119SOL    HW129949   1.744  10.811  10.070 -3.3339 -3.0557 -0.1799
42119SOL    HW229950   1.621  10.861  10.142 -0.5844  3.5686  0.6004
42120SOL     OW29951   4.601   4.892   4.555 -0.1420 -0.1518 -0.5025
42120SOL    HW129952   4.582   4.814   4.607 -0.1711  0.1647 -0.0394
42120SOL    HW229953   4.696   4.898   4.553 -0.0672  1.6675  2.3181
42121SOL     OW29954   0.491   0.532   0.175 -1.1067  0.1308 -0.1295
42121SOL    HW129955   0.525   0.455   0.130 -2.3838 -0.1920 -0.5813
42121SOL    HW229956   0.567   0.589   0.187 -0.1875 -1.0949  0.0141
42122SOL     OW29957  11.089   3.321   9.614  0.2622 -0.0006  0.0561
42122SOL    HW129958  11.012   3.341   9.668  1.8606 -0.3537  2.6282
42122SOL    HW229959  11.092   3.225   9.611  0.0501  0.0071 -0.9581
42123SOL     OW29960   6.492   6.317   8.660  0.3511  0.4807 -0.4952
42123SOL    HW129961   6.570   6.339   8.711  0.7482  3.0274 -2.0136
42123SOL    HW229962   6.489   6.221   8.659  3.4677  0.2981 -0.3753
42124SOL     OW29963   6.503   7.594  10.557  0.4070  0.1297 -0.0264
42124SOL    HW129964   6.596   7.597  10.532  0.6879 -3.1860  0.1849
42124SOL    HW229965   6.493   7.665  10.620  3.1213 -0.1424  0.8424
42125SOL     OW29966   2.372   4.801   4.697  0.4493 -0.1823  0.0084
42125SOL    HW129967   2.292   4.759   4.668  0.6612  0.3640 -1.4513
42125SOL    HW229968   2.382   4.773   4.788 -0.2276 -2.0218 -0.4322
42126SOL     OW29969   5.981   3.161   9.357 -0.1199  0.0874  0.1167
42126SOL    HW129970   6.060   3.202   9.323  0.7403 -0.6047  1.2208
42126SOL    HW229971   5.988   3.170   9.452 -0.1619 -2.1100  0.3680
42127SOL     OW29972   5.128   8.070   3.333  0.3381 -0.0083  0.1314
42127SOL    HW129973   5.082   8.007   3.277 -2.3053  0.1940  1.8863
42127SOL    HW229974   5.163   8.135   3.273 -1.5742 -0.2815 -1.3713
42128SOL     OW29975   9.081   7.921   4.890  0.2180 -0.2291 -0.4485
42128SOL    HW129976   9.005   7.869   4.865  0.6043 -0.0495 -2.1215
42128SOL    HW229977   9.049   8.011   4.896 -0.0313 -0.3636  0.5378
42129SOL     OW29978   7.300   3.922   2.522 -0.2066 -0.1649  0.1991
42129SOL    HW129979   7.243   3.860   2.567 -1.0636 -1.0819 -1.9993
42129SOL    HW229980   7.361   3.867   2.472  0.2379  0.7762 -0.3204
42130SOL     OW29981   9.436   9.729   9.544 -0.1518 -0.0762 -0.1449
42130SOL    HW129982   9.467   9.753   9.632  2.4590 -0.0014 -0.9908
42130SOL    HW229983   9.364   9.667   9.559  0.7610 -0.6925  2.0385
42131SOL     OW29984  11.086   3.579   5.089 -0.1558 -0.0193 -0.1293
42131SOL    HW129985  11.056   3.633   5.015 -0.9474  0.0069  0.2062
42131SOL    HW229986  11.041   3.615   5.165  0.5660 -0.1257  0.3594
42132SOL     OW29987   7.922   7.143   2.184 -0.8104 -0.0134 -0.0671
42132SOL    HW129988   7.919   7.072   2.121  0.2896 -0.6042  0.5128
42132SOL    HW229989   7.872   7.110   2.259  1.0666 -0.9120  0.8693
42133SOL     OW29990   6.875   3.083  10.636 -0.3458  0.0175  0.3085
42133SOL    HW129991   6.940   3.015  10.618 -1.4842 -1.5751  1.8920
42133SOL    HW229992   6.792   3.045  10.609 -1.0170  0.7227  1.3108
42134SOL     OW29993   2.759   1.201   4.409 -0.2021  0.0637 -0.0213
42134SOL    HW129994   2.718   1.221   4.493 -0.0959 -2.2289  0.6548
42134SOL    HW229995   2.830   1.264   4.401 -0.1354  0.2444  1.6854
42135SOL     OW29996   7.941   3.919   8.940  0.2409  0.4474  0.1507
42135SOL    HW129997   7.866   3.926   8.999  0.0206 -1.7789  0.2453
42135SOL    HW229998   7.931   3.991   8.878 -1.5921  0.5965  0.5827
42136SOL     OW29999   7.622   4.848   5.765  1.0221  0.0775  0.6166
42136SOL    HW130000   7.598   4.899   5.843  1.6658  0.2625  0.6966
42136SOL    HW230001   7.685   4.784   5.797 -0.5053 -1.4674  0.7207
42137SOL     OW30002   6.136   6.910   7.397 -0.3144  0.1362  0.0714
42137SOL    HW130003   6.141   6.870   7.310 -1.5022 -2.4012  1.0706
42137SOL    HW230004   6.227   6.917   7.425  0.0024 -0.7947 -0.6674
42138SOL     OW30005   6.519   0.868   5.451  0.1549  0.1681  0.3814
42138SOL    HW130006   6.603   0.871   5.496 -0.6927  2.8663  1.9583
42138SOL    HW230007   6.534   0.810   5.376  2.7428 -1.2300  1.8550
42139SOL     OW30008  11.023   4.659   6.385  0.2600  0.4741 -0.1866
42139SOL    HW130009  10.966   4.684   6.313 -1.3246 -1.0458  0.4684
42139SOL    HW230010  10.973   4.677   6.464  2.0207  2.2551  0.6241
42140SOL     OW30011   9.778   9.191   1.011 -0.0550 -0.3845  0.3213
42140SOL    HW130012   9.859   9.197   1.062 -0.2688 -1.8376  0.8754
42140SOL    HW230013   9.747   9.282   1.006  1.8114  0.2690 -0.2973
42141SOL     OW30014   2.766   0.141   1.838 -0.8491 -0.1564 -0.6444
42141SOL    HW130015   2.739   0.049   1.844  2.5760 -1.9343 -5.6493
42141SOL    HW230016   2.691   0.185   1.797 -1.9280 -1.0550  0.2993
42142SOL     OW30017   6.005   0.378   9.456 -0.1269 -0.2891  0.3225
42142SOL    HW130018   6.039   0.344   9.374 -1.3034  0.0305 -0.3073
42142SOL    HW230019   6.007   0.303   9.516  0.3239 -0.6310 -0.1165
42143SOL     OW30020   2.554   4.169   4.179 -0.2394  0.2229  0.2453
42143SOL    HW130021   2.484   4.122   4.225 -1.8975 -0.2408 -2.5060
42143SOL    HW230022   2.516   4.254   4.157  0.5395  0.4811 -0.1355
42144SOL     OW30023   0.195   1.545   5.378 -0.2716  0.4496  0.8378
42144SOL    HW130024   0.222   1.548   5.287 -1.3638  0.0555  0.4822
42144SOL    HW230025   0.270   1.579   5.427  0.6219 -0.0650 -0.1328
42145SOL     OW30026   4.948   0.956   1.101  0.5776  0.0553  0.6823
42145SOL    HW130027   5.011   0.934   1.032 -2.0207 -2.2452 -1.1709
42145SOL    HW230028   4.899   1.030   1.066 -0.5126 -0.8862  0.1903
42146SOL     OW30029   4.621   2.912   4.907  0.8867  0.2064 -0.4881
42146SOL    HW130030   4.582   2.917   4.994  0.3106  0.7919 -0.7707
42146SOL    HW230031   4.550   2.885   4.849  1.3545 -0.5394 -0.7262
42147SOL     OW30032   0.237  10.772   9.541  0.5417  0.1128 -0.0832
42147SOL    HW130033   0.265  10.777   9.633 -0.4448  0.0678  0.2290
42147SOL    HW230034   0.167  10.707   9.541  0.5413  0.1022 -0.8807
42148SOL     OW30035   7.278   2.244   4.949  0.0983  0.0151 -0.2321
42148SOL    HW130036   7.239   2.272   4.866 -0.3285  1.6454  0.4733
42148SOL    HW230037   7.356   2.298   4.958 -0.9620  1.3811  1.3564
42149SOL     OW30038   0.865  10.294   7.278 -0.0415 -0.0208  0.1850
42149SOL    HW130039   0.873  10.364   7.213  0.3524 -0.0869  0.1620
42149SOL    HW230040   0.955  10.268   7.296 -0.2008 -0.7052 -0.0025
42150SOL     OW30041   3.780   4.617   0.736 -0.1908 -0.1920  0.3892
42150SOL    HW130042   3.870   4.648   0.728 -0.0437 -0.1902  1.8416
42150SOL    HW230043   3.751   4.604   0.646  0.7636  1.2262 -0.1514
42151SOL     OW30044   0.208   8.637   9.531  0.6338 -0.1632  0.2393
42151SOL    HW130045   0.115   8.617   9.516  0.6480  0.1415 -0.3011
42151SOL    HW230046   0.209   8.731   9.551  0.9039  0.0437 -0.6543
42152SOL     OW30047   7.227   5.344  10.546  0.0709  0.3611 -0.4068
42152SOL    HW130048   7.321   5.330  10.555  0.0674  0.2652 -0.5229
42152SOL    HW230049   7.214   5.437  10.566 -0.0706 -0.0579  1.7717
42153SOL     OW30050   2.422   5.644   5.874  0.2051 -0.0835 -0.7299
42153SOL    HW130051   2.453   5.734   5.860  1.1778 -0.1399  0.8455
42153SOL    HW230052   2.332   5.645   5.841  0.0436  1.5901 -0.3622
42154SOL     OW30053   9.421   4.406   8.613 -0.2053 -0.3208 -0.2261
42154SOL    HW130054   9.431   4.420   8.708  0.4649  0.0692 -0.3495
42154SOL    HW230055   9.374   4.484   8.583  1.7326  0.7531 -0.5899
42155SOL     OW30056   6.523   5.056   2.714  0.1084  0.5183 -0.0161
42155SOL    HW130057   6.521   4.963   2.691  0.5486  0.5062 -0.0190
42155SOL    HW230058   6.432   5.078   2.734  0.0672 -0.0174  0.4129
42156SOL     OW30059   3.544   2.899   8.341 -0.0092 -0.4290 -0.5972
42156SOL    HW130060   3.449   2.899   8.356 -0.1075 -1.1137 -1.1386
42156SOL    HW230061   3.561   2.983   8.300 -0.1327  0.3556  0.8860
42157SOL     OW30062   6.709   5.476   7.489 -0.1630 -0.1155  0.0847
42157SOL    HW130063   6.737   5.510   7.574 -0.6129 -0.3491  0.3344
42157SOL    HW230064   6.631   5.423   7.509 -2.0362  2.1092 -0.7916
42158SOL     OW30065   7.103  11.055   2.929 -0.0506 -0.4882 -0.0542
42158SOL    HW130066   7.046  11.101   2.991 -1.4004  0.8175 -2.1355
42158SOL    HW230067   7.192  11.080   2.954 -0.6768  2.0621 -0.1351
42159SOL     OW30068   7.577   9.599   9.864  0.3778 -0.6691 -0.0376
42159SOL    HW130069   7.567   9.512   9.827 -3.4194 -0.1757 -0.6048
42159SOL    HW230070   7.526   9.597   9.945  0.5152  0.9093  0.1315
42160SOL     OW30071   2.829   4.156   4.163 -0.4133  0.0712 -0.0664
42160SOL    HW130072   2.855   4.178   4.252  0.3849 -1.6022  0.1341
42160SOL    HW230073   2.733   4.159   4.165 -0.3881  0.8176  0.6246
42161SOL     OW30074   5.231   4.835   7.753 -0.1914 -0.0706  0.1760
42161SOL    HW130075   5.141   4.866   7.763 -0.4018 -0.1482 -1.3148
42161SOL    HW230076   5.259   4.815   7.843 -1.9850 -0.9657  0.5826
42162SOL     OW30077   3.117   9.556  10.779 -0.1473 -0.4386 -0.2934
42162SOL    HW130078   3.183   9.521  10.719  0.7259  0.0382  0.3797
42162SOL    HW230079   3.165   9.575  10.859 -0.5092  2.5050 -0.6732
42163SOL     OW30080   6.459   0.960   8.592  0.7890  0.2663 -0.0502
42163SOL    HW130081   6.446   0.976   8.686  0.6202 -0.2769  0.0238
42163SOL    HW230082   6.542   1.003   8.572  0.7823  0.4660  0.3276
42164SOL     OW30083  10.621   5.803   8.784 -0.7450  0.0685 -0.0591
42164SOL    HW130084  10.613   5.776   8.876 -3.7674  0.5463 -0.0654
42164SOL    HW230085  10.656   5.892   8.789  0.6164 -0.4724  0.4958
42165SOL     OW30086   3.057   9.686   3.239  0.3995  0.2162  0.3101
42165SOL    HW130087   3.010   9.635   3.174  1.2410  0.4821 -0.5357
42165SOL    HW230088   2.999   9.689   3.315 -0.0571 -1.1708  0.0333
42166SOL     OW30089   9.109   5.713   3.131  0.2779 -0.1269  0.1290
42166SOL    HW130090   9.137   5.777   3.065 -1.0295 -0.3167 -0.6575
42166SOL    HW230091   9.117   5.759   3.214 -0.2237  0.9316 -0.3876
42167SOL     OW30092   6.602   9.636   6.247 -0.0727 -0.4478  0.1488
42167SOL    HW130093   6.592   9.572   6.317 -0.7586 -0.7287 -0.1837
42167SOL    HW230094   6.594   9.584   6.167 -0.1720 -0.0091 -0.1279
42168SOL     OW30095   1.925   4.295   4.550 -0.0084 -0.3612  0.0196
42168SOL    HW130096   1.903   4.381   4.514  2.1375  0.2214 -0.0064
42168SOL    HW230097   1.871   4.288   4.629 -0.3122  0.9504 -0.0464
42169SOL     OW30098   9.401   1.922   8.699 -0.1458  0.6166 -0.3823
42169SOL    HW130099   9.381   1.842   8.746 -1.7018  0.0284 -1.9333
42169SOL    HW230100   9.427   1.893   8.611  0.5658  1.7540 -0.5737
42170SOL     OW30101   2.233   5.505   1.795  0.1172 -0.5648  0.1329
42170SOL    HW130102   2.142   5.477   1.785 -0.4627  1.6826 -1.4894
42170SOL    HW230103   2.230   5.571   1.864  1.0880 -2.5983  2.2448
42171SOL     OW30104   6.118   6.458   7.814  0.5661 -0.2751 -0.2325
42171SOL    HW130105   6.144   6.456   7.906  0.6528  0.4488 -0.2366
42171SOL    HW230106   6.108   6.366   7.790  0.5468 -0.4705  0.4992
42172SOL     OW30107   1.467   4.010   3.292  0.0984  0.4428  0.5470
42172SOL    HW130108   1.553   3.981   3.264  1.0981  0.6867  3.1123
42172SOL    HW230109   1.461   4.101   3.264  1.3157  0.8725  1.5997
42173SOL     OW30110   1.259   6.796   5.677 -0.3431  0.3418  0.2768
42173SOL    HW130111   1.180   6.837   5.712  0.1918 -0.6750  2.9938
42173SOL    HW230112   1.330   6.840   5.724  0.5641 -0.0856 -0.6716
42174SOL     OW30113   0.272   3.853   3.955 -0.9008 -0.0316 -0.8248
42174SOL    HW130114   0.336   3.874   4.023 -0.3173 -1.6394 -0.8388
42174SOL    HW230115   0.254   3.937   3.912 -0.7705  0.8923  0.8532
42175SOL     OW30116  10.085   0.469   6.182 -0.2285  0.3401  0.5286
42175SOL    HW130117  10.000   0.429   6.164 -0.4250  0.5937  0.8685
42175SOL    HW230118  10.065   0.562   6.197  0.2210  0.5681 -0.2580
42176SOL     OW30119   3.411  10.595   2.550 -0.1533 -0.0938  0.2375
42176SOL    HW130120   3.364  10.676   2.527 -0.5316  0.1553  1.7694
42176SOL    HW230121   3.504  10.620   2.548 -0.2238  0.1291 -0.2228
42177SOL     OW30122   9.183   1.947   5.187 -0.2169  0.5025  0.3816
42177SOL    HW130123   9.252   2.009   5.212  0.2022 -0.1314  0.8317
42177SOL    HW230124   9.230   1.872   5.152 -0.7855  1.5590 -2.9842
42178SOL     OW30125   4.425   5.368   7.892 -0.1073  0.2690 -0.2393
42178SOL    HW130126   4.478   5.291   7.915 -0.8607  0.0914  0.9760
42178SOL    HW230127   4.480   5.418   7.832  1.6324  0.3175  1.3283
42179SOL     OW30128   7.660  10.293   8.504 -0.0105  0.1378 -0.4643
42179SOL    HW130129   7.753  10.280   8.487  0.1712  1.3405 -0.5220
42179SOL    HW230130   7.616  10.224   8.455  0.8688 -0.8193  0.0525
42180SOL     OW30131   3.707   2.565   0.035  0.2307 -0.0988  0.8127
42180SOL    HW130132   3.795   2.567   0.073  1.5618 -1.4746 -1.8888
42180SOL    HW230133   3.693   2.473   0.013  0.2260  0.6816 -3.1639
42181SOL     OW30134   3.851   8.015  10.733  0.7386  0.5395  0.2228
42181SOL    HW130135   3.942   8.041  10.745  0.3186  2.1436  0.0834
42181SOL    HW230136   3.855   7.920  10.720  2.3967  0.6007  0.0949
42182SOL     OW30137   5.407   5.343   6.560 -0.2764 -0.5111 -0.8661
42182SOL    HW130138   5.336   5.393   6.521  0.4905  0.5568 -0.9493
42182SOL    HW230139   5.477   5.407   6.573  0.6564 -1.5163 -0.7518
42183SOL     OW30140   5.525   2.143   5.755 -0.0081  0.2325  0.0376
42183SOL    HW130141   5.606   2.101   5.782  0.3486  0.2134 -1.0243
42183SOL    HW230142   5.481   2.166   5.837  0.4575 -0.9202  0.6295
42184SOL     OW30143   3.234   9.510  10.519  0.4877  0.5237 -0.6302
42184SOL    HW130144   3.284   9.560  10.455  1.0745  0.5739 -0.1375
42184SOL    HW230145   3.257   9.418  10.501  2.2181  0.6354  0.7722
42185SOL     OW30146   2.377   7.087   9.732  0.0757 -0.2382  0.8298
42185SOL    HW130147   2.434   7.013   9.754 -1.8968 -1.3623  2.4331
42185SOL    HW230148   2.308   7.049   9.678  0.4385  0.9855 -0.5568
42186SOL     OW30149  10.538   6.260   0.919  0.1413  0.0247 -0.3070
42186SOL    HW130150  10.623   6.262   0.876  1.0569  0.5639  1.4452
42186SOL    HW230151  10.531   6.170   0.953 -0.4292 -0.2969 -1.2276
42187SOL     OW30152   1.303   5.999   9.999  0.1478  0.3922  0.5836
42187SOL    HW130153   1.331   5.915  10.036  1.0239 -0.5385 -1.9729
42187SOL    HW230154   1.220   6.018  10.043  0.4458 -1.2612  1.9743
42188SOL     OW30155   6.761   6.964   8.781  0.5788 -0.1405 -0.4124
42188SOL    HW130156   6.755   6.990   8.873 -0.1965 -0.1643 -0.4507
42188SOL    HW230157   6.736   6.872   8.779  1.5902 -0.4261 -0.5205
42189SOL     OW30158   0.495   7.455   7.645 -0.0945 -0.1002  0.7323
42189SOL    HW130159   0.495   7.483   7.736 -0.1572 -2.9376  1.7266
42189SOL    HW230160   0.582   7.417   7.631 -0.3066 -0.3042 -0.1600
42190SOL     OW30161   6.583   0.800   1.195  0.1983  0.1461  0.1454
42190SOL    HW130162   6.632   0.795   1.277  1.5887  0.0484 -0.6807
42190SOL    HW230163   6.492   0.782   1.221  0.8588 -1.5698  1.4072
42191SOL     OW30164   6.151   5.883   5.434  0.1329 -0.5483  0.2892
42191SOL    HW130165   6.097   5.962   5.432 -0.5516 -0.9935 -2.0102
42191SOL    HW230166   6.241   5.914   5.428 -0.0032  0.1067  1.4338
42192SOL     OW30167   3.833   5.415   9.867  0.4055  0.6737  0.0141
42192SOL    HW130168   3.862   5.477   9.934 -1.0137  0.3075  1.0292
42192SOL    HW230169   3.743   5.441   9.847 -0.0345 -0.6913  0.0699
42193SOL     OW30170   8.010   3.086   3.375  0.3356 -0.2743  0.4750
42193SOL    HW130171   8.086   3.131   3.412  0.0410  3.3156 -2.7221
42193SOL    HW230172   7.941   3.097   3.440  1.0546  1.5561  0.9710
42194SOL     OW30173   9.300   9.329   0.903 -0.2786  0.0100  0.4927
42194SOL    HW130174   9.371   9.371   0.951  0.6465 -3.4703  2.4905
42194SOL    HW230175   9.220   9.373   0.934  0.7273  2.3926 -0.0329
42195SOL     OW30176   2.395   5.592  10.667  0.0262  0.1816 -0.2595
42195SOL    HW130177   2.433   5.605  10.580  1.1006  0.0210  0.1683
42195SOL    HW230178   2.301   5.584  10.651  0.1931  0.2752 -1.3911
42196SOL     OW30179   4.391   6.288   2.024  0.5224  0.0499 -0.4431
42196SOL    HW130180   4.304   6.314   2.054  0.7065 -1.1329  1.2551
42196SOL    HW230181   4.448   6.359   2.052  0.4771 -0.3918  0.8161
42197SOL     OW30182   4.866   1.695   6.865 -0.3883  0.9119 -0.2985
42197SOL    HW130183   4.850   1.729   6.953  0.3372  0.1350  0.1466
42197SOL    HW230184   4.796   1.630   6.852 -1.6994  2.4193 -1.1007
42198SOL     OW30185   2.451   2.202   7.322 -0.2344  0.5931 -0.4702
42198SOL    HW130186   2.476   2.228   7.234 -2.8931  2.9383 -0.6810
42198SOL    HW230187   2.483   2.273   7.378 -1.7707  1.0249 -0.1001
42199SOL     OW30188   2.237   7.747   3.135 -1.1167 -0.3432 -0.1435
42199SOL    HW130189   2.197   7.832   3.151 -2.2562 -1.3348  2.8627
42199SOL    HW230190   2.278   7.723   3.218  0.7984 -1.9704 -1.4356
42200SOL     OW30191  10.537   8.439   6.602  0.0823 -0.1751 -0.0059
42200SOL    HW130192  10.457   8.465   6.556  0.2542 -2.6557 -1.8991
42200SOL    HW230193  10.518   8.353   6.637  1.6798 -0.4843  0.1717
42201SOL     OW30194   3.360   7.969  10.362  0.2938 -0.1727  0.6950
42201SOL    HW130195   3.345   8.019  10.442  1.0564  2.4061 -0.6525
42201SOL    HW230196   3.329   8.026  10.292  0.8141 -1.8061 -0.9418
42202SOL     OW30197   0.754   8.670   1.269  0.1834 -0.1552  0.1015
42202SOL    HW130198   0.764   8.703   1.180  1.6772 -1.5238 -0.2936
42202SOL    HW230199   0.797   8.585   1.268  0.5741 -0.0473  2.2267
42203SOL     OW30200   7.974   9.218   3.920 -0.0777  0.5024  1.1192
42203SOL    HW130201   7.926   9.242   3.841 -3.6949  0.0221  2.9484
42203SOL    HW230202   7.985   9.123   3.913 -0.2328  0.4869  1.0674
42204SOL     OW30203   6.794   5.412   2.543 -0.5101  0.2026  0.0219
42204SOL    HW130204   6.812   5.393   2.635 -1.0014 -2.1573 -0.3046
42204SOL    HW230205   6.787   5.326   2.502 -0.1379  1.1983 -2.2741
42205SOL     OW30206   2.590   0.435   4.683  0.2774  0.6203  0.5828
42205SOL    HW130207   2.538   0.515   4.675  1.6505  1.4962  0.0402
42205SOL    HW230208   2.553   0.390   4.759 -1.0061  1.3911  0.4497
42206SOL     OW30209   0.959   0.136   8.974  0.0371 -0.4353 -0.2589
42206SOL    HW130210   0.945   0.121   8.880  1.1675 -0.9865 -0.3552
42206SOL    HW230211   1.053   0.149   8.982 -0.1253  0.1764  0.7327
42207SOL     OW30212   1.534   5.206   4.757  0.9137  0.4809 -0.3832
42207SOL    HW130213   1.467   5.250   4.810  3.1256  2.7272  0.7532
42207SOL    HW230214   1.504   5.217   4.667 -1.0146 -0.0327  0.1364
42208SOL     OW30215   5.001   9.753   4.706  0.4980 -0.2545  0.4754
42208SOL    HW130216   4.912   9.748   4.669  1.1528 -0.2152 -1.2047
42208SOL    HW230217   5.027   9.661   4.716 -0.6266 -0.3464  3.4059
42209SOL     OW30218   0.349  10.760   6.677  0.5261 -0.4469  0.8380
42209SOL    HW130219   0.283  10.691   6.675 -0.2035  0.2363  0.7617
42209SOL    HW230220   0.422  10.722   6.727  0.3772 -1.4635  0.3082
42210SOL     OW30221   8.805   0.921  10.452  0.8354 -0.0770 -0.6019
42210SOL    HW130222   8.780   1.009  10.425  0.0290  0.0034  0.3679
42210SOL    HW230223   8.844   0.882  10.374 -0.5891  0.4533 -1.6020
42211SOL     OW30224   1.152   2.677   4.743 -0.0040  0.0005  0.2583
42211SOL    HW130225   1.088   2.621   4.787 -0.2944 -0.7449 -1.0254
42211SOL    HW230226   1.200   2.721   4.813 -0.1775 -1.4177  1.2996
42212SOL     OW30227   8.978   0.689   6.510 -0.0214  0.2490  0.1269
42212SOL    HW130228   8.931   0.752   6.454 -2.1817 -0.4736  1.0392
42212SOL    HW230229   8.973   0.607   6.462  1.6038  0.4190 -0.4095
42213SOL     OW30230   7.011   7.428   3.778  0.3379  0.3232 -0.3364
42213SOL    HW130231   6.995   7.353   3.721  0.3282  0.4459 -0.4973
42213SOL    HW230232   6.932   7.483   3.768  1.0123  1.1500 -1.4765
42214SOL     OW30233   2.595   2.415   4.768 -0.4026 -0.0294  0.5701
42214SOL    HW130234   2.573   2.444   4.679 -0.3534 -0.7031  0.3276
42214SOL    HW230235   2.580   2.492   4.823 -1.1859  0.1778  0.0903
42215SOL     OW30236   0.827   5.945   8.881 -0.1546  0.4523  0.1444
42215SOL    HW130237   0.883   5.995   8.940 -1.7367 -1.4179  3.5719
42215SOL    HW230238   0.775   6.011   8.835  1.3786  2.0237  0.5698
42216SOL     OW30239  10.824   4.880   5.139  0.4735 -0.7082  0.1048
42216SOL    HW130240  10.741   4.834   5.126  0.5310 -0.8396  0.2006
42216SOL    HW230241  10.820   4.912   5.229  1.6087 -2.9533  1.0549
42217SOL     OW30242   0.242   9.046   3.361  0.1942 -0.3901 -0.2011
42217SOL    HW130243   0.277   8.974   3.309 -0.6325  0.0018 -1.3362
42217SOL    HW230244   0.313   9.070   3.420  0.4024 -2.2918  0.3770
42218SOL     OW30245   3.771   7.638   0.262 -0.6185  0.2393 -0.5742
42218SOL    HW130246   3.680   7.631   0.292 -0.4255 -0.2964 -0.1017
42218SOL    HW230247   3.767   7.702   0.191 -1.3060  0.5003 -0.3183
42219SOL     OW30248   4.092   7.554   2.144 -0.0360 -0.1474  0.5189
42219SOL    HW130249   4.140   7.631   2.112 -0.6404  0.6968  1.5867
42219SOL    HW230250   4.158   7.484   2.145  0.2936  0.0794 -1.3716
42220SOL     OW30251   8.129   7.272   0.842  0.1002  0.0225  0.0360
42220SOL    HW130252   8.203   7.318   0.881 -0.6478  0.2479  1.2731
42220SOL    HW230253   8.103   7.208   0.910 -1.0734  0.2255 -0.2048
42221SOL     OW30254   9.583   4.135   7.169 -0.1388  0.3213  0.6225
42221SOL    HW130255   9.647   4.066   7.185 -1.2387 -0.3832  2.2149
42221SOL    HW230256   9.523   4.098   7.105  0.2691  0.4964  0.1252
42222SOL     OW30257   0.516   8.992   4.712  0.9191  0.5340 -0.1029
42222SOL    HW130258   0.576   9.052   4.757  0.6517  0.5834  0.1910
42222SOL    HW230259   0.573   8.924   4.676  0.9874 -0.5587  1.9381
42223SOL     OW30260   7.234   5.691   1.265  0.5223  0.0784  0.0045
42223SOL    HW130261   7.269   5.609   1.300  0.5739 -0.3613 -1.0143
42223SOL    HW230262   7.310   5.748   1.256  0.6920 -0.2156 -0.4620
42224SOL     OW30263   2.738   8.685   6.366  0.0119  0.1400  0.0460
42224SOL    HW130264   2.796   8.746   6.319 -0.3080 -1.1005 -2.1128
42224SOL    HW230265   2.712   8.732   6.444  0.6772  2.3314 -0.9726
42225SOL     OW30266  10.523   1.880  10.111  0.7708 -0.7160 -0.4110
42225SOL    HW130267  10.453   1.888  10.176 -1.2211  0.5058 -2.5414
42225SOL    HW230268  10.502   1.801  10.062  2.0110 -1.4005  0.1372
42226SOL     OW30269   5.513   9.692   1.557 -0.4470 -0.1461 -0.0764
42226SOL    HW130270   5.457   9.642   1.498  0.1721  0.8303 -1.5415
42226SOL    HW230271   5.479   9.781   1.552  1.9811  0.7833 -2.0978
42227SOL     OW30272   1.585   1.322   8.257 -0.1740  0.3865 -0.4115
42227SOL    HW130273   1.599   1.228   8.253  2.8204  0.7554 -0.8688
42227SOL    HW230274   1.560   1.339   8.348  0.5006 -0.7139 -0.0094
42228SOL     OW30275   4.638   2.269   5.582 -0.7758  0.7102  0.0389
42228SOL    HW130276   4.606   2.323   5.654  0.3539  2.4929 -0.7215
42228SOL    HW230277   4.645   2.330   5.508  0.0970 -0.6008 -0.9949
42229SOL     OW30278   3.608   6.322   1.312 -0.7261  0.1704  0.4709
42229SOL    HW130279   3.675   6.261   1.280 -3.2392 -2.5288 -0.1084
42229SOL    HW230280   3.624   6.403   1.266  0.4714 -1.2467 -1.7675
42230SOL     OW30281   4.330   4.183  10.628  0.4537  0.1538  0.0521
42230SOL    HW130282   4.322   4.199  10.723 -0.1343 -0.1255  0.0515
42230SOL    HW230283   4.367   4.095  10.622 -3.4146 -1.6438  0.0368
42231SOL     OW30284   2.235   0.791   4.715 -0.4222  0.3238 -0.2970
42231SOL    HW130285   2.191   0.739   4.782 -1.0614  1.6379  0.3434
42231SOL    HW230286   2.163   0.831   4.665 -0.0335  2.5032  0.7667
42232SOL     OW30287   8.544   5.980   1.030 -0.5799  0.1114  0.5257
42232SOL    HW130288   8.476   5.922   0.995  0.3024 -0.7169  0.1560
42232SOL    HW230289   8.495   6.050   1.073 -1.7024  0.4227 -1.1687
42233SOL     OW30290   1.930   0.705  11.047 -0.2297  0.3338  0.1921
42233SOL    HW130291   2.004   0.703  10.985 -1.1761 -1.0841 -0.9633
42233SOL    HW230292   1.949   0.633  11.108 -1.1704 -0.8188 -0.8099
42234SOL     OW30293   8.139   4.142   6.074  0.3324 -0.5037  0.2679
42234SOL    HW130294   8.156   4.235   6.090 -0.5225 -0.5893  1.9738
42234SOL    HW230295   8.050   4.129   6.107  0.4339 -1.9221  0.0334
42235SOL     OW30296   6.449   4.084   9.718 -0.2707  0.3992 -0.5876
42235SOL    HW130297   6.388   4.082   9.791 -0.2843 -0.9057 -0.5981
42235SOL    HW230298   6.452   4.175   9.690 -3.1569  0.3371 -1.3963
42236SOL     OW30299   4.874   8.424   7.714 -0.1084 -0.4196 -0.1238
42236SOL    HW130300   4.946   8.486   7.725 -1.4045  1.6269 -2.1951
42236SOL    HW230301   4.892   8.382   7.630 -1.0169 -0.2633 -0.4077
42237SOL     OW30302   4.492   2.380   7.118 -0.2407 -0.5040  0.0246
42237SOL    HW130303   4.574   2.354   7.159 -0.6963 -2.2927 -0.1339
42237SOL    HW230304   4.518   2.448   7.054  1.0977 -1.0116 -0.0008
42238SOL     OW30305   4.868  10.085  10.741  0.0208 -0.0894  0.2727
42238SOL    HW130306   4.961  10.067  10.731  0.3989  1.0677  1.3617
42238SOL    HW230307   4.862  10.135  10.822 -1.1876  2.2248 -1.1018
42239SOL     OW30308   7.369   7.970   4.380 -0.9779  0.3157  0.5270
42239SOL    HW130309   7.462   7.979   4.402 -1.0198 -2.2860  2.0962
42239SOL    HW230310   7.338   8.060   4.372  1.7924  1.2838 -0.7247
42240SOL     OW30311   7.618   1.552   6.721 -0.5439 -0.1928 -0.4606
42240SOL    HW130312   7.602   1.510   6.636 -0.2945 -0.4695 -0.3732
42240SOL    HW230313   7.638   1.480   6.780  0.0272  0.0564 -0.3390
42241SOL     OW30314   3.598   9.568   4.175  0.0243 -0.3230  0.1981
42241SOL    HW130315   3.527   9.505   4.184  0.0314 -0.2311  0.9963
42241SOL    HW230316   3.616   9.597   4.264 -1.5507  2.5769 -0.2847
42242SOL     OW30317   1.305   8.158   7.913  0.0432 -0.4332  0.2598
42242SOL    HW130318   1.235   8.095   7.897 -0.7968  0.3978  0.5756
42242SOL    HW230319   1.262   8.231   7.957  1.1056  0.1117  0.4264
42243SOL     OW30320   5.035   5.680   3.902 -0.5380  0.1284  0.2953
42243SOL    HW130321   4.952   5.715   3.936 -1.7668 -2.4531  0.2235
42243SOL    HW230322   5.072   5.631   3.975 -0.3339 -0.7335 -0.3578
42244SOL     OW30323   4.617   7.273   3.454 -0.0586 -0.4559  0.8021
42244SOL    HW130324   4.566   7.344   3.494 -1.0776 -2.1684  2.6852
42244SOL    HW230325   4.622   7.298   3.361 -2.0137  1.1425  1.0427
42245SOL     OW30326   9.634   9.875   7.065  0.1769 -0.6385 -0.5947
42245SOL    HW130327   9.571   9.926   7.015 -0.7313 -1.5711 -0.4470
42245SOL    HW230328   9.689   9.833   6.999 -0.2891 -0.9585 -0.7888
42246SOL     OW30329   5.926   6.256  10.073 -0.1306 -1.0466 -0.1254
42246SOL    HW130330   5.861   6.255  10.143 -1.7643 -0.0624 -1.5357
42246SOL    HW230331   5.997   6.311  10.107 -1.9114  1.3652 -0.0175
42247SOL     OW30332   7.170   6.356   0.884 -1.0126 -0.1267 -0.2148
42247SOL    HW130333   7.161   6.389   0.973 -0.5401 -2.4321  0.7537
42247SOL    HW230334   7.258   6.383   0.858 -1.0857  0.4062  0.0690
42248SOL     OW30335   8.749   9.671   4.116  0.2419  0.5418 -0.5052
42248SOL    HW130336   8.712   9.599   4.065 -0.4182  0.8020 -0.3955
42248SOL    HW230337   8.844   9.659   4.108  0.1389 -0.1111 -0.8086
42249SOL     OW30338   3.906   7.658   7.117  0.3779  0.2099  0.2723
42249SOL    HW130339   3.824   7.702   7.094  0.9821  0.3691 -1.7684
42249SOL    HW230340   3.886   7.565   7.109 -0.3644  0.1130  2.6691
42250SOL     OW30341   1.727   6.528   9.279  0.2079  0.1099 -0.2619
42250SOL    HW130342   1.634   6.542   9.292  0.1218  0.7919 -1.4714
42250SOL    HW230343   1.770   6.585   9.343 -0.1819 -1.0882  1.1164
42251SOL     OW30344  10.612   8.522   7.758  0.4480 -0.1791  0.4084
42251SOL    HW130345  10.578   8.605   7.727  0.4444  0.5340  2.2489
42251SOL    HW230346  10.703   8.521   7.727  0.0649 -0.1362 -0.7812
42252SOL     OW30347   7.033   9.812   3.968  0.1092  0.2587  0.4542
42252SOL    HW130348   6.947   9.785   4.000 -1.2016  3.6528  0.1950
42252SOL    HW230349   7.032   9.790   3.875  0.2733 -1.2204  0.7633
42253SOL     OW30350   6.223  10.862   7.553 -0.6139  0.6328  0.2060
42253SOL    HW130351   6.273  10.819   7.483  0.4837  0.6419  0.9513
42253SOL    HW230352   6.135  10.874   7.516 -1.0367 -2.3865  0.0094
42254SOL     OW30353   4.497  11.098   8.626  0.0621 -0.4378  0.5663
42254SOL    HW130354   4.583  11.073   8.591 -0.1047 -1.7340  1.0315
42254SOL    HW230355   4.474  11.028   8.687 -1.0003  0.2696  1.0217
42255SOL     OW30356   9.532   2.090   6.926  0.1666 -0.8935  0.5982
42255SOL    HW130357   9.529   2.101   6.831  0.8584  0.4844  0.7067
42255SOL    HW230358   9.621   2.114   6.951 -0.8178  1.8881  1.8896
42256SOL     OW30359   8.029   2.907   4.969  0.1146 -0.1148 -0.4104
42256SOL    HW130360   7.990   2.972   4.910  0.7647  0.3193 -0.3636
42256SOL    HW230361   8.098   2.866   4.916  1.2528  0.8385  0.2873
42257SOL     OW30362   2.488   0.349   6.944 -0.4708 -0.1882  0.5116
42257SOL    HW130363   2.553   0.279   6.956 -0.8293 -0.4732  0.8147
42257SOL    HW230364   2.438   0.349   7.026 -1.8630 -0.9975 -0.3099
42258SOL     OW30365   7.613   2.948   3.112 -0.6188  0.2205 -0.0118
42258SOL    HW130366   7.625   3.043   3.118 -1.4675  0.3294  0.0942
42258SOL    HW230367   7.543   2.937   3.047 -1.1715 -0.2769  0.6517
42259SOL     OW30368   5.118   2.614   1.412 -0.1589  0.4995 -0.3895
42259SOL    HW130369   5.033   2.611   1.369 -0.7635  0.0099  0.7889
42259SOL    HW230370   5.134   2.524   1.441  0.8828  0.5303 -0.8070
42260SOL     OW30371   8.824   1.335   0.502 -0.5660 -0.4988 -0.1037
42260SOL    HW130372   8.779   1.344   0.586  1.0202 -0.8422  0.8249
42260SOL    HW230373   8.914   1.312   0.525  0.9026  2.8955 -1.7173
42261SOL     OW30374   3.923   5.073   0.853  0.4567  0.2870  0.5094
42261SOL    HW130375   3.875   5.139   0.805 -0.3466 -0.5726  0.0963
42261SOL    HW230376   3.955   5.012   0.787 -1.0803 -1.1812  1.0417
42262SOL     OW30377   3.556   7.926   4.088 -0.5818  0.6506 -0.0721
42262SOL    HW130378   3.599   8.008   4.115  1.3373 -0.4478  0.4023
42262SOL    HW230379   3.620   7.858   4.109 -2.0720 -0.9708 -0.6057
42263SOL     OW30380   0.460   0.354   1.982 -0.3589 -0.4115  0.0112
42263SOL    HW130381   0.526   0.420   2.003 -0.9805  0.1444  0.2625
42263SOL    HW230382   0.454   0.354   1.887 -0.1978 -0.2627  0.0018
42264SOL     OW30383   7.777   6.146   0.091 -0.0240  0.1995  0.2138
42264SOL    HW130384   7.809   6.233   0.114 -0.6125  1.0576 -1.9234
42264SOL    HW230385   7.684   6.159   0.072  0.1650 -0.5783 -1.4375
42265SOL     OW30386   4.849   6.997   4.900  0.0246 -0.0329  0.7157
42265SOL    HW130387   4.853   7.011   4.994 -0.1872  0.4543  0.6539
42265SOL    HW230388   4.899   6.916   4.885 -2.3526 -1.7690  1.5862
42266SOL     OW30389   9.215   2.837   2.654 -0.3627 -0.1418  0.0089
42266SOL    HW130390   9.183   2.907   2.597  1.5177  0.2307 -0.6592
42266SOL    HW230391   9.188   2.757   2.610 -0.3018  0.1558 -0.5822
42267SOL     OW30392   0.634   1.764   1.344  0.2272 -0.1079  0.4320
42267SOL    HW130393   0.587   1.695   1.390  0.3106  0.8560  2.0207
42267SOL    HW230394   0.591   1.845   1.371  1.9940  0.7006  0.9457
42268SOL     OW30395   9.615   7.154   2.663  0.5554 -0.2901  0.1011
42268SOL    HW130396   9.650   7.116   2.582 -1.2332 -1.5960 -0.1351
42268SOL    HW230397   9.543   7.210   2.633 -0.7413 -1.5206  0.7813
42269SOL     OW30398   0.007   0.612   8.723 -0.3195 -0.5723  0.4518
42269SOL    HW130399   0.076   0.679   8.724  0.0099 -0.9135  1.0964
42269SOL    HW230400   0.046   0.539   8.675 -0.2910 -0.7094  0.6863
42270SOL     OW30401   7.238   8.414   6.651  0.1055 -0.2738  0.1405
42270SOL    HW130402   7.153   8.443   6.686  0.6854  1.5951  0.0913
42270SOL    HW230403   7.215   8.363   6.573 -0.9756  0.5646 -0.1154
42271SOL     OW30404   5.103   3.517   5.047 -0.0468  0.2814  0.2715
42271SOL    HW130405   5.099   3.611   5.063  1.0393  0.6235 -1.3021
42271SOL    HW230406   5.187   3.490   5.085  0.4800  0.2926 -0.8587
42272SOL     OW30407   6.110   6.715   5.594 -0.3455 -0.1072  0.0468
42272SOL    HW130408   6.105   6.635   5.542  1.1594  0.4699 -1.0672
42272SOL    HW230409   6.112   6.785   5.529 -1.0627  0.8109  0.9884
42273SOL     OW30410   8.032   1.390   4.620 -0.3064  0.0042 -0.8107
42273SOL    HW130411   7.963   1.455   4.610 -1.3236 -1.1063 -1.3198
42273SOL    HW230412   8.103   1.421   4.563 -0.7424  0.7051 -0.9768
42274SOL     OW30413   8.805   3.041   9.906  0.7064 -0.4243  0.6332
42274SOL    HW130414   8.794   3.136   9.898  2.0047 -0.3565 -0.6462
42274SOL    HW230415   8.807   3.025  10.000 -1.8488  0.5023  0.9207
42275SOL     OW30416   9.520   2.815  10.465  0.3682 -0.1662 -0.1895
42275SOL    HW130417   9.538   2.726  10.435  0.0562 -0.6354  0.9879
42275SOL    HW230418   9.444   2.843  10.413  0.5545 -0.5259 -0.6614
42276SOL     OW30419   1.445   0.096   0.420 -0.3360 -0.6737 -0.2871
42276SOL    HW130420   1.356   0.083   0.455 -0.3770 -1.4086 -0.6369
42276SOL    HW230421   1.491   0.143   0.489 -1.2364  0.4883 -0.4442
42277SOL     OW30422   8.044   6.069   5.975  0.2412  0.8233  0.1065
42277SOL    HW130423   7.993   6.048   5.897  2.3419 -2.5436 -0.5423
42277SOL    HW230424   7.984   6.052   6.048 -0.5181 -0.0680 -0.6948
42278SOL     OW30425   7.973   6.818   3.361  0.3581 -0.4979  0.2195
42278SOL    HW130426   7.935   6.882   3.301  1.6510  0.9107  0.8484
42278SOL    HW230427   8.012   6.870   3.430  0.0854 -2.0516  1.5993
42279SOL     OW30428   5.020   0.640   0.315 -0.1971 -0.0200 -0.0620
42279SOL    HW130429   5.055   0.708   0.259 -1.3686 -0.2085 -1.0603
42279SOL    HW230430   5.061   0.655   0.401 -0.3741  1.8637 -0.2831
42280SOL     OW30431  10.815   7.941   5.826  0.6192  0.1998  0.4364
42280SOL    HW130432  10.844   8.026   5.858  2.0315 -0.9937  2.6112
42280SOL    HW230433  10.784   7.958   5.737  1.2615  2.8758  0.6336
42281SOL     OW30434   2.188   3.995   6.800  0.2297  0.0598 -0.0243
42281SOL    HW130435   2.221   4.083   6.819  0.4816 -0.1907  0.7022
42281SOL    HW230436   2.211   3.943   6.877 -1.0330 -0.3481  0.0981
42282SOL     OW30437   4.550   7.692   9.395 -0.4182  0.2504  0.0221
42282SOL    HW130438   4.522   7.617   9.447  0.2066  0.3655  0.5353
42282SOL    HW230439   4.646   7.683   9.391 -0.5492 -1.3657 -3.4976
42283SOL     OW30440   0.125   6.033   4.431  0.5037 -0.4484  0.6884
42283SOL    HW130441   0.114   6.083   4.513 -1.5745 -1.9187  1.4067
42283SOL    HW230442   0.056   6.066   4.374 -0.6679 -2.1673  1.0455
42284SOL     OW30443   9.181   5.659   5.552  0.1023 -0.1469  0.3575
42284SOL    HW130444   9.170   5.737   5.497  0.3288 -0.7224 -0.5327
42284SOL    HW230445   9.226   5.690   5.630 -1.9344  1.0560  1.1223
42285SOL     OW30446   1.294   0.172   6.380  0.9248 -0.2894 -0.7757
42285SOL    HW130447   1.211   0.197   6.421  0.8706 -0.6294 -0.6758
42285SOL    HW230448   1.361   0.220   6.430  1.0344 -2.0775  0.9363
42286SOL     OW30449   8.471  11.059   0.313  0.5618  0.0738  0.6895
42286SOL    HW130450   8.500  11.121   0.380  0.9429 -0.6837  1.2268
42286SOL    HW230451   8.513  10.977   0.335 -0.1656 -0.4624  0.1434
42287SOL     OW30452   6.701   1.013   4.409  0.0800 -0.1370 -0.2296
42287SOL    HW130453   6.687   0.926   4.370 -0.1958  0.3784 -1.3172
42287SOL    HW230454   6.793   1.013   4.434 -0.2550 -1.2645  1.1548
42288SOL     OW30455   8.184   4.405  10.077  0.3599  0.3351  0.0736
42288SOL    HW130456   8.200   4.342  10.148 -0.3826 -0.4754 -0.4504
42288SOL    HW230457   8.163   4.350  10.001 -1.4013  1.2390 -0.1338
42289SOL     OW30458   6.085   7.407   5.794 -0.0709  0.0110 -0.2845
42289SOL    HW130459   6.016   7.393   5.859  0.7356 -0.0108  0.5833
42289SOL    HW230460   6.066   7.494   5.759 -0.0253  0.3916  0.6035
42290SOL     OW30461   5.865   9.703   3.884 -0.4615 -0.4937 -0.1935
42290SOL    HW130462   5.785   9.651   3.894 -0.1971 -0.7357  0.7930
42290SOL    HW230463   5.933   9.637   3.866 -0.2119 -0.4562  0.5704
42291SOL     OW30464   4.355   2.344   2.438 -0.0835  0.3031 -1.2224
42291SOL    HW130465   4.293   2.279   2.406  0.6613  0.0566 -2.1988
42291SOL    HW230466   4.304   2.425   2.443 -0.4361  0.1549 -2.2352
42292SOL     OW30467   2.052   1.692   9.883  0.2343  0.4808 -0.1890
42292SOL    HW130468   2.050   1.784   9.910  0.8199  0.1244  1.1876
42292SOL    HW230469   2.078   1.694   9.791  2.1116  1.6409  0.3022
42293SOL     OW30470   8.870   9.495   9.124 -0.1535 -0.0565  0.1519
42293SOL    HW130471   8.776   9.507   9.111 -0.0303 -1.2699 -2.5325
42293SOL    HW230472   8.878   9.409   9.165 -0.1946 -0.8026 -1.3400
42294SOL     OW30473   3.899   8.018   8.397  0.2068  0.5958  0.5960
42294SOL    HW130474   3.919   8.105   8.362  0.8647  0.4220  0.5279
42294SOL    HW230475   3.950   8.012   8.478 -0.7293  0.7086  1.2156
42295SOL     OW30476   5.846   8.651   1.181  0.2995 -0.4753  0.2319
42295SOL    HW130477   5.859   8.702   1.262  1.6962  3.0112 -1.9310
42295SOL    HW230478   5.927   8.600   1.173  1.3467  1.1487 -0.1498
42296SOL     OW30479   0.896   0.246   2.946 -0.6564 -0.0771  0.1629
42296SOL    HW130480   0.936   0.310   2.886 -0.4110 -0.3323  0.0530
42296SOL    HW230481   0.823   0.210   2.896 -0.1977 -0.5941 -0.1446
42297SOL     OW30482   9.070   6.973   3.871  0.4479  0.0373 -0.1877
42297SOL    HW130483   9.012   7.049   3.873  0.6061  0.1762  2.3415
42297SOL    HW230484   9.020   6.903   3.914  0.7690 -0.9823 -1.3841
42298SOL     OW30485   7.179   7.204   6.048 -0.1734  0.1415  0.1324
42298SOL    HW130486   7.173   7.248   6.133  0.1841  0.2432  0.1041
42298SOL    HW230487   7.089   7.203   6.016 -0.1750  0.9048  0.1071
42299SOL     OW30488   8.898   0.088   7.064 -0.2468  0.1236 -0.2714
42299SOL    HW130489   8.873   0.040   7.144  1.6998 -2.3666 -1.0296
42299SOL    HW230490   8.826   0.073   7.003 -0.2106 -0.8430 -0.0849
42300SOL     OW30491   9.265   9.444   1.262  0.2537  0.2573  0.1071
42300SOL    HW130492   9.297   9.465   1.349  0.9694  0.2360 -0.1478
42300SOL    HW230493   9.174   9.475   1.262  0.7660  1.8642  0.2882
42301SOL     OW30494  10.555   8.952   6.993  0.2388 -0.2713  0.0548
42301SOL    HW130495  10.633   8.957   6.938  0.0063  2.5385 -0.1306
42301SOL    HW230496  10.482   8.964   6.932 -0.1617  0.2318  0.6253
42302SOL     OW30497   1.237   2.404   8.446 -0.1043 -0.3945  0.1350
42302SOL    HW130498   1.170   2.342   8.476  0.8347 -0.9313  1.2141
42302SOL    HW230499   1.320   2.368   8.478  0.4944  1.3444  0.7006
42303SOL     OW30500  10.062   4.400   6.153  0.4671  0.2429  0.1190
42303SOL    HW130501   9.995   4.375   6.090  0.0741  0.5904  0.3930
42303SOL    HW230502  10.027   4.478   6.197  0.3544 -0.4698  1.3417
42304SOL     OW30503   9.921   2.460  10.047 -0.1640  0.1217  0.1065
42304SOL    HW130504   9.860   2.527  10.077 -0.5003  0.5712 -1.4905
42304SOL    HW230505   9.960   2.496   9.968  0.7718 -0.9572  0.0425
42305SOL     OW30506   6.408   8.196   4.592  0.2654  0.1809 -0.2926
42305SOL    HW130507   6.492   8.241   4.598 -0.2310  1.3605 -1.7431
42305SOL    HW230508   6.418   8.138   4.516 -0.1820  0.2297 -0.3868
42306SOL     OW30509   7.520  10.751   4.915 -0.2710  0.3592 -0.0765
42306SOL    HW130510   7.602  10.731   4.960  0.7087  1.0483 -1.4679
42306SOL    HW230511   7.525  10.703   4.833 -0.9703  0.9170 -0.4570
42307SOL     OW30512   5.853   3.102   9.665 -0.0437 -0.3605 -0.6713
42307SOL    HW130513   5.847   3.151   9.747  2.3153  1.7478 -1.6386
42307SOL    HW230514   5.773   3.049   9.663 -2.9414  3.4879  0.4655
42308SOL     OW30515   8.892   6.885   7.379 -0.3453  0.0505  0.5097
42308SOL    HW130516   8.850   6.837   7.451 -0.4362  0.1603  0.5285
42308SOL    HW230517   8.982   6.852   7.378 -0.5847 -0.6122  0.0947
42309SOL     OW30518  10.792   9.075   3.965 -0.0609 -0.3304 -0.2436
42309SOL    HW130519  10.807   9.151   4.021  0.9397 -0.2809 -0.5572
42309SOL    HW230520  10.732   9.019   4.015  0.1371  0.1101  0.5016
42310SOL     OW30521   2.269   4.469   3.476  0.0948 -0.3722 -0.3333
42310SOL    HW130522   2.200   4.428   3.528 -0.0388 -0.5698 -0.6674
42310SOL    HW230523   2.314   4.396   3.434 -0.0081 -0.1887 -0.7603
42311SOL     OW30524  10.206   8.484   8.856 -0.0028  0.1293 -0.4652
42311SOL    HW130525  10.151   8.434   8.916  1.4166 -0.1431  0.6585
42311SOL    HW230526  10.287   8.433   8.850  0.9682  1.6106 -0.3397
42312SOL     OW30527   6.318   9.799   4.538  0.1429 -0.2844  0.1544
42312SOL    HW130528   6.292   9.878   4.586  1.6384  0.3277  0.0255
42312SOL    HW230529   6.236   9.755   4.516 -0.6785  0.8240  0.9254
42313SOL     OW30530   1.981   9.024   6.050 -0.6139  0.1132 -0.1464
42313SOL    HW130531   2.062   9.060   6.086  0.1108  0.2521 -1.8130
42313SOL    HW230532   1.912   9.057   6.107  0.3917  1.0493  0.5665
42314SOL     OW30533   5.392   4.552   1.583 -0.0830 -0.0335 -0.1038
42314SOL    HW130534   5.309   4.578   1.542  0.4287  0.7451 -0.6636
42314SOL    HW230535   5.423   4.479   1.529 -0.7815 -0.8565  0.5797
42315SOL     OW30536   4.611   9.686   9.116 -0.1940  0.6220 -0.1986
42315SOL    HW130537   4.685   9.676   9.177  0.7527 -0.4445 -1.4686
42315SOL    HW230538   4.538   9.713   9.172  1.3733  2.7209  0.9651
42316SOL     OW30539   4.690   7.648   6.957  0.3935  0.1681 -0.0272
42316SOL    HW130540   4.634   7.637   6.880 -0.2717  0.8864  0.3271
42316SOL    HW230541   4.778   7.657   6.922  0.1029  0.4293 -0.7047
42317SOL     OW30542   0.727   1.659   4.622 -0.4593  0.1167  0.3263
42317SOL    HW130543   0.790   1.704   4.566  1.0916 -0.2501  1.7149
42317SOL    HW230544   0.677   1.604   4.563  0.0963  0.8855 -0.8948
42318SOL     OW30545   3.975   3.546   0.215 -0.3378 -0.6035 -0.2516
42318SOL    HW130546   4.021   3.535   0.131 -2.2358 -0.5159 -1.3525
42318SOL    HW230547   3.928   3.464   0.227 -1.3078 -0.0337 -0.0694
42319SOL     OW30548   7.746   6.901   5.390 -0.2589 -0.1478 -0.6025
42319SOL    HW130549   7.797   6.903   5.309  0.4353 -1.5452 -0.2365
42319SOL    HW230550   7.655   6.904   5.361 -0.0139 -0.3616 -1.4218
42320SOL     OW30551  10.036   4.244   6.475 -0.0328  0.0030 -0.1541
42320SOL    HW130552   9.966   4.234   6.410  0.4072  1.7696 -0.9552
42320SOL    HW230553  10.077   4.328   6.453  1.2877 -0.2233  1.3150
42321SOL     OW30554   2.347   5.097  10.326  0.2939 -0.2177  0.4091
42321SOL    HW130555   2.298   5.089  10.244 -0.0101  1.0113  0.4422
42321SOL    HW230556   2.357   5.008  10.358  1.1644 -0.8193 -1.4022
42322SOL     OW30557   5.753   9.323   9.079  0.0878  0.0595 -0.4574
42322SOL    HW130558   5.701   9.243   9.089  0.7964 -0.2732  0.8711
42322SOL    HW230559   5.693   9.386   9.040 -1.2230 -0.3996  0.7220
42323SOL     OW30560   2.446   6.214   3.064 -0.2408  0.0363 -0.0027
42323SOL    HW130561   2.421   6.152   3.133 -0.9993 -0.8229 -1.0129
42323SOL    HW230562   2.373   6.275   3.059  0.0878  0.4679  0.3504
42324SOL     OW30563   0.135   3.316   5.678  0.1084  0.0586  0.5441
42324SOL    HW130564   0.227   3.329   5.700  0.0031 -2.1032  2.5827
42324SOL    HW230565   0.118   3.224   5.696 -2.2476  0.1546 -0.7229
42325SOL     OW30566   1.426   5.418   5.836  0.0952  0.0154 -0.1571
42325SOL    HW130567   1.404   5.409   5.929 -2.0840  0.6948 -0.5502
42325SOL    HW230568   1.410   5.331   5.799 -1.9619  0.4499 -0.3985
42326SOL     OW30569   7.009   3.063  10.875 -0.4919  0.1889 -0.0957
42326SOL    HW130570   7.006   3.148  10.919 -1.8777  0.0255  0.1797
42326SOL    HW230571   6.971   3.080  10.788  1.0023  0.2372 -0.7584
42327SOL     OW30572   1.988  10.962   9.314  0.2934 -0.5631 -0.5117
42327SOL    HW130573   1.991  10.867   9.302 -1.0263 -1.0319  2.0057
42327SOL    HW230574   2.069  10.983   9.361  0.2337 -0.5832 -0.3986
42328SOL     OW30575   8.219   9.726  10.378 -0.6024  0.0486  0.4938
42328SOL    HW130576   8.211   9.819  10.399 -1.7509 -0.0943  0.7137
42328SOL    HW230577   8.236   9.683  10.462 -2.0012 -0.1478  0.7012
42329SOL     OW30578   4.123   0.800   3.897 -0.6963 -0.0655 -0.0802
42329SOL    HW130579   4.038   0.809   3.938  0.7782  0.1430  3.2822
42329SOL    HW230580   4.168   0.732   3.947  1.0854 -0.3210 -1.8516
42330SOL     OW30581   9.754   4.934   8.090  0.0800 -0.4447  0.2005
42330SOL    HW130582   9.795   4.928   8.003  0.6933  2.4278  0.2013
42330SOL    HW230583   9.667   4.969   8.074 -0.8749 -2.5036  0.5790
42331SOL     OW30584   5.098   2.260   5.202 -0.3181 -0.0136  0.3080
42331SOL    HW130585   5.173   2.305   5.240 -0.3811  0.6193 -0.3019
42331SOL    HW230586   5.135   2.190   5.149 -0.1670  0.1928  0.1428
42332SOL     OW30587   5.999   9.430  10.201 -0.8231 -0.3197  0.1496
42332SOL    HW130588   6.028   9.403  10.288  3.1138  2.3848 -0.1173
42332SOL    HW230589   5.930   9.495  10.218 -0.1698  0.1078  1.2414
42333SOL     OW30590   8.181   1.263   9.351  0.7119  0.1417  0.3990
42333SOL    HW130591   8.092   1.245   9.382 -0.2311  1.1782 -1.5281
42333SOL    HW230592   8.236   1.250   9.429 -0.9557 -1.5623  1.4039
42334SOL     OW30593   1.064   0.244   6.932 -0.3524  0.2014  0.0060
42334SOL    HW130594   1.003   0.180   6.895 -1.3057  1.6876 -1.1306
42334SOL    HW230595   1.032   0.259   7.021 -0.8452 -0.0205 -0.1302
42335SOL     OW30596   9.125   9.382  10.031 -0.6644  0.0912  0.3880
42335SOL    HW130597   9.059   9.449  10.051  1.6651  2.6852  0.0372
42335SOL    HW230598   9.138   9.389   9.936  1.5596  1.1786  0.7245
42336SOL     OW30599  10.714   5.193   8.961 -0.1602 -0.5756  0.2143
42336SOL    HW130600  10.659   5.220   8.888 -0.8963 -0.6329  0.7349
42336SOL    HW230601  10.693   5.101   8.975  0.5694 -0.7857 -0.0100
42337SOL     OW30602   2.291  10.797   6.551 -0.4452  0.1339 -0.0117
42337SOL    HW130603   2.361  10.774   6.490 -1.5425 -1.2596 -0.8098
42337SOL    HW230604   2.308  10.742   6.628  0.1061  0.8186  0.3681
42338SOL     OW30605   6.837   7.328   1.384 -0.7696 -0.3656  0.2653
42338SOL    HW130606   6.828   7.236   1.360  0.3855 -1.0473  2.1648
42338SOL    HW230607   6.853   7.373   1.301 -0.5232 -1.9976 -0.6253
42339SOL     OW30608   3.048   0.056   9.098 -0.1706  0.1443 -0.2389
42339SOL    HW130609   2.966   0.028   9.140 -0.1626  0.8658  0.2854
42339SOL    HW230610   3.061  -0.006   9.027 -0.0895 -1.2514  0.9383
42340SOL     OW30611   1.929  10.251   0.445  0.0167 -0.1764 -0.3612
42340SOL    HW130612   1.873  10.312   0.397 -1.0525 -0.7047  0.1843
42340SOL    HW230613   1.948  10.297   0.527  0.6603  0.1318 -0.6743
42341SOL     OW30614   9.718   8.757  10.768  0.0860 -0.6129  0.4842
42341SOL    HW130615   9.624   8.760  10.753  0.0447  0.1135  0.8747
42341SOL    HW230616   9.734   8.668  10.801 -0.3000 -1.0935 -0.5534
42342SOL     OW30617   9.907   2.703   3.357 -0.1826  0.4894 -0.4708
42342SOL    HW130618   9.935   2.794   3.372 -0.1889  0.3699  0.3214
42342SOL    HW230619   9.888   2.669   3.445 -2.1194  0.3425 -0.8817
42343SOL     OW30620   6.652   7.496   6.911  0.1948 -0.0883 -0.2957
42343SOL    HW130621   6.614   7.538   6.835 -0.8211 -1.3767 -0.5339
42343SOL    HW230622   6.743   7.480   6.886  0.6706  2.0710 -0.1176
42344SOL     OW30623  10.828   6.541   1.079 -0.0799 -0.0450 -0.8445
42344SOL    HW130624  10.789   6.608   1.135 -0.4110 -1.1215  0.2465
42344SOL    HW230625  10.791   6.558   0.992 -2.6241 -0.6881  0.0435
42345SOL     OW30626   4.575   1.539   5.669 -0.7338 -0.2233  0.3977
42345SOL    HW130627   4.606   1.603   5.604 -1.7758  0.6963  0.7732
42345SOL    HW230628   4.637   1.547   5.742  0.1646 -0.9194 -0.2631
42346SOL     OW30629   7.342   5.530   9.777 -1.0007 -0.2845  0.0699
42346SOL    HW130630   7.399   5.563   9.846 -0.0950 -1.7100  0.0464
42346SOL    HW230631   7.259   5.577   9.790  0.1069  1.7647  0.1634
42347SOL     OW30632   5.919   5.457   7.554 -0.1114 -0.1309 -0.3105
42347SOL    HW130633   5.899   5.477   7.463  1.9251  1.3091 -0.5053
42347SOL    HW230634   5.875   5.525   7.605  0.6458  0.4451 -0.4118
42348SOL     OW30635   1.622   9.428   0.199 -0.2743 -0.0940  0.9218
42348SOL    HW130636   1.551   9.462   0.254  0.4008  2.2543  0.4594
42348SOL    HW230637   1.693   9.409   0.261 -0.3640  0.1731  1.1110
42349SOL     OW30638   2.661  10.102   9.862  0.0432  0.2920 -0.4532
42349SOL    HW130639   2.730  10.156   9.899  0.3028  0.2318 -0.8527
42349SOL    HW230640   2.688  10.085   9.772 -0.0726 -0.4315 -0.3611
42350SOL     OW30641   7.768   1.826   4.571  0.7464  0.4196 -0.0264
42350SOL    HW130642   7.761   1.902   4.628 -0.2308  1.7566 -1.8274
42350SOL    HW230643   7.854   1.835   4.530  1.8861 -1.0837  1.8622
42351SOL     OW30644   7.098   1.129   6.105 -0.1566  0.0399 -0.3636
42351SOL    HW130645   7.190   1.138   6.128  0.0732  2.4789 -1.8803
42351SOL    HW230646   7.090   1.041   6.070  1.4210 -0.4502  0.4308
42352SOL     OW30647   4.103  10.318   8.829 -0.5221  0.4204 -0.0499
42352SOL    HW130648   4.185  10.365   8.834 -1.6490  2.6278 -0.9197
42352SOL    HW230649   4.080  10.297   8.919  0.9648 -0.2584  0.1920
42353SOL     OW30650   2.923   4.112  10.691  0.6330  0.0434  0.8478
42353SOL    HW130651   2.973   4.144  10.617  0.9303 -2.0581  0.0790
42353SOL    HW230652   2.983   4.117  10.765  2.0899 -2.3701 -0.0430
42354SOL     OW30653   6.971   3.459   4.141 -0.1151  0.2204  0.0998
42354SOL    HW130654   7.001   3.423   4.224 -0.3845  1.1566  0.6121
42354SOL    HW230655   7.046   3.449   4.082 -0.2990 -1.4978  0.1039
42355SOL     OW30656   9.456   1.278   9.685  0.1763  0.1253  0.2205
42355SOL    HW130657   9.493   1.239   9.764 -1.1392  0.6538  1.1179
42355SOL    HW230658   9.495   1.228   9.613 -0.7478 -2.2741  1.2858
42356SOL     OW30659   0.620   5.422   5.402 -0.2238  0.2011  0.2206
42356SOL    HW130660   0.637   5.388   5.490  0.7640  0.7808  0.2747
42356SOL    HW230661   0.525   5.420   5.393 -0.2799 -1.0167  0.8320
42357SOL     OW30662  10.727   6.698   7.314  0.3228  0.2693 -0.1285
42357SOL    HW130663  10.673   6.640   7.368  1.4093 -0.1216  0.5781
42357SOL    HW230664  10.740   6.776   7.369  0.4652  0.3667 -0.2992
42358SOL     OW30665   2.869   6.370   6.779  0.2977 -0.2823 -0.0262
42358SOL    HW130666   2.812   6.334   6.847  0.8600  0.1068  0.6765
42358SOL    HW230667   2.935   6.421   6.828  1.2792 -0.7677 -0.8001
42359SOL     OW30668  10.128   0.533   0.626  0.0966 -0.0450  0.0110
42359SOL    HW130669  10.183   0.455   0.614 -0.3692 -0.6075  1.2692
42359SOL    HW230670  10.171   0.582   0.696 -1.3357 -0.8671  1.5392
42360SOL     OW30671   5.011  10.350   0.880  0.1372  0.6583  0.3481
42360SOL    HW130672   5.052  10.297   0.812 -1.7109 -0.3636 -0.0451
42360SOL    HW230673   4.985  10.431   0.836 -1.9765 -0.4096 -0.5157
42361SOL     OW30674   4.314   4.615   4.290 -0.0333  0.4089 -0.0884
42361SOL    HW130675   4.278   4.545   4.236  2.5352  0.0591 -1.4739
42361SOL    HW230676   4.252   4.622   4.363 -0.9300 -2.6034 -0.3993
42362SOL     OW30677   0.462   2.661   2.021  0.1671 -0.1072  0.4658
42362SOL    HW130678   0.383   2.625   2.062 -0.8760  1.2217 -0.3002
42362SOL    HW230679   0.515   2.690   2.095 -1.3918  1.6374  0.9759
42363SOL     OW30680   0.228   9.899   9.131  0.3168  0.0167  0.0715
42363SOL    HW130681   0.257   9.980   9.174 -1.3264  0.2009  0.9079
42363SOL    HW230682   0.190   9.847   9.202 -0.3674 -0.6722 -0.7889
42364SOL     OW30683  10.331  10.788   1.394  0.5163 -0.0638 -0.3105
42364SOL    HW130684  10.329  10.799   1.489  1.5481 -1.1114 -0.1473
42364SOL    HW230685  10.279  10.709   1.379  0.2248  0.1886 -0.6366
42365SOL     OW30686   4.770   7.503   9.468  0.1882  0.2754 -0.2791
42365SOL    HW130687   4.735   7.548   9.545 -0.1738  0.9851 -0.8532
42365SOL    HW230688   4.861   7.531   9.463  0.3365 -0.1212  0.1445
42366SOL     OW30689   3.608  10.650   2.257  0.0062 -0.4056 -0.5612
42366SOL    HW130690   3.522  10.676   2.222  0.4949  2.3287  0.0754
42366SOL    HW230691   3.644  10.731   2.293  0.5297 -2.4932  4.2534
42367SOL     OW30692   3.635   6.091   9.874 -0.4356  0.0426 -0.3756
42367SOL    HW130693   3.583   6.095   9.794  1.2709  0.9401 -1.5071
42367SOL    HW230694   3.632   6.180   9.909  1.8290  0.6686 -1.5413
42368SOL     OW30695   2.221   0.803   0.976  0.0298  0.3091  0.9641
42368SOL    HW130696   2.280   0.858   0.924  0.7223 -0.0730  1.3391
42368SOL    HW230697   2.252   0.812   1.066 -0.4746  0.0858  1.1639
42369SOL     OW30698   2.294   8.719  10.610  0.1427 -0.2258 -0.4268
42369SOL    HW130699   2.222   8.770  10.572 -1.3286 -0.6669  1.5557
42369SOL    HW230700   2.258   8.688  10.693  2.2527 -1.4946  0.0595
42370SOL     OW30701   9.252   9.827   9.047 -0.1796  0.2575  0.7219
42370SOL    HW130702   9.284   9.779   9.124  0.9183 -0.2215 -0.0098
42370SOL    HW230703   9.196   9.895   9.084 -0.9618 -0.9403  1.8461
42371SOL     OW30704   4.703   1.781   4.812 -0.2447 -0.8588 -0.0751
42371SOL    HW130705   4.764   1.843   4.852  0.4704 -1.7554  0.2397
42371SOL    HW230706   4.617   1.807   4.846  0.0102  0.0886 -0.1213
42372SOL     OW30707   2.918   9.585   9.168  0.3020 -0.3639 -0.1555
42372SOL    HW130708   2.851   9.561   9.232  0.2601  0.0171 -0.0503
42372SOL    HW230709   2.876   9.654   9.116 -0.2184 -1.7197 -1.5853
42373SOL     OW30710   2.489  10.036  10.140 -0.8395  0.2939  0.8169
42373SOL    HW130711   2.475   9.987  10.221 -1.1186 -1.5737 -0.2833
42373SOL    HW230712   2.558   9.987  10.095 -1.1816  0.8760 -0.3844
42374SOL     OW30713   4.706   1.889   8.931  0.1642  0.0202 -0.0470
42374SOL    HW130714   4.612   1.893   8.914 -0.0132 -2.2634  0.0814
42374SOL    HW230715   4.714   1.891   9.027  0.5798  3.8332  0.0060
42375SOL     OW30716   7.786   3.650   5.994 -0.4570 -0.2558  0.5643
42375SOL    HW130717   7.835   3.588   6.048  0.1218  0.1793  0.5583
42375SOL    HW230718   7.695   3.641   6.022 -0.0417  0.6771  2.3585
42376SOL     OW30719   7.248   2.126   3.408  0.1177  0.3186 -0.3186
42376SOL    HW130720   7.298   2.101   3.330  0.6027  0.1364  0.0470
42376SOL    HW230721   7.158   2.133   3.377  0.2362 -0.1962 -0.8028
42377SOL     OW30722   0.994   9.570   2.198 -0.1399 -0.2119  0.1903
42377SOL    HW130723   1.077   9.538   2.234 -0.2370 -0.7646 -0.0843
42377SOL    HW230724   0.928   9.511   2.234 -0.2738 -0.5729 -0.6372
42378SOL     OW30725   0.708   6.842   5.152 -0.5084  0.1534 -0.3740
42378SOL    HW130726   0.732   6.763   5.201 -2.5813 -0.0273  0.4497
42378SOL    HW230727   0.689   6.810   5.063 -2.6648 -0.5993  0.2780
42379SOL     OW30728   6.537   4.153   5.348  0.5698  1.0113  0.1944
42379SOL    HW130729   6.460   4.184   5.395 -0.1857  1.0522 -1.0189
42379SOL    HW230730   6.513   4.065   5.318  1.7799  0.1812  1.5304
42380SOL     OW30731   7.964  10.316   7.562  0.1387 -0.2507 -0.0236
42380SOL    HW130732   7.915  10.398   7.565  0.6724  0.0648  0.4138
42380SOL    HW230733   7.959  10.288   7.470  0.8143  0.8182 -0.4140
42381SOL     OW30734   3.020   3.443   3.617 -0.4174  0.1461 -0.2202
42381SOL    HW130735   2.980   3.459   3.702  0.7596  0.0566  0.3697
42381SOL    HW230736   3.114   3.458   3.631  0.0547 -1.7432 -0.9889
42382SOL     OW30737   7.815   6.271   7.345 -0.2957  0.0062  0.4018
42382SOL    HW130738   7.801   6.359   7.308 -0.9311 -0.7981 -1.3652
42382SOL    HW230739   7.906   6.251   7.323  0.5024  0.9331  2.5130
42383SOL     OW30740   5.359   4.477   0.887  0.4610  0.2348  0.3114
42383SOL    HW130741   5.371   4.467   0.793  1.1709  1.4808  0.2471
42383SOL    HW230742   5.321   4.394   0.915  3.2804 -1.4842 -0.5345
42384SOL     OW30743   1.024   6.517   2.548 -0.1664  0.4313  0.2268
42384SOL    HW130744   0.944   6.466   2.538  0.4156 -0.5766  0.5807
42384SOL    HW230745   1.066   6.481   2.627  0.7161  0.8253 -0.0460
42385SOL     OW30746   8.280  10.139   4.088 -0.2959  0.6590 -0.2479
42385SOL    HW130747   8.263  10.069   4.025  3.6927 -1.3508  0.5798
42385SOL    HW230748   8.347  10.193   4.046 -1.3021  2.3570  0.2718
42386SOL     OW30749   3.148   1.388  10.567  0.4748 -0.0547  0.2033
42386SOL    HW130750   3.069   1.347  10.601  0.4676  0.0684  0.3348
42386SOL    HW230751   3.148   1.367  10.474 -0.1941  0.7198  0.0187
42387SOL     OW30752   4.839   6.119   8.017 -0.4362 -0.3446  0.0505
42387SOL    HW130753   4.892   6.193   7.989  0.8394 -0.0827  2.7736
42387SOL    HW230754   4.896   6.071   8.077 -2.0339 -2.2321  0.1587
42388SOL     OW30755   7.227   5.139   8.971  0.9258  0.1539 -0.0988
42388SOL    HW130756   7.183   5.076   9.027  0.0824  0.4843 -0.3860
42388SOL    HW230757   7.315   5.148   9.009  0.3804  0.3619  1.1530
42389SOL     OW30758   7.945   9.632   5.917  0.0937 -0.1495  0.1342
42389SOL    HW130759   7.977   9.559   5.864  1.6665  0.3540  0.3460
42389SOL    HW230760   8.023   9.681   5.941 -0.8176  0.9596  0.9765
42390SOL     OW30761  10.771   7.051   2.418  0.1109  0.0650  0.2109
42390SOL    HW130762  10.679   7.023   2.416 -0.2360  0.9407  2.0110
42390SOL    HW230763  10.768   7.138   2.456  1.8043 -0.4591  1.6821
42391SOL     OW30764   2.097   2.220   7.304  0.2336  0.4067 -0.5045
42391SOL    HW130765   2.154   2.227   7.381  0.0478  1.7754 -0.4700
42391SOL    HW230766   2.013   2.191   7.338  0.9467 -2.0165 -0.5982
42392SOL     OW30767   9.556  10.746   3.301 -0.8733 -0.1890  0.2407
42392SOL    HW130768   9.514  10.761   3.386 -2.8219 -0.8181 -0.5339
42392SOL    HW230769   9.527  10.819   3.247  0.9592  0.6087  0.2770
42393SOL     OW30770   6.564   2.173   9.269 -0.3859  0.3579  0.3841
42393SOL    HW130771   6.651   2.135   9.257 -0.2772  1.1193 -1.6309
42393SOL    HW230772   6.522   2.164   9.183 -2.5164 -0.4485  1.4270
42394SOL     OW30773   5.902  10.693   4.264  0.1624  0.2124  0.6203
42394SOL    HW130774   5.962  10.625   4.235  0.7707 -0.2484  2.8234
42394SOL    HW230775   5.830  10.646   4.306 -0.3162  0.8661  0.5495
42395SOL     OW30776   1.008  10.616   8.123 -0.1920  0.1033 -0.1494
42395SOL    HW130777   0.979  10.629   8.033  1.8553  0.7707 -0.7621
42395SOL    HW230778   1.011  10.521   8.135 -4.4230 -0.1458  0.6630
42396SOL     OW30779   9.220   5.243   5.452  0.0907 -0.0261  0.2606
42396SOL    HW130780   9.285   5.183   5.416 -0.1953 -0.2008  0.0265
42396SOL    HW230781   9.261   5.329   5.449  1.3637 -0.4718  2.6160
42397SOL     OW30782   3.286   5.264   0.426 -0.5565  0.0485 -0.6123
42397SOL    HW130783   3.216   5.246   0.363  1.8740  1.3189 -4.0024
42397SOL    HW230784   3.272   5.355   0.452 -0.6303  0.0452 -0.6404
42398SOL     OW30785   0.213   0.983   2.635 -1.0375  0.8132  0.1333
42398SOL    HW130786   0.191   1.012   2.723 -1.2866 -0.0801  0.3728
42398SOL    HW230787   0.283   0.919   2.648 -2.0351 -0.3816 -0.1856
42399SOL     OW30788   0.467   3.084   2.378  0.1718 -0.0541 -1.0472
42399SOL    HW130789   0.415   3.010   2.347 -0.6219  0.5836 -1.2486
42399SOL    HW230790   0.524   3.047   2.445 -0.1971 -0.8513 -1.1658
42400SOL     OW30791   4.823   9.250  10.859 -0.3854 -0.2565 -0.8305
42400SOL    HW130792   4.850   9.333  10.899 -2.7975  0.1350  0.1017
42400SOL    HW230793   4.823   9.268  10.765  0.7229  0.2638 -0.7481
42401SOL     OW30794  10.100   9.384   4.796  0.3606 -0.1128  0.8410
42401SOL    HW130795  10.087   9.389   4.701  1.5707 -0.8256  0.6158
42401SOL    HW230796  10.045   9.310   4.823  0.3033 -0.1429  0.6461
42402SOL     OW30797   2.344   4.971   9.022  0.1904  0.5549 -0.4951
42402SOL    HW130798   2.315   5.005   8.937  0.1861  2.8971  0.3689
42402SOL    HW230799   2.422   4.918   9.001 -1.2887 -1.0930 -2.1886
42403SOL     OW30800   7.655   8.973   1.419  0.1756  0.0022 -0.5708
42403SOL    HW130801   7.577   8.916   1.417  0.3906 -0.2597 -1.5998
42403SOL    HW230802   7.620   9.062   1.418 -0.1549 -0.0889  0.7646
42404SOL     OW30803   8.610   7.526   2.361  0.5652  0.2299  0.4537
42404SOL    HW130804   8.594   7.458   2.297 -1.2535  0.2140  0.8529
42404SOL    HW230805   8.590   7.608   2.315  0.9100  0.3464  0.5104
42405SOL     OW30806   8.700   3.577  10.917  0.1405 -0.8022 -0.4318
42405SOL    HW130807   8.618   3.538  10.947  0.2660 -1.2329 -0.6417
42405SOL    HW230808   8.695   3.668  10.946 -0.4148 -0.8217 -0.4560
42406SOL     OW30809   7.170   5.453   4.857  0.2463 -0.5306  0.2383
42406SOL    HW130810   7.127   5.383   4.906  0.4060 -0.8651 -0.0932
42406SOL    HW230811   7.248   5.412   4.819  0.3997 -0.1463  0.1232
42407SOL     OW30812   3.239   2.272   6.502 -0.7613  0.4029 -0.2180
42407SOL    HW130813   3.252   2.366   6.491 -0.0662  0.6986  2.5194
42407SOL    HW230814   3.276   2.233   6.422  2.4348  2.2427  0.1892
42408SOL     OW30815   5.763   5.461   5.965 -0.2682  0.2657 -0.5555
42408SOL    HW130816   5.673   5.495   5.963 -0.3619  0.1258  0.8511
42408SOL    HW230817   5.808   5.516   6.029 -0.2841 -1.8619  1.4096
42409SOL     OW30818   0.139   6.836   2.520  0.4451  0.3672  0.3407
42409SOL    HW130819   0.061   6.803   2.563  0.3163 -1.4136 -1.1147
42409SOL    HW230820   0.110   6.914   2.472 -0.2665  0.1661  0.4416
42410SOL     OW30821   6.702   6.094  10.121  0.0926  0.1610  0.3347
42410SOL    HW130822   6.758   6.050  10.184  0.2758 -0.3124 -0.1544
42410SOL    HW230823   6.612   6.074  10.149  0.1432 -1.8743 -0.7816
42411SOL     OW30824   4.427   5.976   4.708  1.3694  0.1818  0.0904
42411SOL    HW130825   4.478   6.050   4.742  0.5304  0.4285  0.8701
42411SOL    HW230826   4.453   5.902   4.763 -0.7874  0.8107  2.1391
42412SOL     OW30827   9.115   0.273   6.605 -0.2742 -0.1486 -0.0638
42412SOL    HW130828   9.085   0.218   6.532 -0.3842 -2.6392  1.7126
42412SOL    HW230829   9.034   0.305   6.645 -0.2851 -0.4256  0.1358
42413SOL     OW30830   4.511   0.126   7.298  0.1930  0.1233 -0.2099
42413SOL    HW130831   4.441   0.179   7.335  0.4435  0.6529 -0.4793
42413SOL    HW230832   4.474   0.091   7.217  0.0644 -0.0268 -0.0869
42414SOL     OW30833   4.053   3.902  10.261 -0.8832 -0.4135  0.2419
42414SOL    HW130834   3.986   3.839  10.286 -2.7399  2.1979  2.3983
42414SOL    HW230835   4.043   3.910  10.166 -2.5879 -1.2186  0.3105
42415SOL     OW30836   7.260   0.292   1.045  0.2161 -0.3773  0.0578
42415SOL    HW130837   7.258   0.260   0.955  0.6975 -1.2816  0.3613
42415SOL    HW230838   7.353   0.297   1.067  0.1015 -0.1561  0.5110
42416SOL     OW30839   4.481   9.726   6.468  0.0655  0.1756 -0.2537
42416SOL    HW130840   4.545   9.655   6.478  1.2798  1.4731  2.0243
42416SOL    HW230841   4.396   9.685   6.484  0.5817 -1.0612 -0.5595
42417SOL     OW30842   6.422   8.128   0.797  0.1677  0.5092  0.4155
42417SOL    HW130843   6.433   8.195   0.730 -1.6361 -1.2493 -1.8517
42417SOL    HW230844   6.354   8.163   0.855  1.1998  1.7365  0.9209
42418SOL     OW30845   6.413   3.155   7.716 -0.3061 -0.4698  0.0801
42418SOL    HW130846   6.427   3.155   7.622 -0.6797 -1.9153 -0.0034
42418SOL    HW230847   6.418   3.247   7.742 -1.9769  0.1549 -1.6197
42419SOL     OW30848   8.217   2.617   8.042  0.3188 -0.1682  0.9108
42419SOL    HW130849   8.298   2.667   8.042  0.4352 -0.2777  2.7591
42419SOL    HW230850   8.223   2.561   7.964  1.1904  1.0754  0.0538
42420SOL     OW30851  10.456   0.854   6.876 -0.3495  0.2354 -0.9110
42420SOL    HW130852  10.550   0.851   6.894 -0.2232  1.0471 -1.3707
42420SOL    HW230853  10.417   0.795   6.941  0.4302  0.2627 -0.4007
42421SOL     OW30854   0.131   0.419   8.563 -0.0797 -0.2258 -0.1110
42421SOL    HW130855   0.153   0.474   8.488 -0.4938  0.7213  0.4376
42421SOL    HW230856   0.055   0.369   8.534 -0.2427  0.1394 -0.3308
42422SOL     OW30857  10.351   0.927   1.111  0.5290 -0.0176  0.5367
42422SOL    HW130858  10.315   0.944   1.198  0.1916 -0.4478  0.4806
42422SOL    HW230859  10.282   0.954   1.050  0.8287  0.4412  0.3962
42423SOL     OW30860   3.667   5.403   8.411  0.2478 -0.9369 -0.1459
42423SOL    HW130861   3.578   5.372   8.428 -0.0053  0.3938  1.1839
42423SOL    HW230862   3.717   5.377   8.489 -0.0281  1.9755  1.1499
42424SOL     OW30863   5.504   7.253   8.867  0.3407  0.3150  0.0883
42424SOL    HW130864   5.482   7.311   8.940  1.6063  0.7711  0.1292
42424SOL    HW230865   5.473   7.300   8.789  0.0988  0.3907  0.2285
42425SOL     OW30866   9.449  10.034  10.671  0.3127 -0.0017  0.4497
42425SOL    HW130867   9.367  10.041  10.720 -1.6298  0.7168 -2.6265
42425SOL    HW230868   9.448  10.110  10.612  1.7243 -1.5800 -1.7335
42426SOL     OW30869   8.273  10.642  10.992  0.3450 -0.3887  0.0508
42426SOL    HW130870   8.298  10.657  10.901 -0.2055 -0.1569 -0.0642
42426SOL    HW230871   8.307  10.554  11.012  2.1389  0.2990  0.2230
42427SOL     OW30872   5.276   7.136   7.909 -0.6063  0.2272  0.0708
42427SOL    HW130873   5.239   7.142   7.997  0.3671  0.9156  0.4491
42427SOL    HW230874   5.357   7.186   7.914 -0.5484  0.2868 -1.2293
42428SOL     OW30875   3.366  10.193   7.373 -0.0816 -0.6128 -0.0373
42428SOL    HW130876   3.412  10.186   7.289  0.0148 -0.9406  0.0396
42428SOL    HW230877   3.405  10.269   7.415 -1.9035  1.1589 -1.3637
42429SOL     OW30878  10.805   9.019   9.772  0.1021 -0.6398  0.2173
42429SOL    HW130879  10.878   9.028   9.710 -0.5249 -0.4746 -0.5133
42429SOL    HW230880  10.767   8.934   9.751 -0.2772 -0.4657  0.2024
42430SOL     OW30881   6.251   8.349   2.073 -0.1666 -0.4401  0.1223
42430SOL    HW130882   6.261   8.311   2.161  2.2035 -0.0421  0.0929
42430SOL    HW230883   6.230   8.275   2.017 -0.1517 -0.9575  0.7894
42431SOL     OW30884   5.519   9.421  10.338 -0.3683 -0.7632 -0.0909
42431SOL    HW130885   5.431   9.385  10.348 -0.6962  0.3228  1.0888
42431SOL    HW230886   5.570   9.380  10.408 -0.2955 -0.2846  0.1366
42432SOL     OW30887   6.247   8.692   6.205  0.0688  0.2537 -0.7163
42432SOL    HW130888   6.196   8.614   6.185 -1.8901  1.0320  0.8943
42432SOL    HW230889   6.219   8.717   6.293  2.0424  1.7128 -0.4384
42433SOL     OW30890   3.290   0.185   8.861 -0.0989  0.4232 -0.2769
42433SOL    HW130891   3.201   0.217   8.875  0.4274  2.0811 -0.5923
42433SOL    HW230892   3.305   0.195   8.767  0.7718  1.1575 -0.0751
42434SOL     OW30893   7.723   4.100   6.945  0.2451 -0.0783 -0.1245
42434SOL    HW130894   7.744   4.192   6.961  0.1933 -0.2036  0.7127
42434SOL    HW230895   7.804   4.054   6.965 -0.1468 -0.3477  0.9070
42435SOL     OW30896   6.752   9.651   5.147  0.1014 -0.0749  0.4744
42435SOL    HW130897   6.729   9.702   5.224  0.3973 -0.3746  0.7652
42435SOL    HW230898   6.806   9.580   5.180  0.9912  0.3023 -0.1175
42436SOL     OW30899   6.862   4.041   4.899  0.2733  0.3513  0.2416
42436SOL    HW130900   6.841   3.986   4.823 -0.2605 -0.0271  0.6509
42436SOL    HW230901   6.788   4.028   4.959  0.8729  0.3321  0.9928
42437SOL     OW30902   4.272   8.320   3.813  0.7830 -0.0297 -0.1179
42437SOL    HW130903   4.363   8.292   3.818  0.8108 -0.5315 -2.3396
42437SOL    HW230904   4.221   8.242   3.833  0.8165  0.2400  1.0795
42438SOL     OW30905   1.941   5.615   4.845  0.3789 -0.0297 -0.1399
42438SOL    HW130906   2.004   5.544   4.857 -1.3789 -1.6045  0.2381
42438SOL    HW230907   1.857   5.571   4.837 -0.9671  2.0985  1.4191
42439SOL     OW30908   7.526  10.095   1.782  0.2960  0.0349 -0.1192
42439SOL    HW130909   7.466  10.088   1.857 -0.3322 -1.5723 -0.7218
42439SOL    HW230910   7.468  10.093   1.705  1.0866 -1.8297 -0.7259
42440SOL     OW30911   2.634   1.835   3.705 -0.1544  0.1606 -0.1771
42440SOL    HW130912   2.681   1.763   3.748  0.3513  0.8639  0.4837
42440SOL    HW230913   2.656   1.826   3.613  1.5743  0.6355  0.1402
42441SOL     OW30914   6.257   2.882  10.281 -0.1085  0.4837 -0.1806
42441SOL    HW130915   6.204   2.862  10.358  0.5127 -0.3144  0.0539
42441SOL    HW230916   6.261   2.799  10.233 -1.0244  1.1258 -1.4264
42442SOL     OW30917   1.600   9.243  10.514  0.0167 -0.1084 -0.5233
42442SOL    HW130918   1.641   9.189  10.447 -0.1341 -1.9927  0.8130
42442SOL    HW230919   1.661   9.241  10.588  0.7174  2.8364 -0.8992
42443SOL     OW30920   0.112  10.251   0.964 -0.3016  0.0966  0.3197
42443SOL    HW130921   0.094  10.264   1.057 -1.3228 -0.8571  0.2716
42443SOL    HW230922   0.036  10.286   0.919 -0.3407 -0.5095 -0.0950
42444SOL     OW30923  10.250  10.767   1.672 -0.0739 -0.1121  0.2784
42444SOL    HW130924  10.170  10.729   1.709  0.5686 -1.0102  0.7968
42444SOL    HW230925  10.263  10.848   1.720  0.9230 -1.4172  2.3475
42445SOL     OW30926   6.361  10.941   5.235 -0.5014  0.0312  0.5298
42445SOL    HW130927   6.406  10.998   5.297 -0.4873  0.9003 -0.2507
42445SOL    HW230928   6.430  10.885   5.199 -0.8000 -1.8086  2.6433
42446SOL     OW30929   1.726   1.961   9.502 -0.2708 -0.2241  0.4341
42446SOL    HW130930   1.710   2.055   9.502 -0.2378 -0.2147  1.1373
42446SOL    HW230931   1.724   1.936   9.594 -0.1048 -0.8833  0.2647
42447SOL     OW30932   9.325   5.410   6.060  0.3850  0.2603  0.3406
42447SOL    HW130933   9.302   5.360   5.981  1.8558 -1.9633  1.2152
42447SOL    HW230934   9.419   5.396   6.070  0.3245  0.9773  2.1732
42448SOL     OW30935   8.327   1.838   8.117  0.0652  0.6199  0.0059
42448SOL    HW130936   8.386   1.880   8.055 -0.0692 -0.1969 -0.6966
42448SOL    HW230937   8.268   1.907   8.145  0.7031  1.2073 -0.0731
42449SOL     OW30938   1.559   1.977   7.149 -0.1928 -0.1042 -0.4424
42449SOL    HW130939   1.532   1.934   7.068  1.0031  1.2191 -1.6136
42449SOL    HW230940   1.497   2.049   7.159  1.1138  1.2816 -1.6494
42450SOL     OW30941   0.135   0.544   9.170  0.4753  0.6620 -0.4281
42450SOL    HW130942   0.134   0.448   9.171 -0.3891  0.6638 -0.2638
42450SOL    HW230943   0.049   0.568   9.137  1.4705  1.3775 -2.7239
42451SOL     OW30944   4.455   3.556   8.405  0.1350  0.0312  0.0331
42451SOL    HW130945   4.478   3.463   8.399  1.0497  0.2121  0.5737
42451SOL    HW230946   4.461   3.577   8.498 -0.1410  0.6089 -0.0763
42452SOL     OW30947   3.561   2.954  10.163 -0.2526 -0.5493  0.2689
42452SOL    HW130948   3.536   2.885  10.225  0.2569 -1.7289 -0.7814
42452SOL    HW230949   3.642   2.922  10.123  0.2839  0.9229  0.1258
42453SOL     OW30950   2.830   8.433   5.110 -0.2736 -0.5528 -0.1220
42453SOL    HW130951   2.841   8.525   5.084 -0.5826 -0.4446  0.1294
42453SOL    HW230952   2.919   8.403   5.128  0.0852 -0.9093 -2.2078
42454SOL     OW30953   3.028   2.610  10.554  0.5106  0.2661  0.4770
42454SOL    HW130954   2.987   2.573  10.476  0.8077 -0.1936  0.5351
42454SOL    HW230955   2.955   2.636  10.610  0.2829 -1.1563  0.8757
42455SOL     OW30956   7.282   8.284   8.432 -0.0865 -0.2906 -0.6237
42455SOL    HW130957   7.191   8.256   8.429 -0.2637  0.1978 -0.0906
42455SOL    HW230958   7.330   8.217   8.383 -0.4051 -1.8346  1.0650
42456SOL     OW30959   5.897   7.580   5.999  0.1983 -0.0569 -0.6426
42456SOL    HW130960   5.856   7.499   5.969  0.9857 -1.3706  1.5834
42456SOL    HW230961   5.836   7.649   5.973 -0.7340 -1.3885 -2.1637
42457SOL     OW30962  10.644   5.717   2.503 -0.4106  0.2213  0.2079
42457SOL    HW130963  10.579   5.751   2.564 -0.7702  0.1281 -0.1219
42457SOL    HW230964  10.607   5.731   2.416  0.5768  1.3434 -0.0549
42458SOL     OW30965   8.916   2.076   0.372 -0.0431 -0.0189 -0.1247
42458SOL    HW130966   8.834   2.097   0.328  0.4525 -0.6423 -1.4238
42458SOL    HW230967   8.923   2.138   0.444 -1.9381 -0.3494  0.3803
42459SOL     OW30968  10.854  11.012  10.336  0.2344 -0.3247  0.5988
42459SOL    HW130969  10.852  11.106  10.320 -3.3202 -0.4747 -0.6359
42459SOL    HW230970  10.825  11.002  10.427  2.0832 -0.2610  1.2473
42460SOL     OW30971   0.860  10.670  10.951  0.0697  0.7190  0.4411
42460SOL    HW130972   0.946  10.675  10.994 -0.5826 -0.1558  1.9110
42460SOL    HW230973   0.799  10.708  11.013 -0.9865 -1.0942  0.5782
42461SOL     OW30974   2.407   6.575   6.380 -0.3615  0.5329  0.1262
42461SOL    HW130975   2.382   6.609   6.466 -0.3823 -0.4146  0.5159
42461SOL    HW230976   2.437   6.485   6.398 -0.6476  0.2213 -0.8875
42462SOL     OW30977   9.501   0.005   8.227 -0.2033 -0.3763  0.0139
42462SOL    HW130978   9.497   0.006   8.323 -1.3395 -1.5862  0.0015
42462SOL    HW230979   9.514  -0.087   8.204 -0.5518 -0.1773 -1.0183
42463SOL     OW30980   5.161   7.382   2.312  0.2039  0.3166 -0.1814
42463SOL    HW130981   5.110   7.461   2.293 -1.7624 -1.1723 -1.4826
42463SOL    HW230982   5.179   7.343   2.227  0.9581 -0.7429  0.4352
42464SOL     OW30983   8.803   5.484   7.940  0.3810 -0.0371 -0.3380
42464SOL    HW130984   8.726   5.463   7.887  0.8033  0.7370 -1.2866
42464SOL    HW230985   8.844   5.399   7.957  0.0806 -0.3230 -1.0223
42465SOL     OW30986   7.036   4.307   3.157 -0.2503  0.2294  0.0275
42465SOL    HW130987   6.983   4.369   3.208 -0.9078  0.2628 -0.6840
42465SOL    HW230988   6.972   4.253   3.111  0.3162  0.9452 -1.6724
42466SOL     OW30989   3.498   6.704   0.590 -0.2732  0.2161 -0.0664
42466SOL    HW130990   3.497   6.713   0.495 -0.8531  0.3616 -0.0511
42466SOL    HW230991   3.458   6.784   0.622 -0.1771  0.1211  0.2965
42467SOL     OW30992   3.834   0.390   3.594 -0.3564 -0.4000 -0.4531
42467SOL    HW130993   3.865   0.476   3.565  0.5070 -0.6943 -0.4454
42467SOL    HW230994   3.914   0.341   3.613 -0.7987 -1.5292 -1.3641
42468SOL     OW30995   5.680   5.371   1.534  0.7928  0.0214  0.6277
42468SOL    HW130996   5.631   5.425   1.596 -1.7149 -0.3491 -0.9224
42468SOL    HW230997   5.671   5.416   1.450  2.5044 -0.4942  0.1261
42469SOL     OW30998   5.621   7.207   4.948  0.2643  0.5316 -0.0473
42469SOL    HW130999   5.550   7.241   5.003 -2.0157  0.6034 -2.7589
42469SOL    HW231000   5.691   7.272   4.957 -0.2562  0.8589  2.1816
42470SOL     OW31001   9.792   4.578   7.192 -0.2202 -0.0928 -0.4194
42470SOL    HW131002   9.827   4.490   7.182  0.1465  0.1022 -0.9410
42470SOL    HW231003   9.850   4.633   7.139 -0.8442  0.3565 -0.6522
42471SOL     OW31004   9.147   7.347   7.630 -0.2145 -0.3195 -0.1942
42471SOL    HW131005   9.159   7.365   7.536  1.1983  1.3121  0.2514
42471SOL    HW231006   9.211   7.278   7.649  1.0276  0.8502 -0.0219
42472SOL     OW31007   0.350   0.243   3.183 -0.0523  0.1799  0.3353
42472SOL    HW131008   0.375   0.334   3.196 -2.0885  0.9972 -0.9677
42472SOL    HW231009   0.428   0.200   3.149  0.5149  1.7907 -0.4601
42473SOL     OW31010   7.508   8.736  10.748  0.2666  0.3628  0.4230
42473SOL    HW131011   7.554   8.783  10.678  0.9801 -0.7661  0.0987
42473SOL    HW231012   7.431   8.700  10.705 -1.1666  2.5044  1.0353
42474SOL     OW31013   4.965   0.968  10.919 -0.5811 -0.1725 -0.2071
42474SOL    HW131014   4.975   0.992  10.827  0.1572 -0.1798 -0.1409
42474SOL    HW231015   4.931   1.046  10.962  1.5213  0.7316 -0.0423
42475SOL     OW31016   2.517   2.172   7.684 -0.0111  0.1530 -0.2351
42475SOL    HW131017   2.425   2.189   7.666  0.1398  0.0975 -1.0799
42475SOL    HW231018   2.516   2.094   7.739 -0.3572 -2.2275 -3.3396
42476SOL     OW31019   7.313  10.172   0.462  0.5444 -0.0567  0.1071
42476SOL    HW131020   7.255  10.163   0.387  0.3278  1.2929  0.0777
42476SOL    HW231021   7.391  10.123   0.438  0.5297  0.4639 -1.0787
42477SOL     OW31022   6.327   3.618   0.752  0.1770  0.1134  0.2124
42477SOL    HW131023   6.316   3.710   0.728 -1.8464  0.1037  0.8954
42477SOL    HW231024   6.288   3.569   0.680  1.9549 -0.2909 -0.5290
42478SOL     OW31025   8.439   8.519   4.595  0.1004 -0.1398  0.1368
42478SOL    HW131026   8.377   8.517   4.667  0.1296 -0.5617  0.1542
42478SOL    HW231027   8.385   8.519   4.516  0.0538  1.0121  0.1510
42479SOL     OW31028   7.901   5.847   7.208  0.2025 -0.3123  0.3218
42479SOL    HW131029   7.913   5.784   7.137  0.5970 -1.0482  1.0242
42479SOL    HW231030   7.959   5.816   7.278 -1.7011 -0.8003  1.7681
42480SOL     OW31031   4.756   2.330   3.915 -0.5637  0.3818 -0.2752
42480SOL    HW131032   4.666   2.344   3.885 -0.9988  2.0066  1.6246
42480SOL    HW231033   4.810   2.363   3.843 -1.5287  1.6205 -0.4548
42481SOL     OW31034   6.461   3.094   4.495  0.0135 -0.5762  0.5369
42481SOL    HW131035   6.425   3.178   4.521 -2.0709 -1.0782 -0.5781
42481SOL    HW231036   6.390   3.032   4.506  0.8101 -1.8069 -0.7973
42482SOL     OW31037   4.707   6.425  10.216 -0.1797  0.6901  0.1176
42482SOL    HW131038   4.779   6.484  10.194  0.8520  0.0857  1.6634
42482SOL    HW231039   4.751   6.343  10.240 -1.2130  0.9022  3.0414
42483SOL     OW31040   3.801   0.780   9.918  0.4968  0.1021  0.0741
42483SOL    HW131041   3.710   0.755   9.936  0.1199  0.3085 -1.4071
42483SOL    HW231042   3.794   0.844   9.848  1.7861  0.3301  0.1370
42484SOL     OW31043   5.411   9.918  10.018  0.2292  0.7566  0.0165
42484SOL    HW131044   5.474   9.937   9.948  0.9106  0.9944  0.6907
42484SOL    HW231045   5.433   9.829  10.046  0.4164  0.9259  0.4102
42485SOL     OW31046   3.150  10.747   2.676 -0.5954  0.1142  0.0248
42485SOL    HW131047   3.155  10.718   2.585 -0.9985 -1.4462  0.4760
42485SOL    HW231048   3.064  10.719   2.705  0.1424 -0.8953  1.3558
42486SOL     OW31049   5.003   2.388   0.990 -0.1721  0.2644 -0.0619
42486SOL    HW131050   4.955   2.361   0.911  0.5267 -1.4523  0.0660
42486SOL    HW231051   5.089   2.414   0.958 -0.6561  1.8920 -0.1140
42487SOL     OW31052   9.616   3.976   6.403  0.6111 -0.5753  0.4453
42487SOL    HW131053   9.649   3.936   6.322  1.3653  0.6560  0.1315
42487SOL    HW231054   9.575   3.903   6.450  0.8860 -1.4749 -0.6608
42488SOL     OW31055   7.774   4.687   9.645 -0.3438 -0.5846  0.1687
42488SOL    HW131056   7.758   4.781   9.634  2.3059 -0.3654 -3.4946
42488SOL    HW231057   7.869   4.679   9.649 -0.4424 -3.2191 -1.1390
42489SOL     OW31058   3.943   5.867   1.924  0.2607 -0.0414 -0.6069
42489SOL    HW131059   4.034   5.842   1.913  0.0642 -0.3410 -1.7293
42489SOL    HW231060   3.947   5.952   1.968  1.0125 -0.7550  0.7547
42490SOL     OW31061  10.555   7.680   4.711 -0.2138  0.4372  0.4574
42490SOL    HW131062  10.627   7.631   4.669 -0.8925  0.2180 -0.4853
42490SOL    HW231063  10.478   7.655   4.661 -0.4803  3.0938 -0.5951
42491SOL     OW31064   2.148   4.974   4.886  0.3521  0.1094 -0.3432
42491SOL    HW131065   2.204   5.049   4.907 -2.2708  2.6321 -1.6814
42491SOL    HW231066   2.107   4.951   4.969  1.3691 -0.0526  0.1305
42492SOL     OW31067   0.297   2.912   8.112 -0.3093  0.0718  0.5808
42492SOL    HW131068   0.238   2.956   8.174  0.4592  0.3849  1.1080
42492SOL    HW231069   0.271   2.820   8.115 -1.5432  0.3847 -0.0891
42493SOL     OW31070   6.940  10.212   0.778 -0.7044  0.5884 -0.5329
42493SOL    HW131071   6.857  10.207   0.730 -0.8262  0.5633 -0.3186
42493SOL    HW231072   7.005  10.175   0.718 -0.8354  0.6804 -0.7315
42494SOL     OW31073   6.532   8.161   8.580 -0.5920  0.4581 -1.1014
42494SOL    HW131074   6.513   8.242   8.533  0.4298 -0.2913 -2.9010
42494SOL    HW231075   6.460   8.102   8.556 -1.1513  0.6973 -0.0701
42495SOL     OW31076   1.043   8.323   6.759  0.0278  0.1402  0.3130
42495SOL    HW131077   1.090   8.318   6.676  1.7867  1.1758  1.2091
42495SOL    HW231078   1.006   8.235   6.770  0.7968 -0.3739 -0.9565
42496SOL     OW31079   2.072   1.617   2.161 -0.6353 -0.2698  0.1982
42496SOL    HW131080   2.040   1.582   2.077 -0.6886  0.6031 -0.1539
42496SOL    HW231081   1.999   1.605   2.221 -0.4180 -1.3787  0.2655
42497SOL     OW31082   8.005   1.954   3.434  0.0914 -0.4731  0.1306
42497SOL    HW131083   8.034   2.044   3.448  0.3287 -0.3891 -0.8461
42497SOL    HW231084   7.967   1.955   3.346  0.4554 -1.4083 -0.0441
42498SOL     OW31085   0.074   6.264   4.227  0.0129 -0.8100 -0.0700
42498SOL    HW131086   0.001   6.224   4.274 -0.3722 -0.4637 -0.3701
42498SOL    HW231087   0.054   6.250   4.135 -0.1568  0.1168 -0.1805
42499SOL     OW31088   8.400  10.057   7.321 -1.0857 -0.7079 -0.0205
42499SOL    HW131089   8.369  10.146   7.304  2.1307  0.0041 -3.6881
42499SOL    HW231090   8.330  10.001   7.288 -1.2515  0.6466 -2.1946
42500SOL     OW31091   8.174   0.260  10.977  0.2086 -0.5568 -0.2671
42500SOL    HW131092   8.176   0.173  11.016  1.1050  0.0451  1.0828
42500SOL    HW231093   8.151   0.244  10.885 -1.0172 -2.0868  0.2544
42501SOL     OW31094   9.503   7.452   4.612  0.5303 -0.2391  0.5097
42501SOL    HW131095   9.510   7.412   4.526  1.6335 -1.4585  1.1242
42501SOL    HW231096   9.463   7.384   4.666 -0.3393  0.5831  0.9284
42502SOL     OW31097   4.690   4.685   2.750  0.6777 -0.2955 -0.7995
42502SOL    HW131098   4.655   4.604   2.787  1.8842 -0.8289 -0.7665
42502SOL    HW231099   4.748   4.655   2.679 -1.3708  0.6761 -3.0391
42503SOL     OW31100   4.250   6.125   9.042 -0.1910  0.2319 -0.0692
42503SOL    HW131101   4.206   6.093   8.963  2.4040 -1.5235 -0.9605
42503SOL    HW231102   4.334   6.078   9.042  0.2093  0.7414  3.3620
42504SOL     OW31103   7.531   7.404   5.170  0.3087  0.0420 -0.8119
42504SOL    HW131104   7.540   7.427   5.263  0.8119 -1.0818 -0.5562
42504SOL    HW231105   7.447   7.440   5.144 -0.4866 -0.8071  0.4778
42505SOL     OW31106   0.152   8.294   1.021 -0.3223  0.2906  0.3628
42505SOL    HW131107   0.187   8.209   1.047  0.9838  1.0824  1.3025
42505SOL    HW231108   0.125   8.335   1.103 -0.5826  0.9470 -0.0414
42506SOL     OW31109   7.326   9.989  10.878  0.8849 -0.0361 -0.5070
42506SOL    HW131110   7.330  10.047  10.954 -0.1587  0.0779 -0.5255
42506SOL    HW231111   7.332   9.901  10.915  1.9745  0.0517 -0.4387
42507SOL     OW31112  11.082   1.212   4.670 -0.4102  0.0138  0.5074
42507SOL    HW131113  11.066   1.292   4.721  0.0548  1.2494 -1.1817
42507SOL    HW231114  10.998   1.193   4.629  0.2588  1.8098 -1.9441
42508SOL     OW31115   2.286   9.017   0.505  0.2037 -0.0996 -0.2844
42508SOL    HW131116   2.221   9.048   0.567 -0.0627 -2.6707  0.8451
42508SOL    HW231117   2.237   8.961   0.444  1.1089 -0.9681 -0.2482
42509SOL     OW31118   3.885   2.218   5.033 -0.4062  0.3775 -0.1136
42509SOL    HW131119   3.910   2.243   4.944 -0.8280  0.7337 -0.1368
42509SOL    HW231120   3.950   2.152   5.058  0.3437  1.0251 -0.2936
42510SOL     OW31121  10.629  10.303   7.662 -0.0870 -0.2075  0.0885
42510SOL    HW131122  10.661  10.238   7.598 -0.5767 -0.6119  0.2431
42510SOL    HW231123  10.611  10.251   7.741  0.4005  0.2721  0.5223
42511SOL     OW31124   8.545   5.090   8.959 -0.2871 -0.1643  0.6170
42511SOL    HW131125   8.454   5.065   8.977 -0.5735  1.0338  0.8998
42511SOL    HW231126   8.585   5.098   9.046 -0.0914 -0.0363  0.5154
42512SOL     OW31127   8.073   2.517  10.639 -0.3605  0.5943  0.1332
42512SOL    HW131128   8.105   2.512  10.549 -0.0066  1.0688  0.2301
42512SOL    HW231129   7.982   2.544  10.630 -0.8531 -1.0130 -0.1537
42513SOL     OW31130   6.609   5.626   6.381  0.6175 -0.2963 -0.0856
42513SOL    HW131131   6.584   5.667   6.299  0.5844  0.6637  0.3870
42513SOL    HW231132   6.644   5.540   6.356 -1.5380 -0.9960 -0.9007
42514SOL     OW31133   6.851   5.193  10.229 -0.3172  0.4865 -0.4309
42514SOL    HW131134   6.907   5.134  10.279  0.7746  2.1829  0.4465
42514SOL    HW231135   6.798   5.135  10.173  1.3253 -1.2411 -0.2822
42515SOL     OW31136   7.842  10.461   7.028  0.6890  0.0095  0.2584
42515SOL    HW131137   7.875  10.523   6.963 -1.0778  1.6193  0.7913
42515SOL    HW231138   7.782  10.513   7.083 -2.3128 -2.5042 -0.3287
42516SOL     OW31139   6.467   8.075  10.979  0.0702 -0.1667 -0.4809
42516SOL    HW131140   6.530   8.010  11.010 -0.8742 -0.9971 -0.2320
42516SOL    HW231141   6.382   8.040  11.007 -0.5750  0.4721 -1.6015
42517SOL     OW31142   9.610   0.587   6.412 -0.3428  0.1289  0.1600
42517SOL    HW131143   9.651   0.631   6.487 -0.6807 -1.7962  1.5459
42517SOL    HW231144   9.516   0.601   6.425 -0.3513  1.4811 -1.0555
42518SOL     OW31145   0.655   6.298   6.726  0.0581 -0.0184 -0.1596
42518SOL    HW131146   0.599   6.375   6.738 -0.6255 -0.4510 -0.5206
42518SOL    HW231147   0.652   6.254   6.811  0.7852  0.5561  0.1798
42519SOL     OW31148   8.609   5.544   6.758  0.0540 -0.2104  0.1289
42519SOL    HW131149   8.521   5.552   6.796 -0.7959 -0.1454 -1.7211
42519SOL    HW231150   8.605   5.597   6.679  2.4693  1.5730  1.0741
42520SOL     OW31151   2.656   0.073   0.930  0.0246 -0.4844  0.2405
42520SOL    HW131152   2.582   0.098   0.986  0.2292  0.4651  0.0866
42520SOL    HW231153   2.617   0.060   0.844 -0.0050 -0.2182  0.2128
42521SOL     OW31154  10.032   3.487   6.387  0.0960  0.6035 -0.2711
42521SOL    HW131155  10.000   3.565   6.341  0.9335  2.0878  1.5526
42521SOL    HW231156   9.986   3.488   6.471  1.7948  0.4595  0.7117
42522SOL     OW31157   6.603   4.855   3.584 -0.2574 -0.3960  0.2641
42522SOL    HW131158   6.652   4.826   3.506  0.2575 -0.2461  0.5286
42522SOL    HW231159   6.535   4.912   3.549  1.2273  1.3454  0.0740
42523SOL     OW31160   4.771   2.059   3.967 -0.3269 -0.5656  0.6496
42523SOL    HW131161   4.679   2.043   3.989 -0.4706 -0.0297  0.4449
42523SOL    HW231162   4.772   2.146   3.929  0.4605 -0.0220  1.8416
42524SOL     OW31163   7.276   3.514   8.607 -0.3864 -0.5055 -0.2460
42524SOL    HW131164   7.217   3.553   8.672  0.5463 -2.4165  1.8933
42524SOL    HW231165   7.346   3.579   8.598 -1.3175  0.4899 -0.6170
42525SOL     OW31166  11.086   7.420   4.305  0.2485 -0.7515 -0.0534
42525SOL    HW131167  11.153   7.452   4.245  0.4095  0.5880  0.7916
42525SOL    HW231168  11.020   7.380   4.249  1.1429 -0.9674 -0.9880
42526SOL     OW31169   3.305   6.559   9.104 -0.0400 -0.2475  0.3175
42526SOL    HW131170   3.289   6.494   9.035 -2.1407 -1.6599  2.0025
42526SOL    HW231171   3.397   6.546   9.128  0.1114 -1.2674 -0.7127
42527SOL     OW31172   7.399   6.481   2.496 -0.3671 -0.0827  0.0783
42527SOL    HW131173   7.380   6.467   2.403  1.4140  0.8329 -0.4527
42527SOL    HW231174   7.408   6.393   2.532  1.2554 -0.4537 -1.1490
42528SOL     OW31175   8.489   3.960   0.893 -0.0484 -0.3691  0.3754
42528SOL    HW131176   8.527   3.872   0.899 -0.2031 -0.4573  0.0862
42528SOL    HW231177   8.555   4.011   0.845 -1.4758 -1.2500 -2.8224
42529SOL     OW31178   1.059   5.822   8.472  0.1912 -0.2248 -0.2614
42529SOL    HW131179   1.114   5.887   8.516 -0.2507 -0.3536  0.4975
42529SOL    HW231180   1.030   5.865   8.391 -1.2119  1.0661  0.8630
42530SOL     OW31181  10.110   6.524   5.897  0.0204  0.1667  0.2575
42530SOL    HW131182  10.114   6.604   5.845 -0.1425 -0.9043 -1.4946
42530SOL    HW231183  10.021   6.523   5.933 -0.8411 -0.3928 -1.7485
42531SOL     OW31184   7.004  10.686   9.607  0.1507  0.5945  0.0983
42531SOL    HW131185   7.033  10.706   9.696 -0.2546  1.1850  0.1068
42531SOL    HW231186   7.083  10.697   9.553  0.2439  0.9130  0.2965
42532SOL     OW31187   5.199   1.473   6.794 -0.1476 -0.4417 -0.1712
42532SOL    HW131188   5.217   1.560   6.758  0.3097 -0.3736  0.2266
42532SOL    HW231189   5.167   1.490   6.883 -0.3761 -0.6667 -0.2073
42533SOL     OW31190   2.653   8.850   1.667 -0.7398  0.1644 -0.0095
42533SOL    HW131191   2.564   8.848   1.631 -0.1110  2.7198 -1.9672
42533SOL    HW231192   2.645   8.898   1.749 -1.3547 -0.8873  0.5624
42534SOL     OW31193  10.552   3.063   3.207  0.4243 -0.2025 -0.1959
42534SOL    HW131194  10.479   3.017   3.248  0.2138  0.1714 -0.1439
42534SOL    HW231195  10.555   3.148   3.250  1.3205 -0.4581  0.2741
42535SOL     OW31196   3.655   8.764   6.144  0.4954 -0.1175 -0.7490
42535SOL    HW131197   3.598   8.687   6.140  0.8972 -0.6731  2.0287
42535SOL    HW231198   3.727   8.744   6.083  1.4044 -2.7329  0.9925
42536SOL     OW31199   6.106   6.938   0.062 -0.0756  0.1152  0.1394
42536SOL    HW131200   6.069   7.018   0.099  0.2077  0.4788 -0.3460
42536SOL    HW231201   6.056   6.924  -0.019  0.0842 -0.0209  0.0627
42537SOL     OW31202   2.779   7.603   0.528  0.2637 -0.2561 -0.2126
42537SOL    HW131203   2.704   7.585   0.472  0.5657  1.0731 -1.0980
42537SOL    HW231204   2.855   7.586   0.472  0.6282 -0.8083  0.4259
42538SOL     OW31205   5.920   8.001   5.687 -0.2597 -0.4261 -0.1480
42538SOL    HW131206   5.983   8.032   5.622 -0.1906  0.8344  0.4688
42538SOL    HW231207   5.896   7.913   5.659  0.8926 -0.4722 -1.0380
42539SOL     OW31208   9.338   7.067   9.922 -0.3054 -0.1347 -0.0501
42539SOL    HW131209   9.338   7.145   9.976 -0.1473 -1.1039  1.4171
42539SOL    HW231210   9.429   7.057   9.894 -0.5147  0.7456 -1.0863
42540SOL     OW31211   9.083   2.854  10.047 -0.2974  0.0015  0.3398
42540SOL    HW131212   9.000   2.893  10.072 -0.8681 -0.9207 -0.0416
42540SOL    HW231213   9.065   2.810   9.964  0.3484 -0.8956  0.6520
42541SOL     OW31214   7.284  10.433   9.228 -0.2602 -0.0553  0.4187
42541SOL    HW131215   7.224  10.374   9.181 -0.4978  1.5285 -1.4052
42541SOL    HW231216   7.364  10.381   9.240 -0.1632 -0.5494 -1.8752
42542SOL     OW31217   5.687   9.263   0.652 -0.4285  0.2416 -0.3900
42542SOL    HW131218   5.749   9.201   0.691  0.6185 -1.8951 -4.8309
42542SOL    HW231219   5.737   9.344   0.644  0.0354  0.0713  0.5848
42543SOL     OW31220   1.210   9.177   9.596 -0.1230  0.8785  0.0232
42543SOL    HW131221   1.126   9.152   9.634  0.4240  1.2967  1.5976
42543SOL    HW231222   1.257   9.219   9.668  1.3743  0.8061 -0.8700
42544SOL     OW31223   8.429   0.333   4.438  0.4421  0.5585 -0.2178
42544SOL    HW131224   8.371   0.291   4.374  0.5111 -0.5108  0.3955
42544SOL    HW231225   8.390   0.419   4.452  0.7155  1.0310 -2.0750
42545SOL     OW31226  10.891   4.125   4.823 -0.2479  0.1962 -0.2741
42545SOL    HW131227  10.965   4.121   4.883 -0.4246  0.3975 -0.0435
42545SOL    HW231228  10.849   4.209   4.841 -0.2712  0.2850 -0.7167
42546SOL     OW31229   0.338   0.787   8.179 -0.1723 -0.3520  0.2195
42546SOL    HW131230   0.411   0.810   8.237 -0.9591  0.1385  1.0363
42546SOL    HW231231   0.283   0.729   8.232 -0.0413 -1.2818 -0.6250
42547SOL     OW31232   0.130   2.321   1.565 -0.5475  0.4231  0.0768
42547SOL    HW131233   0.058   2.380   1.545 -0.5236 -0.0619 -1.6090
42547SOL    HW231234   0.112   2.241   1.515  2.1288  1.0268 -2.1424
42548SOL     OW31235   2.023   1.473   1.679 -0.0588  0.1425 -0.4294
42548SOL    HW131236   1.942   1.506   1.641 -0.7340 -1.5140 -0.5232
42548SOL    HW231237   2.081   1.460   1.604 -0.4894 -0.7275 -0.6178
42549SOL     OW31238   3.156   4.032   0.514 -0.0782 -0.0012  0.4365
42549SOL    HW131239   3.203   3.970   0.458 -0.7284  0.8200 -1.1021
42549SOL    HW231240   3.139   4.107   0.457  1.8100  2.2025  2.5426
42550SOL     OW31241   4.650   0.011   0.021  0.2044  0.2672 -0.5019
42550SOL    HW131242   4.727   0.061  -0.009  0.6969 -0.2083 -0.0572
42550SOL    HW231243   4.611  -0.023  -0.059  0.3305  0.6972 -0.7499
42551SOL     OW31244   0.751   4.995   5.442  0.4173 -0.0637  0.0465
42551SOL    HW131245   0.793   5.045   5.371 -0.5216 -1.4107 -1.5425
42551SOL    HW231246   0.794   5.026   5.522  1.1872  1.8730 -1.0457
42552SOL     OW31247   4.437   0.691   3.534  0.4673 -0.0421  0.6961
42552SOL    HW131248   4.493   0.736   3.597 -0.0130 -0.9314  1.8176
42552SOL    HW231249   4.498   0.649   3.473  0.9560  0.5922  0.7416
42553SOL     OW31250   8.411   5.058   8.579  0.1798  0.1458  0.2590
42553SOL    HW131251   8.380   5.126   8.520 -0.7673  0.2229  0.8283
42553SOL    HW231252   8.377   5.082   8.665  0.3057 -0.7401  0.5760
42554SOL     OW31253   6.609   0.014   3.546 -0.1967  0.0298 -0.3142
42554SOL    HW131254   6.569  -0.057   3.496  1.6576 -1.7316  0.5851
42554SOL    HW231255   6.599  -0.012   3.637  1.3466  0.4353 -0.0039
42555SOL     OW31256   8.157   8.102   6.115 -0.4825 -0.2731 -0.1140
42555SOL    HW131257   8.234   8.159   6.112 -0.3807 -0.3287  1.1364
42555SOL    HW231258   8.098   8.138   6.048  0.3892  0.1038 -0.6965
42556SOL     OW31259   4.338   1.592   3.216 -0.5834 -0.0753 -0.3072
42556SOL    HW131260   4.311   1.684   3.222 -0.3197 -0.0718  1.4802
42556SOL    HW231261   4.257   1.544   3.205 -1.3030  0.0997  3.0012
42557SOL     OW31262   2.196   3.951   9.159 -0.2985  0.0867  0.3525
42557SOL    HW131263   2.162   4.015   9.220  0.8371  0.9803  0.0843
42557SOL    HW231264   2.122   3.892   9.142 -0.7296  0.0220  2.2831
42558SOL     OW31265   3.012   9.663   5.835  0.1958 -0.7902  0.0972
42558SOL    HW131266   3.004   9.585   5.889  0.6362 -1.4168 -0.7255
42558SOL    HW231267   2.993   9.634   5.746  2.1109 -0.3735 -0.5034
42559SOL     OW31268   2.609  10.230   8.950  0.6738  0.4590  0.3508
42559SOL    HW131269   2.648  10.278   9.023 -1.1903 -1.0552  2.4525
42559SOL    HW231270   2.573  10.298   8.893  0.6714  1.6539  1.7252
42560SOL     OW31271   5.359   3.790   6.849  0.2047 -0.2639 -0.1075
42560SOL    HW131272   5.356   3.860   6.784 -0.0207  0.3968  0.5922
42560SOL    HW231273   5.416   3.724   6.811 -2.1908 -1.2503 -2.2602
42561SOL     OW31274  11.045   1.974   3.648 -0.1359 -0.3649  0.2903
42561SOL    HW131275  11.123   2.004   3.600 -1.5039 -0.8152 -2.4226
42561SOL    HW231276  11.079   1.943   3.732  2.7319 -1.2015 -1.0463
42562SOL     OW31277   7.021   8.591   3.764  0.2334 -0.4679 -0.3121
42562SOL    HW131278   6.985   8.538   3.693 -0.0927  0.7676 -1.0926
42562SOL    HW231279   7.116   8.585   3.753  0.1763  0.4582 -1.4310
42563SOL     OW31280   3.971   5.122   8.206 -0.6423 -0.7683  0.6920
42563SOL    HW131281   4.037   5.059   8.177 -0.6861 -0.1081 -0.9543
42563SOL    HW231282   3.973   5.117   8.301  2.6210  0.0852  0.7758
42564SOL     OW31283   4.775   7.733   2.399 -0.4546  0.0952  0.3751
42564SOL    HW131284   4.699   7.783   2.370 -0.2971  0.3985  0.4782
42564SOL    HW231285   4.750   7.642   2.386 -0.4332  0.2143 -0.6065
42565SOL     OW31286   0.921   1.821   4.493 -0.3882 -0.5216  0.4671
42565SOL    HW131287   0.938   1.873   4.572 -0.5635 -0.6548  0.5925
42565SOL    HW231288   0.887   1.884   4.430 -3.3037 -0.9305  1.4953
42566SOL     OW31289  10.685   5.003   4.688  0.2683 -0.0645 -0.6364
42566SOL    HW131290  10.676   4.980   4.781 -0.6373 -1.8016 -1.0941
42566SOL    HW231291  10.595   5.005   4.656  0.5505  1.0013 -1.3801
42567SOL     OW31292   2.855   3.201   9.386 -0.0139  0.3721  0.2228
42567SOL    HW131293   2.865   3.114   9.347 -0.7580  0.0723  0.6929
42567SOL    HW231294   2.820   3.184   9.474 -0.3755  1.1572  0.2346
42568SOL     OW31295   2.326   9.202   3.724 -0.3988 -0.1545 -0.3324
42568SOL    HW131296   2.413   9.240   3.715 -1.0664  1.5055 -0.0907
42568SOL    HW231297   2.324   9.166   3.812  0.6043 -1.7834 -0.9292
42569SOL     OW31298  10.896   0.226   1.447 -0.1073  0.0631 -0.0625
42569SOL    HW131299  10.810   0.266   1.445  0.2957  0.9374 -1.0526
42569SOL    HW231300  10.901   0.177   1.365  0.6006  0.6392 -0.3794
42570SOL     OW31301   5.221   9.099   0.877  0.3076  0.7506  0.7026
42570SOL    HW131302   5.250   9.123   0.965  1.0242 -0.5654  0.8528
42570SOL    HW231303   5.302   9.085   0.828 -0.0861  1.0281 -0.0471
42571SOL     OW31304   0.383   6.614   3.849 -0.2943  0.3312  0.5310
42571SOL    HW131305   0.395   6.522   3.824 -1.4142  0.6565 -1.4413
42571SOL    HW231306   0.379   6.661   3.765  0.7627  2.2670  1.5038
42572SOL     OW31307   3.826   5.862   6.333  0.1302  0.1157  0.1651
42572SOL    HW131308   3.769   5.785   6.336  0.1730  0.1103  2.7466
42572SOL    HW231309   3.771   5.934   6.363  0.2765  1.0330 -1.6134
42573SOL     OW31310  10.817   2.671   4.661  0.1510  0.4078  1.2719
42573SOL    HW131311  10.889   2.646   4.718  0.5253 -0.0136  0.6350
42573SOL    HW231312  10.744   2.691   4.720  0.6707  0.4457  1.9029
42574SOL     OW31313   3.817   6.958   3.768  0.0543  0.1102  0.2927
42574SOL    HW131314   3.910   6.980   3.765 -0.1142  0.8297  0.2030
42574SOL    HW231315   3.776   7.021   3.709 -0.3164 -1.1525 -0.8621
42575SOL     OW31316   2.751  11.101   9.056 -0.1495  0.1758 -0.2273
42575SOL    HW131317   2.790  11.158   8.990 -2.1999  3.1828  0.9432
42575SOL    HW231318   2.694  11.158   9.107 -0.7282 -2.5474  2.4870
42576SOL     OW31319   5.209   6.310   7.182  0.5282 -0.0989 -0.5940
42576SOL    HW131320   5.293   6.275   7.210 -0.1806 -0.4823  1.1522
42576SOL    HW231321   5.145   6.269   7.240 -0.7932  0.7484 -1.3999
42577SOL     OW31322   3.605   1.048   4.059  0.7240  0.3047 -0.0377
42577SOL    HW131323   3.678   1.102   4.087  0.1198  0.5977  1.0617
42577SOL    HW231324   3.554   1.034   4.139 -0.6364  0.4401 -0.8540
42578SOL     OW31325  10.186   3.928   1.470 -0.1731 -0.2937 -0.1744
42578SOL    HW131326  10.090   3.922   1.473 -0.3790  1.0809 -2.0532
42578SOL    HW231327  10.213   3.852   1.418 -0.3263 -0.3027 -0.2413
42579SOL     OW31328   5.092   3.347   7.528 -0.2918 -0.1792 -0.4786
42579SOL    HW131329   5.182   3.365   7.556 -0.3334  0.5225 -0.7674
42579SOL    HW231330   5.082   3.399   7.448 -0.9347 -0.2960 -0.4727
42580SOL     OW31331   0.511   8.630   0.800 -0.3468 -0.0314  0.3575
42580SOL    HW131332   0.446   8.641   0.869 -0.9052  0.6628 -0.2589
42580SOL    HW231333   0.463   8.587   0.729 -0.2719  0.9352 -0.2909
42581SOL     OW31334   4.521   9.360   1.138  0.4244 -0.2167 -0.5268
42581SOL    HW131335   4.493   9.380   1.227  1.9088  0.8785 -0.2746
42581SOL    HW231336   4.478   9.426   1.084  0.2678 -0.3057 -0.5130
42582SOL     OW31337   0.303   0.936   6.665 -0.0704 -0.3008 -0.5228
42582SOL    HW131338   0.359   0.954   6.590  1.2764 -1.3487  0.1676
42582SOL    HW231339   0.297   1.019   6.712 -0.0353  0.0989 -1.2244
42583SOL     OW31340   8.039   5.912   1.799 -0.3544  0.4304  0.4105
42583SOL    HW131341   8.091   5.835   1.782  1.9386  2.1234 -0.7404
42583SOL    HW231342   7.948   5.881   1.797  0.5024 -2.5168  1.9106
42584SOL     OW31343   1.039   0.787   6.361 -0.5964  0.8691  0.3995
42584SOL    HW131344   1.007   0.786   6.451  1.1886  0.6150  1.0887
42584SOL    HW231345   1.135   0.790   6.371 -0.3336 -0.0940 -1.4795
42585SOL     OW31346   5.144   1.731   5.403  0.0954 -0.6636 -0.3593
42585SOL    HW131347   5.053   1.718   5.431 -0.0360 -0.0776 -0.4839
42585SOL    HW231348   5.190   1.755   5.483  0.1245 -0.8829 -0.3098
42586SOL     OW31349   7.611  10.835   7.746 -0.4266  0.2839 -0.4007
42586SOL    HW131350   7.702  10.846   7.774 -0.1005 -2.8614  0.0746
42586SOL    HW231351   7.606  10.883   7.663  0.4961  3.8410  1.3756
42587SOL     OW31352  10.284   0.769   0.815  0.2968 -1.0366  0.1533
42587SOL    HW131353  10.220   0.837   0.836  0.6332  0.2533 -2.5737
42587SOL    HW231354  10.367   0.815   0.807  0.9621 -2.1490  0.4538
42588SOL     OW31355   2.994   6.313   7.721  0.3388 -0.2285 -0.2851
42588SOL    HW131356   2.921   6.257   7.748 -0.1094  1.0208  1.2504
42588SOL    HW231357   3.072   6.257   7.729 -0.3377 -1.3559 -1.2429
42589SOL     OW31358   4.110   6.938   4.918  0.2991  0.0304 -0.0411
42589SOL    HW131359   4.042   6.921   4.852  0.1498 -0.7647  0.3081
42589SOL    HW231360   4.182   6.978   4.869 -0.1600  0.2707 -0.5274
42590SOL     OW31361   0.193   1.286   4.055  0.2674  0.5345 -0.2661
42590SOL    HW131362   0.223   1.369   4.019 -2.0290  1.1376 -0.9857
42590SOL    HW231363   0.176   1.305   4.148  2.2952  0.0837  0.2454
42591SOL     OW31364   9.994   3.691   5.093 -0.0934  0.3265 -0.0956
42591SOL    HW131365  10.088   3.685   5.108 -0.3364 -1.9681  0.8457
42591SOL    HW231366   9.954   3.663   5.175 -1.6693  2.4750 -0.0275
42592SOL     OW31367   3.010   6.907   8.093 -0.7311 -0.3840 -0.1257
42592SOL    HW131368   3.080   6.930   8.154 -0.0796  2.2598 -1.6994
42592SOL    HW231369   3.042   6.830   8.048  1.5472  1.0857 -1.1980
42593SOL     OW31370   6.727   8.035   4.834  0.1193  0.7851 -0.4496
42593SOL    HW131371   6.795   8.095   4.803  0.2891  0.4670 -0.7044
42593SOL    HW231372   6.747   7.952   4.790 -0.0872  0.5319 -0.0734
42594SOL     OW31373   1.353   8.759   4.633  0.0943 -0.2262  0.3583
42594SOL    HW131374   1.415   8.764   4.706 -0.5126  1.7764  0.7859
42594SOL    HW231375   1.331   8.850   4.613 -0.9574 -0.7949 -1.3103
42595SOL     OW31376   1.350   1.745   2.086  0.1334 -0.4342  0.2453
42595SOL    HW131377   1.270   1.710   2.046 -0.9398 -0.2626  2.1742
42595SOL    HW231378   1.417   1.732   2.018 -0.9307 -3.0570 -0.4450
42596SOL     OW31379   7.328   5.726   7.201  0.0875 -0.3646 -0.7108
42596SOL    HW131380   7.389   5.690   7.266  0.5244 -0.8047 -1.3461
42596SOL    HW231381   7.247   5.743   7.250 -0.6195 -3.4942 -0.6356
42597SOL     OW31382   0.982   6.277   6.109  0.3534 -0.2903  0.0864
42597SOL    HW131383   0.934   6.227   6.043 -0.2397  1.2251 -0.6833
42597SOL    HW231384   0.914   6.320   6.161  0.8034  1.7700 -0.9277
42598SOL     OW31385  10.098   4.693   0.902 -0.2794  0.3286 -0.0934
42598SOL    HW131386  10.160   4.763   0.879 -2.4961  2.7973  0.9797
42598SOL    HW231387  10.031   4.697   0.834 -2.9595  2.6905  2.3840
42599SOL     OW31388   0.943   2.345   7.944 -0.5725  0.4204  0.0022
42599SOL    HW131389   0.864   2.393   7.968 -0.5402 -0.7392  2.8318
42599SOL    HW231390   1.011   2.412   7.939 -1.0405  1.0081  1.2130
42600SOL     OW31391   7.551   2.959   5.391  0.2553 -0.1643 -0.6001
42600SOL    HW131392   7.509   2.877   5.415 -2.9151  1.2375 -0.8408
42600SOL    HW231393   7.585   2.994   5.474 -0.6027 -0.5721 -0.0685
42601SOL     OW31394  10.009   9.581   5.961 -0.6365 -0.0527  0.5629
42601SOL    HW131395   9.980   9.499   6.000  0.8274 -0.0558  1.7961
42601SOL    HW231396   9.958   9.591   5.882 -2.6163 -0.8997  1.6732
42602SOL     OW31397  10.340   9.685   6.394  0.7317  0.9679 -0.7898
42602SOL    HW131398  10.347   9.741   6.317  0.9214 -0.3760 -1.7778
42602SOL    HW231399  10.354   9.596   6.361 -0.1187  0.2623  0.6379
42603SOL     OW31400   8.198   8.687   8.599 -0.0364  0.1354  0.1992
42603SOL    HW131401   8.259   8.640   8.543 -0.0959  0.5409 -0.2146
42603SOL    HW231402   8.154   8.748   8.540 -1.0564 -0.3519  0.4317
42604SOL     OW31403   3.804  10.428   3.948 -0.2006  0.6303  0.5540
42604SOL    HW131404   3.749  10.480   3.889 -1.6147 -1.8431 -0.4766
42604SOL    HW231405   3.790  10.467   4.034  0.0997  2.9006 -0.3502
42605SOL     OW31406   3.808   8.375  10.482 -0.3589 -0.3815  0.6022
42605SOL    HW131407   3.847   8.462  10.485 -0.1658 -0.4178 -0.4156
42605SOL    HW231408   3.737   8.383  10.418 -1.0813 -0.6884  1.3437
42606SOL     OW31409   3.285   7.676   4.244  0.4289  0.0702  0.7155
42606SOL    HW131410   3.260   7.679   4.152  0.8948 -2.7868  0.3944
42606SOL    HW231411   3.201   7.670   4.291  0.2104 -1.7149  0.1833
42607SOL     OW31412   9.682   8.955   9.063 -0.5892 -0.5667  0.0668
42607SOL    HW131413   9.622   8.923   8.995 -1.2166 -0.0388  0.3536
42607SOL    HW231414   9.656   9.046   9.076  0.8130 -0.0907 -0.3659
42608SOL     OW31415   5.587   0.029   8.492 -0.4733 -0.2791 -0.5316
42608SOL    HW131416   5.663   0.038   8.435 -0.3638 -0.9121 -0.4913
42608SOL    HW231417   5.623   0.024   8.580 -0.7150  2.1228 -0.2429
42609SOL     OW31418   1.807   1.863   8.502  0.2182  0.4287 -0.9923
42609SOL    HW131419   1.896   1.835   8.525 -0.5960 -1.5041  0.0370
42609SOL    HW231420   1.791   1.821   8.417  0.1035  0.3108 -0.9134
42610SOL     OW31421   9.246   9.201   9.594 -0.0318  0.6828 -0.0480
42610SOL    HW131422   9.270   9.183   9.503  0.8041  0.2668  0.2388
42610SOL    HW231423   9.321   9.169   9.644  0.0364  1.9819  0.7155
42611SOL     OW31424   6.127   9.544   5.223  0.7972  0.0395  0.1109
42611SOL    HW131425   6.181   9.583   5.292 -0.0122 -1.1093  1.4237
42611SOL    HW231426   6.115   9.615   5.160  1.1558  1.2812  1.3835
42612SOL     OW31427   5.359   6.402  10.761  0.9989  0.1050  0.4317
42612SOL    HW131428   5.312   6.365  10.686  0.9199 -0.3237  0.6889
42612SOL    HW231429   5.310   6.371  10.837  0.4297  1.4443  0.6242
42613SOL     OW31430   8.239   7.895   2.237  0.3190 -0.7663 -0.2289
42613SOL    HW131431   8.182   7.922   2.166  2.1526  1.3651 -0.9812
42613SOL    HW231432   8.306   7.841   2.195  1.6986  0.9127 -0.2721
42614SOL     OW31433   4.710   2.457   1.223  0.3658 -0.1081  0.2099
42614SOL    HW131434   4.679   2.386   1.167 -1.5611  0.6566  0.2613
42614SOL    HW231435   4.667   2.535   1.189 -1.0420  0.3659  2.8451
42615SOL     OW31436   0.204   6.582   1.011  0.1635  0.1097 -0.1452
42615SOL    HW131437   0.221   6.550   1.100 -0.1173  1.0706  0.2666
42615SOL    HW231438   0.120   6.543   0.987  0.1121  0.0625  0.1104
42616SOL     OW31439   5.854  10.220   7.382 -0.0059 -0.1605 -0.1944
42616SOL    HW131440   5.857  10.140   7.328  0.4330 -1.0581  1.1240
42616SOL    HW231441   5.940  10.260   7.369  0.6363 -1.1253  0.9044
42617SOL     OW31442   8.053   5.590   3.144  0.1023  0.6205 -0.4734
42617SOL    HW131443   8.056   5.507   3.192 -0.7437 -0.1697 -1.7345
42617SOL    HW231444   8.056   5.565   3.052 -2.1874  1.8478 -0.9474
42618SOL     OW31445   9.222   2.995   5.755  0.2539  0.1353  0.0725
42618SOL    HW131446   9.144   2.943   5.736 -0.2879 -0.2608  2.9427
42618SOL    HW231447   9.295   2.933   5.746 -0.0453 -0.2372  0.1944
42619SOL     OW31448   0.831   7.225   5.320  0.5848 -0.0681  0.2092
42619SOL    HW131449   0.776   7.298   5.293  0.7285  0.5487  1.4889
42619SOL    HW231450   0.911   7.234   5.269 -0.1998 -0.5749 -1.1683
42620SOL     OW31451  10.685   6.231   9.110  0.0384  0.1347  0.7372
42620SOL    HW131452  10.648   6.268   9.191 -1.3670 -1.5022  0.8920
42620SOL    HW231453  10.728   6.150   9.139  0.6782  0.2199  0.0296
42621SOL     OW31454   2.172   1.929   6.027 -0.1743 -0.2801  0.2234
42621SOL    HW131455   2.152   2.010   5.981 -0.1919 -0.5838 -0.3144
42621SOL    HW231456   2.259   1.905   5.996 -0.1694 -0.4659  0.3799
42622SOL     OW31457   3.027   1.503   3.054 -0.0453  0.4376 -0.0715
42622SOL    HW131458   3.080   1.438   3.100 -0.0956  1.7163  1.9786
42622SOL    HW231459   3.083   1.581   3.050 -2.2350  2.6685  4.3634
42623SOL     OW31460   5.329   1.572   2.317  0.1060  0.2442 -0.2051
42623SOL    HW131461   5.337   1.539   2.407 -1.2210  0.4873  0.0211
42623SOL    HW231462   5.243   1.543   2.289 -0.0037  1.2667 -0.9490
42624SOL     OW31463   4.001   0.919   5.040  0.1607  0.0448 -0.4299
42624SOL    HW131464   3.933   0.976   5.003  0.7868 -0.2418 -2.1054
42624SOL    HW231465   3.953   0.857   5.095 -0.9604 -0.2260 -1.6666
42625SOL     OW31466   0.414   0.310   0.316 -0.0545 -0.0050  0.1927
42625SOL    HW131467   0.351   0.343   0.380 -0.4817  1.3826 -0.8863
42625SOL    HW231468   0.431   0.384   0.259  1.6979 -0.6882 -0.2416
42626SOL     OW31469   9.330   8.960   0.774 -0.1284  0.6086 -0.5474
42626SOL    HW131470   9.254   9.017   0.788  0.8505  1.8350  0.0324
42626SOL    HW231471   9.406   9.018   0.786  0.9123 -0.7063 -0.4843
42627SOL     OW31472   7.711   8.233   6.834  0.0430 -0.0177  0.2275
42627SOL    HW131473   7.750   8.277   6.909 -1.1547 -0.8336  1.3720
42627SOL    HW231474   7.619   8.260   6.835 -0.2560 -0.9600 -0.2391
42628SOL     OW31475   9.765   1.433   2.695  0.3988  0.3381  0.1086
42628SOL    HW131476   9.748   1.399   2.607  2.5154 -1.3253  0.2689
42628SOL    HW231477   9.766   1.356   2.751 -0.3008  1.3093  1.5340
42629SOL     OW31478   7.405  10.886  10.682 -0.8521  0.4861  0.0380
42629SOL    HW131479   7.388  10.810  10.626 -0.4689  0.1232  0.4028
42629SOL    HW231480   7.364  10.863  10.765  0.9642 -0.2023  0.7880
42630SOL     OW31481   5.271  10.516   1.550  0.2489 -0.0129 -0.4530
42630SOL    HW131482   5.348  10.460   1.554  2.0516  2.3401  0.6107
42630SOL    HW231483   5.272  10.563   1.633 -1.0767  1.6496 -1.3212
42631SOL     OW31484   0.270   3.594   1.453  0.2486 -0.4891  0.0650
42631SOL    HW131485   0.352   3.592   1.403  0.2317  0.3844 -0.0106
42631SOL    HW231486   0.256   3.687   1.471 -1.3854 -0.5070 -0.9817
42632SOL     OW31487   6.616   6.332   6.928  0.0255 -0.3681  0.0645
42632SOL    HW131488   6.650   6.252   6.969 -1.0410 -1.3778 -0.9713
42632SOL    HW231489   6.582   6.384   7.001  2.3630  0.0312  0.9821
42633SOL     OW31490   2.843   8.073  10.229  0.1255 -0.5479  0.3370
42633SOL    HW131491   2.787   8.123  10.170 -1.2108  0.0142  1.9916
42633SOL    HW231492   2.890   8.139  10.280 -0.7426 -0.9278  1.6960
42634SOL     OW31493   0.781   9.892   9.417 -0.2303  0.2716 -0.2509
42634SOL    HW131494   0.717   9.923   9.352 -0.2034 -0.0950 -0.4569
42634SOL    HW231495   0.729   9.869   9.493 -0.4197 -0.5873 -0.6246
42635SOL     OW31496   0.550   7.962   4.085  0.4143  0.1760  0.5335
42635SOL    HW131497   0.604   8.039   4.104 -0.4930  1.1195 -0.5808
42635SOL    HW231498   0.613   7.897   4.052  1.1026  0.6361  0.9036
42636SOL     OW31499   2.465   0.970  10.784  0.2822 -0.6316 -0.2019
42636SOL    HW131500   2.545   0.974  10.836  0.4501 -0.5912 -0.4588
42636SOL    HW231501   2.394   0.963  10.848  0.3930  0.5287  0.0781
42637SOL     OW31502   4.328   6.705   5.460 -0.2769 -0.1881  0.2426
42637SOL    HW131503   4.361   6.716   5.550 -0.0904 -0.7111  0.2404
42637SOL    HW231504   4.339   6.792   5.420  1.5011 -0.4257  0.1115
42638SOL     OW31505   6.582   5.594   0.098 -0.6519  0.0345 -0.3496
42638SOL    HW131506   6.540   5.525   0.150  1.6482 -1.8732 -0.7843
42638SOL    HW231507   6.529   5.601   0.019 -1.7937 -0.1163  0.3857
42639SOL     OW31508   0.032   6.861   2.176 -0.1086  0.5108 -0.1013
42639SOL    HW131509  -0.056   6.874   2.140 -1.6881 -0.3921  3.0861
42639SOL    HW231510   0.090   6.892   2.107 -2.9320  3.3698 -1.4832
42640SOL     OW31511   4.842   6.102   5.945  0.2334 -0.4544  0.3239
42640SOL    HW131512   4.813   6.105   6.036 -2.8748  1.8132 -0.5641
42640SOL    HW231513   4.827   6.011   5.918  0.8215 -1.0599  1.9415
42641SOL     OW31514  10.657   8.615   6.810  0.6544  0.2996  0.5486
42641SOL    HW131515  10.618   8.599   6.724 -1.8810  1.4107  1.3856
42641SOL    HW231516  10.628   8.542   6.864 -0.2012  1.0752  1.1586
42642SOL     OW31517   2.914   9.297   5.465  0.1363 -0.5220 -0.3229
42642SOL    HW131518   2.919   9.392   5.461 -0.9102 -0.3049  2.1190
42642SOL    HW231519   2.999   9.269   5.500  0.1015 -0.4095 -0.1493
42643SOL     OW31520   0.026   9.740   2.564  0.1643  0.3103 -0.0083
42643SOL    HW131521  -0.040   9.729   2.632 -0.5684 -1.5250 -0.9408
42643SOL    HW231522   0.023   9.658   2.514  0.9163  1.4465 -2.0364
42644SOL     OW31523   5.190   7.041   3.745  0.1012  0.1464  0.1530
42644SOL    HW131524   5.203   7.069   3.836 -1.0629  0.1433  0.3386
42644SOL    HW231525   5.267   6.989   3.724  1.0490  1.3134  0.6710
42645SOL     OW31526   5.361   2.336   1.787  0.1159 -0.2634 -0.3725
42645SOL    HW131527   5.275   2.320   1.827  1.0702 -0.7544  1.6339
42645SOL    HW231528   5.363   2.430   1.772 -0.8896 -0.2862 -0.7420
42646SOL     OW31529   8.309   3.455   0.358 -0.7773 -0.4763  0.1733
42646SOL    HW131530   8.249   3.447   0.283  0.7453  0.7973 -1.2444
42646SOL    HW231531   8.374   3.386   0.344 -1.1222 -0.9796  0.9765
42647SOL     OW31532   6.579   4.309   0.600  0.3083 -0.0454  0.2688
42647SOL    HW131533   6.659   4.348   0.635  0.0212 -0.0627  0.9798
42647SOL    HW231534   6.581   4.327   0.507  1.5573 -0.7777  0.1286
42648SOL     OW31535   7.846   7.189   3.070 -0.3189  0.0901  0.8128
42648SOL    HW131536   7.920   7.173   3.012 -0.2659  1.8589  0.3232
42648SOL    HW231537   7.838   7.285   3.073 -0.8262  0.0314  3.1124
42649SOL     OW31538   2.824   2.959   8.078  0.2451 -0.0737 -0.0219
42649SOL    HW131539   2.737   2.933   8.108  0.0469  0.8226  0.2289
42649SOL    HW231540   2.842   2.903   8.002 -0.7613  0.0722 -0.3801
42650SOL     OW31541   6.071   2.357  10.105 -0.4911 -0.3344 -0.2980
42650SOL    HW131542   6.058   2.294  10.033 -0.8536  0.8011 -1.2513
42650SOL    HW231543   6.151   2.327  10.148 -0.2058 -0.9786 -1.2395
42651SOL     OW31544   4.287   6.989   5.189  0.0047 -0.6174  0.4759
42651SOL    HW131545   4.212   6.930   5.184  0.4206 -1.0512 -1.1649
42651SOL    HW231546   4.262   7.064   5.135  0.0157  0.1030  1.4533
42652SOL     OW31547   5.789   6.083   3.884  0.0033  0.0052  0.7131
42652SOL    HW131548   5.699   6.075   3.852 -0.0603 -0.8100  1.0783
42652SOL    HW231549   5.843   6.054   3.811 -0.0129  0.6530  0.4342
42653SOL     OW31550   1.604   1.829   5.128  0.1306 -0.1478  0.2272
42653SOL    HW131551   1.667   1.758   5.137 -0.4349 -0.7644 -0.5602
42653SOL    HW231552   1.553   1.826   5.210  0.5623 -0.1882  0.4980
42654SOL     OW31553   0.781   3.680   4.108  0.2804 -0.6856  0.3695
42654SOL    HW131554   0.806   3.588   4.097 -0.8502 -1.0543  0.7066
42654SOL    HW231555   0.706   3.691   4.050  0.7402  0.1858 -0.0811
42655SOL     OW31556   5.705   4.705   4.163 -0.6790 -0.6719 -0.0058
42655SOL    HW131557   5.698   4.666   4.076  1.2210  1.2570 -1.1139
42655SOL    HW231558   5.629   4.763   4.169 -0.1666  0.1321 -0.9376
42656SOL     OW31559   7.545   5.758   7.008  0.1743  0.2647  0.1415
42656SOL    HW131560   7.587   5.842   7.024  2.4196 -0.9847  1.3061
42656SOL    HW231561   7.459   5.765   7.050 -0.1468  2.3119 -0.7605
42657SOL     OW31562   7.208   3.683  10.617  0.3538 -0.3858  0.2739
42657SOL    HW131563   7.176   3.751  10.676  1.1141 -0.3112  0.6102
42657SOL    HW231564   7.239   3.613  10.675  1.5115 -0.1296 -0.0001
42658SOL     OW31565   8.180   3.697   4.813 -0.3489 -0.1272 -0.4038
42658SOL    HW131566   8.094   3.690   4.772  0.0116  0.8892 -1.3953
42658SOL    HW231567   8.238   3.646   4.756 -0.3020 -0.8746  0.3058
42659SOL     OW31568  10.333   6.509   8.919  0.5798 -0.5154  0.1513
42659SOL    HW131569  10.296   6.565   8.850  0.5260 -0.7985 -0.0474
42659SOL    HW231570  10.407   6.560   8.954 -0.1868  0.2150  0.7832
42660SOL     OW31571   1.406   5.153   5.765 -0.4558  0.2636 -0.1048
42660SOL    HW131572   1.343   5.116   5.705  0.1362 -0.0852 -0.5241
42660SOL    HW231573   1.421   5.084   5.830  0.5262 -0.1950 -0.7952
42661SOL     OW31574   7.924  11.096   3.126  0.0496 -0.3698  0.3060
42661SOL    HW131575   7.879  11.073   3.207  0.4673  0.2076  0.7063
42661SOL    HW231576   7.998  11.150   3.154  0.3419 -0.3749 -0.4381
42662SOL     OW31577   4.235   3.764   7.371  0.0477 -0.1130 -0.3918
42662SOL    HW131578   4.224   3.793   7.461  2.0891 -2.5808  0.7608
42662SOL    HW231579   4.326   3.787   7.349  0.2615 -1.4759 -1.0259
42663SOL     OW31580   3.053   2.034   0.632  0.3660 -0.3102  0.5307
42663SOL    HW131581   3.137   1.989   0.617 -0.5358 -1.3627 -1.7640
42663SOL    HW231582   3.054   2.107   0.570 -0.3800 -0.2585  0.5786
42664SOL     OW31583  10.961   2.142   1.816  0.4400  0.6657 -0.0487
42664SOL    HW131584  10.914   2.060   1.796 -0.7054  1.7529 -2.2589
42664SOL    HW231585  10.943   2.158   1.908 -0.3801 -0.9144  0.1135
42665SOL     OW31586   4.331   5.782   7.561 -0.5224  0.1474 -0.1182
42665SOL    HW131587   4.244   5.822   7.561 -0.9684 -0.7669 -1.5506
42665SOL    HW231588   4.386   5.846   7.516 -0.5195  0.5699  0.4750
42666SOL     OW31589   6.869   0.091   4.099  0.2325 -0.3834  0.1845
42666SOL    HW131590   6.961   0.116   4.103  0.7584 -2.2955  2.3872
42666SOL    HW231591   6.868   0.014   4.042 -0.2380  0.2841 -0.7485
42667SOL     OW31592   0.956   0.504   6.401 -0.0521 -0.4195  0.2708
42667SOL    HW131593   0.901   0.466   6.333  0.2275  0.8092 -0.6881
42667SOL    HW231594   0.986   0.587   6.364  0.1039  0.2924  1.8988
42668SOL     OW31595  10.210   4.174   9.601 -0.4100  0.3377  0.3909
42668SOL    HW131596  10.138   4.217   9.555 -0.1660 -0.0682 -0.3916
42668SOL    HW231597  10.189   4.081   9.598  0.0025  0.2428  0.4173
42669SOL     OW31598   6.783   5.379   4.695 -0.0792 -0.6821  0.3620
42669SOL    HW131599   6.735   5.308   4.652  0.0625 -0.3049 -0.4293
42669SOL    HW231600   6.719   5.420   4.753 -0.7473 -0.1222 -0.7492
42670SOL     OW31601   8.770   3.733   7.853  0.6253 -0.3558  0.4283
42670SOL    HW131602   8.735   3.691   7.775 -0.8599  1.3791  0.1034
42670SOL    HW231603   8.850   3.776   7.823 -1.3015  2.6261 -0.9639
42671SOL     OW31604   2.059   1.084   1.683 -0.3237 -0.5012 -0.1919
42671SOL    HW131605   2.005   1.101   1.606  1.4090 -3.4095 -2.2199
42671SOL    HW231606   2.004   1.029   1.739 -1.4042  1.2096  0.5221
42672SOL     OW31607   9.492   8.886  10.155  0.2648 -0.0901  0.1567
42672SOL    HW131608   9.492   8.793  10.174 -1.3992  0.1374  1.5151
42672SOL    HW231609   9.418   8.899  10.096  1.2718  0.2240 -1.0947
42673SOL     OW31610   7.945   1.784   3.132 -0.1356 -0.2427 -0.3040
42673SOL    HW131611   7.941   1.759   3.224  1.4410 -1.2170 -0.4718
42673SOL    HW231612   7.877   1.731   3.090  0.3187 -1.1156  0.0332
42674SOL     OW31613   3.437   7.921   8.661 -0.2590 -0.5748 -0.4059
42674SOL    HW131614   3.499   7.859   8.701 -1.1745 -1.3208 -0.1131
42674SOL    HW231615   3.493   7.991   8.627  0.7125 -0.9540  0.3344
42675SOL     OW31616   9.644   3.933   0.080 -0.5482  0.2994 -0.1222
42675SOL    HW131617   9.629   3.984   0.160  1.5058 -1.0034  1.1735
42675SOL    HW231618   9.574   3.869   0.080  0.3716 -0.8014  1.6498
42676SOL     OW31619   7.002   7.166   7.085 -0.1707  0.2639  0.1186
42676SOL    HW131620   6.909   7.150   7.073 -0.5856  1.2447  1.7498
42676SOL    HW231621   7.011   7.262   7.082  0.8473  0.1671 -0.4159
42677SOL     OW31622   9.594   1.321   4.064  0.0804  0.0516 -0.2516
42677SOL    HW131623   9.626   1.251   4.121  0.1869 -1.0470 -1.6054
42677SOL    HW231624   9.509   1.289   4.031  0.1423  0.5289 -0.9090
42678SOL     OW31625   3.492   4.562   0.741 -0.1790 -0.0057  0.4724
42678SOL    HW131626   3.582   4.593   0.730 -0.1039 -0.1592  0.6537
42678SOL    HW231627   3.493   4.473   0.708  0.0949 -0.5470  1.8549
42679SOL     OW31628   9.161   7.948   9.141  0.5663 -0.5377 -0.5153
42679SOL    HW131629   9.210   8.030   9.143 -0.0810 -0.1439 -0.4551
42679SOL    HW231630   9.211   7.891   9.083  1.6512 -0.5124  0.3519
42680SOL     OW31631   4.241  10.222   9.275  0.3221 -0.2998 -0.9157
42680SOL    HW131632   4.269  10.139   9.237  0.0217 -0.6835 -0.3144
42680SOL    HW231633   4.173  10.254   9.217 -0.4190 -1.0814 -0.4934
42681SOL     OW31634   7.424  10.660   6.980  0.1618 -0.7332  0.2421
42681SOL    HW131635   7.378  10.682   7.061 -2.3026  0.4527 -1.3545
42681SOL    HW231636   7.457  10.744   6.948 -1.0159 -0.7879 -1.1749
42682SOL     OW31637   1.809   0.797   8.302  0.1830  0.3369 -0.3609
42682SOL    HW131638   1.865   0.874   8.289  0.0787  0.1297 -2.2139
42682SOL    HW231639   1.720   0.833   8.306  0.1473  0.3269 -1.0658
42683SOL     OW31640   0.803   8.210   0.571 -0.3337  0.0302  0.0503
42683SOL    HW131641   0.723   8.256   0.596 -0.8039 -0.3001 -0.7968
42683SOL    HW231642   0.791   8.191   0.478  1.3572  1.2690 -0.4746
42684SOL     OW31643   3.649   5.971   3.247 -0.0107 -0.2145 -0.0093
42684SOL    HW131644   3.678   6.038   3.185  0.0747 -0.2474 -0.0057
42684SOL    HW231645   3.703   5.985   3.325 -1.6844  1.2899  0.9319
42685SOL     OW31646   5.971   2.025   4.788  0.0208  0.3934 -0.3815
42685SOL    HW131647   6.057   2.013   4.829 -0.7669 -1.5875  0.8359
42685SOL    HW231648   5.981   1.985   4.701 -0.0309 -1.1750  0.2995
42686SOL     OW31649   9.527   2.718   6.530 -0.6568  0.2164  0.3209
42686SOL    HW131650   9.518   2.791   6.469  0.5466  0.9286  0.9680
42686SOL    HW231651   9.532   2.641   6.473 -1.1255  0.7102 -0.4076
42687SOL     OW31652   5.247   5.297  10.941  0.6532 -0.8798 -0.0870
42687SOL    HW131653   5.290   5.214  10.963 -0.8875 -1.6569  0.1208
42687SOL    HW231654   5.190   5.275  10.867  1.7258  0.4780 -1.3923
42688SOL     OW31655  10.380   2.681   9.493 -0.1091 -0.3659  0.7982
42688SOL    HW131656  10.472   2.696   9.518 -0.0295  1.3860 -0.3321
42688SOL    HW231657  10.384   2.657   9.400 -0.7780 -0.6206  0.8334
42689SOL     OW31658   4.639   1.332   8.516  0.2924  0.1462  0.0317
42689SOL    HW131659   4.670   1.402   8.574  0.7678  1.1135 -1.3338
42689SOL    HW231660   4.712   1.317   8.456  0.0385 -1.2578  0.0462
42690SOL     OW31661   7.155   5.419   3.859  0.3643  0.1808 -0.0222
42690SOL    HW131662   7.194   5.471   3.928 -0.0340  0.4428  0.0101
42690SOL    HW231663   7.141   5.480   3.787 -0.7994  0.3040  0.2846
42691SOL     OW31664  10.738   0.809   6.912 -0.5982  0.0981  0.1624
42691SOL    HW131665  10.763   0.789   6.822  1.6002 -0.1592  0.7852
42691SOL    HW231666  10.760   0.731   6.961 -1.7118  0.2654  0.9758
42692SOL     OW31667   6.063   8.427   4.149  0.2239 -0.3514  0.0319
42692SOL    HW131668   6.101   8.514   4.162  0.1263 -0.3518  0.3257
42692SOL    HW231669   5.969   8.442   4.149  0.2077 -0.4541  0.0699
42693SOL     OW31670  10.023   3.576   7.352 -0.2650  0.0568  0.9081
42693SOL    HW131671   9.964   3.574   7.278  1.8270 -0.4972 -0.8492
42693SOL    HW231672   9.998   3.501   7.406 -0.0597 -1.2177 -0.7190
42694SOL     OW31673   9.552   6.327   7.732  0.1316 -0.3373  0.8173
42694SOL    HW131674   9.538   6.250   7.788  1.3803 -1.7315 -0.6945
42694SOL    HW231675   9.488   6.318   7.662  2.3279 -1.8497 -1.1403
42695SOL     OW31676   0.547   9.916   0.166 -0.3568  0.3718  0.4775
42695SOL    HW131677   0.631   9.871   0.175 -0.3548  0.4261  0.7447
42695SOL    HW231678   0.520   9.898   0.076  0.5047  1.3191  0.0051
42696SOL     OW31679   4.985   9.363   5.479  0.0778  0.2048  0.1495
42696SOL    HW131680   4.990   9.442   5.532 -2.7143  0.7067 -0.1824
42696SOL    HW231681   4.972   9.394   5.389  0.3040 -0.6354 -0.1932
42697SOL     OW31682   8.923   6.827   2.416 -0.4810  0.3665  0.0163
42697SOL    HW131683   8.898   6.736   2.405  0.4626  0.3762 -3.4192
42697SOL    HW231684   8.925   6.841   2.511 -0.6695 -3.1284  0.6433
42698SOL     OW31685   0.809  10.287   3.172 -0.0284  0.4886 -0.1841
42698SOL    HW131686   0.762  10.205   3.158  0.2166  0.1939  0.6830
42698SOL    HW231687   0.901  10.262   3.179 -0.1509  0.4711  2.5958
42699SOL     OW31688   0.521   4.888   3.377 -0.1994  0.3203 -0.6654
42699SOL    HW131689   0.499   4.903   3.469 -1.4056  1.4169 -1.1047
42699SOL    HW231690   0.564   4.802   3.376 -1.4140 -0.3433  0.7395
42700SOL     OW31691   1.218   6.230   5.339  0.3866  0.0804 -0.5105
42700SOL    HW131692   1.127   6.249   5.318 -0.1605  0.6513  1.9840
42700SOL    HW231693   1.226   6.135   5.329 -0.9140 -0.1799  0.5268
42701SOL     OW31694   3.181   5.083   5.432 -0.2040  0.1702 -0.5522
42701SOL    HW131695   3.199   5.175   5.451 -0.3320  0.2366 -0.7454
42701SOL    HW231696   3.266   5.040   5.434 -0.2097  0.1747  0.1677
42702SOL     OW31697   1.994   9.228   7.219  0.2478  0.0713 -0.0886
42702SOL    HW131698   2.090   9.231   7.227  0.2959 -0.3038 -0.4853
42702SOL    HW231699   1.976   9.280   7.141 -0.1152  2.6613  1.6017
42703SOL     OW31700   4.301   1.454   8.569 -0.2016  0.1532 -0.1516
42703SOL    HW131701   4.295   1.478   8.476  1.2120  0.3487 -0.2277
42703SOL    HW231702   4.388   1.414   8.577 -0.6057 -0.5336  0.9524
42704SOL     OW31703   0.573   1.080  10.821  0.3495 -0.0086  0.0138
42704SOL    HW131704   0.621   1.089  10.739  1.9950 -2.1450  0.6537
42704SOL    HW231705   0.613   1.146  10.879 -0.8741  1.5631 -0.8360
42705SOL     OW31706   3.383   2.733  10.867 -0.3030  0.1124  1.0335
42705SOL    HW131707   3.465   2.769  10.900 -0.9547  1.1281  1.5934
42705SOL    HW231708   3.339   2.807  10.825  0.0289 -0.8886 -1.2735
42706SOL     OW31709   9.531   3.103   4.846  0.4061 -0.2281  0.0935
42706SOL    HW131710   9.439   3.129   4.838  0.2578 -0.3225  1.2343
42706SOL    HW231711   9.565   3.105   4.757 -0.0376  2.2363 -0.0840
42707SOL     OW31712   8.915   8.263   0.115 -0.4831  0.2630  0.0626
42707SOL    HW131713   8.921   8.200   0.187  1.7112  0.5278  0.1848
42707SOL    HW231714   8.846   8.323   0.141 -0.4363 -0.2579  1.4659
42708SOL     OW31715  10.870   1.741   1.003  0.2460  0.2846 -0.4017
42708SOL    HW131716  10.860   1.779   0.916  0.4037  0.6742 -0.2508
42708SOL    HW231717  10.807   1.669   1.005  1.9711 -1.3791 -1.7731
42709SOL     OW31718   6.795   3.215   3.238 -0.7578  0.2998 -0.0823
42709SOL    HW131719   6.875   3.221   3.185  1.1195  0.8230  2.6056
42709SOL    HW231720   6.726   3.200   3.174  1.4565 -0.2158 -2.5758
42710SOL     OW31721  10.141  10.159   0.734 -0.4403  0.0935  1.0363
42710SOL    HW131722  10.087  10.225   0.691 -0.9360 -1.6348 -1.2072
42710SOL    HW231723  10.207  10.136   0.669  0.8887 -0.3058  2.4673
42711SOL     OW31724   6.647   1.543   3.241  0.4194 -0.1165  0.1093
42711SOL    HW131725   6.625   1.455   3.272  0.8039  0.2273  1.3884
42711SOL    HW231726   6.575   1.598   3.272  0.6951  0.1963  0.1965
42712SOL     OW31727   6.984   6.919   5.791 -0.2619 -0.2915 -0.3512
42712SOL    HW131728   6.940   6.834   5.784 -0.2372 -0.3023 -0.3703
42712SOL    HW231729   7.066   6.908   5.744 -0.6682  0.0224 -1.1416
42713SOL     OW31730   3.005   5.208   3.350 -0.2088  0.4764 -0.4870
42713SOL    HW131731   3.002   5.228   3.444  1.9356 -0.5509 -0.1186
42713SOL    HW231732   2.940   5.265   3.311 -2.1851 -0.0470  1.7841
42714SOL     OW31733   7.342   3.417   1.184  0.0830 -0.2362  0.1284
42714SOL    HW131734   7.276   3.383   1.244  0.3201 -1.6986 -0.4136
42714SOL    HW231735   7.422   3.421   1.237  0.2457 -1.3317 -0.0194
42715SOL     OW31736   1.304   1.111   9.327  0.2919  0.3559 -0.0227
42715SOL    HW131737   1.287   1.057   9.405 -0.9679 -0.3535 -0.7500
42715SOL    HW231738   1.292   1.051   9.254  2.6049  0.7368 -0.7616
42716SOL     OW31739   8.706   3.647   6.574 -0.0817 -0.3391 -0.2640
42716SOL    HW131740   8.688   3.733   6.537  0.6423 -0.9027 -1.9926
42716SOL    HW231741   8.620   3.605   6.580 -0.2262 -0.1927 -1.2134
42717SOL     OW31742   9.991   2.029   9.029 -0.0488 -0.0278  0.4708
42717SOL    HW131743  10.004   2.019   9.123 -1.9183 -0.9812  0.6816
42717SOL    HW231744   9.896   2.040   9.019 -0.1397 -1.9102 -1.4262
42718SOL     OW31745   7.873  10.966   8.639  0.1303  0.1742  0.3836
42718SOL    HW131746   7.818  10.908   8.692  0.2841  0.8710  1.3190
42718SOL    HW231747   7.811  11.018   8.588 -0.0417  0.2286  0.6498
42719SOL     OW31748   4.683   3.034   9.273 -0.8625  0.6121 -0.1770
42719SOL    HW131749   4.753   2.987   9.319  0.8025  1.0584 -2.0897
42719SOL    HW231750   4.622   3.060   9.342 -0.4319 -1.9327  1.2669
42720SOL     OW31751  10.692   8.961   2.361  0.2392  0.0367 -0.0832
42720SOL    HW131752  10.632   9.030   2.390 -0.2517 -0.5246  0.2518
42720SOL    HW231753  10.635   8.894   2.324  0.8251  0.6834 -2.3228
42721SOL     OW31754   8.028   9.876  10.658 -0.0031 -0.2752 -0.1888
42721SOL    HW131755   8.056   9.946  10.717 -2.1300 -0.6449  1.3493
42721SOL    HW231756   8.057   9.796  10.700  1.0598 -0.4435 -1.1759
42722SOL     OW31757   7.357   7.905   3.294 -0.2549 -0.1422  0.2426
42722SOL    HW131758   7.418   7.935   3.226  0.6871 -0.6923  0.8139
42722SOL    HW231759   7.413   7.891   3.371 -1.0439 -1.0113  0.6794
42723SOL     OW31760   7.060   3.233   1.948 -0.2215  0.0100 -0.4236
42723SOL    HW131761   7.046   3.159   1.889  1.8548  0.3251 -1.4029
42723SOL    HW231762   6.986   3.230   2.009 -0.8443 -2.1059 -1.2058
42724SOL     OW31763   6.866   6.491   5.119  0.2156 -0.0355  0.2197
42724SOL    HW131764   6.900   6.411   5.160 -1.1829 -0.4946  0.5604
42724SOL    HW231765   6.907   6.562   5.167  0.8642 -0.5531  0.4513
42725SOL     OW31766   7.888   8.555   7.757  0.1170 -0.7248  0.7059
42725SOL    HW131767   7.810   8.600   7.790  0.5504 -1.3248  2.6264
42725SOL    HW231768   7.865   8.463   7.758  0.5035 -0.8310  0.2533
42726SOL     OW31769   5.749   7.336   5.784  0.3052  0.3150  0.0101
42726SOL    HW131770   5.817   7.280   5.744 -1.6661 -2.3745  0.1532
42726SOL    HW231771   5.696   7.365   5.710  0.3442  0.6348  0.1068
42727SOL     OW31772   2.575   8.799   7.933 -0.0227 -0.4596 -0.2002
42727SOL    HW131773   2.520   8.722   7.918 -1.1686 -0.2908  2.5597
42727SOL    HW231774   2.623   8.810   7.850 -2.4828 -1.9216 -1.9758
42728SOL     OW31775  10.703   0.624  10.861 -0.0346  0.0268  0.2235
42728SOL    HW131776  10.758   0.611  10.938  2.0546 -0.3041 -1.2299
42728SOL    HW231777  10.725   0.712  10.831 -2.0686  0.8180  0.8683
42729SOL     OW31778   5.065   6.783   5.878  0.4821  0.1964 -0.2757
42729SOL    HW131779   5.100   6.705   5.922  0.0978 -0.0054 -0.3222
42729SOL    HW231780   4.972   6.782   5.899  0.3388  0.2313 -0.9001
42730SOL     OW31781   1.151   3.959   6.379  0.0646  0.0034 -0.1464
42730SOL    HW131782   1.102   3.988   6.302  0.9836 -0.6497 -1.0049
42730SOL    HW231783   1.169   4.040   6.428  0.2500  0.5542 -1.1007
42731SOL     OW31784   4.800   7.300   0.837  0.2964  0.9262  0.1014
42731SOL    HW131785   4.767   7.219   0.875 -0.5760  0.7299 -1.0060
42731SOL    HW231786   4.722   7.357   0.831  1.0606  2.2254  1.7541
42732SOL     OW31787   6.087  10.181   7.614  0.1431 -0.2376  0.3900
42732SOL    HW131788   6.176  10.179   7.580  0.2274 -1.5371  0.6237
42732SOL    HW231789   6.060  10.272   7.606  1.2456  0.0449 -0.3131
42733SOL     OW31790   2.874  10.106  10.439 -0.2914 -0.4136 -0.0621
42733SOL    HW131791   2.832  10.028  10.402  1.0670 -0.5461 -1.4089
42733SOL    HW231792   2.878  10.168  10.366 -0.3644  0.5164  0.7041
42734SOL     OW31793   9.128   3.929   6.169 -0.0979 -0.2522 -0.6728
42734SOL    HW131794   9.042   3.970   6.182  0.5271  0.9515 -0.2130
42734SOL    HW231795   9.190   4.001   6.172  0.9832 -1.1547 -0.6006
42735SOL     OW31796   2.894   3.582   3.892  0.0864 -0.1710  0.0979
42735SOL    HW131797   2.811   3.623   3.868  0.7661  1.8072  0.9023
42735SOL    HW231798   2.868   3.506   3.944 -1.2467  0.5026  0.4900
42736SOL     OW31799  10.076   6.013   7.178  0.1917 -0.2391 -0.1074
42736SOL    HW131800  10.033   5.935   7.213 -0.8765  1.6566  3.2349
42736SOL    HW231801  10.124   6.049   7.253 -0.9802  3.3393 -0.8827
42737SOL     OW31802   9.804   9.469   9.715  0.0464 -0.1080 -0.3780
42737SOL    HW131803   9.779   9.421   9.635 -1.9044 -0.9442  0.6716
42737SOL    HW231804   9.767   9.418   9.786 -1.6518  2.6123  0.8658
42738SOL     OW31805   9.462   0.561   8.760 -0.0265  0.0446  0.0150
42738SOL    HW131806   9.421   0.523   8.682  1.1124 -0.1779 -0.5011
42738SOL    HW231807   9.539   0.607   8.726  0.3355  0.1770  0.9889
42739SOL     OW31808   7.772  11.024   4.719 -0.1046 -0.6050 -0.4507
42739SOL    HW131809   7.720  11.097   4.684 -0.0003  0.6942  1.9031
42739SOL    HW231810   7.858  11.035   4.679 -0.2789  0.1807 -0.6286
42740SOL     OW31811   9.960  10.984   8.666  0.1237 -0.0618 -0.3957
42740SOL    HW131812   9.970  10.984   8.571  0.0509  1.1846 -0.4113
42740SOL    HW231813  10.049  10.984   8.700  0.1586 -1.2667 -0.4414
42741SOL     OW31814   7.924   9.131   8.778 -0.0893  0.1341 -0.2985
42741SOL    HW131815   7.906   9.042   8.747 -0.3494  0.3235 -0.6957
42741SOL    HW231816   7.879   9.137   8.862  0.0831 -0.1696 -0.1824
42742SOL     OW31817   3.502   1.529   6.515  0.3408 -0.1675 -0.1114
42742SOL    HW131818   3.515   1.436   6.532  0.0074 -0.2515 -0.2947
42742SOL    HW231819   3.476   1.566   6.600  2.3498  0.1310  0.4175
42743SOL     OW31820   5.096   0.428   0.618  0.2204  0.4489 -0.3079
42743SOL    HW131821   5.154   0.399   0.547  0.9135 -0.4893  0.5977
42743SOL    HW231822   5.071   0.347   0.663 -0.2489  1.0121  0.4759
42744SOL     OW31823  10.991   2.425   5.659 -0.5501  0.0946  0.3539
42744SOL    HW131824  11.009   2.333   5.641 -0.9697 -0.1408  1.0493
42744SOL    HW231825  11.007   2.434   5.753 -1.1560  0.5668  0.4198
42745SOL     OW31826  10.622   1.977   1.092 -0.2241 -0.3330 -0.0600
42745SOL    HW131827  10.607   2.067   1.062 -0.7263 -0.6320 -0.7600
42745SOL    HW231828  10.714   1.974   1.116 -0.1687  0.3309 -0.1685
42746SOL     OW31829  10.350   3.014   0.040  0.5129  0.1525 -0.4459
42746SOL    HW131830  10.351   3.073  -0.035 -1.8627  0.9396  0.0623
42746SOL    HW231831  10.274   3.041   0.091  2.1320 -0.2437  2.3702
42747SOL     OW31832   0.474   8.795  10.175 -0.1010 -0.2058 -0.0831
42747SOL    HW131833   0.490   8.768  10.085  0.9688 -0.1643  0.0775
42747SOL    HW231834   0.468   8.714  10.224 -0.8510 -0.2336 -0.2063
42748SOL     OW31835   3.228  10.866   7.066 -0.4928  0.0432  0.4176
42748SOL    HW131836   3.307  10.853   7.014 -0.7000  1.4372 -0.3061
42748SOL    HW231837   3.160  10.817   7.020 -0.0469 -1.3034  1.1385
42749SOL     OW31838   9.693  10.121   6.821 -0.7814  0.5056  0.8965
42749SOL    HW131839   9.651  10.207   6.824  0.4882  1.1398  1.4712
42749SOL    HW231840   9.766  10.128   6.883  0.1462 -0.5416 -0.0274
42750SOL     OW31841   4.571   3.570   7.180 -0.2488 -0.1433  0.9414
42750SOL    HW131842   4.648   3.525   7.145 -0.2518  0.8176 -0.3977
42750SOL    HW231843   4.498   3.510   7.163  0.0083 -0.4661  0.9673
42751SOL     OW31844   7.007   2.099   4.685 -0.2252  0.1912  0.2121
42751SOL    HW131845   7.025   2.044   4.761  1.1109 -1.3409 -1.1309
42751SOL    HW231846   7.071   2.171   4.692  1.7594 -1.3648 -0.7511
42752SOL     OW31847   6.654   9.467   3.749  0.2797  0.2765 -0.1817
42752SOL    HW131848   6.668   9.467   3.654 -0.3420 -2.1477 -0.3312
42752SOL    HW231849   6.738   9.495   3.785  0.0196  2.9506 -1.4275
42753SOL     OW31850   6.462   5.291   1.972  0.1759  0.0068  0.6012
42753SOL    HW131851   6.525   5.344   1.922  1.3484 -1.6219  0.2423
42753SOL    HW231852   6.393   5.271   1.910  0.6282 -0.3408  0.1971
42754SOL     OW31853   4.313   0.317  10.787  0.5856 -0.2581  1.0185
42754SOL    HW131854   4.302   0.412  10.800  0.0074 -0.1485 -0.1796
42754SOL    HW231855   4.331   0.283  10.875 -0.9990  0.7232  1.7661
42755SOL     OW31856   5.665   7.887   9.604  0.4583 -0.3247 -0.3145
42755SOL    HW131857   5.614   7.865   9.682 -1.3980  1.4213 -0.9458
42755SOL    HW231858   5.704   7.972   9.624 -0.4268  0.3818 -1.3783
42756SOL     OW31859   7.840   1.049   7.367 -0.7731  0.3738  0.4182
42756SOL    HW131860   7.934   1.050   7.382 -0.4696  0.1009 -1.2804
42756SOL    HW231861   7.806   0.988   7.433 -0.3323  3.2938  3.6184
42757SOL     OW31862   5.500   1.379   5.038  0.2012 -0.0118  0.4330
42757SOL    HW131863   5.487   1.301   4.984 -0.0155  0.6193 -0.4673
42757SOL    HW231864   5.547   1.348   5.115 -0.0643 -1.0605  0.1940
42758SOL     OW31865   1.559   9.395   2.725  0.1482 -0.3514 -0.0905
42758SOL    HW131866   1.481   9.348   2.755  0.2493 -0.6114 -0.2250
42758SOL    HW231867   1.584   9.350   2.644  0.4278 -0.2586 -0.0571
42759SOL     OW31868   5.506   1.875   1.936  0.3213 -0.6526  0.4828
42759SOL    HW131869   5.505   1.819   2.013  1.1368  0.1948  1.1389
42759SOL    HW231870   5.444   1.945   1.956  0.7849 -0.2492  0.5192
42760SOL     OW31871   7.693  10.065   3.073  0.1835  0.1796  0.4223
42760SOL    HW131872   7.723  10.146   3.032 -1.6416  0.4706 -0.4129
42760SOL    HW231873   7.622  10.092   3.131 -1.3915 -0.9073 -0.8971
42761SOL     OW31874   4.671   3.102   8.603  0.0788 -0.0532  0.0150
42761SOL    HW131875   4.612   3.093   8.678  0.0023  0.0947 -0.0270
42761SOL    HW231876   4.745   3.152   8.637 -0.1268  0.3402 -0.1002
42762SOL     OW31877   1.165   1.774   8.135  0.0496 -0.4473 -0.0135
42762SOL    HW131878   1.113   1.719   8.194  0.4055  0.9979  1.7122
42762SOL    HW231879   1.100   1.822   8.084 -0.3715  0.5886  1.4213
42763SOL     OW31880   9.141   6.882   3.378  0.2576 -0.0843 -0.2305
42763SOL    HW131881   9.132   6.847   3.290  0.4982  2.1260 -1.1816
42763SOL    HW231882   9.107   6.971   3.373  0.4389  0.1664  1.8757
42764SOL     OW31883   1.886   0.999   0.760  0.5192 -0.1798  0.2261
42764SOL    HW131884   1.820   1.028   0.697 -0.8240 -1.2163  1.0955
42764SOL    HW231885   1.943   1.075   0.771 -1.0147  1.0469  0.0584
42765SOL     OW31886   0.991   1.545   7.552 -0.2311 -0.6356 -0.2505
42765SOL    HW131887   1.033   1.624   7.519 -0.1462 -0.7158 -0.3349
42765SOL    HW231888   1.064   1.489   7.580 -0.1369 -1.7161 -2.4856
42766SOL     OW31889   4.916   3.854  10.250  0.2731  0.8796  0.3702
42766SOL    HW131890   4.869   3.771  10.262  0.0785  0.6342 -1.6253
42766SOL    HW231891   4.981   3.855  10.319 -0.2753 -0.5455  0.9528
42767SOL     OW31892   4.949   8.896   3.774 -0.2515 -0.6793 -0.3313
42767SOL    HW131893   4.912   8.829   3.832 -2.4423 -0.2409 -1.1198
42767SOL    HW231894   5.040   8.870   3.763 -0.4167 -2.1563  1.3175
42768SOL     OW31895   6.135   3.381   8.636  0.1906  0.2748  0.3779
42768SOL    HW131896   6.064   3.382   8.700  1.2049  0.1512  1.5543
42768SOL    HW231897   6.092   3.363   8.552 -1.2068  0.7101  0.9771
42769SOL     OW31898   4.560   7.036   2.604  0.6051  0.0122  0.0570
42769SOL    HW131899   4.604   7.099   2.660  1.5538 -0.6776  0.1267
42769SOL    HW231900   4.611   6.955   2.615 -0.2137 -0.5937 -0.4860
42770SOL     OW31901  10.490   4.773   7.224 -0.2659 -0.1089 -0.0012
42770SOL    HW131902  10.416   4.713   7.213 -0.8524  0.9509 -2.3891
42770SOL    HW231903  10.451   4.851   7.263 -0.4002  0.4108 -1.1635
42771SOL     OW31904   1.855   2.337   4.604  0.1866  0.1587 -0.3276
42771SOL    HW131905   1.893   2.398   4.668  0.0414  0.6914 -0.7449
42771SOL    HW231906   1.888   2.251   4.631  0.8858  0.4931 -0.0914
42772SOL     OW31907   0.282   9.666  10.025  0.2903  0.0222 -0.4260
42772SOL    HW131908   0.277   9.762  10.028 -0.4312  0.1127 -2.4998
42772SOL    HW231909   0.375   9.646  10.032  0.4720  0.8907 -0.2737
42773SOL     OW31910   2.709   9.705   5.062  0.2399  0.0060 -0.2523
42773SOL    HW131911   2.680   9.630   5.011 -0.4760 -1.0501  1.5817
42773SOL    HW231912   2.795   9.680   5.096  0.4521  0.4398 -0.4692
42774SOL     OW31913   0.370   3.260   3.403 -0.1455  0.3206 -0.0493
42774SOL    HW131914   0.366   3.355   3.409 -0.8011  0.1956  2.6972
42774SOL    HW231915   0.280   3.234   3.380 -0.9679  0.2863  2.8051
42775SOL     OW31916   7.977   2.922   7.828 -0.4784 -0.1086 -0.0318
42775SOL    HW131917   7.929   3.003   7.811 -0.7097 -0.2032  0.1684
42775SOL    HW231918   7.970   2.909   7.922  1.9572  1.1318  0.4049
42776SOL     OW31919  10.880   2.300  10.359 -0.3432 -0.0117 -0.0105
42776SOL    HW131920  10.854   2.313  10.450 -0.3265  2.3153 -0.2868
42776SOL    HW231921  10.892   2.205  10.351  0.5916 -0.2001  2.6408
42777SOL     OW31922   5.491   6.739   6.849 -0.2534  0.6485  0.5593
42777SOL    HW131923   5.492   6.650   6.882 -0.1687  0.8378  1.0714
42777SOL    HW231924   5.581   6.770   6.858  0.0325  0.3297 -0.8980
42778SOL     OW31925   6.203   4.313   0.169  0.0164  0.2192 -0.2270
42778SOL    HW131926   6.285   4.268   0.189 -1.2617 -2.0620  0.3224
42778SOL    HW231927   6.136   4.245   0.177 -1.7536  1.5267 -2.5591
42779SOL     OW31928   7.468   9.683  10.423 -0.2436  0.0600 -0.1562
42779SOL    HW131929   7.463   9.719  10.511 -1.2260  0.9559 -0.5684
42779SOL    HW231930   7.555   9.708  10.392 -0.9680  2.3329 -0.5117
42780SOL     OW31931   7.903   0.361   7.388 -0.0244  0.2854  0.3844
42780SOL    HW131932   7.889   0.456   7.386  1.3687  0.5303 -2.4758
42780SOL    HW231933   7.846   0.327   7.320 -0.4495 -0.9748  1.3313
42781SOL     OW31934   3.761   3.208   7.998  0.1084 -0.4792  0.0479
42781SOL    HW131935   3.697   3.165   8.055  0.1329 -0.5960 -0.0136
42781SOL    HW231936   3.844   3.200   8.045  0.1843 -0.8457 -0.1478
42782SOL     OW31937   1.996   3.456   9.784 -0.1767  0.0039  0.2966
42782SOL    HW131938   1.941   3.462   9.705 -0.7042 -0.6791  0.6065
42782SOL    HW231939   2.071   3.513   9.765 -0.0829 -0.4874 -0.8738
42783SOL     OW31940   4.491   9.802  10.533  0.1170  0.3571  0.1537
42783SOL    HW131941   4.481   9.716  10.493 -0.8332 -0.5185  2.1067
42783SOL    HW231942   4.580   9.803  10.567  0.1448  0.1577  0.0866
42784SOL     OW31943   5.285   7.188   5.363  0.3362  0.0766 -0.5492
42784SOL    HW131944   5.245   7.169   5.278 -0.5870  0.9286 -0.3263
42784SOL    HW231945   5.219   7.241   5.409  0.4897 -1.0098  0.9966
42785SOL     OW31946   2.597   1.018   3.248  0.1411  0.0704 -0.4524
42785SOL    HW131947   2.671   0.961   3.225  1.4872  0.6115  2.1531
42785SOL    HW231948   2.576   0.995   3.338 -0.8711  2.0355 -0.1287
42786SOL     OW31949   6.341   6.693   8.079  0.5268  0.4545 -0.4848
42786SOL    HW131950   6.363   6.604   8.053  0.6952  0.6644 -1.0714
42786SOL    HW231951   6.420   6.726   8.122  0.5688  0.4228 -0.5380
42787SOL     OW31952   8.576   0.350   3.927 -0.0515 -0.4151 -0.5186
42787SOL    HW131953   8.652   0.409   3.926 -0.6110  0.3537  0.5476
42787SOL    HW231954   8.595   0.285   3.860  1.1279  0.3062 -0.9028
42788SOL     OW31955   4.073   4.007   9.569  0.7122 -0.0503 -0.1934
42788SOL    HW131956   4.058   3.917   9.599  0.1085 -0.1158 -0.6783
42788SOL    HW231957   4.147   4.001   9.509  0.8028 -0.1897 -0.0684
42789SOL     OW31958   1.471   2.206   1.614 -0.1591 -0.2924  0.3025
42789SOL    HW131959   1.528   2.282   1.602 -0.0070 -0.1599  1.6968
42789SOL    HW231960   1.396   2.223   1.557  0.9923 -0.2872 -1.2769
42790SOL     OW31961   1.042   1.224   0.238  0.4841  0.5215  0.4834
42790SOL    HW131962   1.130   1.233   0.201  1.0018 -0.2201  1.5120
42790SOL    HW231963   1.048   1.152   0.300 -0.8852  0.3814  0.4941
42791SOL     OW31964   3.146   3.356  10.962 -0.9814  0.4112 -0.4313
42791SOL    HW131965   3.157   3.444  10.997 -2.4442  0.3857  0.1553
42791SOL    HW231966   3.162   3.365  10.868  1.2294  0.8181 -0.0797
42792SOL     OW31967   3.826   6.020   3.488  0.1739 -0.1331 -0.4557
42792SOL    HW131968   3.910   6.019   3.443  0.0872  0.4973 -0.6412
42792SOL    HW231969   3.836   6.086   3.557  0.1248 -0.7002  0.1074
42793SOL     OW31970   5.600   1.687   0.456  0.7728 -0.2754  0.0460
42793SOL    HW131971   5.601   1.638   0.538 -0.5738  0.8437  0.7594
42793SOL    HW231972   5.517   1.662   0.414  0.3227  0.9757  0.1681
42794SOL     OW31973   3.588   7.421   8.842  0.4243  0.1077  0.0972
42794SOL    HW131974   3.644   7.356   8.886  0.7405 -1.1711 -2.0471
42794SOL    HW231975   3.645   7.461   8.776 -0.5593  0.4404 -0.5771
42795SOL     OW31976   8.817   8.619  10.221 -0.4700 -0.1342  0.1499
42795SOL    HW131977   8.842   8.552  10.158  0.2875  0.4612 -0.2021
42795SOL    HW231978   8.765   8.573  10.287  0.6520 -1.1963  0.3060
42796SOL     OW31979   9.425   8.933   6.969  0.1455  0.0841 -0.7178
42796SOL    HW131980   9.449   8.978   6.888 -0.6191  2.0463  0.0848
42796SOL    HW231981   9.331   8.917   6.961  0.0271  0.4570 -0.1766
42797SOL     OW31982   8.235   3.975  10.686 -1.1889 -0.0046  0.4765
42797SOL    HW131983   8.214   4.006  10.774  0.8502  0.7143  0.7618
42797SOL    HW231984   8.280   3.892  10.701 -2.9321 -1.1099 -0.0705
42798SOL     OW31985   7.517  10.721   7.341  0.5525  0.2517 -0.2335
42798SOL    HW131986   7.462  10.642   7.336  1.2796 -0.2496 -0.4139
42798SOL    HW231987   7.499  10.757   7.428 -0.6566  0.5453 -0.5775
42799SOL     OW31988  10.735   6.300   6.639  0.0528 -0.0295  0.2177
42799SOL    HW131989  10.787   6.269   6.714  0.3108 -4.7642 -1.5938
42799SOL    HW231990  10.797   6.301   6.566 -0.9848  0.9669 -0.6868
42800SOL     OW31991   8.657   3.008   6.651  0.6498  0.1882  0.3321
42800SOL    HW131992   8.743   2.971   6.634  1.1799  1.6849 -0.4513
42800SOL    HW231993   8.665   3.100   6.627 -1.0873  0.4419  0.5479
42801SOL     OW31994   4.742   0.255  10.986 -0.4215  0.8258  0.0050
42801SOL    HW131995   4.807   0.316  11.022 -2.0658  2.4653  0.3934
42801SOL    HW231996   4.761   0.252  10.892  1.1723 -0.0027  0.3201
42802SOL     OW31997   2.798   1.869   8.719  0.2732 -0.1171  0.2103
42802SOL    HW131998   2.714   1.846   8.757 -0.2718  0.4665 -0.6104
42802SOL    HW231999   2.778   1.890   8.628  1.4534 -0.9489 -0.2751
42803SOL     OW32000   8.453   0.258   5.392 -0.1275 -0.5096  0.5952
42803SOL    HW132001   8.478   0.328   5.452  0.7039 -1.4660  1.4042
42803SOL    HW232002   8.440   0.182   5.448 -1.0965 -0.9912 -0.2594
42804SOL     OW32003   5.615   0.915   1.087 -0.1904  0.1905  0.0789
42804SOL    HW132004   5.557   0.931   1.012  1.8152  0.1842 -1.5613
42804SOL    HW232005   5.667   0.995   1.094  0.5889 -0.3547  0.5785
42805SOL     OW32006   6.622   3.527   2.884 -0.2844  0.2421  0.5714
42805SOL    HW132007   6.578   3.512   2.967  1.7343 -0.6841  1.5547
42805SOL    HW232008   6.698   3.469   2.887 -0.7683 -0.7239 -2.4496
42806SOL     OW32009   3.215   3.911   3.303 -0.1766  0.0709  0.0782
42806SOL    HW132010   3.195   3.844   3.369  2.6025 -0.6825  0.3026
42806SOL    HW232011   3.146   3.902   3.237 -0.9655 -1.6864  1.0750
42807SOL     OW32012  10.701   9.235   7.112  0.4035  0.4283 -0.2921
42807SOL    HW132013  10.639   9.212   7.042 -0.3489  2.6104 -0.4386
42807SOL    HW232014  10.787   9.220   7.074  0.0133 -1.3880 -0.5594
42808SOL     OW32015   0.492   6.862  10.169 -0.8980  0.3342  0.1080
42808SOL    HW132016   0.412   6.843  10.218 -1.8028 -1.0228 -1.7261
42808SOL    HW232017   0.464   6.858  10.077  1.2836 -0.1536 -0.5892
42809SOL     OW32018   0.247   3.943   2.077 -0.6221 -0.0355 -1.0267
42809SOL    HW132019   0.309   3.986   2.137 -1.8354 -0.8530  0.9201
42809SOL    HW232020   0.173   4.003   2.073 -2.0461 -1.5068  1.1908
42810SOL     OW32021   8.084   8.717   3.076  0.7963  0.2239  0.3560
42810SOL    HW132022   8.141   8.757   3.010  0.8506  1.6196  1.2112
42810SOL    HW232023   8.125   8.739   3.159 -1.4449  2.1130  1.0593
42811SOL     OW32024   2.797   2.361   5.454  0.3011  0.0710 -0.1811
42811SOL    HW132025   2.834   2.310   5.382  1.2329  0.7078 -0.1675
42811SOL    HW232026   2.852   2.340   5.529 -1.8410 -2.1505  0.9173
42812SOL     OW32027   4.078   7.173   7.747  0.4372 -0.0205 -0.3741
42812SOL    HW132028   4.017   7.099   7.743  1.7242 -1.1596 -4.7933
42812SOL    HW232029   4.032   7.244   7.702  1.4831 -0.2200 -1.8290
42813SOL     OW32030   9.379   9.009  10.940  0.1180  0.2940  0.0769
42813SOL    HW132031   9.316   9.025  11.010 -1.7978 -1.9165 -1.0012
42813SOL    HW232032   9.330   8.958  10.875  2.0767  1.4254 -2.4447
42814SOL     OW32033   0.606   9.692   1.738  0.2938 -0.6257  0.1124
42814SOL    HW132034   0.533   9.719   1.682  1.6005  1.9007 -0.5135
42814SOL    HW232035   0.677   9.673   1.677  0.7771 -1.0297  0.7925
42815SOL     OW32036   3.141  10.488   8.004  0.4376  0.3438  0.0517
42815SOL    HW132037   3.160  10.398   7.978 -1.1545 -0.0874  0.2405
42815SOL    HW232038   3.145  10.538   7.923  4.4199  0.7711  0.3472
42816SOL     OW32039   6.215   5.615   3.048  0.1271 -0.3254  0.4635
42816SOL    HW132040   6.263   5.697   3.034 -0.5279  0.2155  1.2450
42816SOL    HW232041   6.209   5.607   3.143  1.6610 -2.1922  0.4528
42817SOL     OW32042   3.827   9.629   9.551 -0.4425  0.3591 -0.6238
42817SOL    HW132043   3.738   9.625   9.584 -0.8807 -0.4563 -1.8250
42817SOL    HW232044   3.875   9.682   9.614 -1.4173 -0.4678  0.8542
42818SOL     OW32045   5.497   5.828   9.532 -0.0622 -0.0831 -0.1354
42818SOL    HW132046   5.466   5.737   9.541 -0.4714 -0.0919 -1.3547
42818SOL    HW232047   5.439   5.879   9.588 -0.5316 -0.4527 -0.2790
42819SOL     OW32048   5.150   8.734  10.320 -0.5735  0.1670  0.3462
42819SOL    HW132049   5.086   8.676  10.278  1.4149 -1.6955 -0.3062
42819SOL    HW232050   5.230   8.720  10.270  0.7479  1.2909  2.0524
42820SOL     OW32051   3.923   2.368   0.389  0.2786  0.1899 -0.5539
42820SOL    HW132052   3.898   2.455   0.358 -0.1128  0.6619  0.9697
42820SOL    HW232053   3.843   2.333   0.429  0.2547 -1.1528 -1.6820
42821SOL     OW32054   3.122  10.829   1.122  0.0697  0.3791 -0.9055
42821SOL    HW132055   3.165  10.892   1.065 -2.0463  2.6024 -0.1902
42821SOL    HW232056   3.154  10.851   1.210  1.8653 -1.8064 -0.9189
42822SOL     OW32057   9.216   8.502   5.613 -0.3155  0.1035  0.2232
42822SOL    HW132058   9.126   8.491   5.645  0.2041 -1.2288  1.2663
42822SOL    HW232059   9.210   8.479   5.520 -1.1241  0.4269  0.1813
42823SOL     OW32060   3.798   7.348   3.831  0.2009 -0.6961  0.2169
42823SOL    HW132061   3.719   7.401   3.822 -1.1210 -2.3679  1.1834
42823SOL    HW232062   3.799   7.294   3.752  0.1244 -0.9506  0.3858
42824SOL     OW32063  10.512   4.399   2.428  0.0293 -0.1636 -0.2568
42824SOL    HW132064  10.591   4.453   2.437  0.0720 -0.1772 -0.5476
42824SOL    HW232065  10.529   4.323   2.483  0.2751 -0.2342 -0.4292
42825SOL     OW32066  10.823   5.205   7.719 -0.2920  0.6359  0.0732
42825SOL    HW132067  10.776   5.285   7.741 -0.6757  0.2243  0.7765
42825SOL    HW232068  10.832   5.159   7.802  1.8566  0.9590  0.0934
42826SOL     OW32069   6.238   2.682  10.089  0.1747 -0.0533 -0.8784
42826SOL    HW132070   6.269   2.611  10.032 -0.9242 -1.1498 -0.1530
42826SOL    HW232071   6.149   2.698  10.059 -0.0007  0.1766 -0.2381
42827SOL     OW32072  10.824   1.060   4.261  0.7021 -0.0424 -0.0791
42827SOL    HW132073  10.864   1.072   4.175 -0.4204 -0.7315 -0.7272
42827SOL    HW232074  10.745   1.007   4.243 -0.3481  1.0499  1.1620
42828SOL     OW32075  10.213   6.647   4.744 -0.2756  1.1987  0.1780
42828SOL    HW132076  10.165   6.603   4.674 -1.4063  1.2628  0.8817
42828SOL    HW232077  10.169   6.731   4.754 -2.3047 -0.0247  3.0843
42829SOL     OW32078   9.807   0.991   9.008 -0.2264 -0.1448 -0.3902
42829SOL    HW132079   9.717   0.959   9.013  0.6350 -2.8583 -0.5495
42829SOL    HW232080   9.799   1.086   9.021 -3.1015 -0.2364 -0.6849
42830SOL     OW32081   1.624   0.375   7.210  0.4798 -0.0935  0.3456
42830SOL    HW132082   1.686   0.445   7.229 -0.5030  0.2955  2.4294
42830SOL    HW232083   1.677   0.296   7.203  1.2898  0.3146  1.5643
42831SOL     OW32084  10.372   4.488   0.923  0.0045 -0.5773  0.1973
42831SOL    HW132085  10.311   4.526   0.860  1.3156  0.6893 -0.3805
42831SOL    HW232086  10.409   4.563   0.969 -0.1559 -1.4289  1.7797
42832SOL     OW32087   5.318   4.242   7.593  0.0524 -0.2662  0.4269
42832SOL    HW132088   5.304   4.232   7.687  0.2185 -1.2132  0.3606
42832SOL    HW232089   5.252   4.306   7.566 -0.4786 -0.5278  1.0688
42833SOL     OW32090   7.921   9.974  10.109  0.0282  0.0206 -0.4243
42833SOL    HW132091   7.949  10.046  10.053  1.9083 -1.5199 -1.6249
42833SOL    HW232092   7.907   9.901  10.048  1.3317 -1.4777  0.9849
42834SOL     OW32093   4.314   9.726   3.603 -0.2013 -0.1216 -0.2336
42834SOL    HW132094   4.317   9.647   3.550 -1.8571 -1.2226  1.2364
42834SOL    HW232095   4.268   9.701   3.682 -0.7313  2.3118  0.3185
42835SOL     OW32096   4.016  10.053   9.059 -0.3800  0.2390 -0.1766
42835SOL    HW132097   4.111  10.042   9.068 -0.6033 -0.4386  2.3546
42835SOL    HW232098   3.989   9.985   8.997  0.8253  0.8322 -1.3967
42836SOL     OW32099   5.174   3.824   8.765  0.5517  0.1179  0.4244
42836SOL    HW132100   5.241   3.795   8.703 -0.1891 -1.9190  0.5062
42836SOL    HW232101   5.104   3.760   8.758 -0.1616  0.5881  2.3863
42837SOL     OW32102   8.092  10.959   9.367  0.5177 -0.5914 -0.3799
42837SOL    HW132103   8.170  10.906   9.356  1.3993  0.4965  0.3706
42837SOL    HW232104   8.105  11.033   9.307 -0.1340 -0.6190 -0.5611
42838SOL     OW32105   5.561   6.507   7.840  0.3031 -0.3773  0.4289
42838SOL    HW132106   5.656   6.494   7.835  0.2243 -1.7217  1.8024
42838SOL    HW232107   5.551   6.587   7.892  0.6939 -1.1661  1.7749
42839SOL     OW32108   2.915   3.229   1.620 -0.1148 -0.0590 -0.0345
42839SOL    HW132109   2.978   3.160   1.643 -0.4552 -0.7192 -1.0244
42839SOL    HW232110   2.887   3.207   1.531 -0.5947  1.0969 -0.1801
42840SOL     OW32111   0.018   9.691   8.394 -0.1225 -0.3292 -0.4553
42840SOL    HW132112   0.045   9.604   8.423 -0.0485  0.3186  1.5745
42840SOL    HW232113   0.090   9.749   8.420 -1.5450  0.7905  1.3027
42841SOL     OW32114   4.008   8.287   3.730 -0.1766 -0.0890 -0.3752
42841SOL    HW132115   3.944   8.353   3.757  0.9648  1.2338 -0.8114
42841SOL    HW232116   4.092   8.321   3.759  0.7531 -0.0317 -2.9062
42842SOL     OW32117   1.304   2.453   8.188 -0.5456  0.0329  0.2137
42842SOL    HW132118   1.269   2.443   8.276 -1.6060  1.4925 -0.0148
42842SOL    HW232119   1.229   2.476   8.134  0.5092  1.9532 -0.5458
42843SOL     OW32120   8.211   4.039  10.969  0.0420  0.1003 -0.1421
42843SOL    HW132121   8.121   4.063  10.991  0.5612  0.9517  1.1679
42843SOL    HW232122   8.232   3.967  11.029 -0.1267 -0.8676 -1.2191
42844SOL     OW32123   2.717   8.784  10.565  0.1915  0.3120 -0.0850
42844SOL    HW132124   2.641   8.726  10.561  0.8538 -0.5190 -1.1910
42844SOL    HW232125   2.680   8.871  10.581 -0.7937 -0.4137  1.8517
42845SOL     OW32126   8.090  11.025  10.787  0.5528  0.5586 -0.2140
42845SOL    HW132127   8.151  11.024  10.861 -1.7163  1.0701  1.8109
42845SOL    HW232128   8.107  11.108  10.743  0.3330  1.4341  1.2724
42846SOL     OW32129   4.899   5.746   9.935 -0.3052  0.3142 -0.4563
42846SOL    HW132130   4.966   5.794   9.983 -2.6358  1.4462  1.8958
42846SOL    HW232131   4.924   5.654   9.944  1.0273  0.7097  0.1333
42847SOL     OW32132   7.522   9.740   9.552  0.3936  0.1332 -0.8357
42847SOL    HW132133   7.500   9.816   9.606 -0.0087  0.0361 -0.8577
42847SOL    HW232134   7.470   9.669   9.589 -0.1693  0.1490 -1.5719
42848SOL     OW32135   5.281   7.566   3.599 -0.3074  0.0205  0.1929
42848SOL    HW132136   5.268   7.511   3.676 -1.4315  0.0908  0.0681
42848SOL    HW232137   5.198   7.613   3.589 -0.2717 -0.1824 -1.2026
42849SOL     OW32138   6.543   3.050   6.870  0.0808 -0.4457  0.2571
42849SOL    HW132139   6.537   2.963   6.831 -1.8173 -0.2369  0.0031
42849SOL    HW232140   6.526   3.110   6.798  0.6242  0.1157  0.5864
42850SOL     OW32141   1.853   8.341   5.736 -0.1757  0.2459 -0.2217
42850SOL    HW132142   1.816   8.378   5.656 -0.4359  0.0639 -0.1878
42850SOL    HW232143   1.917   8.406   5.765  0.0665  0.2220 -0.6845
42851SOL     OW32144   9.174   9.824   5.160  0.3692 -0.7419  0.4452
42851SOL    HW132145   9.121   9.747   5.179  0.5777 -1.2792 -1.0040
42851SOL    HW232146   9.119   9.878   5.103  0.6093 -0.3271  0.6023
42852SOL     OW32147   2.829   1.598   4.860 -1.1872  0.0201 -0.4942
42852SOL    HW132148   2.865   1.678   4.900  0.5428 -0.7390 -0.4338
42852SOL    HW232149   2.860   1.601   4.769  1.4531 -1.9388  0.2142
42853SOL     OW32150   1.596  10.298   4.607  0.1619 -0.3430  0.3149
42853SOL    HW132151   1.685  10.318   4.578  0.0847  0.2097  0.4494
42853SOL    HW232152   1.544  10.296   4.526 -0.0863  1.3669  0.3991
42854SOL     OW32153   8.777   4.539   8.573  0.3287  0.4844 -0.0254
42854SOL    HW132154   8.708   4.504   8.629  1.2301 -0.0056  0.7971
42854SOL    HW232155   8.743   4.529   8.484  0.2045 -1.7461  0.2236
42855SOL     OW32156   6.465   0.118   9.815  0.2053 -0.9218 -0.0411
42855SOL    HW132157   6.376   0.092   9.837 -0.1290  0.9916  1.1151
42855SOL    HW232158   6.454   0.188   9.751  0.7761  0.0624  0.8873
42856SOL     OW32159   3.502   8.150   1.959 -0.1792  0.2007 -0.2896
42856SOL    HW132160   3.491   8.076   1.899 -0.5880  0.8845 -1.0682
42856SOL    HW232161   3.596   8.159   1.969 -0.0083  1.3106 -2.4109
42857SOL     OW32162   1.887   5.999  10.882  0.2052  1.2441 -0.4518
42857SOL    HW132163   1.899   5.978  10.789  1.0284  3.6033 -0.9558
42857SOL    HW232164   1.792   6.003  10.894  0.0531 -0.5385 -0.7779
42858SOL     OW32165   9.367   0.723   3.488 -0.0229 -0.1620  0.6674
42858SOL    HW132166   9.374   0.815   3.461 -0.2593 -0.2273  0.3787
42858SOL    HW232167   9.420   0.675   3.425  1.9320 -0.0171  2.0865
42859SOL     OW32168   4.274   9.127   7.076 -0.2850  0.1547 -0.0823
42859SOL    HW132169   4.246   9.066   7.008 -0.8790  0.0301  0.2714
42859SOL    HW232170   4.277   9.212   7.032  1.2150 -0.2196 -0.7555
42860SOL     OW32171   7.569   0.854   6.834  0.1320  0.1029 -0.0015
42860SOL    HW132172   7.489   0.880   6.879  0.2644  0.0545  0.2647
42860SOL    HW232173   7.540   0.828   6.747 -0.2229 -0.5211  0.2979
42861SOL     OW32174   0.222   0.702  10.025 -0.1768  0.0949  0.3483
42861SOL    HW132175   0.288   0.696  10.095 -1.0358 -0.0782  1.1555
42861SOL    HW232176   0.186   0.791  10.034  0.5927  0.5347 -0.7031
42862SOL     OW32177   8.803   3.048   7.117 -0.0677  0.7292 -0.2898
42862SOL    HW132178   8.732   3.026   7.178 -0.1326  0.0329 -0.6095
42862SOL    HW232179   8.803   2.976   7.054  1.0318  0.6420 -0.2037
42863SOL     OW32180   5.885   1.541   0.875  0.1501  0.0400  0.1059
42863SOL    HW132181   5.895   1.462   0.929 -1.8726  0.1974  0.7627
42863SOL    HW232182   5.938   1.523   0.797 -1.2175 -2.5371 -0.3442
42864SOL     OW32183   0.102   7.096   1.467 -0.1941  0.3637 -0.2137
42864SOL    HW132184   0.110   7.187   1.439  0.8953 -0.3981 -2.6915
42864SOL    HW232185   0.164   7.088   1.540  0.4413  1.3617 -0.6211
42865SOL     OW32186   2.921   9.391   4.045 -0.2944  0.0035  0.2116
42865SOL    HW132187   2.903   9.327   3.976 -0.3597 -1.4584  1.5027
42865SOL    HW232188   2.835   9.410   4.082 -0.3260  1.2044 -0.4290
42866SOL     OW32189   1.667   2.774   1.391 -0.1547  0.5355  0.1360
42866SOL    HW132190   1.714   2.722   1.456 -2.3407 -2.8347 -0.7634
42866SOL    HW232191   1.721   2.769   1.312 -1.2314 -2.2491 -0.5278
42867SOL     OW32192   6.991   0.966  10.189 -0.1169 -0.0893  0.0860
42867SOL    HW132193   6.915   0.948  10.133 -1.0631  0.5171  1.1337
42867SOL    HW232194   6.993   1.061  10.197 -0.4992 -0.1914  1.7165
42868SOL     OW32195   2.505   9.203  11.037  0.0524  0.2994 -0.1458
42868SOL    HW132196   2.548   9.274  11.085 -0.5287  0.5542  0.0003
42868SOL    HW232197   2.457   9.155  11.104  2.0036 -1.4416  0.1069
42869SOL     OW32198   8.813   6.261   2.808  0.0834 -0.2880  0.3161
42869SOL    HW132199   8.864   6.335   2.776  0.6718  0.4959  2.8655
42869SOL    HW232200   8.879   6.194   2.828 -0.0440  0.0039  1.7781
42870SOL     OW32201   2.935   2.784   2.263 -0.0205 -0.2112  0.0317
42870SOL    HW132202   2.965   2.696   2.240  0.8603  0.0524  0.1265
42870SOL    HW232203   2.998   2.814   2.329  0.2839  0.8643 -0.7167
42871SOL     OW32204   8.556  10.980   7.510  0.3085  0.3640 -0.2143
42871SOL    HW132205   8.624  10.952   7.571  0.5146  1.6609  0.1922
42871SOL    HW232206   8.593  11.057   7.466 -1.2985  1.8187  0.8598
42872SOL     OW32207   0.603   1.592   1.855  0.0989  0.4052  0.9764
42872SOL    HW132208   0.525   1.578   1.802  1.1815  0.2827 -0.6460
42872SOL    HW232209   0.602   1.521   1.919  2.1620 -3.8235 -3.0708
42873SOL     OW32210   7.762   5.751   3.426  0.8645 -0.0382  0.0983
42873SOL    HW132211   7.796   5.808   3.494  1.3659  0.2802 -0.4103
42873SOL    HW232212   7.799   5.786   3.344  0.1573 -0.3241 -0.3503
42874SOL     OW32213   8.631   7.253   1.264 -0.2534  0.1580 -0.7687
42874SOL    HW132214   8.563   7.320   1.262  0.2899  0.7655  0.3517
42874SOL    HW232215   8.697   7.287   1.325  0.1478 -1.2871 -0.3612
42875SOL     OW32216   7.793   2.427   8.022 -0.3582  0.1120  0.0117
42875SOL    HW132217   7.748   2.500   7.980 -0.0271 -0.8013 -2.0758
42875SOL    HW232218   7.797   2.359   7.954  1.4135 -0.9777  1.1161
42876SOL     OW32219  10.621   8.452   5.865  0.0736 -0.3333 -0.2311
42876SOL    HW132220  10.579   8.374   5.830 -0.7578 -0.2547  0.5562
42876SOL    HW232221  10.603   8.449   5.959 -0.4215  1.0685 -0.2600
42877SOL     OW32222   2.278  11.079   1.603 -0.3993 -0.4594  0.7634
42877SOL    HW132223   2.260  10.996   1.647  0.0040 -0.9548  0.0073
42877SOL    HW232224   2.192  11.110   1.575 -0.4829 -0.9476  0.4696
42878SOL     OW32225   9.606   6.404   3.713 -0.0537  1.2028 -0.6021
42878SOL    HW132226   9.572   6.371   3.796  0.5431  0.5468 -0.6068
42878SOL    HW232227   9.532   6.401   3.654 -0.0169 -0.2066 -0.6100
42879SOL     OW32228   3.738   9.015   7.852  0.1241 -0.5680  0.2201
42879SOL    HW132229   3.662   8.971   7.889  0.4041  0.7194  2.4960
42879SOL    HW232230   3.809   8.951   7.862 -0.0278 -0.6261  0.9596
42880SOL     OW32231   3.744   5.300   0.405  0.2966  0.3424 -0.5568
42880SOL    HW132232   3.824   5.350   0.394  1.0524 -0.6766  0.2048
42880SOL    HW232233   3.680   5.364   0.437  0.7817  1.1632 -1.1782
42881SOL     OW32234   0.373   3.665   9.428  0.5550 -0.1193  0.2772
42881SOL    HW132235   0.361   3.702   9.515 -0.0686  1.4069 -0.4129
42881SOL    HW232236   0.463   3.688   9.404  1.4851 -2.3718  1.2879
42882SOL     OW32237   4.152   4.673   0.379  0.4727  0.9910 -0.1040
42882SOL    HW132238   4.244   4.650   0.389  0.4355  0.2365 -1.3858
42882SOL    HW232239   4.143   4.701   0.288 -0.5596  1.1079  0.0131
42883SOL     OW32240   7.176   9.226   9.019  0.5632 -0.4839  0.4633
42883SOL    HW132241   7.179   9.264   9.107 -1.1142 -0.7945  0.6864
42883SOL    HW232242   7.103   9.270   8.977  1.4000 -0.2897 -0.8179
42884SOL     OW32243  10.852   3.268   0.341 -0.2784 -0.3976 -0.3783
42884SOL    HW132244  10.877   3.200   0.404 -0.4116  0.0594  0.1703
42884SOL    HW232245  10.874   3.350   0.384 -0.7052 -0.0672 -0.7816
42885SOL     OW32246   4.051   5.664   3.392  0.0807 -0.4776 -0.1211
42885SOL    HW132247   4.091   5.578   3.377 -1.4146 -0.8906 -2.2023
42885SOL    HW232248   4.109   5.725   3.347  0.8191 -0.4397  0.8468
42886SOL     OW32249  10.686   6.732  10.196 -0.5157 -0.1745  0.0223
42886SOL    HW132250  10.701   6.804  10.258  0.0800 -0.9931  0.8595
42886SOL    HW232251  10.773   6.699  10.177 -0.7923 -0.7403 -0.2738
42887SOL     OW32252   8.250   4.565   8.973  0.2156 -0.2483  0.6245
42887SOL    HW132253   8.248   4.590   9.065  0.3172  1.7237  0.1423
42887SOL    HW232254   8.309   4.629   8.932  1.4412 -2.0477 -0.5598
42888SOL     OW32255   5.395   0.953   1.442 -0.1890 -0.7502  0.0955
42888SOL    HW132256   5.383   0.910   1.357 -1.9196  0.5697 -0.3821
42888SOL    HW232257   5.405   1.046   1.421  0.1923 -0.5045  1.2920
42889SOL     OW32258   1.447   0.316   6.563  0.3476 -0.0206 -0.2341
42889SOL    HW132259   1.539   0.313   6.591 -0.2141  2.8046  2.5249
42889SOL    HW232260   1.404   0.368   6.631 -2.9975  0.1985 -2.3245
42890SOL     OW32261   8.561   9.896   6.162 -0.1196  0.1212 -0.4283
42890SOL    HW132262   8.569   9.826   6.227 -0.8896 -1.1470 -1.6248
42890SOL    HW232263   8.522   9.969   6.210  0.2669 -0.4340  0.7585
42891SOL     OW32264  10.306   0.197   2.829  0.3779  0.3949 -0.0981
42891SOL    HW132265  10.391   0.153   2.826 -0.4049 -1.3519  1.2485
42891SOL    HW232266  10.246   0.136   2.787 -0.6508  0.3496  1.3526
42892SOL     OW32267   8.696   2.747  10.792 -0.6189  0.0810  0.5598
42892SOL    HW132268   8.614   2.788  10.817 -0.5233  1.2276 -0.8525
42892SOL    HW232269   8.683   2.722  10.700  0.2364 -0.7387  0.6421
42893SOL     OW32270   5.998   3.397   6.085  0.1101 -0.3472 -0.3733
42893SOL    HW132271   5.915   3.351   6.084  0.4157 -0.9536  0.8146
42893SOL    HW232272   5.993   3.457   6.010 -2.8823  2.2944  1.6711
42894SOL     OW32273   8.626   9.711   1.745 -0.3404 -0.5052 -0.0810
42894SOL    HW132274   8.634   9.802   1.774  0.3412 -0.0073 -1.7087
42894SOL    HW232275   8.563   9.714   1.673  1.4600 -0.8926 -1.7491
42895SOL     OW32276   5.229   5.614   3.251 -0.3829  0.1105  0.0560
42895SOL    HW132277   5.174   5.565   3.312 -1.0639  0.0344 -0.5964
42895SOL    HW232278   5.249   5.551   3.181 -0.6347  0.5343 -0.4080
42896SOL     OW32279   0.562   5.958   6.739 -0.1640  0.4364 -0.1752
42896SOL    HW132280   0.519   5.896   6.798  2.3938 -1.2955  0.0217
42896SOL    HW232281   0.647   5.975   6.780 -0.2713  3.1069 -0.9105
42897SOL     OW32282   9.447   4.237   7.841 -0.0282  0.3406 -0.5448
42897SOL    HW132283   9.478   4.277   7.923  0.3444 -0.0503 -0.4907
42897SOL    HW232284   9.448   4.143   7.858 -0.0961  0.2646 -0.9491
42898SOL     OW32285   8.716   1.396   8.693 -0.8764  0.2176 -0.0326
42898SOL    HW132286   8.806   1.419   8.714 -1.0958  0.5633  0.5306
42898SOL    HW232287   8.709   1.303   8.715 -0.3226 -0.1242 -1.2121
42899SOL     OW32288   7.312   2.686   2.867  0.1873  0.0351 -0.0790
42899SOL    HW132289   7.310   2.683   2.962  0.7922 -0.8419 -0.0899
42899SOL    HW232290   7.255   2.614   2.839 -1.5989  1.4767 -0.4151
42900SOL     OW32291   5.714  10.830   3.222  0.0229  0.1230 -0.4932
42900SOL    HW132292   5.759  10.899   3.174  1.7335 -0.2313  0.5505
42900SOL    HW232293   5.782  10.768   3.246 -1.2499 -1.2011 -0.1215
42901SOL     OW32294  10.562  10.266   8.485 -0.1827 -0.8636  0.0850
42901SOL    HW132295  10.542  10.173   8.494  1.1412 -1.2795 -0.8339
42901SOL    HW232296  10.639  10.268   8.428  0.9349  0.6976  1.5430
42902SOL     OW32297   3.384   4.662   4.109 -0.3336  0.2184 -0.2261
42902SOL    HW132298   3.361   4.642   4.200 -1.5828  2.1542 -0.0446
42902SOL    HW232299   3.305   4.640   4.059 -0.3419  0.9485 -0.5510
42903SOL     OW32300   3.961   3.155   8.187  0.6526  0.4535 -0.2378
42903SOL    HW132301   3.912   3.087   8.233  2.3079 -1.0059 -0.4851
42903SOL    HW232302   3.998   3.209   8.256 -0.6708  1.1370 -0.0359
42904SOL     OW32303   7.777   5.220  10.254 -0.1041  0.6644  0.3319
42904SOL    HW132304   7.737   5.171  10.182 -4.1150  0.6554  2.3053
42904SOL    HW232305   7.821   5.293  10.211 -0.4074 -0.5480 -2.2297
42905SOL     OW32306   6.363   1.471   4.671 -0.9791  0.8018 -0.1487
42905SOL    HW132307   6.437   1.506   4.720 -0.7743 -0.3003  0.3677
42905SOL    HW232308   6.371   1.510   4.584 -0.6759  1.8778  0.3481
42906SOL     OW32309   0.556   7.488   3.961 -0.0934 -0.5161  0.4244
42906SOL    HW132310   0.642   7.450   3.944  0.1795  0.1228  0.3381
42906SOL    HW232311   0.574   7.571   4.006 -0.6619 -0.4081  0.4670
42907SOL     OW32312   0.234   7.903   7.058 -0.1591 -0.1813  0.1127
42907SOL    HW132313   0.227   7.872   7.148 -1.8737 -0.3917 -0.0567
42907SOL    HW232314   0.268   7.992   7.066 -0.0686 -0.2820  0.9460
42908SOL     OW32315   4.254   9.436   4.802 -0.1516 -0.7181 -0.4239
42908SOL    HW132316   4.230   9.508   4.860  0.5869  0.6401 -1.7262
42908SOL    HW232317   4.237   9.469   4.714  1.1298 -1.7606 -1.1133
42909SOL     OW32318  10.192  11.092   1.948  0.0682  0.2973  0.0241
42909SOL    HW132319  10.135  11.167   1.967  0.5306  0.5473  0.4523
42909SOL    HW232320  10.244  11.080   2.028 -0.1601 -0.6265  0.0400
42910SOL     OW32321   7.713   5.798   8.148 -0.0176 -0.0764  0.2022
42910SOL    HW132322   7.617   5.802   8.152  0.0075  1.2696  0.0808
42910SOL    HW232323   7.742   5.835   8.231  0.4124 -1.4672  0.6903
42911SOL     OW32324   6.235   3.012   4.854 -0.5686 -0.2307 -0.2394
42911SOL    HW132325   6.226   3.024   4.949 -0.8587  0.6955 -0.3759
42911SOL    HW232326   6.323   2.977   4.843 -0.6271 -0.6091  0.3903
42912SOL     OW32327   9.865   5.237   7.844 -0.2333 -1.2915  0.0467
42912SOL    HW132328   9.788   5.227   7.900  0.4386 -1.3697  0.9835
42912SOL    HW232329   9.902   5.322   7.868 -0.5675 -0.8162 -1.0922
42913SOL     OW32330   8.820  10.104   6.345  0.3474 -0.2782  0.3700
42913SOL    HW132331   8.801  10.114   6.252 -1.6526 -1.9203  0.5232
42913SOL    HW232332   8.756  10.161   6.389  0.7507 -0.1185  0.7568
42914SOL     OW32333   3.185   7.545   7.128  0.0858  0.0342  0.1491
42914SOL    HW132334   3.128   7.534   7.203 -1.8138 -2.3435 -1.5042
42914SOL    HW232335   3.248   7.473   7.134  0.4813  0.3524 -0.0851
42915SOL     OW32336   4.312   3.064   8.063 -0.4951  0.1696  0.0803
42915SOL    HW132337   4.277   3.043   7.976  0.6275 -0.5341 -0.2186
42915SOL    HW232338   4.236   3.099   8.111 -1.3005 -0.1067 -0.9424
42916SOL     OW32339   1.142   6.939   8.291 -0.5367  0.3649  0.5507
42916SOL    HW132340   1.092   7.014   8.324 -0.4892  0.4803  0.3614
42916SOL    HW232341   1.230   6.973   8.276 -1.0234  0.8133 -1.5250
42917SOL     OW32342   1.933   7.657  10.837 -0.5457  0.3577  0.3727
42917SOL    HW132343   1.867   7.641  10.769 -1.0673 -1.4237  1.2480
42917SOL    HW232344   1.995   7.718  10.796 -1.1486 -0.2198 -1.4973
42918SOL     OW32345   1.314   7.612   3.900 -0.3574 -0.4954  0.2940
42918SOL    HW132346   1.275   7.626   3.814 -0.0075  0.4738  0.2739
42918SOL    HW232347   1.395   7.565   3.883  0.9870  1.8234 -0.2214
42919SOL     OW32348   0.401   1.902   9.836  0.2327  0.2128 -0.2601
42919SOL    HW132349   0.415   1.812   9.863  0.5200  0.4100  0.2711
42919SOL    HW232350   0.376   1.896   9.744 -0.2469 -0.4411 -0.0933
42920SOL     OW32351   7.581   1.551   1.899 -0.5036  0.2448  0.6217
42920SOL    HW132352   7.661   1.589   1.934 -2.0186  1.1385  3.3623
42920SOL    HW232353   7.569   1.593   1.814  1.9944 -0.0884  0.0490
42921SOL     OW32354   2.595   3.183   8.664 -0.1591 -0.2211 -0.0397
42921SOL    HW132355   2.664   3.222   8.717 -1.1243  0.9325  0.4079
42921SOL    HW232356   2.619   3.090   8.658  0.9323 -0.0189  0.8577
42922SOL     OW32357   9.242   5.166  10.787  0.5327  0.9781 -0.3688
42922SOL    HW132358   9.170   5.188  10.728  0.5087  1.5903 -0.1229
42922SOL    HW232359   9.318   5.157  10.729 -0.2197 -2.5135 -1.0145
42923SOL     OW32360   6.053   9.872   8.497  0.0777  0.1647 -0.4037
42923SOL    HW132361   6.091   9.794   8.538 -1.1838 -0.7155 -0.8553
42923SOL    HW232362   6.009   9.918   8.568 -1.7015 -1.1095 -0.6268
42924SOL     OW32363   8.194   8.107   9.005 -0.2295 -0.2744  0.5934
42924SOL    HW132364   8.128   8.072   8.946 -0.4359  0.8610  0.1208
42924SOL    HW232365   8.277   8.094   8.958 -0.3415  0.1785  0.2666
42925SOL     OW32366   8.835   0.929   7.969  1.1165 -0.1026 -0.0699
42925SOL    HW132367   8.846   1.019   7.936 -0.7602 -0.7096 -2.6481
42925SOL    HW232368   8.918   0.886   7.948  2.2588  1.0660  1.6906
42926SOL     OW32369   9.936   4.461  10.072 -0.2425  0.0927 -0.3216
42926SOL    HW132370  10.025   4.493  10.085  0.1570 -0.2829 -1.9146
42926SOL    HW232371   9.880   4.534  10.101  0.5945  0.8451 -0.5576
42927SOL     OW32372   7.777   2.581   1.626 -0.3432 -0.1747  0.4934
42927SOL    HW132373   7.807   2.530   1.550 -0.2276  0.5453  0.0489
42927SOL    HW232374   7.683   2.565   1.630 -0.6687  1.1861 -0.8982
42928SOL     OW32375  10.613   2.463   9.966  0.3673 -0.3235 -0.3119
42928SOL    HW132376  10.611   2.430   9.877  0.1263 -0.4871 -0.2466
42928SOL    HW232377  10.644   2.388  10.018  0.2604 -0.3077 -0.2256
42929SOL     OW32378   6.972   0.250   1.128 -0.6641 -0.8193 -0.4057
42929SOL    HW132379   6.918   0.190   1.078 -2.1493  1.4318 -1.6699
42929SOL    HW232380   7.061   0.232   1.099 -1.1156 -2.1112 -1.0529
42930SOL     OW32381   0.608   0.903   3.300  0.2498 -0.3699 -0.0708
42930SOL    HW132382   0.689   0.923   3.347 -0.1240  1.4605 -0.1341
42930SOL    HW232383   0.638   0.859   3.220  1.2326  0.7280 -0.3398
42931SOL     OW32384   6.872   5.807   5.960  0.2771  0.2347 -0.7159
42931SOL    HW132385   6.825   5.887   5.936  0.3698  0.7454  0.6510
42931SOL    HW232386   6.955   5.814   5.913  0.7974  1.6002  0.3143
42932SOL     OW32387   2.466   3.724   0.250 -0.2738 -0.0813  0.2461
42932SOL    HW132388   2.508   3.800   0.212  0.1072 -0.1304  0.5501
42932SOL    HW232389   2.384   3.714   0.202 -1.1077  1.4716  1.2579
42933SOL     OW32390   1.890   6.937   1.173 -0.6157  0.1038 -0.1310
42933SOL    HW132391   1.959   7.002   1.187 -0.7414  0.2880 -0.3552
42933SOL    HW232392   1.809   6.988   1.170 -0.9303 -0.2415  1.4976
42934SOL     OW32393   2.398  10.046   8.895  0.4885  0.1865 -0.2573
42934SOL    HW132394   2.480  10.093   8.911 -0.6156  1.7439  1.1548
42934SOL    HW232395   2.373  10.011   8.980 -0.4133 -0.1092 -0.6314
42935SOL     OW32396   5.645  10.848   4.171 -0.0034  0.7177 -0.3787
42935SOL    HW132397   5.734  10.883   4.174  0.5186 -0.6206  1.2576
42935SOL    HW232398   5.645  10.790   4.095  0.1637  1.5849 -1.0551
42936SOL     OW32399   9.489   0.814   1.604 -0.1679  0.2684  0.2105
42936SOL    HW132400   9.454   0.873   1.671 -0.2211 -0.0221  0.4405
42936SOL    HW232401   9.423   0.814   1.535 -0.5050 -0.0719  0.5263
42937SOL     OW32402   6.720   4.086   9.632 -0.1103  0.3802  0.0965
42937SOL    HW132403   6.728   4.038   9.550 -0.5985 -0.6269  0.6239
42937SOL    HW232404   6.626   4.099   9.644 -0.0912 -0.0412  0.7979
42938SOL     OW32405   1.751  10.642   9.990  0.3164  0.2039 -0.4542
42938SOL    HW132406   1.822  10.598   9.943 -1.5728 -1.9706 -1.4249
42938SOL    HW232407   1.740  10.591  10.070  0.5114  1.1729  0.2058
42939SOL     OW32408   4.765   0.966   0.719 -0.5038 -0.1699  0.2042
42939SOL    HW132409   4.701   0.954   0.649  1.1523  0.7855 -1.5896
42939SOL    HW232410   4.798   0.877   0.736 -1.8421 -0.5899  0.7539
42940SOL     OW32411   5.775   7.666   1.232  0.3304 -0.0984  0.0429
42940SOL    HW132412   5.700   7.670   1.290 -1.0347 -1.1826 -1.5597
42940SOL    HW232413   5.750   7.603   1.164  2.5439 -0.2282 -0.7449
42941SOL     OW32414   3.206   2.264   5.386 -0.0096  0.5210  0.8169
42941SOL    HW132415   3.185   2.296   5.299  0.5571  1.7068  1.0889
42941SOL    HW232416   3.122   2.239   5.424 -0.2279 -0.2914 -0.1578
42942SOL     OW32417   9.406   0.271   9.263 -0.3750  0.0345  0.2403
42942SOL    HW132418   9.430   0.354   9.221 -0.5293  0.1653  0.4071
42942SOL    HW232419   9.478   0.212   9.241 -0.3982  0.1337 -0.1098
42943SOL     OW32420   8.134  11.108   0.791  0.0182  0.1363  0.0242
42943SOL    HW132421   8.100  11.197   0.790 -0.0008  0.1572 -2.1914
42943SOL    HW232422   8.163  11.092   0.701  1.4856 -1.5530  0.7269
42944SOL     OW32423   5.034  10.872  10.383 -0.1642  0.0000 -0.2873
42944SOL    HW132424   5.016  10.891  10.475  1.8245  2.0200 -0.2605
42944SOL    HW232425   5.085  10.791  10.385  0.9234  0.6797  0.5153
42945SOL     OW32426   9.399   4.015   6.089  0.6423 -0.0793 -0.2297
42945SOL    HW132427   9.416   4.101   6.125 -0.6031 -0.1486  0.5618
42945SOL    HW232428   9.310   4.020   6.054  0.7270 -0.9052 -0.5955
42946SOL     OW32429   5.816   6.832   7.848  0.0415  0.0216 -0.3514
42946SOL    HW132430   5.849   6.906   7.898 -3.0870  1.3239  0.0573
42946SOL    HW232431   5.770   6.778   7.912 -1.7175  0.2887 -1.3169
42947SOL     OW32432   7.805   1.282   0.951 -0.0353  0.5057 -0.1647
42947SOL    HW132433   7.826   1.256   0.861  0.5481 -0.5678  0.2516
42947SOL    HW232434   7.889   1.311   0.987 -0.2540  0.8713  0.0508
42948SOL     OW32435   3.554   9.309  10.342 -0.3496 -0.1001 -0.9871
42948SOL    HW132436   3.537   9.295  10.248 -0.6708  0.0491 -0.9560
42948SOL    HW232437   3.606   9.389  10.345  0.4883 -0.6381 -1.0924
42949SOL     OW32438   1.941   0.891   4.666  0.1878 -0.1063 -0.7882
42949SOL    HW132439   1.964   0.972   4.621 -0.1918  0.0097 -0.7745
42949SOL    HW232440   1.918   0.830   4.596  2.0220 -0.7144 -0.9089
42950SOL     OW32441   3.413   3.533  10.513  0.0835 -0.2057 -0.1057
42950SOL    HW132442   3.474   3.468  10.476  0.7579  1.4230 -2.0249
42950SOL    HW232443   3.396   3.593  10.441 -1.2635  1.2337  1.3472
42951SOL     OW32444   0.195   0.035   5.089  0.0474 -0.3850 -0.7700
42951SOL    HW132445   0.194   0.027   5.184 -1.1415  2.0137 -0.5142
42951SOL    HW232446   0.287   0.023   5.065  0.2700 -1.6956  0.5751
42952SOL     OW32447   7.891   3.045   6.919  0.5783  0.3542 -0.2076
42952SOL    HW132448   7.798   3.059   6.900  0.8926  1.5981 -0.9541
42952SOL    HW232449   7.930   3.028   6.833  0.9638 -0.8115  0.1683
42953SOL     OW32450   4.483   8.850   8.611 -0.0602 -0.3005 -0.2025
42953SOL    HW132451   4.546   8.880   8.677 -0.7257 -1.8183  1.1932
42953SOL    HW232452   4.532   8.850   8.529  0.8124  1.6010  0.2577
42954SOL     OW32453   7.113   6.173   8.627  0.3150 -0.1192 -0.2321
42954SOL    HW132454   7.184   6.166   8.564 -1.5109 -0.3569 -2.3786
42954SOL    HW232455   7.157   6.191   8.710  2.8552 -0.2872 -1.4328
42955SOL     OW32456   0.013   2.696   5.714  0.0882  0.2516  0.3167
42955SOL    HW132457   0.074   2.641   5.764  0.5797 -0.4802 -1.0351
42955SOL    HW232458   0.048   2.694   5.624 -2.4917 -1.0460 -0.7525
42956SOL     OW32459   6.532   7.870   3.378  0.2349 -0.5214  0.0355
42956SOL    HW132460   6.622   7.843   3.359 -0.8007 -2.0950 -3.3880
42956SOL    HW232461   6.539   7.963   3.399  2.6287 -0.5810 -0.2124
42957SOL     OW32462   9.724   6.762   6.050  0.1644  0.1889  0.6761
42957SOL    HW132463   9.749   6.790   6.139  1.3874  0.7137  0.1974
42957SOL    HW232464   9.668   6.686   6.064  0.2854  0.2943  1.9070
42958SOL     OW32465   7.101   1.555   5.559  0.1257  0.0548  0.7596
42958SOL    HW132466   7.140   1.471   5.582 -1.4963 -1.0151 -0.2139
42958SOL    HW232467   7.163   1.593   5.496  0.1616 -1.1167  0.0489
42959SOL     OW32468   2.922   2.983   7.480  0.0505 -0.2095  0.1054
42959SOL    HW132469   2.839   2.969   7.527  0.4884  0.9547  1.3161
42959SOL    HW232470   2.923   3.078   7.464  1.1090 -0.2277  0.0371
42960SOL     OW32471   7.072   9.361   5.632 -0.4025  0.2991 -0.1741
42960SOL    HW132472   7.149   9.317   5.670  0.0708  1.0659 -0.2328
42960SOL    HW232473   7.108   9.418   5.565 -1.1613 -0.3550 -1.1594
42961SOL     OW32474   1.276   6.810   1.398 -0.0431  0.1011  0.5023
42961SOL    HW132475   1.219   6.818   1.322  0.1442 -0.8709  0.2380
42961SOL    HW232476   1.359   6.848   1.369  0.2107 -0.8048 -0.0022
42962SOL     OW32477  10.839   4.551   5.176 -0.3857 -0.2217  0.3105
42962SOL    HW132478  10.788   4.632   5.182 -1.1819 -0.6928  0.0341
42962SOL    HW232479  10.818   4.504   5.257 -0.2387 -0.3423  0.2782
42963SOL     OW32480   3.193   9.843   4.564  0.3722  0.1351 -0.5810
42963SOL    HW132481   3.246   9.803   4.633 -0.2918 -1.3056 -0.8657
42963SOL    HW232482   3.221   9.934   4.562  1.7180 -0.2307  0.3237
42964SOL     OW32483   0.557   3.771   2.990  0.1806 -0.0487 -0.0681
42964SOL    HW132484   0.515   3.853   3.014  0.3467  0.5783 -1.7442
42964SOL    HW232485   0.492   3.704   3.009 -0.7666  0.6960 -0.6060
42965SOL     OW32486   6.501   8.908   8.663  0.5038  0.3808 -0.1211
42965SOL    HW132487   6.523   8.959   8.585 -0.9332  1.6142  0.2335
42965SOL    HW232488   6.563   8.938   8.730  1.4274 -0.3388 -0.6300
42966SOL     OW32489   6.050   2.790   4.311 -0.8670  0.0766  0.1983
42966SOL    HW132490   6.085   2.864   4.261  1.5606 -0.7085  0.5664
42966SOL    HW232491   5.960   2.815   4.331 -0.5259  2.3701 -0.7359
42967SOL     OW32492   5.412   0.222   2.412  0.1578 -0.1668 -0.2146
42967SOL    HW132493   5.487   0.282   2.416  0.3838 -0.4281 -0.5206
42967SOL    HW232494   5.428   0.160   2.484  0.5313 -0.5617 -0.6305
42968SOL     OW32495   9.106   4.226   8.067 -0.1218 -0.2917 -0.1913
42968SOL    HW132496   9.152   4.298   8.024 -2.6199  1.8084  0.3921
42968SOL    HW232497   9.116   4.243   8.160 -3.0646  1.0940 -0.0086
42969SOL     OW32498   2.778   7.071   7.066 -0.1083 -0.1041  0.1929
42969SOL    HW132499   2.714   7.017   7.021  0.1388  1.1580 -1.7788
42969SOL    HW232500   2.744   7.160   7.060  1.4238  0.4916 -0.1980
42970SOL     OW32501   6.531   8.096   0.283 -0.1614  0.3707 -0.2781
42970SOL    HW132502   6.570   8.100   0.195  0.5148 -1.3445 -0.0805
42970SOL    HW232503   6.604   8.081   0.342 -0.6240  1.4303  0.6118
42971SOL     OW32504   6.034   9.379   3.013 -0.7477 -0.9611  0.4266
42971SOL    HW132505   6.111   9.330   2.987 -0.1409 -0.4646  1.2347
42971SOL    HW232506   5.978   9.381   2.935 -0.0501 -1.5208 -0.0908
42972SOL     OW32507   8.805   4.811   7.265  0.0762  0.5877  0.6101
42972SOL    HW132508   8.731   4.847   7.217  1.3118  0.2400 -1.7176
42972SOL    HW232509   8.873   4.800   7.199  1.8736 -0.0641  2.4566
42973SOL     OW32510  10.773   1.704   5.399 -0.2436 -0.2214 -0.2347
42973SOL    HW132511  10.705   1.714   5.466  1.8990 -0.1913  2.0556
42973SOL    HW232512  10.741   1.755   5.325 -2.3161  0.4713  1.0559
42974SOL     OW32513   7.929   2.387  10.316 -0.0238  0.1915 -0.0664
42974SOL    HW132514   7.999   2.447  10.340  0.8506 -0.9675  0.3804
42974SOL    HW232515   7.946   2.366  10.224 -0.6997  1.0886 -0.4118
42975SOL     OW32516   0.153   2.844   4.901 -0.8866 -0.5297  0.3112
42975SOL    HW132517   0.178   2.871   4.989 -1.4131 -1.9246  0.9227
42975SOL    HW232518   0.078   2.899   4.879 -0.6188 -0.0291  0.6290
42976SOL     OW32519   3.778   0.274   2.998 -0.3050  0.1526  0.0896
42976SOL    HW132520   3.817   0.224   3.069 -1.0699 -0.1110  0.3330
42976SOL    HW232521   3.834   0.255   2.922  0.1612 -0.0458  0.4825
42977SOL     OW32522   9.832   1.509   9.154 -0.2639  0.2975 -0.0169
42977SOL    HW132523   9.865   1.575   9.093  0.2804 -0.5716 -0.6818
42977SOL    HW232524   9.783   1.559   9.219 -0.0158  1.3375 -0.6094
42978SOL     OW32525   9.400   2.534   0.518  0.5995 -0.0285  0.4252
42978SOL    HW132526   9.415   2.624   0.548 -1.1799 -0.1603  1.8386
42978SOL    HW232527   9.317   2.538   0.470  1.4320 -0.6063 -1.1616
42979SOL     OW32528   2.460   9.846  10.368  0.0566  0.3995  0.7522
42979SOL    HW132529   2.441   9.753  10.384  0.8731 -0.0172 -0.5181
42979SOL    HW232530   2.556   9.850  10.362 -0.0317  0.8521 -1.5848
42980SOL     OW32531  10.352   8.803   8.025 -0.2245  0.0344 -0.0900
42980SOL    HW132532  10.268   8.780   8.066 -0.9057  0.6922 -1.0678
42980SOL    HW232533  10.382   8.723   7.984 -0.6236 -0.0831 -0.1552
42981SOL     OW32534   8.399   3.655   6.916 -0.0584 -0.6740 -0.4107
42981SOL    HW132535   8.361   3.736   6.881 -0.4444 -0.6129  0.1368
42981SOL    HW232536   8.482   3.645   6.869 -0.7943 -0.8702 -1.7292
42982SOL     OW32537   8.030   1.680   8.925 -0.0488 -0.3018  0.1482
42982SOL    HW132538   8.114   1.678   8.970  0.7552 -0.7562 -1.3243
42982SOL    HW232539   8.052   1.677   8.832 -1.6367  1.1822 -0.3276
42983SOL     OW32540   9.731   7.930   9.533 -0.0771  0.2316  0.0558
42983SOL    HW132541   9.713   7.860   9.596  0.1035  0.4979  0.4146
42983SOL    HW232542   9.788   7.991   9.581 -3.1552  2.5837  1.1004
42984SOL     OW32543  10.296   4.744   9.365  0.1483  0.1538  0.2767
42984SOL    HW132544  10.357   4.811   9.336  1.6780 -2.0240 -1.9642
42984SOL    HW232545  10.211   4.773   9.332  0.7777  1.0184 -0.6495
42985SOL     OW32546   4.567   4.512   2.052 -0.3495 -0.1145 -0.0736
42985SOL    HW132547   4.584   4.421   2.027  0.0726 -0.2075  0.5249
42985SOL    HW232548   4.518   4.549   1.978  1.1939 -0.2636 -1.2242
42986SOL     OW32549   1.855   3.607   4.900  0.5609 -0.6224  0.1126
42986SOL    HW132550   1.852   3.630   4.992 -1.3192 -0.8477  0.1476
42986SOL    HW232551   1.808   3.524   4.894  0.6612 -0.6216 -1.0423
42987SOL     OW32552   0.425  10.509   5.180 -0.4582  0.0699  0.2231
42987SOL    HW132553   0.409  10.417   5.158 -1.2856  0.6886 -2.1212
42987SOL    HW232554   0.348  10.555   5.145  1.7245  2.0686 -2.3336
42988SOL     OW32555   4.071   0.009   2.924  0.3445 -0.3378  0.4806
42988SOL    HW132556   4.024  -0.070   2.898 -2.7201  0.7918  2.0676
42988SOL    HW232557   4.132  -0.020   2.992  0.5221 -1.5463 -0.1661
42989SOL     OW32558   1.875  10.084   3.701  0.5110  0.1733 -0.3076
42989SOL    HW132559   1.887  10.016   3.635  0.8431  0.1165 -0.1924
42989SOL    HW232560   1.919  10.050   3.779  2.1811  1.2431 -0.7382
42990SOL     OW32561   5.911   2.758   9.689 -0.2968 -0.2354 -0.6711
42990SOL    HW132562   5.874   2.782   9.604  0.2675  0.2767 -0.7796
42990SOL    HW232563   5.985   2.702   9.669  0.1057  0.2433 -0.5425
42991SOL     OW32564   7.753   3.275   0.952 -0.4466  0.0902 -0.3102
42991SOL    HW132565   7.741   3.188   0.914 -3.5939  0.0073  0.6030
42991SOL    HW232566   7.787   3.257   1.040  2.2867  0.0724 -1.2559
42992SOL     OW32567   4.573   4.354  11.001  0.2716  0.4319 -0.0362
42992SOL    HW132568   4.656   4.318  10.970  0.2914 -1.6846  2.1613
42992SOL    HW232569   4.553   4.303  11.080 -1.6199  2.9182  1.2133
42993SOL     OW32570   1.284   2.983   1.468  0.7973 -0.1184  0.1202
42993SOL    HW132571   1.235   3.028   1.537  1.2813  0.3868  0.1418
42993SOL    HW232572   1.230   2.907   1.446 -1.5207  1.9392 -1.8814
42994SOL     OW32573   8.721   1.586   2.283 -0.1226  0.2665 -0.6986
42994SOL    HW132574   8.708   1.508   2.230 -0.2791  0.6960 -1.3126
42994SOL    HW232575   8.815   1.603   2.280  0.2832 -1.2222  1.3923
42995SOL     OW32576  10.434   4.393   5.735  0.3983 -0.5326  0.0735
42995SOL    HW132577  10.407   4.439   5.814  1.2950  0.9244 -0.4485
42995SOL    HW232578  10.386   4.310   5.739 -0.7562  0.1558  1.3518
42996SOL     OW32579  10.864   2.996   8.800 -0.6392  0.0025  0.0491
42996SOL    HW132580  10.843   3.090   8.807  0.2276  0.2248 -0.1488
42996SOL    HW232581  10.960   2.993   8.801 -0.5080 -0.5713 -3.1904
42997SOL     OW32582   4.102   5.747   3.063  0.7580  0.5837  0.3083
42997SOL    HW132583   4.133   5.790   2.983  0.5452  0.0987 -0.0401
42997SOL    HW232584   4.181   5.733   3.114  0.6460  3.0788  1.2949
42998SOL     OW32585   1.420   5.881   8.029 -0.1111  0.3355  0.1839
42998SOL    HW132586   1.479   5.841   8.094 -0.1968 -0.3932 -0.1672
42998SOL    HW232587   1.416   5.816   7.959  0.1865  1.2275 -0.6773
42999SOL     OW32588   2.706   7.957   3.713 -0.1138 -0.2552  0.3268
42999SOL    HW132589   2.749   7.974   3.797 -2.5800 -0.3564  1.6968
42999SOL    HW232590   2.669   7.870   3.722 -0.1720 -0.3981 -1.0230
43000SOL     OW32591   2.008  10.300   2.815 -0.3937  0.0382  0.9333
43000SOL    HW132592   2.036  10.258   2.896 -1.9071 -0.2093  1.3677
43000SOL    HW232593   1.956  10.375   2.843 -4.4893 -2.3143  0.4351
43001SOL     OW32594   6.591   0.800   4.691  0.3168 -0.1594  0.7193
43001SOL    HW132595   6.555   0.875   4.645 -0.3946  0.1224  1.6958
43001SOL    HW232596   6.657   0.837   4.749  0.8686 -0.4511  0.2816
43002SOL     OW32597   9.860   7.554   1.222 -0.2284  0.5651  0.5431
43002SOL    HW132598   9.874   7.647   1.204 -0.2498  0.5592  0.4935
43002SOL    HW232599   9.770   7.537   1.194  0.1973  0.2314 -0.7252
43003SOL     OW32600  11.094   9.672   6.517 -0.0733 -0.7419  0.0376
43003SOL    HW132601  11.134   9.743   6.567 -0.3694 -1.9943  2.1975
43003SOL    HW232602  11.012   9.654   6.562 -1.6238 -0.2825 -2.4676
43004SOL     OW32603   7.116   2.521   9.628 -0.4281 -0.0162  0.0866
43004SOL    HW132604   7.194   2.482   9.666 -0.3777 -2.0173 -1.8265
43004SOL    HW232605   7.138   2.613   9.615  0.6969 -0.0156  1.7416
43005SOL     OW32606   3.159   0.880   9.149  0.0774 -0.2539 -0.1342
43005SOL    HW132607   3.187   0.805   9.097  0.1558 -1.1163  1.0975
43005SOL    HW232608   3.237   0.935   9.156 -0.6013  1.3004 -3.1549
43006SOL     OW32609   4.433   8.173   0.920 -0.1627  0.2732 -0.0996
43006SOL    HW132610   4.345   8.200   0.892 -0.1557  0.2114 -0.1819
43006SOL    HW232611   4.490   8.244   0.892  0.2548 -0.9389 -2.6858
43007SOL     OW32612   6.450   4.679   0.651  0.4068 -0.0185  0.2263
43007SOL    HW132613   6.378   4.741   0.660  0.3961  0.1984 -1.2371
43007SOL    HW232614   6.444   4.625   0.730 -2.6938 -1.3683 -0.7463
43008SOL     OW32615   1.198   5.058   2.706  0.0922 -0.2880 -0.1353
43008SOL    HW132616   1.207   5.085   2.798  2.6042 -2.1850  0.2714
43008SOL    HW232617   1.121   5.000   2.706  0.2189 -0.4762  0.8339
43009SOL     OW32618   9.619   3.555   7.363 -0.1032  0.0974  0.0503
43009SOL    HW132619   9.526   3.535   7.357 -0.3518  1.6321 -2.5814
43009SOL    HW232620   9.654   3.538   7.276  1.8361  0.7705  0.6293
43010SOL     OW32621   3.352   4.106   5.991  0.1245  0.1744  0.0705
43010SOL    HW132622   3.323   4.125   6.080 -1.4888 -0.1798 -0.3351
43010SOL    HW232623   3.291   4.155   5.935 -0.8547 -1.9484 -0.8666
43011SOL     OW32624   1.070   0.303   6.519  0.5208  0.4665 -0.5763
43011SOL    HW132625   0.989   0.270   6.558  1.5955  1.3129  2.6774
43011SOL    HW232626   1.046   0.387   6.479 -0.3055  0.4748 -0.0673
43012SOL     OW32627   7.329   1.552   7.092 -0.5919  0.1324 -0.0080
43012SOL    HW132628   7.375   1.610   7.031 -1.7759  0.6722 -0.4155
43012SOL    HW232629   7.251   1.524   7.044 -0.8757 -0.4898  0.7893
43013SOL     OW32630   1.852   6.867   0.211 -0.1217 -0.0512  0.0759
43013SOL    HW132631   1.851   6.951   0.256  0.3989  0.4171 -0.7567
43013SOL    HW232632   1.765   6.859   0.172 -0.4779 -0.3285  0.8970
43014SOL     OW32633   9.269  10.024   5.602  0.2740 -0.1900 -0.1163
43014SOL    HW132634   9.198  10.080   5.570 -0.0411 -0.3882  0.2347
43014SOL    HW232635   9.301  10.067   5.681 -0.2276 -0.7075  0.3709
43015SOL     OW32636  10.756   9.795  10.545 -0.2105 -0.0115 -0.1595
43015SOL    HW132637  10.692   9.866  10.553  0.5995  0.7759 -0.5108
43015SOL    HW232638  10.727   9.729  10.609 -0.5629  0.9597  0.7064
43016SOL     OW32639   6.716   0.078   7.495 -0.2280 -0.1074 -0.1817
43016SOL    HW132640   6.668   0.159   7.483 -0.7065 -0.3611 -0.0005
43016SOL    HW232641   6.669   0.032   7.564 -0.2970 -0.8046 -0.6841
43017SOL     OW32642   1.291   7.427   5.737  0.4880  0.1977 -0.5797
43017SOL    HW132643   1.375   7.474   5.741  0.1856  0.7136 -0.1457
43017SOL    HW232644   1.232   7.479   5.792  0.2363 -0.8640  0.1857
43018SOL     OW32645  10.513   7.799   9.790 -0.2544 -0.0808 -0.2980
43018SOL    HW132646  10.566   7.787   9.869  0.1843  0.9884 -0.4065
43018SOL    HW232647  10.570   7.774   9.718  0.0176  0.7569 -0.3921
43019SOL     OW32648   2.400   6.266   2.625 -0.0513 -0.3005  0.3937
43019SOL    HW132649   2.450   6.337   2.664  0.1943 -0.8681  1.1418
43019SOL    HW232650   2.466   6.208   2.586 -0.1867 -0.5662  0.5528
43020SOL     OW32651   7.394   5.364   5.374 -0.2011  0.4510 -0.0904
43020SOL    HW132652   7.318   5.383   5.319 -1.1690 -1.5424  0.4623
43020SOL    HW232653   7.372   5.282   5.417  1.7927  0.4380  1.0073
43021SOL     OW32654   1.118   7.100   9.399  0.4124 -0.3421  0.4222
43021SOL    HW132655   1.213   7.096   9.401  0.6370  1.2973 -2.1890
43021SOL    HW232656   1.098   7.191   9.377 -1.7009 -0.9370 -0.4397
43022SOL     OW32657   6.809   9.807   1.803  0.0179 -0.1890  0.1865
43022SOL    HW132658   6.798   9.720   1.765 -0.3276 -0.1397  0.1752
43022SOL    HW232659   6.797   9.794   1.897  1.8082 -0.4843  0.4189
43023SOL     OW32660   6.082  10.074   1.006 -0.0191 -0.3005  0.4472
43023SOL    HW132661   6.048  10.162   0.990 -1.0697 -1.0367 -1.5640
43023SOL    HW232662   6.144  10.059   0.935 -0.6523 -1.5818  0.1407
43024SOL     OW32663   8.318   0.766   9.292  0.9360 -0.0197  0.1742
43024SOL    HW132664   8.331   0.671   9.284 -1.1438 -0.3418  0.1401
43024SOL    HW232665   8.283   0.778   9.380  1.6825  0.8132  0.3772
43025SOL     OW32666   6.063  10.679   7.203  0.2804  0.2003 -0.3919
43025SOL    HW132667   6.016  10.606   7.163  1.2857 -1.0213  0.5748
43025SOL    HW232668   6.019  10.693   7.287  0.6465  0.1107 -0.1844
43026SOL     OW32669   6.780  10.071   3.289  0.5079 -0.1376  0.3883
43026SOL    HW132670   6.787  10.077   3.194 -1.0120 -1.1300  0.1857
43026SOL    HW232671   6.687  10.080   3.308  0.6071 -1.2703  1.6566
43027SOL     OW32672   5.651   2.305   1.699  0.2343  0.7779  0.1153
43027SOL    HW132673   5.594   2.364   1.652 -2.2675 -0.9600  0.7645
43027SOL    HW232674   5.629   2.318   1.791  0.3322 -0.4405  0.3322
43028SOL     OW32675   9.426   8.504   5.987 -0.4644 -0.1455 -0.0157
43028SOL    HW132676   9.468   8.438   6.043  1.6620  0.4462 -0.8168
43028SOL    HW232677   9.423   8.464   5.900 -0.2618  0.3478 -0.2547
43029SOL     OW32678   7.782   2.585   4.877  0.1183 -0.1341 -0.3075
43029SOL    HW132679   7.745   2.664   4.837  1.1722  0.5720  0.0530
43029SOL    HW232680   7.752   2.588   4.967  0.1699 -0.1314 -0.2901
43030SOL     OW32681   6.981   9.432   8.983  0.2313  0.4668 -0.1828
43030SOL    HW132682   7.050   9.456   8.922  0.2268 -1.4368 -1.0017
43030SOL    HW232683   6.904   9.481   8.952  0.0658 -0.9019 -2.1519
43031SOL     OW32684   8.619   4.836   9.792  0.1851  0.4157 -0.0065
43031SOL    HW132685   8.554   4.899   9.826  2.9317  4.6120 -1.6682
43031SOL    HW232686   8.636   4.866   9.703  4.3477 -0.3871  0.3232
43032SOL     OW32687   6.583   6.372   4.093  0.4242 -0.2692 -0.7385
43032SOL    HW132688   6.601   6.297   4.037 -1.3446 -1.3771  0.0752
43032SOL    HW232689   6.487   6.378   4.094  0.2953 -0.7947  2.6578
43033SOL     OW32690   3.919   0.142   0.985 -0.2757 -0.8409 -0.1881
43033SOL    HW132691   3.867   0.111   1.059  0.4505  0.8730  1.1084
43033SOL    HW232692   3.999   0.089   0.988 -0.4233 -1.0539  0.0109
43034SOL     OW32693   7.210   3.868   7.732  0.3561 -0.5999 -0.7031
43034SOL    HW132694   7.173   3.783   7.755 -1.1995  0.1249 -0.3772
43034SOL    HW232695   7.224   3.864   7.637 -0.0360 -1.0988 -0.7413
43035SOL     OW32696   0.110   3.112  10.689  0.0979  0.1954  0.2912
43035SOL    HW132697   0.091   3.060  10.767 -0.2712 -0.0127  0.0671
43035SOL    HW232698   0.132   3.048  10.621  1.7678  0.4391  0.5679
43036SOL     OW32699  10.076   9.539   8.922 -0.2823  0.0037  0.8775
43036SOL    HW132700  10.067   9.449   8.954 -0.6214 -0.8721 -1.4551
43036SOL    HW232701  10.167   9.561   8.938 -0.0131 -1.0369  0.8577
43037SOL     OW32702   8.198   0.466   1.861 -0.3972 -0.4285  0.3844
43037SOL    HW132703   8.162   0.527   1.926  2.0654  0.5188  0.9921
43037SOL    HW232704   8.270   0.422   1.906  0.1396 -1.1942 -1.1284
43038SOL     OW32705   8.353   9.434   3.949 -0.3204  0.8552 -0.0896
43038SOL    HW132706   8.349   9.346   3.987 -0.1172 -0.8040 -3.5234
43038SOL    HW232707   8.445   9.444   3.922  0.1267  2.9964  1.8741
43039SOL     OW32708   8.589   5.120   0.239 -0.0454  0.0313 -0.4603
43039SOL    HW132709   8.615   5.032   0.214  2.2419  0.5705 -0.2026
43039SOL    HW232710   8.581   5.116   0.335  2.3193  0.5714 -0.1813
43040SOL     OW32711   6.254   4.151   6.590  0.4070 -0.4945  0.3889
43040SOL    HW132712   6.218   4.232   6.554  1.7673 -0.5500 -1.2180
43040SOL    HW232713   6.272   4.171   6.682 -0.6484  0.5279  0.3941
43041SOL     OW32714   9.904   4.985   3.955  0.6029 -0.8687  0.1064
43041SOL    HW132715   9.908   5.053   3.888  1.6372 -1.5838 -0.5853
43041SOL    HW232716   9.967   4.919   3.926  0.1135 -1.8071  1.1097
43042SOL     OW32717   8.833   4.272   7.163  0.0609  0.1067 -0.3474
43042SOL    HW132718   8.852   4.328   7.087 -1.1693  0.3267 -0.5065
43042SOL    HW232719   8.841   4.331   7.238  1.0021 -0.0453 -0.3217
43043SOL     OW32720   1.944   4.313   3.094  0.8225  0.3193 -0.4004
43043SOL    HW132721   1.853   4.337   3.077 -0.0086 -0.0300  2.8566
43043SOL    HW232722   1.956   4.231   3.046 -0.7934  0.0385 -0.3906
43044SOL     OW32723   8.736   5.267   5.596 -0.1126  0.0210  0.5785
43044SOL    HW132724   8.737   5.175   5.621  1.5401  0.1221  1.0122
43044SOL    HW232725   8.822   5.283   5.556 -0.6385  1.2056 -0.1437
43045SOL     OW32726   1.534   9.985   3.153 -0.1122 -0.5400 -0.1619
43045SOL    HW132727   1.590  10.062   3.146 -0.1925 -0.1960  2.1471
43045SOL    HW232728   1.581   9.917   3.105  1.8564 -0.0322  0.9479
43046SOL     OW32729   3.865   4.065   1.861  0.0006  0.6788  0.0556
43046SOL    HW132730   3.895   4.100   1.778 -1.0805  1.2154 -0.1179
43046SOL    HW232731   3.869   3.970   1.850  2.2223  0.6829  0.2738
43047SOL     OW32732  10.505  10.316   9.004 -0.1806 -0.6783 -0.4203
43047SOL    HW132733  10.579  10.284   8.952 -1.3748 -2.7222 -0.9624
43047SOL    HW232734  10.430  10.314   8.945 -1.3899 -2.1298  1.0641
43048SOL     OW32735   0.177   1.129   3.269  0.6780 -0.0016 -0.1432
43048SOL    HW132736   0.108   1.191   3.294  0.7961 -0.4457  1.4041
43048SOL    HW232737   0.218   1.168   3.192 -1.4394  0.1669 -1.2842
43049SOL     OW32738   2.507   3.557   6.954  0.1417 -0.8399  0.8406
43049SOL    HW132739   2.572   3.495   6.988 -0.2614 -1.6850  0.0943
43049SOL    HW232740   2.515   3.551   6.859 -0.2681 -0.1197  0.7488
43050SOL     OW32741   5.533   0.385   6.788 -0.2756 -0.0585 -0.3156
43050SOL    HW132742   5.535   0.289   6.787 -0.6170 -0.0722  0.2495
43050SOL    HW232743   5.466   0.407   6.852  1.4574  0.5734  1.4054
43051SOL     OW32744   7.519   8.072   2.951  0.5336  0.2306  0.0756
43051SOL    HW132745   7.549   8.161   2.972 -0.6042  0.7918 -0.5568
43051SOL    HW232746   7.438   8.086   2.902 -0.4942 -1.1987  1.3026
43052SOL     OW32747  10.191   5.853   0.415 -0.2275 -0.0573 -0.3824
43052SOL    HW132748  10.169   5.925   0.475  0.3996 -0.5967  0.5148
43052SOL    HW232749  10.284   5.837   0.429 -0.3457 -1.0193 -0.6001
43053SOL     OW32750   3.113   4.432   0.473 -0.1577  0.2292 -0.1155
43053SOL    HW132751   3.196   4.465   0.507 -0.0884 -1.8770  2.0517
43053SOL    HW232752   3.052   4.441   0.546 -1.4380  0.2832 -1.1636
43054SOL     OW32753   1.805   6.868   6.848 -0.2702 -0.2161 -0.2457
43054SOL    HW132754   1.721   6.912   6.855 -0.2273 -0.3254  1.2874
43054SOL    HW232755   1.794   6.787   6.899  0.2715 -1.0081 -1.3519
43055SOL     OW32756   6.085   5.877   2.551  0.6190 -0.4229 -0.5064
43055SOL    HW132757   6.017   5.919   2.603  0.1898 -0.6399 -0.8897
43055SOL    HW232758   6.148   5.845   2.616 -1.0918 -2.8328  0.1058
43056SOL     OW32759   1.408   5.283   4.239  0.8654  0.2910 -0.3517
43056SOL    HW132760   1.487   5.230   4.229  0.5795  0.0820 -1.6756
43056SOL    HW232761   1.429   5.366   4.195  0.2225  0.0683 -1.1204
43057SOL     OW32762   5.351   6.395   4.230  0.4581  0.2424  0.6732
43057SOL    HW132763   5.385   6.341   4.159  1.5044  0.4619  0.9779
43057SOL    HW232764   5.428   6.442   4.263 -0.2799  1.2996  0.9472
43058SOL     OW32765   4.675   9.848   5.356 -0.3635  0.6651  0.1615
43058SOL    HW132766   4.719   9.763   5.361 -0.4118  0.5521 -1.0320
43058SOL    HW232767   4.745   9.910   5.335 -0.7317  0.4982 -1.6486
43059SOL     OW32768   2.978  10.182   8.343  0.0311  0.6235  0.1339
43059SOL    HW132769   2.907  10.210   8.401 -1.7665  2.1978 -2.5586
43059SOL    HW232770   2.940  10.109   8.293  0.3219  1.4113 -1.2714
43060SOL     OW32771   5.760   9.828   2.621 -0.1017 -0.1232 -0.5335
43060SOL    HW132772   5.740   9.851   2.711  0.2544 -0.0692 -0.4657
43060SOL    HW232773   5.841   9.778   2.626 -1.1093 -1.8449 -0.6249
43061SOL     OW32774   5.853   8.884  10.797 -0.4110 -0.5210  0.1225
43061SOL    HW132775   5.916   8.839  10.741 -0.3936  1.5800 -1.6793
43061SOL    HW232776   5.838   8.823  10.870  2.7410 -1.6182  0.0098
43062SOL     OW32777   1.046   6.150   2.523 -0.1906  0.1021  0.5539
43062SOL    HW132778   0.967   6.202   2.509  0.0448  0.3102 -0.0270
43062SOL    HW232779   1.014   6.067   2.559 -0.9590 -0.8254 -2.0479
43063SOL     OW32780   0.216   8.403   6.519 -0.1910  0.9758 -0.2722
43063SOL    HW132781   0.151   8.395   6.590 -0.3023  2.3826 -0.1933
43063SOL    HW232782   0.174   8.362   6.444  0.6790 -2.3670  0.8584
43064SOL     OW32783   9.742   1.075   9.900 -0.0026 -0.0266 -0.1564
43064SOL    HW132784   9.780   1.054   9.815  1.1974  0.6279  0.1951
43064SOL    HW232785   9.748   0.994   9.950 -1.6832 -0.7248 -1.0045
43065SOL     OW32786   2.632  10.450   2.752 -0.3125 -0.3784  0.3593
43065SOL    HW132787   2.609  10.424   2.842 -1.6127  0.7632  0.3916
43065SOL    HW232788   2.566  10.408   2.698  0.3210 -0.8556 -0.0563
43066SOL     OW32789   1.114   5.063   9.159 -0.5879 -0.5323  0.7426
43066SOL    HW132790   1.071   4.985   9.196  1.1414 -2.1974 -0.5281
43066SOL    HW232791   1.186   5.081   9.220 -0.9237  0.0545  0.9784
43067SOL     OW32792   1.127   2.806   4.231  0.6271  0.7442 -0.1378
43067SOL    HW132793   1.134   2.832   4.323  2.6810  0.6876 -0.2436
43067SOL    HW232794   1.186   2.865   4.185  2.3218 -1.4624 -0.9353
43068SOL     OW32795   0.136   5.145   8.002 -0.2890  0.1676 -0.6722
43068SOL    HW132796   0.051   5.129   8.044  0.2340  0.4595  0.5490
43068SOL    HW232797   0.134   5.237   7.977  0.0481  0.4650  0.3276
43069SOL     OW32798   6.236  10.066   0.339 -0.1153  0.1277  0.0539
43069SOL    HW132799   6.193  10.048   0.256  0.9894  0.6963 -0.6676
43069SOL    HW232800   6.276   9.983   0.364 -1.3093 -0.3170  0.5644
43070SOL     OW32801   9.207   8.442   6.396  0.4012 -0.1168  0.1964
43070SOL    HW132802   9.254   8.525   6.387  2.3798 -1.1857  0.1916
43070SOL    HW232803   9.218   8.419   6.489  1.3268 -1.1571 -0.1448
43071SOL     OW32804   8.690   7.647   3.640 -0.2594 -0.1265  0.1183
43071SOL    HW132805   8.683   7.567   3.588  1.0253 -0.1787  0.0044
43071SOL    HW232806   8.642   7.712   3.590  0.9398 -0.1811 -1.1489
43072SOL     OW32807   3.251   6.698  10.552 -0.5351  0.2684  0.2782
43072SOL    HW132808   3.211   6.784  10.563 -0.5564  0.3212 -0.1796
43072SOL    HW232809   3.234   6.676  10.461 -3.5332 -1.7243  1.1734
43073SOL     OW32810  10.859   1.285   2.519 -0.2745  0.1336 -0.3248
43073SOL    HW132811  10.857   1.193   2.545 -2.2993 -0.2074 -1.4914
43073SOL    HW232812  10.916   1.287   2.442  1.1046  0.1821  0.6600
43074SOL     OW32813   2.175   4.047   4.862 -0.4177 -0.3245  0.1898
43074SOL    HW132814   2.244   4.107   4.888 -0.4929 -0.3282  0.3980
43074SOL    HW232815   2.166   4.061   4.767  0.1661 -0.6436  0.0908
43075SOL     OW32816   1.805   9.952  10.569  0.2636  0.5903  0.0223
43075SOL    HW132817   1.788   9.923  10.659  0.0267 -0.5874 -0.3826
43075SOL    HW232818   1.793   9.873  10.516  0.5524  1.2360 -1.0293
43076SOL     OW32819   6.246   0.054   4.112  0.1167  0.4858  0.4760
43076SOL    HW132820   6.329   0.056   4.160 -0.2277  0.8057  1.0699
43076SOL    HW232821   6.182   0.090   4.173 -0.6992 -0.9029  0.4768
43077SOL     OW32822   0.283   7.990   4.701  0.1735 -0.6625 -0.3334
43077SOL    HW132823   0.355   8.013   4.760  0.7785 -0.5335 -1.1007
43077SOL    HW232824   0.234   7.922   4.747  0.5371 -0.4510  0.3797
43078SOL     OW32825   2.225   1.835   2.056 -0.5795  0.0134 -0.0678
43078SOL    HW132826   2.190   1.872   1.975  1.6526 -0.9911 -1.5990
43078SOL    HW232827   2.177   1.753   2.068 -0.6191 -0.0442 -0.6054
43079SOL     OW32828   3.259   8.633   0.332  0.3247 -0.0469  0.0361
43079SOL    HW132829   3.228   8.605   0.247 -1.3460  1.9307 -0.0838
43079SOL    HW232830   3.247   8.728   0.332  1.8645  0.2132  1.8658
43080SOL     OW32831   3.049   4.994   0.744  0.0429  0.6109  0.2124
43080SOL    HW132832   3.142   5.014   0.732  0.0330 -0.1095 -1.2491
43080SOL    HW232833   3.041   4.902   0.719 -0.7133  0.0226  2.4198
43081SOL     OW32834  10.943   7.170   4.846 -0.0021 -0.3087 -0.2978
43081SOL    HW132835  10.913   7.125   4.924  0.0132  0.7782  0.3600
43081SOL    HW232836  10.862   7.189   4.797 -0.2894  1.1535  0.6686
43082SOL     OW32837   2.035   0.160  10.572  0.2838  0.0305  0.0172
43082SOL    HW132838   2.064   0.245  10.607 -0.1413 -0.3274  1.2852
43082SOL    HW232839   1.941   0.169  10.562  0.1322 -0.5049  0.8329
43083SOL     OW32840   7.955   3.727   9.765  0.6011  0.1660 -0.1202
43083SOL    HW132841   7.940   3.703   9.857 -0.8050 -2.5568 -0.9590
43083SOL    HW232842   7.887   3.681   9.717  2.1566  0.3809 -2.7050
43084SOL     OW32843   8.348   0.119   9.445  0.4625  0.1587 -0.3294
43084SOL    HW132844   8.264   0.131   9.400  1.0916  0.1803 -1.5538
43084SOL    HW232845   8.395   0.054   9.392  0.0833 -2.1949  1.9918
43085SOL     OW32846   5.587   6.861   2.344 -0.3489  0.6112 -0.3742
43085SOL    HW132847   5.639   6.784   2.325 -1.3199 -0.3723  0.7961
43085SOL    HW232848   5.498   6.838   2.316 -0.4347  1.7845 -1.1800
43086SOL     OW32849   6.051   7.741   9.478  0.0275 -0.0613 -0.3495
43086SOL    HW132850   5.993   7.673   9.513  0.5660 -1.3207 -1.7524
43086SOL    HW232851   6.072   7.796   9.553  1.0293 -2.5221  1.3108
43087SOL     OW32852   4.771   4.003   5.321  0.1552  0.2625 -0.3448
43087SOL    HW132853   4.691   3.954   5.344 -0.7672  1.5982 -0.5581
43087SOL    HW232854   4.842   3.940   5.331 -0.7456 -0.5543  1.4137
43088SOL     OW32855   7.026   7.764   9.675 -0.4486  0.5023  0.2560
43088SOL    HW132856   6.968   7.715   9.616  0.9733  0.7655 -1.4683
43088SOL    HW232857   7.111   7.720   9.666  0.2027  1.6187  0.7879
43089SOL     OW32858  10.897  10.924   2.665 -0.0228 -0.3095  0.0114
43089SOL    HW132859  10.910  10.984   2.591  0.1642 -2.8752 -2.1768
43089SOL    HW232860  10.805  10.936   2.689  0.2356  1.4720  0.2692
43090SOL     OW32861  10.622   7.301  10.427  0.4252  0.3430  0.2765
43090SOL    HW132862  10.594   7.217  10.391  0.1827  0.7351 -0.4654
43090SOL    HW232863  10.664   7.278  10.510  0.7191 -0.5519 -0.0974
43091SOL     OW32864   2.348   9.713   1.404  0.0066 -0.3052  0.1814
43091SOL    HW132865   2.358   9.697   1.311  0.1757  0.1367  0.1220
43091SOL    HW232866   2.437   9.715   1.439  0.0150  0.7161  0.1439
43092SOL     OW32867  10.466  10.723   4.318  0.8153 -0.2127 -0.1673
43092SOL    HW132868  10.525  10.736   4.393 -0.0952 -0.9544  0.7061
43092SOL    HW232869  10.478  10.802   4.265  0.2031  1.1925  1.6530
43093SOL     OW32870   9.995   1.226   3.989  0.3025  0.1416  0.5774
43093SOL    HW132871   9.934   1.298   3.999  1.5050  1.5008 -1.1924
43093SOL    HW232872   9.948   1.160   3.939 -0.0753  0.7052  0.1857
43094SOL     OW32873   3.394   5.476  10.726 -0.4193 -0.4021  0.1615
43094SOL    HW132874   3.460   5.424  10.772 -0.3321 -1.2667 -0.8991
43094SOL    HW232875   3.444   5.527  10.662 -0.8245 -1.8139 -1.3440
43095SOL     OW32876   1.211   8.817   9.022  0.3060  0.5316  0.5374
43095SOL    HW132877   1.161   8.739   9.047  0.8017  0.3305  0.9328
43095SOL    HW232878   1.211   8.871   9.101 -0.3954  1.1306  0.1347
43096SOL     OW32879   3.550   5.479   0.515 -0.3441 -0.0724  0.4043
43096SOL    HW132880   3.617   5.544   0.494  0.1192 -0.4294  0.7387
43096SOL    HW232881   3.472   5.508   0.469  1.0659 -1.8384 -3.5348
43097SOL     OW32882   4.717   2.845   4.586 -0.2924  0.2676 -0.1437
43097SOL    HW132883   4.791   2.849   4.646  0.9175 -0.9594 -1.4795
43097SOL    HW232884   4.688   2.754   4.588 -1.0561  0.4893 -0.4629
43098SOL     OW32885   3.777   3.006  10.909 -0.0010 -0.1020  0.4624
43098SOL    HW132886   3.726   3.085  10.927 -0.5261 -0.1394 -0.7524
43098SOL    HW232887   3.865   3.038  10.888  0.3103  0.0098  1.8151
43099SOL     OW32888   4.438   0.905   8.315  0.1649 -0.0067 -0.1318
43099SOL    HW132889   4.528   0.872   8.315  0.0145 -0.6342 -3.0586
43099SOL    HW232890   4.446   0.996   8.288 -0.0966 -0.0828 -0.4580
43100SOL     OW32891   8.764   4.139   2.600  0.1384 -0.0240  0.0345
43100SOL    HW132892   8.713   4.112   2.524  0.2096  3.3330 -1.3701
43100SOL    HW232893   8.823   4.065   2.617 -0.5239 -1.2583 -2.5798
43101SOL     OW32894   7.311   8.810  10.941 -0.5569 -0.2842 -0.4510
43101SOL    HW132895   7.395   8.809  10.895 -0.4392  0.6238 -0.2746
43101SOL    HW232896   7.276   8.897  10.925 -0.9556 -0.2778  0.3956
43102SOL     OW32897   6.911   6.230   5.232 -0.3591 -0.6611 -0.0920
43102SOL    HW132898   6.873   6.175   5.163 -0.9690 -0.1394 -0.1792
43102SOL    HW232899   7.005   6.210   5.230 -0.1953  0.0812 -1.7604
43103SOL     OW32900   4.029   0.015   8.244 -0.3185 -0.2190  0.4749
43103SOL    HW132901   4.103  -0.009   8.299 -0.2741  0.6341  0.8009
43103SOL    HW232902   3.952   0.006   8.301 -0.1831  1.6215  1.0300
43104SOL     OW32903   7.529   0.929   0.117 -0.2089  0.0543 -0.3572
43104SOL    HW132904   7.484   1.007   0.085  0.1586  0.8654  1.0185
43104SOL    HW232905   7.619   0.938   0.087 -0.3205 -0.1966 -0.7789
43105SOL     OW32906   2.552  10.493   9.077  0.2593  0.2810  0.4213
43105SOL    HW132907   2.562  10.534   9.163  0.3392  0.6169  0.2517
43105SOL    HW232908   2.617  10.536   9.022  1.6435 -1.3500  0.6970
43106SOL     OW32909   9.375   8.726   3.475 -0.3354 -0.1395  0.1839
43106SOL    HW132910   9.389   8.672   3.398 -0.5641  1.1721 -0.8180
43106SOL    HW232911   9.400   8.670   3.549  1.9480 -0.7437 -0.9462
43107SOL     OW32912   7.722  10.950   6.372  0.7713  0.0281 -0.1441
43107SOL    HW132913   7.794  10.940   6.434 -1.0659 -0.6456  1.9845
43107SOL    HW232914   7.664  11.015   6.412  0.2121  0.6686 -1.8795
43108SOL     OW32915   6.786   6.008   3.108 -0.1722 -0.5584 -0.3826
43108SOL    HW132916   6.817   5.999   3.198  0.1184  1.0561 -0.3014
43108SOL    HW232917   6.695   5.978   3.112 -0.1959 -0.4020  0.4694
43109SOL     OW32918   2.580   4.276   6.472 -0.1012 -0.0695 -0.2205
43109SOL    HW132919   2.520   4.267   6.398  1.7269 -2.3055 -1.5800
43109SOL    HW232920   2.550   4.210   6.535  0.2262 -0.4087 -0.4125
43110SOL     OW32921   1.646  10.981   8.329  0.4405 -0.4492  0.6172
43110SOL    HW132922   1.557  10.987   8.364  0.2973  0.9997  0.1028
43110SOL    HW232923   1.686  10.909   8.377  0.6773  2.1555  4.8774
43111SOL     OW32924   2.339   0.909   1.202 -0.4676  0.0882 -0.1869
43111SOL    HW132925   2.397   0.945   1.135  1.4514 -0.3752  1.1467
43111SOL    HW232926   2.352   0.965   1.278 -0.4095 -1.0643  0.6800
43112SOL     OW32927   2.049   7.493   4.875  0.1291 -0.0483  0.6306
43112SOL    HW132928   1.962   7.530   4.891  1.1709  1.8297  2.4046
43112SOL    HW232929   2.046   7.406   4.916 -0.9905 -0.1329  0.3916
43113SOL     OW32930   0.168   9.947   8.632 -1.0271  0.4101  0.6399
43113SOL    HW132931   0.161   9.904   8.546 -1.5137 -1.2811  1.4675
43113SOL    HW232932   0.248   9.998   8.627 -0.4642 -0.5261 -0.4566
43114SOL     OW32933   2.194   4.832   5.950  0.1046 -0.1502 -0.3622
43114SOL    HW132934   2.165   4.831   6.041 -1.1757 -0.5579 -0.7537
43114SOL    HW232935   2.160   4.913   5.914  2.1972  0.9592 -0.0388
43115SOL     OW32936   5.196   6.304   5.996  0.0822 -0.1849  0.1318
43115SOL    HW132937   5.291   6.307   6.003  0.2036 -0.4696 -1.1850
43115SOL    HW232938   5.175   6.211   5.998 -0.1019 -0.1541 -0.3543
43116SOL     OW32939   7.815  10.877  10.374  0.2247 -0.4271  0.1165
43116SOL    HW132940   7.813  10.784  10.399 -1.7604 -0.7110 -0.9160
43116SOL    HW232941   7.886  10.883  10.311  0.9968 -1.0374  0.9028
43117SOL     OW32942   6.599   7.194   2.151 -0.0557 -0.1119 -0.2355
43117SOL    HW132943   6.600   7.144   2.233 -1.2591 -1.6098 -1.0685
43117SOL    HW232944   6.508   7.223   2.143  0.4871  1.7495 -0.0903
43118SOL     OW32945   7.504   3.508   0.425 -0.9420 -0.4519 -0.2760
43118SOL    HW132946   7.416   3.512   0.388 -2.3047 -2.0624  2.4500
43118SOL    HW232947   7.518   3.595   0.462 -1.2329 -0.0739 -1.0359
43119SOL     OW32948   6.535   9.341   8.460  0.4607 -0.0956 -0.5452
43119SOL    HW132949   6.625   9.317   8.483  0.6897 -0.7836 -2.0437
43119SOL    HW232950   6.539   9.434   8.442  0.3272  0.4315  1.7520
43120SOL     OW32951  11.024   5.144   8.681  0.3865  0.0675  0.4470
43120SOL    HW132952  11.030   5.212   8.748  0.1745 -0.2722  0.8119
43120SOL    HW232953  10.972   5.184   8.611 -1.0529 -0.2424  1.3145
43121SOL     OW32954   2.298  10.636   8.481  0.0674 -0.3072 -0.0884
43121SOL    HW132955   2.325  10.726   8.464 -1.4967  0.2363  0.2088
43121SOL    HW232956   2.237  10.643   8.555  0.3466 -1.6766  0.2957
43122SOL     OW32957   8.896   9.828   3.683  0.0454  0.4665 -0.0225
43122SOL    HW132958   8.827   9.860   3.741  1.0744 -0.9415  2.1703
43122SOL    HW232959   8.869   9.739   3.661  0.8882  0.0650  0.4928
43123SOL     OW32960   6.401   1.901   7.674  0.7536  0.1172 -0.8132
43123SOL    HW132961   6.346   1.825   7.692  3.4954 -1.4886  1.6549
43123SOL    HW232962   6.368   1.970   7.732 -0.3030  0.1450 -1.4056
43124SOL     OW32963   2.716   9.187   6.079 -0.9163 -0.6534  0.2265
43124SOL    HW132964   2.785   9.185   6.012 -0.2830 -1.2272  0.8851
43124SOL    HW232965   2.658   9.258   6.052 -1.7738 -2.0907 -2.0197
43125SOL     OW32966   3.940   1.224   0.363  0.3624  0.2807 -0.9226
43125SOL    HW132967   3.883   1.161   0.408 -0.8862  0.8708 -1.6166
43125SOL    HW232968   3.905   1.309   0.386  1.3880  0.6930 -0.8451
43126SOL     OW32969   9.576   3.785   8.634  0.3578  0.1591 -0.2231
43126SOL    HW132970   9.593   3.772   8.540  1.2774  0.7961 -0.1575
43126SOL    HW232971   9.663   3.800   8.672  0.0100 -0.2663  0.7684
43127SOL     OW32972   9.504   3.289   5.698 -0.2461  0.4527 -0.0306
43127SOL    HW132973   9.411   3.315   5.702  0.1936  2.3488 -1.0621
43127SOL    HW232974   9.503   3.204   5.654 -1.4965  0.4518 -0.0514
43128SOL     OW32975   4.040   6.161   1.165  0.2175  0.1266 -0.1833
43128SOL    HW132976   4.048   6.244   1.118  0.2096  0.0476 -0.3237
43128SOL    HW232977   4.098   6.101   1.118  1.6732  0.5343  0.9927
43129SOL     OW32978   8.763   1.947   6.267 -0.4459 -0.5762  0.5561
43129SOL    HW132979   8.856   1.928   6.262 -0.6517 -2.3533  2.3078
43129SOL    HW232980   8.725   1.872   6.313 -2.9949 -0.6652 -1.4480
43130SOL     OW32981   0.304   2.052   7.293  0.2349  0.3948  0.2459
43130SOL    HW132982   0.308   2.011   7.207  1.1908 -1.0274  0.9209
43130SOL    HW232983   0.278   2.142   7.276 -0.8807 -0.1972 -1.4102
43131SOL     OW32984   4.222   0.536   2.919 -0.0851  0.2824  0.7845
43131SOL    HW132985   4.238   0.459   2.863 -1.1138  0.5275  0.1187
43131SOL    HW232986   4.126   0.544   2.921  0.0190  1.9068  0.3351
43132SOL     OW32987   0.006   6.957   1.223 -0.6628  0.2938  0.1769
43132SOL    HW132988  -0.014   6.983   1.134  0.8503  0.8596 -0.0246
43132SOL    HW232989   0.078   7.015   1.250  1.2794 -2.1083  0.5131
43133SOL     OW32990   9.231   8.989   8.473 -0.3111  0.7141 -0.2384
43133SOL    HW132991   9.136   9.001   8.470 -0.5321 -1.0796 -1.0128
43133SOL    HW232992   9.257   9.037   8.552 -1.8607  1.1286  0.0689
43134SOL     OW32993   9.746   7.608   4.557 -0.0233  0.2306 -0.5268
43134SOL    HW132994   9.667   7.554   4.562  0.4750 -0.4540  0.3549
43134SOL    HW232995   9.815   7.547   4.531  1.1166 -0.2788  3.1578
43135SOL     OW32996   0.866   0.596   2.181  0.0777  0.3854 -0.1449
43135SOL    HW132997   0.956   0.606   2.212  0.4899 -2.0556 -0.3587
43135SOL    HW232998   0.873   0.535   2.107 -1.8181 -0.3742  0.2500
43136SOL     OW32999   4.292   9.441   6.151  0.0980  0.1949  0.0064
43136SOL    HW133000   4.265   9.490   6.228  0.8256  0.0140  0.3859
43136SOL    HW233001   4.386   9.428   6.162  0.2746  0.4414 -1.0659
43137SOL     OW33002   3.056   2.014   5.503  0.7797  0.7207  0.5028
43137SOL    HW133003   3.128   1.953   5.510 -0.4179 -0.6803  1.1119
43137SOL    HW233004   3.036   2.040   5.593 -1.1904 -1.0694  0.6758
43138SOL     OW33005   0.952   2.562   1.450 -0.1380  0.2956 -0.0313
43138SOL    HW133006   0.953   2.640   1.394  1.0013 -0.6629 -1.3956
43138SOL    HW233007   0.998   2.590   1.529  1.7741  0.5848 -1.1762
43139SOL     OW33008   7.252   8.362   5.513 -0.0069  0.6343 -0.1177
43139SOL    HW133009   7.324   8.397   5.565  0.9725 -0.2543 -0.8351
43139SOL    HW233010   7.284   8.364   5.423 -0.2402 -1.2777 -0.2730
43140SOL     OW33011   8.879   1.450   5.405  0.1635 -0.1736 -0.8030
43140SOL    HW133012   8.827   1.460   5.325  0.2221 -2.0550 -1.1155
43140SOL    HW233013   8.815   1.434   5.474  0.2023 -0.0392 -0.7341
43141SOL     OW33014   6.511   0.501   2.177 -0.6530  0.5856 -0.5573
43141SOL    HW133015   6.488   0.528   2.088 -0.6327 -0.6009 -0.9369
43141SOL    HW233016   6.427   0.482   2.219 -0.5860 -0.6416 -0.9291
43142SOL     OW33017   4.671  10.904   5.708  0.2157 -0.1234  0.1380
43142SOL    HW133018   4.684  10.917   5.802 -0.2799  0.9788  0.0710
43142SOL    HW233019   4.655  10.810   5.698 -1.0279 -0.0682  1.3314
43143SOL     OW33020   2.996  10.779   4.794  0.2980 -0.2622  0.2899
43143SOL    HW133021   2.962  10.697   4.831  1.9925 -0.3836  1.7056
43143SOL    HW233022   3.091  10.767   4.792  0.5486  1.5250  0.1592
43144SOL     OW33023   2.484  10.768   8.918  0.0089 -0.3963  0.2290
43144SOL    HW133024   2.566  10.735   8.953 -0.7638 -1.6784  0.9207
43144SOL    HW233025   2.477  10.857   8.951  0.9838 -0.3721  0.3802
43145SOL     OW33026   2.895   6.623   8.363 -0.4132 -0.2012 -0.1244
43145SOL    HW133027   2.838   6.684   8.317 -1.3799 -1.5830 -0.8468
43145SOL    HW233028   2.842   6.591   8.437  0.1751  0.0240  0.4059
43146SOL     OW33029   8.546   1.425   0.607 -0.0781 -0.2297  0.3911
43146SOL    HW133030   8.519   1.498   0.551  0.5990 -0.0118  0.3364
43146SOL    HW233031   8.585   1.467   0.684 -0.5405 -0.5336  0.7909
43147SOL     OW33032   1.444   4.639   5.985 -0.2654  0.4002 -0.3092
43147SOL    HW133033   1.540   4.636   5.982 -0.2523  0.3206  0.1677
43147SOL    HW233034   1.418   4.549   5.964 -0.1670 -0.1966  1.8973
43148SOL     OW33035  10.528   9.024  11.002  0.3315 -0.2223  0.3937
43148SOL    HW133036  10.568   9.073  11.074  0.3232  0.2315  0.0996
43148SOL    HW233037  10.435   9.021  11.024  0.5525 -1.4877  1.1967
43149SOL     OW33038   9.047   0.552   4.586 -0.0224 -0.3468 -0.0820
43149SOL    HW133039   8.965   0.585   4.623  0.4645  0.0392  0.7016
43149SOL    HW233040   9.074   0.482   4.646 -0.7758 -1.8453 -1.4453
43150SOL     OW33041   8.402   6.206   8.409 -0.2315 -0.1489  0.2467
43150SOL    HW133042   8.398   6.154   8.329 -0.4568  0.0096  0.1538
43150SOL    HW233043   8.440   6.147   8.474  0.0239 -0.2541  0.0041
43151SOL     OW33044   7.658   3.688   7.002 -0.1190 -0.1647 -0.8689
43151SOL    HW133045   7.753   3.700   6.992  0.0052  0.7338  0.8978
43151SOL    HW233046   7.644   3.594   6.989  1.6085 -1.0272  2.3040
43152SOL     OW33047   0.838   2.641   4.572 -0.2619  0.4854 -0.1638
43152SOL    HW133048   0.919   2.615   4.528 -0.0680  0.0119  0.4610
43152SOL    HW233049   0.805   2.560   4.611 -0.9037  0.7243 -0.1951
43153SOL     OW33050   6.128  10.822  10.786 -0.1911 -0.0967  0.0173
43153SOL    HW133051   6.045  10.846  10.827  0.0746 -0.2187  0.6387
43153SOL    HW233052   6.168  10.905  10.762 -1.3011 -0.0789 -1.9540
43154SOL     OW33053   5.517   0.783   3.664  0.1697 -0.1196  0.1537
43154SOL    HW133054   5.478   0.802   3.750 -0.5529 -0.0812 -0.1780
43154SOL    HW233055   5.466   0.835   3.602  1.0896  0.3371 -0.2374
43155SOL     OW33056   4.609   8.585   4.353 -0.5253  0.6642 -0.2951
43155SOL    HW133057   4.542   8.516   4.349 -0.2849  0.3886  0.2549
43155SOL    HW233058   4.584   8.647   4.285 -1.0667  0.3146 -0.4212
43156SOL     OW33059   2.263   5.343   4.190  0.8126  0.2174  0.4282
43156SOL    HW133060   2.252   5.306   4.103 -0.1832  1.2186  0.1061
43156SOL    HW233061   2.258   5.267   4.249 -0.5122 -0.2566 -0.2531
43157SOL     OW33062   2.461   7.743   0.764 -0.0716 -0.7100  0.2061
43157SOL    HW133063   2.409   7.662   0.764 -1.9368  0.4230  1.2406
43157SOL    HW233064   2.500   7.745   0.676 -0.3325 -2.5007 -0.0001
43158SOL     OW33065   0.381  10.411   7.298 -0.2038 -0.7384  0.0083
43158SOL    HW133066   0.379  10.337   7.359 -1.9319 -0.1874  0.6790
43158SOL    HW233067   0.289  10.427   7.277  0.2230  0.5086 -1.0041
43159SOL     OW33068   7.436   9.146   8.409 -0.7821 -0.0724 -0.1852
43159SOL    HW133069   7.393   9.228   8.384  1.7102  1.0659 -1.0807
43159SOL    HW233070   7.459   9.158   8.501 -0.6687  0.1259 -0.2384
43160SOL     OW33071   0.836   5.485   3.976 -0.1674  0.7094 -0.4712
43160SOL    HW133072   0.793   5.420   4.032 -2.2447  2.3414 -0.0316
43160SOL    HW233073   0.874   5.433   3.905 -1.2344 -1.0442  0.1591
43161SOL     OW33074   4.274   9.004   6.793 -0.4927 -0.0444  0.1509
43161SOL    HW133075   4.181   9.020   6.776 -0.4015  0.8962  0.4571
43161SOL    HW233076   4.279   8.911   6.811 -1.2004 -0.3296 -1.0050
43162SOL     OW33077   6.578   4.949   6.580 -0.1656  0.4527  0.4040
43162SOL    HW133078   6.577   4.866   6.531 -0.3810  0.0718  1.0412
43162SOL    HW233079   6.489   4.983   6.571  0.3894  1.5499 -1.3918
43163SOL     OW33080   3.051   8.208   9.951  0.2222  0.6778  0.9731
43163SOL    HW133081   2.997   8.129   9.952 -1.5634  1.8231  1.9613
43163SOL    HW233082   2.987   8.280   9.949  1.7723  2.1229 -1.3882
43164SOL     OW33083   8.250   3.945   1.025  0.3431 -0.2544  0.4094
43164SOL    HW133084   8.330   3.958   0.973  0.8371 -1.8113  0.7329
43164SOL    HW233085   8.273   3.876   1.088 -1.2735 -0.7942  0.4527
43165SOL     OW33086   4.807   3.820   8.537  0.5433 -0.1821  0.2738
43165SOL    HW133087   4.775   3.910   8.544  0.6274  0.0637 -1.8741
43165SOL    HW233088   4.876   3.825   8.471  3.2301 -1.1863  2.7674
43166SOL     OW33089   2.771   1.025   9.832  0.3758  0.3847 -0.5219
43166SOL    HW133090   2.765   1.029   9.928 -0.1326  0.5306 -0.5578
43166SOL    HW233091   2.800   1.113   9.806 -1.7626  1.1032 -0.6548
43167SOL     OW33092   9.027   1.517   0.361  0.8820 -0.1567  0.1553
43167SOL    HW133093   9.070   1.499   0.445 -0.8398 -0.7176  0.9730
43167SOL    HW233094   9.053   1.443   0.305  1.0126 -0.4604  0.6080
43168SOL     OW33095   7.462   2.482  10.042 -0.3678 -0.1822 -0.0144
43168SOL    HW133096   7.490   2.412  10.101  0.9121 -0.9079 -1.4194
43168SOL    HW233097   7.539   2.538  10.034 -0.2301 -0.5692 -1.6437
43169SOL     OW33098   1.890   0.345   8.865 -0.1318  0.2633  0.2578
43169SOL    HW133099   1.878   0.270   8.806  0.4403  0.0156  0.4499
43169SOL    HW233100   1.895   0.421   8.807  0.3395  0.0315 -0.0121
43170SOL     OW33101  10.596  10.602   0.295  0.0449 -0.1445 -0.0911
43170SOL    HW133102  10.647  10.545   0.238 -0.1664  0.4744 -0.9137
43170SOL    HW233103  10.592  10.686   0.249 -0.5968  0.2049  0.5725
43171SOL     OW33104   5.992   3.605   2.867  0.2720 -0.1617  0.1445
43171SOL    HW133105   6.037   3.565   2.942  1.9663  1.5056  0.0923
43171SOL    HW233106   5.964   3.691   2.899 -1.3141 -0.4395 -0.4011
43172SOL     OW33107   0.970   5.661  10.960 -0.0153 -0.1360  0.2025
43172SOL    HW133108   0.941   5.600  10.892  0.5410 -0.1236 -0.0547
43172SOL    HW233109   0.894   5.717  10.977 -0.3601 -0.5541  0.0558
43173SOL     OW33110   6.056  10.350   0.919 -0.2087  0.4986 -0.3159
43173SOL    HW133111   6.058  10.347   0.823 -1.2652  1.3228 -0.3740
43173SOL    HW233112   5.981  10.405   0.940 -1.8074 -1.9817  1.0260
43174SOL     OW33113   9.995   1.656   4.724 -0.5639  0.5521 -0.5811
43174SOL    HW133114  10.014   1.666   4.630  0.7776  1.6374 -0.2310
43174SOL    HW233115   9.928   1.588   4.728 -0.2121  0.0575 -2.2892
43175SOL     OW33116   6.930   6.685   8.566  0.0789  0.2555 -0.4461
43175SOL    HW133117   6.940   6.645   8.480 -0.3952  0.8912 -0.8125
43175SOL    HW233118   6.936   6.613   8.627 -0.4127 -0.3282 -1.0659
43176SOL     OW33119  10.290   1.758   5.178 -0.5716 -0.2014 -0.1259
43176SOL    HW133120  10.337   1.798   5.105 -0.0008  2.3785  1.4869
43176SOL    HW233121  10.329   1.671   5.188  2.1253  0.8757 -0.4613
43177SOL     OW33122   5.474   9.745   0.342 -0.2323 -0.2353 -0.3420
43177SOL    HW133123   5.504   9.685   0.410  0.1669 -0.5693 -0.8026
43177SOL    HW233124   5.422   9.691   0.283 -1.9309  0.3822  0.5470
43178SOL     OW33125   9.293   1.181   3.038 -0.0228  0.4348  0.0077
43178SOL    HW133126   9.213   1.146   3.079 -1.0928  0.8650 -1.6340
43178SOL    HW233127   9.310   1.121   2.966 -0.4573  1.8661 -1.3276
43179SOL     OW33128   3.543   9.934   0.528  0.1963 -0.2584 -0.0097
43179SOL    HW133129   3.637   9.952   0.522  0.0244  1.1518  1.0233
43179SOL    HW233130   3.528   9.864   0.465  1.7325  0.3085 -1.0607
43180SOL     OW33131   7.846   4.367   0.746  0.4481 -0.1282  0.0388
43180SOL    HW133132   7.809   4.349   0.659  1.4287  0.4077 -0.5110
43180SOL    HW233133   7.907   4.296   0.761  1.6718  0.7612 -0.5589
43181SOL     OW33134  10.890   6.001   2.120  0.0428 -0.4688 -0.1455
43181SOL    HW133135  10.972   6.045   2.097  0.2126 -1.1252 -0.8571
43181SOL    HW233136  10.822   6.061   2.089  0.2507 -0.0961  0.1021
43182SOL     OW33137   5.379   1.829   9.700  0.4760  0.1019 -0.4228
43182SOL    HW133138   5.418   1.825   9.787  0.8910 -1.5159 -0.6486
43182SOL    HW233139   5.361   1.922   9.686 -1.3797  0.2545  2.1473
43183SOL     OW33140   4.959   2.184   7.254  0.0305  0.4139 -0.1784
43183SOL    HW133141   5.013   2.260   7.234 -1.1342  1.4261  0.4338
43183SOL    HW233142   4.981   2.162   7.345 -0.9417  1.1736  0.2641
43184SOL     OW33143  10.625   2.708   6.013 -0.5141  0.4131  0.0276
43184SOL    HW133144  10.614   2.777   6.078 -0.8907  0.0479  0.3539
43184SOL    HW233145  10.563   2.640   6.039 -0.8004  0.3433 -0.8166
43185SOL     OW33146   2.512   0.688   4.826  0.0010  0.0462 -0.0068
43185SOL    HW133147   2.486   0.614   4.881  1.5088  0.6346  1.5974
43185SOL    HW233148   2.431   0.719   4.786 -0.8868 -1.4393  0.5731
43186SOL     OW33149   5.019   6.356   6.875  0.2819 -0.4216  0.0647
43186SOL    HW133150   5.014   6.387   6.785 -1.5329 -2.8202 -0.7752
43186SOL    HW233151   4.962   6.279   6.877 -0.1025 -0.2153  3.3833
43187SOL     OW33152   9.142   7.737   3.793  0.2351 -0.1686  0.2745
43187SOL    HW133153   9.082   7.811   3.788  1.7353  1.1124  0.4277
43187SOL    HW233154   9.097   7.674   3.850 -0.2635  1.4574  1.7733
43188SOL     OW33155   0.875   2.716   0.872 -0.8253 -0.4106 -0.3719
43188SOL    HW133156   0.874   2.626   0.905  0.2352 -0.4792 -0.4927
43188SOL    HW233157   0.939   2.716   0.801  0.5293  0.8158  0.7789
43189SOL     OW33158   7.426   1.342   5.458  0.1219  0.1733  0.0679
43189SOL    HW133159   7.391   1.336   5.547 -1.8555 -1.2739 -0.7412
43189SOL    HW233160   7.475   1.261   5.446  1.4566  0.9249  0.2146
43190SOL     OW33161   4.424   1.349   1.202  0.3660  0.0587 -0.4370
43190SOL    HW133162   4.378   1.384   1.277  1.7299  1.3071 -0.1349
43190SOL    HW233163   4.364   1.284   1.165  0.2920 -1.8436  2.6675
43191SOL     OW33164   3.605   4.879   8.944  0.0249  0.3445 -0.2513
43191SOL    HW133165   3.629   4.823   8.871  0.6474  0.0075  0.1966
43191SOL    HW233166   3.661   4.849   9.016  2.6760  3.4277 -0.7445
43192SOL     OW33167  11.095   9.067   3.313 -0.2112  0.5531 -0.2637
43192SOL    HW133168  11.064   8.992   3.362 -1.1130  0.1551 -1.3945
43192SOL    HW233169  11.189   9.071   3.331 -0.6404  1.0205  2.2249
43193SOL     OW33170   3.972   4.770  10.949  0.1392 -0.2327  0.1464
43193SOL    HW133171   3.993   4.814  10.866 -2.6707  0.8986 -0.0674
43193SOL    HW233172   3.901   4.821  10.986 -0.2215 -2.0490  2.1605
43194SOL     OW33173   8.260   1.436   7.203 -0.2351  0.5607 -0.6270
43194SOL    HW133174   8.307   1.401   7.279 -0.8651  0.7769 -0.1224
43194SOL    HW233175   8.318   1.501   7.166  0.6687 -0.5230 -1.1674
43195SOL     OW33176   7.110   4.807   4.376  0.4686  0.5874  0.5851
43195SOL    HW133177   7.180   4.827   4.439  0.8776  1.9166 -0.2508
43195SOL    HW233178   7.153   4.751   4.311  0.4404  0.4130  0.7175
43196SOL     OW33179   2.961   1.671   8.577 -0.3757 -0.4436 -0.2696
43196SOL    HW133180   2.894   1.716   8.629  0.1096 -0.2832  0.2281
43196SOL    HW233181   2.920   1.588   8.552 -1.0688  0.0173 -0.7043
43197SOL     OW33182   0.275   2.291  10.397 -0.1309 -0.4634  0.1119
43197SOL    HW133183   0.349   2.351  10.400  0.6236 -1.1659 -2.0997
43197SOL    HW233184   0.313   2.205  10.413 -0.7138 -0.6639  0.4437
43198SOL     OW33185   7.930   8.313   1.079 -0.4360  0.3165 -0.5711
43198SOL    HW133186   8.006   8.288   1.027 -0.1485  2.3866 -1.2361
43198SOL    HW233187   7.855   8.276   1.032  0.0418 -0.5400 -0.6718
43199SOL     OW33188   2.814   6.172  10.601  0.5954 -0.1893 -0.4695
43199SOL    HW133189   2.720   6.157  10.585  0.6653 -0.6541 -0.4449
43199SOL    HW233190   2.857   6.093  10.568  1.0376  0.2862 -1.0643
43200SOL     OW33191   1.914   8.404   3.721 -0.4650  0.0764 -0.1898
43200SOL    HW133192   1.876   8.320   3.749 -1.7251  0.7107  0.0611
43200SOL    HW233193   1.987   8.419   3.781  0.0456 -1.0322 -0.5012
43201SOL     OW33194   2.233   3.857   2.624 -0.1146  0.0864  0.2249
43201SOL    HW133195   2.324   3.827   2.631 -0.2122 -0.7467 -1.4153
43201SOL    HW233196   2.190   3.789   2.571 -1.2903  1.2536 -0.3717
43202SOL     OW33197   3.700   8.411   4.492 -0.6234 -0.5182 -0.4508
43202SOL    HW133198   3.615   8.411   4.449 -0.8251  0.4170 -0.0789
43202SOL    HW233199   3.697   8.337   4.552 -1.8184  0.4811  0.7675
43203SOL     OW33200   9.858   6.209   1.457  0.7887 -0.3994 -0.2241
43203SOL    HW133201   9.786   6.273   1.463  0.5286 -0.7502  0.4747
43203SOL    HW233202   9.823   6.139   1.402 -0.1981 -1.5763  1.8113
43204SOL     OW33203   9.535   0.258   8.089  0.0617  0.5342  0.2090
43204SOL    HW133204   9.507   0.174   8.126  2.4506  0.2847  1.6584
43204SOL    HW233205   9.513   0.252   7.996 -0.8695 -1.2281  0.5001
43205SOL     OW33206   0.895   8.694   8.003 -0.2212 -0.4687  0.0257
43205SOL    HW133207   0.989   8.708   8.016 -0.2908 -1.6497  2.2340
43205SOL    HW233208   0.853   8.735   8.079 -1.4963 -0.1578 -0.8140
43206SOL     OW33209   9.317   8.785   1.619  0.2747  0.2013 -0.6311
43206SOL    HW133210   9.380   8.713   1.628 -0.4010 -0.8265 -3.1082
43206SOL    HW233211   9.275   8.791   1.705  2.6370 -0.0765  0.6439
43207SOL     OW33212   0.123   4.039   2.530  0.0911  0.1202 -0.2197
43207SOL    HW133213   0.070   4.058   2.453 -0.2093  0.1774 -0.0004
43207SOL    HW233214   0.152   4.124   2.562  0.0506  0.1094 -0.1536
43208SOL     OW33215   7.285  10.319   1.126 -0.3843  0.1469  0.0395
43208SOL    HW133216   7.302  10.409   1.153 -1.3577  0.5448 -0.6264
43208SOL    HW233217   7.243  10.327   1.040 -0.7249 -0.9324  0.0849
43209SOL     OW33218   7.335  10.956   1.209  0.1372  0.1201 -0.0994
43209SOL    HW133219   7.301  10.990   1.126  1.1531 -2.4493 -1.7273
43209SOL    HW233220   7.418  11.001   1.221  0.2871  0.0687 -0.8715
43210SOL     OW33221   3.027   4.325   1.945  0.3215 -0.3715 -0.2011
43210SOL    HW133222   3.063   4.237   1.942 -2.4573 -1.6194 -2.8220
43210SOL    HW233223   2.943   4.315   1.990  0.7516  1.3887  1.1294
43211SOL     OW33224   2.460   3.800   3.653  0.2402 -0.6285  1.2040
43211SOL    HW133225   2.422   3.717   3.682  2.0518 -1.3192  1.7711
43211SOL    HW233226   2.549   3.798   3.687  0.8428  0.8378 -0.1679
43212SOL     OW33227   4.359   8.006  11.010 -0.1127 -0.5894 -0.1095
43212SOL    HW133228   4.311   7.924  11.006 -1.8491  0.3613  0.1725
43212SOL    HW233229   4.382   8.024  10.919  1.5659 -2.0496 -0.0320
43213SOL     OW33230   4.183   8.101   8.971 -0.2655  0.0698 -0.6462
43213SOL    HW133231   4.172   8.189   9.007 -0.0063  0.2377 -0.9716
43213SOL    HW233232   4.277   8.083   8.982 -0.3864 -0.3150 -0.2388
43214SOL     OW33233   8.818   5.403   6.608 -0.3430 -0.5094 -0.0478
43214SOL    HW133234   8.895   5.365   6.649 -0.6145 -0.5108  0.4809
43214SOL    HW233235   8.777   5.455   6.678  0.2990  1.1861 -0.8827
43215SOL     OW33236   5.588   8.359   6.927 -0.2819 -0.3154 -0.0776
43215SOL    HW133237   5.620   8.337   6.840  0.5126  0.7103 -0.0741
43215SOL    HW233238   5.667   8.381   6.976 -0.8838  1.2058  0.2688
43216SOL     OW33239  10.515   3.549   5.586 -0.4015  0.0141  0.5314
43216SOL    HW133240  10.481   3.460   5.596 -0.6426  0.0295 -0.1067
43216SOL    HW233241  10.609   3.541   5.600 -0.7834  0.2374  4.0860
43217SOL     OW33242   1.021  10.629   9.788  0.1083 -0.4933 -0.0498
43217SOL    HW133243   1.018  10.571   9.864  2.0544 -0.4493  0.0977
43217SOL    HW233244   1.082  10.587   9.728  1.1167  1.1030 -0.1901
43218SOL     OW33245   1.227   3.110  10.981 -0.3599 -0.5754 -0.0492
43218SOL    HW133246   1.195   3.198  10.958  0.8416 -0.4209 -1.3017
43218SOL    HW233247   1.218   3.060  10.901  0.5499 -1.1014  0.1626
43219SOL     OW33248   9.538   5.906   1.364 -0.4709  0.4952 -0.6545
43219SOL    HW133249   9.497   5.990   1.387 -0.4241  0.5627 -0.8131
43219SOL    HW233250   9.631   5.922   1.374 -0.4645  0.4514 -0.6487
43220SOL     OW33251   2.012   9.485   7.657  0.3729  0.2606  0.5005
43220SOL    HW133252   2.105   9.501   7.644  0.6425 -1.5185  0.0582
43220SOL    HW233253   2.008   9.424   7.730 -0.5872  1.7394  1.7639
43221SOL     OW33254   8.642   3.148  10.312 -0.0223 -0.2971  0.6151
43221SOL    HW133255   8.666   3.207  10.383  0.6216  0.5628 -0.2878
43221SOL    HW233256   8.720   3.144  10.256 -0.2739 -1.5010  0.3036
43222SOL     OW33257   5.336   9.313   8.522  0.0395 -0.1427  0.0784
43222SOL    HW133258   5.330   9.393   8.574  1.4800  1.2681 -1.7733
43222SOL    HW233259   5.245   9.292   8.498 -0.3152  1.3746  0.0023
43223SOL     OW33260   9.553   0.868   2.973 -0.3998  0.5566  0.5175
43223SOL    HW133261   9.610   0.810   2.924  0.6552  0.0146  2.2747
43223SOL    HW233262   9.492   0.810   3.018 -1.7807  1.0779 -0.6077
43224SOL     OW33263   8.864   5.885   1.519  0.1981 -0.1436  0.3573
43224SOL    HW133264   8.805   5.827   1.471  1.5179 -0.3784 -1.0756
43224SOL    HW233265   8.950   5.866   1.482  0.7897  2.1199  0.4503
43225SOL     OW33266   2.028   7.638   8.732 -0.0948  0.1726 -0.2191
43225SOL    HW133267   1.974   7.669   8.805  0.5770  0.4196  0.1820
43225SOL    HW233268   2.107   7.691   8.736  0.6105 -0.8495 -0.1849
43226SOL     OW33269  10.456   9.072   8.099  0.1900 -0.0923  0.2202
43226SOL    HW133270  10.420   8.991   8.063 -0.3433  0.0658  0.3884
43226SOL    HW233271  10.402   9.142   8.062  1.9584  0.4004 -1.6469
43227SOL     OW33272   6.974   5.980  11.084 -0.4194  0.0753  0.0632
43227SOL    HW133273   7.002   6.058  11.036  0.0110  0.0925  0.3262
43227SOL    HW233274   6.949   6.013  11.170 -0.1948 -0.0796  0.1894
43228SOL     OW33275   0.820   0.955   5.583  1.0544  0.1500 -0.2706
43228SOL    HW133276   0.848   0.918   5.500 -0.1684 -0.9293 -0.2367
43228SOL    HW233277   0.732   0.920   5.597  1.2197  0.3053  1.4654
43229SOL     OW33278   5.891   8.461  11.095 -0.8969 -0.6823  0.0731
43229SOL    HW133279   5.949   8.433  11.165 -1.8170  0.1232  1.1919
43229SOL    HW233280   5.916   8.407  11.020  1.7926  0.1167  0.2791
43230SOL     OW33281   2.714   1.580   5.228  0.0146 -0.2436 -0.7608
43230SOL    HW133282   2.724   1.487   5.207 -1.3909 -0.4997 -0.4155
43230SOL    HW233283   2.800   1.607   5.259  0.6063 -1.2703 -1.4815
43231SOL     OW33284   7.760   4.827   0.100 -0.1095  0.1767  0.0663
43231SOL    HW133285   7.684   4.875   0.069  0.3514  0.5213 -0.5547
43231SOL    HW233286   7.726   4.769   0.169 -0.9706  0.1362 -0.3820
43232SOL     OW33287   2.027   9.424   8.367  0.2921 -0.3719 -0.2298
43232SOL    HW133288   2.051   9.363   8.297 -1.7981 -2.4829  0.7463
43232SOL    HW233289   1.934   9.443   8.351  0.2335  0.4855  0.9881
43233SOL     OW33290   2.418   6.259   1.872  0.3491  0.1051  0.3873
43233SOL    HW133291   2.388   6.179   1.915  0.3503  0.1747  0.5183
43233SOL    HW233292   2.338   6.308   1.854  0.3460  0.0622  0.2806
43234SOL     OW33293   4.198   2.693   1.192 -0.1920 -0.3984  0.2200
43234SOL    HW133294   4.277   2.709   1.243 -0.5933  1.2878  0.3556
43234SOL    HW233295   4.222   2.713   1.102 -0.1445 -1.0510  0.0829
43235SOL     OW33296   9.635   7.980   2.964  0.4904 -0.2319 -0.4781
43235SOL    HW133297   9.653   7.934   2.882  0.2651 -0.3597 -0.4568
43235SOL    HW233298   9.708   7.957   3.021  2.2944  2.2244 -1.6061
43236SOL     OW33299   7.595  10.980   3.094  0.9318 -0.1009 -0.6337
43236SOL    HW133300   7.641  10.905   3.054  1.3401 -0.6826  0.8644
43236SOL    HW233301   7.655  11.053   3.083  1.5017 -0.4882 -0.1850
43237SOL     OW33302   0.426   2.189   6.449 -0.4169  0.0800 -0.3306
43237SOL    HW133303   0.415   2.225   6.362 -0.7816 -1.4251 -0.9411
43237SOL    HW233304   0.337   2.170   6.479 -0.5852  3.1133  1.5729
43238SOL     OW33305   4.553   4.270   4.432 -0.1714 -0.4863  0.4947
43238SOL    HW133306   4.552   4.330   4.508  2.2105  1.6838 -1.0019
43238SOL    HW233307   4.465   4.277   4.395 -0.4029  1.0004  1.2196
43239SOL     OW33308  10.976   9.482  10.207  0.0067 -0.0062 -0.0627
43239SOL    HW133309  10.895   9.520  10.174  1.2967  0.7508 -2.6632
43239SOL    HW233310  11.040   9.553  10.200  1.0454 -0.7669  1.3240
43240SOL     OW33311   7.843   1.625   6.363  0.0213 -0.0593 -0.5360
43240SOL    HW133312   7.780   1.555   6.346 -0.7201  0.8122 -1.5592
43240SOL    HW233313   7.844   1.634   6.458 -1.5773  0.0272 -0.5000
43241SOL     OW33314   9.247   8.945   6.400 -0.4535 -0.0226 -0.4167
43241SOL    HW133315   9.292   8.958   6.483  0.5864 -1.7847 -0.6371
43241SOL    HW233316   9.272   9.021   6.347  0.7943 -0.0555  0.0962
43242SOL     OW33317   1.971   9.554   2.975  0.4156  0.3361 -0.3408
43242SOL    HW133318   2.047   9.499   2.991 -0.5169 -0.8481  0.1487
43242SOL    HW233319   2.007   9.642   2.963  1.8311 -0.1586  0.1288
43243SOL     OW33320   6.005   5.237   4.884 -0.4330  0.2250 -0.0824
43243SOL    HW133321   5.920   5.276   4.905 -0.5655 -0.1218  0.0241
43243SOL    HW233322   5.992   5.193   4.800 -0.2832  0.4084 -0.2023
43244SOL     OW33323   8.013   8.699   1.178 -0.1449  0.5490 -0.2600
43244SOL    HW133324   8.087   8.726   1.233 -0.4097  1.8608 -0.5157
43244SOL    HW233325   7.947   8.767   1.192 -1.5393 -0.8716  0.3765
43245SOL     OW33326   9.402   3.737   8.136 -0.1622  0.3585 -0.3210
43245SOL    HW133327   9.336   3.668   8.134  1.5375 -1.4812  1.8623
43245SOL    HW233328   9.450   3.727   8.054 -0.2076 -0.8115 -0.2158
43246SOL     OW33329   3.129   1.674   0.276 -0.1952  0.6166  0.2207
43246SOL    HW133330   3.154   1.764   0.254 -0.5097  0.5156 -0.5668
43246SOL    HW233331   3.058   1.653   0.215  0.5730 -0.5405 -0.3045
43247SOL     OW33332   5.253   5.716   9.681 -0.3322  0.1514 -0.6168
43247SOL    HW133333   5.253   5.631   9.725  0.5417  0.1429 -0.6293
43247SOL    HW233334   5.253   5.780   9.753 -1.5835  0.1615 -0.5988
43248SOL     OW33335   8.879   6.881   5.355 -0.0633  0.0650 -0.3304
43248SOL    HW133336   8.794   6.839   5.368  0.2245 -0.5446 -0.4143
43248SOL    HW233337   8.862   6.950   5.291 -0.8135  0.9518  0.7708
43249SOL     OW33338   9.775   6.199   1.098 -0.4190  0.4979  0.3659
43249SOL    HW133339   9.736   6.265   1.155  0.5702  0.0174  1.6382
43249SOL    HW233340   9.704   6.137   1.081 -1.2115  1.5592 -0.4140
43250SOL     OW33341   8.927   0.609   3.656  0.1248 -0.1522 -0.4414
43250SOL    HW133342   8.999   0.617   3.593  0.8128  1.9145  0.5300
43250SOL    HW233343   8.855   0.658   3.616 -0.6861 -1.9048 -1.2379
43251SOL     OW33344   5.414   3.661  10.512  0.4963  0.1624  0.1275
43251SOL    HW133345   5.491   3.646  10.458  1.9622  0.5500  2.0172
43251SOL    HW233346   5.344   3.612  10.469  1.4314  0.8769 -2.3803
43252SOL     OW33347   1.173   0.732   6.059  0.0920 -0.1127 -0.4767
43252SOL    HW133348   1.251   0.774   6.097  0.8197 -1.4713 -0.4071
43252SOL    HW233349   1.100   0.766   6.110  0.7637  0.2850  0.2384
43253SOL     OW33350   4.928   9.709  10.194  0.1731  0.0763  0.0856
43253SOL    HW133351   4.914   9.635  10.135  1.0844  0.4506 -0.6249
43253SOL    HW233352   4.964   9.670  10.273 -0.3920 -0.3575  0.1323
43254SOL     OW33353   4.744   3.782   2.921  0.4953  0.0638  0.0552
43254SOL    HW133354   4.651   3.772   2.936 -0.0316  1.7880 -1.5744
43254SOL    HW233355   4.783   3.699   2.948 -1.0166  0.4514  4.0242
43255SOL     OW33356   3.165   7.041   9.918 -0.2411 -0.1580 -0.0718
43255SOL    HW133357   3.177   7.064  10.010  0.7663  0.4946 -0.3551
43255SOL    HW233358   3.177   7.123   9.871 -1.9899 -0.2286 -0.7185
43256SOL     OW33359   5.182   7.665   6.879 -0.4062  0.3089  0.5947
43256SOL    HW133360   5.140   7.600   6.934 -0.7863 -0.3114 -0.3915
43256SOL    HW233361   5.164   7.748   6.921  0.2538 -0.2291  1.9917
43257SOL     OW33362   0.603   0.121   9.799 -0.4271  0.3229 -0.0662
43257SOL    HW133363   0.532   0.182   9.780  0.5641  1.4959 -0.0577
43257SOL    HW233364   0.600   0.109   9.894  0.4130  1.6875  0.1570
43258SOL     OW33365   9.651   6.038   5.965 -0.2852  0.3223  0.5272
43258SOL    HW133366   9.572   5.998   5.928  0.5331 -0.2055 -0.7277
43258SOL    HW233367   9.721   6.008   5.908  0.9049  0.3684  1.9237
43259SOL     OW33368   2.899   3.377   1.894 -0.3291 -0.3531  0.0034
43259SOL    HW133369   2.933   3.352   1.809 -0.3000  0.2068 -0.1502
43259SOL    HW233370   2.832   3.311   1.913 -1.1509  0.1769 -0.9711
43260SOL     OW33371  10.582   5.472   0.266  0.5019 -0.4191 -0.1592
43260SOL    HW133372  10.539   5.388   0.282 -1.5365  0.4981 -0.5873
43260SOL    HW233373  10.522   5.519   0.208  0.6406  2.0935  1.5977
43261SOL     OW33374   8.120   4.429   6.925 -0.0733 -0.0636 -0.4088
43261SOL    HW133375   8.126   4.411   7.019 -0.0467 -1.2095 -0.6180
43261SOL    HW233376   8.115   4.525   6.920 -1.5614 -0.0178  0.8552
43262SOL     OW33377   3.918  11.067   6.961  0.2479 -0.0598  0.2151
43262SOL    HW133378   3.963  11.092   7.042 -0.3733  1.7753  0.0312
43262SOL    HW233379   3.987  11.069   6.895  0.8449 -1.9587  0.7163
43263SOL     OW33380  10.415   8.680  11.073 -0.3510  0.0930 -0.1580
43263SOL    HW133381  10.431   8.632  11.154 -0.4165 -0.1121 -0.2671
43263SOL    HW233382  10.499   8.722  11.053 -0.5620  0.8567  0.4773
43264SOL     OW33383   9.832   2.464   1.977 -0.0217  0.0969 -0.3639
43264SOL    HW133384   9.872   2.511   1.903  1.5434 -1.3577 -0.5124
43264SOL    HW233385   9.744   2.443   1.947 -0.0349  1.0863 -1.0979
43265SOL     OW33386   9.996   2.111   0.851 -0.0900 -0.3365 -0.3602
43265SOL    HW133387   9.904   2.090   0.867  0.2411 -1.5343  0.1068
43265SOL    HW233388   9.995   2.161   0.769 -1.4945  2.9872  1.4927
43266SOL     OW33389   7.820   7.494   7.359  0.6050  0.3810  0.1619
43266SOL    HW133390   7.788   7.483   7.449  0.5592  0.2142  0.1267
43266SOL    HW233391   7.740   7.489   7.305  0.5707  1.0199  0.1531
43267SOL     OW33392   1.555   9.059   6.937 -0.2034  0.2292  0.1999
43267SOL    HW133393   1.467   9.090   6.913  0.0703 -0.1263 -1.3118
43267SOL    HW233394   1.570   8.982   6.881  0.3627 -0.8250  1.7152
43268SOL     OW33395   0.741   9.405   2.093  0.2653 -0.2483  0.2228
43268SOL    HW133396   0.801   9.330   2.088 -0.6420 -0.9183 -1.0492
43268SOL    HW233397   0.782   9.472   2.039  0.6002 -0.1527  0.5856
43269SOL     OW33398   9.701   6.976   5.591 -0.3650  0.0151  0.0717
43269SOL    HW133399   9.645   6.904   5.561 -1.6610  0.9143  0.2629
43269SOL    HW233400   9.786   6.935   5.606 -0.6514 -1.1654 -1.3270
43270SOL     OW33401   2.451   9.754   3.798  0.0403  0.1064 -0.4116
43270SOL    HW133402   2.366   9.714   3.816 -0.2107  0.5000 -0.6902
43270SOL    HW233403   2.511   9.681   3.787 -0.5071 -0.2009 -1.3882
43271SOL     OW33404   5.557   1.562   2.802  0.5234  0.2420  0.3045
43271SOL    HW133405   5.547   1.515   2.884  0.9415 -1.2803 -0.4827
43271SOL    HW233406   5.610   1.639   2.825  1.0936 -0.4416  1.3595
43272SOL     OW33407   6.892   6.299   9.398  0.8527  0.0197 -0.0471
43272SOL    HW133408   6.932   6.270   9.480 -0.3876  3.4417  2.0385
43272SOL    HW233409   6.843   6.378   9.423  0.6753  1.4624 -4.2006
43273SOL     OW33410   7.086   8.728   2.188  1.0052  0.2782 -0.1436
43273SOL    HW133411   7.174   8.691   2.179  1.7758  2.0877 -0.4801
43273SOL    HW233412   7.095   8.795   2.257  0.0477  0.9194 -0.6217
43274SOL     OW33413  10.155   2.101   4.235 -0.4205 -0.9051  0.0111
43274SOL    HW133414  10.118   2.154   4.304  1.5035  0.9788 -0.2983
43274SOL    HW233415  10.213   2.040   4.280 -2.0094 -2.2853  0.2959
43275SOL     OW33416   6.451   8.970   3.927  0.8945 -0.6559 -0.0724
43275SOL    HW133417   6.444   9.065   3.916  0.8384 -0.5359  0.9151
43275SOL    HW233418   6.474   8.937   3.840 -1.4033  0.0208 -1.0095
43276SOL     OW33419   9.907   3.672   7.109 -0.2146 -0.2138 -0.3532
43276SOL    HW133420   9.831   3.648   7.056 -0.4220 -0.8323  0.2013
43276SOL    HW233421   9.980   3.623   7.069  0.0642  0.9839 -1.3614
43277SOL     OW33422   5.419   8.307   4.885  0.3569 -0.1614 -0.0561
43277SOL    HW133423   5.493   8.270   4.837  0.3897 -0.3653  0.1489
43277SOL    HW233424   5.451   8.318   4.974  0.0986 -0.3696  0.0632
43278SOL     OW33425   0.873  10.671   2.847  0.3965  0.0811 -0.1479
43278SOL    HW133426   0.798  10.644   2.900  0.9860 -1.0729  0.1220
43278SOL    HW233427   0.922  10.731   2.904 -0.1196  0.5712 -0.2043
43279SOL     OW33428   0.991   2.644   7.758  0.0610 -0.0226  0.0528
43279SOL    HW133429   0.963   2.727   7.721 -0.1564 -0.0622  0.1258
43279SOL    HW233430   1.046   2.604   7.690 -0.2175 -0.0320 -0.1654
43280SOL     OW33431   2.634   2.886   4.363  0.2242 -0.1629  0.2059
43280SOL    HW133432   2.698   2.949   4.396  2.3992 -3.0116  1.9551
43280SOL    HW233433   2.620   2.826   4.436 -3.9448 -0.1932 -0.3883
43281SOL     OW33434   4.688   8.134   7.439 -0.1421 -0.0221 -0.8277
43281SOL    HW133435   4.610   8.084   7.415 -0.2164  0.2719 -1.2042
43281SOL    HW233436   4.678   8.149   7.533 -0.6063  0.1264 -0.8986
43282SOL     OW33437   2.137   2.075   5.443  0.2802 -0.1567 -0.1510
43282SOL    HW133438   2.156   2.029   5.361  1.7750  0.3674 -0.1248
43282SOL    HW233439   2.117   2.005   5.506  0.9169 -0.6649 -0.5089
43283SOL     OW33440  10.341   0.155   3.964  0.2437 -0.3447 -0.2598
43283SOL    HW133441  10.400   0.091   4.003  0.2123 -0.3568 -0.2320
43283SOL    HW233442  10.397   0.206   3.905  0.2528 -0.4484 -0.3419
43284SOL     OW33443   7.038   9.758   4.679 -0.3167  0.3087  0.0345
43284SOL    HW133444   7.055   9.852   4.675 -1.0085  0.4084 -0.9999
43284SOL    HW233445   7.031   9.738   4.773  1.3116  0.9927  0.3288
43285SOL     OW33446   9.343  10.338   9.818  0.3264 -0.3883  0.5292
43285SOL    HW133447   9.336  10.279   9.893  1.8841 -0.9629  0.2684
43285SOL    HW233448   9.369  10.422   9.856  1.1031 -0.6763  0.6669
43286SOL     OW33449  10.674  10.074   0.757 -0.2956  0.2490 -0.1309
43286SOL    HW133450  10.706  10.140   0.696  0.3893  0.7899  0.7937
43286SOL    HW233451  10.630  10.009   0.701  2.3933 -0.5761 -1.4847
43287SOL     OW33452   9.613   2.625   7.316 -0.2227 -0.6091  0.1823
43287SOL    HW133453   9.704   2.641   7.342 -0.2480 -1.9279  1.1482
43287SOL    HW233454   9.583   2.556   7.375 -1.1522 -1.7917 -1.5949
43288SOL     OW33455   7.805   1.414   1.403  0.1583 -0.6537  0.5338
43288SOL    HW133456   7.895   1.408   1.433 -0.2164 -1.6729  1.4888
43288SOL    HW233457   7.761   1.339   1.441 -0.9951 -0.4434 -0.3134
43289SOL     OW33458   7.500   7.157   0.668 -0.1659  0.4852 -0.1601
43289SOL    HW133459   7.426   7.125   0.720 -1.2412  2.7933 -0.1704
43289SOL    HW233460   7.468   7.157   0.578 -0.0134  1.0625 -0.2185
43290SOL     OW33461   3.407   0.205   4.996 -0.2285  0.1162 -0.1217
43290SOL    HW133462   3.417   0.180   5.088  0.8977  0.0481 -0.2506
43290SOL    HW233463   3.316   0.184   4.976  0.6026 -4.3483 -0.3118
43291SOL     OW33464   0.103   7.367   9.069 -0.2928 -0.3920 -0.7122
43291SOL    HW133465   0.109   7.273   9.087 -2.5548 -0.5915 -0.7073
43291SOL    HW233466   0.074   7.372   8.978  0.2908  0.3361 -0.8686
43292SOL     OW33467   6.641   2.475   7.025  0.6247 -0.2377  0.1516
43292SOL    HW133468   6.712   2.534   7.050  0.9674  0.4079 -2.1082
43292SOL    HW233469   6.684   2.404   6.978 -0.1453 -0.2582 -0.5522
43293SOL     OW33470   8.957   0.877   1.097 -0.1995  0.1887 -0.8507
43293SOL    HW133471   9.025   0.895   1.032 -0.7767  0.2257 -1.4580
43293SOL    HW233472   8.911   0.800   1.063 -0.0638 -0.2236 -0.1246
43294SOL     OW33473   8.856   4.952  10.584 -0.2482  0.2801  0.5998
43294SOL    HW133474   8.856   4.899  10.505  0.7712 -0.0483  0.8057
43294SOL    HW233475   8.935   5.005  10.577 -0.5115  0.7462  1.0762
43295SOL     OW33476   0.783  10.320   2.886 -0.4445 -0.0245  0.0256
43295SOL    HW133477   0.700  10.365   2.869 -0.4259  0.4799  1.1710
43295SOL    HW233478   0.798  10.333   2.980 -0.1650 -1.9968  0.2914
43296SOL     OW33479  10.786   6.886   9.171 -0.0502  0.3597 -0.1609
43296SOL    HW133480  10.764   6.924   9.087  0.8507 -0.5147 -0.8194
43296SOL    HW233481  10.813   6.960   9.226 -1.2551  1.0056 -0.4247
43297SOL     OW33482  10.615   4.619   1.799 -0.0102  0.0994  0.4642
43297SOL    HW133483  10.668   4.575   1.866  1.1900  1.0882  0.2041
43297SOL    HW233484  10.670   4.692   1.770 -0.7242 -0.0067 -1.2277
43298SOL     OW33485   9.541   1.247   7.281 -0.4037  0.1809 -0.0247
43298SOL    HW133486   9.615   1.224   7.337  0.4342 -1.8955 -1.8307
43298SOL    HW233487   9.464   1.230   7.336  0.3845 -1.3168  0.7024
43299SOL     OW33488   9.472   3.100  10.023 -0.5231  0.1176 -0.3085
43299SOL    HW133489   9.451   3.147  10.104 -0.0756 -1.1332  0.5583
43299SOL    HW233490   9.487   3.170   9.959 -0.5018  1.1455  0.7681
43300SOL     OW33491   3.056   7.674   8.483  0.2891 -0.3868  0.3091
43300SOL    HW133492   3.137   7.666   8.432  0.7027 -1.1474  1.0723
43300SOL    HW233493   3.065   7.609   8.552 -1.4045 -1.1645 -0.1621
43301SOL     OW33494   9.770   4.526   9.362  0.2699 -0.3224  0.0213
43301SOL    HW133495   9.762   4.621   9.348  0.8539 -0.5287 -1.9625
43301SOL    HW233496   9.693   4.489   9.318  1.3098 -0.8960 -1.3965
43302SOL     OW33497   2.911   7.778   5.239 -0.1589 -0.6402 -0.0038
43302SOL    HW133498   2.892   7.871   5.232 -0.5190 -0.7493 -0.5015
43302SOL    HW233499   2.869   7.750   5.320 -0.5435 -0.4852 -0.1471
43303SOL     OW33500   9.026   2.153   1.806  0.4782  0.3555 -0.4599
43303SOL    HW133501   8.973   2.074   1.815  0.5728  0.3726  0.2656
43303SOL    HW233502   9.092   2.129   1.740  0.7766 -0.3209  0.0722
43304SOL     OW33503   1.662  10.188   4.178  0.0088 -0.0582 -0.0841
43304SOL    HW133504   1.632  10.137   4.253  0.5156 -0.0124  0.1520
43304SOL    HW233505   1.694  10.122   4.116 -1.6498 -0.2061 -0.8533
43305SOL     OW33506   0.811   3.304   7.315  1.0090 -0.4866 -0.1112
43305SOL    HW133507   0.849   3.343   7.393  2.1561  0.2366 -0.9868
43305SOL    HW233508   0.885   3.262   7.271  0.4526 -0.5977 -0.9696
43306SOL     OW33509   6.701   1.186  10.341  0.0230  0.3930 -0.4234
43306SOL    HW133510   6.738   1.219  10.422 -0.5110  0.2663 -0.1223
43306SOL    HW233511   6.672   1.097  10.362 -0.8848  0.6567 -0.5077
43307SOL     OW33512   6.151   1.526   7.306  0.8149 -0.5579 -0.5704
43307SOL    HW133513   6.102   1.591   7.256 -0.7643 -0.1914  1.3306
43307SOL    HW233514   6.240   1.532   7.273  0.1156  0.5612 -2.3876
43308SOL     OW33515   7.894   8.003   4.100  0.1879 -1.0047 -0.3552
43308SOL    HW133516   7.928   8.055   4.173 -4.1786  2.9748 -0.6853
43308SOL    HW233517   7.917   8.053   4.022 -0.7268 -1.6789 -1.0853
43309SOL     OW33518   8.342   0.421   4.046 -0.2045  0.2630  0.3098
43309SOL    HW133519   8.326   0.492   3.983 -1.6559 -0.0050  0.3614
43309SOL    HW233520   8.435   0.400   4.034 -0.4460  0.1612 -1.8083
43310SOL     OW33521  10.358   1.775   3.007 -0.2548  0.0487 -0.0946
43310SOL    HW133522  10.344   1.683   3.028 -1.9726  0.3420  0.2352
43310SOL    HW233523  10.292   1.822   3.059 -0.4967  1.3172 -1.4447
43311SOL     OW33524   8.349   4.972   0.602 -0.0595 -0.4807  1.2417
43311SOL    HW133525   8.359   5.002   0.512 -2.3429  2.0818  1.7369
43311SOL    HW233526   8.335   4.877   0.593  2.7862 -0.8740 -0.7521
43312SOL     OW33527   5.203  10.137   1.629 -0.2996 -0.6347  0.1101
43312SOL    HW133528   5.139  10.109   1.563 -0.1411 -1.4195  0.2820
43312SOL    HW233529   5.151  10.152   1.708 -0.4912  0.3134 -0.1846
43313SOL     OW33530   4.687   5.842   9.541  0.5004  0.7087 -0.1431
43313SOL    HW133531   4.766   5.789   9.555 -0.6896 -0.8580  0.8748
43313SOL    HW233532   4.618   5.796   9.588 -1.1194  1.8603 -1.2888
43314SOL     OW33533   4.325   4.004   7.094 -0.1371  0.1244  0.2484
43314SOL    HW133534   4.265   4.061   7.141 -0.2087  1.1093 -0.9865
43314SOL    HW233535   4.406   4.055   7.087 -1.0805  1.4380 -3.4193
43315SOL     OW33536   7.523   7.129   2.374  0.0317  0.5763  0.3361
43315SOL    HW133537   7.526   7.220   2.403 -0.4006  0.7131 -0.0242
43315SOL    HW233538   7.444   7.094   2.415 -0.1253  0.5369  0.0095
43316SOL     OW33539   0.254   8.602   0.291  0.0325 -0.2162 -0.0334
43316SOL    HW133540   0.216   8.645   0.368  0.1894 -0.4079  0.1536
43316SOL    HW233541   0.218   8.514   0.292 -0.5007 -0.0065 -0.5730
43317SOL     OW33542   0.975   9.671  10.727  0.2104 -0.1347 -0.4644
43317SOL    HW133543   0.941   9.753  10.692 -1.6806 -0.6229  0.1268
43317SOL    HW233544   0.967   9.681  10.822  0.0935 -0.9423 -0.3820
43318SOL     OW33545   4.050   7.028   4.654 -0.5468  0.4345  0.2625
43318SOL    HW133546   3.997   6.993   4.582  0.4278  1.5530 -1.0545
43318SOL    HW233547   4.096   7.103   4.616  0.8849  0.3726  1.7366
43319SOL     OW33548   7.097   1.152   7.360  0.3620  0.4851  0.3191
43319SOL    HW133549   7.048   1.199   7.292 -2.9259 -0.5635  1.7420
43319SOL    HW233550   7.132   1.075   7.316 -0.5146  0.5295 -0.4979
43320SOL     OW33551   2.995   7.361   6.151  0.0899  0.5027  0.2085
43320SOL    HW133552   2.994   7.363   6.246  0.0602  1.5154  0.2015
43320SOL    HW233553   2.932   7.292   6.128 -1.2771  1.4527  0.9201
43321SOL     OW33554   5.337   9.307   5.684 -0.2245 -0.3948 -0.6076
43321SOL    HW133555   5.367   9.380   5.737 -0.8454 -1.7315  1.6988
43321SOL    HW233556   5.244   9.300   5.704 -0.0430 -2.1983 -0.2982
43322SOL     OW33557   7.653   3.945   2.678  1.2493 -0.0225 -0.5667
43322SOL    HW133558   7.650   4.025   2.730  1.4882  0.2687 -0.9948
43322SOL    HW233559   7.577   3.894   2.708  2.6843 -0.9558  1.8052
43323SOL     OW33560   3.900   5.107   6.174  0.1964 -0.4514 -0.1312
43323SOL    HW133561   3.837   5.177   6.189 -0.1295 -0.6137 -0.7374
43323SOL    HW233562   3.848   5.035   6.137  0.9552 -0.0737 -2.0449
43324SOL     OW33563   7.770   0.218   7.591 -0.0240 -0.2075 -0.2464
43324SOL    HW133564   7.697   0.274   7.618  0.0826 -0.1270 -0.1256
43324SOL    HW233565   7.814   0.268   7.522  0.6724  0.3062  0.5583
43325SOL     OW33566   1.693   2.773   8.526  0.0503  0.2597  0.1761
43325SOL    HW133567   1.650   2.856   8.505  2.7081  1.3184 -1.7325
43325SOL    HW233568   1.733   2.746   8.443  0.3570 -2.2791  1.0803
43326SOL     OW33569   1.391   2.547  10.217 -0.0025  0.3892 -0.0758
43326SOL    HW133570   1.360   2.609  10.150  1.5483  2.1914  0.7780
43326SOL    HW233571   1.312   2.502  10.247 -1.0692  1.3647 -1.3054
43327SOL     OW33572   2.666   7.121   5.630  0.0892 -0.5693  0.5352
43327SOL    HW133573   2.635   7.131   5.720 -2.3233  1.1634 -0.3914
43327SOL    HW233574   2.620   7.043   5.598  0.5178 -0.8621  0.6289
43328SOL     OW33575   3.545   4.039   1.826  0.1667 -0.1473 -0.5016
43328SOL    HW133576   3.571   3.951   1.857 -0.2011 -0.2282 -0.4258
43328SOL    HW233577   3.567   4.097   1.899 -3.0858 -0.6475  1.0535
43329SOL     OW33578   4.104   9.347   0.900 -0.8289 -0.0371 -0.9290
43329SOL    HW133579   4.165   9.404   0.854 -2.5951  2.6190 -0.2008
43329SOL    HW233580   4.124   9.360   0.993 -2.3464  0.7571 -0.6892
43330SOL     OW33581   2.835   0.723   6.755 -0.0257 -0.6473  0.2652
43330SOL    HW133582   2.779   0.801   6.749 -3.3896 -2.9330 -0.8563
43330SOL    HW233583   2.827   0.695   6.846  0.8693  0.0329  0.5698
43331SOL     OW33584   3.189   0.994   3.726 -0.4370  0.3944 -0.2783
43331SOL    HW133585   3.268   1.027   3.770 -0.4278  0.2922 -0.2181
43331SOL    HW233586   3.161   0.920   3.780  0.5977 -0.8917 -1.4361
43332SOL     OW33587   3.617   2.034  10.125 -0.2669 -0.3953  0.6481
43332SOL    HW133588   3.649   1.944  10.125  1.2773  0.1270  0.8376
43332SOL    HW233589   3.663   2.076  10.198 -1.6662  0.3263  1.1522
43333SOL     OW33590   9.459   7.451  10.512 -0.5254  0.0298  0.0484
43333SOL    HW133591   9.512   7.427  10.588 -0.5659 -1.0302 -0.2430
43333SOL    HW233592   9.395   7.514  10.547  1.4216  2.0479  0.2235
43334SOL     OW33593   0.691   6.291   6.458 -0.1531 -0.7270  0.2765
43334SOL    HW133594   0.661   6.290   6.549  0.5691  1.0831  0.5676
43334SOL    HW233595   0.764   6.228   6.457 -0.2256 -0.8307  0.9301
43335SOL     OW33596   1.913   3.593   2.643 -0.1960 -0.5372  0.2031
43335SOL    HW133597   1.934   3.600   2.736 -1.0021  0.2739  0.3384
43335SOL    HW233598   1.824   3.629   2.635 -0.0498 -0.3643 -0.9153
43336SOL     OW33599   0.106   6.743   7.907 -0.0481  0.2249 -0.2522
43336SOL    HW133600   0.090   6.830   7.942  1.1387  0.1292  0.5644
43336SOL    HW233601   0.027   6.693   7.928  0.1436  0.5149  1.1950
43337SOL     OW33602  10.067   9.089   7.569 -0.5242  0.5813  0.2736
43337SOL    HW133603  10.150   9.131   7.590 -0.0553  1.1000 -2.2998
43337SOL    HW233604  10.000   9.154   7.594 -0.0762  0.9315  0.5732
43338SOL     OW33605   9.773   6.261   5.679 -0.5411 -0.4293 -0.0428
43338SOL    HW133606   9.787   6.174   5.717 -0.8194 -0.3511  0.2442
43338SOL    HW233607   9.682   6.260   5.652 -0.9462  0.2381  1.2030
43339SOL     OW33608   7.752   8.820   7.648 -0.0820 -0.5627  0.2975
43339SOL    HW133609   7.698   8.767   7.707 -1.1159 -1.8156 -1.6845
43339SOL    HW233610   7.835   8.830   7.694  0.7675 -5.2565  0.2172
43340SOL     OW33611   7.309   0.372   7.741 -0.1322 -0.1361 -0.3309
43340SOL    HW133612   7.256   0.304   7.783 -0.1225  0.3839  0.5446
43340SOL    HW233613   7.246   0.426   7.693 -0.1252 -0.8202 -1.1479
43341SOL     OW33614   6.210   6.710   9.754 -0.2054  0.1482 -0.1398
43341SOL    HW133615   6.283   6.717   9.816 -0.1993  1.7760 -0.2874
43341SOL    HW233616   6.220   6.787   9.697 -0.8173 -0.7469 -1.5017
43342SOL     OW33617   6.698   8.097   7.994 -0.8120 -0.3167  0.4092
43342SOL    HW133618   6.665   8.155   7.926 -1.1744 -0.3927  0.5170
43342SOL    HW233619   6.789   8.125   8.008 -1.0861  0.4614  0.7137
43343SOL     OW33620   3.054   5.048   4.757 -0.1270 -0.2894 -0.2670
43343SOL    HW133621   3.124   5.113   4.751  0.5514 -0.6093  2.7062
43343SOL    HW233622   3.083   4.976   4.700 -0.2436  1.3625 -2.5249
43344SOL     OW33623   4.419   2.406   4.883  0.0607 -0.2967 -0.0695
43344SOL    HW133624   4.375   2.400   4.798 -1.8798 -0.2710  0.8748
43344SOL    HW233625   4.420   2.499   4.904  2.0336 -0.1216 -0.7620
43345SOL     OW33626  10.099   2.571   9.822  0.6339  0.6428  0.2407
43345SOL    HW133627  10.138   2.658   9.834  1.4382  0.0855  2.0038
43345SOL    HW233628  10.150   2.514   9.880 -0.5669 -0.8027 -0.0757
43346SOL     OW33629   9.627   3.619   2.804 -0.1382 -0.4502 -0.6629
43346SOL    HW133630   9.643   3.558   2.876  0.3767  0.9105  0.4250
43346SOL    HW233631   9.689   3.594   2.736 -1.3946 -2.4849 -1.1691
43347SOL     OW33632   9.467   0.081  10.047  0.1519 -0.5021 -0.5241
43347SOL    HW133633   9.536   0.118   9.992  0.5397  1.3530  1.0990
43347SOL    HW233634   9.402   0.049   9.985  1.6893 -0.8094 -2.0826
43348SOL     OW33635   2.866  10.952   7.233 -0.0941  0.4762 -0.0194
43348SOL    HW133636   2.893  10.872   7.187  2.0668  1.4547 -0.5804
43348SOL    HW233637   2.773  10.961   7.212 -0.2528 -1.5432 -0.4335
43349SOL     OW33638   6.743   1.318   7.338 -0.2916  0.3821  0.6408
43349SOL    HW133639   6.668   1.326   7.279  0.2846 -0.1208 -0.1824
43349SOL    HW233640   6.710   1.269   7.413 -0.8417  0.3367  0.3708
43350SOL     OW33641   6.450   6.302   2.643  0.1603 -0.1918  0.4968
43350SOL    HW133642   6.498   6.385   2.640 -0.2240  0.0161 -0.2849
43350SOL    HW233643   6.364   6.325   2.679  0.6112 -0.5497  1.8264
43351SOL     OW33644   2.298   8.660   4.598 -0.5608 -0.0401 -0.0109
43351SOL    HW133645   2.235   8.655   4.669 -0.0144 -1.0661  0.4110
43351SOL    HW233646   2.281   8.583   4.544 -0.7867  0.5798 -0.8427
43352SOL     OW33647   9.019   5.328   3.135  0.5449  0.0591  0.5506
43352SOL    HW133648   9.019   5.233   3.148 -0.5731 -0.2907 -1.4614
43352SOL    HW233649   9.100   5.346   3.088  0.3066 -0.0651  0.0829
43353SOL     OW33650   2.074   8.972   0.292  0.5598 -0.4803  0.1350
43353SOL    HW133651   2.074   9.067   0.284  2.7392  0.1331  4.5864
43353SOL    HW233652   2.158   8.945   0.253  0.5479 -0.4317  0.0749
43354SOL     OW33653   3.772   5.605   7.993 -0.3381 -0.1683 -0.4908
43354SOL    HW133654   3.710   5.614   7.921 -0.6203  1.0888 -0.1109
43354SOL    HW233655   3.723   5.559   8.061 -0.3582 -0.5283 -0.7393
43355SOL     OW33656   1.141   6.739   3.286  0.4362 -0.1757  0.4242
43355SOL    HW133657   1.067   6.688   3.318  1.4237 -1.2398  1.0738
43355SOL    HW233658   1.132   6.824   3.331  0.4396 -0.8123  1.6829
43356SOL     OW33659   3.762   9.996   5.430 -0.0796 -0.1538  0.2523
43356SOL    HW133660   3.820  10.069   5.450 -1.4022  0.9366  0.2889
43356SOL    HW233661   3.765   9.989   5.334  0.3506 -0.3102  0.2778
43357SOL     OW33662   3.677   1.380   4.294 -0.0005 -0.1809 -0.3610
43357SOL    HW133663   3.711   1.327   4.222  0.5909  0.8847 -0.8814
43357SOL    HW233664   3.665   1.467   4.257  2.4279  1.0152  1.3376
43358SOL     OW33665  10.837   5.804   5.101 -0.0518 -0.1923  0.3183
43358SOL    HW133666  10.752   5.792   5.142  0.7510  0.5921  2.3462
43358SOL    HW233667  10.847   5.899   5.092  1.0851 -0.1991  1.2643
43359SOL     OW33668   5.008   1.220   2.130  0.6561  0.0034  0.4441
43359SOL    HW133669   4.938   1.257   2.077  1.7808  1.5114 -0.0315
43359SOL    HW233670   5.061   1.169   2.068 -0.0152 -1.1929  0.8150
43360SOL     OW33671   2.567   0.990   3.519 -0.1850 -0.1955  0.4952
43360SOL    HW133672   2.575   0.910   3.570  0.6623 -0.3788  0.0770
43360SOL    HW233673   2.478   1.021   3.539 -1.7066 -2.7979 -1.6104
43361SOL     OW33674   3.680   2.394   7.344 -0.3609 -0.1449 -0.3510
43361SOL    HW133675   3.617   2.397   7.273  0.7073 -1.4683 -1.4022
43361SOL    HW233676   3.662   2.473   7.395 -1.1888  0.8287 -2.0571
43362SOL     OW33677  11.037   4.038   7.441 -0.6477  0.3100 -0.3509
43362SOL    HW133678  11.074   4.014   7.526  1.7413 -0.3473 -1.4767
43362SOL    HW233679  10.976   3.967   7.420  0.0372 -0.4228  0.0711
43363SOL     OW33680   6.842   7.777   1.325 -0.5802 -0.8115 -0.2078
43363SOL    HW133681   6.834   7.817   1.239 -2.7065  2.5889  1.3842
43363SOL    HW233682   6.759   7.731   1.339 -0.4808 -0.8631  0.2427
43364SOL     OW33683   1.119   1.433   2.583 -0.5202  0.2716  0.3570
43364SOL    HW133684   1.163   1.418   2.499  3.3612  0.6427  2.0767
43364SOL    HW233685   1.105   1.346   2.618 -0.2220  0.1452  0.1719
43365SOL     OW33686  10.775   4.252   9.816 -0.4956  0.8025 -0.1886
43365SOL    HW133687  10.776   4.322   9.882 -0.2915  0.9245 -0.3212
43365SOL    HW233688  10.867   4.240   9.793 -0.4393 -0.0838  0.4425
43366SOL     OW33689  10.303  10.987   9.061  0.2296  0.3979  0.0292
43366SOL    HW133690  10.238  11.023   9.001  0.6835  0.0162 -0.7171
43366SOL    HW233691  10.262  10.909   9.097 -0.1089  0.7188  0.3594
43367SOL     OW33692   1.045   9.858   4.031  0.2444 -0.0585 -0.1054
43367SOL    HW133693   1.008   9.859   4.119  1.2604  1.3639  0.3474
43367SOL    HW233694   0.970   9.870   3.973 -0.6111 -2.3036  0.4403
43368SOL     OW33695   6.720   1.912   4.541  0.6541 -0.0505 -0.5859
43368SOL    HW133696   6.629   1.887   4.532  0.4232 -0.0362  1.2396
43368SOL    HW233697   6.752   1.923   4.451 -0.4283 -2.4901 -1.3409
43369SOL     OW33698   3.484   3.347   8.975 -0.0301  0.8400 -0.2571
43369SOL    HW133699   3.488   3.359   9.070  1.2368 -1.8255  0.1221
43369SOL    HW233700   3.390   3.348   8.955 -0.3630  0.6587  1.1597
43370SOL     OW33701   6.435   5.523   9.297 -0.2817 -0.3465  0.6173
43370SOL    HW133702   6.411   5.609   9.330  0.6466  0.4740 -0.7616
43370SOL    HW233703   6.523   5.508   9.332 -0.1750 -0.4349  0.3137
43371SOL     OW33704   9.216   8.280   7.004 -0.2790 -0.5340 -0.4219
43371SOL    HW133705   9.303   8.319   6.993 -0.3420  0.3883  1.9144
43371SOL    HW233706   9.232   8.186   7.005  0.5421 -0.4173 -1.0213
43372SOL     OW33707   1.334   7.452   7.858  0.6304  0.9180 -0.1884
43372SOL    HW133708   1.407   7.514   7.859  1.0298  0.4791  1.9275
43372SOL    HW233709   1.332   7.419   7.768  0.1138  4.2363 -1.5532
43373SOL     OW33710   7.265   9.206   4.705 -0.0142 -0.1010 -0.1406
43373SOL    HW133711   7.225   9.292   4.713  1.8520  0.9718 -1.5642
43373SOL    HW233712   7.277   9.177   4.795  0.7025  1.8181  0.4247
43374SOL     OW33713   6.311   0.195   3.850  0.3157  0.0694  0.1696
43374SOL    HW133714   6.302   0.133   3.923 -0.5024 -2.0010 -1.5934
43374SOL    HW233715   6.405   0.211   3.843  0.3616  0.9883  2.1567
43375SOL     OW33716  11.036   4.708   3.056  0.3916  0.0604 -0.5245
43375SOL    HW133717  10.949   4.670   3.043  0.2363  0.3431 -0.3165
43375SOL    HW233718  11.067   4.669   3.138  0.0677  0.6778 -0.0999
43376SOL     OW33719   3.670   6.822   2.998  0.2713  0.3727  0.0661
43376SOL    HW133720   3.715   6.748   3.039  0.0802 -0.4321 -1.1314
43376SOL    HW233721   3.582   6.789   2.980  0.1030  0.9857 -0.2384
43377SOL     OW33722  10.465   3.235   8.841  0.0253 -0.3151  0.5917
43377SOL    HW133723  10.385   3.191   8.811  0.1454 -0.4073  0.3950
43377SOL    HW233724  10.469   3.218   8.935  1.5482 -3.2231  0.1220
43378SOL     OW33725   2.359   6.673   5.561  0.6446 -0.2053  0.3198
43378SOL    HW133726   2.288   6.649   5.501 -0.5369  0.4606  1.4262
43378SOL    HW233727   2.333   6.637   5.645  3.0568 -2.5613  0.2130
43379SOL     OW33728   3.263   2.640   3.320 -0.3102  0.1169  0.1738
43379SOL    HW133729   3.280   2.550   3.291 -0.1002  0.3113 -0.3329
43379SOL    HW233730   3.282   2.640   3.413  1.1117 -0.0229 -0.0954
43380SOL     OW33731   3.797   2.409   9.411 -0.0848 -0.3158  0.5658
43380SOL    HW133732   3.846   2.479   9.454  0.6331  0.4796 -1.4149
43380SOL    HW233733   3.709   2.445   9.399  0.0102 -0.1273  0.4301
43381SOL     OW33734   2.056   9.074   5.045  0.6791 -0.2548  0.0760
43381SOL    HW133735   2.004   9.148   5.012  1.0126 -0.4949 -1.0254
43381SOL    HW233736   2.008   8.996   5.017 -0.5474 -0.5219  2.6215
43382SOL     OW33737   7.561   9.587   1.703  0.0059  0.3514 -0.2515
43382SOL    HW133738   7.616   9.526   1.753 -1.4305 -0.1030  0.8332
43382SOL    HW233739   7.620   9.659   1.680  1.6320 -1.2026 -1.1768
43383SOL     OW33740   6.233   5.384   2.572 -0.8120  0.8239 -0.2595
43383SOL    HW133741   6.326   5.380   2.553 -1.2484 -0.6361 -2.4648
43383SOL    HW233742   6.228   5.383   2.668  1.4116  1.8362 -0.0711
43384SOL     OW33743   7.333   6.131   0.767  0.4171 -0.0013  0.3883
43384SOL    HW133744   7.265   6.124   0.835  0.4247 -2.4086  0.2081
43384SOL    HW233745   7.377   6.213   0.787 -0.1805 -0.1770  2.7462
43385SOL     OW33746   4.520   7.514   8.275  0.2394  0.0626  0.9714
43385SOL    HW133747   4.435   7.516   8.232  0.3292  2.3008  0.7405
43385SOL    HW233748   4.552   7.425   8.263 -0.5071  0.0963 -2.0961
43386SOL     OW33749   6.157   4.614   2.922 -0.7989  0.5138  0.6619
43386SOL    HW133750   6.244   4.584   2.898  0.0496  0.9009  3.0254
43386SOL    HW233751   6.170   4.703   2.955 -2.0722  0.5703  1.0815
43387SOL     OW33752   1.682   5.702  10.801  0.0470 -0.3116 -0.2502
43387SOL    HW133753   1.626   5.762  10.850  0.3653  1.1689 -1.6427
43387SOL    HW233754   1.625   5.626  10.784 -0.6202 -0.0700  0.8119
43388SOL     OW33755   0.515   3.994   9.640 -0.2534  0.1495 -0.4529
43388SOL    HW133756   0.456   3.925   9.672 -0.7779  0.2956 -1.0711
43388SOL    HW233757   0.456   4.063   9.611  0.2704  0.8220  0.0707
43389SOL     OW33758   3.034   0.797   3.439  0.4581 -0.8017  0.0523
43389SOL    HW133759   3.079   0.880   3.423 -0.4416 -0.6253 -1.7879
43389SOL    HW233760   3.090   0.731   3.400  1.3774 -1.1699  1.8742
43390SOL     OW33761   3.684   7.653   9.202 -0.2078 -0.0066  0.0033
43390SOL    HW133762   3.649   7.742   9.201 -0.9733 -0.2802 -1.7502
43390SOL    HW233763   3.627   7.605   9.262  0.5899  0.7871  1.4533
43391SOL     OW33764   2.726  10.469   4.262 -0.1286  0.2433  0.0902
43391SOL    HW133765   2.637  10.493   4.237  0.2621  1.2335 -0.4172
43391SOL    HW233766   2.782  10.516   4.200  0.8073  0.9781  1.4275
43392SOL     OW33767   4.436   8.681   3.100 -0.1338  0.4645 -0.1990
43392SOL    HW133768   4.525   8.705   3.075 -0.7892  2.2980 -0.9415
43392SOL    HW233769   4.380   8.729   3.039 -1.6612  0.0847  0.8382
43393SOL     OW33770   9.846   2.005   2.049 -0.6408  0.1143  0.3507
43393SOL    HW133771   9.882   2.081   2.003  1.8508 -0.5477  1.0421
43393SOL    HW233772   9.753   2.006   2.027 -0.5967  2.9904 -0.1525
43394SOL     OW33773   5.022   7.673   2.766 -0.3387 -0.3845 -0.1201
43394SOL    HW133774   4.934   7.668   2.728 -0.1566 -2.3106 -0.4043
43394SOL    HW233775   5.081   7.663   2.692  0.1846  1.6754 -0.0353
43395SOL     OW33776   5.102   0.042   4.471 -0.1507 -0.9450  0.1204
43395SOL    HW133777   5.141   0.075   4.390 -2.8706 -1.5883 -1.5900
43395SOL    HW233778   5.128  -0.050   4.474 -0.0323 -0.9162 -0.0282
43396SOL     OW33779  10.147   8.379   0.461  0.1613  0.2410 -0.2567
43396SOL    HW133780  10.105   8.437   0.525  0.8549 -0.9532  1.3473
43396SOL    HW233781  10.081   8.312   0.442  0.7110 -0.6956  0.9984
43397SOL     OW33782   5.347   5.685   0.453 -1.1294  0.1388  0.0595
43397SOL    HW133783   5.377   5.771   0.426  0.5570 -0.5304 -0.3016
43397SOL    HW233784   5.296   5.701   0.533  0.8888  1.2902  1.1980
43398SOL     OW33785   9.542   4.631   8.114 -0.0026  0.1622  0.0561
43398SOL    HW133786   9.572   4.676   8.193 -1.0003  0.1983  0.4248
43398SOL    HW233787   9.486   4.695   8.070 -1.4773 -0.6972  0.6040
43399SOL     OW33788   2.372   1.718   1.252  0.1536  0.7398 -0.3670
43399SOL    HW133789   2.348   1.649   1.191 -1.2778 -1.0544  2.0323
43399SOL    HW233790   2.419   1.673   1.322  1.7727  2.7015 -0.0975
43400SOL     OW33791   9.958  10.622   9.375  0.3211 -0.4424 -0.7455
43400SOL    HW133792   9.989  10.650   9.461  0.1975  2.4087 -1.5330
43400SOL    HW233793  10.038  10.594   9.329  0.6851 -0.0973 -0.3361
43401SOL     OW33794   5.675   3.442   4.214  0.1652  0.2660 -0.3724
43401SOL    HW133795   5.628   3.360   4.196 -0.3591  0.5474 -0.3173
43401SOL    HW233796   5.766   3.416   4.228  0.1230 -0.2346 -1.0064
43402SOL     OW33797  10.181   1.254   6.222  0.4757 -0.4649  0.3095
43402SOL    HW133798  10.197   1.161   6.204  1.4339  0.1344 -2.3067
43402SOL    HW233799  10.262   1.298   6.198 -1.2390  1.4604 -2.5758
43403SOL     OW33800   5.156   7.373   9.705 -0.4559  0.4224 -0.0579
43403SOL    HW133801   5.159   7.417   9.620  3.8307  2.3112  0.7780
43403SOL    HW233802   5.188   7.285   9.687 -0.4979  0.5021 -0.5429
43404SOL     OW33803   5.182   7.864   5.813 -0.3878 -0.0560 -0.3702
43404SOL    HW133804   5.158   7.884   5.904 -0.8242 -0.1257 -0.4648
43404SOL    HW233805   5.149   7.939   5.763 -1.4917 -0.6975 -0.6512
43405SOL     OW33806   5.221   8.201   6.919  0.1326  0.0088 -0.3154
43405SOL    HW133807   5.248   8.109   6.918 -0.8751 -0.3136  0.2040
43405SOL    HW233808   5.134   8.201   6.878 -0.4781  0.5080  0.9231
43406SOL     OW33809   5.371   8.578   2.673 -0.4734  0.4121 -0.0022
43406SOL    HW133810   5.303   8.621   2.726 -0.8108  0.2882 -0.3257
43406SOL    HW233811   5.347   8.486   2.673 -1.0276  0.5298 -1.1386
43407SOL     OW33812   1.132   5.891  10.966  0.1018  0.0353  0.2140
43407SOL    HW133813   1.199   5.900  11.034 -0.6190  1.4528  0.7900
43407SOL    HW233814   1.087   5.809  10.988  0.7033 -0.1873  0.6767
43408SOL     OW33815   3.907   8.133   4.073  0.4974 -0.2306 -0.3041
43408SOL    HW133816   3.886   8.224   4.096  1.2085  0.0747 -0.8263
43408SOL    HW233817   3.876   8.123   3.983 -0.0847 -0.6816 -0.0587
43409SOL     OW33818   6.545   9.913  10.864 -0.8599 -0.3393  0.1039
43409SOL    HW133819   6.452   9.930  10.851 -0.8823 -1.7510 -2.2664
43409SOL    HW233820   6.550   9.820  10.885  0.0406 -0.3284 -0.0092
43410SOL     OW33821   1.966   2.275   7.525 -0.3110 -0.4103 -0.0264
43410SOL    HW133822   1.872   2.258   7.526 -0.4854  0.4544 -0.2940
43410SOL    HW233823   1.973   2.370   7.538  0.3924 -0.0911 -2.2881
43411SOL     OW33824   9.953   0.997   6.980 -0.5128 -0.5167 -0.2541
43411SOL    HW133825   9.926   1.055   6.909  0.5607 -0.8674 -0.9665
43411SOL    HW233826  10.033   1.036   7.015 -1.7091  0.3722  1.6688
43412SOL     OW33827   5.539   5.986   4.547 -0.3376  0.1899  0.2074
43412SOL    HW133828   5.605   6.044   4.510  0.6426 -0.6832  0.5182
43412SOL    HW233829   5.468   6.044   4.574  1.0997  1.3930  1.5931
43413SOL     OW33830   9.501   1.622   0.442 -0.1248 -0.0712  0.4700
43413SOL    HW133831   9.481   1.531   0.466  1.3534 -0.5903 -0.1516
43413SOL    HW233832   9.523   1.618   0.349  2.3319  0.4610  0.9592
43414SOL     OW33833   2.462   5.968   6.633 -0.3420 -0.0877  0.2713
43414SOL    HW133834   2.445   5.901   6.567 -1.8344 -0.1940  0.7321
43414SOL    HW233835   2.556   5.984   6.627 -0.0083 -1.9419 -0.1067
43415SOL     OW33836   3.848   1.084   0.587 -0.1133 -0.7995  0.4263
43415SOL    HW133837   3.887   1.001   0.614 -0.0788 -0.0376  2.9979
43415SOL    HW233838   3.888   1.149   0.645  1.1342  1.3582 -2.6109
43416SOL     OW33839  10.203   5.648   7.025  0.5476 -0.0517 -0.5032
43416SOL    HW133840  10.178   5.573   6.972 -0.4615 -0.1487  0.0729
43416SOL    HW233841  10.136   5.714   7.007  1.0093  0.4428 -0.4424
43417SOL     OW33842   8.727   9.498   6.314  0.2245 -0.6502 -0.3864
43417SOL    HW133843   8.724   9.439   6.390 -0.6631 -0.2167 -0.0633
43417SOL    HW233844   8.746   9.441   6.240  1.9161 -0.9772  0.2494
43418SOL     OW33845   2.643   8.872   9.639 -0.4206 -0.1241 -0.0791
43418SOL    HW133846   2.629   8.964   9.662 -3.2714 -0.4496 -0.2566
43418SOL    HW233847   2.602   8.822   9.710  0.7783 -1.2940 -0.1669
43419SOL     OW33848   7.966   3.257   6.413 -0.3559 -0.6581 -0.1708
43419SOL    HW133849   7.884   3.269   6.365  0.2414  1.2274 -0.8377
43419SOL    HW233850   8.033   3.288   6.353  0.7131 -0.9346  0.8524
43420SOL     OW33851   8.762   3.999   2.005  0.4826 -0.3607 -0.7535
43420SOL    HW133852   8.824   3.926   2.012  1.3714  0.2552 -1.7794
43420SOL    HW233853   8.754   4.014   1.911 -1.4943 -0.6129 -0.6655
43421SOL     OW33854   5.831   6.376   0.387 -0.3522  0.6428  0.1452
43421SOL    HW133855   5.798   6.448   0.441  0.9218 -0.0523  1.9731
43421SOL    HW233856   5.752   6.328   0.360 -1.0587  0.9239  1.5892
43422SOL     OW33857   7.874   8.783   6.434 -0.3297  0.0962  0.2004
43422SOL    HW133858   7.816   8.736   6.494 -2.0877  0.2017 -1.3156
43422SOL    HW233859   7.960   8.745   6.449 -0.7004  0.0826  2.7032
43423SOL     OW33860   9.982   0.787   5.591  0.1499  0.3280  0.4990
43423SOL    HW133861   9.920   0.860   5.582 -0.2400  0.0834  1.1380
43423SOL    HW233862  10.020   0.797   5.678 -0.3605 -0.5651  0.8417
43424SOL     OW33863   7.478  11.106   3.331  0.0620  0.4748  0.4800
43424SOL    HW133864   7.476  11.074   3.241  1.9277 -2.0210  1.2066
43424SOL    HW233865   7.431  11.040   3.382 -1.9767  2.4066  1.2894
43425SOL     OW33866   4.840   2.371   2.605 -0.2704  0.3697 -0.3990
43425SOL    HW133867   4.915   2.429   2.591  1.0881 -1.4722 -1.0460
43425SOL    HW233868   4.771   2.408   2.550  0.6469  1.2305 -1.0095
43426SOL     OW33869   4.733  10.685   9.518  0.2601  0.1455 -0.0796
43426SOL    HW133870   4.805  10.628   9.489  1.3973  1.0479  0.8646
43426SOL    HW233871   4.777  10.763   9.552 -1.2542  1.7814 -1.6766
43427SOL     OW33872   1.081   5.734  10.674  0.1333  0.1375 -0.4584
43427SOL    HW133873   1.087   5.683  10.755  0.6126 -0.4184 -0.8326
43427SOL    HW233874   1.038   5.815  10.700 -0.2113 -0.2568  0.2490
43428SOL     OW33875  10.145   2.554   8.537  0.7535 -0.3699 -0.1935
43428SOL    HW133876  10.221   2.578   8.484  1.3038  0.2171  0.8307
43428SOL    HW233877  10.078   2.618   8.512  1.1590  0.1953  0.1388
43429SOL     OW33878   3.562   7.249   1.361  0.1884 -0.5241 -0.4363
43429SOL    HW133879   3.543   7.338   1.332  2.3530  0.0662 -0.1926
43429SOL    HW233880   3.527   7.193   1.292  0.6367  0.6050 -1.6083
43430SOL     OW33881   2.384   4.759  10.109 -0.2076  0.1129 -0.5607
43430SOL    HW133882   2.297   4.794  10.087 -0.1063  0.9398  0.3203
43430SOL    HW233883   2.376   4.732  10.200  0.6548  0.8019 -0.2801
43431SOL     OW33884   0.956   7.982   0.350 -0.1312 -0.0886  0.4979
43431SOL    HW133885   1.022   7.967   0.282  0.5679 -0.2702  1.2017
43431SOL    HW233886   0.880   8.014   0.303  1.0277  1.8394 -0.1810
43432SOL     OW33887   1.635   0.411  10.021 -0.0316 -0.1230  0.7528
43432SOL    HW133888   1.672   0.326  10.046 -1.5496 -1.5215 -1.3755
43432SOL    HW233889   1.541   0.402  10.039 -0.1361  1.3477  1.0529
43433SOL     OW33890   8.043   0.076   2.153  0.4737  0.4736 -0.4884
43433SOL    HW133891   8.080   0.025   2.081  1.9538 -1.3973  1.4777
43433SOL    HW233892   8.045   0.017   2.228  0.0681  2.6958  1.3809
43434SOL     OW33893   6.071   2.369  11.019 -0.0831  0.3948 -0.0897
43434SOL    HW133894   6.033   2.292  10.976  0.6846 -1.8889  2.9600
43434SOL    HW233895   6.022   2.377  11.101 -0.1167  3.2263 -0.3019
43435SOL     OW33896   3.957   7.054   7.440 -0.3678 -0.1511  0.3726
43435SOL    HW133897   4.008   7.092   7.369 -0.7951 -0.8244 -0.3017
43435SOL    HW233898   3.885   7.008   7.397 -0.0981 -1.3880  1.1869
43436SOL     OW33899  10.256   7.672  10.852 -0.3495  0.2533  0.3666
43436SOL    HW133900  10.169   7.699  10.883 -0.3405 -0.9732  1.5492
43436SOL    HW233901  10.242   7.647  10.761 -1.3409 -0.3237  0.6596
43437SOL     OW33902  10.542   3.998   3.838 -0.3805 -0.0150 -0.2419
43437SOL    HW133903  10.619   4.032   3.884  1.1848 -1.9090 -1.3064
43437SOL    HW233904  10.565   4.004   3.745 -1.3720 -0.9358 -0.5624
43438SOL     OW33905  10.877   8.584  10.590 -0.2414 -0.0847  0.7584
43438SOL    HW133906  10.870   8.584  10.686 -0.1861  0.7833  0.7717
43438SOL    HW233907  10.805   8.641  10.561 -0.2217 -0.2956  0.2870
43439SOL     OW33908  10.026   5.726   9.345 -0.4594  0.3571 -0.2353
43439SOL    HW133909  10.052   5.794   9.283 -1.8013  1.5116  0.4140
43439SOL    HW233910  10.083   5.738   9.420 -2.1039  2.2880  0.8060
43440SOL     OW33911  10.448   3.599   5.877 -0.1637  0.0636  0.4468
43440SOL    HW133912  10.502   3.644   5.812 -0.5046 -0.0512  0.0794
43440SOL    HW233913  10.481   3.630   5.961  0.3100  0.1849  0.2219
43441SOL     OW33914   9.242   3.230   7.070  0.1991  0.4608  0.2928
43441SOL    HW133915   9.278   3.159   7.122  1.3536  0.5730 -0.3266
43441SOL    HW233916   9.148   3.229   7.089  0.7103  1.3679  3.4400
43442SOL     OW33917  10.129   2.828   8.679 -0.0053 -0.1396  0.2340
43442SOL    HW133918  10.055   2.825   8.619 -0.1647  1.1872  0.3350
43442SOL    HW233919  10.204   2.798   8.627 -0.2200  0.5919 -0.5115
43443SOL     OW33920   6.177   4.769  10.416  0.7855  0.1537  0.1795
43443SOL    HW133921   6.135   4.685  10.395 -1.6634  0.8684  1.7292
43443SOL    HW233922   6.150   4.787  10.506 -0.5142  3.5370 -0.7408
43444SOL     OW33923   5.691   8.573   8.420  0.3718 -0.1785  0.6964
43444SOL    HW133924   5.760   8.634   8.446  1.0900  0.4371 -2.2277
43444SOL    HW233925   5.737   8.497   8.386 -0.4836 -1.1151  1.5681
43445SOL     OW33926   3.926   0.623   5.159  0.4698 -0.4058  0.0443
43445SOL    HW133927   3.952   0.531   5.161  1.9750 -0.0000  1.3670
43445SOL    HW233928   3.893   0.641   5.247 -2.6358 -0.3683 -1.0254
43446SOL     OW33929   3.369   5.174   8.869  0.3642  0.4868  0.1773
43446SOL    HW133930   3.400   5.240   8.807 -2.0962 -0.3309 -2.1117
43446SOL    HW233931   3.303   5.220   8.921  0.6918  0.5344  0.5583
43447SOL     OW33932   4.702   7.194   8.361 -0.7952 -0.2055  0.0484
43447SOL    HW133933   4.776   7.148   8.322 -0.5006  0.1153  0.2225
43447SOL    HW233934   4.656   7.233   8.287 -0.1393  0.5471  0.0279
43448SOL     OW33935   8.724   7.003   7.965 -0.2857  0.0393  0.8056
43448SOL    HW133936   8.792   7.061   7.999  0.0667 -0.8211  1.6092
43448SOL    HW233937   8.735   7.007   7.870 -0.7457  1.8385  0.7920
43449SOL     OW33938   8.099   4.366   7.957 -0.0089 -0.0790  0.0864
43449SOL    HW133939   8.133   4.282   7.987  0.8277  0.4404  0.6395
43449SOL    HW233940   8.138   4.430   8.017  0.9807  0.8974 -1.5243
43450SOL     OW33941   8.946   1.865   8.057 -0.7681 -0.2897  0.2166
43450SOL    HW133942   8.892   1.943   8.046  0.2260  0.7100  2.0285
43450SOL    HW233943   8.912   1.803   7.993 -1.4506  1.6856 -1.4182
43451SOL     OW33944   0.781   0.876   7.731  0.2496  0.1092  0.1310
43451SOL    HW133945   0.870   0.841   7.732 -0.5266 -1.9916  0.5587
43451SOL    HW233946   0.766   0.899   7.640  0.6427 -1.1932 -0.2889
43452SOL     OW33947   5.803   5.507   4.992  0.6304 -0.9325  0.0784
43452SOL    HW133948   5.815   5.490   4.899  0.7309  2.2245 -0.5860
43452SOL    HW233949   5.712   5.481   5.009  0.0628  0.0175 -1.3375
43453SOL     OW33950   5.181  10.356   4.042 -0.6611  0.0611  0.3752
43453SOL    HW133951   5.109  10.419   4.050  1.1289  2.2159  0.6237
43453SOL    HW233952   5.192  10.321   4.131 -0.6738  0.6268  0.6078
43454SOL     OW33953   9.636   7.878   4.097  0.1338  0.1978 -0.0337
43454SOL    HW133954   9.650   7.973   4.098  0.2842  0.1876 -0.6661
43454SOL    HW233955   9.672   7.850   4.013 -1.1086 -0.2219 -0.4526
43455SOL     OW33956   6.025   6.696   5.951  0.0562  0.0249  0.2358
43455SOL    HW133957   6.009   6.733   5.864 -1.2192 -1.8088 -0.3722
43455SOL    HW233958   6.047   6.772   6.006  0.2576  1.3002 -1.5214
43456SOL     OW33959   2.489   6.304   5.189  0.3425 -0.0613  0.0254
43456SOL    HW133960   2.516   6.314   5.280  0.1750 -1.2786  0.2176
43456SOL    HW233961   2.479   6.394   5.158  1.2275  0.3785  0.9472
43457SOL     OW33962   7.493   2.457   0.123 -0.3397  0.2899  0.2389
43457SOL    HW133963   7.403   2.490   0.113 -0.9634 -1.2982  0.2898
43457SOL    HW233964   7.517   2.427   0.035 -0.2201 -0.1650  0.4270
43458SOL     OW33965   0.614   3.389   6.517 -0.1517 -0.4003  0.7195
43458SOL    HW133966   0.659   3.411   6.598 -1.5231  0.7515  1.2168
43458SOL    HW233967   0.538   3.338   6.544  0.2119 -1.3514  0.0010
43459SOL     OW33968   8.568   9.643   5.519 -0.4816  0.2674 -0.1280
43459SOL    HW133969   8.545   9.600   5.602  0.1711 -0.2425 -0.2060
43459SOL    HW233970   8.521   9.593   5.452 -0.8645  0.5672 -0.0849
43460SOL     OW33971   9.274   9.013   3.351 -0.3683  0.0250 -0.1004
43460SOL    HW133972   9.330   8.992   3.426  0.3969  0.5536 -0.5094
43460SOL    HW233973   9.329   9.068   3.295 -0.3474 -1.6633 -1.8508
43461SOL     OW33974   9.463  10.823   3.539 -0.3687 -0.6579  0.1948
43461SOL    HW133975   9.404  10.771   3.594  0.6080 -1.4716  0.5134
43461SOL    HW233976   9.507  10.882   3.600 -2.0102  1.1162 -0.2696
43462SOL     OW33977   6.250   6.943   9.609 -0.4264  0.7018  0.0354
43462SOL    HW133978   6.321   6.922   9.548  0.5564  2.4206  0.5376
43462SOL    HW233979   6.265   7.034   9.634 -2.5616  0.9810  0.5226
43463SOL     OW33980   2.466   1.585   6.198 -0.8949  0.1334  0.2235
43463SOL    HW133981   2.520   1.508   6.213 -2.8198 -1.2521  0.4161
43463SOL    HW233982   2.481   1.640   6.275  0.4038 -0.1003  0.1471
43464SOL     OW33983   2.258   2.877   2.135 -0.7166  0.7383  0.1395
43464SOL    HW133984   2.262   2.901   2.227 -1.1721  1.2360  0.0370
43464SOL    HW233985   2.303   2.948   2.090  3.9731 -1.7319  0.2773
43465SOL     OW33986   6.201   1.927   1.011  0.0138 -0.3851 -0.0194
43465SOL    HW133987   6.216   1.973   0.929 -1.0063  0.9052  0.4805
43465SOL    HW233988   6.120   1.965   1.045  1.5615  0.7190  2.6939
43466SOL     OW33989  10.925   7.107   6.757 -0.4677 -0.3690 -0.0122
43466SOL    HW133990  10.939   7.194   6.793 -0.7140 -0.0967 -0.5552
43466SOL    HW233991  10.950   7.047   6.827  2.2099  0.0733 -0.4631
43467SOL     OW33992   2.716   6.207   1.844  0.0338 -0.2180  0.2653
43467SOL    HW133993   2.623   6.226   1.840  0.3728  1.6820  0.6444
43467SOL    HW233994   2.723   6.115   1.818 -1.7007  0.2406 -2.1192
43468SOL     OW33995   2.195   7.115   1.901  0.2289  0.0780  0.5806
43468SOL    HW133996   2.128   7.184   1.893  2.2395  2.0751 -0.1123
43468SOL    HW233997   2.245   7.140   1.978  0.7305 -0.8722  0.5683
43469SOL     OW33998   4.341   3.911   9.774 -0.2090 -0.1723 -0.1092
43469SOL    HW133999   4.327   3.926   9.681  0.9454  2.8170  0.1167
43469SOL    HW234000   4.436   3.914   9.785 -0.4053  2.0063  1.4742
43470SOL     OW34001   1.899   3.678   9.994  0.8586  0.5721  0.9312
43470SOL    HW134002   1.830   3.739   9.967  0.6461  0.4627  1.2226
43470SOL    HW234003   1.901   3.612   9.925 -0.4691 -0.3425  1.7231
43471SOL     OW34004   8.599   0.339   6.929  0.2987  0.1416  0.2729
43471SOL    HW134005   8.668   0.337   6.996 -0.1227 -0.1951  0.7019
43471SOL    HW234006   8.524   0.297   6.971 -0.2542  0.7440 -0.0995
43472SOL     OW34007   9.974   8.149   0.844 -0.3272 -0.5916 -0.0209
43472SOL    HW134008   9.888   8.178   0.812 -0.8296 -2.0871 -0.1170
43472SOL    HW234009   9.954   8.078   0.905  0.8773 -1.9034 -1.0735
43473SOL     OW34010   1.733   7.931   1.808 -0.2457  0.5001 -0.5387
43473SOL    HW134011   1.657   7.962   1.760  0.1899  0.3217 -1.3523
43473SOL    HW234012   1.713   7.952   1.900 -0.7446  1.5558 -0.8692
43474SOL     OW34013   8.786   3.150   2.070  0.4493 -0.2369  0.3473
43474SOL    HW134014   8.734   3.119   2.144 -2.4381 -1.4892 -2.0054
43474SOL    HW234015   8.845   3.078   2.050  1.3246  0.1521  1.4207
43475SOL     OW34016   2.884   9.990   5.525  0.3991 -0.2310  0.1421
43475SOL    HW134017   2.956   9.932   5.498  0.8874 -0.0984  1.1206
43475SOL    HW234018   2.881  10.057   5.457 -0.2785 -1.4678 -1.0966
43476SOL     OW34019   8.746   8.604   2.025 -0.3519 -0.1814 -0.0603
43476SOL    HW134020   8.706   8.547   1.960 -1.6001 -0.0379  0.5368
43476SOL    HW234021   8.757   8.548   2.102  1.7030 -0.5259 -0.5358
43477SOL     OW34022   5.227   7.253   1.429  0.2140 -0.2528  0.3667
43477SOL    HW134023   5.308   7.302   1.420 -0.3493  0.5985 -0.2562
43477SOL    HW234024   5.163   7.304   1.379 -1.1304  0.0821  2.3095
43478SOL     OW34025   9.690   1.205  10.943  0.1022  0.7725 -0.0512
43478SOL    HW134026   9.666   1.154  11.020  0.7690 -0.8785 -0.8839
43478SOL    HW234027   9.625   1.183  10.877  0.9192  0.2412 -0.7097
43479SOL     OW34028   5.300   6.509   7.734  0.9426  0.4322 -0.0430
43479SOL    HW134029   5.307   6.597   7.695  1.2885 -0.8868 -3.2616
43479SOL    HW234030   5.386   6.495   7.774  0.4330  2.0015  1.8005
43480SOL     OW34031   6.595   0.765   2.476  0.1845  0.0780 -0.2200
43480SOL    HW134032   6.578   0.845   2.526  0.1050  1.6594 -2.5810
43480SOL    HW234033   6.673   0.727   2.517  0.2438  1.3909  0.9539
43481SOL     OW34034   8.809   1.725  11.016 -0.6215  0.3616 -0.4847
43481SOL    HW134035   8.851   1.671  11.083 -0.6996  0.2394 -0.5339
43481SOL    HW234036   8.860   1.711  10.937  0.5815  1.9122 -0.0273
43482SOL     OW34037  10.124   3.974   9.295  0.1407  0.0908  0.3308
43482SOL    HW134038  10.122   3.901   9.232 -1.4592  2.3784 -2.5174
43482SOL    HW234039  10.206   3.961   9.342  1.4305 -1.9196 -2.1587
43483SOL     OW34040   4.523   7.806   0.099  0.6414 -0.2356 -0.0242
43483SOL    HW134041   4.499   7.879   0.042  0.5821 -0.9463 -0.9262
43483SOL    HW234042   4.615   7.788   0.079  0.5826 -0.5804  0.0018
43484SOL     OW34043   1.401   5.959   8.445 -0.1237 -0.1422  0.2934
43484SOL    HW134044   1.328   6.015   8.473  1.6859  2.2877  0.5117
43484SOL    HW234045   1.406   5.892   8.513 -1.7903 -0.0530  0.5648
43485SOL     OW34046   0.320   7.543   7.460  0.0723 -0.2112 -0.0508
43485SOL    HW134047   0.239   7.498   7.484 -0.8535  1.9524  1.1762
43485SOL    HW234048   0.383   7.516   7.527 -0.6336  0.6536  1.0098
43486SOL     OW34049   2.002  10.583   9.848  0.3090  0.6464  0.3363
43486SOL    HW134050   2.055  10.605   9.924  1.6399  1.4705 -0.7720
43486SOL    HW234051   2.064  10.544   9.786 -0.9146 -0.8463 -0.0003
43487SOL     OW34052   1.286   2.727   3.778 -0.3909 -0.3414  0.3271
43487SOL    HW134053   1.309   2.644   3.819  0.9561  0.1678  0.6663
43487SOL    HW234054   1.363   2.783   3.792 -1.2629  0.9621  0.1134
43488SOL     OW34055   4.457   7.302   0.673 -0.3570  0.5596  0.0149
43488SOL    HW134056   4.490   7.280   0.586 -1.9303 -1.2597 -0.2041
43488SOL    HW234057   4.507   7.379   0.700  1.7661 -0.1795 -1.5390
43489SOL     OW34058   2.901   1.210   8.130  0.3028  0.0292  0.3052
43489SOL    HW134059   2.876   1.261   8.207 -0.2885  2.6164 -1.4549
43489SOL    HW234060   2.993   1.232   8.115  0.1979  0.1719 -0.1586
43490SOL     OW34061   9.840   9.398   3.964 -0.3164 -0.2435  0.2492
43490SOL    HW134062   9.859   9.374   3.873 -0.6069  0.5780 -0.0362
43490SOL    HW234063   9.878   9.327   4.016  0.3411 -0.4406 -0.4849
43491SOL     OW34064   1.059   1.040   8.715  0.3809  0.5657 -0.2220
43491SOL    HW134065   1.153   1.050   8.730  0.4330  1.5913 -1.1016
43491SOL    HW234066   1.040   1.099   8.642 -0.9372  0.3299 -0.0947
43492SOL     OW34067   3.824   8.127   5.489 -0.0878  0.5352 -0.4844
43492SOL    HW134068   3.901   8.181   5.505 -0.8172  1.4679 -0.0579
43492SOL    HW234069   3.798   8.149   5.399  0.5626 -0.3330 -0.8992
43493SOL     OW34070   3.027   9.268   8.873 -1.2177  0.1216  0.0722
43493SOL    HW134071   3.101   9.210   8.853  0.5025  2.0983  0.3625
43493SOL    HW234072   3.026   9.273   8.968 -2.7013 -1.0220  0.1491
43494SOL     OW34073   5.534   4.038   0.001 -0.7332  0.0663 -0.1858
43494SOL    HW134074   5.471   3.996  -0.057  0.9410 -2.6090 -0.2445
43494SOL    HW234075   5.599   4.077  -0.057 -0.3385 -0.5160 -0.1472
43495SOL     OW34076   7.337   2.491   9.794 -0.5585 -0.0773 -0.2633
43495SOL    HW134077   7.414   2.492   9.738 -0.5243 -0.3796 -0.2249
43495SOL    HW234078   7.371   2.503   9.883 -0.5036 -0.6819 -0.1944
43496SOL     OW34079   4.545   8.243   3.896  0.9688 -0.2556 -0.0238
43496SOL    HW134080   4.591   8.194   3.829  1.4360  0.1115  0.0209
43496SOL    HW234081   4.590   8.327   3.899 -1.1964  1.0768 -1.6937
43497SOL     OW34082   8.019   0.213  10.345  0.3904 -0.1351 -0.4312
43497SOL    HW134083   8.048   0.122  10.341  1.0331  0.0125  0.6064
43497SOL    HW234084   8.026   0.237  10.437 -0.6463  0.6933 -0.5380
43498SOL     OW34085  10.370   7.362   5.226 -0.3986  0.7911  0.0214
43498SOL    HW134086  10.414   7.446   5.237  1.5532 -0.1182 -0.3194
43498SOL    HW234087  10.348   7.334   5.315  0.4091  0.9518  0.2813
43499SOL     OW34088   2.213   8.705   8.233 -0.1091 -0.1203  0.4345
43499SOL    HW134089   2.118   8.718   8.230  0.1042  1.4897 -0.8038
43499SOL    HW234090   2.225   8.610   8.224 -1.5687 -0.2631 -0.1718
43500SOL     OW34091   0.832   2.745   0.271 -0.0602 -0.2569  0.4760
43500SOL    HW134092   0.879   2.666   0.300 -0.6649 -1.0988 -0.7862
43500SOL    HW234093   0.856   2.755   0.179  0.8170  1.6483  0.8789
43501SOL     OW34094   9.087   9.303   2.589  0.5693  0.0218  0.2787
43501SOL    HW134095   9.127   9.221   2.617  2.2399 -0.7190 -3.5420
43501SOL    HW234096   9.004   9.277   2.548  0.7224  0.3149 -0.2282
43502SOL     OW34097   1.566   9.928   4.364  0.4534  0.1418  0.3613
43502SOL    HW134098   1.627   9.855   4.353  3.1589  2.2869  0.0485
43502SOL    HW234099   1.575   9.954   4.456  0.9070  1.1680  0.0433
43503SOL     OW34100   2.638   0.545   1.418 -0.0769  0.5366 -0.6986
43503SOL    HW134101   2.622   0.600   1.341  0.7821  1.2122 -0.4131
43503SOL    HW234102   2.587   0.466   1.402 -1.7786  1.6226 -0.8681
43504SOL     OW34103   6.948   7.447   8.346 -0.0674  0.1276  0.3190
43504SOL    HW134104   6.908   7.452   8.433 -0.6055  0.6332  0.0520
43504SOL    HW234105   6.977   7.537   8.328  1.5103 -0.2853  0.6408
43505SOL     OW34106   6.718   2.567   6.657  0.5204 -0.5290  0.2843
43505SOL    HW134107   6.629   2.569   6.621  0.9164  0.2052 -0.6844
43505SOL    HW234108   6.706   2.536   6.747 -0.7944  0.2275  0.3920
43506SOL     OW34109   2.759  10.499   6.704  0.2303 -0.8052 -0.8033
43506SOL    HW134110   2.670  10.468   6.687  0.7722 -2.8309 -0.2203
43506SOL    HW234111   2.795  10.517   6.617 -0.4092 -0.9608 -1.1105
43507SOL     OW34112   1.643   8.292   8.549 -0.4322  0.3312  0.5034
43507SOL    HW134113   1.723   8.267   8.595  0.3745 -0.8439 -1.3933
43507SOL    HW234114   1.673   8.348   8.477 -1.2163 -0.5484 -0.5458
43508SOL     OW34115   1.407   8.060   0.795  0.7915 -0.1481 -0.3134
43508SOL    HW134116   1.339   8.015   0.745  0.4505  0.9665 -0.8731
43508SOL    HW234117   1.363   8.133   0.838  1.5321  0.2793 -0.2517
43509SOL     OW34118   6.135  10.900   4.016  0.3127  0.3918  0.0911
43509SOL    HW134119   6.184  10.968   4.063  1.6835  0.9812 -2.0575
43509SOL    HW234120   6.185  10.820   4.030  0.3199  0.4151  0.2014
43510SOL     OW34121   5.151   4.478  10.746 -0.2576  0.5617 -0.3557
43510SOL    HW134122   5.118   4.479  10.835 -1.7013  3.1933 -0.8244
43510SOL    HW234123   5.079   4.443  10.694  1.6644 -4.2826 -0.3571
43511SOL     OW34124   3.876   7.920   0.540 -0.0032 -0.4507  0.0753
43511SOL    HW134125   3.920   7.839   0.515  0.4151 -0.0563 -0.5185
43511SOL    HW234126   3.926   7.954   0.614 -0.6963 -1.1641  0.8827
43512SOL     OW34127   0.796   1.544   3.977  0.3116  0.8899 -0.4799
43512SOL    HW134128   0.830   1.471   4.030  1.1421  1.1506 -0.6511
43512SOL    HW234129   0.754   1.501   3.902  2.9048  0.5901 -1.8750
43513SOL     OW34130   0.947   4.694   2.199  0.0726 -0.0686 -0.2507
43513SOL    HW134131   1.028   4.726   2.238 -0.5223  0.0834  0.9343
43513SOL    HW234132   0.922   4.619   2.254 -0.4739 -0.2506 -0.7340
43514SOL     OW34133  10.231   7.626   6.705 -0.2878  0.5303 -0.4891
43514SOL    HW134134  10.242   7.644   6.798 -0.0198  0.3704 -0.4880
43514SOL    HW234135  10.208   7.711   6.667 -0.9864  0.4763 -0.1914
43515SOL     OW34136   4.400   2.644   5.266  1.0139 -0.2169  0.1166
43515SOL    HW134137   4.333   2.599   5.216  0.2159  0.5827  0.4328
43515SOL    HW234138   4.392   2.736   5.239  3.6769 -0.4044 -1.7515
43516SOL     OW34139   5.640   6.740   9.382  0.0190 -0.5298 -0.7059
43516SOL    HW134140   5.552   6.716   9.352 -0.4329  0.5651 -0.3187
43516SOL    HW234141   5.668   6.809   9.321  0.2033 -0.1994 -0.2597
43517SOL     OW34142   9.756   7.253   4.188  0.0838  0.1232 -0.1540
43517SOL    HW134143   9.732   7.332   4.139 -0.2486  1.0694  1.4455
43517SOL    HW234144   9.747   7.182   4.125  0.3899  1.3568 -1.6525
43518SOL     OW34145   9.234   4.914   7.733 -0.4414 -0.2222 -0.4196
43518SOL    HW134146   9.233   4.850   7.662  0.8513 -1.4725  0.6297
43518SOL    HW234147   9.149   4.957   7.728 -1.4868 -2.2195 -0.9974
43519SOL     OW34148   0.489   9.739   3.159  0.1798  0.2414  0.6589
43519SOL    HW134149   0.439   9.819   3.174  2.0642  1.5783  0.2088
43519SOL    HW234150   0.454   9.677   3.222 -2.3701  0.9043  0.0073
43520SOL     OW34151  10.165   9.952   9.818 -0.0894 -0.0468 -0.1621
43520SOL    HW134152  10.125  10.032   9.852 -1.6596  0.1202 -2.1901
43520SOL    HW234153  10.242   9.982   9.770 -0.8009  0.3121 -1.1108
43521SOL     OW34154   3.415   4.934   2.160 -0.0310 -0.0827 -0.1674
43521SOL    HW134155   3.464   4.900   2.235  0.8832  2.3427  0.4290
43521SOL    HW234156   3.482   4.964   2.099 -0.7831 -0.8264 -1.4108
43522SOL     OW34157   5.841  10.141   1.816 -0.2488  0.2281 -0.6894
43522SOL    HW134158   5.877  10.053   1.807  0.6446  0.4900  0.1771
43522SOL    HW234159   5.896  10.183   1.882 -0.2338  1.6496 -1.5533
43523SOL     OW34160   7.394   6.240   1.058  0.1347 -0.1971 -0.2455
43523SOL    HW134161   7.407   6.212   1.149  0.3829 -0.6983 -0.4326
43523SOL    HW234162   7.332   6.177   1.022  1.5288 -1.1904 -0.9865
43524SOL     OW34163   8.643   4.039  10.458 -0.2613 -0.2634 -0.0552
43524SOL    HW134164   8.730   4.079  10.470  0.2512 -1.6442  1.2706
43524SOL    HW234165   8.639   3.972  10.527 -2.7284  0.3116  0.4356
43525SOL     OW34166   3.706   7.422   2.918 -0.4321  0.7730 -0.2669
43525SOL    HW134167   3.621   7.379   2.911 -0.1231 -0.0425  0.7572
43525SOL    HW234168   3.754   7.371   2.983  0.7470  1.3875 -0.6178
43526SOL     OW34169   4.420  11.093   3.555 -0.2294  0.1044  0.0845
43526SOL    HW134170   4.470  11.163   3.596  1.5360  0.3280 -2.2226
43526SOL    HW234171   4.479  11.017   3.556  0.5524  0.5053 -3.1427
43527SOL     OW34172   2.588   2.756   5.706 -0.3080  0.2680  0.1784
43527SOL    HW134173   2.641   2.717   5.775  0.5316  0.3305 -0.4143
43527SOL    HW234174   2.609   2.706   5.627 -1.6351 -0.1286  0.0543
43528SOL     OW34175   0.728   5.956   7.316 -0.3835  0.1173  0.2321
43528SOL    HW134176   0.803   5.938   7.259  0.0995  0.1105  0.8490
43528SOL    HW234177   0.742   5.900   7.393 -1.1883 -0.1103  0.2212
43529SOL     OW34178   1.704  10.184   2.079  1.0707  0.1955 -0.3859
43529SOL    HW134179   1.614  10.155   2.090  0.6337  0.8773 -1.8378
43529SOL    HW234180   1.747  10.164   2.162 -0.0099 -1.5391 -0.2023
43530SOL     OW34181   0.937   9.312   8.484 -0.6727  0.5731 -0.5032
43530SOL    HW134182   0.889   9.341   8.561  0.7774 -0.0792  0.6936
43530SOL    HW234183   0.916   9.219   8.476  2.1934 -0.4078  1.5719
43531SOL     OW34184   7.137   0.263   7.104  0.6568 -0.4166 -0.3397
43531SOL    HW134185   7.046   0.237   7.118  0.7057  0.5919  2.3157
43531SOL    HW234186   7.189   0.189   7.134  0.7521 -0.6312 -1.0071
43532SOL     OW34187   4.034   8.406   6.089 -0.3508 -1.2353 -0.6427
43532SOL    HW134188   4.130   8.413   6.085 -0.3705 -0.5266 -0.1565
43532SOL    HW234189   4.018   8.340   6.156 -0.1996 -0.8459 -0.2143
43533SOL     OW34190   0.278   7.579   9.528  0.4855  0.3259 -0.2791
43533SOL    HW134191   0.359   7.603   9.573  0.3645  0.9693 -0.3928
43533SOL    HW234192   0.211   7.633   9.569 -0.1008 -1.0031  0.5908
43534SOL     OW34193   0.740   0.895   7.446 -0.2065 -0.3464 -0.1351
43534SOL    HW134194   0.719   0.987   7.431 -0.9217 -0.1231  1.9159
43534SOL    HW234195   0.743   0.856   7.359  0.9255  1.7697 -1.1061
43535SOL     OW34196   8.813   1.390   6.518 -0.0892 -0.2721  0.0676
43535SOL    HW134197   8.904   1.363   6.506 -0.1633 -1.0693  1.1931
43535SOL    HW234198   8.815   1.485   6.509  0.9325 -0.2352  0.5793
43536SOL     OW34199  10.301   5.458   8.875  0.2922  0.9551 -0.2984
43536SOL    HW134200  10.218   5.422   8.843  0.3095 -0.4753  1.1295
43536SOL    HW234201  10.292   5.552   8.862 -2.5350  1.1172  1.8305
43537SOL     OW34202  10.455   2.079   0.278  0.2599 -0.1170  0.0413
43537SOL    HW134203  10.472   1.987   0.298 -0.4709 -0.5457 -1.1965
43537SOL    HW234204  10.541   2.120   0.279  0.4470 -0.4151  2.3211
43538SOL     OW34205   5.668   2.571  10.093 -0.2172  0.0762 -0.1819
43538SOL    HW134206   5.764   2.571  10.097 -0.1902 -1.3451  3.3729
43538SOL    HW234207   5.645   2.659  10.066  2.0886  0.5393 -0.8542
43539SOL     OW34208   8.694   9.262  10.403  0.1288  0.6309 -0.6757
43539SOL    HW134209   8.620   9.216  10.362 -0.7943  1.9507 -0.5715
43539SOL    HW234210   8.670   9.354  10.397  1.6644  1.0675 -0.3696
43540SOL     OW34211   9.605   0.497   1.679 -0.8551  0.1167  0.2957
43540SOL    HW134212   9.681   0.541   1.717 -1.4667  1.1863  0.3315
43540SOL    HW234213   9.640   0.416   1.642  0.2284  0.3931  0.6772
43541SOL     OW34214   9.896   2.168  10.900  0.3169 -0.2138  0.2298
43541SOL    HW134215   9.927   2.156  10.811 -1.4912 -2.1053 -0.2261
43541SOL    HW234216   9.970   2.140  10.955  0.8333 -0.7385 -0.7066
43542SOL     OW34217   1.215   0.035   4.005  0.0901 -0.1933 -0.2309
43542SOL    HW134218   1.172   0.065   3.926  0.3617  1.0989  0.0806
43542SOL    HW234219   1.182  -0.054   4.020 -1.0873  0.1162 -0.9597
43543SOL     OW34220   8.389   2.925   2.221 -0.0864  0.2567  0.1092
43543SOL    HW134221   8.417   2.872   2.146  1.5282  1.1124  0.0641
43543SOL    HW234222   8.368   3.010   2.184 -1.2711  0.1008  0.3785
43544SOL     OW34223   9.541   4.058   0.736 -0.5146 -0.1170 -0.4504
43544SOL    HW134224   9.636   4.068   0.748 -0.3227 -1.6849 -0.5332
43544SOL    HW234225   9.505   4.065   0.824 -0.2839  0.0680 -0.3680
43545SOL     OW34226   6.648   3.341   0.238 -0.4584 -0.4344  0.0378
43545SOL    HW134227   6.634   3.372   0.328  0.7014  0.4677 -0.0773
43545SOL    HW234228   6.697   3.259   0.249 -0.7009 -0.5577  0.2332
43546SOL     OW34229   9.313   0.769   5.088 -0.4735  0.1860 -0.2591
43546SOL    HW134230   9.288   0.847   5.138 -0.7005  0.8580 -1.3729
43546SOL    HW234231   9.238   0.711   5.094 -0.8354  0.6230 -0.5236
43547SOL     OW34232   9.913   4.309   0.881 -0.5161  0.0939  0.2237
43547SOL    HW134233   9.984   4.321   0.819  1.3965  0.8061  2.4067
43547SOL    HW234234   9.853   4.382   0.864  1.4662  2.0336  1.0529
43548SOL     OW34235  10.509   4.292   6.849 -0.1849  0.0252  0.0253
43548SOL    HW134236  10.533   4.259   6.763  1.4431  1.4864 -0.1407
43548SOL    HW234237  10.454   4.369   6.831  0.5676  0.6309  0.2486
43549SOL     OW34238   1.179   3.079   4.179 -0.8149  0.2278 -0.3595
43549SOL    HW134239   1.193   3.162   4.223  0.6051 -0.6918  1.0475
43549SOL    HW234240   1.254   3.070   4.120 -0.6691 -0.2815 -0.1038
43550SOL     OW34241   5.272   6.650   4.107 -0.2976  0.3573  0.5909
43550SOL    HW134242   5.308   6.563   4.125 -1.0382 -0.0889  0.0194
43550SOL    HW234243   5.185   6.648   4.148 -1.3571 -0.1072 -1.5369
43551SOL     OW34244   3.347  10.896   8.000  0.2347 -0.3334 -0.0394
43551SOL    HW134245   3.270  10.846   7.971 -0.0351  1.0745 -1.9835
43551SOL    HW234246   3.312  10.982   8.023  0.9232 -0.4510  1.5478
43552SOL     OW34247   6.560   1.735   8.942 -0.3951 -0.0023  0.4238
43552SOL    HW134248   6.653   1.733   8.961 -0.4129 -0.2299  0.4810
43552SOL    HW234249   6.552   1.794   8.867 -0.0972 -0.7312 -0.1901
43553SOL     OW34250   5.732   3.457   0.158  0.3025  0.1642 -0.4841
43553SOL    HW134251   5.721   3.493   0.070 -0.6591 -1.0644 -0.8848
43553SOL    HW234252   5.736   3.534   0.215 -0.4346  0.9330 -1.4420
43554SOL     OW34253   5.356   9.191   1.116 -0.4569 -0.3722  0.0978
43554SOL    HW134254   5.434   9.154   1.075 -0.4028 -0.7348  0.5144
43554SOL    HW234255   5.383   9.278   1.145 -0.4963 -0.1140 -0.6183
43555SOL     OW34256   8.782   0.109   1.378  0.7674  0.3812 -0.4023
43555SOL    HW134257   8.695   0.124   1.342  0.7857  1.4335 -0.0440
43555SOL    HW234258   8.826   0.193   1.371  1.1272  0.3508  1.0764
43556SOL     OW34259   0.819   1.444   7.350 -0.6293  0.1842  0.3460
43556SOL    HW134260   0.844   1.502   7.278  1.1232 -0.5957  0.2696
43556SOL    HW234261   0.886   1.459   7.417 -0.5111 -1.2538  0.5780
43557SOL     OW34262   1.277   9.866   9.377  0.3325  0.3519  0.0283
43557SOL    HW134263   1.347   9.806   9.353  0.5657  0.4723  0.3892
43557SOL    HW234264   1.323   9.944   9.410  0.0364  0.7746 -0.5402
43558SOL     OW34265   7.677   1.653   3.538 -0.1031  0.1799  0.7361
43558SOL    HW134266   7.625   1.616   3.467 -2.1873  2.6522  0.8339
43558SOL    HW234267   7.644   1.609   3.617  0.2992 -0.6015  0.4808
43559SOL     OW34268   0.537   7.164   9.021 -0.2388  0.1434 -0.3688
43559SOL    HW134269   0.443   7.175   9.004 -0.3728 -1.1074 -0.5057
43559SOL    HW234270   0.565   7.249   9.055 -1.4351  0.5157 -0.2652
43560SOL     OW34271   3.740   9.462   6.283  0.2532  0.0565  0.3558
43560SOL    HW134272   3.645   9.475   6.278  0.1157 -1.1606 -0.8421
43560SOL    HW234273   3.756   9.386   6.226  2.0636  0.8370 -0.2245
43561SOL     OW34274   2.655   9.543   1.895  1.1341 -0.5455 -0.1927
43561SOL    HW134275   2.662   9.568   1.988 -2.0301 -0.5670  0.1611
43561SOL    HW234276   2.677   9.623   1.847 -1.2483  0.7801  0.7581
43562SOL     OW34277   7.434   4.998   8.593  0.0487  0.4117  0.1963
43562SOL    HW134278   7.495   4.976   8.663  0.2114 -0.6854 -0.2657
43562SOL    HW234279   7.490   5.021   8.518 -0.0103 -1.9863 -0.6714
43563SOL     OW34280   9.135   6.229   5.394  0.1137 -0.4695 -0.0291
43563SOL    HW134281   9.123   6.271   5.479  1.3543  1.1540 -0.6008
43563SOL    HW234282   9.216   6.179   5.402 -0.3837 -1.2800  0.0760
43564SOL     OW34283   0.179   6.233   6.342 -0.1130  0.3875  0.0204
43564SOL    HW134284   0.222   6.149   6.359  1.8337  1.3110 -0.0866
43564SOL    HW234285   0.143   6.223   6.254 -0.0142 -0.3928  0.0611
43565SOL     OW34286   4.073   9.113  10.941 -0.0483 -0.0001  0.2603
43565SOL    HW134287   4.062   9.047  11.009 -0.9428 -1.4043 -1.1694
43565SOL    HW234288   4.157   9.092  10.901 -0.9914 -1.2974 -1.1680
43566SOL     OW34289   7.938  10.165   8.924  0.8485  0.2321 -0.5818
43566SOL    HW134290   7.985  10.239   8.885  0.9990  0.4157 -0.0567
43566SOL    HW234291   7.856  10.160   8.875  0.5858  1.1049 -0.2607
43567SOL     OW34292  10.885   5.801   8.312 -0.2550 -0.2090  0.5780
43567SOL    HW134293  10.828   5.874   8.289  0.3166  0.1445  0.2394
43567SOL    HW234294  10.828   5.724   8.312 -0.7971  0.1885  0.6189
43568SOL     OW34295  10.276   3.997   8.430  0.2480 -0.3336  0.9634
43568SOL    HW134296  10.276   4.084   8.469  0.0825 -0.3797  1.0641
43568SOL    HW234297  10.200   3.952   8.468  0.8755 -0.8479  1.6331
43569SOL     OW34298   6.740   4.919   3.134  0.0055  0.2863 -0.3205
43569SOL    HW134299   6.774   4.832   3.153  1.3425  0.6987 -0.7568
43569SOL    HW234300   6.774   4.974   3.204 -0.4970  0.5420 -0.2735
43570SOL     OW34301   9.749   6.634   1.149  0.1250 -0.2578 -0.4743
43570SOL    HW134302   9.781   6.649   1.060 -0.8208  1.6975 -0.5535
43570SOL    HW234303   9.668   6.685   1.153 -1.3177 -2.4766  0.6862
43571SOL     OW34304   1.240   9.649   5.904 -0.0887  0.1339 -0.7700
43571SOL    HW134305   1.314   9.698   5.868 -1.1042  2.0430 -0.4342
43571SOL    HW234306   1.177   9.645   5.831  0.4477 -1.7997 -1.1701
43572SOL     OW34307  10.700   2.356   1.563 -0.3219  0.3519  0.1358
43572SOL    HW134308  10.765   2.287   1.573  0.1094  0.7543  0.1649
43572SOL    HW234309  10.616   2.311   1.568 -0.0452 -0.3045 -0.8496
43573SOL     OW34310   4.215   2.565   8.079  0.1334  0.1671  0.4903
43573SOL    HW134311   4.211   2.542   8.171 -0.0842 -2.6173 -0.1125
43573SOL    HW234312   4.309   2.576   8.061  0.2116  0.2547  0.9386
43574SOL     OW34313   7.367   5.243   4.901 -0.1132 -0.3282 -0.3361
43574SOL    HW134314   7.428   5.230   4.828 -0.1467  2.5635 -1.0126
43574SOL    HW234315   7.421   5.276   4.972 -0.6062  0.5640 -0.3619
43575SOL     OW34316   5.884   0.025   9.399 -0.1281 -0.7929 -0.5760
43575SOL    HW134317   5.866  -0.068   9.380 -0.6606 -0.7870 -0.1396
43575SOL    HW234318   5.830   0.072   9.336 -0.3130 -0.7813 -0.4109
43576SOL     OW34319   8.939   5.276   9.391  0.2480  0.0213 -0.4648
43576SOL    HW134320   8.989   5.220   9.332 -1.0142 -0.9172 -0.6701
43576SOL    HW234321   8.981   5.362   9.384 -0.1598  0.0747 -3.1049
43577SOL     OW34322   0.158   0.896   7.507  0.4525  0.0576  0.2679
43577SOL    HW134323   0.108   0.960   7.558  0.1951 -0.2482  0.4003
43577SOL    HW234324   0.222   0.861   7.569  1.6136  1.2765 -0.1899
43578SOL     OW34325   5.528   1.780   4.677  0.0883 -0.4869 -0.2539
43578SOL    HW134326   5.541   1.845   4.746  0.1762 -0.8978  0.1241
43578SOL    HW234327   5.439   1.747   4.692 -0.6467  0.7880 -1.5262
43579SOL     OW34328   4.054   1.653   9.727  0.3390  0.1638  0.2003
43579SOL    HW134329   4.014   1.730   9.685 -1.4649 -0.3144  0.9560
43579SOL    HW234330   3.999   1.580   9.699  1.2690 -0.6877  0.5388
43580SOL     OW34331   6.731   7.883   2.228  0.1841 -0.1384 -0.1731
43580SOL    HW134332   6.752   7.967   2.188  1.9275  0.1754  1.2975
43580SOL    HW234333   6.814   7.852   2.264 -0.0700 -3.1542 -1.8229
43581SOL     OW34334   0.149   3.677  10.164 -0.5445  0.6298 -0.4459
43581SOL    HW134335   0.155   3.772  10.166 -0.4907  0.6321 -0.7150
43581SOL    HW234336   0.229   3.647  10.208 -1.1567  0.7135  0.7897
43582SOL     OW34337   8.044   4.873   5.988 -0.7990 -0.8660  0.2210
43582SOL    HW134338   7.983   4.941   6.019  0.2523  0.2796 -0.1168
43582SOL    HW234339   8.123   4.888   6.041  0.7231  0.5385 -2.2653
43583SOL     OW34340   6.574   2.758   9.855  0.0607 -0.2333 -0.4383
43583SOL    HW134341   6.648   2.751   9.915 -0.6525 -1.1219  0.3634
43583SOL    HW234342   6.542   2.847   9.865 -1.4372 -0.9646  2.2331
43584SOL     OW34343   7.319   5.993   0.254 -0.1532 -0.1474 -0.3118
43584SOL    HW134344   7.309   5.985   0.349 -0.0290 -1.4959 -0.3855
43584SOL    HW234345   7.401   6.041   0.242 -0.2534  0.1714  0.2549
43585SOL     OW34346   8.128   2.807   9.241  0.6224  0.1253  0.5361
43585SOL    HW134347   8.079   2.853   9.173  0.3623 -2.3093 -1.0510
43585SOL    HW234348   8.092   2.839   9.323 -2.5468 -0.3676 -0.5404
43586SOL     OW34349   2.473   5.879   7.654  0.5978 -0.5550 -0.2210
43586SOL    HW134350   2.434   5.807   7.605 -1.8610 -0.2897  1.1486
43586SOL    HW234351   2.402   5.942   7.663  1.9752  0.9405  0.7248
43587SOL     OW34352   1.645   1.913  10.536  0.7101  0.0762  0.5908
43587SOL    HW134353   1.625   2.005  10.552  0.9696  0.1761  0.3457
43587SOL    HW234354   1.696   1.912  10.455  1.0636 -0.2400  0.8113
43588SOL     OW34355   1.661   7.579   8.716  0.1628 -0.1906  0.2601
43588SOL    HW134356   1.725   7.619   8.657 -0.4168 -0.3346 -0.4810
43588SOL    HW234357   1.577   7.613   8.687 -0.2118 -0.9152  0.4609
43589SOL     OW34358   6.454   4.023   2.735  0.0806 -0.0280  1.0785
43589SOL    HW134359   6.397   3.992   2.806 -0.1786 -0.3066  0.7506
43589SOL    HW234360   6.506   4.092   2.776  1.7071 -1.8298  2.2415
43590SOL     OW34361   7.046   1.312   7.148 -0.3352 -0.0021 -0.5498
43590SOL    HW134362   7.027   1.393   7.101  1.1665 -0.0162 -1.2242
43590SOL    HW234363   7.098   1.261   7.087  0.2654 -0.7184  0.5386
43591SOL     OW34364  10.978   6.808   0.441 -0.2168  0.2863 -0.5745
43591SOL    HW134365  10.886   6.801   0.469  0.0426 -0.2160  0.1628
43591SOL    HW234366  10.977   6.877   0.374 -1.2623 -0.2525 -1.1428
43592SOL     OW34367   3.444  10.093   0.257  0.6481 -0.6525  0.4930
43592SOL    HW134368   3.388  10.019   0.233  1.9531 -1.2522 -0.8769
43592SOL    HW234369   3.509  10.056   0.316  1.5923 -0.7383 -0.5711
43593SOL     OW34370   6.350   7.655   3.107 -0.1344  0.3969  0.1709
43593SOL    HW134371   6.320   7.640   3.018 -0.6952  1.9931  0.0600
43593SOL    HW234372   6.413   7.727   3.100  1.6564 -1.0212  0.7865
43594SOL     OW34373   3.828   5.755   3.645 -0.6871 -0.3370 -0.5713
43594SOL    HW134374   3.892   5.735   3.713 -1.2750 -2.4624 -0.5579
43594SOL    HW234375   3.790   5.839   3.670 -1.7645 -1.6066  2.4327
43595SOL     OW34376   8.529   5.642   4.101 -0.0404 -0.6973  0.1554
43595SOL    HW134377   8.455   5.682   4.147  0.4689 -1.0852  1.3606
43595SOL    HW234378   8.496   5.558   4.070 -0.8666  0.2468 -1.6594
43596SOL     OW34379   3.531   3.241   1.334  0.2380 -0.1016  0.0779
43596SOL    HW134380   3.585   3.167   1.304  1.2584  0.6403  0.0454
43596SOL    HW234381   3.498   3.213   1.420  0.1225 -0.8313 -0.1968
43597SOL     OW34382   2.194   5.162   9.657 -0.6962  0.6097  0.0716
43597SOL    HW134383   2.287   5.147   9.675 -0.3215  1.5902 -0.9589
43597SOL    HW234384   2.157   5.074   9.654  0.8129 -0.0646 -2.5434
43598SOL     OW34385   4.768   4.645   2.488  0.2896 -0.3262 -0.3273
43598SOL    HW134386   4.837   4.706   2.515 -0.9838  0.9077  0.2392
43598SOL    HW234387   4.767   4.652   2.392  0.8946 -0.3030 -0.3405
43599SOL     OW34388   5.902   0.767   2.386  0.0775 -0.1107 -0.1805
43599SOL    HW134389   5.890   0.739   2.477  0.0761  2.1594  0.5740
43599SOL    HW234390   5.814   0.790   2.356  0.2734  0.5832 -0.2392
43600SOL     OW34391   2.515   8.561  10.150 -0.2265  0.0276 -0.1474
43600SOL    HW134392   2.506   8.631  10.215 -0.6177 -0.6221  0.5267
43600SOL    HW234393   2.444   8.501  10.171 -1.7606  0.8747 -2.6048
43601SOL     OW34394   0.793   1.248  10.968 -0.0548 -0.5785  0.2744
43601SOL    HW134395   0.877   1.216  10.937  0.4010 -0.1576  1.0435
43601SOL    HW234396   0.794   1.342  10.948 -0.2079 -0.5163  0.5476
43602SOL     OW34397   7.498   8.854   3.074  0.1924  0.2226  0.5272
43602SOL    HW134398   7.469   8.764   3.067  2.4630 -0.4692 -2.1260
43602SOL    HW234399   7.437   8.904   3.019  2.1380 -0.7956 -2.8764
43603SOL     OW34400  10.786   6.605   9.235 -0.0207 -0.2861  0.3229
43603SOL    HW134401  10.866   6.556   9.250 -0.0947  0.4211  3.7881
43603SOL    HW234402  10.809   6.696   9.251 -1.1154  0.1756 -0.5382
43604SOL     OW34403   3.851   1.332   5.024 -0.4683  0.0330 -0.5472
43604SOL    HW134404   3.876   1.417   5.059 -0.5517  0.0397 -0.5048
43604SOL    HW234405   3.925   1.275   5.045 -0.2031  0.2035 -0.9910
43605SOL     OW34406   6.331   8.984   9.835  0.1524 -0.3964  0.5851
43605SOL    HW134407   6.343   8.894   9.866 -0.1067 -0.8375 -0.5202
43605SOL    HW234408   6.397   8.994   9.767  0.1658  0.2505  0.6916
43606SOL     OW34409   2.910   1.949   5.996 -0.2714 -0.7991 -0.1755
43606SOL    HW134410   2.868   1.864   6.010 -1.0260 -0.4585 -0.3350
43606SOL    HW234411   2.974   1.955   6.067  1.1993 -2.3474 -1.2699
43607SOL     OW34412   2.165   8.191  10.507 -0.0437  0.3623 -0.1799
43607SOL    HW134413   2.226   8.265  10.515 -1.5077  1.4846  1.1974
43607SOL    HW234414   2.221   8.114  10.503  1.5137  1.4713 -0.9293
43608SOL     OW34415   8.622   0.855   1.282  0.3779  0.3679 -0.1681
43608SOL    HW134416   8.638   0.761   1.288  0.3984  0.4823  3.0538
43608SOL    HW234417   8.546   0.871   1.339  0.5531  2.3609 -0.3986
43609SOL     OW34418   7.594   5.660   3.777  0.4290  0.0252  0.4792
43609SOL    HW134419   7.627   5.729   3.834  0.7695  1.2530 -1.1363
43609SOL    HW234420   7.499   5.663   3.787  0.4294  0.8826  0.2781
43610SOL     OW34421   1.488   9.266   4.517 -0.3822  0.2575 -0.6142
43610SOL    HW134422   1.438   9.322   4.458  1.1825  1.8323 -0.5416
43610SOL    HW234423   1.501   9.319   4.596  1.2335 -0.1183 -0.5772
43611SOL     OW34424  10.009   5.348   0.659  0.1323 -0.6635 -0.6048
43611SOL    HW134425  10.100   5.365   0.683  0.0821  1.7618 -1.7806
43611SOL    HW234426  10.015   5.290   0.583  0.5447 -2.2718  0.5859
43612SOL     OW34427   8.959   2.700   5.190 -0.5982 -0.2643 -0.2481
43612SOL    HW134428   8.995   2.709   5.102  0.2890 -0.3828  0.0936
43612SOL    HW234429   9.022   2.745   5.246 -1.5733  0.5211  0.2417
43613SOL     OW34430   2.544   3.170   8.014 -0.0969 -0.2923  0.2191
43613SOL    HW134431   2.473   3.205   8.069  0.6102  0.7210  0.5129
43613SOL    HW234432   2.574   3.092   8.060 -1.1419 -0.8457 -0.0055
43614SOL     OW34433   1.400   0.793   2.806 -0.0675 -0.0090  0.4034
43614SOL    HW134434   1.341   0.781   2.881 -1.6057 -0.9095 -0.9096
43614SOL    HW234435   1.471   0.731   2.821 -1.1308 -1.2720  0.4018
43615SOL     OW34436   0.712   5.888   3.329  0.1904 -0.2989 -0.0738
43615SOL    HW134437   0.702   5.820   3.262 -0.3451  0.2907 -0.6043
43615SOL    HW234438   0.805   5.910   3.327  0.1858 -0.3012 -0.6217
43616SOL     OW34439   8.213   5.223  10.147  0.1299  0.6259  0.4779
43616SOL    HW134440   8.232   5.275  10.225  1.5352 -0.2395  0.7623
43616SOL    HW234441   8.211   5.132  10.179  0.1131  0.3037 -0.3929
43617SOL     OW34442   6.954   9.761   6.145  0.1349 -0.1045 -0.5719
43617SOL    HW134443   6.935   9.850   6.117  0.3280  0.1585  0.0977
43617SOL    HW234444   6.961   9.767   6.241  0.3976 -0.7902 -0.5389
43618SOL     OW34445   5.157   4.455   6.155 -0.1725 -0.5183 -0.4551
43618SOL    HW134446   5.077   4.438   6.105  0.1105 -0.3253 -0.9892
43618SOL    HW234447   5.136   4.429   6.244  0.4369 -4.4735 -1.2558
43619SOL     OW34448   6.550   8.972   2.944  0.7314  0.6012 -0.0960
43619SOL    HW134449   6.630   8.935   2.906 -0.0510 -0.6319 -0.6124
43619SOL    HW234450   6.482   8.908   2.923 -0.5024  1.8912 -0.1444
43620SOL     OW34451   4.483   2.186   0.534  0.4097 -0.2134 -0.2974
43620SOL    HW134452   4.510   2.180   0.442  0.8087  0.7352 -0.2577
43620SOL    HW234453   4.535   2.259   0.569  1.2818 -1.4019  1.0345
43621SOL     OW34454   3.164   7.079   6.906 -0.2866 -0.8307  0.0188
43621SOL    HW134455   3.083   7.054   6.861 -0.4238  0.3127 -0.4210
43621SOL    HW234456   3.134   7.118   6.988 -0.4130  1.8298 -1.1672
43622SOL     OW34457   4.122   0.419   3.891  0.0388 -0.1818 -0.1398
43622SOL    HW134458   4.121   0.326   3.915  2.8533 -0.6509 -1.3595
43622SOL    HW234459   4.148   0.419   3.798 -0.4031  1.8109 -0.3067
43623SOL     OW34460   5.391   1.528   7.860  0.3290  0.4261 -0.7677
43623SOL    HW134461   5.355   1.606   7.818  0.3845 -0.3801 -2.4076
43623SOL    HW234462   5.350   1.525   7.946 -4.8835 -1.1992 -2.8797
43624SOL     OW34463   0.616   3.260  10.583 -0.0622  0.1549 -0.1670
43624SOL    HW134464   0.558   3.238  10.510 -0.4320 -0.2698  0.2431
43624SOL    HW234465   0.562   3.314  10.641  0.1172  0.1962 -0.0377
43625SOL     OW34466   2.807   2.782  10.257 -0.1257 -0.3731  0.0307
43625SOL    HW134467   2.839   2.692  10.264  0.6335 -0.0046  2.0338
43625SOL    HW234468   2.746   2.780  10.183 -0.9293 -2.7739  0.6572
43626SOL     OW34469  10.072  10.572   3.982  0.1071 -0.3143  0.3667
43626SOL    HW134470  10.110  10.644   3.931  1.0648  0.4862  2.1160
43626SOL    HW234471   9.978  10.576   3.962  0.1193  1.5225  0.4983
43627SOL     OW34472   1.749   2.200   0.322  0.0480  0.2397 -0.2083
43627SOL    HW134473   1.789   2.130   0.374 -1.9500 -2.9752 -2.6546
43627SOL    HW234474   1.819   2.230   0.265  0.4725 -1.2617 -0.5223
43628SOL     OW34475   3.659   9.750   3.529  0.4748 -0.6429  0.7101
43628SOL    HW134476   3.580   9.785   3.571 -0.9660 -0.8059 -1.6700
43628SOL    HW234477   3.731   9.794   3.574 -0.9477 -0.3349  2.8499
43629SOL     OW34478  10.366   2.253   8.620  0.2403 -0.3655  0.0318
43629SOL    HW134479  10.325   2.199   8.687  0.6506 -1.1797 -0.3616
43629SOL    HW234480  10.349   2.207   8.538  0.0544  0.4289 -0.3877
43630SOL     OW34481   8.350   0.108  10.497  0.5284  0.5308  0.3327
43630SOL    HW134482   8.278   0.140  10.550  0.7286 -0.5655  1.3089
43630SOL    HW234483   8.400   0.052  10.556  1.0837 -0.2727 -0.8601
43631SOL     OW34484   8.689   1.623   5.275  0.6475  0.0531 -0.0196
43631SOL    HW134485   8.657   1.657   5.192  0.4281 -1.8891 -0.7906
43631SOL    HW234486   8.701   1.700   5.330  0.0862  1.3174 -1.6000
43632SOL     OW34487   5.615   5.785   0.873 -0.3342  0.1670  0.5207
43632SOL    HW134488   5.555   5.849   0.835  0.2247 -0.1766 -1.0198
43632SOL    HW234489   5.685   5.776   0.808  0.4480 -0.7694  1.4616
43633SOL     OW34490   7.025  10.261   6.265  0.2493 -0.1400  0.0036
43633SOL    HW134491   7.019  10.354   6.287 -2.8986 -0.3921  0.6887
43633SOL    HW234492   7.084  10.224   6.330 -1.2834  0.8165  2.0513
43634SOL     OW34493   5.206   9.785   7.063  0.1169  0.2213 -0.5988
43634SOL    HW134494   5.180   9.833   7.142  0.9673  1.0372 -0.8033
43634SOL    HW234495   5.192   9.693   7.085  0.8761  0.3952  0.7154
43635SOL     OW34496   8.309   6.484   8.833 -0.3320 -0.1194  0.0305
43635SOL    HW134497   8.219   6.517   8.833 -0.2689  0.0877  1.3963
43635SOL    HW234498   8.362   6.559   8.858  0.0942 -0.5396  0.4114
43636SOL     OW34499   4.969   3.915   1.587 -0.2607 -0.2048 -0.1077
43636SOL    HW134500   4.886   3.880   1.556 -0.2978 -1.3603  1.2343
43636SOL    HW234501   4.975   4.002   1.546 -2.1955 -0.0156 -0.0846
43637SOL     OW34502   9.499   2.643   1.926 -0.4413  0.0564 -0.0138
43637SOL    HW134503   9.546   2.562   1.946 -0.2313 -0.2890 -1.7781
43637SOL    HW234504   9.434   2.618   1.860  1.9505  1.8785 -3.3359
43638SOL     OW34505   3.672   6.998   9.061 -0.0963  0.5779  0.0501
43638SOL    HW134506   3.727   6.979   9.137  2.4079 -0.2610 -1.8339
43638SOL    HW234507   3.627   6.916   9.043 -3.0001  1.5525  2.2374
43639SOL     OW34508   3.296   0.877   4.507 -0.1203 -0.2751  0.5669
43639SOL    HW134509   3.305   0.863   4.602  3.3511 -1.5972  0.2174
43639SOL    HW234510   3.299   0.972   4.497 -0.0450 -0.1309  1.7629
43640SOL     OW34511   7.643   1.959   3.475  0.2734  0.0704  0.1992
43640SOL    HW134512   7.627   1.870   3.506  0.3130  0.2427  0.7299
43640SOL    HW234513   7.641   1.952   3.380 -2.2874 -0.0717  0.1764
43641SOL     OW34514   9.297   4.409   6.136  0.1942  0.3477  0.1289
43641SOL    HW134515   9.230   4.361   6.185  0.8930  0.3301  1.1084
43641SOL    HW234516   9.248   4.466   6.077 -0.6587 -0.6972 -0.1913
43642SOL     OW34517   2.751   4.912   5.976  0.3218 -0.5264  0.7157
43642SOL    HW134518   2.775   4.909   5.883 -0.8980 -0.3262  0.3778
43642SOL    HW234519   2.829   4.881   6.021  1.2081  0.1027 -0.3201
43643SOL     OW34520   0.103   3.847   6.506 -0.2382  0.1489 -0.3260
43643SOL    HW134521   0.135   3.803   6.585  0.1503 -1.0968 -1.1489
43643SOL    HW234522   0.016   3.809   6.491  0.9887 -2.1669 -2.3194
43644SOL     OW34523   8.015   4.251   4.273  0.4816  1.0724  0.0938
43644SOL    HW134524   7.951   4.297   4.326 -0.1040 -0.8710  1.1697
43644SOL    HW234525   8.100   4.275   4.311  0.1846  1.1889  0.6945
43645SOL     OW34526   9.990   7.740   2.343 -0.5001 -0.5144  0.0358
43645SOL    HW134527  10.007   7.648   2.363 -0.8254 -0.6467 -0.2851
43645SOL    HW234528  10.017   7.750   2.252  1.1321  0.1224  0.5510
43646SOL     OW34529   2.740   8.025   7.940 -0.2881  0.1989  0.1805
43646SOL    HW134530   2.786   7.997   8.020  0.3187  0.7812  0.0459
43646SOL    HW234531   2.701   7.944   7.906  1.8917 -0.6271 -0.5126
43647SOL     OW34532   0.440   3.909   7.892 -0.1808 -0.2790  0.2537
43647SOL    HW134533   0.533   3.918   7.872  0.2160 -0.8105  1.7131
43647SOL    HW234534   0.417   3.991   7.937 -0.3969 -0.1878 -0.0181
43648SOL     OW34535   3.204   4.676   2.297  0.3458  0.1271  0.0052
43648SOL    HW134536   3.275   4.735   2.269 -0.6956  1.6804  0.5286
43648SOL    HW234537   3.204   4.682   2.392 -1.8862  1.8966 -0.0526
43649SOL     OW34538   9.368   6.886   5.677  0.5089  0.3486 -0.3376
43649SOL    HW134539   9.350   6.965   5.728  1.4673 -0.7322  1.8043
43649SOL    HW234540   9.296   6.827   5.698 -0.0394  0.5018 -1.6918
43650SOL     OW34541   0.551   4.359   9.534  0.0052  0.2703 -0.3709
43650SOL    HW134542   0.492   4.284   9.543  2.7533 -1.8551  1.6424
43650SOL    HW234543   0.497   4.435   9.558 -2.3102 -1.3224 -0.2461
43651SOL     OW34544   1.275   5.819   7.259  0.8239  0.2752 -1.0510
43651SOL    HW134545   1.357   5.840   7.304  0.6365 -0.5469 -0.2897
43651SOL    HW234546   1.210   5.875   7.301  1.0508  1.2328 -1.9401
43652SOL     OW34547   9.610   9.242   0.170 -0.3929 -0.4856  0.2449
43652SOL    HW134548   9.542   9.229   0.104 -0.9585 -0.9179  0.8976
43652SOL    HW234549   9.593   9.330   0.203  0.4622  0.1014 -0.8116
43653SOL     OW34550   5.968   3.576   0.888  0.1593  0.2017  0.5153
43653SOL    HW134551   6.006   3.655   0.926  0.6453 -0.1978  0.8719
43653SOL    HW234552   5.904   3.609   0.824  0.9734  0.8872  0.0300
43654SOL     OW34553   1.020   1.135   3.264 -0.2811 -0.4212  0.0502
43654SOL    HW134554   0.993   1.056   3.216  2.1272 -0.6380 -1.1008
43654SOL    HW234555   1.041   1.104   3.352 -3.3576 -0.2691  0.9431
43655SOL     OW34556  10.913   7.721   7.441  0.1743 -0.0006 -0.1495
43655SOL    HW134557  10.912   7.758   7.352  3.4789  0.0073 -0.3371
43655SOL    HW234558  10.915   7.627   7.428 -1.0648 -0.0582  0.0173
43656SOL     OW34559   1.074   3.219  10.368 -0.2399  0.0365 -0.2659
43656SOL    HW134560   1.094   3.290  10.429 -1.9021  0.3653 -0.0441
43656SOL    HW234561   0.987   3.189  10.395  0.9327 -3.0512  0.5636
43657SOL     OW34562   3.572   9.980   7.197 -0.5161  0.0816 -0.0491
43657SOL    HW134563   3.649   9.995   7.143  0.4526  0.8253  1.4766
43657SOL    HW234564   3.599   9.912   7.259 -1.4184 -0.3752 -0.1481
43658SOL     OW34565  10.062   7.346   5.346 -0.0100 -0.4095 -0.2449
43658SOL    HW134566  10.108   7.387   5.419 -1.5024  0.2098  0.3980
43658SOL    HW234567  10.006   7.416   5.310  0.3076 -0.8440 -1.6620
43659SOL     OW34568   0.339   2.498   9.570 -0.6764  0.2276 -0.3468
43659SOL    HW134569   0.379   2.464   9.490 -1.5957  0.0652 -0.7550
43659SOL    HW234570   0.353   2.429   9.635 -1.6103 -0.5148 -0.8951
43660SOL     OW34571   7.052   6.578   2.187  0.1602 -0.0129  0.7622
43660SOL    HW134572   7.128   6.582   2.245 -0.0120  0.0194  0.9881
43660SOL    HW234573   7.052   6.661   2.141  1.7009 -0.9645 -1.0824
43661SOL     OW34574   7.876   4.437   1.474  0.0178 -0.2284  0.6837
43661SOL    HW134575   7.953   4.414   1.525 -0.2340  0.8520  1.5973
43661SOL    HW234576   7.809   4.375   1.502 -0.1190  0.3630  1.7056
43662SOL     OW34577   2.541   7.853   0.149  0.1996  0.0416  0.4099
43662SOL    HW134578   2.521   7.817   0.062  0.5484 -2.3219  1.2415
43662SOL    HW234579   2.636   7.856   0.153  0.2159  2.5920 -0.1619
43663SOL     OW34580   7.956   5.779   1.176  0.0924  0.0531 -0.4806
43663SOL    HW134581   7.877   5.766   1.123 -0.4246 -0.8883  0.4691
43663SOL    HW234582   7.937   5.855   1.230 -0.3688 -0.4427  0.0711
43664SOL     OW34583   8.850  10.583   0.503 -0.2095  0.3120  0.3271
43664SOL    HW134584   8.905  10.525   0.556 -0.3258 -0.2499 -0.1631
43664SOL    HW234585   8.761  10.565   0.532 -0.1386  1.3598  1.2561
43665SOL     OW34586   0.380   7.054   1.109 -0.1970 -0.0847  0.2367
43665SOL    HW134587   0.436   7.081   1.036 -0.8919  0.3498 -0.1439
43665SOL    HW234588   0.355   6.964   1.088 -1.0599  0.3042 -0.5043
43666SOL     OW34589   9.749   2.886   9.402  0.3195 -0.2278 -0.0621
43666SOL    HW134590   9.682   2.861   9.466  1.0734 -0.1701  0.7761
43666SOL    HW234591   9.832   2.861   9.444  0.8659  0.4297 -0.7319
43667SOL     OW34592   6.413   5.269   4.879 -0.3508  0.2937  0.6200
43667SOL    HW134593   6.369   5.184   4.880  1.9867 -1.0246 -0.4152
43667SOL    HW234594   6.454   5.276   4.965  1.3300 -0.7713 -0.0312
43668SOL     OW34595   1.769   1.258   9.914  0.2051 -0.7791  0.1765
43668SOL    HW134596   1.724   1.212   9.985 -0.2022 -0.9014 -0.1568
43668SOL    HW234597   1.780   1.347   9.946  0.3973 -0.9374  0.5585
43669SOL     OW34598   3.656   7.361   5.549  0.4328 -0.0259  0.1025
43669SOL    HW134599   3.722   7.293   5.533  0.6932  0.2092  0.1741
43669SOL    HW234600   3.706   7.442   5.553  0.1935  0.1002  0.6223
43670SOL     OW34601   9.391   7.770   2.161  0.2083 -0.5607  0.7408
43670SOL    HW134602   9.394   7.863   2.182 -0.3039 -0.5174  0.6443
43670SOL    HW234603   9.480   7.739   2.175  0.7168  0.2375 -0.6275
43671SOL     OW34604   4.218   8.645   9.133 -0.0585 -0.0840 -0.0550
43671SOL    HW134605   4.174   8.716   9.178 -1.4041 -0.4699 -0.7330
43671SOL    HW234606   4.148   8.587   9.103  0.9675 -1.5093  0.1547
43672SOL     OW34607   8.068   3.941   9.652  0.2600  0.5577  0.0217
43672SOL    HW134608   8.163   3.930   9.664  0.3075  1.0131  0.0885
43672SOL    HW234609   8.030   3.863   9.692  0.4872  1.3546  1.9397
43673SOL     OW34610   6.913   2.452   2.033  0.3388  0.2176  0.0722
43673SOL    HW134611   6.862   2.499   2.099  0.7533  0.5107  0.1851
43673SOL    HW234612   6.904   2.360   2.056  1.7190  0.3924  1.4575
43674SOL     OW34613   2.234   8.612  10.851  0.1153 -0.3907 -0.1021
43674SOL    HW134614   2.218   8.622  10.945  1.5323  0.3356  0.0985
43674SOL    HW234615   2.156   8.568  10.817 -1.7172  1.8345  0.9241
43675SOL     OW34616   9.841   9.749   5.020 -0.0889  0.3460 -0.1822
43675SOL    HW134617   9.767   9.715   5.072 -0.5672  1.2169 -0.2714
43675SOL    HW234618   9.906   9.679   5.023 -1.3194 -0.8971 -0.9704
43676SOL     OW34619   2.922   1.596   8.109 -0.1250  0.7655 -0.1928
43676SOL    HW134620   3.015   1.599   8.132 -0.2538  0.8647  0.3076
43676SOL    HW234621   2.886   1.527   8.165 -0.4718  1.1222  0.0246
43677SOL     OW34622   6.453   7.492   8.141  0.2505  0.6730  0.7000
43677SOL    HW134623   6.548   7.502   8.137  0.2068  0.9190  0.1219
43677SOL    HW234624   6.429   7.518   8.230  0.7269  0.5809  0.8556
43678SOL     OW34625   8.576   6.092   0.794 -0.5380  0.3466  1.1282
43678SOL    HW134626   8.582   6.030   0.867 -0.1968 -2.1459 -0.8549
43678SOL    HW234627   8.635   6.163   0.819  3.4505 -2.6675  1.3442
43679SOL     OW34628   4.807   9.710   5.123  0.2961 -0.2045  0.1661
43679SOL    HW134629   4.797   9.679   5.033 -1.0360  0.3633  0.0939
43679SOL    HW234630   4.896   9.747   5.125  1.6636 -3.2444  0.0787
43680SOL     OW34631   5.581   1.022   4.705  0.0944  0.0483  0.1725
43680SOL    HW134632   5.489   1.047   4.720  0.3939  0.1782  1.9792
43680SOL    HW234633   5.631   1.091   4.748  0.9911 -1.5180  1.7400
43681SOL     OW34634   5.930   1.006   5.630 -0.0956 -0.7239  0.2234
43681SOL    HW134635   5.952   0.951   5.705 -0.0295 -0.4167  0.4298
43681SOL    HW234636   5.854   0.963   5.590 -1.5676  0.2819  1.7653
43682SOL     OW34637   6.262   3.748   9.025 -0.4424  0.2148  0.4349
43682SOL    HW134638   6.201   3.721   8.956  0.0073 -0.3274  0.2348
43682SOL    HW234639   6.326   3.676   9.029  1.0053  1.3923 -0.3411
43683SOL     OW34640   7.126   4.047   0.347 -0.1443 -0.2355 -0.5798
43683SOL    HW134641   7.122   3.958   0.381 -2.4643 -0.4687 -1.2347
43683SOL    HW234642   7.167   4.039   0.261 -0.1259 -0.6410 -0.5311
43684SOL     OW34643  10.266   4.084   2.306  0.4817 -0.3756  0.0681
43684SOL    HW134644  10.264   4.129   2.391 -0.2817  2.1327 -1.1800
43684SOL    HW234645  10.282   3.993   2.328  1.8444  0.4203  2.8027
43685SOL     OW34646   1.616   7.748   3.728  0.0980 -0.6968  0.1423
43685SOL    HW134647   1.673   7.731   3.654  2.0157 -1.1332  1.6243
43685SOL    HW234648   1.531   7.771   3.690  1.1878 -0.2908 -2.1380
43686SOL     OW34649   5.021   4.685   6.562 -0.5159 -0.2558 -0.1454
43686SOL    HW134650   5.051   4.596   6.547 -0.8214 -0.0138 -2.7383
43686SOL    HW234651   5.080   4.719   6.630  0.4913 -1.9740 -0.0988
43687SOL     OW34652  10.900   6.766  10.522  0.8545  0.0701  0.1279
43687SOL    HW134653  10.887   6.851  10.564  3.7301 -0.6156  2.7300
43687SOL    HW234654  10.837   6.709  10.564  1.3438  0.1710  1.0226
43688SOL     OW34655   1.511   7.915   2.233  0.8080  0.1587 -0.6306
43688SOL    HW134656   1.581   7.850   2.237  2.2946  1.6478 -1.4244
43688SOL    HW234657   1.525   7.959   2.150  0.3133  1.9977  0.2267
43689SOL     OW34658   0.791   1.000   8.841 -0.1864 -0.1446  0.2284
43689SOL    HW134659   0.879   1.011   8.806 -0.5026 -1.6036 -1.1385
43689SOL    HW234660   0.797   0.923   8.898  0.1129  1.6775  2.8739
43690SOL     OW34661   3.149   7.852   9.560 -0.1665  0.2209  0.1456
43690SOL    HW134662   3.135   7.922   9.496  0.4483 -0.3557 -0.6385
43690SOL    HW234663   3.163   7.898   9.643 -0.6625  0.9900 -0.1789
43691SOL     OW34664   1.713  10.482   1.847 -0.2291 -0.8100 -0.4394
43691SOL    HW134665   1.637  10.437   1.810 -0.5133 -0.4736 -0.2720
43691SOL    HW234666   1.789  10.437   1.809 -0.5118 -1.0654 -0.7050
43692SOL     OW34667   9.132   1.433   9.447  0.0758 -0.0561  0.0570
43692SOL    HW134668   9.072   1.423   9.522  0.3589 -0.8052  0.1970
43692SOL    HW234669   9.117   1.354   9.395  1.0258 -0.3163  0.1636
43693SOL     OW34670  11.061   9.287   4.687  0.3252 -0.3879 -0.4941
43693SOL    HW134671  11.074   9.303   4.781  1.3402 -1.5222 -0.4060
43693SOL    HW234672  11.085   9.195   4.676 -0.0016 -0.3197 -1.8310
43694SOL     OW34673   6.739   8.840   4.478 -0.3722  0.1797 -0.3262
43694SOL    HW134674   6.831   8.846   4.504 -0.3353 -0.5292 -0.2726
43694SOL    HW234675   6.741   8.792   4.395 -0.7490 -0.6844  0.1435
43695SOL     OW34676   2.413   0.581   5.257  0.0694 -0.0169 -0.2349
43695SOL    HW134677   2.478   0.540   5.315  0.8601 -2.2633 -2.5432
43695SOL    HW234678   2.345   0.514   5.246 -0.5287  0.7135 -1.1812
43696SOL     OW34679   2.286   6.630   7.645 -0.4456 -0.2172  0.1486
43696SOL    HW134680   2.304   6.642   7.738  0.0387 -0.1581  0.0462
43696SOL    HW234681   2.366   6.657   7.601 -0.8197  0.1703 -0.3093
43697SOL     OW34682   6.879   6.260   1.580 -0.0878 -0.1676 -0.6317
43697SOL    HW134683   6.893   6.174   1.538  1.2892  0.0198 -0.5817
43697SOL    HW234684   6.927   6.255   1.662 -1.5153  0.0247  0.2471
43698SOL     OW34685   7.905   3.722   0.167 -0.2396 -0.4748  0.2497
43698SOL    HW134686   7.875   3.631   0.168  1.9187 -1.2424  0.0274
43698SOL    HW234687   7.904   3.749   0.259  1.9294 -1.7644  0.7041
43699SOL     OW34688   4.716   3.082   6.740  0.5332  0.0972  0.2615
43699SOL    HW134689   4.786   3.038   6.788  0.2996 -0.8385 -0.2301
43699SOL    HW234690   4.636   3.055   6.784  0.2743 -1.1610 -0.9017
43700SOL     OW34691  10.408  10.949   0.465  0.3140  0.1748  0.2305
43700SOL    HW134692  10.346  11.012   0.428 -0.1328 -0.2430  0.2606
43700SOL    HW234693  10.354  10.880   0.501  0.8026 -0.2458  0.1743
43701SOL     OW34694   4.453   9.313   0.077 -0.0839 -0.3916  0.3668
43701SOL    HW134695   4.507   9.279   0.005  0.5736  1.0330  0.1332
43701SOL    HW234696   4.516   9.333   0.146 -0.7873 -2.3772  1.6451
43702SOL     OW34697  11.061   7.646   9.484 -0.3238 -0.0731  0.1016
43702SOL    HW134698  11.039   7.555   9.503  1.5676 -0.9748 -1.7358
43702SOL    HW234699  11.120   7.642   9.409  0.5242  2.6233  0.5146
43703SOL     OW34700   0.630   3.313   8.627  0.1132 -0.1456 -0.0334
43703SOL    HW134701   0.599   3.373   8.559  0.2692 -0.5241 -0.4435
43703SOL    HW234702   0.590   3.229   8.604 -0.1916 -0.1808  0.5973
43704SOL     OW34703   9.425   1.203   4.577 -0.6541  0.1404  0.1481
43704SOL    HW134704   9.499   1.167   4.626  0.1374  0.1505 -0.9925
43704SOL    HW234705   9.378   1.126   4.545 -0.2019  0.1180 -0.4775
43705SOL     OW34706   1.312   5.448   9.344  0.6384  0.0223  0.2535
43705SOL    HW134707   1.228   5.419   9.378 -0.0476 -1.9023 -2.6994
43705SOL    HW234708   1.294   5.534   9.307  1.1530  1.6588  3.5143
43706SOL     OW34709   6.822   1.306   4.860  0.2648 -0.2502  0.8450
43706SOL    HW134710   6.899   1.314   4.804 -0.9156  0.8311 -0.7304
43706SOL    HW234711   6.854   1.266   4.941  2.1624 -1.2742 -0.3565
43707SOL     OW34712   2.468   6.951  10.222  0.7635  0.7068  0.3103
43707SOL    HW134713   2.439   7.038  10.192 -1.4067 -0.1861 -0.4080
43707SOL    HW234714   2.390   6.913  10.263  1.4285 -1.2130 -0.1149
43708SOL     OW34715   6.445   6.029   9.741  0.3013 -0.2363  0.2065
43708SOL    HW134716   6.400   6.108   9.771  1.0736  0.2502  0.1424
43708SOL    HW234717   6.518   6.019   9.803 -0.0713 -1.1925  0.5085
43709SOL     OW34718   5.757  11.006   5.637 -0.4356  0.4174 -0.7317
43709SOL    HW134719   5.843  11.048   5.636 -0.2497  0.0610  0.0533
43709SOL    HW234720   5.734  10.999   5.729 -1.8644  1.6082 -0.9540
43710SOL     OW34721   4.001   1.894   8.541  1.1896  0.3858 -0.1512
43710SOL    HW134722   3.945   1.962   8.504  1.7215  0.3634 -1.0302
43710SOL    HW234723   4.014   1.921   8.632 -2.3377 -0.9342  0.9303
43711SOL     OW34724  10.137   5.422  10.842  0.2679 -0.1268 -0.6117
43711SOL    HW134725  10.205   5.357  10.823 -0.0369 -0.5849 -0.1810
43711SOL    HW234726  10.106   5.451  10.756 -0.3007 -1.3193 -0.8356
43712SOL     OW34727   7.870   0.520   7.668  0.3001  0.0629 -0.0370
43712SOL    HW134728   7.886   0.581   7.596 -0.0117 -1.3210 -1.3261
43712SOL    HW234729   7.782   0.487   7.653  0.2172 -0.2385  1.0006
43713SOL     OW34730   0.360   4.488   3.093  0.0858 -0.5427  0.4108
43713SOL    HW134731   0.281   4.483   3.039  0.7780  0.6875 -0.7607
43713SOL    HW234732   0.380   4.581   3.098  1.2511 -0.8085  1.0363
43714SOL     OW34733   2.061   0.911   8.087  0.4971 -0.4250 -0.2888
43714SOL    HW134734   2.099   0.823   8.080  0.8329 -0.3208  0.1619
43714SOL    HW234735   2.083   0.939   8.176 -0.6854 -0.3753  0.0002
43715SOL     OW34736   2.846   0.868   5.602  0.2796  0.5358  0.1979
43715SOL    HW134737   2.918   0.807   5.615 -0.0202 -0.2642 -1.6495
43715SOL    HW234738   2.839   0.915   5.685  2.6353  0.3458  0.5624
43716SOL     OW34739   1.011   1.169   8.474 -0.0571  0.2790  0.6017
43716SOL    HW134740   0.967   1.119   8.405 -1.2302 -0.5327  1.8757
43716SOL    HW234741   1.104   1.157   8.456 -0.3066 -1.8288  0.4461
43717SOL     OW34742   8.502   8.829   7.302 -0.1065  0.1947 -0.6090
43717SOL    HW134743   8.508   8.737   7.274 -1.0104 -1.3418  3.6017
43717SOL    HW234744   8.573   8.872   7.254  1.1075 -2.9203 -1.9328
43718SOL     OW34745   8.002   7.685  10.666  0.2831 -0.3093 -0.3005
43718SOL    HW134746   8.058   7.611  10.641  1.8533  0.8843 -0.4735
43718SOL    HW234747   7.997   7.680  10.761  0.1776 -0.7789 -0.3304
43719SOL     OW34748   4.589   7.771  10.673  0.1533  0.0532  0.0500
43719SOL    HW134749   4.606   7.807  10.760 -0.1917 -1.2162  0.6740
43719SOL    HW234750   4.673   7.731  10.648  0.2041  0.2703 -0.1220
43720SOL     OW34751   1.054   6.422   9.218  0.2171  0.5054  0.5041
43720SOL    HW134752   1.090   6.476   9.148  1.1251  0.5647  1.0126
43720SOL    HW234753   1.095   6.336   9.206 -0.7586  0.0851  0.0679
43721SOL     OW34754   7.074   7.063   0.911 -0.6377 -0.2604 -0.4061
43721SOL    HW134755   7.053   7.014   0.990  1.7293  0.0482  0.5050
43721SOL    HW234756   7.026   7.018   0.841 -2.9163 -0.4325  1.1797
43722SOL     OW34757   3.326   6.920   3.568  0.5365 -1.2895 -0.3889
43722SOL    HW134758   3.387   6.857   3.529  0.7656 -1.5041  0.3080
43722SOL    HW234759   3.322   6.896   3.660 -0.7146 -1.3677 -0.4457
43723SOL     OW34760   9.338   3.945   8.897 -0.2469  0.3305  0.2270
43723SOL    HW134761   9.374   4.033   8.888  1.9188 -0.5545 -0.2403
43723SOL    HW234762   9.317   3.918   8.808  0.6283 -0.2182  0.1774
43724SOL     OW34763  10.267   7.365   8.759  0.2533 -0.1608  0.0474
43724SOL    HW134764  10.190   7.409   8.795 -0.3643 -2.4893  1.8712
43724SOL    HW234765  10.336   7.432   8.759 -1.3467  1.5554 -0.1349
43725SOL     OW34766   6.693   4.287   2.119 -0.0807 -0.3755 -0.2662
43725SOL    HW134767   6.656   4.237   2.047  0.2781  0.2136 -0.8750
43725SOL    HW234768   6.679   4.379   2.094 -2.7517 -0.0559  1.8293
43726SOL     OW34769   0.429   1.356   1.288  0.3602 -0.1513  0.4530
43726SOL    HW134770   0.421   1.267   1.323  0.6877 -0.5680 -0.5193
43726SOL    HW234771   0.515   1.359   1.247 -0.3967 -0.0122 -1.2226
43727SOL     OW34772   5.628   7.590   8.963  0.5829 -0.3030 -0.5941
43727SOL    HW134773   5.651   7.583   9.056 -0.6596 -0.4171 -0.2798
43727SOL    HW234774   5.536   7.618   8.963  0.9620  1.0676 -1.7950
43728SOL     OW34775   4.427   6.991   3.043 -0.0872 -0.7614  0.8960
43728SOL    HW134776   4.350   7.030   3.001  1.1077  1.0933  0.2820
43728SOL    HW234777   4.481   6.959   2.971  1.8485  2.1879  0.8433
43729SOL     OW34778  10.993   6.073  10.171 -0.0272  0.1995 -0.0233
43729SOL    HW134779  10.951   6.152  10.203  2.0721  1.4391 -0.1453
43729SOL    HW234780  10.921   6.019  10.138 -1.6136  1.5816  0.9979
43730SOL     OW34781   4.345   6.546   7.618 -0.4538 -0.2886  0.1287
43730SOL    HW134782   4.275   6.558   7.682 -0.8453 -0.4846 -0.2608
43730SOL    HW234783   4.388   6.632   7.614 -1.6422  0.2907 -0.7694
43731SOL     OW34784  10.545   6.637   7.112 -0.0692  0.2618 -0.0223
43731SOL    HW134785  10.561   6.542   7.114 -0.6654  0.1490 -0.4770
43731SOL    HW234786  10.592   6.670   7.189 -0.2107 -0.4602  0.3861
43732SOL     OW34787   8.619  10.151   6.666 -0.2621 -0.6145  0.1474
43732SOL    HW134788   8.611  10.069   6.617 -2.6297 -0.8588  0.8179
43732SOL    HW234789   8.570  10.215   6.615 -0.6790 -0.2799  0.9445
43733SOL     OW34790   2.657   5.922   5.226 -0.1931 -0.2027  0.7685
43733SOL    HW134791   2.698   5.854   5.279  0.2375 -0.8162 -0.3131
43733SOL    HW234792   2.568   5.930   5.262 -0.3246 -1.4875  0.8065
43734SOL     OW34793  10.478  10.194   3.137 -0.6890  0.6960 -0.2043
43734SOL    HW134794  10.392  10.228   3.110 -0.7215 -0.0736 -1.1161
43734SOL    HW234795  10.463  10.156   3.223 -0.9528  1.7499  0.2343
43735SOL     OW34796   8.175  10.883   0.431  0.7016 -0.1496 -0.0245
43735SOL    HW134797   8.116  10.878   0.506  0.8139 -0.3177  0.0530
43735SOL    HW234798   8.203  10.792   0.416  0.4198 -0.1692 -0.4744
43736SOL     OW34799   9.065   6.065   0.729 -0.4327 -0.0670  0.1149
43736SOL    HW134800   9.096   5.975   0.742  1.5305  0.6790  1.1172
43736SOL    HW234801   9.125   6.100   0.663 -1.0920  0.5617 -0.1542
43737SOL     OW34802   2.207   5.589   7.284  0.2725  0.4097  0.0441
43737SOL    HW134803   2.245   5.504   7.260 -0.1066  0.1516  0.3351
43737SOL    HW234804   2.114   5.579   7.265  0.0355  0.3533  1.1568
43738SOL     OW34805   2.215   5.599   6.258  0.3978  0.5634  0.1788
43738SOL    HW134806   2.195   5.506   6.256 -0.8002  0.8231 -1.1602
43738SOL    HW234807   2.301   5.606   6.217 -0.2502  0.1911 -1.3159
43739SOL     OW34808   3.495   5.471   9.463 -0.2532  0.2576  0.2589
43739SOL    HW134809   3.551   5.435   9.394  0.5489  0.0933  0.9797
43739SOL    HW234810   3.450   5.395   9.499 -0.3278  0.2826  0.2175
43740SOL     OW34811   9.831   6.653   2.563  0.1175 -0.0288 -0.1257
43740SOL    HW134812   9.884   6.596   2.620 -2.3713 -2.8975 -0.4238
43740SOL    HW234813   9.807   6.726   2.620  1.6062 -0.3439  1.0022
43741SOL     OW34814   0.657   4.583   4.966 -0.8464  0.2177  0.3490
43741SOL    HW134815   0.614   4.649   5.020 -0.5883  0.2834  0.4764
43741SOL    HW234816   0.587   4.546   4.912 -0.8594  1.1285 -0.2752
43742SOL     OW34817   4.601   3.464   3.609  0.6230  0.3361  0.0677
43742SOL    HW134818   4.656   3.488   3.684 -1.4120  0.2412  1.6949
43742SOL    HW234819   4.582   3.547   3.565  1.3226  0.4744  0.0173
43743SOL     OW34820   9.460   7.873   1.740 -0.2992  0.2179 -0.1792
43743SOL    HW134821   9.383   7.822   1.716  0.5865 -0.3796 -1.9551
43743SOL    HW234822   9.519   7.809   1.781  1.2276 -0.5987 -3.3033
43744SOL     OW34823   7.502   7.402   2.450 -0.3389 -0.0641 -0.1454
43744SOL    HW134824   7.488   7.487   2.408 -0.9656  0.1928  0.5580
43744SOL    HW234825   7.557   7.422   2.526  0.2136 -0.4175 -0.4537
43745SOL     OW34826   7.224   6.396   4.554 -0.5346  0.5731  0.0140
43745SOL    HW134827   7.165   6.367   4.625  0.1616 -0.1875  0.2986
43745SOL    HW234828   7.306   6.416   4.599  0.2452 -0.9342 -0.6931
43746SOL     OW34829   2.330   3.362   7.646  0.0828  0.5889 -0.1380
43746SOL    HW134830   2.340   3.361   7.551 -0.2610 -1.4678 -0.2058
43746SOL    HW234831   2.329   3.455   7.669 -0.4166  1.1573 -2.2004
43747SOL     OW34832   4.222   5.623   4.622  0.1455  0.1651  0.1482
43747SOL    HW134833   4.193   5.678   4.694 -0.1007 -0.6264  0.6697
43747SOL    HW234834   4.312   5.600   4.644  0.1089  0.0177  0.1436
43748SOL     OW34835   9.115   7.830   2.614  0.2701  0.2276  0.4404
43748SOL    HW134836   9.067   7.761   2.569 -1.0447  0.8794  0.7684
43748SOL    HW234837   9.099   7.814   2.707  0.9573  0.2740  0.5679
43749SOL     OW34838   5.350   6.676  10.710  0.5627  1.3475  0.2537
43749SOL    HW134839   5.337   6.585  10.734 -0.9349  0.9662 -1.7605
43749SOL    HW234840   5.443   6.682  10.689  0.0707 -0.8729 -3.5222
43750SOL     OW34841   2.652   7.823   6.256  0.6718  0.2809  0.1211
43750SOL    HW134842   2.708   7.794   6.328  1.6508 -0.0423 -0.7409
43750SOL    HW234843   2.668   7.760   6.186 -0.8321  0.1477 -0.1398
43751SOL     OW34844   6.232   6.729   4.623 -0.4364  0.0354 -0.0720
43751SOL    HW134845   6.159   6.791   4.622 -0.0623  0.4922  0.0872
43751SOL    HW234846   6.265   6.730   4.533  1.4494  2.3982  0.5096
43752SOL     OW34847   2.735   1.053   0.744 -0.2926 -0.1329  0.1036
43752SOL    HW134848   2.818   1.041   0.790 -0.0539  2.5054  0.4768
43752SOL    HW234849   2.758   1.047   0.651  0.2334  0.1335  0.2150
43753SOL     OW34850   2.608   5.542  10.231 -0.4794 -0.2698 -0.5864
43753SOL    HW134851   2.613   5.451  10.204 -0.0636  0.3118 -2.6180
43753SOL    HW234852   2.682   5.554  10.291 -0.6680 -1.3028 -0.1340
43754SOL     OW34853   1.494   3.200   5.987  0.5694  0.2241 -0.5241
43754SOL    HW134854   1.544   3.191   5.906  0.0838 -2.5536 -0.6039
43754SOL    HW234855   1.544   3.150   6.052 -0.1550  0.5984  0.3472
43755SOL     OW34856   9.935   5.710  10.098 -0.6403 -0.0166 -0.3425
43755SOL    HW134857   9.861   5.705  10.158 -0.2616  0.0379  0.1401
43755SOL    HW234858   9.920   5.790  10.048 -0.1472  0.8313  0.8077
43756SOL     OW34859   7.214   7.102   4.320 -0.1336 -0.4115  0.5175
43756SOL    HW134860   7.258   7.039   4.377  0.0293 -2.5990 -1.8059
43756SOL    HW234861   7.121   7.079   4.326  0.0244 -1.7999 -1.1795
43757SOL     OW34862   7.190   5.704   7.516 -0.2408  0.2707  0.5235
43757SOL    HW134863   7.204   5.723   7.608  0.3481 -3.1254  1.2716
43757SOL    HW234864   7.276   5.679   7.483 -0.6930  0.0481 -0.5505
43758SOL     OW34865   6.667  10.155   6.787  0.1798  0.5164  0.1776
43758SOL    HW134866   6.645  10.207   6.711 -1.5783 -1.3427 -0.6676
43758SOL    HW234867   6.618  10.195   6.859 -1.4291 -0.1309 -0.5284
43759SOL     OW34868   0.930   1.897   6.439  0.3011  0.0283 -0.2329
43759SOL    HW134869   1.008   1.865   6.394 -0.7529 -1.9494 -0.7594
43759SOL    HW234870   0.882   1.945   6.372 -0.6749 -1.8839 -0.9787
43760SOL     OW34871   5.895   8.915   4.654  0.5745 -0.0855 -0.1018
43760SOL    HW134872   5.821   8.975   4.650  0.4848 -0.1880  0.0332
43760SOL    HW234873   5.940   8.927   4.570 -0.5072 -1.2014 -0.8834
43761SOL     OW34874   2.821   6.822  10.435  0.0957  0.1188 -0.2008
43761SOL    HW134875   2.764   6.898  10.443  0.5444  0.4163  0.2238
43761SOL    HW234876   2.883   6.846  10.366 -0.9899 -0.6601 -1.4823
43762SOL     OW34877   5.188   0.049   1.888  0.0359  0.6167 -0.0004
43762SOL    HW134878   5.096   0.052   1.914  0.3816  0.4106  1.2745
43762SOL    HW234879   5.216   0.140   1.888 -0.3942  0.7799 -1.3234
43763SOL     OW34880   7.277  10.129   4.655  0.0191 -0.6003 -0.4067
43763SOL    HW134881   7.200  10.173   4.620  0.9711  2.4470  1.0105
43763SOL    HW234882   7.242  10.059   4.710 -1.6041 -1.1205 -2.0145
43764SOL     OW34883   2.801   3.488   3.186 -0.2282 -0.5918 -0.1248
43764SOL    HW134884   2.825   3.421   3.122 -0.3730 -1.0475  0.2931
43764SOL    HW234885   2.709   3.506   3.168 -0.1474 -0.3935 -0.3383
43765SOL     OW34886   4.231   9.921   1.027  0.9462  0.1554  0.6262
43765SOL    HW134887   4.156   9.866   1.048  0.7085 -0.6258 -1.8846
43765SOL    HW234888   4.231   9.989   1.094 -0.3538 -1.3538  2.2583
43766SOL     OW34889   3.937  10.184   5.884 -0.2466  0.0199 -0.1268
43766SOL    HW134890   4.008  10.192   5.820  1.8033 -0.7625  1.9006
43766SOL    HW234891   3.915  10.091   5.884 -0.1105 -0.0137  0.4157
43767SOL     OW34892   9.036   2.101   3.784 -0.0442  0.7149  0.6965
43767SOL    HW134893   9.052   2.068   3.872 -0.0591 -2.4933 -0.3504
43767SOL    HW234894   8.941   2.093   3.772 -0.0301  1.0332  0.3742
43768SOL     OW34895   6.129   2.712   1.996 -0.2636 -0.2361 -0.1589
43768SOL    HW134896   6.194   2.741   1.931  0.6765 -0.0518  0.8318
43768SOL    HW234897   6.178   2.654   2.054 -0.4617  1.3491  1.7182
43769SOL     OW34898   1.583   9.646   1.759 -0.0026  0.8511 -0.4365
43769SOL    HW134899   1.675   9.655   1.733  0.1000 -0.6926 -0.6667
43769SOL    HW234900   1.548   9.578   1.702 -0.1542 -1.6458  2.4192
43770SOL     OW34901  10.587   7.008   8.989  0.2365  0.1136 -0.4141
43770SOL    HW134902  10.611   7.093   9.023  1.1819  0.8299 -2.6600
43770SOL    HW234903  10.514   7.026   8.930 -0.6974 -0.9135  0.3888
43771SOL     OW34904   0.353   6.531   1.862 -0.2214  0.6890 -0.1539
43771SOL    HW134905   0.326   6.562   1.949 -0.6776  2.2459 -0.8188
43771SOL    HW234906   0.396   6.606   1.822  0.0417 -0.0303 -1.2630
43772SOL     OW34907   3.603   0.492  10.436 -0.9370  0.3550  0.3477
43772SOL    HW134908   3.698   0.491  10.451 -0.8671  0.6448 -0.0516
43772SOL    HW234909   3.592   0.440  10.356 -1.1690 -0.1100  0.6802
43773SOL     OW34910   8.223   3.193   8.151 -0.0672 -0.0120  0.1751
43773SOL    HW134911   8.237   3.210   8.058 -2.4203  0.8517 -0.1036
43773SOL    HW234912   8.130   3.170   8.156 -0.4489  1.7229  2.5161
43774SOL     OW34913  11.053   7.749   3.074  0.5912 -0.3529  0.1336
43774SOL    HW134914  11.057   7.789   2.987  2.7023  0.7452  0.6831
43774SOL    HW234915  11.032   7.821   3.133  2.5210 -0.3575  0.8970
43775SOL     OW34916   6.629   9.644   1.662  0.2317  0.3665 -0.0267
43775SOL    HW134917   6.565   9.645   1.591 -0.0679  0.1083  0.2352
43775SOL    HW234918   6.583   9.602   1.735  0.7972 -0.0843  0.0739
43776SOL     OW34919   9.293   3.300   9.609 -0.0081 -0.0688 -0.4128
43776SOL    HW134920   9.347   3.313   9.687  1.0024  0.1002 -1.1334
43776SOL    HW234921   9.229   3.372   9.612 -0.6512 -0.6561  0.7963
43777SOL     OW34922   5.020   2.818   6.715 -0.2220 -0.7681 -0.1420
43777SOL    HW134923   5.086   2.884   6.695 -1.5795  0.8367  0.4805
43777SOL    HW234924   4.956   2.825   6.644 -0.5926 -1.1331  0.1510
43778SOL     OW34925   8.856   9.902   5.384  0.7511 -0.5861 -0.3709
43778SOL    HW134926   8.866   9.867   5.473 -0.2468 -0.9242 -0.3728
43778SOL    HW234927   8.762   9.920   5.377  1.2368  2.5501 -0.2213
43779SOL     OW34928   4.210  10.820   5.047 -0.5578 -0.4821 -0.0360
43779SOL    HW134929   4.163  10.887   4.996 -2.5236 -1.0872  0.8919
43779SOL    HW234930   4.276  10.787   4.987 -2.5188 -0.8776 -2.1229
43780SOL     OW34931   8.299   1.100   4.236  0.7563  0.7643 -0.3729
43780SOL    HW134932   8.239   1.161   4.279  0.5138 -0.3939  0.9738
43780SOL    HW234933   8.385   1.140   4.248  0.5882  0.9228  0.3887
43781SOL     OW34934   6.773   8.723   8.561  0.1664 -0.1375 -0.4228
43781SOL    HW134935   6.691   8.770   8.543  0.8278  0.9179 -0.7882
43781SOL    HW234936   6.797   8.748   8.650  0.4644  0.1410 -0.5789
43782SOL     OW34937   8.304  11.004   3.917  0.1216  0.0552 -0.5130
43782SOL    HW134938   8.228  10.953   3.887  0.5597 -0.1206 -1.3382
43782SOL    HW234939   8.335  10.957   3.994 -0.2448 -0.2148 -0.5263
43783SOL     OW34940  10.270   7.529   1.880  0.6371 -0.8556  0.5767
43783SOL    HW134941  10.241   7.606   1.832  1.0543 -0.6317  0.6843
43783SOL    HW234942  10.207   7.520   1.951 -0.8273 -1.9950 -0.7722
43784SOL     OW34943   1.454   6.115   2.199  0.5297  0.0497 -0.3281
43784SOL    HW134944   1.443   6.045   2.263  1.3825  0.9988  0.8967
43784SOL    HW234945   1.369   6.159   2.197 -0.0206 -0.9969 -1.1243
43785SOL     OW34946   3.333   8.913   8.198 -0.2382 -0.1108 -0.1058
43785SOL    HW134947   3.258   8.972   8.208 -1.1995 -1.3139  0.0453
43785SOL    HW234948   3.371   8.909   8.286 -1.6649 -1.6022  0.4916
43786SOL     OW34949   3.175   9.095  10.777  0.0866  0.1924  0.7574
43786SOL    HW134950   3.255   9.042  10.778  0.0837  0.1761  0.2845
43786SOL    HW234951   3.205   9.184  10.793  0.3203  0.3406 -0.4867
43787SOL     OW34952   9.719   3.955   1.845  0.1974  0.3226 -0.1633
43787SOL    HW134953   9.744   4.024   1.783 -1.0577  0.3467 -0.6746
43787SOL    HW234954   9.716   3.875   1.792 -0.7394  0.3180 -0.1133
43788SOL     OW34955   0.919   3.629   8.897  0.4490 -0.0929  0.2255
43788SOL    HW134956   0.885   3.664   8.980  1.1286 -0.1020  0.5086
43788SOL    HW234957   0.901   3.699   8.833 -1.1519 -0.5615  0.1207
43789SOL     OW34958   9.174   4.586   3.956  0.1014 -0.9505  0.3030
43789SOL    HW134959   9.099   4.643   3.974  1.0897  0.4528  0.1505
43789SOL    HW234960   9.210   4.619   3.874  1.8267 -0.5289  1.1669
43790SOL     OW34961   8.225   3.457   1.956 -0.2145  0.8779 -0.3513
43790SOL    HW134962   8.195   3.504   1.878 -0.8977  0.9897 -0.0311
43790SOL    HW234963   8.145   3.439   2.005  0.1771  0.5229  0.1684
43791SOL     OW34964   9.383   7.199   6.744 -0.0606  0.2201 -0.2423
43791SOL    HW134965   9.441   7.133   6.782  0.4366  1.4040  1.1599
43791SOL    HW234966   9.304   7.195   6.797 -0.9539 -0.7605 -1.5803
43792SOL     OW34967   5.653   6.054   9.573 -0.1920 -0.5568  0.0354
43792SOL    HW134968   5.694   6.055   9.486  0.7901 -1.9309  0.4464
43792SOL    HW234969   5.589   5.983   9.568  1.7402 -2.5137  1.1784
43793SOL     OW34970   0.604   9.303   4.793 -0.0198  0.0347 -0.3567
43793SOL    HW134971   0.658   9.238   4.748  0.2916 -0.2342  0.4007
43793SOL    HW234972   0.577   9.363   4.723 -0.6532 -1.1180 -1.1403
43794SOL     OW34973   0.375  10.657   4.685 -0.5359  0.1667  0.0252
43794SOL    HW134974   0.435  10.665   4.610 -0.2069 -0.9300  0.1506
43794SOL    HW234975   0.428  10.615   4.753 -1.3891 -0.6359  0.2044
43795SOL     OW34976   5.012   4.853  10.338  0.3039  0.0907 -0.1094
43795SOL    HW134977   5.058   4.934  10.359 -1.7693  1.0004  1.1985
43795SOL    HW234978   4.933   4.855  10.392 -0.5249 -2.1341 -1.1062
43796SOL     OW34979   2.516   1.623   3.392  0.3448 -0.4362  0.1437
43796SOL    HW134980   2.541   1.579   3.311  1.6719 -2.1280  1.3876
43796SOL    HW234981   2.582   1.692   3.403 -0.2087  0.2187 -0.4900
43797SOL     OW34982   4.539   6.886   4.038 -0.2867  0.4595 -0.1957
43797SOL    HW134983   4.454   6.841   4.034  0.8898 -2.0010  0.4553
43797SOL    HW234984   4.532   6.942   4.116 -0.7015 -1.1909  1.0253
43798SOL     OW34985  10.581   5.859   9.810  0.3958  0.1155  0.0166
43798SOL    HW134986  10.607   5.900   9.892  0.8508 -0.2530  0.0650
43798SOL    HW234987  10.509   5.801   9.834  1.0074 -0.5456  0.2983
43799SOL     OW34988   5.361   1.911  10.429  0.1226 -0.2341  0.1558
43799SOL    HW134989   5.385   1.935  10.518 -0.4220 -0.9853  0.5217
43799SOL    HW234990   5.265   1.908  10.430  0.1281 -0.7377 -0.3108
43800SOL     OW34991   1.014   2.567   8.301 -0.4311  0.1076  0.5619
43800SOL    HW134992   1.085   2.532   8.356  0.1893 -2.1889 -1.5266
43800SOL    HW234993   1.051   2.647   8.262  0.0964  0.2580  1.3392
43801SOL     OW34994   8.222   8.851   3.315 -1.1237  0.4735  0.2406
43801SOL    HW134995   8.183   8.857   3.403 -0.7275 -0.6582  0.5184
43801SOL    HW234996   8.255   8.939   3.297  0.7150  0.2676  2.1600
43802SOL     OW34997   5.287   2.337   5.869 -0.2581  0.0186 -0.2054
43802SOL    HW134998   5.267   2.302   5.782  0.2505 -2.3207  0.5369
43802SOL    HW234999   5.250   2.272   5.930  1.3727  0.4177  1.2921
43803SOL     OW35000   8.333   0.891   0.970  0.1101 -0.0032 -0.3728
43803SOL    HW135001   8.351   0.969   1.022  1.1718  0.7845 -1.8399
43803SOL    HW235002   8.359   0.915   0.881 -1.6712 -1.2811 -1.2959
43804SOL     OW35003   4.072   4.743   3.951 -0.2525 -0.3983 -0.2722
43804SOL    HW135004   4.032   4.725   3.866  1.5496 -1.4965 -0.9541
43804SOL    HW235005   4.082   4.838   3.953 -0.9627 -0.2986 -0.9717
43805SOL     OW35006  10.012   0.807   9.071 -0.3228 -0.6317 -0.1967
43805SOL    HW135007  10.020   0.850   9.156  0.0828  0.1308 -0.6135
43805SOL    HW235008   9.924   0.828   9.041 -0.6954 -1.4253  0.3057
43806SOL     OW35009   9.073  10.704   4.215  0.2228 -0.6567  0.5689
43806SOL    HW135010   9.111  10.774   4.268  2.0655 -1.2907  0.1430
43806SOL    HW235011   9.110  10.717   4.128  0.2884 -1.9217  0.3932
43807SOL     OW35012   8.557   0.773   8.067 -0.1317 -0.0903  0.1045
43807SOL    HW135013   8.464   0.757   8.052 -0.9445  3.9061 -0.2296
43807SOL    HW235014   8.597   0.767   7.980 -0.2138 -0.9510  0.1202
43808SOL     OW35015   2.628  10.827   4.895 -0.0291 -0.2095 -0.7525
43808SOL    HW135016   2.667  10.777   4.824  1.1544  1.0949 -1.0607
43808SOL    HW235017   2.699  10.840   4.958 -0.1563  1.4238 -0.8890
43809SOL     OW35018   8.277   7.924   6.361 -0.4910 -0.4374  0.3381
43809SOL    HW135019   8.323   7.950   6.281  0.6858 -1.1724  0.7593
43809SOL    HW235020   8.343   7.929   6.430 -1.5964  0.5851  1.3697
43810SOL     OW35021  10.266   7.273  10.526  0.5645  0.4765 -0.1637
43810SOL    HW135022  10.339   7.324  10.561  1.6800 -1.0572 -0.1279
43810SOL    HW235023  10.189   7.328  10.540  1.4341  1.3271  1.6376
43811SOL     OW35024   0.727   8.369   7.252  0.0886  0.0790  0.5172
43811SOL    HW135025   0.657   8.319   7.293  0.8807 -0.6129  1.0521
43811SOL    HW235026   0.705   8.461   7.269 -0.3803 -0.1529  1.1820
43812SOL     OW35027  10.216   9.254   3.153  0.0257  0.5949  0.5498
43812SOL    HW135028  10.231   9.197   3.228 -0.7787 -0.2257  0.1039
43812SOL    HW235029  10.192   9.195   3.082 -0.1577  1.4381 -0.1054
43813SOL     OW35030   0.368   9.299  10.728  0.4077 -0.8099  0.1423
43813SOL    HW135031   0.289   9.247  10.712 -0.1373  0.0431 -0.0420
43813SOL    HW235032   0.440   9.241  10.704 -0.1085 -1.9260  1.1731
43814SOL     OW35033   4.384   3.466   7.397 -0.4468 -0.3756  0.1463
43814SOL    HW135034   4.329   3.454   7.319  0.0802 -0.3511 -0.2361
43814SOL    HW235035   4.336   3.527   7.451 -1.0786 -0.8090  0.0874
43815SOL     OW35036   4.878   2.539   9.745 -0.5084 -0.3501 -0.2963
43815SOL    HW135037   4.804   2.492   9.782 -0.9337 -0.6575 -1.4746
43815SOL    HW235038   4.951   2.522   9.805 -0.8471 -1.8875 -0.2970
43816SOL     OW35039   9.324  10.606   6.595  0.1926 -0.6917 -0.4916
43816SOL    HW135040   9.370  10.676   6.642  0.6110 -1.6626  0.5938
43816SOL    HW235041   9.349  10.617   6.504 -0.7182  1.3187 -0.5555
43817SOL     OW35042   8.802   9.804   3.333  0.0620  0.0032 -0.1384
43817SOL    HW135043   8.857   9.871   3.374 -0.5284 -0.9686  2.4334
43817SOL    HW235044   8.864   9.747   3.286  0.7537  1.2661 -0.8062
43818SOL     OW35045   5.081   2.435   3.731 -0.0872  0.2361  0.2663
43818SOL    HW135046   5.096   2.493   3.805  0.2319 -1.1815  1.3485
43818SOL    HW235047   4.986   2.434   3.719 -0.1083  0.7940  0.3691
43819SOL     OW35048   6.239   3.731   8.043  0.4742 -0.2619 -0.5219
43819SOL    HW135049   6.185   3.748   8.120 -0.3211 -1.8062 -0.6862
43819SOL    HW235050   6.199   3.783   7.974  1.5933  1.6698  0.1910
43820SOL     OW35051   7.987   2.009   2.206  0.4666 -0.1845 -0.1674
43820SOL    HW135052   8.013   2.101   2.219  0.8275 -0.4949  1.6460
43820SOL    HW235053   7.892   2.010   2.218  0.4800 -0.0495 -0.0586
43821SOL     OW35054   3.169   2.703   0.197 -0.3865 -0.1258 -0.1195
43821SOL    HW135055   3.234   2.773   0.198  1.1685 -1.4885  1.2238
43821SOL    HW235056   3.189   2.652   0.118 -0.4438 -0.0093 -0.2095
43822SOL     OW35057   3.083  10.360   7.050 -0.1919  0.2354 -0.0336
43822SOL    HW135058   3.068  10.373   6.957 -0.1942  1.9037  0.1648
43822SOL    HW235059   3.105  10.267   7.059  1.6760  0.4238 -1.9440
43823SOL     OW35060  10.352   6.095   7.670 -0.4473 -0.0340 -0.7140
43823SOL    HW135061  10.345   6.006   7.705 -1.3077 -0.0242 -0.8432
43823SOL    HW235062  10.393   6.146   7.740 -0.7625 -0.3377 -0.3070
43824SOL     OW35063   9.716   7.964   0.753  0.2821  0.3264  0.1159
43824SOL    HW135064   9.718   7.955   0.848 -1.5531 -1.2325  0.0806
43824SOL    HW235065   9.744   7.878   0.720  0.0660  0.5639 -0.7146
43825SOL     OW35066   0.299   5.929   7.710  0.1418  0.2915 -0.6920
43825SOL    HW135067   0.248   5.982   7.771  0.0769 -0.1813 -0.3318
43825SOL    HW235068   0.233   5.884   7.657  0.1170 -1.4255  0.7070
43826SOL     OW35069   0.280   3.286   7.726 -0.3594  0.2998 -0.1740
43826SOL    HW135070   0.293   3.220   7.658 -1.9843 -0.7734  0.5008
43826SOL    HW235071   0.367   3.323   7.740  1.1471 -3.1853  0.9050
43827SOL     OW35072   3.932   8.832   7.849  0.5084 -0.7250  0.0388
43827SOL    HW135073   3.872   8.825   7.775  0.4477  1.1526 -0.1555
43827SOL    HW235074   4.019   8.816   7.811  0.3861 -0.7426 -0.2370
43828SOL     OW35075   9.647   1.515   7.334  0.3105  0.3362  0.1191
43828SOL    HW135076   9.561   1.549   7.360  0.5463  0.1802  1.1274
43828SOL    HW235077   9.627   1.433   7.288 -0.0449 -0.0968  1.0270
43829SOL     OW35078   7.651   7.320   0.085 -0.1280  0.2765  0.0790
43829SOL    HW135079   7.608   7.401   0.114 -1.4013 -0.8099  1.3961
43829SOL    HW235080   7.729   7.313   0.140 -0.8481 -0.1617  1.0630
43830SOL     OW35081   6.370   6.751   6.720 -0.0148  0.1762 -0.3864
43830SOL    HW135082   6.275   6.756   6.714 -0.3223 -1.7546  1.7492
43830SOL    HW235083   6.392   6.807   6.794  0.1951 -1.3706  0.7590
43831SOL     OW35084   8.749   9.331   3.708 -0.1082  0.4916 -0.0601
43831SOL    HW135085   8.785   9.413   3.674  1.2239 -0.0904 -0.1047
43831SOL    HW235086   8.811   9.264   3.681 -1.1570 -0.5418  0.0128
43832SOL     OW35087   3.419  10.157   0.840 -0.7972  0.0649 -0.7774
43832SOL    HW135088   3.480  10.216   0.882 -2.1749  1.4382 -0.6182
43832SOL    HW235089   3.411  10.190   0.750 -0.8159 -0.4994 -0.9911
43833SOL     OW35090   4.201   3.029   1.823 -0.1187 -0.2889  0.2157
43833SOL    HW135091   4.262   2.956   1.835  0.5256  0.2919  0.5984
43833SOL    HW235092   4.251   3.093   1.772  0.0973  0.7773  1.6894
43834SOL     OW35093   7.704   8.822   2.394 -0.5541  0.3485 -0.3900
43834SOL    HW135094   7.619   8.786   2.368 -1.0299  0.1631  1.2832
43834SOL    HW235095   7.762   8.746   2.397 -0.7512  0.2137  0.0595
43835SOL     OW35096   9.054   8.431   4.958 -0.2813 -0.3079 -0.3702
43835SOL    HW135097   8.989   8.479   5.010 -1.0405 -0.7686 -0.8770
43835SOL    HW235098   9.014   8.424   4.871  0.4395 -0.6225 -0.6773
43836SOL     OW35099   9.519   2.335   9.687 -0.0272 -0.3228  0.1451
43836SOL    HW135100   9.546   2.417   9.727  1.0001  0.6496 -2.3964
43836SOL    HW235101   9.424   2.342   9.680  0.0043  0.4157  0.4031
43837SOL     OW35102   2.538   2.380   0.896 -0.5146 -0.3186  0.3091
43837SOL    HW135103   2.538   2.299   0.947  1.2419 -0.8252 -0.4034
43837SOL    HW235104   2.473   2.366   0.828 -0.3905 -1.0509  0.3368
43838SOL     OW35105   5.345   5.684  10.928  0.2348 -0.0573 -0.3796
43838SOL    HW135106   5.250   5.689  10.937  0.3603 -0.0412  1.2621
43838SOL    HW235107   5.379   5.726  11.007  1.6114 -0.3464 -0.7835
43839SOL     OW35108  10.773   5.536   5.330 -0.1286  0.1765  0.6864
43839SOL    HW135109  10.784   5.608   5.392  0.5287  0.0264  0.7476
43839SOL    HW235110  10.839   5.551   5.263 -1.2846  0.7227 -0.3769
43840SOL     OW35111   8.576   6.542   1.535  0.4721 -0.0292 -0.3343
43840SOL    HW135112   8.632   6.618   1.519  0.5514 -0.0148  0.0018
43840SOL    HW235113   8.625   6.490   1.599  0.6541 -0.6196 -0.9445
43841SOL     OW35114   4.843   1.650   1.043  0.0086  0.0353  0.2247
43841SOL    HW135115   4.917   1.589   1.040 -0.4539 -0.6066  1.1527
43841SOL    HW235116   4.774   1.601   1.088 -0.5557  1.0604  0.5115
43842SOL     OW35117   3.322   4.736  10.056 -0.6247  0.0093 -0.1544
43842SOL    HW135118   3.243   4.769  10.098 -0.6383 -1.1402  0.7956
43842SOL    HW235119   3.381   4.812  10.052 -0.6536  0.2031  1.9388
43843SOL     OW35120   1.674   2.833   6.463  0.2382  0.0566  0.5994
43843SOL    HW135121   1.654   2.925   6.484  0.9355  0.3481  0.0094
43843SOL    HW235122   1.594   2.786   6.486  0.6961  0.4339  3.3498
43844SOL     OW35123   9.410   5.995   3.841  0.2740 -0.3298 -0.3944
43844SOL    HW135124   9.478   6.058   3.865 -1.5861  2.2242 -1.3723
43844SOL    HW235125   9.372   5.967   3.925  2.7921 -2.2932  0.2116
43845SOL     OW35126  10.680   0.397   5.328 -1.1507  0.2180 -0.1130
43845SOL    HW135127  10.630   0.471   5.361  1.1608  1.9987 -0.3662
43845SOL    HW235128  10.765   0.404   5.370 -1.1302 -2.9525  0.6678
43846SOL     OW35129   3.807   1.281   1.626  0.2219  0.2759 -0.4902
43846SOL    HW135130   3.753   1.294   1.548 -1.3167 -2.6798 -0.0192
43846SOL    HW235131   3.868   1.211   1.601 -0.0630 -0.4659  0.8398
43847SOL     OW35132   4.177   9.985   2.594 -0.4255  0.1686  0.3138
43847SOL    HW135133   4.087   9.961   2.574 -0.4725  0.8283 -0.2897
43847SOL    HW235134   4.179   9.993   2.690 -1.1239  0.6123  0.2972
43848SOL     OW35135   3.376   9.297   7.677  0.3607  0.1873 -0.4397
43848SOL    HW135136   3.334   9.235   7.737  0.5710  0.1464 -0.3335
43848SOL    HW235137   3.340   9.274   7.591  1.1134 -0.6743 -0.5394
43849SOL     OW35138   0.885   1.402   5.636 -0.5263  1.0028  0.6470
43849SOL    HW135139   0.792   1.409   5.658 -0.6585  2.1383 -0.2211
43849SOL    HW235140   0.916   1.492   5.631 -0.3363  0.8951 -2.8680
43850SOL     OW35141   2.759   7.535   5.883 -0.0544 -0.1062 -0.2386
43850SOL    HW135142   2.683   7.592   5.891 -0.2997 -0.2556 -1.3860
43850SOL    HW235143   2.775   7.503   5.972 -2.8237 -2.0260 -0.3261
43851SOL     OW35144   8.508   5.473   6.294  0.0399 -0.5536 -0.0955
43851SOL    HW135145   8.474   5.562   6.306  0.3297 -0.3051 -1.0093
43851SOL    HW235146   8.496   5.431   6.379  1.2752  0.8214  0.8124
43852SOL     OW35147   6.630   3.074   3.432 -0.1073  0.3197  0.7185
43852SOL    HW135148   6.694   3.046   3.498 -0.6423  3.3552  2.7539
43852SOL    HW235149   6.684   3.112   3.363  0.4005 -1.4029  0.1134
43853SOL     OW35150  10.791   4.248   5.876 -0.1215 -0.6523  0.2029
43853SOL    HW135151  10.878   4.209   5.863  0.1514 -0.0101  0.0853
43853SOL    HW235152  10.735   4.173   5.898  0.5415 -1.0259  0.6793
43854SOL     OW35153   1.447   4.689   9.338 -0.0495  0.5194  0.5717
43854SOL    HW135154   1.443   4.632   9.415 -1.1515  1.8548  1.5507
43854SOL    HW235155   1.499   4.764   9.366  2.9454 -0.7045 -1.2624
43855SOL     OW35156   0.877   7.842   2.809 -0.0530  0.2458  0.4354
43855SOL    HW135157   0.811   7.778   2.835 -0.6497  0.6500 -0.0339
43855SOL    HW235158   0.896   7.891   2.889 -1.1457  0.8392  0.3619
43856SOL     OW35159   8.534   4.914   8.201  0.5989 -0.0480  0.4385
43856SOL    HW135160   8.493   4.976   8.142 -0.9158 -2.1383 -0.8573
43856SOL    HW235161   8.464   4.888   8.262  0.8099 -1.3540  0.1665
43857SOL     OW35162   8.644   2.605  10.030  0.2766 -0.2026  0.4774
43857SOL    HW135163   8.657   2.539   9.962  1.1802  0.9872 -0.5516
43857SOL    HW235164   8.572   2.660   9.996  1.2623  0.8689  0.0710
43858SOL     OW35165  10.888  10.817   4.306 -0.2054 -0.2640  0.0258
43858SOL    HW135166  10.818  10.876   4.333  0.9620  0.5430  1.4542
43858SOL    HW235167  10.967  10.873   4.305  0.6688 -1.4644 -0.0314
43859SOL     OW35168   2.515   3.177   7.735  0.1577  0.0252 -0.6634
43859SOL    HW135169   2.514   3.170   7.831 -0.7492  0.3946 -0.6394
43859SOL    HW235170   2.449   3.243   7.715 -0.1919 -0.5814 -1.5810
43860SOL     OW35171  10.369   8.246  10.723 -0.0351  0.5604  0.1730
43860SOL    HW135172  10.408   8.246  10.810  2.0621 -2.5652 -0.5925
43860SOL    HW235173  10.429   8.300  10.671  0.4598 -0.1121  0.0405
43861SOL     OW35174   6.241   2.300   4.817 -0.1306  0.5590 -0.1302
43861SOL    HW135175   6.164   2.292   4.873  0.2505  0.4834  0.3930
43861SOL    HW235176   6.213   2.264   4.733 -0.4777 -0.0706  0.2412
43862SOL     OW35177   7.262   5.824   2.053  0.5017  1.1982  0.8083
43862SOL    HW135178   7.225   5.852   1.969  1.7031  0.0960 -0.1330
43862SOL    HW235179   7.300   5.738   2.035  0.7022  0.8935  2.5204
43863SOL     OW35180   9.398   9.508   7.161 -0.0435 -0.0655  0.0807
43863SOL    HW135181   9.484   9.548   7.170 -0.9442  2.1733 -0.6264
43863SOL    HW235182   9.379   9.513   7.067 -0.6964 -1.1248  0.1395
43864SOL     OW35183   6.730   7.435   8.146 -0.3076  0.1273 -0.2421
43864SOL    HW135184   6.825   7.420   8.139 -0.0539  1.5994 -0.2436
43864SOL    HW235185   6.692   7.347   8.136  0.9713 -0.3073 -1.8764
43865SOL     OW35186   5.998   2.977   0.669 -0.0906  0.2333  0.1535
43865SOL    HW135187   6.052   3.043   0.626  0.9471 -0.4451  0.3901
43865SOL    HW235188   6.060   2.914   0.704 -1.0377 -0.5230  0.5150
43866SOL     OW35189   8.958  10.600   2.418  0.2091  0.5411 -0.5506
43866SOL    HW135190   8.987  10.615   2.508  0.2301  1.8020 -0.7512
43866SOL    HW235191   9.024  10.643   2.364 -1.0719  1.9278 -1.0673
43867SOL     OW35192   2.025   9.075   1.731  0.0765 -0.6068  0.2117
43867SOL    HW135193   2.066   9.020   1.798 -1.1259 -0.3424  1.2185
43867SOL    HW235194   1.938   9.036   1.720  1.0268 -2.1514 -3.0365
43868SOL     OW35195   5.388   8.742  10.181 -0.2270 -0.1856 -0.3995
43868SOL    HW135196   5.382   8.740  10.086  0.5816  1.8465 -0.5223
43868SOL    HW235197   5.467   8.692  10.202  1.3667  1.9573 -1.0430
43869SOL     OW35198   3.086   0.790  11.020  0.1558 -0.1651 -0.0503
43869SOL    HW135199   3.028   0.857  11.056  0.9344  0.1020  0.7323
43869SOL    HW235200   3.163   0.793  11.076 -0.2169 -2.4467  0.6710
43870SOL     OW35201   3.643   3.881   0.065 -0.0090  0.0808 -0.1560
43870SOL    HW135202   3.692   3.800   0.053 -0.8602 -0.4055 -0.4350
43870SOL    HW235203   3.699   3.950   0.028  1.5648 -0.0800  1.7509
43871SOL     OW35204   1.195   6.248   4.337  0.6272 -0.3954 -0.1874
43871SOL    HW135205   1.225   6.291   4.417  0.2933 -1.0338  0.2925
43871SOL    HW235206   1.114   6.294   4.314 -0.2341 -1.3260  0.8446
43872SOL     OW35207   4.893   6.587   6.105 -0.3312  0.1264  0.0565
43872SOL    HW135208   4.924   6.616   6.191  1.1062 -0.5085 -0.2053
43872SOL    HW235209   4.853   6.665   6.066  1.0488  1.0492  0.4122
43873SOL     OW35210   7.730   5.448   2.772 -0.0121  0.0133  0.0037
43873SOL    HW135211   7.692   5.376   2.823  0.7549 -0.1156  0.4038
43873SOL    HW235212   7.654   5.493   2.735 -0.4984 -1.1537 -0.4740
43874SOL     OW35213   0.707   4.597   2.080  0.5427 -0.1684 -0.2633
43874SOL    HW135214   0.708   4.571   2.173  0.3647 -0.6313 -0.3867
43874SOL    HW235215   0.788   4.647   2.068  2.3093 -2.8915 -0.6192
43875SOL     OW35216   1.268   7.031   6.307 -0.3015  0.5702 -0.3036
43875SOL    HW135217   1.216   7.091   6.253  0.2978  0.9063 -0.5156
43875SOL    HW235218   1.271   7.074   6.393 -2.5389 -0.6804  0.4959
43876SOL     OW35219   4.352   4.677   7.733  0.0817  0.2827 -0.1823
43876SOL    HW135220   4.436   4.693   7.692  0.5714 -0.0560  0.6581
43876SOL    HW235221   4.368   4.606   7.795 -1.1832 -0.8928 -1.1291
43877SOL     OW35222   4.662   8.927  10.962 -0.4288 -0.0951  0.1775
43877SOL    HW135223   4.602   8.981  11.012  1.7286  1.9402  0.7311
43877SOL    HW235224   4.643   8.837  10.990 -0.8869  0.7693  2.8994
43878SOL     OW35225   9.183   1.382   3.534 -0.0963 -0.3769  0.2348
43878SOL    HW135226   9.202   1.347   3.447  1.8529 -0.5769  0.6722
43878SOL    HW235227   9.090   1.401   3.533 -0.1671 -0.5900 -1.8124
43879SOL     OW35228   0.056   8.229   4.636 -0.0205  0.1075 -1.0235
43879SOL    HW135229   0.096   8.154   4.680 -0.2669  0.3293 -0.4062
43879SOL    HW235230   0.083   8.221   4.545 -2.3813 -2.3503 -1.6221
43880SOL     OW35231   9.032   5.068   5.983  0.4128  0.5875 -0.1052
43880SOL    HW135232   8.993   5.155   5.983  0.6308  0.6885  0.1210
43880SOL    HW235233   9.118   5.080   5.941  0.5690  0.5444  0.1962
43881SOL     OW35234   0.463   3.223   9.192  0.4086  0.1122  0.4776
43881SOL    HW135235   0.397   3.258   9.133 -0.3664  2.2181  2.4220
43881SOL    HW235236   0.531   3.291   9.195 -0.1579  0.6605  2.8357
43882SOL     OW35237  10.490   8.613   1.051  0.1456 -0.1776 -0.0989
43882SOL    HW135238  10.419   8.553   1.027  0.0606 -0.3221  0.4829
43882SOL    HW235239  10.461   8.651   1.134  1.6048 -1.7383  1.2206
43883SOL     OW35240   6.501   4.326   0.038  0.6110  0.3747  0.1820
43883SOL    HW135241   6.559   4.357  -0.032 -0.6802 -3.2507 -2.8270
43883SOL    HW235242   6.417   4.367   0.019  0.2157 -0.7449 -0.5891
43884SOL     OW35243   2.624   3.057   5.736  0.3822 -0.6515  0.3369
43884SOL    HW135244   2.653   3.087   5.822  0.5952 -2.7089  1.0183
43884SOL    HW235245   2.638   2.962   5.737  2.6941 -0.5260 -2.8192
43885SOL     OW35246   0.314   2.000   6.167  0.5470 -0.0220 -0.1452
43885SOL    HW135247   0.222   2.023   6.155  0.2962 -1.2838 -0.8111
43885SOL    HW235248   0.361   2.084   6.166 -0.6310  0.6710  0.6527
43886SOL     OW35249   9.261   7.711   1.705  0.1693 -0.2285 -0.0803
43886SOL    HW135250   9.178   7.695   1.660  0.5239 -0.4256 -0.6640
43886SOL    HW235251   9.309   7.629   1.697  0.1616 -0.3389  0.8368
43887SOL     OW35252  10.562   0.836   2.178  0.4846 -0.4652 -0.2771
43887SOL    HW135253  10.638   0.778   2.173  0.8834 -0.0271  0.3644
43887SOL    HW235254  10.593   0.918   2.140  0.3277 -0.2955 -0.0432
43888SOL     OW35255   2.802   1.414   8.310  0.2967 -0.3813  0.3725
43888SOL    HW135256   2.716   1.409   8.353  0.7280  1.3494  1.5209
43888SOL    HW235257   2.865   1.399   8.380  0.9705 -0.6690 -0.2797
43889SOL     OW35258   6.905   9.173   9.807  0.1734 -0.4245 -0.2387
43889SOL    HW135259   6.964   9.098   9.811 -0.2760 -0.7118  1.8649
43889SOL    HW235260   6.942   9.229   9.738  2.9818 -0.5377  1.0530
43890SOL     OW35261   7.721  10.837   9.178 -0.2110  0.0400 -0.0550
43890SOL    HW135262   7.627  10.822   9.191 -0.3829  0.7032 -0.4522
43890SOL    HW235263   7.728  10.932   9.163  0.4159 -0.1216 -0.8654
43891SOL     OW35264   1.674   6.710  10.647 -0.0317  0.0018 -0.6221
43891SOL    HW135265   1.626   6.789  10.623 -1.7213 -1.2704 -1.6718
43891SOL    HW235266   1.686   6.664  10.564  0.9757 -0.8272 -0.0416
43892SOL     OW35267   5.752   5.156   0.727  0.3655  0.4555 -0.2976
43892SOL    HW135268   5.839   5.164   0.688  0.5416  0.9630  0.1795
43892SOL    HW235269   5.727   5.247   0.745  0.6229  0.2012  1.4789
43893SOL     OW35270   5.154   7.165   5.096 -0.0659 -0.0564 -0.5069
43893SOL    HW135271   5.111   7.200   5.019  0.3959 -1.4314 -1.4307
43893SOL    HW235272   5.083   7.137   5.154 -0.4301 -0.8527 -1.3225
43894SOL     OW35273   2.542  11.042   9.800  0.7782  0.1561 -0.8234
43894SOL    HW135274   2.512  11.050   9.710  0.1516 -0.1485 -0.6508
43894SOL    HW235275   2.556  11.132   9.829  0.3299  0.2889 -1.0123
43895SOL     OW35276   4.135   3.738   8.019 -0.3593 -0.1738  0.9445
43895SOL    HW135277   4.143   3.684   8.097  1.3767 -0.1015  0.8631
43895SOL    HW235278   4.183   3.818   8.040 -1.5205  0.6794  0.4815
43896SOL     OW35279   6.987  10.536   5.168 -0.3660 -0.2813 -0.8057
43896SOL    HW135280   7.005  10.462   5.227  0.5792 -0.9332 -1.8709
43896SOL    HW235281   7.028  10.611   5.211 -2.4739 -0.0511  0.9524
43897SOL     OW35282  10.300   3.264   5.140  0.3564  0.8259 -0.1073
43897SOL    HW135283  10.321   3.346   5.095 -1.1413  1.6499  0.6162
43897SOL    HW235284  10.263   3.292   5.223 -0.0358 -0.6008  0.2151
43898SOL     OW35285   6.797   2.199   6.960 -0.2747  0.0342 -0.1057
43898SOL    HW135286   6.778   2.152   6.879 -0.3607 -1.6044  0.8184
43898SOL    HW235287   6.804   2.130   7.026 -0.1129  1.3218  1.2636
43899SOL     OW35288  10.131   8.667   8.138  0.0883  0.0111 -0.0779
43899SOL    HW135289  10.103   8.654   8.048  0.8033  1.3812 -0.5296
43899SOL    HW235290  10.053   8.699   8.184 -0.3199 -0.8533 -0.1581
43900SOL     OW35291   0.793   1.846   5.697  0.1851  0.3032 -0.1896
43900SOL    HW135292   0.792   1.762   5.742  0.5584  0.4553  0.1094
43900SOL    HW235293   0.776   1.911   5.765  1.1995  0.5710 -0.1641
43901SOL     OW35294   7.469   3.983   3.471  0.6625 -0.0854 -0.2511
43901SOL    HW135295   7.406   3.957   3.404  0.2217  0.0543  0.0951
43901SOL    HW235296   7.437   3.940   3.551  1.3096 -0.4398 -0.1795
43902SOL     OW35297   6.154   2.324   6.593 -0.4063 -0.5756  0.1712
43902SOL    HW135298   6.097   2.400   6.587 -0.8737 -0.9811 -0.7258
43902SOL    HW235299   6.125   2.278   6.672 -2.3271 -1.5439 -1.0332
43903SOL     OW35300   4.239   3.207  10.906  0.1347 -0.0839  0.2633
43903SOL    HW135301   4.281   3.249  10.831 -0.2691 -2.0991 -1.1682
43903SOL    HW235302   4.310   3.185  10.965  0.9999 -2.0108 -1.3870
43904SOL     OW35303   6.259   4.095  10.762  0.3957 -0.0037  0.1714
43904SOL    HW135304   6.295   4.007  10.770  2.9821  1.0941  2.1931
43904SOL    HW235305   6.165   4.083  10.754  0.2045 -2.8828  4.2616
43905SOL     OW35306   9.371   8.057   8.018 -0.5676  0.3828  0.2559
43905SOL    HW135307   9.332   8.101   7.942 -0.2594  2.3071  1.1464
43905SOL    HW235308   9.297   8.042   8.077 -1.0397 -2.3176 -0.8880
43906SOL     OW35309   5.592   9.383   8.709  0.5343  0.2418  0.2969
43906SOL    HW135310   5.545   9.346   8.784  1.5618  0.0958  0.8924
43906SOL    HW235311   5.556   9.471   8.700 -1.0046 -0.4060 -0.3047
43907SOL     OW35312   4.477   4.497   9.634 -0.5588 -0.8596  0.2164
43907SOL    HW135313   4.445   4.525   9.549 -0.3426  0.1097  0.4447
43907SOL    HW235314   4.426   4.547   9.697 -0.4545 -1.2855  0.6450
43908SOL     OW35315   7.801   3.024   5.841 -0.0854 -0.4730 -0.0380
43908SOL    HW135316   7.793   2.929   5.848  1.0352 -0.5110  1.0854
43908SOL    HW235317   7.815   3.041   5.748  1.1779 -1.5362 -0.0616
43909SOL     OW35318   3.920   7.587  10.395  0.5121 -0.4489 -0.2208
43909SOL    HW135319   3.924   7.492  10.408  0.7986 -0.4032  0.0411
43909SOL    HW235320   4.004   7.619  10.429 -0.2420  0.0834  1.1994
43910SOL     OW35321   3.637   7.307   5.112  0.0845  0.4259 -0.2922
43910SOL    HW135322   3.711   7.340   5.162 -1.3679  0.7321  1.7773
43910SOL    HW235323   3.658   7.215   5.096  0.9766  0.5487  0.1118
43911SOL     OW35324   5.595   0.976   8.438  0.2084 -0.2697  0.6570
43911SOL    HW135325   5.640   1.047   8.393  1.4845 -0.3510  1.7523
43911SOL    HW235326   5.632   0.896   8.401 -0.9336 -0.3927 -0.2832
43912SOL     OW35327   6.247   0.299   3.576  0.1904  0.0032 -0.6657
43912SOL    HW135328   6.300   0.377   3.595  1.9805 -1.2339 -0.3047
43912SOL    HW235329   6.236   0.257   3.661 -0.1174 -0.5355 -0.9700
43913SOL     OW35330  10.395   1.474   5.293 -0.1831  0.0798  0.2392
43913SOL    HW135331  10.316   1.433   5.257 -0.4091 -1.4542  2.3248
43913SOL    HW235332  10.466   1.443   5.236 -0.9974  1.3476 -1.5671
43914SOL     OW35333   3.857   1.450  10.956 -0.0464 -0.6456 -0.9254
43914SOL    HW135334   3.869   1.544  10.941  0.4950 -0.8692 -1.9663
43914SOL    HW235335   3.775   1.444  11.004  0.2604  0.4089 -0.2317
43915SOL     OW35336   5.007  10.611   3.712  0.1209  0.6552  0.0621
43915SOL    HW135337   4.923  10.624   3.755 -0.0644  0.3925 -0.2176
43915SOL    HW235338   4.993  10.638   3.622  0.3499  0.6656  0.0297
43916SOL     OW35339   7.602  10.675   4.619  0.0057  0.3801  0.6593
43916SOL    HW135340   7.572  10.662   4.529 -1.6906  0.8502  1.1341
43916SOL    HW235341   7.697  10.665   4.613 -0.2022 -1.2704 -0.8818
43917SOL     OW35342   9.431   7.242   0.418 -0.3817 -0.5458  0.0151
43917SOL    HW135343   9.354   7.290   0.388  0.9282 -0.4720 -3.6691
43917SOL    HW235344   9.424   7.156   0.376  1.8447 -0.2707 -1.0794
43918SOL     OW35345  10.838   8.253   2.426  0.2911  0.3270  0.0325
43918SOL    HW135346  10.776   8.181   2.441  0.2240  0.6419  1.3731
43918SOL    HW235347  10.889   8.258   2.507  2.7908 -0.5722 -1.3796
43919SOL     OW35348   6.029   6.186   2.930  0.0604  0.3579  0.4237
43919SOL    HW135349   5.946   6.193   2.977  0.1921  0.8676  0.5958
43919SOL    HW235350   6.080   6.123   2.981  0.1514  0.8032  0.8966
43920SOL     OW35351   3.975   1.045   1.159  0.0978 -0.6660  0.2254
43920SOL    HW135352   3.899   1.085   1.116 -0.5814 -1.8221  0.2963
43920SOL    HW235353   3.960   0.951   1.150  1.6028 -0.9178  0.1257
43921SOL     OW35354   3.968   8.573   3.742 -0.0788 -0.3524  0.0076
43921SOL    HW135355   3.962   8.584   3.647 -0.7581  0.4689  0.1387
43921SOL    HW235356   3.885   8.530   3.766  0.5144 -1.4945  0.1173
43922SOL     OW35357  10.708   8.794   7.178  0.4563 -0.1675 -0.2746
43922SOL    HW135358  10.638   8.832   7.126 -0.4594 -0.3302  0.8005
43922SOL    HW235359  10.669   8.716   7.217  1.4230 -0.5986 -0.1374
43923SOL     OW35360   3.242   7.824   2.804  0.0926  0.2084  0.2076
43923SOL    HW135361   3.201   7.910   2.806 -2.0316 -0.7274  0.0599
43923SOL    HW235362   3.244   7.800   2.712 -1.1872 -0.6782  0.3815
43924SOL     OW35363   0.615   4.474   4.426  0.4321  0.1833 -0.4355
43924SOL    HW135364   0.583   4.548   4.375  1.2976 -0.4490 -1.9661
43924SOL    HW235365   0.662   4.514   4.500 -2.5904  1.1207  1.1266
43925SOL     OW35366  10.970   4.656   4.310 -0.5757 -0.4688  0.5224
43925SOL    HW135367  10.976   4.667   4.216 -1.3710 -1.9597  0.2530
43925SOL    HW235368  11.031   4.720   4.347  1.2295 -1.1966 -1.0752
43926SOL     OW35369   1.729   3.952   2.639  0.2340  0.3550  0.9073
43926SOL    HW135370   1.782   3.973   2.562 -0.0816 -2.6281 -0.2524
43926SOL    HW235371   1.659   4.017   2.638  0.8360  1.0439 -0.6816
43927SOL     OW35372  10.295   0.664   1.867  0.1070  0.2261 -0.5506
43927SOL    HW135373  10.292   0.581   1.819  0.8599  0.0457 -0.3055
43927SOL    HW235374  10.212   0.707   1.846  0.2851  0.0184 -1.7733
43928SOL     OW35375   9.503   8.479   9.357 -0.0202 -0.3341 -0.1915
43928SOL    HW135376   9.487   8.573   9.357 -0.9732 -0.4882 -0.0486
43928SOL    HW235377   9.528   8.459   9.266  1.6063  0.2693  0.0920
43929SOL     OW35378   4.948   4.749   4.262 -0.6887  0.1425 -0.2009
43929SOL    HW135379   4.943   4.799   4.343 -1.3970  0.5378 -0.4784
43929SOL    HW235380   5.020   4.688   4.275  0.9793  2.0083 -0.3011
43930SOL     OW35381   2.144   2.934   3.937 -0.5279  0.5010  0.0763
43930SOL    HW135382   2.050   2.921   3.946 -0.1290 -2.7830  0.8670
43930SOL    HW235383   2.166   3.000   4.003 -2.1855  1.0511  0.1227
43931SOL     OW35384   7.272   8.916   3.736  0.1957  0.0650 -0.0518
43931SOL    HW135385   7.339   8.911   3.667  0.7756  0.4275  0.4769
43931SOL    HW235386   7.284   8.837   3.788  0.4863  0.3225  0.2808
43932SOL     OW35387   3.555   0.473   6.246 -0.6533  0.0164  0.1355
43932SOL    HW135388   3.607   0.421   6.308 -0.4148 -1.4156 -1.1929
43932SOL    HW235389   3.557   0.561   6.282  2.1808 -0.0880  0.5128
43933SOL     OW35390   7.000   4.968   0.029  0.4222 -0.1691 -0.1025
43933SOL    HW135391   7.049   4.887   0.046 -1.1317 -1.1955 -0.2995
43933SOL    HW235392   7.017   4.987  -0.064  2.7969  1.1856  0.5321
43934SOL     OW35393  10.935   8.675   9.203  0.1867 -0.1199  0.2884
43934SOL    HW135394  10.879   8.753   9.203 -3.0624 -2.2226 -0.7186
43934SOL    HW235395  11.019   8.705   9.169 -1.1386  2.8071 -0.7096
43935SOL     OW35396   7.667   5.480   1.337  0.5064 -0.1418  0.7144
43935SOL    HW135397   7.745   5.453   1.288 -1.7299 -0.9003 -2.8631
43935SOL    HW235398   7.627   5.398   1.365 -0.9930 -0.0891 -1.0767
43936SOL     OW35399   3.202   4.415  10.257  0.2552 -0.0614  0.2755
43936SOL    HW135400   3.131   4.352  10.244  1.4492 -1.1129 -1.4878
43936SOL    HW235401   3.255   4.378  10.328 -0.0814 -0.0525  0.5360
43937SOL     OW35402   8.652   9.979   3.118  0.0523 -0.1308  0.2679
43937SOL    HW135403   8.565   9.997   3.082 -0.9870 -1.0576  2.1860
43937SOL    HW235404   8.667  10.050   3.180  0.9876  0.4036 -0.5542
43938SOL     OW35405   6.406   2.993   7.412 -0.0394 -0.3213 -0.2538
43938SOL    HW135406   6.476   2.933   7.390 -0.7272 -0.5701 -1.8809
43938SOL    HW235407   6.397   2.985   7.507  1.1053 -1.4042 -0.2132
43939SOL     OW35408   1.977   2.192   2.778 -0.0183  0.5238 -0.6081
43939SOL    HW135409   1.970   2.211   2.871  1.6777  1.4189 -0.6221
43939SOL    HW235410   1.952   2.100   2.770 -0.8047  0.6074  0.6182
43940SOL     OW35411   4.544   2.959   1.633 -0.4734 -0.1175  0.2763
43940SOL    HW135412   4.639   2.959   1.642 -0.2906 -0.6174 -1.2910
43940SOL    HW235413   4.515   2.883   1.684  0.0009 -0.1715  0.4746
43941SOL     OW35414   7.129   9.656   0.263 -0.1283  0.4128  0.1438
43941SOL    HW135415   7.178   9.585   0.222 -0.0427  0.3274  0.3888
43941SOL    HW235416   7.070   9.687   0.195  2.4131  2.6219 -1.2606
43942SOL     OW35417   5.743   3.121   0.354 -0.1407 -0.7540 -0.5656
43942SOL    HW135418   5.771   3.033   0.375 -0.9695 -0.9832 -0.3730
43942SOL    HW235419   5.648   3.114   0.342 -0.1722  0.0432 -0.8732
43943SOL     OW35420  10.167   3.642   3.017  0.0236 -0.2186 -0.2752
43943SOL    HW135421  10.094   3.603   2.969  0.6777 -1.9619  0.0884
43943SOL    HW235422  10.237   3.576   3.012  1.2831  1.0310  0.1338
43944SOL     OW35423   2.751   7.943   0.448 -0.0058  0.0278  0.1968
43944SOL    HW135424   2.734   7.930   0.355 -2.8381  0.7510  0.5290
43944SOL    HW235425   2.846   7.936   0.456  0.5331  1.7001 -3.0261
43945SOL     OW35426   0.752   8.560   9.283 -0.4504  0.2119  0.0314
43945SOL    HW135427   0.688   8.609   9.335 -0.2214  0.5080  0.0388
43945SOL    HW235428   0.724   8.469   9.288 -1.0826  0.3863 -0.2705
43946SOL     OW35429   1.022   3.093   4.593  0.4977 -0.3971  0.3403
43946SOL    HW135430   1.066   3.171   4.561  3.5616 -1.0574  2.5312
43946SOL    HW235431   0.951   3.126   4.648  1.2123  0.8354  0.5587
43947SOL     OW35432   5.568   0.648  10.598  0.2009 -0.1525  0.9891
43947SOL    HW135433   5.612   0.644  10.683  0.6803  0.3707  0.7760
43947SOL    HW235434   5.636   0.675  10.537 -0.3065  0.2127  0.5679
43948SOL     OW35435   6.183   4.400   4.717  0.7219 -0.4538 -0.3540
43948SOL    HW135436   6.213   4.383   4.628  2.5545 -0.7539  0.2691
43948SOL    HW235437   6.114   4.465   4.707 -0.0577 -1.4693 -2.0780
43949SOL     OW35438   6.746   7.225   6.051 -0.6041 -0.0626  0.1154
43949SOL    HW135439   6.795   7.147   6.077  0.2542  0.6886  0.8002
43949SOL    HW235440   6.775   7.243   5.962  2.4843  1.8750  1.3339
43950SOL     OW35441   1.904  10.620   0.152 -0.4890 -0.5734  0.5921
43950SOL    HW135442   1.992  10.628   0.114 -0.9866 -0.6942 -0.6187
43950SOL    HW235443   1.911  10.664   0.237  0.5778 -0.0242  0.2411
43951SOL     OW35444   6.092   5.898   6.135  0.0996 -0.5079 -0.0470
43951SOL    HW135445   6.168   5.943   6.098 -0.6985  0.8186 -0.1258
43951SOL    HW235446   6.075   5.943   6.217  0.1916 -1.6677  0.6248
43952SOL     OW35447   7.297   8.840   8.680  0.3653 -0.8800 -0.0737
43952SOL    HW135448   7.230   8.907   8.694  0.1805 -0.7388 -1.5112
43952SOL    HW235449   7.250   8.757   8.691  0.4531 -0.7992  1.0609
43953SOL     OW35450   4.849  10.840   6.664 -0.3869  0.3422  0.2015
43953SOL    HW135451   4.896  10.923   6.673  0.7121 -0.3826  1.6313
43953SOL    HW235452   4.772  10.861   6.611  0.1951  2.1275  0.0023
43954SOL     OW35453   9.201   4.981   9.168  0.1600 -0.1654 -0.3826
43954SOL    HW135454   9.227   4.912   9.229  1.6686  0.2799 -0.4873
43954SOL    HW235455   9.239   4.955   9.084  1.2959  1.0677 -0.2878
43955SOL     OW35456   5.450  10.415   3.713 -0.0135  0.1992  0.0047
43955SOL    HW135457   5.362  10.378   3.701  0.6229 -0.9641 -1.3326
43955SOL    HW235458   5.449  10.449   3.802 -0.7768 -2.8887  1.3197
43956SOL     OW35459   7.195   2.440   5.275  0.1014  0.0614  0.5241
43956SOL    HW135460   7.155   2.523   5.300 -0.9132 -0.7692  1.7231
43956SOL    HW235461   7.127   2.393   5.227  0.2780 -0.5624  0.8696
43957SOL     OW35462   9.889   4.719   0.718  0.0801  0.0563  0.2071
43957SOL    HW135463   9.829   4.781   0.760 -1.5823 -1.9645  0.9904
43957SOL    HW235464   9.884   4.739   0.625  0.1107  1.4980  0.4904
43958SOL     OW35465   7.382   6.361   9.133  0.1275  0.5590 -0.0634
43958SOL    HW135466   7.296   6.378   9.094  0.1248  0.9409  0.1051
43958SOL    HW235467   7.367   6.286   9.190 -0.5998  1.8969  1.5932
43959SOL     OW35468   3.893   3.357   5.855 -1.2244  0.1138 -0.2707
43959SOL    HW135469   3.883   3.406   5.936 -0.1121 -0.2462  0.1036
43959SOL    HW235470   3.984   3.371   5.829 -1.2748 -0.6123 -0.8993
43960SOL     OW35471   0.627   9.773   2.452  0.0320  0.3060  0.1514
43960SOL    HW135472   0.689   9.795   2.522  1.5660 -0.9885 -0.7314
43960SOL    HW235473   0.671   9.800   2.371 -1.0945  0.4690 -0.4280
43961SOL     OW35474   3.988   8.190   2.387 -0.0515 -0.4302  0.5954
43961SOL    HW135475   4.026   8.147   2.310  1.3182  0.6992  0.6146
43961SOL    HW235476   4.005   8.129   2.459  1.7387  0.0395  0.5959
43962SOL     OW35477   1.776   5.789   8.646  0.3245 -0.0405  0.3080
43962SOL    HW135478   1.749   5.703   8.680  0.8520 -0.9507 -1.4803
43962SOL    HW235479   1.801   5.773   8.556 -0.3548  2.1699 -0.3452
43963SOL     OW35480   5.588   2.937   3.899  0.4382  0.3579  0.2098
43963SOL    HW135481   5.587   2.842   3.882  0.4997  0.6658 -1.8250
43963SOL    HW235482   5.680   2.957   3.915  0.2823 -0.0731  1.7106
43964SOL     OW35483   2.829   1.599   2.103 -0.0541  0.3340 -0.3476
43964SOL    HW135484   2.765   1.607   2.033  0.1267 -0.2701 -0.5849
43964SOL    HW235485   2.887   1.528   2.076  1.4057  1.5847 -0.6903
43965SOL     OW35486   1.931   8.450   7.724 -0.0505  0.6630  0.5170
43965SOL    HW135487   1.977   8.530   7.699 -1.5817  0.9563 -1.7205
43965SOL    HW235488   2.000   8.388   7.746  1.2306  2.1130  0.7093
43966SOL     OW35489   2.117   1.953   4.218  0.2551  0.1156 -0.3358
43966SOL    HW135490   2.154   2.011   4.285 -0.1519  0.3910 -0.3427
43966SOL    HW235491   2.056   2.009   4.170 -1.2573 -0.6722  0.5887
43967SOL     OW35492   1.139   8.545   0.193 -0.0502  0.4915  0.2778
43967SOL    HW135493   1.074   8.476   0.205 -0.1242  0.2671 -1.2001
43967SOL    HW235494   1.091   8.616   0.151  0.8764 -0.1844 -2.0839
43968SOL     OW35495   4.075   1.186   7.018 -0.1779 -0.2115 -0.0174
43968SOL    HW135496   4.119   1.136   7.086 -0.0463 -1.0667 -0.7197
43968SOL    HW235497   4.122   1.166   6.938  0.6342  1.9605 -0.1659
43969SOL     OW35498  10.644   2.455  10.469 -0.3700  0.2713  0.9264
43969SOL    HW135499  10.549   2.465  10.467 -0.3318  0.5734 -1.0881
43969SOL    HW235500  10.658   2.361  10.474 -0.7427  0.2628  2.2406
43970SOL     OW35501   5.962   0.890   9.525  0.2016 -0.3956  0.1902
43970SOL    HW135502   6.030   0.952   9.552  0.2025  0.1073 -0.9021
43970SOL    HW235503   5.928   0.855   9.607  0.2993  0.9572  0.8438
43971SOL     OW35504   9.302   3.639   2.618  0.4403  0.4219 -0.1146
43971SOL    HW135505   9.384   3.652   2.570  0.0073 -0.7410 -1.2248
43971SOL    HW235506   9.234   3.673   2.559 -0.0118 -0.0745  0.1130
43972SOL     OW35507   7.977   8.125   2.011 -0.3297  0.5255 -0.4577
43972SOL    HW135508   7.917   8.198   2.022 -0.9385 -0.2246  2.0266
43972SOL    HW235509   7.933   8.051   2.054  2.0093 -0.2257  0.8368
43973SOL     OW35510   3.290   5.920  10.093  0.0991 -0.2164 -0.1028
43973SOL    HW135511   3.257   5.891  10.007  2.9707  0.0836 -1.3949
43973SOL    HW235512   3.268   6.013  10.097  1.4115  0.1694 -1.2966
43974SOL     OW35513   3.748   7.237   6.724  0.1596  0.2384 -0.4979
43974SOL    HW135514   3.811   7.216   6.655  2.2825  0.1689  1.3220
43974SOL    HW235515   3.737   7.332   6.718  0.9139  0.3338 -0.4851
43975SOL     OW35516   2.349   8.179   1.964  0.2089  0.1710 -0.3318
43975SOL    HW135517   2.267   8.184   1.914 -1.6678 -3.1421  2.0183
43975SOL    HW235518   2.395   8.259   1.942 -3.1430  1.6885 -2.7001
43976SOL     OW35519   8.386   8.030   2.830  0.4591 -0.2018 -0.5939
43976SOL    HW135520   8.436   8.002   2.753 -0.4679  1.4000 -1.8537
43976SOL    HW235521   8.413   8.121   2.844  0.5095 -0.4266  0.9208
43977SOL     OW35522  10.240   6.144   4.240  0.0258  0.2792  0.1428
43977SOL    HW135523  10.225   6.236   4.260  2.8151  0.7451  0.5159
43977SOL    HW235524  10.244   6.140   4.145  0.4735  0.6826  0.1383
43978SOL     OW35525   8.140   0.766   0.137 -0.4800 -0.6874  0.7682
43978SOL    HW135526   8.080   0.732   0.203 -1.7419 -2.0277 -0.9859
43978SOL    HW235527   8.133   0.862   0.145  0.0075 -0.7888  3.0401
43979SOL     OW35528   2.451   1.337   2.125  0.0682 -0.2392  0.7823
43979SOL    HW135529   2.541   1.370   2.132  0.2608 -0.7203  0.6650
43979SOL    HW235530   2.421   1.329   2.215  0.3814 -0.7055  0.8477
43980SOL     OW35531   9.747   1.360   2.427  0.7061 -0.3686 -0.5321
43980SOL    HW135532   9.652   1.354   2.440  0.9184  0.2248  1.6909
43980SOL    HW235533   9.760   1.442   2.381  0.1529 -0.4351 -0.8193
43981SOL     OW35534   1.855   2.206   8.371  0.4727 -0.4626 -0.3439
43981SOL    HW135535   1.806   2.152   8.308 -0.6412 -0.5723  0.5847
43981SOL    HW235536   1.805   2.199   8.452  0.5981  1.5266 -0.0451
43982SOL     OW35537   5.819   4.491   5.576 -0.0697 -0.1502  0.7931
43982SOL    HW135538   5.828   4.418   5.515  2.9241  0.1254  0.7987
43982SOL    HW235539   5.789   4.451   5.658  0.3017 -1.1824  0.4284
43983SOL     OW35540   3.334   5.555   1.035  0.0845 -0.2748  0.1200
43983SOL    HW135541   3.337   5.633   0.979  2.1171 -0.5656 -0.2415
43983SOL    HW235542   3.397   5.572   1.104 -1.0462 -0.7198  1.2931
43984SOL     OW35543   6.865   3.133   8.273 -0.3930  1.1282  0.3766
43984SOL    HW135544   6.810   3.198   8.230 -2.8611 -1.0706 -0.0528
43984SOL    HW235545   6.902   3.082   8.201 -2.3679 -0.8620  0.6636
43985SOL     OW35546   6.635   1.888   8.263 -0.1029  0.3315  0.4824
43985SOL    HW135547   6.590   1.874   8.179  0.7962  1.4634 -0.2202
43985SOL    HW235548   6.686   1.808   8.276 -0.6862 -0.0895  0.2431
43986SOL     OW35549   8.303   7.426   2.077 -0.7527  0.0939  0.2249
43986SOL    HW135550   8.389   7.465   2.057 -0.7416  0.6520  1.2675
43986SOL    HW235551   8.323   7.338   2.109 -0.8444 -1.3046 -3.2239
43987SOL     OW35552   3.608   7.174   7.642 -0.3189 -0.4701  0.1374
43987SOL    HW135553   3.584   7.146   7.554 -0.5131 -1.1346  0.3978
43987SOL    HW235554   3.610   7.093   7.694 -0.7130 -0.0361  0.8591
43988SOL     OW35555   7.151   3.646   9.073  0.2809 -0.8016 -0.4179
43988SOL    HW135556   7.068   3.606   9.099 -0.3275  1.7377  2.0709
43988SOL    HW235557   7.207   3.638   9.150  1.4774 -0.2621 -1.2032
43989SOL     OW35558   0.522   5.110   5.345 -0.2413  0.8261 -0.4409
43989SOL    HW135559   0.548   5.164   5.270 -1.2441 -0.2299 -1.6010
43989SOL    HW235560   0.605   5.077   5.380  0.2335  0.9837 -1.3598
43990SOL     OW35561   7.725   9.109   4.187  0.2716  0.1407 -0.3887
43990SOL    HW135562   7.718   9.103   4.092 -0.0298 -0.5517 -0.3317
43990SOL    HW235563   7.711   9.202   4.206  0.2296  0.2694 -1.0098
43991SOL     OW35564   5.881   4.890   8.651 -0.1763 -0.2420 -1.0552
43991SOL    HW135565   5.962   4.941   8.643  0.4848 -1.0577  0.0697
43991SOL    HW235566   5.908   4.800   8.636 -0.6583 -0.6499  0.3638
43992SOL     OW35567   0.388   3.467   8.720 -0.5581  0.2555  0.9299
43992SOL    HW135568   0.332   3.462   8.642  0.8027  2.5223 -0.2840
43992SOL    HW235569   0.416   3.377   8.734 -1.4708 -0.3406 -0.7262
43993SOL     OW35570   5.775   9.530   7.253  0.1829 -0.1198  0.8235
43993SOL    HW135571   5.745   9.564   7.169  0.6559 -0.0101  0.6964
43993SOL    HW235572   5.697   9.493   7.293 -0.5961  2.1418  1.4903
43994SOL     OW35573   4.775   2.336   2.023  0.0248 -0.3832  0.3887
43994SOL    HW135574   4.753   2.428   2.009 -2.4021 -1.1686 -1.8106
43994SOL    HW235575   4.835   2.314   1.952 -0.6316 -0.8382 -0.0366
43995SOL     OW35576   5.051   8.814   6.218 -0.3936 -0.4401  0.1372
43995SOL    HW135577   5.060   8.802   6.124  0.1178  1.2244 -0.0445
43995SOL    HW235578   5.136   8.846   6.247 -0.8495  0.0204  1.0152
43996SOL     OW35579   3.099   3.823   6.962  0.3038  0.4713  0.6237
43996SOL    HW135580   3.157   3.830   6.886 -0.8468 -1.1315 -0.4431
43996SOL    HW235581   3.033   3.891   6.948  0.1787  0.2752  0.2547
43997SOL     OW35582   6.559   0.326  10.144 -0.1456  0.4397  0.2368
43997SOL    HW135583   6.619   0.401  10.147 -0.3130  0.6949 -1.7997
43997SOL    HW235584   6.616   0.250  10.133 -0.0101  0.2668  1.8267
43998SOL     OW35585  10.078   0.393   1.637  0.5473  0.2026  0.6136
43998SOL    HW135586  10.017   0.320   1.648  1.3776 -0.5027  0.7115
43998SOL    HW235587  10.090   0.400   1.543 -0.6765  1.2032  0.5183
43999SOL     OW35588   0.491   1.581   1.477 -0.7212  0.1651 -0.3804
43999SOL    HW135589   0.459   1.516   1.415  1.2674 -1.2654 -0.0129
43999SOL    HW235590   0.458   1.551   1.562  0.0403 -0.2690 -0.2342
44000SOL     OW35591   5.652   7.134   7.672 -0.1890 -0.1673 -0.1576
44000SOL    HW135592   5.718   7.106   7.609  0.1269  0.0287  0.0811
44000SOL    HW235593   5.700   7.142   7.755 -0.8600 -1.7345  0.4279
44001SOL     OW35594   0.203   9.615  10.435 -0.7820 -0.0863 -0.3601
44001SOL    HW135595   0.140   9.588  10.368 -0.2656 -0.6920 -0.6114
44001SOL    HW235596   0.227   9.704  10.411 -0.9758 -0.1228 -0.6916
44002SOL     OW35597   5.185   9.880   5.192 -0.3146 -0.2505  0.4027
44002SOL    HW135598   5.202   9.803   5.246 -1.2252 -0.9467 -0.2733
44002SOL    HW235599   5.145   9.845   5.112 -0.9941  0.9457  0.2000
44003SOL     OW35600   7.639  10.305   1.463 -0.2308 -0.4707  0.5318
44003SOL    HW135601   7.604  10.386   1.425 -1.3591 -0.1937  2.0448
44003SOL    HW235602   7.720  10.289   1.416  0.6147  2.1614  0.9076
44004SOL     OW35603   1.830   8.341  10.809 -0.1742  0.7862  1.2880
44004SOL    HW135604   1.817   8.403  10.880 -1.6584  1.3033  0.6138
44004SOL    HW235605   1.744   8.303  10.794  0.6394 -1.2335  1.4607
44005SOL     OW35606   1.086   3.447   9.849  0.0677 -0.6617  0.4573
44005SOL    HW135607   1.168   3.409   9.818  1.6574  0.9086  2.4804
44005SOL    HW235608   1.055   3.501   9.776  0.7930 -1.2907 -0.3367
44006SOL     OW35609  10.766   1.151   1.028 -0.0667 -0.3522  0.4126
44006SOL    HW135610  10.674   1.159   1.055 -0.1120 -1.7344  0.7210
44006SOL    HW235611  10.792   1.241   1.008 -1.1534  0.2176  1.3956
44007SOL     OW35612   9.284   7.565   4.997  0.1969 -0.6357  0.0596
44007SOL    HW135613   9.330   7.587   4.916 -1.9440  1.2558 -0.7237
44007SOL    HW235614   9.308   7.474   5.014  2.6109 -0.3474 -1.3302
44008SOL     OW35615   1.212   2.259   6.504 -0.2761  0.3448  0.0187
44008SOL    HW135616   1.288   2.316   6.498 -0.5243  0.5544 -1.7614
44008SOL    HW235617   1.230   2.202   6.578 -0.0899  2.8133  2.0179
44009SOL     OW35618   0.148  10.422   2.823  0.7654  0.3749 -0.3930
44009SOL    HW135619   0.115  10.496   2.873 -1.4153  0.8048 -2.2886
44009SOL    HW235620   0.201  10.462   2.753  2.0612 -0.0916  0.2780
44010SOL     OW35621  10.862   5.068   7.937  0.5215 -0.1365 -0.2993
44010SOL    HW135622  10.919   5.052   8.013 -0.5837 -0.1087  0.5627
44010SOL    HW235623  10.779   5.028   7.961 -0.4041  1.4261 -0.7213
44011SOL     OW35624   0.961   8.797   9.225  0.0720 -0.2041 -0.3296
44011SOL    HW135625   0.867   8.783   9.216 -0.1288  1.6629 -1.5183
44011SOL    HW235626   0.970   8.887   9.254  1.5170 -0.0841 -1.0520
44012SOL     OW35627   1.012   7.248   5.124  0.8151  0.2972 -0.4298
44012SOL    HW135628   1.058   7.327   5.095  0.0098  0.4495 -1.3737
44012SOL    HW235629   0.990   7.203   5.042 -0.4019  0.0705 -0.0038
44013SOL     OW35630   7.153   5.414   8.707  0.3186 -0.1873 -0.1084
44013SOL    HW135631   7.221   5.346   8.711  1.6703  1.1523  1.8803
44013SOL    HW235632   7.189   5.481   8.648  0.2138  0.0010  0.0386
44014SOL     OW35633   1.958   5.018   9.534 -0.4154 -0.0382 -1.0653
44014SOL    HW135634   1.881   5.064   9.502 -1.4014  0.3483  1.5843
44014SOL    HW235635   2.032   5.056   9.487 -1.8061 -0.7346 -4.0173
44015SOL     OW35636  10.632   7.571  10.907  0.3666  0.4243 -0.4995
44015SOL    HW135637  10.701   7.519  10.948 -0.0558  1.6924  1.9935
44015SOL    HW235638  10.664   7.661  10.913 -0.7540  0.8634 -0.9162
44016SOL     OW35639   0.674   0.909   9.998 -0.4622  0.2711 -0.5760
44016SOL    HW135640   0.657   0.816   9.984  2.9418 -1.2106  3.0149
44016SOL    HW235641   0.741   0.932   9.934 -0.6398 -0.0275 -0.8661
44017SOL     OW35642   2.285   5.392   6.626  0.1875 -0.0831 -0.0394
44017SOL    HW135643   2.334   5.311   6.644  0.3438  0.2578  1.1400
44017SOL    HW235644   2.293   5.404   6.532  0.4137 -1.2923 -0.1901
44018SOL     OW35645   7.978   7.648   9.318  0.0148 -0.2842 -0.5547
44018SOL    HW135646   8.013   7.561   9.337  2.3153  0.6739 -0.1650
44018SOL    HW235647   7.893   7.650   9.364  0.2166 -2.0743 -0.0425
44019SOL     OW35648   1.656   3.403   2.541  0.1842 -0.3459 -0.4109
44019SOL    HW135649   1.636   3.490   2.508  0.5249  0.0799  0.4904
44019SOL    HW235650   1.745   3.385   2.510  0.7849  0.3541  0.8609
44020SOL     OW35651   1.235   9.888   5.187 -0.3377 -0.3141  0.0698
44020SOL    HW135652   1.200   9.928   5.267  0.7489 -2.5668  1.7734
44020SOL    HW235653   1.165   9.829   5.158  0.0611 -1.0707  0.6068
44021SOL     OW35654  10.571   7.650   7.446 -0.3595 -0.4614 -0.6290
44021SOL    HW135655  10.619   7.586   7.499  0.3173  0.4399 -0.1298
44021SOL    HW235656  10.494   7.671   7.498 -0.5521 -0.8084 -0.7660
44022SOL     OW35657   3.677   1.760   2.105 -0.0686  0.9573  0.2095
44022SOL    HW135658   3.643   1.679   2.145 -0.5669  1.1788  0.2424
44022SOL    HW235659   3.771   1.746   2.101 -0.2455 -0.1658 -0.9657
44023SOL     OW35660  10.636  10.103   1.224  0.1750 -0.4882 -0.1602
44023SOL    HW135661  10.653  10.056   1.143 -1.4736  0.2422 -0.9636
44023SOL    HW235662  10.668  10.192   1.207 -0.3433 -0.2853 -0.0689
44024SOL     OW35663   4.765   8.264   4.828  0.2326  0.3723 -0.1456
44024SOL    HW135664   4.694   8.244   4.888  0.0200 -0.5680 -0.6883
44024SOL    HW235665   4.723   8.279   4.744  0.6883 -0.8179 -0.6202
44025SOL     OW35666   2.505   2.142   0.557  0.0873 -0.3716 -0.0429
44025SOL    HW135667   2.474   2.181   0.475  0.1360  1.6664  0.8475
44025SOL    HW235668   2.600   2.139   0.548  0.1014 -0.0275 -0.0268
44026SOL     OW35669   0.785   4.103   1.565  0.8369  0.0524  0.0543
44026SOL    HW135670   0.861   4.139   1.610  2.2176 -2.0420 -0.4219
44026SOL    HW235671   0.774   4.159   1.488  1.9548  0.3693  0.1076
44027SOL     OW35672   5.487   7.855   5.857  0.0633  0.1021 -0.3433
44027SOL    HW135673   5.504   7.799   5.932 -0.2269  1.7160  0.9904
44027SOL    HW235674   5.395   7.839   5.835 -0.4514  1.0973  0.9783
44028SOL     OW35675  10.534   5.172  10.347 -0.0131  0.4996  0.4116
44028SOL    HW135676  10.623   5.149  10.374  0.1292  0.8494  0.2497
44028SOL    HW235677  10.482   5.094  10.368  0.4535  0.0337 -0.1268
44029SOL     OW35678   8.249   6.479   0.203 -0.7104  0.0773  0.5150
44029SOL    HW135679   8.291   6.549   0.153 -1.7580  0.1411 -0.3394
44029SOL    HW235680   8.305   6.403   0.191 -0.0001  0.5579  0.7527
44030SOL     OW35681  10.140   3.863   3.745  0.2233 -0.4420  0.2234
44030SOL    HW135682  10.125   3.868   3.650  2.4369  1.1063 -0.1299
44030SOL    HW235683  10.052   3.869   3.783 -0.5615  2.3201 -1.6789
44031SOL     OW35684   4.964   4.071   8.680  0.4947 -0.6505 -0.0593
44031SOL    HW135685   4.873   4.076   8.653  0.0653  1.2119  1.4309
44031SOL    HW235686   4.967   4.000   8.744 -0.0244 -0.4281  0.2158
44032SOL     OW35687   8.026   9.541   8.645 -0.2159  0.4509 -1.0330
44032SOL    HW135688   8.069   9.469   8.600  1.3293  0.4277  0.4004
44032SOL    HW235689   7.964   9.499   8.704 -0.2662  0.3672 -1.1446
44033SOL     OW35690  10.935   2.236   0.614 -0.3753  0.3528 -0.2672
44033SOL    HW135691  10.891   2.156   0.586 -2.1285  1.0108  0.4321
44033SOL    HW235692  10.939   2.230   0.709  0.1838  0.7480 -0.2596
44034SOL     OW35693   1.627   8.473   4.236 -0.1628  0.1919  0.1114
44034SOL    HW135694   1.617   8.559   4.196 -2.2272 -0.1557 -0.2482
44034SOL    HW235695   1.612   8.488   4.330 -3.2839 -0.0796 -0.2430
44035SOL     OW35696   3.793   5.782   9.693  0.3292  0.2837 -0.3355
44035SOL    HW135697   3.874   5.741   9.664  0.0575  1.0718 -2.4321
44035SOL    HW235698   3.727   5.747   9.633 -0.6996  0.4394  0.6756
44036SOL     OW35699   5.965   1.783   2.005  0.1650 -0.2991  0.5169
44036SOL    HW135700   5.931   1.716   2.066 -0.9020 -1.5949 -1.4051
44036SOL    HW235701   6.038   1.823   2.052 -0.1547 -1.7453  2.3615
44037SOL     OW35702   1.364   1.481   6.979 -0.4952  0.0635 -0.5341
44037SOL    HW135703   1.419   1.403   6.971  0.8376  0.9986 -0.9808
44037SOL    HW235704   1.301   1.459   7.047  0.6638 -0.9634  0.2598
44038SOL     OW35705   6.430   9.586   0.200  0.3574  0.0069 -0.3729
44038SOL    HW135706   6.497   9.558   0.263  0.9909 -0.5429 -1.2616
44038SOL    HW235707   6.396   9.504   0.163 -1.3947  0.2391  0.6238
44039SOL     OW35708   6.164   5.380   7.987 -0.0348  0.3223 -0.1691
44039SOL    HW135709   6.154   5.371   8.081  1.2400 -0.3574 -0.0717
44039SOL    HW235710   6.222   5.308   7.962  0.5032  1.1196 -1.3187
44040SOL     OW35711   2.135   4.092   4.598 -0.1952  0.0279  0.5225
44040SOL    HW135712   2.072   4.153   4.560  0.0656  1.6569  2.5141
44040SOL    HW235713   2.196   4.073   4.527 -2.0319 -0.4456 -1.0309
44041SOL     OW35714   9.248  10.328   6.280  0.1059 -0.4138  0.3628
44041SOL    HW135715   9.261  10.308   6.187  0.3414 -1.5109  0.6196
44041SOL    HW235716   9.289  10.413   6.292 -0.0514 -0.1975 -0.5705
44042SOL     OW35717   9.140   3.585   7.390  0.2883  0.2921 -0.6738
44042SOL    HW135718   9.072   3.634   7.344 -0.9028  0.8264  1.5428
44042SOL    HW235719   9.194   3.653   7.431  0.5149 -0.2024 -0.1532
44043SOL     OW35720   6.310  10.331  10.322  0.0220  0.1324  0.0193
44043SOL    HW135721   6.305  10.361  10.231 -0.0653 -1.3253 -0.4754
44043SOL    HW235722   6.253  10.391  10.370  1.6232  2.1835 -0.5010
44044SOL     OW35723   9.623   8.570   7.991 -0.0883  0.1368  0.0025
44044SOL    HW135724   9.648   8.646   8.044 -0.6427 -0.7492  1.5843
44044SOL    HW235725   9.699   8.513   7.991  0.6405  1.0301 -1.9152
44045SOL     OW35726   6.675   9.070   0.134 -0.3283  0.6283  0.7234
44045SOL    HW135727   6.635   9.128   0.069 -0.1931  0.6721  0.6761
44045SOL    HW235728   6.606   9.052   0.198 -0.3592  0.8702  0.7566
44046SOL     OW35729   8.682   0.066   5.110 -0.1437  0.3189 -0.3988
44046SOL    HW135730   8.704   0.154   5.140  0.0765  0.2340 -0.3087
44046SOL    HW235731   8.658   0.077   5.018 -3.1765  0.9636  0.3749
44047SOL     OW35732   5.431   8.375   2.236 -0.4620 -0.2934 -0.2181
44047SOL    HW135733   5.366   8.383   2.166 -0.0800  0.5504 -0.4957
44047SOL    HW235734   5.483   8.299   2.212  0.3550  0.6076 -1.4686
44048SOL     OW35735   4.807   1.261  10.278 -0.2670  0.1286  0.3264
44048SOL    HW135736   4.820   1.192  10.213  0.0312  0.8069 -0.3376
44048SOL    HW235737   4.724   1.238  10.320 -1.0458  0.2969 -1.0556
44049SOL     OW35738   4.186   8.084   3.895 -0.6791  0.2310  0.6461
44049SOL    HW135739   4.252   8.019   3.872 -3.0300 -1.6272 -1.3810
44049SOL    HW235740   4.134   8.043   3.964 -0.4947  1.1464  1.3428
44050SOL     OW35741   2.476   0.673   6.666 -0.0401  0.3932 -0.3942
44050SOL    HW135742   2.531   0.703   6.739 -0.2143  0.3072 -0.2271
44050SOL    HW235743   2.440   0.753   6.629 -0.1108  0.4237 -0.2597
44051SOL     OW35744   0.473   0.010   5.652  0.2562  0.0264 -0.0547
44051SOL    HW135745   0.506   0.073   5.717 -3.7319  2.5279 -0.1187
44051SOL    HW235746   0.494   0.050   5.568  0.5142 -0.4001 -0.1972
44052SOL     OW35747   3.634   1.621  10.409  0.3848  0.0463 -0.0450
44052SOL    HW135748   3.616   1.661  10.494  0.2841  0.6351 -0.3418
44052SOL    HW235749   3.601   1.684  10.345 -1.3372 -1.2596 -0.5057
44053SOL     OW35750  10.918   2.058   4.595 -0.9102  0.3532  0.1615
44053SOL    HW135751  10.854   1.995   4.562 -0.1406 -0.1351 -0.4259
44053SOL    HW235752  10.875   2.098   4.670 -1.3125 -1.0832  0.7324
44054SOL     OW35753   6.653   1.785   2.597  0.1481  0.5915 -0.7708
44054SOL    HW135754   6.574   1.796   2.649  0.9115 -0.9040  0.8154
44054SOL    HW235755   6.622   1.771   2.508 -1.4627 -1.1170  0.0007
44055SOL     OW35756   0.793  10.092   0.102 -0.3444  0.1250 -0.0144
44055SOL    HW135757   0.772  10.045   0.183  1.9319 -3.0859 -1.0876
44055SOL    HW235758   0.862  10.154   0.126  0.9681 -1.4511  0.4057
44056SOL     OW35759   5.053   7.017   1.972  0.1125 -0.2429 -0.1490
44056SOL    HW135760   5.108   7.095   1.981  0.1291 -0.0498 -1.6020
44056SOL    HW235761   5.103   6.958   1.916 -2.2066  1.1342 -4.1246
44057SOL     OW35762   8.063   6.560   0.647  0.0810 -0.5578  0.1111
44057SOL    HW135763   7.998   6.491   0.645  0.1868 -0.6795  0.7374
44057SOL    HW235764   8.132   6.530   0.587  0.6477 -1.5288  1.2052
44058SOL     OW35765   4.083   0.097   5.121  0.1911  0.5733 -0.3841
44058SOL    HW135766   4.064   0.050   5.040  0.2761  0.7073 -0.4816
44058SOL    HW235767   4.083   0.189   5.095 -0.5257  0.6617 -0.0904
44059SOL     OW35768   0.344   3.787  10.755 -0.7914 -1.2095 -0.3023
44059SOL    HW135769   0.274   3.847  10.731  1.1738  1.7114  0.7791
44059SOL    HW235770   0.300   3.717  10.803 -3.2047 -0.7908 -1.7442
44060SOL     OW35771   6.143   7.428   6.095 -0.1683 -0.5087  0.2835
44060SOL    HW135772   6.145   7.417   6.190  2.6719 -0.2661  0.3426
44060SOL    HW235773   6.085   7.503   6.081 -0.2276 -0.2252  1.8597
44061SOL     OW35774   8.327   1.421   4.190 -0.1571 -0.4739  0.0010
44061SOL    HW135775   8.353   1.507   4.155 -0.1075 -0.6589 -0.4226
44061SOL    HW235776   8.375   1.358   4.136  0.8786 -0.7375  1.1875
44062SOL     OW35777   3.835   4.498   5.129  0.2593 -0.3787  0.4918
44062SOL    HW135778   3.810   4.519   5.039 -2.6156 -1.6894  0.8428
44062SOL    HW235779   3.845   4.582   5.172  1.2867  0.2648 -0.9341
44063SOL     OW35780   8.306   2.704   7.217 -0.2169  0.0949  0.9766
44063SOL    HW135781   8.313   2.676   7.308  0.0126 -1.9469  0.3774
44063SOL    HW235782   8.391   2.682   7.178 -0.8642 -0.5748 -0.1086
44064SOL     OW35783   7.782  10.663   6.341  0.2411 -0.3001 -0.4793
44064SOL    HW135784   7.748  10.752   6.351  1.4651  0.2695 -1.1849
44064SOL    HW235785   7.729  10.625   6.271 -1.1615 -0.6028  0.7060
44065SOL     OW35786   7.881   9.451   8.856  0.2412  0.2012  0.4460
44065SOL    HW135787   7.862   9.517   8.923 -0.9043 -0.9417  1.2702
44065SOL    HW235788   7.860   9.368   8.897  0.9925 -0.6475 -0.8285
44066SOL     OW35789   6.662   9.918   6.179  0.2959 -0.0986 -0.2689
44066SOL    HW135790   6.628   9.833   6.203  0.2615 -0.3061 -1.0208
44066SOL    HW235791   6.678   9.963   6.262  2.7451 -1.7764  0.2912
44067SOL     OW35792   3.511   8.617   2.634  0.5478 -0.0104 -0.2368
44067SOL    HW135793   3.545   8.650   2.551  0.6295 -1.1058 -0.6452
44067SOL    HW235794   3.557   8.669   2.700 -0.3310  1.6636 -0.8556
44068SOL     OW35795   3.355   7.491   5.839  0.6262 -0.5058 -0.4156
44068SOL    HW135796   3.429   7.545   5.866  0.2551  0.7271 -1.7525
44068SOL    HW235797   3.291   7.499   5.910  1.2844 -0.6282  0.1944
44069SOL     OW35798   3.877   7.313   4.507  0.1083 -0.1955  0.4679
44069SOL    HW135799   3.826   7.353   4.578  0.3147 -0.2376  0.6413
44069SOL    HW235800   3.842   7.353   4.427  0.6555  0.7209  0.6658
44070SOL     OW35801   5.133   3.918   8.148  0.1151  0.9670  0.1615
44070SOL    HW135802   5.211   3.886   8.194 -0.4533  1.1457  1.2935
44070SOL    HW235803   5.123   3.858   8.074 -1.4624 -2.2701  2.7136
44071SOL     OW35804   5.310   7.568   4.991  0.4205  0.2646 -0.0331
44071SOL    HW135805   5.343   7.547   4.903  0.7143 -1.9688  0.5425
44071SOL    HW235806   5.354   7.650   5.015  0.3037  0.9438 -1.9566
44072SOL     OW35807   2.926   6.430   2.735 -0.1018  0.3980 -0.0973
44072SOL    HW135808   2.893   6.433   2.825 -0.3020  1.9446 -0.1959
44072SOL    HW235809   2.859   6.475   2.683  0.2123 -0.1118 -0.9677
44073SOL     OW35810   1.124   9.529   9.737 -0.0306  0.5493 -0.4177
44073SOL    HW135811   1.058   9.580   9.782  1.8068  1.8003  0.9762
44073SOL    HW235812   1.171   9.483   9.807  0.2636 -0.7490 -1.4195
44074SOL     OW35813   2.587   6.125   9.417  0.1624 -0.5796 -0.0255
44074SOL    HW135814   2.645   6.145   9.491  0.4907 -2.3285  0.2382
44074SOL    HW235815   2.505   6.097   9.457  0.6094 -2.3546 -0.2295
44075SOL     OW35816   8.930   2.852   0.268 -0.0546 -0.1470 -0.3826
44075SOL    HW135817   8.851   2.806   0.239 -0.0799  0.7174 -1.8103
44075SOL    HW235818   8.911   2.945   0.250  2.0883 -0.0893 -2.8802
44076SOL     OW35819   5.971   0.665   7.125 -0.3600  0.1918  0.3525
44076SOL    HW135820   5.934   0.647   7.212 -0.1380 -0.3756  0.3341
44076SOL    HW235821   5.896   0.662   7.066 -0.5790  1.0053  0.5788
44077SOL     OW35822   3.866   4.759   7.507  0.1863 -0.6466 -0.2733
44077SOL    HW135823   3.882   4.664   7.508  1.2003 -0.4842  0.3441
44077SOL    HW235824   3.944   4.796   7.466  0.2089 -0.0192  0.3166
44078SOL     OW35825   6.723   8.199   0.867  0.2149 -0.2786  0.8079
44078SOL    HW135826   6.729   8.145   0.788 -0.0273 -0.1214  0.6822
44078SOL    HW235827   6.737   8.288   0.836 -3.0973  0.2102  0.4069
44079SOL     OW35828   9.391   5.842   6.804 -0.5449 -0.3736 -0.4271
44079SOL    HW135829   9.424   5.810   6.720 -2.1060  2.5213 -2.3138
44079SOL    HW235830   9.302   5.809   6.809 -0.2990 -0.9358  0.3513
44080SOL     OW35831   3.859   6.029   3.007  0.8257  0.4191 -0.3809
44080SOL    HW135832   3.794   6.098   2.995 -0.2435 -0.6572 -0.9983
44080SOL    HW235833   3.941   6.076   3.019  0.1014  1.8018 -0.5688
44081SOL     OW35834   8.581   3.786   5.402  0.1481 -0.6276 -0.0861
44081SOL    HW135835   8.626   3.704   5.381  0.3747 -0.6502  0.4809
44081SOL    HW235836   8.493   3.774   5.366  0.4506 -0.7664 -0.7885
44082SOL     OW35837   5.339   3.655   3.222  0.3168  0.5384 -0.5193
44082SOL    HW135838   5.375   3.640   3.310 -0.1831  1.4962 -0.1405
44082SOL    HW235839   5.274   3.586   3.210 -0.8341  1.3847  0.5667
44083SOL     OW35840   4.465   9.822   4.047  1.0677  0.3382  0.3322
44083SOL    HW135841   4.462   9.914   4.074 -0.2195  0.4637 -0.1615
44083SOL    HW235842   4.424   9.821   3.960 -0.6198 -0.9390  1.0760
44084SOL     OW35843   4.781   9.683   5.657 -0.1835 -0.0892  0.5144
44084SOL    HW135844   4.739   9.675   5.743  0.2338 -0.3201  0.7015
44084SOL    HW235845   4.721   9.637   5.598  0.6566 -2.0487  1.0788
44085SOL     OW35846  10.339   1.459   6.602  0.1119 -0.3987 -0.0897
44085SOL    HW135847  10.348   1.521   6.675  0.3652 -1.8278  1.1589
44085SOL    HW235848  10.410   1.481   6.543  1.8527 -1.1246  1.6300
44086SOL     OW35849   6.732   3.566   7.730  0.8443  0.0799  0.4060
44086SOL    HW135850   6.674   3.642   7.723  1.1685  0.3669  0.7693
44086SOL    HW235851   6.674   3.490   7.723  0.4434  0.3652  0.6173
44087SOL     OW35852  10.113   0.786  10.882 -0.4277 -0.1222  0.3994
44087SOL    HW135853  10.157   0.862  10.843 -0.8776 -0.3461 -0.5686
44087SOL    HW235854  10.091   0.815  10.970 -0.1237  0.6886  0.2243
44088SOL     OW35855   0.901   3.236   8.259 -0.5169  0.3962 -0.3932
44088SOL    HW135856   0.908   3.170   8.190  2.8499  2.8580 -2.7181
44088SOL    HW235857   0.976   3.218   8.316 -2.0279 -0.2672  1.4793
44089SOL     OW35858   4.421   4.652  10.562  0.1313 -0.3048 -0.2008
44089SOL    HW135859   4.373   4.581  10.606  1.2171 -1.5038 -0.8921
44089SOL    HW235860   4.505   4.656  10.608 -0.5214  1.7165  0.9426
44090SOL     OW35861   0.233   2.788   9.225 -0.6515  0.5194  0.4224
44090SOL    HW135862   0.153   2.760   9.271 -0.4902 -0.1939  0.2801
44090SOL    HW235863   0.200   2.841   9.152 -1.1511 -1.2295 -0.7137
44091SOL     OW35864   7.256   2.599   0.432  0.9324  0.1309 -0.2349
44091SOL    HW135865   7.186   2.535   0.444  1.3093 -0.0035  1.3668
44091SOL    HW235866   7.224   2.657   0.362 -0.4563 -0.3584 -0.0253
44092SOL     OW35867   1.338   6.826   3.987 -0.7530 -0.0708  0.2362
44092SOL    HW135868   1.255   6.778   3.992  0.1572 -2.1219 -2.1788
44092SOL    HW235869   1.352   6.840   3.894  0.9947  1.4334  0.6678
44093SOL     OW35870   1.896  11.075   0.799 -0.1698  0.3384  0.0351
44093SOL    HW135871   1.910  11.137   0.728 -0.8744 -0.4345 -0.7881
44093SOL    HW235872   1.961  11.006   0.784 -0.7883 -0.1847 -0.2842
44094SOL     OW35873   8.185   5.657   1.737 -0.1808  0.1808 -0.0125
44094SOL    HW135874   8.141   5.622   1.660  0.0531  1.4564 -0.7674
44094SOL    HW235875   8.272   5.682   1.706  0.1042  0.2212  0.7918
44095SOL     OW35876   7.169   0.917   6.431  0.2514 -0.4792  0.6637
44095SOL    HW135877   7.158   0.824   6.411 -0.5905 -0.2249 -0.1112
44095SOL    HW235878   7.082   0.955   6.418  1.0907  0.8917 -1.5294
44096SOL     OW35879   0.428   7.801   7.708  0.1691 -0.0290 -0.5931
44096SOL    HW135880   0.451   7.708   7.701  0.6137  0.0330 -0.0412
44096SOL    HW235881   0.333   7.802   7.721  0.2699 -0.4492  0.2113
44097SOL     OW35882  11.075   4.639   1.547  0.3915 -0.0523  0.5160
44097SOL    HW135883  11.111   4.638   1.636  1.7001  1.4322  0.0542
44097SOL    HW235884  11.150   4.658   1.491 -0.8185  1.6172 -0.6378
44098SOL     OW35885   6.876   8.869   4.163 -0.6045  0.1272 -0.3236
44098SOL    HW135886   6.918   8.844   4.080 -0.7160 -1.8794  0.1618
44098SOL    HW235887   6.936   8.838   4.230 -0.9635  0.8789  0.3561
44099SOL     OW35888   1.104   3.970   2.926  0.5105 -0.4095  0.4939
44099SOL    HW135889   1.025   4.024   2.936 -0.3390 -1.6981  0.9616
44099SOL    HW235890   1.152   4.012   2.854 -1.1857 -0.2693 -0.6195
44100SOL     OW35891   8.824  10.103   8.696  0.0724  0.0262 -0.0642
44100SOL    HW135892   8.905  10.112   8.646  0.4557  0.7935  0.6833
44100SOL    HW235893   8.755  10.130   8.634  0.6340  2.0440  0.1156
44101SOL     OW35894   8.558   1.252   5.885  0.6802  0.7363 -0.5249
44101SOL    HW135895   8.532   1.339   5.916 -2.3429  0.1455 -1.0326
44101SOL    HW235896   8.525   1.192   5.952  0.8332 -0.1285 -1.2091
44102SOL     OW35897   5.299   7.463   5.750  0.2917 -0.1385  0.0176
44102SOL    HW135898   5.241   7.477   5.825 -0.5675  0.0896 -0.6720
44102SOL    HW235899   5.278   7.375   5.719  0.7436 -0.2868  0.1263
44103SOL     OW35900   2.973   2.931   9.399  0.2506 -0.0418  0.2073
44103SOL    HW135901   2.958   2.870   9.326 -1.3635 -0.2278  0.6462
44103SOL    HW235902   3.047   2.894   9.446 -0.1271 -1.1871 -0.0597
44104SOL     OW35903   4.111  10.832   3.570 -0.7497 -0.0361  0.2247
44104SOL    HW135904   4.145  10.821   3.659  0.6326  1.1512 -0.1164
44104SOL    HW235905   4.084  10.745   3.543  0.7164 -0.7791  1.0601
44105SOL     OW35906   3.592   3.935   0.969  0.1970 -0.3222  0.0130
44105SOL    HW135907   3.678   3.978   0.974 -0.0965  0.1619  1.2418
44105SOL    HW235908   3.592   3.873   1.042 -0.8631  0.3868  0.6414
44106SOL     OW35909   3.080   8.030   9.071 -0.7335  0.5380  0.1146
44106SOL    HW135910   3.051   8.089   9.141 -1.5712  1.1329 -0.7081
44106SOL    HW235911   3.110   8.088   9.002  0.5897 -0.0551  0.1600
44107SOL     OW35912   2.810  10.976   5.469  0.4587  0.1552 -0.0582
44107SOL    HW135913   2.831  10.990   5.377  1.9803  0.8805  0.3640
44107SOL    HW235914   2.719  11.003   5.478 -0.0085 -0.8031 -1.5111
44108SOL     OW35915   0.297   8.323   7.852  0.3440 -0.0461  0.2997
44108SOL    HW135916   0.320   8.413   7.875 -1.5127  0.6078 -0.2272
44108SOL    HW235917   0.255   8.288   7.930  2.3927 -1.0331  1.0484
44109SOL     OW35918   2.224   6.123   3.212 -0.1209 -0.3496  0.0180
44109SOL    HW135919   2.281   6.088   3.280 -0.4636  0.1143  0.5590
44109SOL    HW235920   2.135   6.105   3.243 -0.2787 -0.2233 -0.3513
44110SOL     OW35921   0.812   5.810   1.037  0.3062  0.4209 -0.1671
44110SOL    HW135922   0.828   5.864   1.115 -0.5531  0.0768  0.2587
44110SOL    HW235923   0.895   5.764   1.022  0.7946  1.2431 -0.0598
44111SOL     OW35924   2.288  10.838   2.416 -0.1492 -0.1829  0.6438
44111SOL    HW135925   2.207  10.830   2.465 -0.0147 -1.3332  0.6920
44111SOL    HW235926   2.301  10.753   2.375  1.1929 -0.1184  0.8713
44112SOL     OW35927   9.026   2.267  10.769  0.2165  0.6882 -0.4501
44112SOL    HW135928   8.997   2.356  10.749 -2.1110 -0.2093 -1.4990
44112SOL    HW235929   9.049   2.229  10.684  1.0172  0.2055 -0.0398
44113SOL     OW35930   3.351   9.309   5.933 -0.0352 -0.2340 -0.4335
44113SOL    HW135931   3.332   9.354   5.850  0.3213  0.8657  0.0593
44113SOL    HW235932   3.396   9.229   5.907  0.9221  0.5521 -1.2776
44114SOL     OW35933   8.743  10.155   3.941  0.4904 -0.1059 -0.2297
44114SOL    HW135934   8.790  10.202   4.010 -1.0645  1.6156 -0.2363
44114SOL    HW235935   8.770  10.199   3.860 -0.1209  0.0338 -0.3637
44115SOL     OW35936   3.127   4.691   7.368  0.6922  0.6708 -0.5285
44115SOL    HW135937   3.045   4.694   7.417  0.1576  0.0156 -1.3558
44115SOL    HW235938   3.183   4.634   7.420  0.6869  1.2413  0.1195
44116SOL     OW35939   2.955   2.731   4.314 -0.0114  0.1546  0.1558
44116SOL    HW135940   2.927   2.794   4.381 -1.2148  0.7226 -0.8218
44116SOL    HW235941   2.950   2.781   4.232  0.5793 -0.7701 -0.4574
44117SOL     OW35942   8.451   3.012   8.096 -0.1683  0.6606 -0.7581
44117SOL    HW135943   8.461   2.993   8.190 -1.3661 -2.3191 -1.1291
44117SOL    HW235944   8.379   3.075   8.092 -0.8701 -0.0450  0.2896
44118SOL     OW35945   3.136   2.896   6.691 -0.2557 -0.0566  0.1773
44118SOL    HW135946   3.089   2.819   6.723 -0.6413 -0.1992 -0.6924
44118SOL    HW235947   3.213   2.903   6.747 -0.7032 -0.5207  0.8659
44119SOL     OW35948   9.976   2.246   7.430 -0.1302 -0.4975 -0.0673
44119SOL    HW135949   9.995   2.339   7.437  0.1665 -0.4927 -0.8523
44119SOL    HW235950  10.061   2.203   7.435 -0.3435 -0.7920  1.2257
44120SOL     OW35951   9.821   6.357   8.084 -0.0301 -0.3707  0.4929
44120SOL    HW135952   9.811   6.310   8.166  2.2949 -0.1615  0.9465
44120SOL    HW235953   9.820   6.288   8.017  2.8743 -1.1604  1.1153
44121SOL     OW35954   9.401   2.489   8.117 -0.2871 -0.2019 -0.4520
44121SOL    HW135955   9.362   2.454   8.197  0.3612 -0.8095 -0.3894
44121SOL    HW235956   9.415   2.582   8.136 -0.8615 -0.1724 -0.1495
44122SOL     OW35957   0.113  10.709   7.775 -1.3933 -0.5112  0.2406
44122SOL    HW135958   0.104  10.681   7.866  0.2443 -1.3663  0.1939
44122SOL    HW235959   0.114  10.627   7.725 -0.7195 -0.1505 -0.3596
44123SOL     OW35960  10.497  10.539   8.444  0.2548 -0.4097  0.2529
44123SOL    HW135961  10.402  10.539   8.436  0.3612 -0.1888 -1.3564
44123SOL    HW235962  10.520  10.447   8.459 -0.0686 -0.9137 -2.0082
44124SOL     OW35963   8.061   5.320   8.383  0.3350  0.0098  0.8984
44124SOL    HW135964   8.011   5.242   8.405  0.3510 -0.1846  0.2644
44124SOL    HW235965   8.063   5.322   8.287  0.2607  0.8351  0.9018
44125SOL     OW35966   7.847   5.054   6.452 -0.1440  0.0485  0.2096
44125SOL    HW135967   7.894   5.125   6.497  1.9687 -1.7536  1.0276
44125SOL    HW235968   7.816   5.094   6.371  2.5619  1.4937 -0.2393
44126SOL     OW35969  10.274   0.948   8.280  0.5712 -0.0254 -0.2082
44126SOL    HW135970  10.280   1.044   8.289  1.8814 -0.1623  0.6426
44126SOL    HW235971  10.253   0.934   8.188  1.2334  1.0687 -0.5475
44127SOL     OW35972   1.147   2.218   9.271  1.2118  0.2732 -0.4568
44127SOL    HW135973   1.212   2.154   9.299 -0.4483 -1.0160  0.6231
44127SOL    HW235974   1.147   2.213   9.176  2.1633 -0.2317 -0.4433
44128SOL     OW35975   4.106   3.122   6.118  0.0572 -0.4145  0.5448
44128SOL    HW135976   4.154   3.192   6.073  0.8441 -0.9426  0.5239
44128SOL    HW235977   4.161   3.100   6.193 -0.4884 -0.5911  0.8950
44129SOL     OW35978   9.834   9.860   1.904  0.4904  0.2211  0.3646
44129SOL    HW135979   9.872   9.816   1.829  0.7605  1.7961 -0.4730
44129SOL    HW235980   9.748   9.819   1.916 -1.6728  2.8695 -3.7898
44130SOL     OW35981   0.357   7.310   4.063 -0.3487  0.6732  0.1357
44130SOL    HW135982   0.295   7.379   4.088 -0.4834  0.9620 -0.9093
44130SOL    HW235983   0.439   7.357   4.049 -0.5078  0.6788 -0.8469
44131SOL     OW35984   3.959   0.982   1.910  0.2992  0.0414 -0.4923
44131SOL    HW135985   3.911   1.040   1.969  2.4932  0.2455  1.2567
44131SOL    HW235986   3.985   0.908   1.966  1.0957 -0.5565 -1.6160
44132SOL     OW35987   9.527   3.587   6.236 -0.2610 -0.3246 -0.2263
44132SOL    HW135988   9.452   3.579   6.294 -0.8796  1.1583 -0.7898
44132SOL    HW235989   9.599   3.614   6.293  0.5599 -3.9710  0.7626
44133SOL     OW35990   1.995   5.346   1.854  0.2650 -0.1764 -0.1920
44133SOL    HW135991   2.018   5.364   1.945  0.0294 -0.4502 -0.0772
44133SOL    HW235992   1.905   5.378   1.845  0.4034  0.1510 -0.4183
44134SOL     OW35993   8.407   1.411   9.873 -0.1157 -0.2876 -0.2072
44134SOL    HW135994   8.452   1.359   9.939  1.2485  1.2330  0.1149
44134SOL    HW235995   8.476   1.441   9.814 -1.0593 -0.0124 -1.2184
44135SOL     OW35996   0.032   4.203  10.901  0.3571  0.0951  0.4117
44135SOL    HW135997  -0.032   4.237  10.963 -0.6189 -1.4572  0.3175
44135SOL    HW235998  -0.020   4.166  10.830  1.3655 -0.6688  0.0361
44136SOL     OW35999   4.698  10.549   5.417 -0.0187 -0.3694 -0.1352
44136SOL    HW136000   4.645  10.588   5.487 -1.5028 -2.2484 -0.1361
44136SOL    HW236001   4.637  10.540   5.344  1.1483  0.2339 -1.2085
44137SOL     OW36002   8.342   0.665   9.633  0.1027  0.9081 -0.0777
44137SOL    HW136003   8.383   0.580   9.620 -2.2871 -0.5272  1.1794
44137SOL    HW236004   8.320   0.668   9.726  1.5589  3.6574  0.3072
44138SOL     OW36005   6.600   4.191   4.854  0.9642  0.0236  0.3369
44138SOL    HW136006   6.630   4.248   4.783 -0.2820  0.5179  0.1717
44138SOL    HW236007   6.573   4.252   4.923 -1.1709 -0.2762 -0.1568
44139SOL     OW36008   3.215   4.848   7.064 -0.5148  0.3335 -0.0955
44139SOL    HW136009   3.129   4.865   7.025  0.2823  0.0036 -2.1246
44139SOL    HW236010   3.207   4.759   7.101 -0.6526 -0.2754 -1.5321
44140SOL     OW36011   3.171   8.156   6.097  0.0828  0.4233  0.8094
44140SOL    HW136012   3.187   8.074   6.142 -1.5814  0.1034  0.8853
44140SOL    HW236013   3.210   8.144   6.011  0.5633 -0.1255  1.0926
44141SOL     OW36014   0.103   8.939   5.715  0.6272  0.0431  0.1233
44141SOL    HW136015   0.087   8.847   5.694  0.8192 -0.0716  0.4766
44141SOL    HW236016   0.081   8.947   5.807  1.1256  0.2342  0.2269
44142SOL     OW36017   2.372   1.978   1.307  0.1013  0.4383  0.2125
44142SOL    HW136018   2.364   1.884   1.289  0.2722  0.0738  1.8715
44142SOL    HW236019   2.316   2.020   1.242  0.0474 -0.8080 -0.5794
44143SOL     OW36020   1.352  10.237  10.506 -0.1508  0.1410  0.1784
44143SOL    HW136021   1.325  10.249  10.597  1.4952  2.0244  0.4892
44143SOL    HW236022   1.295  10.168  10.473 -2.3336  0.9579  1.9678
44144SOL     OW36023   0.178   4.981   8.977  0.1676 -0.4517  0.4977
44144SOL    HW136024   0.147   5.055   9.028  0.2169 -0.5927  0.7350
44144SOL    HW236025   0.174   4.907   9.037  1.8835 -0.2936  0.8552
44145SOL     OW36026   6.817   2.776   1.643 -0.1999 -0.1919 -0.3019
44145SOL    HW136027   6.894   2.802   1.592 -0.7958 -1.0847 -1.6965
44145SOL    HW236028   6.747   2.767   1.579 -1.6571  1.1919  1.0197
44146SOL     OW36029   5.470   7.531  10.498 -0.3103 -0.1095  0.2047
44146SOL    HW136030   5.407   7.552  10.430 -1.3950  0.3451  1.3108
44146SOL    HW236031   5.426   7.465  10.553  1.3358 -2.0530 -0.6697
44147SOL     OW36032   5.200   9.560   5.060 -0.0732 -0.0858 -0.4682
44147SOL    HW136033   5.196   9.489   4.996  3.0671 -0.5823 -0.2951
44147SOL    HW236034   5.293   9.586   5.061 -0.2828  0.9750  2.7279
44148SOL     OW36035   4.085   1.210   5.087  0.1336  0.4051 -0.1019
44148SOL    HW136036   4.146   1.252   5.025  2.7211  0.2690  2.1411
44148SOL    HW236037   4.079   1.120   5.056  1.8835  0.1769  0.0811
44149SOL     OW36038   9.796   3.184  10.504  0.3775 -0.3621  0.7073
44149SOL    HW136039   9.769   3.103  10.548 -2.1416 -0.0533 -0.0670
44149SOL    HW236040   9.827   3.155  10.418  1.1081 -0.6165  1.0491
44150SOL     OW36041   2.511   8.710   5.454  0.6298  0.0177 -0.2123
44150SOL    HW136042   2.416   8.721   5.452  0.4493 -1.2915 -0.0001
44150SOL    HW236043   2.535   8.725   5.545  0.4496 -0.8325 -0.0154
44151SOL     OW36044   8.291   6.423   4.959 -0.2600 -0.1896  0.3869
44151SOL    HW136045   8.380   6.402   4.987  0.3918  1.1381 -0.5474
44151SOL    HW236046   8.302   6.475   4.879 -1.9568 -1.7922 -0.9908
44152SOL     OW36047   2.395  10.490   0.324  0.1393 -0.2709 -0.0433
44152SOL    HW136048   2.305  10.493   0.356 -0.7278 -2.5276 -1.9230
44152SOL    HW236049   2.449  10.505   0.401 -1.8400 -2.4972  1.9264
44153SOL     OW36050   6.361   8.433  10.625  0.7714 -0.0633  0.6549
44153SOL    HW136051   6.267   8.450  10.627  0.9015  1.8037 -2.4101
44153SOL    HW236052   6.369   8.340  10.643 -1.6712 -0.2569  1.0380
44154SOL     OW36053   6.697   3.275  11.055 -0.0191 -0.0152 -0.1182
44154SOL    HW136054   6.662   3.186  11.057 -1.2049  0.4173 -0.6200
44154SOL    HW236055   6.694   3.304  11.147  1.0385 -0.7234  0.1551
44155SOL     OW36056   2.950   6.941   5.490 -0.4207 -0.3123 -0.1599
44155SOL    HW136057   2.979   6.860   5.448  0.3622 -0.6442  0.9721
44155SOL    HW236058   2.996   7.010   5.441  1.5420 -0.7692  0.9006
44156SOL     OW36059   9.490   6.909   8.367 -0.3019 -0.0164  0.4177
44156SOL    HW136060   9.461   6.882   8.454 -2.0593 -0.8579 -0.3820
44156SOL    HW236061   9.414   6.951   8.327 -0.6434 -2.5193 -1.8655
44157SOL     OW36062   3.408   1.820   0.979 -0.4402 -0.1778 -0.5123
44157SOL    HW136063   3.465   1.894   1.001  0.2034 -1.3454  2.1882
44157SOL    HW236064   3.320   1.856   0.980 -0.2727  0.3426  2.2754
44158SOL     OW36065   5.524  10.481   9.041 -0.9781  0.5234 -0.1210
44158SOL    HW136066   5.549  10.403   9.091 -0.6930  0.6701 -0.0322
44158SOL    HW236067   5.501  10.546   9.108 -0.4193  0.7784 -0.1706
44159SOL     OW36068   5.329  10.880   5.242  0.4370  0.1190  0.1967
44159SOL    HW136069   5.234  10.866   5.251  0.5317 -0.5073  0.2491
44159SOL    HW236070   5.354  10.928   5.321  0.2507 -0.1919  0.4495
44160SOL     OW36071  10.443   7.928   5.028 -0.1520  0.2320 -0.2368
44160SOL    HW136072  10.481   7.994   4.970 -1.1916  1.2680  0.2301
44160SOL    HW236073  10.501   7.928   5.105 -0.2717  0.7678 -0.1429
44161SOL     OW36074   4.537   6.634   8.288 -0.1290 -0.3331  0.2591
44161SOL    HW136075   4.506   6.722   8.264  1.9773  0.1576 -0.9034
44161SOL    HW236076   4.567   6.643   8.378  2.0112  0.7569 -0.5052
44162SOL     OW36077   3.815   1.393  10.128  0.0319  0.2150  0.0866
44162SOL    HW136078   3.736   1.350  10.161 -1.0835  1.2021 -1.1963
44162SOL    HW236079   3.820   1.366  10.037 -0.2391  2.1216 -0.5302
44163SOL     OW36080   1.440   1.827   3.626 -0.2597  0.2906 -0.1545
44163SOL    HW136081   1.462   1.854   3.715 -0.7042  1.7804 -0.4744
44163SOL    HW236082   1.472   1.737   3.620  0.2348  0.3389  1.3406
44164SOL     OW36083   8.435   7.324   2.868  0.3913  0.0348 -0.1438
44164SOL    HW136084   8.401   7.388   2.930 -0.3406  0.0541 -0.5529
44164SOL    HW236085   8.528   7.346   2.858  0.0886  1.1954 -0.4882
44165SOL     OW36086   1.100   5.759   1.017  0.0040 -0.1572  0.0265
44165SOL    HW136087   1.153   5.739   0.940 -0.7649 -0.6816 -0.3678
44165SOL    HW236088   1.092   5.855   1.016  0.9564 -0.0661  0.1101
44166SOL     OW36089   0.162   1.058   0.145 -0.0584 -0.1392 -0.3855
44166SOL    HW136090   0.074   1.032   0.118  0.2816 -0.9832 -0.7246
44166SOL    HW236091   0.158   1.061   0.241 -1.0784  2.1765 -0.4232
44167SOL     OW36092   8.196   1.871   1.386  0.0589 -0.6085 -0.4051
44167SOL    HW136093   8.121   1.882   1.444  1.2712  0.5047  1.0097
44167SOL    HW236094   8.239   1.791   1.417  0.5804 -0.1345  0.1262
44168SOL     OW36095   0.045   9.171   0.647  0.0860 -0.2748 -0.1888
44168SOL    HW136096   0.039   9.264   0.623  2.3961 -0.0378 -0.1053
44168SOL    HW236097   0.074   9.127   0.567 -0.0902 -0.7653  0.0128
44169SOL     OW36098   6.606   9.669   0.456 -0.0724 -0.0564  0.2641
44169SOL    HW136099   6.572   9.580   0.440  0.3112 -0.7171  2.7731
44169SOL    HW236100   6.701   9.661   0.442 -0.0715  0.0310  0.2205
44170SOL     OW36101   6.692   1.335   0.297 -0.0282  0.6535  0.1225
44170SOL    HW136102   6.634   1.270   0.336  1.1887  0.0672  1.0333
44170SOL    HW236103   6.740   1.288   0.230 -0.3288  1.0416 -0.3728
44171SOL     OW36104   3.248   6.286   8.548 -0.1297 -0.6403 -0.0845
44171SOL    HW136105   3.334   6.243   8.547  1.9213  3.0407 -1.9725
44171SOL    HW236106   3.203   6.250   8.472  0.4009 -1.3878 -0.0577
44172SOL     OW36107   8.729   5.117   0.893 -0.1151  0.3730 -0.1421
44172SOL    HW136108   8.804   5.159   0.852  0.1784 -0.4934 -0.5016
44172SOL    HW236109   8.684   5.072   0.822 -0.6580  0.4188  0.1686
44173SOL     OW36110   0.355   5.784   0.015 -0.2003 -0.5411  0.5178
44173SOL    HW136111   0.400   5.793   0.099  1.3249  3.1780 -0.4703
44173SOL    HW236112   0.280   5.844   0.022 -2.1073 -2.7694  0.3072
44174SOL     OW36113   9.514   7.851   2.479  0.5153 -0.5430  0.3931
44174SOL    HW136114   9.606   7.875   2.467 -0.0815  1.6744 -0.4250
44174SOL    HW236115   9.479   7.919   2.537 -0.7977 -0.8317 -0.0255
44175SOL     OW36116   3.710  10.461   3.294 -0.5345  0.5525 -0.2588
44175SOL    HW136117   3.744  10.433   3.209  1.4937 -1.2858  1.0440
44175SOL    HW236118   3.758  10.541   3.314 -0.1948  0.3782 -0.3672
44176NA      NA36119   2.523   1.933   3.879 -0.0913 -0.1811  0.8946
44177NA      NA36120   4.909   1.361   4.734  0.7849  0.1680 -0.2921
44178NA      NA36121  10.895   2.305   7.699 -0.0889  0.0906  0.2141
44179NA      NA36122   2.366   1.238   8.418 -0.0626 -0.2730  0.2077
44180NA      NA36123   3.282  10.514   3.025 -0.2390 -0.2931 -0.2471
44181NA      NA36124   8.593   3.715   9.867  0.3252 -0.1750  0.1124
44182NA      NA36125   0.345   9.485   9.415  0.3150 -0.2603 -0.1131
44183NA      NA36126  10.571   7.256   1.973  0.1826  0.2687  0.0034
44184NA      NA36127   6.210   3.245   0.879 -0.0658 -0.5811 -0.3378
44185NA      NA36128   5.798   2.197   1.606  0.8564  0.2984 -0.3354
44186NA      NA36129  10.108   8.762   5.579 -0.0444 -0.0284  0.3796
44187NA      NA36130   6.125   5.053  10.129  0.1839 -0.0742 -0.2749
44188NA      NA36131   9.105  10.602   8.806 -0.1336 -0.2783  0.2624
44189NA      NA36132   4.248   5.195   5.963 -0.1012  0.5408 -0.1718
44190NA      NA36133   7.583   9.731   4.672  0.0541  0.3402  0.4773
44191NA      NA36134   2.640  10.294   4.960 -0.3677  0.1951 -0.3862
44192NA      NA36135   4.601   2.747   8.226  0.2010 -0.2818 -0.0646
44193NA      NA36136   5.445   4.774   6.267 -0.3068  0.0478 -0.2028
44194NA      NA36137   1.076   9.699   3.175 -0.3674  0.6836  0.4198
44195NA      NA36138   7.578   4.318  10.565  0.6882 -0.0589 -0.2594
44196NA      NA36139   5.368   0.328   3.690 -0.0496 -0.1110  0.1876
44197NA      NA36140   4.549   7.080   3.201 -0.0408  0.5926 -0.0888
44198NA      NA36141   4.727   6.671   7.579  0.2845  0.3930  0.0103
44199NA      NA36142   9.804   9.354  10.606  0.0144  0.7202 -0.0725
44200NA      NA36143   1.013   6.911   8.133 -0.0547 -0.1568  0.5335
44201NA      NA36144   5.612   5.907   5.032  0.1476  0.7075  0.0256
44202NA      NA36145   7.318   2.182   3.630  0.0879 -0.1253 -0.0526
44203NA      NA36146   4.860   3.295   1.261 -0.1809  0.0427 -0.0025
44204NA      NA36147   9.813   0.252   4.931  0.0615 -0.2075 -0.3182
44205NA      NA36148  10.937   1.468   8.151  0.4143  0.6092  0.1648
44206NA      NA36149   9.614   4.288   9.789  0.0238 -0.0685 -0.0280
44207NA      NA36150  10.193   4.150   7.073  0.0798  0.4266 -0.4740
44208NA      NA36151   8.430  10.319   1.480  0.8072  0.0149  0.7067
44209NA      NA36152   4.444   1.397   5.535 -0.0310 -0.1946 -0.3980
44210NA      NA36153   3.919   0.633   2.145 -0.3951 -0.0791  0.2285
44211NA      NA36154   3.601   5.104   8.906 -0.7217  0.7260  0.5067
44212NA      NA36155   9.136   5.954   8.366  0.3910  0.6983  0.1298
44213NA      NA36156   7.242   2.484   8.714 -0.1480 -0.1281 -0.2932
44214NA      NA36157   9.547   7.269   3.072  0.5028 -0.1469 -0.2359
44215NA      NA36158   9.457  10.294   3.541  0.2414  0.1422  0.0953
44216NA      NA36159   7.670   0.731   8.648  0.4664 -0.4383 -0.7135
44217NA      NA36160   4.530   1.851   5.237  0.1003 -0.1606 -0.3133
44218NA      NA36161   7.758   9.986   4.146 -0.1398 -0.2631  0.7425
44219NA      NA36162  10.525   1.851   2.886 -0.4808  0.4188 -0.1792
44220NA      NA36163   9.139   8.290   0.055 -0.1676  0.2871  0.1781
44221NA      NA36164   9.229  10.315   9.645 -0.0660 -0.2353 -0.1856
44222NA      NA36165   4.685  10.074   8.068 -0.2033 -0.0548 -0.1705
44223NA      NA36166   8.375   9.921   7.946 -0.4356 -0.2191 -0.2986
44224NA      NA36167   0.604   7.033  10.224 -0.2018 -0.4964 -0.3474
44225NA      NA36168   8.684   8.824   1.474  0.0406 -1.0208 -0.4425
44226NA      NA36169   4.889   5.043   6.403  0.0675 -0.3165  0.2743
44227NA      NA36170   7.860   8.114   6.740 -0.0909  0.1987  0.2095
44228NA      NA36171   2.307   8.793   9.052 -0.4612 -0.6848 -0.1954
44229NA      NA36172   4.314   2.304   1.475  1.0867 -0.1102  0.4740
44230NA      NA36173  10.913   6.358   1.136  0.4234  0.5175  0.0736
44231NA      NA36174   5.456   8.946   7.393 -0.0046  0.3393 -0.1334
44232NA      NA36175   0.262   9.471  10.605 -0.0542 -0.5172 -0.0462
44233NA      NA36176   4.026   3.670   8.913 -0.2175  0.7282  0.8994
44234NA      NA36177   6.593   6.787   1.873 -0.2373  0.2864  0.0778
44235NA      NA36178   8.616   9.302   2.330 -0.3130 -0.2445 -0.9396
44236NA      NA36179   5.229   3.423   8.503 -0.0889 -0.4613 -0.5107
44237NA      NA36180   9.628  10.512   2.689  0.3652 -0.2610  0.0741
44238NA      NA36181   2.265   9.066   5.055 -0.7631 -0.3164  0.1317
44239NA      NA36182   6.901   6.060   9.711 -0.4343 -0.0299 -0.3065
44240NA      NA36183   3.619  10.187   6.160  0.2044  0.2147 -0.0954
44241NA      NA36184   2.915  10.763   1.104 -0.4386  0.0181 -0.0432
44242NA      NA36185   6.692   0.399   3.441  0.3674  0.5103 -0.6562
44243NA      NA36186   2.201   8.847   5.332  0.0351  0.1613 -0.4627
44244NA      NA36187   8.972   7.807   5.239 -0.4545 -0.3090 -0.0637
44245NA      NA36188   1.355   6.415   0.633  0.0294  0.5385 -0.2246
44246NA      NA36189   1.802  10.062   0.479 -0.1497 -0.0111  0.0772
44247NA      NA36190   1.402   0.438   8.722  0.2882  0.1304  0.8007
44248NA      NA36191   7.412   3.754   6.413  0.2067  0.3562 -0.1431
44249NA      NA36192   4.903   9.394   8.282  0.4801 -0.1244 -0.2742
44250NA      NA36193   1.559   3.438   3.905  0.4541 -0.1297 -0.1947
44251NA      NA36194   7.779   1.745  11.002  0.0588  0.2944  0.0857
44252NA      NA36195  10.849   0.124   6.245 -0.3990 -0.0768  0.0856
44253NA      NA36196   5.239   1.020   0.112 -0.6972 -0.1609 -0.5474
44254NA      NA36197   8.163   6.019   0.381  0.2087  0.2221  0.7104
44255NA      NA36198   0.576   9.567   2.403  0.1429  0.1467 -0.1169
44256NA      NA36199   6.206   9.721   2.060  0.5187  0.6859  0.1279
44257NA      NA36200   7.929   7.981  10.286  0.5580  0.4358  0.7202
44258NA      NA36201   0.347   1.351   0.231 -0.2095  0.3704 -0.1112
44259NA      NA36202   5.725   9.571   5.430 -0.2510 -0.4855 -0.0564
44260NA      NA36203   0.911   3.990   6.807  0.0816 -0.3678  0.2932
44261NA      NA36204   3.163   2.822   3.259 -0.2847  0.3681 -0.2890
44262NA      NA36205   9.214   3.451   8.537  0.8976  0.1878  0.5087
44263NA      NA36206   6.386   1.011   5.521 -0.7979 -0.3073  0.3160
44264NA      NA36207   2.688   4.046   9.667 -0.5677 -0.2718 -0.0523
44265NA      NA36208   6.560   5.549   3.804 -0.0543  0.3171  0.1999
44266NA      NA36209   9.826   3.991  11.094  0.4141 -0.2675 -0.1497
44267NA      NA36210   1.840   1.491  10.558 -0.7001  0.2669  0.5254
44268NA      NA36211   0.426   7.992   7.571 -0.2435 -0.1602  0.0417
44269NA      NA36212   4.120   7.625   0.576  0.7948  0.1299  0.6724
44270NA      NA36213   1.898  10.157  10.635  0.1454  0.0215 -0.0839
44271NA      NA36214   6.165   8.617   3.742 -0.4970  0.1198 -0.2063
44272NA      NA36215   4.574   1.342   9.343  0.1307  0.1829  0.4674
44273NA      NA36216   2.962  10.896   5.600  0.2536  0.1727  0.4009
44274NA      NA36217  10.965   7.641   1.270  0.1750  0.3402 -0.0856
44275NA      NA36218   6.398   4.465   8.329  0.1940  0.0651  0.1285
44276NA      NA36219   4.134   5.578   4.443  0.0206  0.0506 -0.1122
44277NA      NA36220   7.462   7.262   7.996 -0.2034  0.5752 -0.0144
44278NA      NA36221   3.692   0.417   5.645  0.0674  0.0006  0.1723
44279NA      NA36222   6.672   5.597  10.027 -0.6158  0.1009  0.0423
44280NA      NA36223   7.223  10.574  10.773  0.2842  0.5783 -0.0787
44281NA      NA36224   3.759   6.022   8.805  0.1540  0.0552 -0.4003
44282NA      NA36225   7.006   0.777   0.479  0.1192 -0.5739 -0.3454
44283NA      NA36226   8.910   6.486   5.148 -0.5673  0.1994 -0.1988
44284NA      NA36227   1.558   2.570   8.855  0.1908 -0.1553 -0.6386
44285NA      NA36228   8.713  10.239   6.830 -0.0059  0.0041  0.7098
44286NA      NA36229   8.078   8.715   7.379 -0.4817  0.0062  0.1416
44287NA      NA36230   8.593   9.816   3.421 -0.3374  0.6250 -0.3284
44288NA      NA36231   2.859   1.354   3.400 -0.0713 -0.3759  0.3064
44289NA      NA36232   2.534  10.572   9.795 -0.5329  0.1012  0.2232
44290NA      NA36233   0.215   3.593   9.288  0.4139  0.2755 -0.2990
44291NA      NA36234   5.084   7.154   7.172  0.2303 -0.0459 -0.0795
44292NA      NA36235   8.910   2.463   6.219 -0.1468 -0.0537  0.0921
44293NA      NA36236   3.178  10.192   8.441  0.5304 -0.5074  0.2021
44294NA      NA36237   3.158   4.606   5.300  0.6161  0.0880 -0.0804
44295NA      NA36238   1.285  10.415  10.418 -0.6060 -0.5047 -0.5185
44296NA      NA36239   6.517   2.994   7.809  0.1872 -0.0306 -0.1534
44297NA      NA36240   6.061  10.925   2.060 -0.0380  0.2180  0.3496
44298NA      NA36241   6.138   4.850   3.504 -0.4533 -0.0495 -0.0046
44299NA      NA36242   4.081   0.900   7.870 -0.0337  0.4891 -0.2737
44300NA      NA36243   5.183   6.870   0.864  0.1180 -0.6181  0.1514
44301NA      NA36244   9.548   9.624   7.640  0.2531  0.0511 -0.3067
44302NA      NA36245   8.776  10.173   7.372 -0.1694 -0.1111 -0.6323
44303NA      NA36246   0.578  10.188   4.575 -0.1365  0.3503 -0.4377
44304CL      CL36247   0.189   4.858   4.682  0.2625 -0.0438 -0.0491
44305CL      CL36248   3.446   2.798   7.254 -0.3155 -0.4265 -0.0678
44306CL      CL36249   4.114   6.035   7.097  0.5186  0.1038  0.4693
44307CL      CL36250   8.412   6.665   0.016  0.7048  0.2618  0.2721
44308CL      CL36251   3.587   8.991   5.328 -0.1101 -0.0987 -0.3099
44309CL      CL36252   1.717   4.343   9.293 -0.3248 -0.0617  0.1037
44310CL      CL36253   0.270   8.235   7.167 -0.0379 -0.0615 -0.2510
44311CL      CL36254   4.267   4.332   7.953  0.1781 -0.0945 -0.1432
44312CL      CL36255   2.361   9.252   5.181  0.3303  0.2188  0.5466
44313CL      CL36256   0.198   8.423   1.355  0.0224  0.4222 -0.3268
44314CL      CL36257   9.955   9.387   6.874  0.0427  0.1631 -0.0598
44315CL      CL36258   1.159   6.031   6.706 -0.0776 -0.3682 -0.2119
44316CL      CL36259   0.502   2.589   8.800 -0.0331 -0.1592 -0.1316
44317CL      CL36260   3.654   6.252   3.068 -0.0306 -0.0738  0.0527
44318CL      CL36261   0.832   0.799   4.970 -0.2747  0.1576  0.3227
44319CL      CL36262   3.923   3.877   6.885  0.1299 -0.3850 -0.0448
44320CL      CL36263   0.285   7.582   5.923  0.3077  0.2863  0.2848
44321CL      CL36264   8.415   7.892   4.706 -0.0726 -0.1552  0.2327
44322CL      CL36265   1.111   7.593   3.616 -0.2056  0.0800 -0.2560
44323CL      CL36266   5.320  10.563   9.349  0.0133  0.0447 -0.2833
44324CL      CL36267  10.431   7.280   5.516 -0.0628 -0.1803 -0.0148
44325CL      CL36268   7.260   0.645   4.968  0.2669  0.3157 -0.0616
44326CL      CL36269   2.309   8.824   5.124 -0.0632  0.2785 -0.1539
44327CL      CL36270   1.959   5.369   0.482 -0.0996 -0.2819 -0.1311
44328CL      CL36271   5.959   0.009  10.773  0.3410  0.0313  0.0252
44329CL      CL36272  11.017   2.378   7.510  0.0280 -0.0554  0.4037
44330CL      CL36273   3.000   6.494   3.225 -0.1270  0.5827 -0.0873
44331CL      CL36274   8.214   4.563   8.169  0.0093 -0.0480  0.1880
44332CL      CL36275   8.290   8.166   7.345  0.2803 -0.1281  0.2468
44333CL      CL36276   0.344   5.815   1.894 -0.5390 -0.1538  0.2796
44334CL      CL36277   2.892   3.941   2.123 -0.3874  0.3999 -0.2368
44335CL      CL36278   5.519   1.116   1.880  0.1469  0.4034  0.4203
44336CL      CL36279   7.237  10.972   6.472 -0.0973  0.4418  0.3852
44337CL      CL36280  10.249   4.860   4.821  0.0544 -0.1852 -0.3954
44338CL      CL36281   0.741   7.472   1.217 -0.2516  0.0741 -0.1323
44339CL      CL36282   5.888   3.915   2.986 -0.0463 -0.1763 -0.1570
44340CL      CL36283   3.908   9.930   3.674  0.0050 -0.1589  0.0620
44341CL      CL36284   0.606   2.337   2.966 -0.3895 -0.1181 -0.0215
44342CL      CL36285  10.968   5.992   0.879 -0.0474  0.3433 -0.5021
44343CL      CL36286   4.663   3.288   1.100  0.0288  0.2496  0.0398
44344CL      CL36287   4.384   7.433   5.356  0.2032 -0.0698  0.0337
44345CL      CL36288   0.045   4.123   0.902 -0.2596 -0.0206  0.6376
44346CL      CL36289   4.149   4.866   7.360 -0.1257 -0.3586  0.0373
44347CL      CL36290   3.177   8.021   0.907  0.2256 -0.3351  0.1194
44348CL      CL36291   3.131   4.375   5.244 -0.0236 -0.0126 -0.2150
44349CL      CL36292   1.157   9.234   4.369  0.7164 -0.0842  0.3626
44350CL      CL36293   9.444  10.464  10.226  0.4250 -0.7106  0.0813
44351CL      CL36294   2.180   8.441   3.872  0.0732 -0.3236 -0.2777
44352CL      CL36295   3.526   4.560   3.574  0.2118 -0.0839 -0.3379
44353CL      CL36296   2.442   7.488   3.600 -0.0485  0.0133  0.1528
44354CL      CL36297   1.944   3.891   0.239  0.0427 -0.1725  0.4343
44355CL      CL36298   9.435   6.069   5.413  0.4637 -0.4694  0.1244
44356CL      CL36299   2.827   5.883   1.777  0.1105 -0.1125 -0.1079
44357CL      CL36300   2.458   8.269   3.381  0.0467 -0.5053  0.1451
44358CL      CL36301   4.237   3.751   9.013 -0.0368  0.0136  0.3498
44359CL      CL36302   0.578   7.093   8.322  0.2293  0.1964  0.0199
44360CL      CL36303   7.605   1.532   3.851 -0.1294  0.1441 -0.5559
44361CL      CL36304   8.730   1.612   1.168  0.1211  0.0082 -0.1588
44362CL      CL36305   2.786   5.905   6.349  0.1868 -0.0161 -0.1343
44363CL      CL36306   5.783  10.745   7.634  0.1539 -0.5571 -0.0253
44364CL      CL36307   1.501   5.094   3.130 -0.2920  0.3372 -0.1718
44365CL      CL36308   8.829   3.876   4.965 -0.2633  0.0544  0.3704
44366CL      CL36309   5.150   6.009  11.107  0.2530 -0.2876 -0.0576
44367CL      CL36310   0.598   1.402   5.700 -0.3790  0.1306  0.0630
44368CL      CL36311   1.068   5.299   5.298  0.3871 -0.0676 -0.1247
44369CL      CL36312   9.655   2.836   4.277 -0.1056  0.6182  0.1170
44370CL      CL36313   0.478   6.223   5.280 -0.1327 -0.3316 -0.0045
44371CL      CL36314  10.376   7.211   2.489  0.1659 -0.1708 -0.2035
44372CL      CL36315   8.036   4.729   4.310 -0.1640 -0.0237  0.2178
44373CL      CL36316   2.394   2.387   8.460  0.1447  0.1154  0.1493
44374CL      CL36317   2.390   5.356   2.691  0.4228  0.0721  0.3164
44375CL      CL36318   0.840   6.658   3.363 -0.0687  0.2280 -0.1712
44376CL      CL36319   5.322   5.634   4.795 -0.0936 -0.2465 -0.0268
44377CL      CL36320   8.334   5.071   2.362  0.3019 -0.0208  0.0957
44378CL      CL36321   4.458   3.003   7.422  0.0523 -0.0867  0.4154
44379CL      CL36322   1.388   5.378   6.154 -0.1844 -0.3941 -0.0285
44380CL      CL36323   9.734   6.933   3.326  0.4714  0.2019  0.0025
44381CL      CL36324   4.736   2.631   1.988 -0.0795  0.1280  0.5824
44382CL      CL36325   5.834   2.161   1.378 -0.0520 -0.0264  0.3445
44383CL      CL36326   7.668   7.494   7.692 -0.1089 -0.2273 -0.6141
44384CL      CL36327   2.703   1.874   3.392  0.1534  0.2034 -0.1849
44385CL      CL36328   1.241   2.694   5.790  0.1649 -0.1903 -0.4940
44386CL      CL36329   1.442   3.155   7.272  0.0732 -0.1160  0.1181
44387CL      CL36330   0.418   4.631   9.569  0.1634  0.1950  0.2998
44388CL      CL36331   9.169   9.808   9.868 -0.1335 -0.1915 -0.3490
44389CL      CL36332   8.144   9.920   0.062 -0.2378  0.2606  0.2109
44390CL      CL36333   3.600   5.778   5.304  0.1000 -0.1343  0.0297
44391CL      CL36334  10.758   1.494   0.555  0.2913  0.0459  0.2051
44392CL      CL36335   1.804   1.586   5.225  0.1908 -0.2383 -0.1025
44393CL      CL36336   2.976   8.243   5.395  0.2450 -0.1513  0.0694
44394CL      CL36337   4.288   5.484   4.265 -0.1395  0.2944 -0.0910
44395CL      CL36338  10.803   4.208   3.213 -0.0039  0.4898  0.3362
44396CL      CL36339   8.820   3.773   4.023 -0.3209 -0.0248  0.0663
44397CL      CL36340  10.558   4.724   5.184  0.3647 -0.3308  0.1290
44398CL      CL36341  10.857   2.477   3.518 -0.0198  0.0451  0.2555
44399CL      CL36342   9.668   6.665   0.125 -0.1456  0.0618 -0.0679
44400CL      CL36343   6.417   7.895   3.841  0.1544 -0.4054 -0.0543
44401CL      CL36344   1.804   4.678   7.268  0.0621 -0.0693  0.1294
44402CL      CL36345   0.128   4.459   5.931  0.2204 -0.0471  0.2288
44403CL      CL36346   2.195   3.111   4.200  0.0392 -0.1834  0.0445
44404CL      CL36347   3.474   3.109   4.138  0.0478  0.0309  0.0984
44405CL      CL36348   9.280   2.589   4.725 -0.0409 -0.3576  0.1870
44406CL      CL36349   7.564   3.496   3.053 -0.0559  0.0889  0.1336
44407CL      CL36350   2.450   6.182   3.693 -0.2691 -0.6135  0.3086
44408CL      CL36351   3.812   7.250   3.155 -0.3167  0.0936  0.9052
44409CL      CL36352   8.840   1.466  10.220 -0.2366  0.2612  0.2111
44410CL      CL36353   3.120   3.244   5.081  0.0291 -0.1599  0.1194
44411CL      CL36354  10.253   8.419   2.877 -0.0729  0.2405 -0.0886
44412CL      CL36355   1.978   0.534   9.549 -0.3345 -0.2173  0.2348
44413CL      CL36356   7.619   5.835   9.863  0.2962 -0.5242  0.1500
44414CL      CL36357   0.604   6.715  10.987  0.1800  0.0031 -0.0469
44415CL      CL36358   4.632   3.588   5.911 -0.0291  0.0305 -0.2605
44416CL      CL36359   2.702   4.745   5.494 -0.5678  0.2447 -0.1215
44417CL      CL36360   0.022   6.273   5.360  0.2602 -0.6539 -0.0288
44418CL      CL36361   3.880   2.408   1.310  0.0177  0.0495  0.0496
44419CL      CL36362   9.323   8.009   4.309 -0.3176 -0.1907  0.2800
44420CL      CL36363   2.093   2.530   4.744  0.0003  0.1348  0.0810
44421CL      CL36364   9.426   0.105   7.563 -0.0571 -0.2223 -0.2354
44422CL      CL36365   2.165   8.703   5.526 -0.0110 -0.2285  0.2905
44423CL      CL36366   2.035   4.294   3.584  0.1969 -0.0226  0.3096
44424CL      CL36367   5.551   7.979   8.928  0.3298 -0.0053 -0.6261
44425CL      CL36368  10.699   6.506   6.198 -0.3291  0.1637 -0.0339
44426CL      CL36369   9.395   0.684   3.144  0.5440  0.0844 -0.1289
44427CL      CL36370   1.776   0.189  10.180 -0.0749 -0.1237  0.1514
44428CL      CL36371   8.084   9.250   7.517 -0.0377  0.1835 -0.1505
44429CL      CL36372   0.765   4.056   7.001  0.1647  0.3553  0.2502
44430CL      CL36373   9.130   2.400   6.146  0.4290 -0.1094 -0.1195
44431CL      CL36374   7.878   8.203  10.160 -0.2052 -0.4540  0.0056
44432CL      CL36375   4.405   5.621   5.622  0.2362 -0.1522  0.1753
44433CL      CL36376   2.399   3.677   7.723  0.3290  0.1307 -0.1158
44434CL      CL36377   4.575   0.001   7.878 -0.2795  0.0792  0.1638
44435CL      CL36378   1.498   2.788   2.827 -0.3054  0.3789 -0.7207
44436CL      CL36379   2.252   8.787   1.404 -0.1081 -0.1222 -0.3232
44437CL      CL36380   1.853   3.911   1.369  0.4506  0.0705  0.2449
44438CL      CL36381   9.450   4.002   4.733 -0.0159  0.1717  0.5432
44439CL      CL36382   7.907   3.277   4.155 -0.2871  0.4903  0.1886
44440CL      CL36383   2.355   7.172   4.736  0.2032  0.5846  0.3910
44441CL      CL36384   1.985   6.567   2.790 -0.0714 -0.0729  0.0382
44442CL      CL36385  10.801   6.230   0.254  0.0252 -0.0432  0.1558
44443CL      CL36386   7.233   6.340   9.572  0.3266  0.0703  0.2775
44444CL      CL36387   3.428   8.312   8.238  0.4130  0.1088 -0.5483
44445CL      CL36388   2.044   4.894   5.164 -0.2829  0.1404 -0.2009
44446CL      CL36389   4.578   1.768   5.453 -0.2901  0.1410 -0.1705
44447CL      CL36390  10.372   6.869   3.262  0.2259 -0.5583 -0.1989
44448CL      CL36391   6.431   6.940   7.500 -0.3129 -0.0824 -0.0188
44449CL      CL36392   3.219   9.591  11.065  0.4023  0.3595  0.2811
44450CL      CL36393   2.298   0.906   6.523  0.0983 -0.1855 -0.5436
44451CL      CL36394   8.528   4.876   7.109 -0.3049 -0.2798  0.0802
44452CL      CL36395  10.912   3.036   5.156  0.4160 -0.0676  0.0428
44453CL      CL36396   0.754  10.971   4.996  0.2749  0.2151 -0.4684
44454CL      CL36397   0.925   5.885   2.652  0.0326 -0.1912 -0.1945
44455CL      CL36398   3.978   5.768   4.388  0.4872  0.0713  0.1509
44456CL      CL36399   1.414   3.576   4.031  0.2579 -0.1436  0.4090
44457CL      CL36400   4.262   4.299   0.293 -0.1865  0.1139 -0.4333
44458CL      CL36401   0.808   5.058   5.789 -0.0465  0.0732  0.0679
44459CL      CL36402   0.038   4.668   3.586 -0.1276  0.2496 -0.1947
44460CL      CL36403   5.715  10.864   9.459 -0.1907  0.1104 -0.0393
44461CL      CL36404   8.175   3.336   9.626  0.0917  0.0606  0.0009
44462CL      CL36405   0.159   2.681   6.924 -0.3115 -0.1596  0.0171
44463CL      CL36406   3.664   3.795   3.253 -0.4843 -0.2915  0.0261
44464CL      CL36407   5.451   0.996   7.242 -0.0041  0.4697 -0.1414
44465CL      CL36408   2.349   5.197   4.940 -0.4586  0.0731 -0.2937
44466CL      CL36409   0.824   3.269   4.799  0.6997 -0.3089 -0.2917
44467CL      CL36410   3.544   8.768   1.272  0.1650 -0.3497  0.0810
44468CL      CL36411   2.410   7.625   2.302  0.0159 -0.4335  0.3774
44469CL      CL36412   2.117   4.845   4.293  0.1253 -0.2086  0.2899
44470CL      CL36413   4.744   6.810   5.953 -0.1570  0.1993 -0.2673
44471CL      CL36414   6.338   3.085   0.774  0.4461  0.4890  0.0672
44472CL      CL36415   3.311   4.972   2.777  0.0599 -0.0848  0.5463
44473CL      CL36416   2.857   0.303   8.053  0.0879  0.0768  0.0485
44474CL      CL36417  10.849   5.621   6.680  0.4937  0.8096 -0.4392
44475CL      CL36418   0.167   4.352   2.627  0.2861 -0.0419 -0.2343
44476CL      CL36419   0.984   4.226   1.785 -0.0786  0.1492 -0.3118
44477CL      CL36420  10.704   6.028   3.047  0.0369  0.0358  0.0083
44478CL      CL36421   9.826   5.537   5.721 -0.5090  0.6847 -0.3321
44479CL      CL36422   1.534   6.052   4.266  0.3814 -0.1783  0.2697
44480CL      CL36423   2.528   3.473   6.411  0.0171  0.0907 -0.3325
44481CL      CL36424   0.437   5.548   6.779  0.0385 -0.2294  0.1269
44482CL      CL36425   6.324   5.899   3.495 -0.1697 -0.4277  0.1873
44483CL      CL36426   7.056   3.473   4.457 -0.1479  0.0296  0.0725
44484CL      CL36427   2.982   1.438   7.439  0.4727 -0.0503 -0.2245
44485CL      CL36428   0.835   3.663   6.264 -0.0567  0.3248 -0.2221
44486CL      CL36429   2.482   3.999   5.023  0.3007 -0.4675 -0.2140
44487CL      CL36430   5.673   6.421   1.068 -0.5572  0.0366 -0.0863
44488CL      CL36431   7.993   3.127   5.399  0.0028 -0.1426  0.1114
44489CL      CL36432   9.928   6.174   2.475 -0.2600  0.1195 -0.2675
44490CL      CL36433   1.509   1.003   1.120 -0.8887  0.1389  0.3846
44491CL      CL36434   2.527   4.710   1.381 -0.2144  0.2503 -0.0355
44492CL      CL36435   2.407   3.083   1.701 -0.2247 -0.0033 -0.0254
44493CL      CL36436   5.692   6.332   2.016 -0.5673 -0.2805  0.2378
44494CL      CL36437   7.941   8.308   5.936  0.1828 -0.4673  0.2018
44495CL      CL36438   7.335   9.025   6.018  0.1855 -0.1944 -0.3352
44496CL      CL36439   1.768   7.599   4.926  0.3605  0.4372 -0.0051
44497CL      CL36440   0.088  10.289   3.859  0.1054  0.5035  0.0617
44498CL      CL36441   9.124   5.013   3.076 -0.0595 -0.2110 -0.6039
44499CL      CL36442   6.907   3.931   8.904  0.1290 -0.0878  0.2605
44500CL      CL36443   6.913   3.326   1.427 -0.1168  0.2348  0.2104
44501CL      CL36444   9.791   4.125   5.951  0.1109 -0.2593  0.0294
44502CL      CL36445   3.290   5.273   4.722 -0.2214 -0.1030 -0.1838
44503CL      CL36446   5.067   5.373   5.100  0.0991  0.3272  0.0314
44504CL      CL36447   8.756   4.670   5.344 -0.1556  0.4937 -0.1692
44505CL      CL36448   2.249   1.157   3.508  0.1864 -0.0032 -0.6815
44506CL      CL36449   4.375   3.885   1.015  0.2487  0.3876  0.0080
44507CL      CL36450   5.529   5.923   0.311 -0.0289  0.5996  0.3138
44508CL      CL36451   2.281   5.989   1.970 -0.5205 -0.4443 -0.1157
44509CL      CL36452   3.675   2.812   4.988  0.0635  0.2503  0.0757
44510CL      CL36453   2.709   3.838   6.671 -0.0638  0.1872  0.1232
44511CL      CL36454  10.630   9.806  11.062 -0.2331 -0.1853  0.0847
44512CL      CL36455   3.869   3.508   9.003  0.3238 -0.1430 -0.0751
44513CL      CL36456   1.082  11.016   3.282 -0.1911  0.1837 -0.0658
44514CL      CL36457   3.693   7.466   4.292  0.1793  0.2784 -0.4884
44515CL      CL36458   3.995   5.332   3.304  0.5600 -0.0859 -0.2235
44516CL      CL36459   7.832   9.758   4.624  0.1690  0.1641 -0.1861
44517CL      CL36460   2.391   5.104   6.715 -0.2599 -0.0308  0.3738
44518CL      CL36461   2.633   0.031   5.192  0.1431 -0.0924  0.5183
44519CL      CL36462   0.805   6.044   2.168  0.1424 -0.5525  0.3545
44520CL      CL36463  10.064   6.914   6.278 -0.0320 -0.2998  0.0287
44521CL      CL36464   9.185  10.622   1.196 -0.7407  0.4582  0.0678
44522CL      CL36465   5.193   2.087   6.044 -0.1687 -0.2793 -0.0475
44523CL      CL36466   2.604   1.380  10.550 -0.2268 -0.3075 -0.1834
44524CL      CL36467   1.150   4.426   2.531 -0.1460  0.3127 -0.0962
44525CL      CL36468   1.339   1.216   3.966  0.3169  0.1714 -0.3832
44526CL      CL36469  10.894   1.691   4.892 -0.3574  0.4816 -0.1524
44527CL      CL36470   4.027  10.157   4.394  0.0033  0.1940 -0.3372
44528CL      CL36471   2.157   6.180   5.501 -0.3664  0.2899  0.4911
44529CL      CL36472   9.299   1.996   2.799 -0.2122 -0.4806  0.1084
44530CL      CL36473   9.888   0.322   4.481  0.0971  0.1119  0.3421
44531CL      CL36474  10.690   7.007   4.312  0.4657  0.3316  0.3921
44532CL      CL36475   0.397   2.331   6.160 -0.5386  0.0128  0.2779
44533CL      CL36476   3.009  10.969  11.086  0.4783 -0.0749  0.0542
44534CL      CL36477  10.335   9.043   6.409 -0.0623  0.6385  0.0465
44535CL      CL36478   4.733  10.674   3.872 -0.4255  0.5185  0.2851
44536CL      CL36479   3.651   6.170   1.989 -0.2233 -0.0423  0.2505
44537CL      CL36480   0.854   7.194   4.569 -0.2956 -0.1883 -0.2866
44538CL      CL36481  10.082   3.286  10.177 -0.2782  0.0504  0.0105
44539CL      CL36482   3.778   1.843   4.151  0.4218  0.3783 -0.2562
44540CL      CL36483   4.895   4.433   1.319 -0.1055  0.0403  0.2286
44541CL      CL36484   5.401   3.365   7.608 -0.0794 -0.1936 -0.2970
44542CL      CL36485   1.606   5.324   0.062  0.2735 -0.2030  0.0934
44543CL      CL36486   0.442   4.423   7.423  0.2320  0.2046 -0.1079
44544CL      CL36487   3.930   5.488   1.556  0.2965 -0.4533  0.6858
44545CL      CL36488   6.945   1.764   1.477  0.1509 -0.1145 -0.4462
44546CL      CL36489   0.517   7.208   5.901  0.2804 -0.3623  0.5125
44547CL      CL36490   0.334   3.570   3.436 -0.0880 -0.4216  0.0954
44548CL      CL36491  10.157   7.556   0.168  0.1600 -0.0694 -0.3201
44549CL      CL36492   3.263   1.341   1.908 -0.6848 -0.3598 -0.1871
44550CL      CL36493   5.606   3.207  10.302 -0.0498  0.0114 -0.1261
44551CL      CL36494   9.493   8.290  10.204 -0.3576  0.0664  0.2178
44552CL      CL36495   9.663  10.167   3.535  0.1044  0.2514  0.2213
44553CL      CL36496   2.668   3.045   2.853 -0.2418  0.3240  0.3014
44554CL      CL36497   1.927   0.634   2.811  0.2501  0.1418  0.2247
44555CL      CL36498   5.174   5.923   9.953  0.0459 -0.3648  0.0401
44556CL      CL36499   1.301  10.517  10.201 -0.0841 -0.5513  0.1135
44557CL      CL36500   9.517   2.588   5.374  0.0219  0.2055 -0.5097
44558CL      CL36501  10.563   6.559   3.759 -0.0149 -0.2975  0.2782
44559CL      CL36502  10.915   7.426   7.358  0.3086  0.4293 -0.2956
44560CL      CL36503   9.907   6.010   2.929  0.1997 -0.0683 -0.1639
44561CL      CL36504   0.702   5.068   7.660  0.2592 -0.3338  0.0623
44562CL      CL36505   4.057   5.520   6.323  0.6126  0.0791  0.4391
44563CL      CL36506   3.125   4.570   8.344  0.0306  0.0629  0.0249
44564CL      CL36507   2.192   7.736   7.470 -0.2630 -0.0915 -0.0541
44565CL      CL36508   0.567   1.313   2.017 -0.1429  0.1999  0.4348
44566CL      CL36509   1.050   9.713  10.041  0.0611 -0.0635 -0.1227
44567CL      CL36510  10.042   1.047   1.708  0.3101 -0.1866  0.0471
44568CL      CL36511   0.294   6.322   7.038  0.0760 -0.0020  0.2862
44569CL      CL36512   9.532   9.225   7.406  0.2757  0.3069 -0.0389
44570CL      CL36513   2.448   6.683   7.026 -0.0591  0.1779 -0.5938
44571CL      CL36514   6.353   4.350   7.141  0.1279 -0.0478  0.1563
44572CL      CL36515   0.513   7.038   2.164  0.2565 -0.5087  0.2924
44573CL      CL36516   8.828   8.688   8.562  0.2236 -0.0120 -0.0234
44574CL      CL36517   3.199   5.160   6.178  0.0441 -0.1903 -0.1194
44575CL      CL36518   9.916   8.362   9.485  0.1719 -0.5202 -0.1619
44576CL      CL36519   8.057   0.465   3.464  0.3266 -0.2723 -0.4668
44577CL      CL36520   4.860   1.258   4.977  0.1035  0.2635  0.3297
44578CL      CL36521  10.717   1.144   8.998 -0.1712  0.0640 -0.0233
44579CL      CL36522   2.714   8.519   4.153 -0.1167 -0.1024  0.0104
44580CL      CL36523   1.673   5.193   9.419 -0.3728  0.2751  0.2143
44581CL      CL36524   9.874   3.309   6.849 -0.2261 -0.0456  0.4291
44582CL      CL36525   9.214   1.143   5.553  0.1544 -0.0141  0.2743
44583CL      CL36526   2.170   6.617   5.281  0.2983  0.1776 -0.2261
44584CL      CL36527   0.012   2.344   5.045 -0.3118  0.1570 -0.0152
44585CL      CL36528   3.978   5.092   8.514  0.2337  0.2890  0.0990
44586CL      CL36529  10.044   2.978   1.428 -0.4625  0.0925  0.6323
44587CL      CL36530   9.120   2.771   8.318 -0.2260  0.2057  0.1476
44588CL      CL36531   4.303   1.813   5.195  0.0997 -0.0012 -0.2512
44589CL      CL36532   2.191   8.176   9.750 -0.0067 -0.0601  0.0251
44590CL      CL36533   0.209   4.666   4.100  0.1178  0.1443  0.0143
44591CL      CL36534   1.977   3.608   2.930  0.1192 -0.1246 -0.0687
44592CL      CL36535   1.024   5.878   3.274  0.2366  0.0359  0.0348
44593CL      CL36536   0.497   5.516   7.660  0.4231 -0.0833 -0.3918
44594CL      CL36537  10.020  10.447   8.709 -0.1497 -0.2341 -0.0355
44595CL      CL36538  10.630   4.028   5.977 -0.1241  0.3267  0.2896
44596CL      CL36539   2.887   6.625   1.696  0.0635  0.2284 -0.2619
44597CL      CL36540   1.194   6.056   1.045  0.2193 -0.0406 -0.1402
44598CL      CL36541   3.116   6.541   6.931  0.2964  0.1725  0.1753
44599CL      CL36542   1.656   2.532   6.695  0.4691 -0.4102 -0.1283
44600CL      CL36543   1.341   6.497   7.537  0.1187 -0.4422 -0.1817
44601CL      CL36544   5.975   4.358   8.620  0.1960  0.2367  0.3946
44602CL      CL36545   1.203   6.683   0.061 -0.2362 -0.0771  0.2800
44603CL      CL36546   5.077   3.845   5.048  0.3046 -0.1627 -0.3196
44604CL      CL36547   8.131   0.221  10.665  0.2664 -0.3901  0.2700
44605CL      CL36548   1.400   8.591   2.184  0.2777  0.0208 -0.0322
44606CL      CL36549   2.476   5.341   8.531  0.0886 -0.0982 -0.1505
44607CL      CL36550   4.004   7.750   7.552 -0.1284  0.0845 -0.0538
44608CL      CL36551  10.868  10.959   9.412  0.1164  0.0991  0.2784
44609CL      CL36552  10.651   3.678   2.318  0.1180 -0.0388 -0.3682
44610CL      CL36553   9.719   8.311   2.705 -0.1367 -0.5048  0.1940
44611CL      CL36554   1.067   8.820   3.136 -0.2561 -0.1784  0.1585
44612CL      CL36555  10.647   1.907   6.621 -0.0499  0.4113  0.0014
44613CL      CL36556   0.060   1.865   4.006  0.2389 -0.3385  0.2109
44614CL      CL36557   1.917   1.891   2.893 -0.1176  0.2451  0.2931
44615CL      CL36558   4.419   3.760   2.924  0.0100  0.3035 -0.5442
44616CL      CL36559   0.582  10.086   9.250 -0.0521  0.0126 -0.0936
44617CL      CL36560   7.596   7.811   0.370 -0.0995  0.2020 -0.4325
44618CL      CL36561  10.759   7.361   2.521 -0.2384  0.3388  0.0151
44619CL      CL36562   5.102   8.634   7.752  0.0040 -0.2452  0.2319
44620CL      CL36563  10.491   5.302   6.117 -0.1207 -0.2329 -0.2571
44621CL      CL36564   8.492   3.588   2.572  0.2737 -0.2015 -0.1764
  11.11231  11.11231  11.11231
